* GENERATED BY CHARMM-GUI (HTTP://WWW.CHARMM-GUI.ORG) V3.7 ON JUL, 03. 2026. JOB
* INPUT GENERATION
*  DATE:     7/ 3/26      3:52:42      CREATED BY USER: charmm-gui
*
    100922  EXT
         1         1  POPE      N               6.9309351549       -0.9667011835       18.6816021510  MEMB      1               0.0000000000
         2         1  POPE      HN1             6.9091357895       -0.6448389467       19.6718765376  MEMB      1               0.0000000000
         3         1  POPE      HN2             7.7426547541       -1.5907663270       18.4682128710  MEMB      1               0.0000000000
         4         1  POPE      HN3             6.9291662526       -0.1849626481       18.0035188073  MEMB      1               0.0000000000
         5         1  POPE      C12             5.6503774011       -1.7209778205       18.5079715004  MEMB      1               0.0000000000
         6         1  POPE      H12A            5.3855834659       -2.1580740571       19.4965346518  MEMB      1               0.0000000000
         7         1  POPE      H12B            5.8774048166       -2.5279466354       17.7815019625  MEMB      1               0.0000000000
         8         1  POPE      C11             4.5256196946       -0.8575385082       17.8846543497  MEMB      1               0.0000000000
         9         1  POPE      H11A            3.6464885794       -1.5501898586       17.8014754395  MEMB      1               0.0000000000
        10         1  POPE      H11B            4.8150827074       -0.5626271049       16.8538031382  MEMB      1               0.0000000000
        11         1  POPE      P               2.8518165497        0.3018910795       19.4812068871  MEMB      1               0.0000000000
        12         1  POPE      O13             2.5423136075        1.6503714722       20.0105531709  MEMB      1               0.0000000000
        13         1  POPE      O14             3.0442611734       -0.8124801603       20.4290876566  MEMB      1               0.0000000000
        14         1  POPE      O11             1.7027611940       -0.0889188524       18.4679924131  MEMB      1               0.0000000000
        15         1  POPE      O12             4.2061722292        0.3481918591       18.5954949806  MEMB      1               0.0000000000
        16         1  POPE      C1              1.3856529059        0.7666932425       17.3990037601  MEMB      1               0.0000000000
        17         1  POPE      HA              2.1604490905        1.5242014649       17.1383757364  MEMB      1               0.0000000000
        18         1  POPE      HB              0.4868270589        1.3429109420       17.6931984663  MEMB      1               0.0000000000
        19         1  POPE      C2              1.1421867052       -0.0411337278       16.1359091982  MEMB      1               0.0000000000
        20         1  POPE      HS              0.0741433675       -0.4122521322       16.3140845039  MEMB      1               0.0000000000
        21         1  POPE      O21             1.9828533673       -1.1846794308       15.8955536276  MEMB      1               0.0000000000
        22         1  POPE      C21             1.5296781591       -2.2450114451       15.2324901674  MEMB      1               0.0000000000
        23         1  POPE      O22             0.4467762641       -2.5108778836       14.8329135282  MEMB      1               0.0000000000
        24         1  POPE      C22             2.5668833130       -3.0438057310       14.6642022296  MEMB      1               0.0000000000
        25         1  POPE      H2R             3.0539619383       -2.5926849080       13.7549081387  MEMB      1               0.0000000000
        26         1  POPE      H2S             2.1246007918       -4.0188809876       14.3205715931  MEMB      1               0.0000000000
        27         1  POPE      C3              1.3051664412        1.0478586003       14.9821124695  MEMB      1               0.0000000000
        28         1  POPE      HX              0.4261119450        1.7505879049       15.0387410253  MEMB      1               0.0000000000
        29         1  POPE      HY              1.0320788123        0.8295574713       14.0411830585  MEMB      1               0.0000000000
        30         1  POPE      O31             2.5667786079        1.4027159184       14.4664698827  MEMB      1               0.0000000000
        31         1  POPE      C31             3.3471922302        0.6106411145       13.7001005864  MEMB      1               0.0000000000
        32         1  POPE      O32             3.2230635008       -0.4523362178       13.1788632651  MEMB      1               0.0000000000
        33         1  POPE      C32             4.6186461096        1.1744665254       13.5168786930  MEMB      1               0.0000000000
        34         1  POPE      H2X             4.9428127110        1.1783069040       14.5674114569  MEMB      1               0.0000000000
        35         1  POPE      H2Y             4.4929961779        2.1473135539       13.0746005002  MEMB      1               0.0000000000
        36         1  POPE      C23             3.5073141423       -3.3765705102       15.7827019524  MEMB      1               0.0000000000
        37         1  POPE      H3R             3.1362636562       -3.3990440435       16.8078202755  MEMB      1               0.0000000000
        38         1  POPE      H3S             4.2631241416       -2.5849413056       15.6275699400  MEMB      1               0.0000000000
        39         1  POPE      C24             3.9729775913       -4.7766452848       15.7377459004  MEMB      1               0.0000000000
        40         1  POPE      H4R             3.3005302689       -5.6373598985       15.6356431361  MEMB      1               0.0000000000
        41         1  POPE      H4S             4.8820491114       -4.9811396402       16.3265499316  MEMB      1               0.0000000000
        42         1  POPE      C25             4.4426327738       -4.7547373531       14.5628831805  MEMB      1               0.0000000000
        43         1  POPE      H5R             3.7771544224       -4.5256231552       13.7131360986  MEMB      1               0.0000000000
        44         1  POPE      H5S             4.4869412686       -5.9702792068       14.2492314615  MEMB      1               0.0000000000
        45         1  POPE      C26             5.8698350018       -3.7632845263       14.7514562132  MEMB      1               0.0000000000
        46         1  POPE      H6R             6.6160864403       -4.2464788390       15.3371175046  MEMB      1               0.0000000000
        47         1  POPE      H6S             5.8468658812       -2.6484961257       14.4719320807  MEMB      1               0.0000000000
        48         1  POPE      C27             7.0213577908       -3.8948351260       13.8249515538  MEMB      1               0.0000000000
        49         1  POPE      H7R             7.3147877139       -5.2850304583       13.7104184814  MEMB      1               0.0000000000
        50         1  POPE      H7S             7.4006576050       -3.3069752138       13.2175259970  MEMB      1               0.0000000000
        51         1  POPE      C28             6.9959698428       -3.2482477993       11.4016091707  MEMB      1               0.0000000000
        52         1  POPE      H8R             7.8567438714       -3.3653620850       10.7376450762  MEMB      1               0.0000000000
        53         1  POPE      H8S             6.4921969747       -2.4239866693       11.6198741297  MEMB      1               0.0000000000
        54         1  POPE      C29             6.4762476002       -4.2412102784       10.1394108142  MEMB      1               0.0000000000
        55         1  POPE      H91             6.7961830621       -5.3521749681       10.5801794609  MEMB      1               0.0000000000
        56         1  POPE      C210            5.1129286470       -4.0501692117        9.4985544409  MEMB      1               0.0000000000
        57         1  POPE      H101            4.3309039698       -4.9754256607        9.3796552454  MEMB      1               0.0000000000
        58         1  POPE      C211            4.1765018285       -2.9565510610        9.8150580370  MEMB      1               0.0000000000
        59         1  POPE      H11R            4.5315212015       -2.3253245445       10.6631097031  MEMB      1               0.0000000000
        60         1  POPE      H11S            3.1214955488       -3.2454468688        9.8969617687  MEMB      1               0.0000000000
        61         1  POPE      C212            4.5362344713       -2.3908005980        8.4875824492  MEMB      1               0.0000000000
        62         1  POPE      H12R            4.1719642448       -3.0880453078        7.6857901473  MEMB      1               0.0000000000
        63         1  POPE      H12S            5.6086801215       -2.1629950157        8.3373521405  MEMB      1               0.0000000000
        64         1  POPE      C213            3.8592570633       -1.0832838711        8.3792516893  MEMB      1               0.0000000000
        65         1  POPE      H13R            3.9907815473       -0.4430432996        9.2530391350  MEMB      1               0.0000000000
        66         1  POPE      H13S            2.8630914455       -1.4432982844        8.6563228343  MEMB      1               0.0000000000
        67         1  POPE      C214            4.0492539918       -0.2962934365        7.0591093575  MEMB      1               0.0000000000
        68         1  POPE      H14R            5.1079923784       -0.1600764813        6.9938086231  MEMB      1               0.0000000000
        69         1  POPE      H14S            3.4441623150        0.6432549766        7.0503614605  MEMB      1               0.0000000000
        70         1  POPE      C215            4.0168715274       -0.9895225051        5.7010881517  MEMB      1               0.0000000000
        71         1  POPE      H15R            3.1578309109       -1.0551847739        6.1983101399  MEMB      1               0.0000000000
        72         1  POPE      H15S            4.0703400212       -2.0707954379        5.5645799431  MEMB      1               0.0000000000
        73         1  POPE      C216            3.8382272059       -0.2100263703        4.4017840328  MEMB      1               0.0000000000
        74         1  POPE      H16R            4.7738770036        0.3138771579        4.3711916825  MEMB      1               0.0000000000
        75         1  POPE      H16S            2.9915792605        0.5220859821        4.3855526898  MEMB      1               0.0000000000
        76         1  POPE      C217            3.8969754333       -1.1317837283        3.1871020650  MEMB      1               0.0000000000
        77         1  POPE      H17R            2.9254422846       -1.3819508519        3.0847043358  MEMB      1               0.0000000000
        78         1  POPE      H17S            4.3666413614       -2.0878579973        3.3972124579  MEMB      1               0.0000000000
        79         1  POPE      C218            4.2437853740       -0.5690559553        1.8279469465  MEMB      1               0.0000000000
        80         1  POPE      H18R            3.5118197631        0.2331330209        1.5650054380  MEMB      1               0.0000000000
        81         1  POPE      H18S            4.2849808093       -1.3681010973        1.0536792878  MEMB      1               0.0000000000
        82         1  POPE      H18T            5.2460992844       -0.1582608405        1.9057464456  MEMB      1               0.0000000000
        83         1  POPE      C33             5.4044970394        0.3536496245       12.4675235336  MEMB      1               0.0000000000
        84         1  POPE      H3X             4.9519775244        0.5290017504       11.4582901961  MEMB      1               0.0000000000
        85         1  POPE      H3Y             5.4178258444       -0.7512689134       12.6497218668  MEMB      1               0.0000000000
        86         1  POPE      C34             6.8031750522        0.9132876407       12.2966196802  MEMB      1               0.0000000000
        87         1  POPE      H4X             7.2975590103        1.0207279060       13.2731794951  MEMB      1               0.0000000000
        88         1  POPE      H4Y             6.7754132703        1.9264947716       11.8961530999  MEMB      1               0.0000000000
        89         1  POPE      C35             7.6900531429        0.0705008929       11.4013663425  MEMB      1               0.0000000000
        90         1  POPE      H5X             7.5549310316       -0.9632472961       11.6998469781  MEMB      1               0.0000000000
        91         1  POPE      H5Y             8.7229520104        0.3745515922       11.6605827628  MEMB      1               0.0000000000
        92         1  POPE      C36             7.3912543797        0.1942089243        9.9085721197  MEMB      1               0.0000000000
        93         1  POPE      H6X             7.5754287019        1.2651463647        9.6904178765  MEMB      1               0.0000000000
        94         1  POPE      H6Y             6.3292556235       -0.0546364493        9.7397464331  MEMB      1               0.0000000000
        95         1  POPE      C37             8.1597376377       -0.8044965772        9.0060164154  MEMB      1               0.0000000000
        96         1  POPE      H7X             7.6857298218       -1.7637057905        8.8651374811  MEMB      1               0.0000000000
        97         1  POPE      H7Y             9.1977220538       -0.9772288784        9.3373364464  MEMB      1               0.0000000000
        98         1  POPE      C38             8.3234023066       -0.3389978161        7.6014965941  MEMB      1               0.0000000000
        99         1  POPE      H8X             8.8176731421        0.4360275556        8.0080247565  MEMB      1               0.0000000000
       100         1  POPE      H8Y             7.5034931943        0.1779009352        7.1278971708  MEMB      1               0.0000000000
       101         1  POPE      C39             9.3061221569       -0.9746230775        6.6130784534  MEMB      1               0.0000000000
       102         1  POPE      H9X             8.6396723795       -1.7420872677        6.2292052240  MEMB      1               0.0000000000
       103         1  POPE      H9Y            10.1744851364       -1.3757106078        7.1397608532  MEMB      1               0.0000000000
       104         1  POPE      C310            9.7956923222       -0.2037623804        5.3894292013  MEMB      1               0.0000000000
       105         1  POPE      H10X           10.0558213932       -0.7691718863        4.5603093973  MEMB      1               0.0000000000
       106         1  POPE      H10Y           10.7490258023        0.3398743585        5.6436222809  MEMB      1               0.0000000000
       107         1  POPE      C311            8.7419689027        0.6916569335        4.7580532737  MEMB      1               0.0000000000
       108         1  POPE      H11X            9.5872690001        1.1489155603        4.2750782576  MEMB      1               0.0000000000
       109         1  POPE      H11Y            8.1418879740        1.4574129457        5.3189625970  MEMB      1               0.0000000000
       110         1  POPE      C312            7.8284243720        0.4722420715        3.6697007140  MEMB      1               0.0000000000
       111         1  POPE      H12X            7.2076981000       -0.3516789727        4.0042586808  MEMB      1               0.0000000000
       112         1  POPE      H12Y            8.4791449006        0.2080269159        2.8364451995  MEMB      1               0.0000000000
       113         1  POPE      C313            6.8530627839        1.6685732324        3.4528836765  MEMB      1               0.0000000000
       114         1  POPE      H13X            6.4853682897        1.9749206513        4.4630769065  MEMB      1               0.0000000000
       115         1  POPE      H13Y            6.0048240869        1.2656062423        2.8874172123  MEMB      1               0.0000000000
       116         1  POPE      C314            7.3751537517        2.8034672445        2.5535534349  MEMB      1               0.0000000000
       117         1  POPE      H14X            8.1130705592        2.3257472540        1.8680735211  MEMB      1               0.0000000000
       118         1  POPE      H14Y            7.8936105869        3.6319918536        3.0472556148  MEMB      1               0.0000000000
       119         1  POPE      C315            6.4918741996        3.8923863827        1.9923623373  MEMB      1               0.0000000000
       120         1  POPE      H15X            6.2384091027        3.4616064239        1.0141455271  MEMB      1               0.0000000000
       121         1  POPE      H15Y            7.1502159327        4.7878893688        1.7733373540  MEMB      1               0.0000000000
       122         1  POPE      C316            5.2622381485        4.2673955354        2.8544863050  MEMB      1               0.0000000000
       123         1  POPE      H16X            4.5167149714        3.4671862704        2.7822173002  MEMB      1               0.0000000000
       124         1  POPE      H16Y            4.7855338291        5.2198349655        2.5603383441  MEMB      1               0.0000000000
       125         1  POPE      H16Z            5.3945066896        4.3782600373        3.9428798403  MEMB      1               0.0000000000
       126         2  PMPE      N              -6.6415176751        0.8168495849       20.0404538833  MEMB      2               0.0000000000
       127         2  PMPE      HN1            -7.4668032208        1.4308430549       20.1424495285  MEMB      2               0.0000000000
       128         2  PMPE      HN2            -6.4972839328        0.3291709025       20.9458067582  MEMB      2               0.0000000000
       129         2  PMPE      HN3            -5.8270322952        1.4470931338       19.8586004874  MEMB      2               0.0000000000
       130         2  PMPE      C12            -6.7875194409       -0.2075563327       18.9125726393  MEMB      2               0.0000000000
       131         2  PMPE      H12A           -6.7532165517        0.3567435128       17.9537179495  MEMB      2               0.0000000000
       132         2  PMPE      H12B           -7.7595041548       -0.7192250754       18.9934618237  MEMB      2               0.0000000000
       133         2  PMPE      C11            -5.7148316253       -1.2952891184       18.9506143182  MEMB      2               0.0000000000
       134         2  PMPE      H11A           -5.9030417665       -2.0879587147       18.1707376774  MEMB      2               0.0000000000
       135         2  PMPE      H11B           -5.6848061403       -1.8235553986       19.9358404659  MEMB      2               0.0000000000
       136         2  PMPE      P              -3.1533991509       -1.4425031513       18.8217304360  MEMB      2               0.0000000000
       137         2  PMPE      O13            -3.1324951202       -2.4053437230       17.7063207211  MEMB      2               0.0000000000
       138         2  PMPE      O14            -3.0713172718       -1.9263616261       20.2102102872  MEMB      2               0.0000000000
       139         2  PMPE      O11            -2.0476742017       -0.3505946952       18.6037968350  MEMB      2               0.0000000000
       140         2  PMPE      O12            -4.5039033876       -0.5918315572       18.7273122616  MEMB      2               0.0000000000
       141         2  PMPE      C1             -2.3212106509        0.9932175685       18.2152875990  MEMB      2               0.0000000000
       142         2  PMPE      HA             -1.3695441598        1.5594877340       18.2840702006  MEMB      2               0.0000000000
       143         2  PMPE      HB             -3.0838079629        1.4389285089       18.8820464889  MEMB      2               0.0000000000
       144         2  PMPE      C2             -2.8490126621        1.1889856530       16.7643945892  MEMB      2               0.0000000000
       145         2  PMPE      HS             -3.8889900189        0.7967149698       16.7687361005  MEMB      2               0.0000000000
       146         2  PMPE      O21            -2.0239349055        0.4330430776       15.9028985355  MEMB      2               0.0000000000
       147         2  PMPE      C21            -2.6853532870       -0.3139613277       15.0099886053  MEMB      2               0.0000000000
       148         2  PMPE      O22            -3.8797770972       -0.3601650025       14.8534591915  MEMB      2               0.0000000000
       149         2  PMPE      C22            -1.7564718956       -1.1203268539       14.1585783229  MEMB      2               0.0000000000
       150         2  PMPE      H2R            -2.0711948549       -1.4677011740       13.1900189082  MEMB      2               0.0000000000
       151         2  PMPE      H2S            -1.4656954678       -1.9193911020       14.8477261708  MEMB      2               0.0000000000
       152         2  PMPE      C3             -2.8217178325        2.6988247092       16.3200294719  MEMB      2               0.0000000000
       153         2  PMPE      HX             -1.7500602221        2.9854964085       16.1997078348  MEMB      2               0.0000000000
       154         2  PMPE      HY             -3.2528175148        3.3345916804       17.1225690750  MEMB      2               0.0000000000
       155         2  PMPE      O31            -3.4867437257        2.9735913052       15.0714831799  MEMB      2               0.0000000000
       156         2  PMPE      C31            -4.8146732268        2.8991907792       15.1230082989  MEMB      2               0.0000000000
       157         2  PMPE      O32            -5.4702701039        2.7221828774       16.1349534539  MEMB      2               0.0000000000
       158         2  PMPE      C32            -5.3933107640        3.0305016448       13.7097668546  MEMB      2               0.0000000000
       159         2  PMPE      H2X            -6.4884007725        3.1404595681       13.8241189743  MEMB      2               0.0000000000
       160         2  PMPE      H2Y            -5.1030456293        2.1614395754       13.0724639768  MEMB      2               0.0000000000
       161         2  PMPE      C23            -0.6929434190       -0.2859931981       13.6155479440  MEMB      2               0.0000000000
       162         2  PMPE      H3R            -0.4574868847       -0.1198538993       14.6240607482  MEMB      2               0.0000000000
       163         2  PMPE      H3S            -0.8137774354        0.7710675003       13.3627120682  MEMB      2               0.0000000000
       164         2  PMPE      C24             0.4826729454       -0.8788205421       12.7755040462  MEMB      2               0.0000000000
       165         2  PMPE      H4R             0.1022557053       -1.7349917139       12.2911294019  MEMB      2               0.0000000000
       166         2  PMPE      H4S             1.3604309125       -1.3298774570       13.2450545941  MEMB      2               0.0000000000
       167         2  PMPE      C25             1.1851684393        0.0896246858       11.8342079818  MEMB      2               0.0000000000
       168         2  PMPE      H5R             1.9874561543       -0.5009084587       11.3460661850  MEMB      2               0.0000000000
       169         2  PMPE      H5S             1.6341006937        0.9583976151       12.3387420118  MEMB      2               0.0000000000
       170         2  PMPE      C26             0.3525892324        0.8816034506       10.9832448620  MEMB      2               0.0000000000
       171         2  PMPE      H6R            -0.0939231570        1.6957289426       11.5907539415  MEMB      2               0.0000000000
       172         2  PMPE      H6S            -0.3421584184        0.0896423424       10.7125000772  MEMB      2               0.0000000000
       173         2  PMPE      C27             1.0256072457        1.4814623016        9.7868597140  MEMB      2               0.0000000000
       174         2  PMPE      H7R             1.9405478619        2.0085092424        9.9970569373  MEMB      2               0.0000000000
       175         2  PMPE      H7S             0.3888292113        2.2740720445        9.3967504532  MEMB      2               0.0000000000
       176         2  PMPE      C28             1.2654950277        0.4887860377        8.6788720613  MEMB      2               0.0000000000
       177         2  PMPE      H8R             2.0349883067       -0.0399832777        9.1416526343  MEMB      2               0.0000000000
       178         2  PMPE      H8S             1.6812058344        1.0771186685        7.8468392047  MEMB      2               0.0000000000
       179         2  PMPE      C29             0.0875907668       -0.4309824885        8.3681869408  MEMB      2               0.0000000000
       180         2  PMPE      H9R            -0.8510264325        0.1149436463        8.2235900442  MEMB      2               0.0000000000
       181         2  PMPE      C217           -0.0231078192       -1.8443270144        9.0104551199  MEMB      2               0.0000000000
       182         2  PMPE      H17R           -1.0291722047       -2.1793631870        9.2420155125  MEMB      2               0.0000000000
       183         2  PMPE      H17S            0.8409627157       -2.1620685619        9.5677873236  MEMB      2               0.0000000000
       184         2  PMPE      C210            0.1741052582       -1.6776975910        7.5154172763  MEMB      2               0.0000000000
       185         2  PMPE      H10R           -0.7310747459       -1.8602891730        6.9258431437  MEMB      2               0.0000000000
       186         2  PMPE      C211            1.3655268240       -2.2789441124        6.8382441280  MEMB      2               0.0000000000
       187         2  PMPE      H11R            1.4734112882       -3.3464832098        6.9336825490  MEMB      2               0.0000000000
       188         2  PMPE      H11S            2.3173619730       -2.2529700562        7.2692553066  MEMB      2               0.0000000000
       189         2  PMPE      C212            1.4339974943       -1.7429735179        5.3946161493  MEMB      2               0.0000000000
       190         2  PMPE      H12R            2.2785869346       -2.3593240730        4.9352332613  MEMB      2               0.0000000000
       191         2  PMPE      H12S            1.6370667891       -0.5837893720        5.3769108483  MEMB      2               0.0000000000
       192         2  PMPE      C213            0.3456473888       -1.8239049662        4.5618291428  MEMB      2               0.0000000000
       193         2  PMPE      H13R           -0.2635141678       -0.9925582058        4.9560435355  MEMB      2               0.0000000000
       194         2  PMPE      H13S            0.0639961881       -2.8472221233        4.8383669432  MEMB      2               0.0000000000
       195         2  PMPE      C214            0.7987975378       -1.7461637378        3.1331714312  MEMB      2               0.0000000000
       196         2  PMPE      H14R            0.0478371023       -2.2156319210        2.5385131375  MEMB      2               0.0000000000
       197         2  PMPE      H14S            1.6246066142       -2.5108599407        2.9945363789  MEMB      2               0.0000000000
       198         2  PMPE      C215            1.0142120876       -0.3004998674        2.5617217934  MEMB      2               0.0000000000
       199         2  PMPE      H15R            1.9248553718        0.2234490190        2.8981750297  MEMB      2               0.0000000000
       200         2  PMPE      H15S            0.2186497320        0.3833289105        2.8585750699  MEMB      2               0.0000000000
       201         2  PMPE      C216            1.1317465075       -0.2587478100        1.0618012849  MEMB      2               0.0000000000
       202         2  PMPE      H16R            1.8108656795       -1.0782644583        0.7274122913  MEMB      2               0.0000000000
       203         2  PMPE      H16S            0.1579450480       -0.3860716695        0.5703625619  MEMB      2               0.0000000000
       204         2  PMPE      H16T            1.5137139052        0.7273101949        0.7051350772  MEMB      2               0.0000000000
       205         2  PMPE      C33            -4.7524171788        4.2068668470       13.0111792781  MEMB      2               0.0000000000
       206         2  PMPE      H3X            -3.7356438898        3.8507879153       12.7912127689  MEMB      2               0.0000000000
       207         2  PMPE      H3Y            -4.6207550557        5.0907078043       13.6723775913  MEMB      2               0.0000000000
       208         2  PMPE      C34            -5.4011885689        4.7615614010       11.7646067191  MEMB      2               0.0000000000
       209         2  PMPE      H4X            -4.7602522773        5.6104682629       11.4211418714  MEMB      2               0.0000000000
       210         2  PMPE      H4Y            -6.2874991511        5.2795372552       12.1407259866  MEMB      2               0.0000000000
       211         2  PMPE      C35            -5.7496983901        3.9294269194       10.5191973668  MEMB      2               0.0000000000
       212         2  PMPE      H5X            -6.0922072040        4.6689416146        9.7380047649  MEMB      2               0.0000000000
       213         2  PMPE      H5Y            -6.4829667346        3.1549566845       10.7741955595  MEMB      2               0.0000000000
       214         2  PMPE      C36            -4.5316821043        3.2036644492       10.0488371612  MEMB      2               0.0000000000
       215         2  PMPE      H6X            -4.0643196241        2.7179447272       10.9045630623  MEMB      2               0.0000000000
       216         2  PMPE      H6Y            -4.0080589422        4.1044121858       10.0559956154  MEMB      2               0.0000000000
       217         2  PMPE      C37            -4.7098919239        2.3835461790        8.7602661757  MEMB      2               0.0000000000
       218         2  PMPE      H7X            -4.9475295087        3.0210463793        7.8795616623  MEMB      2               0.0000000000
       219         2  PMPE      H7Y            -5.6667049735        1.8633063108        8.9883417919  MEMB      2               0.0000000000
       220         2  PMPE      C38            -3.5912548743        1.3629738828        8.3680157260  MEMB      2               0.0000000000
       221         2  PMPE      H8X            -3.1807922457        0.8359975684        9.2601104295  MEMB      2               0.0000000000
       222         2  PMPE      H8Y            -2.7162104263        1.8280783032        7.8733315822  MEMB      2               0.0000000000
       223         2  PMPE      C39            -4.0473835119        0.2988266303        7.3439850175  MEMB      2               0.0000000000
       224         2  PMPE      H9X            -4.8255110247       -0.2779843555        7.8632047291  MEMB      2               0.0000000000
       225         2  PMPE      H9Y            -3.2292554728       -0.4081839466        7.0894314833  MEMB      2               0.0000000000
       226         2  PMPE      C310           -4.6252961891        0.8429460533        6.0369731646  MEMB      2               0.0000000000
       227         2  PMPE      H10X           -5.4313594123        1.5570473399        6.2888378167  MEMB      2               0.0000000000
       228         2  PMPE      H10Y           -5.0812843307        0.0741175575        5.3736963766  MEMB      2               0.0000000000
       229         2  PMPE      C311           -3.6066079919        1.6193787720        5.2260559153  MEMB      2               0.0000000000
       230         2  PMPE      H11X           -2.7471925155        0.9706212565        4.9478297379  MEMB      2               0.0000000000
       231         2  PMPE      H11Y           -3.2413974611        2.4135801230        5.9113098787  MEMB      2               0.0000000000
       232         2  PMPE      C312           -4.2986639390        2.1830851595        3.9846979122  MEMB      2               0.0000000000
       233         2  PMPE      H12X           -5.0058817747        2.9849248463        4.2992018403  MEMB      2               0.0000000000
       234         2  PMPE      H12Y           -4.8267515323        1.3485941568        3.4593475431  MEMB      2               0.0000000000
       235         2  PMPE      C313           -3.3525917442        2.8049572970        2.9718841893  MEMB      2               0.0000000000
       236         2  PMPE      H13X           -2.6376206563        2.0101719563        2.6783626352  MEMB      2               0.0000000000
       237         2  PMPE      H13Y           -2.7798324183        3.5788302345        3.5295921401  MEMB      2               0.0000000000
       238         2  PMPE      C314           -4.1006350111        3.3973237695        1.7469492068  MEMB      2               0.0000000000
       239         2  PMPE      H14X           -3.3823256622        3.9284404626        1.0800706560  MEMB      2               0.0000000000
       240         2  PMPE      H14Y           -4.7565875181        4.2061783048        2.1462855293  MEMB      2               0.0000000000
       241         2  PMPE      C315           -4.9257053396        2.3657721254        0.9059347629  MEMB      2               0.0000000000
       242         2  PMPE      H15X           -5.3431201695        2.8499662665       -0.0132389924  MEMB      2               0.0000000000
       243         2  PMPE      H15Y           -5.8160118535        2.0311665236        1.4850489495  MEMB      2               0.0000000000
       244         2  PMPE      C316           -4.1758969408        1.0668741587        0.5414210086  MEMB      2               0.0000000000
       245         2  PMPE      H16X           -3.1673811197        1.2816830468        0.1250216193  MEMB      2               0.0000000000
       246         2  PMPE      H16Y           -4.7514796273        0.4192604130       -0.1511773630  MEMB      2               0.0000000000
       247         2  PMPE      H16Z           -4.0495085687        0.4202925074        1.4330444292  MEMB      2               0.0000000000
       248         3  PMPE      N               1.2465185811        6.6130642286       19.9624212451  MEMB      3               0.0000000000
       249         3  PMPE      HN1             2.1306961657        6.3040439687       20.3994170176  MEMB      3               0.0000000000
       250         3  PMPE      HN2             1.3992344041        6.7772489761       18.9463633948  MEMB      3               0.0000000000
       251         3  PMPE      HN3             1.0086700515        7.5573523306       20.3435784873  MEMB      3               0.0000000000
       252         3  PMPE      C12             0.1351416424        5.6335862264       20.2529587189  MEMB      3               0.0000000000
       253         3  PMPE      H12A            0.1398775390        5.4137550792       21.3115410612  MEMB      3               0.0000000000
       254         3  PMPE      H12B            0.3090856405        4.6772670527       19.7395814496  MEMB      3               0.0000000000
       255         3  PMPE      C11            -1.2124601816        6.2823841778       20.0133573638  MEMB      3               0.0000000000
       256         3  PMPE      H11A           -1.2638540905        7.0874297000       20.7828922851  MEMB      3               0.0000000000
       257         3  PMPE      H11B           -2.0099419528        5.5937859791       20.2135935838  MEMB      3               0.0000000000
       258         3  PMPE      P              -2.4488707352        7.8629810763       18.3780850560  MEMB      3               0.0000000000
       259         3  PMPE      O13            -2.1305144907        8.9799949778       19.2972737997  MEMB      3               0.0000000000
       260         3  PMPE      O14            -3.7970365832        7.2868252489       18.4204866853  MEMB      3               0.0000000000
       261         3  PMPE      O11            -2.1032586224        8.3047084588       16.9137806628  MEMB      3               0.0000000000
       262         3  PMPE      O12            -1.3517368716        6.7302339991       18.6720153187  MEMB      3               0.0000000000
       263         3  PMPE      C1             -1.9687191835        7.3540574688       15.8536650504  MEMB      3               0.0000000000
       264         3  PMPE      HA             -2.4727464591        7.7925085879       14.9745095616  MEMB      3               0.0000000000
       265         3  PMPE      HB             -2.4314756807        6.3576464965       16.0511768142  MEMB      3               0.0000000000
       266         3  PMPE      C2             -0.5107012095        7.1337651710       15.4645779219  MEMB      3               0.0000000000
       267         3  PMPE      HS              0.0705064739        6.9936871753       16.3942897313  MEMB      3               0.0000000000
       268         3  PMPE      O21            -0.0839559131        8.2638696136       14.9117320250  MEMB      3               0.0000000000
       269         3  PMPE      C21             1.1731054983        8.3292276123       14.8733016658  MEMB      3               0.0000000000
       270         3  PMPE      O22             2.0896782492        7.5833344582       15.0844093950  MEMB      3               0.0000000000
       271         3  PMPE      C22             1.2955578081        9.4512744547       14.4843228342  MEMB      3               0.0000000000
       272         3  PMPE      H2R             2.0127634396        9.8549032648       15.2998841039  MEMB      3               0.0000000000
       273         3  PMPE      H2S             0.5191874649       10.0788681870       14.7282736277  MEMB      3               0.0000000000
       274         3  PMPE      C3             -0.2288490509        6.0277102397       14.4358567279  MEMB      3               0.0000000000
       275         3  PMPE      HX             -0.5421829773        5.0921130621       14.9332360717  MEMB      3               0.0000000000
       276         3  PMPE      HY              0.8571298986        5.9760928929       14.2461732191  MEMB      3               0.0000000000
       277         3  PMPE      O31            -0.8726090628        6.2632062460       13.1788860767  MEMB      3               0.0000000000
       278         3  PMPE      C31            -1.3454055585        5.1865796733       12.6309710259  MEMB      3               0.0000000000
       279         3  PMPE      O32            -1.1824054698        4.0305003616       12.9906676832  MEMB      3               0.0000000000
       280         3  PMPE      C32            -2.1929477384        5.6364666485       11.4768105040  MEMB      3               0.0000000000
       281         3  PMPE      H2X            -2.3929234446        6.7166401039       11.4291853648  MEMB      3               0.0000000000
       282         3  PMPE      H2Y            -3.0927082912        5.1751739466       11.7407024621  MEMB      3               0.0000000000
       283         3  PMPE      C23             1.2645477502        9.3261790570       12.8532585461  MEMB      3               0.0000000000
       284         3  PMPE      H3R             1.9976186153        8.8287440765       12.2296373135  MEMB      3               0.0000000000
       285         3  PMPE      H3S             1.7132955226       10.2598116422       12.7410890740  MEMB      3               0.0000000000
       286         3  PMPE      C24            -0.0010234827        9.6814266690       11.8624412836  MEMB      3               0.0000000000
       287         3  PMPE      H4R            -0.7312508094       10.4900151066       12.1084860933  MEMB      3               0.0000000000
       288         3  PMPE      H4S            -0.3354266936        8.7325261677       12.1602058466  MEMB      3               0.0000000000
       289         3  PMPE      C25             0.0433161779       10.0266345688       10.3455653739  MEMB      3               0.0000000000
       290         3  PMPE      H5R            -0.6646742558        9.4285259830        9.8502093113  MEMB      3               0.0000000000
       291         3  PMPE      H5S             0.9270992053        9.4871683017        9.9889993019  MEMB      3               0.0000000000
       292         3  PMPE      C26             0.0218139195       11.5110213135        9.8655427969  MEMB      3               0.0000000000
       293         3  PMPE      H6R             0.8936692043       12.0646708283       10.1769303438  MEMB      3               0.0000000000
       294         3  PMPE      H6S            -0.6119170821       12.2804823990       10.2969577806  MEMB      3               0.0000000000
       295         3  PMPE      C27             0.1676174756       11.5801024417        8.3749794250  MEMB      3               0.0000000000
       296         3  PMPE      H7R             0.9083436170       11.0533465193        7.7806487177  MEMB      3               0.0000000000
       297         3  PMPE      H7S             0.6156301698       12.4966761959        8.3774981308  MEMB      3               0.0000000000
       298         3  PMPE      C28            -0.8977363987       11.2352163119        7.4692469535  MEMB      3               0.0000000000
       299         3  PMPE      H8R            -1.6218684737       11.8786972527        7.9273787242  MEMB      3               0.0000000000
       300         3  PMPE      H8S            -0.9072517548       10.1343215427        7.5867147372  MEMB      3               0.0000000000
       301         3  PMPE      C29            -0.8754331300       11.5241101504        5.9578136044  MEMB      3               0.0000000000
       302         3  PMPE      H9R            -0.1880201708       11.6439411380        5.2868972175  MEMB      3               0.0000000000
       303         3  PMPE      C217           -1.3249314219       12.8243256745        5.2970411865  MEMB      3               0.0000000000
       304         3  PMPE      H17R           -0.5802698064       13.3287722307        4.6402991516  MEMB      3               0.0000000000
       305         3  PMPE      H17S           -1.9285621256       13.3571304853        5.9480822894  MEMB      3               0.0000000000
       306         3  PMPE      C210           -1.6900366471       11.3908433412        4.9054688539  MEMB      3               0.0000000000
       307         3  PMPE      H10R           -1.1994241584       11.0726038799        3.9382388466  MEMB      3               0.0000000000
       308         3  PMPE      C211           -2.7766141754       10.7475587296        5.5500086551  MEMB      3               0.0000000000
       309         3  PMPE      H11R           -3.4475568111       11.5797354723        5.7974526697  MEMB      3               0.0000000000
       310         3  PMPE      H11S           -2.5982336799       10.1780835396        6.4906724972  MEMB      3               0.0000000000
       311         3  PMPE      C212           -3.1031741665        9.8360610937        4.4397311969  MEMB      3               0.0000000000
       312         3  PMPE      H12R           -3.5441928627        8.9549707930        4.8240102327  MEMB      3               0.0000000000
       313         3  PMPE      H12S           -2.2314334151        9.2579139705        4.0991064283  MEMB      3               0.0000000000
       314         3  PMPE      C213           -3.7047133432       10.5284446573        3.2386481225  MEMB      3               0.0000000000
       315         3  PMPE      H13R           -3.2983161736       11.4832236397        2.9428285745  MEMB      3               0.0000000000
       316         3  PMPE      H13S           -4.7823815300       10.7871666708        3.4304094832  MEMB      3               0.0000000000
       317         3  PMPE      C214           -3.4555332095        9.6863115474        2.0001180737  MEMB      3               0.0000000000
       318         3  PMPE      H14R           -2.5370767769        9.5748142807        1.4562197116  MEMB      3               0.0000000000
       319         3  PMPE      H14S           -4.2303390232       10.1430775341        1.3041337532  MEMB      3               0.0000000000
       320         3  PMPE      C215           -3.3337291007        8.1250299780        2.2343170505  MEMB      3               0.0000000000
       321         3  PMPE      H15R           -4.0816240239        7.9442770289        3.1527693935  MEMB      3               0.0000000000
       322         3  PMPE      H15S           -2.8553265192        7.5604417146        2.8981820211  MEMB      3               0.0000000000
       323         3  PMPE      C216           -3.2970203802        7.0320102569        0.8709548914  MEMB      3               0.0000000000
       324         3  PMPE      H16R           -2.6384289623        7.1937684603        0.1176314932  MEMB      3               0.0000000000
       325         3  PMPE      H16S           -3.9074882299        6.0334970897        0.9389894293  MEMB      3               0.0000000000
       326         3  PMPE      H16T           -3.9200537691        7.4051399807       -0.0137749415  MEMB      3               0.0000000000
       327         3  PMPE      C33            -1.6021967467        5.1928654431       10.1432788856  MEMB      3               0.0000000000
       328         3  PMPE      H3X            -1.1582096212        4.1868413121       10.2365734880  MEMB      3               0.0000000000
       329         3  PMPE      H3Y            -0.8174759645        5.9145774662        9.9128512979  MEMB      3               0.0000000000
       330         3  PMPE      C34            -2.5531314389        5.2194719435        8.9767245173  MEMB      3               0.0000000000
       331         3  PMPE      H4X            -3.4624402859        5.7511249072        9.3848768768  MEMB      3               0.0000000000
       332         3  PMPE      H4Y            -2.7884571197        4.1481782703        8.7651476486  MEMB      3               0.0000000000
       333         3  PMPE      C35            -2.1212289111        5.6257157737        7.5904153619  MEMB      3               0.0000000000
       334         3  PMPE      H5X            -2.9866918029        5.5550625070        6.8663634385  MEMB      3               0.0000000000
       335         3  PMPE      H5Y            -1.4526808552        4.8685469260        7.2028132635  MEMB      3               0.0000000000
       336         3  PMPE      C36            -1.4771114690        6.9907547701        7.5454516193  MEMB      3               0.0000000000
       337         3  PMPE      H6X            -0.5726424425        7.0632571627        8.1834029456  MEMB      3               0.0000000000
       338         3  PMPE      H6Y            -2.1346018396        7.7750148465        7.9860531474  MEMB      3               0.0000000000
       339         3  PMPE      C37            -1.0377997525        7.2845367747        6.1069395652  MEMB      3               0.0000000000
       340         3  PMPE      H7X            -0.6872155621        8.3336628474        6.1361086448  MEMB      3               0.0000000000
       341         3  PMPE      H7Y            -1.8609173763        7.2498164829        5.3623157724  MEMB      3               0.0000000000
       342         3  PMPE      C38             0.0291669806        6.3291790003        5.5211001195  MEMB      3               0.0000000000
       343         3  PMPE      H8X            -0.4791000816        5.3616621613        5.2606546154  MEMB      3               0.0000000000
       344         3  PMPE      H8Y             0.8016958154        6.0825395056        6.2791849298  MEMB      3               0.0000000000
       345         3  PMPE      C39             0.7921641823        6.9963385447        4.3480326803  MEMB      3               0.0000000000
       346         3  PMPE      H9X             1.7055186571        6.4020509721        4.1001873403  MEMB      3               0.0000000000
       347         3  PMPE      H9Y             1.0716881522        8.0431668518        4.6284649225  MEMB      3               0.0000000000
       348         3  PMPE      C310           -0.0241418064        7.0988501038        3.0616489418  MEMB      3               0.0000000000
       349         3  PMPE      H10X           -0.9537494044        7.6727959554        3.2650446116  MEMB      3               0.0000000000
       350         3  PMPE      H10Y           -0.2732497781        6.0605385536        2.7612429221  MEMB      3               0.0000000000
       351         3  PMPE      C311            0.7215741915        7.6748711744        1.8560312221  MEMB      3               0.0000000000
       352         3  PMPE      H11X            1.6913412280        7.1520250198        1.7154852590  MEMB      3               0.0000000000
       353         3  PMPE      H11Y            0.9767428255        8.7320739866        2.0480037262  MEMB      3               0.0000000000
       354         3  PMPE      C312           -0.1082461682        7.4870773380        0.5919503251  MEMB      3               0.0000000000
       355         3  PMPE      H12X           -1.0680864439        8.0303363167        0.6119472540  MEMB      3               0.0000000000
       356         3  PMPE      H12Y           -0.2869369885        6.4439442084        0.3169569036  MEMB      3               0.0000000000
       357         3  PMPE      C313            0.5953433238        7.6472603020       -0.6372741071  MEMB      3               0.0000000000
       358         3  PMPE      H13X           -0.0829565748        7.5637915060       -1.5236804451  MEMB      3               0.0000000000
       359         3  PMPE      H13Y            1.6386569464        7.2972431459       -0.7828347552  MEMB      3               0.0000000000
       360         3  PMPE      C314            0.8080915202        8.8695793932       -0.6679459169  MEMB      3               0.0000000000
       361         3  PMPE      H14X            1.8639581604        9.0882517407       -1.0999127447  MEMB      3               0.0000000000
       362         3  PMPE      H14Y            1.5865219987        9.3345589438        0.1366174718  MEMB      3               0.0000000000
       363         3  PMPE      C315           -0.8303189435        9.8327914777       -1.3041743819  MEMB      3               0.0000000000
       364         3  PMPE      H15X           -0.6033804968       10.8690124800       -2.2717452825  MEMB      3               0.0000000000
       365         3  PMPE      H15Y           -1.2356641244       10.4210944079       -0.4114275631  MEMB      3               0.0000000000
       366         3  PMPE      C316           -1.6860911922        9.8353741398       -2.2906020740  MEMB      3               0.0000000000
       367         3  PMPE      H16X           -1.7182466113       10.4519572005       -3.2572138570  MEMB      3               0.0000000000
       368         3  PMPE      H16Y           -2.5343588460       10.0598823721       -1.6639803425  MEMB      3               0.0000000000
       369         3  PMPE      H16Z           -1.4861650353        8.8014195099       -2.6124051780  MEMB      3               0.0000000000
       370         4  POPE      N               0.0720376752       -9.0581272804       21.7972936277  MEMB      4               0.0000000000
       371         4  POPE      HN1             0.0157406563       -8.7719334272       22.7967742528  MEMB      4               0.0000000000
       372         4  POPE      HN2             0.2251838646      -10.0803722964       21.6647446105  MEMB      4               0.0000000000
       373         4  POPE      HN3             0.9018758445       -8.5612759026       21.4036810360  MEMB      4               0.0000000000
       374         4  POPE      C12            -1.0742732057       -8.5920641831       20.9241649909  MEMB      4               0.0000000000
       375         4  POPE      H12A           -1.1048599519       -7.4796716618       20.9451047376  MEMB      4               0.0000000000
       376         4  POPE      H12B           -2.0329404213       -9.0382762048       21.2648760481  MEMB      4               0.0000000000
       377         4  POPE      C11            -0.7501181556       -8.9667032047       19.4821555329  MEMB      4               0.0000000000
       378         4  POPE      H11A           -1.5036092130       -8.5314303041       18.7901842594  MEMB      4               0.0000000000
       379         4  POPE      H11B           -0.8579820142      -10.0406832722       19.2735861388  MEMB      4               0.0000000000
       380         4  POPE      P               0.9388511500       -7.6850552353       17.9272493371  MEMB      4               0.0000000000
       381         4  POPE      O13             2.2261224391       -7.0414060522       18.2209478959  MEMB      4               0.0000000000
       382         4  POPE      O14            -0.2069871358       -6.8521084551       17.5467770438  MEMB      4               0.0000000000
       383         4  POPE      O11             1.0656958080       -8.8519594954       16.9145176520  MEMB      4               0.0000000000
       384         4  POPE      O12             0.5865740098       -8.5733595062       19.2015173143  MEMB      4               0.0000000000
       385         4  POPE      C1             -0.0609678865       -9.6064445323       16.4725281270  MEMB      4               0.0000000000
       386         4  POPE      HA             -0.9470809305       -8.9604234949       16.2250213596  MEMB      4               0.0000000000
       387         4  POPE      HB             -0.3346723475      -10.3767034524       17.2322954443  MEMB      4               0.0000000000
       388         4  POPE      C2              0.4692851368      -10.3063074039       15.2184639297  MEMB      4               0.0000000000
       389         4  POPE      HS              1.4418040677      -10.7344293559       15.5573679827  MEMB      4               0.0000000000
       390         4  POPE      O21             0.6688041766       -9.2866747607       14.2581384120  MEMB      4               0.0000000000
       391         4  POPE      C21             1.4067556167       -9.5778181254       13.2379735109  MEMB      4               0.0000000000
       392         4  POPE      O22             2.2633256585      -10.4340344824       13.1354519109  MEMB      4               0.0000000000
       393         4  POPE      C22             0.9179427366       -8.6481518008       12.1566726286  MEMB      4               0.0000000000
       394         4  POPE      H2R             0.4637651375       -7.7785055088       12.6816962676  MEMB      4               0.0000000000
       395         4  POPE      H2S             0.0728375494       -9.0726800797       11.5899043533  MEMB      4               0.0000000000
       396         4  POPE      C3             -0.4683224352      -11.3900651674       14.6123307465  MEMB      4               0.0000000000
       397         4  POPE      HX             -1.2278721015      -10.9119936273       13.9564028086  MEMB      4               0.0000000000
       398         4  POPE      HY             -0.9658117949      -11.8946330749       15.4548092562  MEMB      4               0.0000000000
       399         4  POPE      O31             0.2355880333      -12.3906918580       13.8809133672  MEMB      4               0.0000000000
       400         4  POPE      C31            -0.4463697514      -13.1119232445       13.0340708316  MEMB      4               0.0000000000
       401         4  POPE      O32            -1.6015781225      -13.0521468263       12.7017150818  MEMB      4               0.0000000000
       402         4  POPE      C32             0.3213989220      -14.1521011010       12.5375565793  MEMB      4               0.0000000000
       403         4  POPE      H2X             0.1322306317      -15.0347950591       13.2466649173  MEMB      4               0.0000000000
       404         4  POPE      H2Y             1.4052156987      -13.9753455425       12.5283305040  MEMB      4               0.0000000000
       405         4  POPE      C23             2.0365031663       -8.2514919760       11.2000645797  MEMB      4               0.0000000000
       406         4  POPE      H3R             2.1096018286       -8.9447140985       10.3370604862  MEMB      4               0.0000000000
       407         4  POPE      H3S             3.0281995560       -8.2642188132       11.7166556597  MEMB      4               0.0000000000
       408         4  POPE      C24             1.7090420800       -6.8657233940       10.6679426204  MEMB      4               0.0000000000
       409         4  POPE      H4R             2.2785918287       -6.1733278473       11.3192712728  MEMB      4               0.0000000000
       410         4  POPE      H4S             0.6279951016       -6.6347836245       10.7958726322  MEMB      4               0.0000000000
       411         4  POPE      C25             1.9722627331       -6.6707537965        9.1695355633  MEMB      4               0.0000000000
       412         4  POPE      H5R             3.0003735837       -6.9907299851        8.9247413403  MEMB      4               0.0000000000
       413         4  POPE      H5S             1.8764432065       -5.5796378920        8.9667735981  MEMB      4               0.0000000000
       414         4  POPE      C26             0.9999208950       -7.4446587470        8.2530858356  MEMB      4               0.0000000000
       415         4  POPE      H6R            -0.0291679085       -7.3220299079        8.6589117685  MEMB      4               0.0000000000
       416         4  POPE      H6S             1.1877916454       -8.5364354237        8.3086820671  MEMB      4               0.0000000000
       417         4  POPE      C27             1.1194218719       -7.1264691746        6.7367207176  MEMB      4               0.0000000000
       418         4  POPE      H7R             0.7491135537       -8.0041392304        6.1573621600  MEMB      4               0.0000000000
       419         4  POPE      H7S             2.1813478034       -7.0127983000        6.4149252989  MEMB      4               0.0000000000
       420         4  POPE      C28             0.2796388211       -5.9199105061        6.2631846141  MEMB      4               0.0000000000
       421         4  POPE      H8R             0.2779956157       -5.9519894634        5.1448694429  MEMB      4               0.0000000000
       422         4  POPE      H8S             0.8312927647       -5.0182575939        6.5938976283  MEMB      4               0.0000000000
       423         4  POPE      C29            -1.1359956826       -5.9589641515        6.8363124069  MEMB      4               0.0000000000
       424         4  POPE      H91            -1.2385603771       -5.5801623777        7.8717178744  MEMB      4               0.0000000000
       425         4  POPE      C210           -2.2750231185       -6.4654287752        6.3007088513  MEMB      4               0.0000000000
       426         4  POPE      H101           -3.1518151004       -6.5643525659        6.9676161834  MEMB      4               0.0000000000
       427         4  POPE      C211           -2.5289131608       -7.1491017179        4.9727673548  MEMB      4               0.0000000000
       428         4  POPE      H11R           -3.0658926264       -8.1076528791        5.1372971547  MEMB      4               0.0000000000
       429         4  POPE      H11S           -1.6070637545       -7.5029481569        4.4696705811  MEMB      4               0.0000000000
       430         4  POPE      C212           -3.3919725212       -6.2601569161        4.0468070937  MEMB      4               0.0000000000
       431         4  POPE      H12R           -2.8747608567       -5.2884760413        3.8636767897  MEMB      4               0.0000000000
       432         4  POPE      H12S           -4.4019011734       -6.0817373494        4.4894128222  MEMB      4               0.0000000000
       433         4  POPE      C213           -3.5391333777       -6.8213873649        2.6599256973  MEMB      4               0.0000000000
       434         4  POPE      H13R           -4.1475457261       -6.1369193137        2.0141921701  MEMB      4               0.0000000000
       435         4  POPE      H13S           -4.0062687742       -7.8331757529        2.6682389105  MEMB      4               0.0000000000
       436         4  POPE      C214           -2.2168466600       -6.9309730915        2.0079192614  MEMB      4               0.0000000000
       437         4  POPE      H14R           -1.3654008465       -7.4170454669        2.5112936440  MEMB      4               0.0000000000
       438         4  POPE      H14S           -1.8392317931       -5.8957183790        1.7724360045  MEMB      4               0.0000000000
       439         4  POPE      C215           -2.5961231944       -7.7829204682        0.8759914218  MEMB      4               0.0000000000
       440         4  POPE      H15R           -1.4609497730       -7.8033985997        0.6769363894  MEMB      4               0.0000000000
       441         4  POPE      H15S           -3.4050257695       -7.3571484911        0.1513468206  MEMB      4               0.0000000000
       442         4  POPE      C216           -2.6693351133       -9.2333196249        0.5552976440  MEMB      4               0.0000000000
       443         4  POPE      H16R           -3.7466916712       -9.3727935053        0.5181968365  MEMB      4               0.0000000000
       444         4  POPE      H16S           -2.1184304605       -9.5768988933        1.3981115203  MEMB      4               0.0000000000
       445         4  POPE      C217           -2.0431027825       -9.9995869413       -0.6199648826  MEMB      4               0.0000000000
       446         4  POPE      H17R           -2.7592973821       -9.9680602544       -1.4235746585  MEMB      4               0.0000000000
       447         4  POPE      H17S           -2.0585829467      -11.0781915901       -0.4043900462  MEMB      4               0.0000000000
       448         4  POPE      C218           -0.6768553102       -9.5335786504       -0.9660328609  MEMB      4               0.0000000000
       449         4  POPE      H18R           -0.0253086973       -9.2778778675       -0.1424885970  MEMB      4               0.0000000000
       450         4  POPE      H18S           -0.6881138307       -8.7317091756       -1.7095639744  MEMB      4               0.0000000000
       451         4  POPE      H18T           -0.0518681032      -10.0790878899       -1.5320317723  MEMB      4               0.0000000000
       452         4  POPE      C33            -0.2102408149      -14.5261758234       11.0919899613  MEMB      4               0.0000000000
       453         4  POPE      H3X            -1.0747521807      -15.2180909343       11.1509448375  MEMB      4               0.0000000000
       454         4  POPE      H3Y             0.5046524163      -15.0929704802       10.4747844964  MEMB      4               0.0000000000
       455         4  POPE      C34            -0.1853851129      -13.4687564971       10.0703318218  MEMB      4               0.0000000000
       456         4  POPE      H4X            -0.9856647977      -12.7956703799       10.3677559572  MEMB      4               0.0000000000
       457         4  POPE      H4Y            -0.4557893835      -13.9741086204        9.1192390490  MEMB      4               0.0000000000
       458         4  POPE      C35             1.1743409031      -12.7891941534        9.9273705569  MEMB      4               0.0000000000
       459         4  POPE      H5X             1.9036993911      -13.5917322189        9.6762772930  MEMB      4               0.0000000000
       460         4  POPE      H5Y             1.5924860579      -12.4153152715       10.8875896468  MEMB      4               0.0000000000
       461         4  POPE      C36             1.0529587481      -11.5792447206        8.9717013353  MEMB      4               0.0000000000
       462         4  POPE      H6X             1.9887534203      -10.9947400764        9.0158126514  MEMB      4               0.0000000000
       463         4  POPE      H6Y             0.2348595351      -10.8887279747        9.2828626406  MEMB      4               0.0000000000
       464         4  POPE      C37             0.6887746833      -11.8465418605        7.5170050031  MEMB      4               0.0000000000
       465         4  POPE      H7X            -0.2099576548      -12.4378648507        7.4009492061  MEMB      4               0.0000000000
       466         4  POPE      H7Y             1.2063117540      -12.5568041058        6.9985300188  MEMB      4               0.0000000000
       467         4  POPE      C38             0.9888212941      -10.6960498779        6.5756130417  MEMB      4               0.0000000000
       468         4  POPE      H8X             2.0134458546      -10.2959827029        6.7773335675  MEMB      4               0.0000000000
       469         4  POPE      H8Y             0.2290038918       -9.9584968226        6.8088672158  MEMB      4               0.0000000000
       470         4  POPE      C39             0.8120941534      -10.9419993184        5.0882610933  MEMB      4               0.0000000000
       471         4  POPE      H9X             1.4948902606      -11.6479889026        4.8916903794  MEMB      4               0.0000000000
       472         4  POPE      H9Y             1.1133665558      -10.0460275365        4.5433775567  MEMB      4               0.0000000000
       473         4  POPE      C310           -0.4475060578      -11.6647079510        4.6412842000  MEMB      4               0.0000000000
       474         4  POPE      H10X           -1.2681197567      -10.9538542041        4.7939870389  MEMB      4               0.0000000000
       475         4  POPE      H10Y           -0.5727416899      -12.5217723004        5.3316096878  MEMB      4               0.0000000000
       476         4  POPE      C311           -0.5343737329      -12.2182277582        3.2059020822  MEMB      4               0.0000000000
       477         4  POPE      H11X           -0.2780226743      -11.4295878715        2.4676764140  MEMB      4               0.0000000000
       478         4  POPE      H11Y           -1.5436920963      -12.5943538595        3.0199008532  MEMB      4               0.0000000000
       479         4  POPE      C312            0.4164708942      -13.3098024153        2.8550553371  MEMB      4               0.0000000000
       480         4  POPE      H12X            1.2366680305      -12.6974804807        3.0962760141  MEMB      4               0.0000000000
       481         4  POPE      H12Y            0.6130645155      -13.5042426701        1.7718102493  MEMB      4               0.0000000000
       482         4  POPE      C313            0.3657527193      -14.7033129765        3.5320701088  MEMB      4               0.0000000000
       483         4  POPE      H13X            0.5163342537      -14.6110147050        4.5743035891  MEMB      4               0.0000000000
       484         4  POPE      H13Y            1.0916402144      -15.4389377086        3.1477422827  MEMB      4               0.0000000000
       485         4  POPE      C314           -0.9069004081      -15.3154369761        3.7612540267  MEMB      4               0.0000000000
       486         4  POPE      H14X           -1.7137030168      -14.5854372195        3.8803087396  MEMB      4               0.0000000000
       487         4  POPE      H14Y           -0.9744071448      -16.2416581323        4.3560650184  MEMB      4               0.0000000000
       488         4  POPE      C315           -1.2391330833      -15.8636673058        2.6601919658  MEMB      4               0.0000000000
       489         4  POPE      H15X           -2.2626665350      -16.2589231703        3.0377399671  MEMB      4               0.0000000000
       490         4  POPE      H15Y           -0.8583327547      -16.7102246672        2.2201802415  MEMB      4               0.0000000000
       491         4  POPE      C316           -1.1030118414      -14.9701625385        1.5491946814  MEMB      4               0.0000000000
       492         4  POPE      H16X           -0.2839871493      -14.7611232917        0.7756141010  MEMB      4               0.0000000000
       493         4  POPE      H16Y           -1.4260822312      -13.9562219182        1.6791333098  MEMB      4               0.0000000000
       494         4  POPE      H16Z           -1.7596292505      -15.5247253861        0.8049603854  MEMB      4               0.0000000000
       495         5  PMPE      N               6.8434841993        4.3324592828       19.2536212613  MEMB      5               0.0000000000
       496         5  PMPE      HN1             5.9722181521        3.8451479260       18.9662922059  MEMB      5               0.0000000000
       497         5  PMPE      HN2             7.2803686048        4.7126128039       18.3891721844  MEMB      5               0.0000000000
       498         5  PMPE      HN3             7.5175427905        3.7175513087       19.7309938794  MEMB      5               0.0000000000
       499         5  PMPE      C12             6.6068825159        5.4374185849       20.2414801203  MEMB      5               0.0000000000
       500         5  PMPE      H12A            7.6108574509        5.7177865408       20.6252612068  MEMB      5               0.0000000000
       501         5  PMPE      H12B            6.0506011232        5.0831497306       21.1274138301  MEMB      5               0.0000000000
       502         5  PMPE      C11             5.9643888981        6.6501766563       19.5768145255  MEMB      5               0.0000000000
       503         5  PMPE      H11A            5.8022022104        7.3444362392       20.4363704459  MEMB      5               0.0000000000
       504         5  PMPE      H11B            4.9892530800        6.4737740179       19.0692062360  MEMB      5               0.0000000000
       505         5  PMPE      P               7.1241403151        8.7564927022       18.6378937227  MEMB      5               0.0000000000
       506         5  PMPE      O13             7.7295338518        9.0993745898       19.9360061679  MEMB      5               0.0000000000
       507         5  PMPE      O14             5.9642822472        9.5152704449       18.1533757744  MEMB      5               0.0000000000
       508         5  PMPE      O11             8.1666431493        8.6948557044       17.5622564030  MEMB      5               0.0000000000
       509         5  PMPE      O12             6.8682575321        7.1779259550       18.6230621689  MEMB      5               0.0000000000
       510         5  PMPE      C1              8.2414557085        8.0674370301       16.3041190450  MEMB      5               0.0000000000
       511         5  PMPE      HA              7.8862040721        7.1053789203       16.3140090167  MEMB      5               0.0000000000
       512         5  PMPE      HB              9.3119981877        8.0058863483       15.9689970643  MEMB      5               0.0000000000
       513         5  PMPE      C2              7.5024189771        8.8432551832       15.2607286054  MEMB      5               0.0000000000
       514         5  PMPE      HS              7.9878778415        9.6516368098       15.5854237134  MEMB      5               0.0000000000
       515         5  PMPE      O21             6.1168675968        8.9272964419       15.4717021577  MEMB      5               0.0000000000
       516         5  PMPE      C21             5.5169143772        9.9676413451       14.9960635705  MEMB      5               0.0000000000
       517         5  PMPE      O22             5.8767769440       10.7994174195       14.2259792359  MEMB      5               0.0000000000
       518         5  PMPE      C22             4.1764607900        9.8481052270       15.1791801675  MEMB      5               0.0000000000
       519         5  PMPE      H2R             3.8167740773       10.1189756628       16.1841819585  MEMB      5               0.0000000000
       520         5  PMPE      H2S             3.8630352695        8.8461086841       14.9164297175  MEMB      5               0.0000000000
       521         5  PMPE      C3              7.7692665696        8.3829510096       13.7991135138  MEMB      5               0.0000000000
       522         5  PMPE      HX              8.8773828791        8.5990802126       13.6341095209  MEMB      5               0.0000000000
       523         5  PMPE      HY              7.2410922156        9.0534171426       13.0587743329  MEMB      5               0.0000000000
       524         5  PMPE      O31             7.4441918659        7.0002813501       13.7281175316  MEMB      5               0.0000000000
       525         5  PMPE      C31             6.3952708787        6.6239289709       13.0130788496  MEMB      5               0.0000000000
       526         5  PMPE      O32             5.8293566294        7.3031943082       12.1724520552  MEMB      5               0.0000000000
       527         5  PMPE      C32             6.1454567108        5.1199471448       13.3456018595  MEMB      5               0.0000000000
       528         5  PMPE      H2X             5.5911955129        4.9534896422       14.2796515197  MEMB      5               0.0000000000
       529         5  PMPE      H2Y             7.1484903552        4.6641328678       13.4948705651  MEMB      5               0.0000000000
       530         5  PMPE      C23             3.7042571977       10.6461737186       14.0108052623  MEMB      5               0.0000000000
       531         5  PMPE      H3R             3.2391333614       11.5395099578       14.3936485374  MEMB      5               0.0000000000
       532         5  PMPE      H3S             2.7418382324       10.8050018902       13.9756293288  MEMB      5               0.0000000000
       533         5  PMPE      C24             3.8888867100       10.0127567417       12.5422140588  MEMB      5               0.0000000000
       534         5  PMPE      H4R             3.7727894201        8.9880415467       12.6015614518  MEMB      5               0.0000000000
       535         5  PMPE      H4S             4.9136842939       10.2701598661       12.3850868708  MEMB      5               0.0000000000
       536         5  PMPE      C25             3.0352151302       10.4411159254       11.1654288910  MEMB      5               0.0000000000
       537         5  PMPE      H5R             2.7811177663       11.3873580751       11.0047227794  MEMB      5               0.0000000000
       538         5  PMPE      H5S             1.9825609932       10.5378647003       11.0674822093  MEMB      5               0.0000000000
       539         5  PMPE      C26             3.3497468416       10.1490362667        9.9403387165  MEMB      5               0.0000000000
       540         5  PMPE      H6R             2.8423666113        9.1746493025        9.9848330980  MEMB      5               0.0000000000
       541         5  PMPE      H6S             4.3265816881       10.3890401511       10.2543671768  MEMB      5               0.0000000000
       542         5  PMPE      C27             2.8102290413       11.1267187920        9.0665399504  MEMB      5               0.0000000000
       543         5  PMPE      H7R             2.4490141171       12.1118368072        9.4011106647  MEMB      5               0.0000000000
       544         5  PMPE      H7S             1.9572246363       10.5358104102        8.9933183999  MEMB      5               0.0000000000
       545         5  PMPE      C28             3.6372837139       11.1772859386        7.9145493410  MEMB      5               0.0000000000
       546         5  PMPE      H8R             4.2385570289       12.0628149053        8.0897485356  MEMB      5               0.0000000000
       547         5  PMPE      H8S             3.2605724873       11.5113930745        7.0081338855  MEMB      5               0.0000000000
       548         5  PMPE      C29             4.0330795561        9.9077449506        7.4410733697  MEMB      5               0.0000000000
       549         5  PMPE      H9R             3.3304029529        9.0611402566        7.5542554558  MEMB      5               0.0000000000
       550         5  PMPE      C217            5.5038798326        9.8956260909        7.5311509470  MEMB      5               0.0000000000
       551         5  PMPE      H17R            5.8413329918        8.9241864153        7.7971262815  MEMB      5               0.0000000000
       552         5  PMPE      H17S            5.8512971585       10.8525350488        7.9271495327  MEMB      5               0.0000000000
       553         5  PMPE      C210            4.8222246354        9.8814258507        6.1631134610  MEMB      5               0.0000000000
       554         5  PMPE      H10R            4.8612588815        8.8705076401        5.7322471177  MEMB      5               0.0000000000
       555         5  PMPE      C211            5.2508394054       11.0809871719        5.2835476325  MEMB      5               0.0000000000
       556         5  PMPE      H11R            6.3327141515       11.0279444660        5.0879342633  MEMB      5               0.0000000000
       557         5  PMPE      H11S            5.0706525332       12.0822319473        5.7388647524  MEMB      5               0.0000000000
       558         5  PMPE      C212            4.8444954929       10.9604761363        3.7979005626  MEMB      5               0.0000000000
       559         5  PMPE      H12R            3.8965990766       10.8106959267        3.4828070972  MEMB      5               0.0000000000
       560         5  PMPE      H12S            4.8885499933        9.9823224307        3.3782503382  MEMB      5               0.0000000000
       561         5  PMPE      C213            4.9608258233       12.1986639571        2.9347651101  MEMB      5               0.0000000000
       562         5  PMPE      H13R            5.9213828897       12.5165581338        3.3251629994  MEMB      5               0.0000000000
       563         5  PMPE      H13S            4.2357611220       13.0177417715        3.1709639820  MEMB      5               0.0000000000
       564         5  PMPE      C214            4.9210459977       11.8795535080        1.4102857825  MEMB      5               0.0000000000
       565         5  PMPE      H14R            5.6780020797       11.1047327913        1.3076283754  MEMB      5               0.0000000000
       566         5  PMPE      H14S            5.0364042814       12.7836407914        0.8181201860  MEMB      5               0.0000000000
       567         5  PMPE      C215            3.6983941984       11.3847942573        0.7185920060  MEMB      5               0.0000000000
       568         5  PMPE      H15R            3.5388841791       10.4692588365        1.4341016879  MEMB      5               0.0000000000
       569         5  PMPE      H15S            3.4107931867       10.9195960519       -0.1860099511  MEMB      5               0.0000000000
       570         5  PMPE      C216            2.8285811704       12.5182562796        0.2484692971  MEMB      5               0.0000000000
       571         5  PMPE      H16R            2.3981186747       13.2225766620        0.9279348563  MEMB      5               0.0000000000
       572         5  PMPE      H16S            2.9031334648       12.7925777333       -0.7367408835  MEMB      5               0.0000000000
       573         5  PMPE      H16T            1.9316081586       11.9777304820        0.2867274500  MEMB      5               0.0000000000
       574         5  PMPE      C33             5.4430458476        4.3070120440       12.2532777704  MEMB      5               0.0000000000
       575         5  PMPE      H3X             5.7647901948        3.2857119901       12.4025086924  MEMB      5               0.0000000000
       576         5  PMPE      H3Y             5.9103445455        4.6340030616       11.3128515869  MEMB      5               0.0000000000
       577         5  PMPE      C34             3.9045284005        4.3658845369       12.2116108831  MEMB      5               0.0000000000
       578         5  PMPE      H4X             3.6538153880        5.4209622143       12.3916306245  MEMB      5               0.0000000000
       579         5  PMPE      H4Y             3.3875343505        3.8099792292       13.0358064955  MEMB      5               0.0000000000
       580         5  PMPE      C35             3.3906691290        3.7843888605       10.8788423277  MEMB      5               0.0000000000
       581         5  PMPE      H5X             2.8507283147        2.8835659744       11.2063421709  MEMB      5               0.0000000000
       582         5  PMPE      H5Y             4.2594959890        3.3809108069       10.3180875562  MEMB      5               0.0000000000
       583         5  PMPE      C36             2.5187279446        4.6933374807        9.9718291939  MEMB      5               0.0000000000
       584         5  PMPE      H6X             1.6151047875        5.0133433237       10.5371502972  MEMB      5               0.0000000000
       585         5  PMPE      H6Y             2.1410767231        4.1774188323        9.0544776399  MEMB      5               0.0000000000
       586         5  PMPE      C37             3.1481243990        6.0368814757        9.5605053853  MEMB      5               0.0000000000
       587         5  PMPE      H7X             3.3054564163        6.6281586758       10.4892449871  MEMB      5               0.0000000000
       588         5  PMPE      H7Y             2.4237723904        6.5732710845        8.9120675427  MEMB      5               0.0000000000
       589         5  PMPE      C38             4.4345510524        6.0323832481        8.7381864633  MEMB      5               0.0000000000
       590         5  PMPE      H8X             5.2722671112        5.7644827205        9.4063523860  MEMB      5               0.0000000000
       591         5  PMPE      H8Y             4.6043002873        7.0615765750        8.3288138303  MEMB      5               0.0000000000
       592         5  PMPE      C39             4.4232128897        5.0444242864        7.5802486218  MEMB      5               0.0000000000
       593         5  PMPE      H9X             3.8323500294        5.4779237298        6.7470887721  MEMB      5               0.0000000000
       594         5  PMPE      H9Y             3.9415994316        4.0923932935        7.8850102365  MEMB      5               0.0000000000
       595         5  PMPE      C310            5.7971924717        4.6746557498        7.0081484823  MEMB      5               0.0000000000
       596         5  PMPE      H10X            5.5331620733        4.1099977429        6.0864055012  MEMB      5               0.0000000000
       597         5  PMPE      H10Y            6.3827141170        4.0336592655        7.7064887721  MEMB      5               0.0000000000
       598         5  PMPE      C311            6.6872382570        5.8512807549        6.5963905645  MEMB      5               0.0000000000
       599         5  PMPE      H11X            7.7635125816        5.5807069789        6.7071755807  MEMB      5               0.0000000000
       600         5  PMPE      H11Y            6.4701244326        6.6999654289        7.2746835030  MEMB      5               0.0000000000
       601         5  PMPE      C312            6.4503895247        6.2460912604        5.1411613720  MEMB      5               0.0000000000
       602         5  PMPE      H12X            5.3672874371        6.4241043782        4.9708592611  MEMB      5               0.0000000000
       603         5  PMPE      H12Y            6.7593910606        5.4376751947        4.4566712450  MEMB      5               0.0000000000
       604         5  PMPE      C313            7.2333635070        7.4327051243        4.6234247451  MEMB      5               0.0000000000
       605         5  PMPE      H13X            8.3254450110        7.1688802694        4.6318610930  MEMB      5               0.0000000000
       606         5  PMPE      H13Y            7.0062515990        8.3037206880        5.2743341997  MEMB      5               0.0000000000
       607         5  PMPE      C314            6.7664387445        7.7103507888        3.1926322335  MEMB      5               0.0000000000
       608         5  PMPE      H14X            5.7322980659        8.1176237435        3.1936395384  MEMB      5               0.0000000000
       609         5  PMPE      H14Y            6.5869998166        6.7371770806        2.6959702891  MEMB      5               0.0000000000
       610         5  PMPE      C315            7.8356267944        8.5163880399        2.4369743634  MEMB      5               0.0000000000
       611         5  PMPE      H15X            8.8647885397        8.1940224006        2.6817373674  MEMB      5               0.0000000000
       612         5  PMPE      H15Y            7.8681681754        9.5438435198        2.8413519837  MEMB      5               0.0000000000
       613         5  PMPE      C316            7.6584611768        8.5651008560        0.9295691954  MEMB      5               0.0000000000
       614         5  PMPE      H16X            7.1508916334        7.6785152002        0.5084670387  MEMB      5               0.0000000000
       615         5  PMPE      H16Y            8.5827840516        8.6956223522        0.3472664274  MEMB      5               0.0000000000
       616         5  PMPE      H16Z            7.1021666008        9.4686686115        0.7707882443  MEMB      5               0.0000000000
       617         6  POPE      N               8.0350192696       -8.7012155688       21.6156585667  MEMB      6               0.0000000000
       618         6  POPE      HN1             7.1990679954       -9.0755039847       22.1129141121  MEMB      6               0.0000000000
       619         6  POPE      HN2             8.2875637789       -9.3183321533       20.8225957474  MEMB      6               0.0000000000
       620         6  POPE      HN3             8.8684285352       -8.6941751386       22.2309153757  MEMB      6               0.0000000000
       621         6  POPE      C12             7.8293520471       -7.3366457508       21.0190521629  MEMB      6               0.0000000000
       622         6  POPE      H12A            7.7391855364       -6.6901037889       21.8754342593  MEMB      6               0.0000000000
       623         6  POPE      H12B            6.9115644474       -7.3359166014       20.3855717660  MEMB      6               0.0000000000
       624         6  POPE      C11             9.1001529194       -6.8459825500       20.3085712737  MEMB      6               0.0000000000
       625         6  POPE      H11A            9.9829883948       -6.9711290278       20.9609284233  MEMB      6               0.0000000000
       626         6  POPE      H11B            9.0150020625       -5.7488625548       20.0845786785  MEMB      6               0.0000000000
       627         6  POPE      P               8.9004047856       -7.1772800192       17.7407314689  MEMB      6               0.0000000000
       628         6  POPE      O13             7.8050471117       -6.1980969378       17.8905680617  MEMB      6               0.0000000000
       629         6  POPE      O14             8.6054328923       -8.4256808801       17.0235560577  MEMB      6               0.0000000000
       630         6  POPE      O11            10.1539168448       -6.4514467435       17.1479559609  MEMB      6               0.0000000000
       631         6  POPE      O12             9.3742109171       -7.6348649521       19.1717243835  MEMB      6               0.0000000000
       632         6  POPE      C1             11.4931304992       -6.8507149760       17.4340476828  MEMB      6               0.0000000000
       633         6  POPE      HA             11.6069765206       -7.8940101203       17.8304165587  MEMB      6               0.0000000000
       634         6  POPE      HB             11.8887935609       -6.1886089670       18.2176884368  MEMB      6               0.0000000000
       635         6  POPE      C2             12.4446861852       -6.6611668836       16.2416460218  MEMB      6               0.0000000000
       636         6  POPE      HS             13.4455388271       -6.6385882784       16.6988730787  MEMB      6               0.0000000000
       637         6  POPE      O21            12.2471629446       -5.5046362904       15.4111632944  MEMB      6               0.0000000000
       638         6  POPE      C21            12.3170701043       -4.3027803871       15.9653662030  MEMB      6               0.0000000000
       639         6  POPE      O22            12.4788500192       -4.0387667948       17.1338413763  MEMB      6               0.0000000000
       640         6  POPE      C22            12.2364718811       -3.3002909683       14.8146703221  MEMB      6               0.0000000000
       641         6  POPE      H2R            12.5018808000       -3.8176532508       13.8600254849  MEMB      6               0.0000000000
       642         6  POPE      H2S            12.9072503238       -2.4575234421       14.9956940535  MEMB      6               0.0000000000
       643         6  POPE      C3             12.3583706612       -7.8965787426       15.3607045353  MEMB      6               0.0000000000
       644         6  POPE      HX             12.6310662749       -8.8009690701       15.9329841056  MEMB      6               0.0000000000
       645         6  POPE      HY             13.0509569787       -7.7422452813       14.6026761292  MEMB      6               0.0000000000
       646         6  POPE      O31            11.1032272485       -8.0519145203       14.7621627806  MEMB      6               0.0000000000
       647         6  POPE      C31            10.8541816197       -7.5557714079       13.5999306005  MEMB      6               0.0000000000
       648         6  POPE      O32            11.5987485821       -6.9918530720       12.8121483112  MEMB      6               0.0000000000
       649         6  POPE      C32             9.3931811931       -7.8321594770       13.3694878291  MEMB      6               0.0000000000
       650         6  POPE      H2X             9.1786836395       -7.4512193884       12.3558138102  MEMB      6               0.0000000000
       651         6  POPE      H2Y             8.7759003477       -7.2408473170       14.0872533792  MEMB      6               0.0000000000
       652         6  POPE      C23            10.8497064968       -2.8260918946       14.6392711703  MEMB      6               0.0000000000
       653         6  POPE      H3R            10.8034295477       -2.0706050539       13.8096478677  MEMB      6               0.0000000000
       654         6  POPE      H3S            10.3271810016       -2.3721942313       15.5291750442  MEMB      6               0.0000000000
       655         6  POPE      C24            10.2623365095       -4.0503872330       14.1284265135  MEMB      6               0.0000000000
       656         6  POPE      H4R            10.0058648581       -4.9681465078       14.7168007113  MEMB      6               0.0000000000
       657         6  POPE      H4S            10.4784135651       -4.2840302248       13.0704771617  MEMB      6               0.0000000000
       658         6  POPE      C25             9.2025177979       -3.6032628270       14.0651721022  MEMB      6               0.0000000000
       659         6  POPE      H5R             8.7254587753       -2.4785867526       13.9128388834  MEMB      6               0.0000000000
       660         6  POPE      H5S             8.5632369981       -3.7544199671       15.1757393620  MEMB      6               0.0000000000
       661         6  POPE      C26             8.4418340339       -4.8022540875       12.2766786085  MEMB      6               0.0000000000
       662         6  POPE      H6R             8.7172149436       -5.6700017817       12.5753764744  MEMB      6               0.0000000000
       663         6  POPE      H6S             8.9092796054       -3.8984347758       12.1366799685  MEMB      6               0.0000000000
       664         6  POPE      C27             5.8154995650       -4.9524673040       12.4011306931  MEMB      6               0.0000000000
       665         6  POPE      H7R             5.4628371086       -3.4504632608       12.8054276964  MEMB      6               0.0000000000
       666         6  POPE      H7S             5.7990110808       -5.5377881866       13.3286238010  MEMB      6               0.0000000000
       667         6  POPE      C28             4.7819276674       -5.0497226583       11.8844939125  MEMB      6               0.0000000000
       668         6  POPE      H8R             4.8783225032       -3.9961544413       11.5280664038  MEMB      6               0.0000000000
       669         6  POPE      H8S             3.9968238731       -4.3917669018       11.9211986838  MEMB      6               0.0000000000
       670         6  POPE      C29             4.8869219146       -6.4235224420       11.3779582828  MEMB      6               0.0000000000
       671         6  POPE      H91             4.7796645965       -7.0181946697       12.2964597782  MEMB      6               0.0000000000
       672         6  POPE      C210            5.2795464677       -6.9689881130       10.1699783549  MEMB      6               0.0000000000
       673         6  POPE      H101            5.1089773932       -8.0143477858       10.0852406903  MEMB      6               0.0000000000
       674         6  POPE      C211            5.8010958820       -6.5002517939        8.7367304494  MEMB      6               0.0000000000
       675         6  POPE      H11R            5.8686804833       -5.4764910503        8.2106958979  MEMB      6               0.0000000000
       676         6  POPE      H11S            5.0880528560       -6.7382429758        7.9926368440  MEMB      6               0.0000000000
       677         6  POPE      C212            7.2840483118       -6.4876167845        8.5057180926  MEMB      6               0.0000000000
       678         6  POPE      H12R            7.4534994434       -7.5156091193        8.7481129339  MEMB      6               0.0000000000
       679         6  POPE      H12S            7.9285837693       -5.9067178437        9.2135179365  MEMB      6               0.0000000000
       680         6  POPE      C213            7.5771917049       -6.0179393759        7.0902633148  MEMB      6               0.0000000000
       681         6  POPE      H13R            8.6244753826       -6.2886314443        6.8898172653  MEMB      6               0.0000000000
       682         6  POPE      H13S            7.4743394392       -4.9042713742        6.9937680903  MEMB      6               0.0000000000
       683         6  POPE      C214            6.7605429069       -6.6941310913        5.9878794399  MEMB      6               0.0000000000
       684         6  POPE      H14R            5.6575870616       -6.5846262632        6.0771715156  MEMB      6               0.0000000000
       685         6  POPE      H14S            7.0104737127       -7.7837033468        5.9683949715  MEMB      6               0.0000000000
       686         6  POPE      C215            7.2435540819       -6.1059703442        4.6768984632  MEMB      6               0.0000000000
       687         6  POPE      H15R            8.3468143302       -6.0066712846        4.7692662676  MEMB      6               0.0000000000
       688         6  POPE      H15S            6.8174394207       -5.0968281607        4.4511550393  MEMB      6               0.0000000000
       689         6  POPE      C216            7.0371723826       -7.0391219502        3.5143777445  MEMB      6               0.0000000000
       690         6  POPE      H16R            5.9285376739       -7.1291182216        3.4064631045  MEMB      6               0.0000000000
       691         6  POPE      H16S            7.5110238646       -8.0335153929        3.6793793920  MEMB      6               0.0000000000
       692         6  POPE      C217            7.6549790591       -6.3593307660        2.3521707924  MEMB      6               0.0000000000
       693         6  POPE      H17R            8.7407156506       -6.5173340793        2.1298340193  MEMB      6               0.0000000000
       694         6  POPE      H17S            7.3915032841       -5.3278125077        2.2693500392  MEMB      6               0.0000000000
       695         6  POPE      C218            7.0335047892       -6.7072197316        1.3020029312  MEMB      6               0.0000000000
       696         6  POPE      H18R            7.7532204590       -7.9509295150        1.3811466778  MEMB      6               0.0000000000
       697         6  POPE      H18S            7.1879097360       -6.0167208827        0.2947340210  MEMB      6               0.0000000000
       698         6  POPE      H18T            5.9354509910       -6.8195536579        0.9432527841  MEMB      6               0.0000000000
       699         6  POPE      C33             8.9929618401       -9.3252511418       13.3324677427  MEMB      6               0.0000000000
       700         6  POPE      H3X             9.0931409425       -9.8889898393       14.2869658849  MEMB      6               0.0000000000
       701         6  POPE      H3Y             9.6282029812       -9.8492446991       12.5822484467  MEMB      6               0.0000000000
       702         6  POPE      C34             7.5233958234       -9.2803252598       12.9399035258  MEMB      6               0.0000000000
       703         6  POPE      H4X             7.4548883402       -8.6463426632       12.0314507345  MEMB      6               0.0000000000
       704         6  POPE      H4Y             6.9846455688       -8.7115175441       13.7283472912  MEMB      6               0.0000000000
       705         6  POPE      C35             6.8015035429      -10.6088676134       12.7381708307  MEMB      6               0.0000000000
       706         6  POPE      H5X             5.7524823722      -10.3610341430       12.4634408215  MEMB      6               0.0000000000
       707         6  POPE      H5Y             6.8200547421      -11.2510631628       13.6576056025  MEMB      6               0.0000000000
       708         6  POPE      C36             7.2326573127      -11.3783503522       11.4966271450  MEMB      6               0.0000000000
       709         6  POPE      H6X             6.6039767820      -12.2898883946       11.4222411313  MEMB      6               0.0000000000
       710         6  POPE      H6Y             8.3010868885      -11.6531902692       11.6084024480  MEMB      6               0.0000000000
       711         6  POPE      C37             6.9542358908      -10.6352068204       10.1827061290  MEMB      6               0.0000000000
       712         6  POPE      H7X             7.4523112293       -9.6509126171       10.2690646652  MEMB      6               0.0000000000
       713         6  POPE      H7Y             5.8542914679      -10.4858129236       10.0282146265  MEMB      6               0.0000000000
       714         6  POPE      C38             7.5320760691      -11.3612994959        8.9643975035  MEMB      6               0.0000000000
       715         6  POPE      H8X             7.1972803993      -10.8410235652        8.0349540971  MEMB      6               0.0000000000
       716         6  POPE      H8Y             7.0624236654      -12.3602508487        8.8775174730  MEMB      6               0.0000000000
       717         6  POPE      C39             9.0771214336      -11.4601619809        8.9792437317  MEMB      6               0.0000000000
       718         6  POPE      H9X             9.3507853059      -11.8218221088        7.9767779821  MEMB      6               0.0000000000
       719         6  POPE      H9Y             9.5357023448      -12.1713917881        9.7090776716  MEMB      6               0.0000000000
       720         6  POPE      C310            9.7777963202      -10.1099777119        9.0167794536  MEMB      6               0.0000000000
       721         6  POPE      H10X            9.9074979458       -9.8110349822       10.0798391190  MEMB      6               0.0000000000
       722         6  POPE      H10Y            9.1589727188       -9.3841348727        8.4367147902  MEMB      6               0.0000000000
       723         6  POPE      C311           11.1627455749      -10.1115797203        8.3682585965  MEMB      6               0.0000000000
       724         6  POPE      H11X           11.8139839241      -10.8847616765        8.8245616318  MEMB      6               0.0000000000
       725         6  POPE      H11Y           11.5582157360       -9.1291746588        8.7045112208  MEMB      6               0.0000000000
       726         6  POPE      C312           11.1222606144      -10.1331336021        6.8250506070  MEMB      6               0.0000000000
       727         6  POPE      H12X           10.5848683160      -11.0127300580        6.4221865338  MEMB      6               0.0000000000
       728         6  POPE      H12Y           12.1240222877      -10.1799980444        6.3499473440  MEMB      6               0.0000000000
       729         6  POPE      C313           10.4381212301       -8.8800661457        6.2849443419  MEMB      6               0.0000000000
       730         6  POPE      H13X           10.8795452786       -8.0293764652        6.8522971911  MEMB      6               0.0000000000
       731         6  POPE      H13Y            9.3495626518       -8.9146604481        6.4864719232  MEMB      6               0.0000000000
       732         6  POPE      C314           10.5749701668       -8.7298883008        4.7847391486  MEMB      6               0.0000000000
       733         6  POPE      H14X           11.5592806824       -8.2773082274        4.5714445588  MEMB      6               0.0000000000
       734         6  POPE      H14Y            9.8185166385       -8.0160945061        4.3780852728  MEMB      6               0.0000000000
       735         6  POPE      C315           10.4434610416      -10.0230515525        4.0140033310  MEMB      6               0.0000000000
       736         6  POPE      H15X            9.4393579976      -10.4656172836        4.2134018864  MEMB      6               0.0000000000
       737         6  POPE      H15Y           11.2487650617      -10.7742815144        4.2319131537  MEMB      6               0.0000000000
       738         6  POPE      C316           10.4801857078       -9.5526229370        2.6084767630  MEMB      6               0.0000000000
       739         6  POPE      H16X           11.3738192511       -9.0129666550        2.2978179832  MEMB      6               0.0000000000
       740         6  POPE      H16Y            9.5334542021       -9.2047665237        2.2072456303  MEMB      6               0.0000000000
       741         6  POPE      H16Z           10.4456502341      -10.3352906753        2.0043137924  MEMB      6               0.0000000000
       742         7  PMPE      N              -9.7582191132       -8.5614832934       17.4103517964  MEMB      7               0.0000000000
       743         7  PMPE      HN1           -10.6832676956       -8.7030404651       16.8943842839  MEMB      7               0.0000000000
       744         7  PMPE      HN2            -8.9942899148       -8.7159577855       16.7493914646  MEMB      7               0.0000000000
       745         7  PMPE      HN3            -9.8650492577       -9.3384143375       18.1116996447  MEMB      7               0.0000000000
       746         7  PMPE      C12            -9.9128939914       -7.1121163438       18.0135746794  MEMB      7               0.0000000000
       747         7  PMPE      H12A          -10.7325528365       -7.0161838813       18.7630702101  MEMB      7               0.0000000000
       748         7  PMPE      H12B          -10.3733184442       -6.4032635340       17.2908673856  MEMB      7               0.0000000000
       749         7  PMPE      C11            -8.7535536048       -6.7650047787       18.7689926881  MEMB      7               0.0000000000
       750         7  PMPE      H11A           -8.9019449288       -5.7918934725       19.2614691468  MEMB      7               0.0000000000
       751         7  PMPE      H11B           -7.9902566162       -6.6602049473       17.9774674274  MEMB      7               0.0000000000
       752         7  PMPE      P              -7.2423725329       -8.6615770514       19.7222523939  MEMB      7               0.0000000000
       753         7  PMPE      O13            -7.3703652164       -9.8570097241       20.5843048894  MEMB      7               0.0000000000
       754         7  PMPE      O14            -6.0712638379       -7.7966399421       19.8269857200  MEMB      7               0.0000000000
       755         7  PMPE      O11            -7.3832110346       -9.1371771748       18.2456076936  MEMB      7               0.0000000000
       756         7  PMPE      O12            -8.5698345479       -7.8044612583       19.7294641279  MEMB      7               0.0000000000
       757         7  PMPE      C1             -7.0156720883      -10.3905709099       17.9350475544  MEMB      7               0.0000000000
       758         7  PMPE      HA             -7.8147618744      -11.2029634836       17.9655014711  MEMB      7               0.0000000000
       759         7  PMPE      HB             -6.1299075339      -10.7127692355       18.5347808066  MEMB      7               0.0000000000
       760         7  PMPE      C2             -6.6719243447      -10.4319670795       16.4261973759  MEMB      7               0.0000000000
       761         7  PMPE      HS             -5.5571241704      -10.1083364929       16.3189714420  MEMB      7               0.0000000000
       762         7  PMPE      O21            -7.4950049364       -9.8889482851       15.5152365442  MEMB      7               0.0000000000
       763         7  PMPE      C21            -7.3152028787       -8.7001216234       15.3248960991  MEMB      7               0.0000000000
       764         7  PMPE      O22            -6.5127978440       -7.9700455581       15.8802244117  MEMB      7               0.0000000000
       765         7  PMPE      C22            -8.4196605551       -8.3468550479       14.3608184151  MEMB      7               0.0000000000
       766         7  PMPE      H2R            -9.3072381083       -7.9515576523       14.8788312863  MEMB      7               0.0000000000
       767         7  PMPE      H2S            -8.6689538165       -9.2310194863       13.7271911676  MEMB      7               0.0000000000
       768         7  PMPE      C3             -6.7523046533      -11.6238122434       16.0194201748  MEMB      7               0.0000000000
       769         7  PMPE      HX             -7.5880094367      -12.3679436036       16.2313834282  MEMB      7               0.0000000000
       770         7  PMPE      HY             -6.1040254560      -11.7191575045       17.0333964654  MEMB      7               0.0000000000
       771         7  PMPE      O31            -6.0497391914      -11.8695918191       14.7162376998  MEMB      7               0.0000000000
       772         7  PMPE      C31            -6.7471527342      -12.1329684007       13.6738685186  MEMB      7               0.0000000000
       773         7  PMPE      O32            -7.9402892942      -12.1572914421       13.6822846562  MEMB      7               0.0000000000
       774         7  PMPE      C32            -5.8990636479      -12.1494086668       12.4259735508  MEMB      7               0.0000000000
       775         7  PMPE      H2X            -6.0361122060      -13.1146923917       11.9217729561  MEMB      7               0.0000000000
       776         7  PMPE      H2Y            -4.8261751817      -11.9384785932       12.6271183399  MEMB      7               0.0000000000
       777         7  PMPE      C23            -7.9250145495       -7.2823642579       13.4083271575  MEMB      7               0.0000000000
       778         7  PMPE      H3R            -7.0660086332       -7.7996699048       12.9146624575  MEMB      7               0.0000000000
       779         7  PMPE      H3S            -7.5304527249       -6.4415307079       14.0171927399  MEMB      7               0.0000000000
       780         7  PMPE      C24            -8.9897811417       -6.8900831328       12.3524196156  MEMB      7               0.0000000000
       781         7  PMPE      H4R           -10.0255536302       -6.7688201140       12.7390277863  MEMB      7               0.0000000000
       782         7  PMPE      H4S            -8.9262983974       -7.7219308859       11.6131673583  MEMB      7               0.0000000000
       783         7  PMPE      C25            -8.7241547092       -5.5809537271       11.5992990980  MEMB      7               0.0000000000
       784         7  PMPE      H5R            -8.5776053628       -4.8482445984       12.4160202010  MEMB      7               0.0000000000
       785         7  PMPE      H5S            -9.5772862652       -5.1710882302       11.0096872271  MEMB      7               0.0000000000
       786         7  PMPE      C26            -7.5480328591       -5.8497027940       10.6638311253  MEMB      7               0.0000000000
       787         7  PMPE      H6R            -7.6908041513       -6.8508215595       10.2122731706  MEMB      7               0.0000000000
       788         7  PMPE      H6S            -6.6342312196       -5.9289311559       11.2728424035  MEMB      7               0.0000000000
       789         7  PMPE      C27            -7.2980337955       -4.8696643576        9.5415999499  MEMB      7               0.0000000000
       790         7  PMPE      H7R            -6.3543742834       -5.0566387677        9.0210182601  MEMB      7               0.0000000000
       791         7  PMPE      H7S            -7.0814117164       -3.9090522094       10.0151924630  MEMB      7               0.0000000000
       792         7  PMPE      C28            -8.3923139479       -4.8239227550        8.4704878393  MEMB      7               0.0000000000
       793         7  PMPE      H8R            -8.0442696468       -4.0404082688        7.7379594210  MEMB      7               0.0000000000
       794         7  PMPE      H8S            -9.3565625905       -4.5526964170        8.9507913892  MEMB      7               0.0000000000
       795         7  PMPE      C29            -8.8553454684       -6.0629380891        7.9323436908  MEMB      7               0.0000000000
       796         7  PMPE      H9R            -9.2807266939       -6.8143186005        8.6003875100  MEMB      7               0.0000000000
       797         7  PMPE      C217           -7.9816939594       -6.4453773112        6.7983515235  MEMB      7               0.0000000000
       798         7  PMPE      H17R           -7.7960648088       -7.4910062776        6.8327178202  MEMB      7               0.0000000000
       799         7  PMPE      H17S           -7.3332230029       -5.6611082400        6.4160711626  MEMB      7               0.0000000000
       800         7  PMPE      C210           -9.4405072421       -6.1199500797        6.5692906750  MEMB      7               0.0000000000
       801         7  PMPE      H10R          -10.1821436249       -6.9184828587        6.4663094181  MEMB      7               0.0000000000
       802         7  PMPE      C211           -9.6690681873       -4.8746948218        5.8062899293  MEMB      7               0.0000000000
       803         7  PMPE      H11R           -8.8372590456       -4.1450976392        5.8292474875  MEMB      7               0.0000000000
       804         7  PMPE      H11S          -10.4277859425       -4.4967613774        6.4172542670  MEMB      7               0.0000000000
       805         7  PMPE      C212          -10.0860731432       -5.0980870404        4.3850880836  MEMB      7               0.0000000000
       806         7  PMPE      H12R           -9.8834347968       -4.1542910374        3.9492052654  MEMB      7               0.0000000000
       807         7  PMPE      H12S          -11.1581523858       -5.3553707326        4.2760329659  MEMB      7               0.0000000000
       808         7  PMPE      C213           -9.0773930796       -5.9648631805        3.6493156147  MEMB      7               0.0000000000
       809         7  PMPE      H13R           -8.9441384474       -6.9111374557        4.1923881194  MEMB      7               0.0000000000
       810         7  PMPE      H13S           -8.0759414612       -5.4780099064        3.6445376664  MEMB      7               0.0000000000
       811         7  PMPE      C214           -9.3509072583       -6.1966340441        2.1710996408  MEMB      7               0.0000000000
       812         7  PMPE      H14R          -10.4226471081       -6.2690848669        1.9340556999  MEMB      7               0.0000000000
       813         7  PMPE      H14S           -8.7891065255       -7.0693239714        1.8138617011  MEMB      7               0.0000000000
       814         7  PMPE      C215           -8.8236981672       -5.0776759001        1.3633743131  MEMB      7               0.0000000000
       815         7  PMPE      H15R           -7.7947881939       -4.8352286280        1.6930452975  MEMB      7               0.0000000000
       816         7  PMPE      H15S           -9.4739313580       -4.3297349016        1.6899114675  MEMB      7               0.0000000000
       817         7  PMPE      C216           -9.1131915516       -5.0219159883       -0.1000182250  MEMB      7               0.0000000000
       818         7  PMPE      H16R           -8.7262420617       -4.0992389637       -0.5956183211  MEMB      7               0.0000000000
       819         7  PMPE      H16S           -8.7022109449       -5.9709907556       -0.4665572294  MEMB      7               0.0000000000
       820         7  PMPE      H16T          -10.2160368667       -4.9532131187       -0.2203476975  MEMB      7               0.0000000000
       821         7  PMPE      C33            -6.4450155868      -11.1875413370       11.3880165250  MEMB      7               0.0000000000
       822         7  PMPE      H3X            -6.4892312250      -10.1644417149       11.7974230981  MEMB      7               0.0000000000
       823         7  PMPE      H3Y            -7.4957173139      -11.4877326769       11.2033953355  MEMB      7               0.0000000000
       824         7  PMPE      C34            -5.5345029222      -11.3481483827       10.1708268737  MEMB      7               0.0000000000
       825         7  PMPE      H4X            -5.8196066541      -12.2805302427        9.6709329816  MEMB      7               0.0000000000
       826         7  PMPE      H4Y            -4.5098716824      -11.4936843030       10.5947920573  MEMB      7               0.0000000000
       827         7  PMPE      C35            -5.5044684363      -10.1684181231        9.2014661311  MEMB      7               0.0000000000
       828         7  PMPE      H5X            -4.6476342569      -10.2360909725        8.4879264551  MEMB      7               0.0000000000
       829         7  PMPE      H5Y            -5.3549039037       -9.2902302967        9.8657716794  MEMB      7               0.0000000000
       830         7  PMPE      C36            -6.7674340736      -10.0226515290        8.3410532229  MEMB      7               0.0000000000
       831         7  PMPE      H6X            -6.8044199213       -9.0210601015        7.8459972610  MEMB      7               0.0000000000
       832         7  PMPE      H6Y            -7.6598433616      -10.1821266713        8.9715257803  MEMB      7               0.0000000000
       833         7  PMPE      C37            -6.8145725479      -11.0537580683        7.2129370679  MEMB      7               0.0000000000
       834         7  PMPE      H7X            -6.9490062456      -12.0772633981        7.6355399763  MEMB      7               0.0000000000
       835         7  PMPE      H7Y            -5.8253508669      -10.9293772654        6.7361272059  MEMB      7               0.0000000000
       836         7  PMPE      C38            -7.9125516205      -10.7894696077        6.1708817140  MEMB      7               0.0000000000
       837         7  PMPE      H8X            -7.9235165222       -9.7068599967        5.9384105364  MEMB      7               0.0000000000
       838         7  PMPE      H8Y            -8.8365536132      -11.0815815326        6.7098236397  MEMB      7               0.0000000000
       839         7  PMPE      C39            -7.7525145333      -11.5298347044        4.8341446241  MEMB      7               0.0000000000
       840         7  PMPE      H9X            -7.4989859797      -12.5106766041        5.0545952745  MEMB      7               0.0000000000
       841         7  PMPE      H9Y            -6.9402680845      -11.0898458521        4.2037296719  MEMB      7               0.0000000000
       842         7  PMPE      C310           -8.9736083046      -11.7755904242        3.9955407872  MEMB      7               0.0000000000
       843         7  PMPE      H10X           -9.8739646147      -12.0333094976        4.5817857564  MEMB      7               0.0000000000
       844         7  PMPE      H10Y           -8.7907498237      -12.6100097990        3.2634018589  MEMB      7               0.0000000000
       845         7  PMPE      C311           -8.8790184414      -10.4785662661        3.3284189905  MEMB      7               0.0000000000
       846         7  PMPE      H11X           -8.0529470901      -10.4812445221        2.6040529416  MEMB      7               0.0000000000
       847         7  PMPE      H11Y           -9.2062989813       -9.5348978543        3.7747316126  MEMB      7               0.0000000000
       848         7  PMPE      C312           -9.6243418297      -10.3871278322        2.3653134134  MEMB      7               0.0000000000
       849         7  PMPE      H12X           -9.9183752289       -9.4202031222        1.8520351152  MEMB      7               0.0000000000
       850         7  PMPE      H12Y          -10.6989017378      -10.5115086859        3.0692157528  MEMB      7               0.0000000000
       851         7  PMPE      C313           -9.0964393516      -11.5364339145        0.9107562898  MEMB      7               0.0000000000
       852         7  PMPE      H13X           -9.4846292264      -12.5932951993        1.2628327874  MEMB      7               0.0000000000
       853         7  PMPE      H13Y           -8.8344064145      -10.9964537722        0.2603336787  MEMB      7               0.0000000000
       854         7  PMPE      C314          -10.4806271799      -11.4914291596       -1.1225737791  MEMB      7               0.0000000000
       855         7  PMPE      H14X          -11.2362534088      -10.7227478618       -1.0849709148  MEMB      7               0.0000000000
       856         7  PMPE      H14Y          -11.5922682531      -12.0692003223       -1.2264373514  MEMB      7               0.0000000000
       857         7  PMPE      C315          -10.6882921197      -12.2003016418       -2.1561545160  MEMB      7               0.0000000000
       858         7  PMPE      H15X          -10.3517843547      -13.0994801340       -1.6135944486  MEMB      7               0.0000000000
       859         7  PMPE      H15Y          -10.0240957498      -11.2771723594       -2.0787054725  MEMB      7               0.0000000000
       860         7  PMPE      C316          -12.1538882303      -12.1287529793       -2.8714274691  MEMB      7               0.0000000000
       861         7  PMPE      H16X          -11.8007962087      -12.1204682450       -3.7768310433  MEMB      7               0.0000000000
       862         7  PMPE      H16Y          -12.6768599943      -11.2168602123       -2.5921629907  MEMB      7               0.0000000000
       863         7  PMPE      H16Z          -12.7475613183      -12.9287472814       -2.3162755694  MEMB      7               0.0000000000
       864         8  PMPE      N             -12.3420025930        4.9613705715       18.5511651522  MEMB      8               0.0000000000
       865         8  PMPE      HN1           -12.7760921218        4.6368526072       17.6678085600  MEMB      8               0.0000000000
       866         8  PMPE      HN2           -12.7994999349        4.5810407100       19.4080152961  MEMB      8               0.0000000000
       867         8  PMPE      HN3           -12.4419411630        5.9919531100       18.4750043306  MEMB      8               0.0000000000
       868         8  PMPE      C12           -10.8832880066        4.5983632332       18.5357645814  MEMB      8               0.0000000000
       869         8  PMPE      H12A          -10.6163099463        4.7090464534       17.4628526071  MEMB      8               0.0000000000
       870         8  PMPE      H12B          -10.7561004155        3.5519606530       18.9043379969  MEMB      8               0.0000000000
       871         8  PMPE      C11           -10.0901785763        5.6044082676       19.3674346499  MEMB      8               0.0000000000
       872         8  PMPE      H11A           -9.1427635980        5.1424345912       19.6982430223  MEMB      8               0.0000000000
       873         8  PMPE      H11B          -10.6795803310        5.8778877694       20.2697859326  MEMB      8               0.0000000000
       874         8  PMPE      P              -8.6628085523        7.7405410536       19.1695049701  MEMB      8               0.0000000000
       875         8  PMPE      O13            -7.3306356735        7.2662727553       18.8255208222  MEMB      8               0.0000000000
       876         8  PMPE      O14            -8.9892175536        8.0320730785       20.5888192219  MEMB      8               0.0000000000
       877         8  PMPE      O11            -9.0365046084        8.9889482998       18.3331922859  MEMB      8               0.0000000000
       878         8  PMPE      O12            -9.7886815997        6.7475016382       18.5941279869  MEMB      8               0.0000000000
       879         8  PMPE      C1            -10.4080703589        9.2579645272       18.0375952692  MEMB      8               0.0000000000
       880         8  PMPE      HA            -10.4627402898       10.3555746759       18.0425283558  MEMB      8               0.0000000000
       881         8  PMPE      HB            -11.1407742344        8.9180577472       18.8043124607  MEMB      8               0.0000000000
       882         8  PMPE      C2            -10.8562746786        8.7315654372       16.6421079187  MEMB      8               0.0000000000
       883         8  PMPE      HS            -11.0420687130        7.6347007156       16.6890143845  MEMB      8               0.0000000000
       884         8  PMPE      O21            -9.8273141706        9.0362877031       15.7139580279  MEMB      8               0.0000000000
       885         8  PMPE      C21            -9.2378308172        8.0458361827       15.1005993783  MEMB      8               0.0000000000
       886         8  PMPE      O22            -9.4139615169        6.8512166781       15.2337756163  MEMB      8               0.0000000000
       887         8  PMPE      C22            -8.3246295855        8.6418036257       14.0644054400  MEMB      8               0.0000000000
       888         8  PMPE      H2R            -7.9138574747        9.6104092787       14.4540440819  MEMB      8               0.0000000000
       889         8  PMPE      H2S            -8.9193316007        8.7115377461       13.1261140351  MEMB      8               0.0000000000
       890         8  PMPE      C3            -12.1643781514        9.4099331899       16.1339948371  MEMB      8               0.0000000000
       891         8  PMPE      HX            -12.0193367960       10.5138924951       16.2579674270  MEMB      8               0.0000000000
       892         8  PMPE      HY            -13.0234738803        9.1900366926       16.8226273989  MEMB      8               0.0000000000
       893         8  PMPE      O31           -12.4731467176        9.1684327332       14.7138494739  MEMB      8               0.0000000000
       894         8  PMPE      C31           -12.5667950864        7.9175810879       14.2190463713  MEMB      8               0.0000000000
       895         8  PMPE      O32           -12.3945945338        6.9033957209       14.8622781363  MEMB      8               0.0000000000
       896         8  PMPE      C32           -12.8378288433        7.8810717658       12.6832876646  MEMB      8               0.0000000000
       897         8  PMPE      H2X           -13.9318641309        7.8168799966       12.4820171281  MEMB      8               0.0000000000
       898         8  PMPE      H2Y           -12.3776821285        6.9844577435       12.2160751088  MEMB      8               0.0000000000
       899         8  PMPE      C23            -7.1359513192        7.7513856859       13.7465392308  MEMB      8               0.0000000000
       900         8  PMPE      H3R            -7.4712921565        6.7125459639       13.5631486897  MEMB      8               0.0000000000
       901         8  PMPE      H3S            -6.5471655024        7.7904691067       14.6799377567  MEMB      8               0.0000000000
       902         8  PMPE      C24            -6.1468950956        8.2444434714       12.6865024813  MEMB      8               0.0000000000
       903         8  PMPE      H4R            -5.2583524540        7.5890251235       12.6401111350  MEMB      8               0.0000000000
       904         8  PMPE      H4S            -5.8462683719        9.2877993193       12.9331977308  MEMB      8               0.0000000000
       905         8  PMPE      C25            -6.6347034817        8.2457895671       11.2701177154  MEMB      8               0.0000000000
       906         8  PMPE      H5R            -5.8200949007        8.6555551459       10.6111364832  MEMB      8               0.0000000000
       907         8  PMPE      H5S            -7.5473879593        8.8410465291       11.4231437583  MEMB      8               0.0000000000
       908         8  PMPE      C26            -7.1625879026        6.9491331320       10.7336335147  MEMB      8               0.0000000000
       909         8  PMPE      H6R            -7.8246197332        6.5482217774       11.5205900702  MEMB      8               0.0000000000
       910         8  PMPE      H6S            -6.2795315436        6.3850892990       10.5931011040  MEMB      8               0.0000000000
       911         8  PMPE      C27            -7.8293029305        6.7619972432        9.3832259850  MEMB      8               0.0000000000
       912         8  PMPE      H7R            -8.8129001518        7.2113120663        9.6234632993  MEMB      8               0.0000000000
       913         8  PMPE      H7S            -8.1316288367        5.7853914075        9.1056485812  MEMB      8               0.0000000000
       914         8  PMPE      C28            -7.0556619053        7.2903425683        8.0985008658  MEMB      8               0.0000000000
       915         8  PMPE      H8R            -6.4731440450        8.2503586695        8.2478594279  MEMB      8               0.0000000000
       916         8  PMPE      H8S            -7.7775111621        7.4871848378        7.3202405022  MEMB      8               0.0000000000
       917         8  PMPE      C29            -6.1371523777        6.4924667597        7.5010995163  MEMB      8               0.0000000000
       918         8  PMPE      H9R            -6.3274342342        5.4501697254        7.6688919745  MEMB      8               0.0000000000
       919         8  PMPE      C217           -4.8057576855        7.1240298954        7.7689475652  MEMB      8               0.0000000000
       920         8  PMPE      H17R           -4.1655600273        6.4050567033        7.8828877212  MEMB      8               0.0000000000
       921         8  PMPE      H17S           -4.6252122483        8.0831797119        8.1866112163  MEMB      8               0.0000000000
       922         8  PMPE      C210           -5.3232795577        7.0598160018        6.3837313018  MEMB      8               0.0000000000
       923         8  PMPE      H10R           -4.9052302389        6.2844960661        5.7520664517  MEMB      8               0.0000000000
       924         8  PMPE      C211           -5.7611372250        8.3205338461        5.7842932144  MEMB      8               0.0000000000
       925         8  PMPE      H11R           -5.1829120013        8.8359785590        5.1057459596  MEMB      8               0.0000000000
       926         8  PMPE      H11S           -5.8810923517        9.1556643494        6.5148809453  MEMB      8               0.0000000000
       927         8  PMPE      C212           -6.7978106583        7.8560094993        4.7954419786  MEMB      8               0.0000000000
       928         8  PMPE      H12R           -7.1476328632        8.6879225855        4.2418815248  MEMB      8               0.0000000000
       929         8  PMPE      H12S           -7.6304966711        7.3194299459        5.2434491293  MEMB      8               0.0000000000
       930         8  PMPE      C213           -6.5042407707        7.4619379103        3.4394645919  MEMB      8               0.0000000000
       931         8  PMPE      H13R           -7.3645027538        7.0153730021        2.9468964454  MEMB      8               0.0000000000
       932         8  PMPE      H13S           -5.7512352358        6.6895638239        3.6557919471  MEMB      8               0.0000000000
       933         8  PMPE      C214           -6.0633537459        8.5492108939        2.5152896080  MEMB      8               0.0000000000
       934         8  PMPE      H14R           -5.4511047098        9.1681432823        3.1201749535  MEMB      8               0.0000000000
       935         8  PMPE      H14S           -6.2791477077        9.4200400911        2.0309759186  MEMB      8               0.0000000000
       936         8  PMPE      C215           -5.6181552165        7.8940089120        1.3515616243  MEMB      8               0.0000000000
       937         8  PMPE      H15R           -5.1125469222        6.9853425425        2.0033772332  MEMB      8               0.0000000000
       938         8  PMPE      H15S           -4.9770531830        8.6372368956        0.6948652486  MEMB      8               0.0000000000
       939         8  PMPE      C216           -6.1618285465        6.9931967037        0.3828188473  MEMB      8               0.0000000000
       940         8  PMPE      H16R           -6.6790389149        7.7679082721       -0.1219137638  MEMB      8               0.0000000000
       941         8  PMPE      H16S           -5.4779283829        6.5461019053       -0.4017573132  MEMB      8               0.0000000000
       942         8  PMPE      H16T           -6.5544277757        6.2601325992        1.0783430339  MEMB      8               0.0000000000
       943         8  PMPE      C33           -12.2146299703        9.1185904582       12.0257548668  MEMB      8               0.0000000000
       944         8  PMPE      H3X           -11.1500700069        9.1204434733       12.2928190887  MEMB      8               0.0000000000
       945         8  PMPE      H3Y           -12.5713874078       10.1059627742       12.4089196587  MEMB      8               0.0000000000
       946         8  PMPE      C34           -12.2595577249        9.1381753668       10.4858482832  MEMB      8               0.0000000000
       947         8  PMPE      H4X           -13.2413378023        9.0954886898        9.9737585717  MEMB      8               0.0000000000
       948         8  PMPE      H4Y           -11.8087709664        8.1984838568       10.1832897934  MEMB      8               0.0000000000
       949         8  PMPE      C35           -11.7128926437       10.5491214628       10.0179652037  MEMB      8               0.0000000000
       950         8  PMPE      H5X           -10.6758921025       10.2190861771       10.3613434858  MEMB      8               0.0000000000
       951         8  PMPE      H5Y           -11.9497475174       11.3787035012       10.6723252852  MEMB      8               0.0000000000
       952         8  PMPE      C36           -11.4378258334       10.8529039490        8.4213005959  MEMB      8               0.0000000000
       953         8  PMPE      H6X           -10.6920058842       11.6835563728        8.3876335323  MEMB      8               0.0000000000
       954         8  PMPE      H6Y           -12.2371003449       11.1617106887        7.9276220691  MEMB      8               0.0000000000
       955         8  PMPE      C37           -11.1693220003        9.2719924544        7.4839176808  MEMB      8               0.0000000000
       956         8  PMPE      H7X           -11.4766533119        8.4758106773        7.5822471970  MEMB      8               0.0000000000
       957         8  PMPE      H7Y           -10.1958005086        8.0634337561        8.5622329837  MEMB      8               0.0000000000
       958         8  PMPE      C38           -10.3664281729        9.3835619163        6.3002971634  MEMB      8               0.0000000000
       959         8  PMPE      H8X           -10.0049658932        8.4632007230        5.9647587646  MEMB      8               0.0000000000
       960         8  PMPE      H8Y            -7.6870354413       10.4872349847        7.2458027639  MEMB      8               0.0000000000
       961         8  PMPE      C39           -11.1868743853       10.7941855409        5.4171304879  MEMB      8               0.0000000000
       962         8  PMPE      H9X           -10.9580903412       11.9068468803        5.8494064947  MEMB      8               0.0000000000
       963         8  PMPE      H9Y           -12.0375457117       10.3884467618        5.4939405330  MEMB      8               0.0000000000
       964         8  PMPE      C310          -10.6990199870       10.9480274034        4.2162882662  MEMB      8               0.0000000000
       965         8  PMPE      H10X          -10.7676350246        9.8438535648        3.8961529721  MEMB      8               0.0000000000
       966         8  PMPE      H10Y           -9.7736905572       11.5473965789        4.5542766061  MEMB      8               0.0000000000
       967         8  PMPE      C311          -11.1221202749       11.8756281531        3.2096700670  MEMB      8               0.0000000000
       968         8  PMPE      H11X          -10.7154050746       12.8580689631        3.4944599824  MEMB      8               0.0000000000
       969         8  PMPE      H11Y          -12.1257384195       11.6762905213        3.3366316953  MEMB      8               0.0000000000
       970         8  PMPE      C312          -10.8088795497       11.6047863823        1.7717348487  MEMB      8               0.0000000000
       971         8  PMPE      H12X          -10.1560190310       10.8906618203        1.8352350283  MEMB      8               0.0000000000
       972         8  PMPE      H12Y          -10.1667429305       12.3234637534        1.2706547741  MEMB      8               0.0000000000
       973         8  PMPE      C313          -11.5366857415       10.5916381474        0.9818107001  MEMB      8               0.0000000000
       974         8  PMPE      H13X          -11.3633194136       10.9247266182       -0.0245656064  MEMB      8               0.0000000000
       975         8  PMPE      H13Y          -12.5359313967       10.8434247507        1.1981322062  MEMB      8               0.0000000000
       976         8  PMPE      C314          -11.2357808830        9.0842129369        0.9782179542  MEMB      8               0.0000000000
       977         8  PMPE      H14X          -11.8506006391        8.9131883763        0.0939228180  MEMB      8               0.0000000000
       978         8  PMPE      H14Y          -11.6218961048        8.5141828096        1.8487041168  MEMB      8               0.0000000000
       979         8  PMPE      C315           -9.8773935154        8.5147001570        0.5787664184  MEMB      8               0.0000000000
       980         8  PMPE      H15X           -9.4038774395        8.5504205929        1.5441014203  MEMB      8               0.0000000000
       981         8  PMPE      H15Y           -9.3520468907        9.1265767177       -0.1916625217  MEMB      8               0.0000000000
       982         8  PMPE      C316           -9.7680646309        7.0876183166        0.1341621015  MEMB      8               0.0000000000
       983         8  PMPE      H16X          -10.4896853612        6.9878150228       -0.6562799311  MEMB      8               0.0000000000
       984         8  PMPE      H16Y          -10.0450826889        6.3595138654        0.9199529198  MEMB      8               0.0000000000
       985         8  PMPE      H16Z           -8.8073090058        6.8702655862       -0.3723218750  MEMB      8               0.0000000000
       986         9  PMPE      N              10.2689598661        1.3285477776       20.6221662320  MEMB      9               0.0000000000
       987         9  PMPE      HN1            10.3319774128        2.1762845753       20.0138386091  MEMB      9               0.0000000000
       988         9  PMPE      HN2             9.5454098916        1.5033003090       21.3438454667  MEMB      9               0.0000000000
       989         9  PMPE      HN3            11.2075538153        1.2112581109       21.0681755848  MEMB      9               0.0000000000
       990         9  PMPE      C12            10.1263618946        0.0015240170       19.8979479659  MEMB      9               0.0000000000
       991         9  PMPE      H12A            9.0639214253       -0.2713892456       19.8347274340  MEMB      9               0.0000000000
       992         9  PMPE      H12B           10.5813724148       -0.7861978877       20.5302656004  MEMB      9               0.0000000000
       993         9  PMPE      C11            10.6963097227        0.0951130116       18.4803645405  MEMB      9               0.0000000000
       994         9  PMPE      H11A           10.0986511555        0.8826651132       17.9751648169  MEMB      9               0.0000000000
       995         9  PMPE      H11B           10.6153235109       -0.8840696157       17.9331071867  MEMB      9               0.0000000000
       996         9  PMPE      P              13.2072418829       -0.4684344808       18.6293577235  MEMB      9               0.0000000000
       997         9  PMPE      O13            13.0235337039       -1.4346965761       17.5475711609  MEMB      9               0.0000000000
       998         9  PMPE      O14            13.1961432906       -0.9520085534       20.0190266537  MEMB      9               0.0000000000
       999         9  PMPE      O11            14.5158111759        0.3276865138       18.4140143855  MEMB      9               0.0000000000
      1000         9  PMPE      O12            12.0255687218        0.5813924270       18.4799774699  MEMB      9               0.0000000000
      1001         9  PMPE      C1             14.8335151065        1.5267355398       19.1038492547  MEMB      9               0.0000000000
      1002         9  PMPE      HA             15.8357255706        1.3770399117       19.5611874731  MEMB      9               0.0000000000
      1003         9  PMPE      HB             14.1303895102        1.8142216869       19.9193330868  MEMB      9               0.0000000000
      1004         9  PMPE      C2             14.8804386709        2.7109851269       18.1126948845  MEMB      9               0.0000000000
      1005         9  PMPE      HS             15.0960806079        3.6257155268       18.7232635887  MEMB      9               0.0000000000
      1006         9  PMPE      O21            13.7002562078        2.8240652130       17.3700860609  MEMB      9               0.0000000000
      1007         9  PMPE      C21            13.5972547388        3.9032529904       16.6299148557  MEMB      9               0.0000000000
      1008         9  PMPE      O22            14.3562444473        4.8444526959       16.6570037569  MEMB      9               0.0000000000
      1009         9  PMPE      C22            12.3493408702        3.7160555442       15.7769555833  MEMB      9               0.0000000000
      1010         9  PMPE      H2R            11.5149998944        3.9054738749       16.4903280541  MEMB      9               0.0000000000
      1011         9  PMPE      H2S            12.3274473373        2.6929663822       15.3330258106  MEMB      9               0.0000000000
      1012         9  PMPE      C3             15.9767819940        2.4964278835       17.1155675552  MEMB      9               0.0000000000
      1013         9  PMPE      HX             16.5788908955        2.5096633001       18.0258433725  MEMB      9               0.0000000000
      1014         9  PMPE      HY             16.2260176719        3.3678450453       16.4780992303  MEMB      9               0.0000000000
      1015         9  PMPE      O31            16.0989152960        1.1907084514       16.5050019541  MEMB      9               0.0000000000
      1016         9  PMPE      C31            15.7007300519        1.0884530351       15.2595194100  MEMB      9               0.0000000000
      1017         9  PMPE      O32            15.5507540475        2.0384425460       14.5113260696  MEMB      9               0.0000000000
      1018         9  PMPE      C32            15.6107692298       -0.4027837244       14.9148499185  MEMB      9               0.0000000000
      1019         9  PMPE      H2X            14.9072492985       -0.9243811869       15.6006503174  MEMB      9               0.0000000000
      1020         9  PMPE      H2Y            16.6403412766       -0.7989826628       15.0666337762  MEMB      9               0.0000000000
      1021         9  PMPE      C23            12.2086558404        4.7229071384       14.6293967429  MEMB      9               0.0000000000
      1022         9  PMPE      H3R            12.0575029786        5.7068748826       15.1448249368  MEMB      9               0.0000000000
      1023         9  PMPE      H3S            11.2767214489        4.5041021823       14.0659941660  MEMB      9               0.0000000000
      1024         9  PMPE      C24            13.3887060591        4.7208466738       13.6268389408  MEMB      9               0.0000000000
      1025         9  PMPE      H4R            14.3644749165        4.5286352392       14.1527852534  MEMB      9               0.0000000000
      1026         9  PMPE      H4S            13.3568300715        5.7021285148       13.1016210762  MEMB      9               0.0000000000
      1027         9  PMPE      C25            13.3885563394        3.6938785768       12.4736550736  MEMB      9               0.0000000000
      1028         9  PMPE      H5R            13.1935431385        2.6983792319       12.9195983618  MEMB      9               0.0000000000
      1029         9  PMPE      H5S            14.4250712962        3.7372937606       12.0348378512  MEMB      9               0.0000000000
      1030         9  PMPE      C26            12.3776100241        3.9231817789       11.3288584061  MEMB      9               0.0000000000
      1031         9  PMPE      H6R            12.4863520255        4.9655942370       10.9818175751  MEMB      9               0.0000000000
      1032         9  PMPE      H6S            11.3416570414        3.8610636721       11.7246318900  MEMB      9               0.0000000000
      1033         9  PMPE      C27            12.6618709440        3.0085228200       10.1081792106  MEMB      9               0.0000000000
      1034         9  PMPE      H7R            12.5695034722        1.9517994486       10.4554759930  MEMB      9               0.0000000000
      1035         9  PMPE      H7S            13.7328857609        3.1588830665        9.8386358458  MEMB      9               0.0000000000
      1036         9  PMPE      C28            11.7752415097        3.2473190253        8.8618702760  MEMB      9               0.0000000000
      1037         9  PMPE      H8R            12.1368292363        2.5324886782        8.0743157892  MEMB      9               0.0000000000
      1038         9  PMPE      H8S            11.8456565402        4.2950348522        8.4839414104  MEMB      9               0.0000000000
      1039         9  PMPE      C29            10.3451344255        2.9453540687        9.2526500589  MEMB      9               0.0000000000
      1040         9  PMPE      H9R             9.8190781934        3.4006254722       10.0942703459  MEMB      9               0.0000000000
      1041         9  PMPE      C217           10.1660693413        1.4724682681        9.3191085108  MEMB      9               0.0000000000
      1042         9  PMPE      H17R            9.6827172396        1.2246036438       10.2426534023  MEMB      9               0.0000000000
      1043         9  PMPE      H17S           10.9321501112        0.8301985634        8.9013360584  MEMB      9               0.0000000000
      1044         9  PMPE      C210            9.3986777938        2.4289210608        8.2969761019  MEMB      9               0.0000000000
      1045         9  PMPE      H10R            8.2962632401        2.3906317223        8.4213133526  MEMB      9               0.0000000000
      1046         9  PMPE      C211            9.7732854037        2.2535222953        6.8675735348  MEMB      9               0.0000000000
      1047         9  PMPE      H11R            9.2162511431        1.4412722293        6.6819325661  MEMB      9               0.0000000000
      1048         9  PMPE      H11S           10.7176810363        1.7933029476        6.6797093586  MEMB      9               0.0000000000
      1049         9  PMPE      C212            9.3421343273        3.3375173581        5.8983184651  MEMB      9               0.0000000000
      1050         9  PMPE      H12R           10.0558993930        3.9904236909        6.3420157392  MEMB      9               0.0000000000
      1051         9  PMPE      H12S            8.2359202499        3.5261997257        5.9790561907  MEMB      9               0.0000000000
      1052         9  PMPE      C213            9.7800874267        3.2862961274        4.4354996087  MEMB      9               0.0000000000
      1053         9  PMPE      H13R            8.9253003339        2.7796226127        4.0859835272  MEMB      9               0.0000000000
      1054         9  PMPE      H13S           10.6256602359        2.6077447594        4.2418227890  MEMB      9               0.0000000000
      1055         9  PMPE      C214            9.9537595592        4.5228728611        3.6328548191  MEMB      9               0.0000000000
      1056         9  PMPE      H14R           10.8232788423        4.9287415063        4.1586820079  MEMB      9               0.0000000000
      1057         9  PMPE      H14S            9.0168696571        5.0949495411        3.7637199019  MEMB      9               0.0000000000
      1058         9  PMPE      C215           10.1509606873        4.3336585584        2.1165343742  MEMB      9               0.0000000000
      1059         9  PMPE      H15R            9.3376069449        3.7552801907        1.6578103413  MEMB      9               0.0000000000
      1060         9  PMPE      H15S           11.0153219056        3.6692276974        1.9490832519  MEMB      9               0.0000000000
      1061         9  PMPE      C216           10.2532052219        5.6203973569        1.2838136772  MEMB      9               0.0000000000
      1062         9  PMPE      H16R           10.4972855533        5.3342155281        0.2426852147  MEMB      9               0.0000000000
      1063         9  PMPE      H16S            9.3712567299        6.2913614719        1.3092416316  MEMB      9               0.0000000000
      1064         9  PMPE      H16T           11.0527440525        6.2723734168        1.5862727368  MEMB      9               0.0000000000
      1065         9  PMPE      C33            15.1995475638       -0.6769266517       13.4835626355  MEMB      9               0.0000000000
      1066         9  PMPE      H3X            15.4171324292        0.2016603851       12.8418235514  MEMB      9               0.0000000000
      1067         9  PMPE      H3Y            14.0953290887       -0.8270457088       13.3712116262  MEMB      9               0.0000000000
      1068         9  PMPE      C34            16.0313932251       -1.8163941672       12.9986643217  MEMB      9               0.0000000000
      1069         9  PMPE      H4X            15.6838365531       -2.7529777144       13.4921403198  MEMB      9               0.0000000000
      1070         9  PMPE      H4Y            17.1238793826       -1.7801017059       13.1025893941  MEMB      9               0.0000000000
      1071         9  PMPE      C35            15.6796461854       -1.7655850114       11.6238576505  MEMB      9               0.0000000000
      1072         9  PMPE      H5X            14.7992489002       -2.3152251142       11.6175898013  MEMB      9               0.0000000000
      1073         9  PMPE      H5Y            16.0820901200       -2.5804328587       11.3328969244  MEMB      9               0.0000000000
      1074         9  PMPE      C36            16.2093869430       -0.7511596985       10.6379647712  MEMB      9               0.0000000000
      1075         9  PMPE      H6X            16.7123850131       -1.1285375627        9.7236794556  MEMB      9               0.0000000000
      1076         9  PMPE      H6Y            17.1936817366       -0.6017445758       10.7018883163  MEMB      9               0.0000000000
      1077         9  PMPE      C37            15.1687580564        0.1868130237       10.0146611070  MEMB      9               0.0000000000
      1078         9  PMPE      H7X            15.3570616393        0.9678463428       10.7275416501  MEMB      9               0.0000000000
      1079         9  PMPE      H7Y            14.1423548647       -0.2442666176       10.0725089737  MEMB      9               0.0000000000
      1080         9  PMPE      C38            15.3440864503        0.5874919518        8.5120879211  MEMB      9               0.0000000000
      1081         9  PMPE      H8X            16.4242257979        0.6693733213        8.2827970372  MEMB      9               0.0000000000
      1082         9  PMPE      H8Y            14.8307870867        1.5486371537        8.3557056859  MEMB      9               0.0000000000
      1083         9  PMPE      C39            14.7645991414       -0.2787405409        7.3554181520  MEMB      9               0.0000000000
      1084         9  PMPE      H9X            15.3307807057       -1.1545058420        7.2357239266  MEMB      9               0.0000000000
      1085         9  PMPE      H9Y            15.1769756947        0.0318204239        6.4179958514  MEMB      9               0.0000000000
      1086         9  PMPE      C310           13.2658665387       -0.5341614747        7.2803766507  MEMB      9               0.0000000000
      1087         9  PMPE      H10X           12.7543480658        0.4176822914        7.3049455094  MEMB      9               0.0000000000
      1088         9  PMPE      H10Y           12.8522700458       -1.0026134555        8.1383310188  MEMB      9               0.0000000000
      1089         9  PMPE      C311           12.7497856281       -1.3143421980        6.0870524646  MEMB      9               0.0000000000
      1090         9  PMPE      H11X           11.7104665154       -1.6267812556        6.2526329761  MEMB      9               0.0000000000
      1091         9  PMPE      H11Y           13.2643164770       -2.2433304053        5.9714928459  MEMB      9               0.0000000000
      1092         9  PMPE      C312           12.8627056145       -0.6207483632        4.7685123361  MEMB      9               0.0000000000
      1093         9  PMPE      H12X           13.8954824227       -0.4470238727        4.4575615773  MEMB      9               0.0000000000
      1094         9  PMPE      H12Y           12.4158103573        0.3748991544        4.9183046339  MEMB      9               0.0000000000
      1095         9  PMPE      C313           12.0350058079       -1.3141042613        3.6925213335  MEMB      9               0.0000000000
      1096         9  PMPE      H13X           11.4536730594       -0.4886559948        3.2116793088  MEMB      9               0.0000000000
      1097         9  PMPE      H13Y           11.2874406989       -1.9726395212        4.1961321180  MEMB      9               0.0000000000
      1098         9  PMPE      C314           12.7867529182       -2.1155012290        2.6571547151  MEMB      9               0.0000000000
      1099         9  PMPE      H14X           13.4161407466       -2.8577484557        3.1639078342  MEMB      9               0.0000000000
      1100         9  PMPE      H14Y           13.5122835670       -1.4493240899        2.1649827099  MEMB      9               0.0000000000
      1101         9  PMPE      C315           11.8829591702       -2.6095656477        1.5203319408  MEMB      9               0.0000000000
      1102         9  PMPE      H15X           12.4723886032       -2.7930166525        0.5945499343  MEMB      9               0.0000000000
      1103         9  PMPE      H15Y           11.1321642994       -1.8251659766        1.2657344258  MEMB      9               0.0000000000
      1104         9  PMPE      C316           11.0894501269       -3.8652495179        1.7573669060  MEMB      9               0.0000000000
      1105         9  PMPE      H16X           10.3617738872       -3.8454579771        0.9186976102  MEMB      9               0.0000000000
      1106         9  PMPE      H16Y           10.5116238943       -3.8493268361        2.7001826040  MEMB      9               0.0000000000
      1107         9  PMPE      H16Z           11.7686137845       -4.7467722818        1.6569567745  MEMB      9               0.0000000000
      1108        10  PMPG      C13           -10.8284875969       -1.2553729816       20.5406574280  MEMB      10              0.0000000000
      1109        10  PMPG      H13A          -10.8393116683       -1.9076800705       19.6388784735  MEMB      10              0.0000000000
      1110        10  PMPG      H13B          -10.0651375927       -0.4702969555       20.3654276673  MEMB      10              0.0000000000
      1111        10  PMPG      OC3           -10.3469401173       -1.9962259308       21.6680891217  MEMB      10              0.0000000000
      1112        10  PMPG      HO3            -9.7481932595       -2.6892071483       21.3537202238  MEMB      10              0.0000000000
      1113        10  PMPG      C12           -12.2489938866       -0.6086422535       20.7732039680  MEMB      10              0.0000000000
      1114        10  PMPG      H12A          -12.1490583443        0.2291756803       21.4975605169  MEMB      10              0.0000000000
      1115        10  PMPG      OC2           -13.1786547832       -1.5409073093       21.3484807763  MEMB      10              0.0000000000
      1116        10  PMPG      HO2           -14.0447548445       -1.1219308305       21.2731153253  MEMB      10              0.0000000000
      1117        10  PMPG      C11           -12.8571237748        0.0070244914       19.4920367647  MEMB      10              0.0000000000
      1118        10  PMPG      H11A          -12.1425204392        0.6830484246       18.9860956554  MEMB      10              0.0000000000
      1119        10  PMPG      H11B          -13.7618567580        0.5993533176       19.7920830138  MEMB      10              0.0000000000
      1120        10  PMPG      P             -13.8293388050       -0.6775720130       17.2324488309  MEMB      10              0.0000000000
      1121        10  PMPG      O13           -14.9417734167        0.2342453918       17.5420212558  MEMB      10              0.0000000000
      1122        10  PMPG      O14           -14.0531763900       -1.9321002778       16.4928006966  MEMB      10              0.0000000000
      1123        10  PMPG      O11           -12.7787090905        0.2028707454       16.4256003299  MEMB      10              0.0000000000
      1124        10  PMPG      O12           -13.1445901429       -1.0329922118       18.5815286420  MEMB      10              0.0000000000
      1125        10  PMPG      C1            -11.3935309462       -0.1132990304       16.3951531479  MEMB      10              0.0000000000
      1126        10  PMPG      HA            -11.0199581131       -0.4640239273       17.3751305546  MEMB      10              0.0000000000
      1127        10  PMPG      HB            -10.8641731722        0.8371325637       16.2245597994  MEMB      10              0.0000000000
      1128        10  PMPG      C2            -10.9913976483       -1.2163173194       15.3670194022  MEMB      10              0.0000000000
      1129        10  PMPG      HS            -11.1721028574       -2.1847341761       15.9112705108  MEMB      10              0.0000000000
      1130        10  PMPG      O21            -9.5971351082       -1.0266365001       15.0326086087  MEMB      10              0.0000000000
      1131        10  PMPG      C21            -9.0915423801       -2.0673959377       14.3761578906  MEMB      10              0.0000000000
      1132        10  PMPG      O22            -9.4703146198       -3.2190053232       14.5277835380  MEMB      10              0.0000000000
      1133        10  PMPG      C22            -8.0626263245       -1.5754001026       13.3296092380  MEMB      10              0.0000000000
      1134        10  PMPG      H2R            -7.2545440506       -2.3142995176       13.2073558156  MEMB      10              0.0000000000
      1135        10  PMPG      H2S            -7.5531064133       -0.6630663464       13.6790252121  MEMB      10              0.0000000000
      1136        10  PMPG      C3            -11.8580232770       -1.2084682153       14.0527734108  MEMB      10              0.0000000000
      1137        10  PMPG      HX            -12.9018914346       -1.3739241157       14.3856841465  MEMB      10              0.0000000000
      1138        10  PMPG      HY            -11.5986207555       -2.0631710162       13.3800387517  MEMB      10              0.0000000000
      1139        10  PMPG      O31           -11.7824435982        0.0579649766       13.3415045595  MEMB      10              0.0000000000
      1140        10  PMPG      C31           -12.3946575326        0.0349572618       12.1737212730  MEMB      10              0.0000000000
      1141        10  PMPG      O32           -12.8571752842       -0.9696214595       11.6710306024  MEMB      10              0.0000000000
      1142        10  PMPG      C32           -12.4194669368        1.4206897467       11.5311991199  MEMB      10              0.0000000000
      1143        10  PMPG      H2X           -12.0164590217        2.1993221036       12.2189290679  MEMB      10              0.0000000000
      1144        10  PMPG      H2Y           -13.4798550747        1.6308280912       11.2925919492  MEMB      10              0.0000000000
      1145        10  PMPG      C23            -8.7206725124       -1.2451018542       11.9632642050  MEMB      10              0.0000000000
      1146        10  PMPG      H3R            -9.0617550446       -0.1864756605       12.0048199188  MEMB      10              0.0000000000
      1147        10  PMPG      H3S            -9.5871014246       -1.9328949288       11.7879358300  MEMB      10              0.0000000000
      1148        10  PMPG      C24            -7.8006867634       -1.3436948745       10.7387569141  MEMB      10              0.0000000000
      1149        10  PMPG      H4R            -7.3027350888       -2.3151765845       10.7812676612  MEMB      10              0.0000000000
      1150        10  PMPG      H4S            -6.9541184934       -0.6470007052       10.6857021452  MEMB      10              0.0000000000
      1151        10  PMPG      C25            -8.5830763068       -1.1950193427        9.4318073859  MEMB      10              0.0000000000
      1152        10  PMPG      H5R            -7.8701270596       -1.0804394580        8.5852401954  MEMB      10              0.0000000000
      1153        10  PMPG      H5S            -9.3500170224       -0.4269172268        9.4206502361  MEMB      10              0.0000000000
      1154        10  PMPG      C26            -9.4393759085       -2.3715623548        9.2600461608  MEMB      10              0.0000000000
      1155        10  PMPG      H6R           -10.1473946367       -2.7323417118       10.0204607304  MEMB      10              0.0000000000
      1156        10  PMPG      H6S            -8.5895119057       -2.9742787494        9.5180951419  MEMB      10              0.0000000000
      1157        10  PMPG      C27           -10.1710695679       -2.6130147799        7.9388274670  MEMB      10              0.0000000000
      1158        10  PMPG      H7R            -9.5297538059       -3.0687962157        7.2011523157  MEMB      10              0.0000000000
      1159        10  PMPG      H7S           -10.3947899993       -1.7101680569        7.3899315502  MEMB      10              0.0000000000
      1160        10  PMPG      C28           -11.4212843445       -3.4939467778        8.2336519707  MEMB      10              0.0000000000
      1161        10  PMPG      H8R           -11.9858401559       -2.9883888320        9.0312116651  MEMB      10              0.0000000000
      1162        10  PMPG      H8S           -11.1815034685       -4.4936010012        8.6390457608  MEMB      10              0.0000000000
      1163        10  PMPG      C29           -12.3042941190       -3.6759185598        7.0443936227  MEMB      10              0.0000000000
      1164        10  PMPG      H9R           -12.1030104063       -4.1215437411        6.0657119200  MEMB      10              0.0000000000
      1165        10  PMPG      C217          -13.7173563549       -3.7568022025        7.2189911959  MEMB      10              0.0000000000
      1166        10  PMPG      H17R          -14.4108019487       -4.0039377928        6.4283881464  MEMB      10              0.0000000000
      1167        10  PMPG      H17S          -14.0767267663       -3.7924548365        8.2290908411  MEMB      10              0.0000000000
      1168        10  PMPG      C210          -12.8801526418       -2.4196164073        6.7505889109  MEMB      10              0.0000000000
      1169        10  PMPG      H10R          -13.1256705292       -2.3236689214        5.6393730183  MEMB      10              0.0000000000
      1170        10  PMPG      C211          -12.8755428165       -0.9759422709        7.6419321304  MEMB      10              0.0000000000
      1171        10  PMPG      H11R          -12.8861013833       -1.1794063187        8.7493725556  MEMB      10              0.0000000000
      1172        10  PMPG      H11S          -12.0478981807       -0.4103090027        7.3207539503  MEMB      10              0.0000000000
      1173        10  PMPG      C212          -13.9716623801        0.2959781207        7.3925836615  MEMB      10              0.0000000000
      1174        10  PMPG      H12R          -13.9447918739        1.0029792383        8.0595681467  MEMB      10              0.0000000000
      1175        10  PMPG      H12S          -15.0363840269        0.1894755843        7.5209189839  MEMB      10              0.0000000000
      1176        10  PMPG      C213          -14.5729899053        0.7787701052        5.9669864849  MEMB      10              0.0000000000
      1177        10  PMPG      H13R          -15.7056046701        0.8868518609        5.8408933403  MEMB      10              0.0000000000
      1178        10  PMPG      H13S          -14.8861758830        0.1171440881        5.2175395357  MEMB      10              0.0000000000
      1179        10  PMPG      C214          -13.4626061698        0.8028696728        5.0667807779  MEMB      10              0.0000000000
      1180        10  PMPG      H14R          -12.8419904597       -0.0860317108        4.9763755117  MEMB      10              0.0000000000
      1181        10  PMPG      H14S          -12.9641687094        1.6092526902        5.5851031567  MEMB      10              0.0000000000
      1182        10  PMPG      C215          -13.8801330271        1.1373029696        3.7372806924  MEMB      10              0.0000000000
      1183        10  PMPG      H15R          -14.6776322619        1.7039076242        4.1059292746  MEMB      10              0.0000000000
      1184        10  PMPG      H15S          -14.6590909565        0.5338290533        3.2457946305  MEMB      10              0.0000000000
      1185        10  PMPG      C216          -12.8949114679        2.0042669665        2.9281556409  MEMB      10              0.0000000000
      1186        10  PMPG      H16R          -12.6727878826        2.9629439419        3.4370279640  MEMB      10              0.0000000000
      1187        10  PMPG      H16S          -13.2914763635        2.2454997339        1.9059137725  MEMB      10              0.0000000000
      1188        10  PMPG      H16T          -11.9607404296        1.4539032094        2.8615015392  MEMB      10              0.0000000000
      1189        10  PMPG      C33           -11.6074410851        1.3436727410       10.2251384133  MEMB      10              0.0000000000
      1190        10  PMPG      H3X           -11.8850128842        0.4407337348        9.6398154537  MEMB      10              0.0000000000
      1191        10  PMPG      H3Y           -10.5497950105        1.2022032255       10.4689317228  MEMB      10              0.0000000000
      1192        10  PMPG      C34           -11.6208457231        2.5848311843        9.3481156965  MEMB      10              0.0000000000
      1193        10  PMPG      H4X           -11.4271600292        3.5231444600        9.9347925384  MEMB      10              0.0000000000
      1194        10  PMPG      H4Y           -12.5955256342        2.5275705186        8.8391398885  MEMB      10              0.0000000000
      1195        10  PMPG      C35           -10.7247535232        2.5294595589        8.1537397813  MEMB      10              0.0000000000
      1196        10  PMPG      H5X           -11.0179176421        1.5432601909        7.7328020632  MEMB      10              0.0000000000
      1197        10  PMPG      H5Y            -9.7228014955        2.5615622758        8.5966688511  MEMB      10              0.0000000000
      1198        10  PMPG      C36           -10.8041681624        3.5747293657        7.0302627757  MEMB      10              0.0000000000
      1199        10  PMPG      H6X           -10.6832090021        4.6054285656        7.4285397335  MEMB      10              0.0000000000
      1200        10  PMPG      H6Y           -11.8324013232        3.4625942776        6.6116216531  MEMB      10              0.0000000000
      1201        10  PMPG      C37            -9.6967409211        3.3118490315        5.9703779337  MEMB      10              0.0000000000
      1202        10  PMPG      H7X            -8.6878829445        3.3270169882        6.4348490842  MEMB      10              0.0000000000
      1203        10  PMPG      H7Y            -9.6703471908        4.1036742575        5.1876575204  MEMB      10              0.0000000000
      1204        10  PMPG      C38            -9.8289343972        1.9247450257        5.3184659305  MEMB      10              0.0000000000
      1205        10  PMPG      H8X           -10.9079083017        1.8018846235        5.1062932920  MEMB      10              0.0000000000
      1206        10  PMPG      H8Y            -9.5642270630        1.1089942031        6.0307111315  MEMB      10              0.0000000000
      1207        10  PMPG      C39            -8.9926085234        1.7649545398        4.0332337694  MEMB      10              0.0000000000
      1208        10  PMPG      H9X            -8.0900694036        2.4117944926        4.0987291873  MEMB      10              0.0000000000
      1209        10  PMPG      H9Y            -9.5952519816        2.0611246210        3.1536174389  MEMB      10              0.0000000000
      1210        10  PMPG      C310           -8.5318822616        0.3347071608        3.7453282235  MEMB      10              0.0000000000
      1211        10  PMPG      H10X           -7.8759774316        0.0930074103        4.6078609831  MEMB      10              0.0000000000
      1212        10  PMPG      H10Y           -8.0120666843        0.2715661431        2.7509304206  MEMB      10              0.0000000000
      1213        10  PMPG      C311           -9.6851416328       -0.6349954510        3.8280878363  MEMB      10              0.0000000000
      1214        10  PMPG      H11X          -10.5148694232       -0.2916581683        3.1770195008  MEMB      10              0.0000000000
      1215        10  PMPG      H11Y          -10.0694792984       -0.6771401111        4.8623851878  MEMB      10              0.0000000000
      1216        10  PMPG      C312           -9.3807135912       -2.0528657745        3.5081601339  MEMB      10              0.0000000000
      1217        10  PMPG      H12X          -10.3881502516       -2.4703334224        3.7960655368  MEMB      10              0.0000000000
      1218        10  PMPG      H12Y           -8.6533441131       -2.6126333326        4.1497475169  MEMB      10              0.0000000000
      1219        10  PMPG      C313           -9.0269308991       -2.2063241030        2.0523005184  MEMB      10              0.0000000000
      1220        10  PMPG      H13X           -8.3088865793       -3.0095946751        1.9416329053  MEMB      10              0.0000000000
      1221        10  PMPG      H13Y           -8.3371812460       -1.5201654937        1.5980154536  MEMB      10              0.0000000000
      1222        10  PMPG      C314          -10.2540481182       -2.2266664465        1.1495684600  MEMB      10              0.0000000000
      1223        10  PMPG      H14X           -9.9412559068       -2.5727172834        0.1361498910  MEMB      10              0.0000000000
      1224        10  PMPG      H14Y          -10.4979323983       -1.1387799111        1.0849153929  MEMB      10              0.0000000000
      1225        10  PMPG      C315          -11.3987772797       -3.1624260390        1.6478840292  MEMB      10              0.0000000000
      1226        10  PMPG      H15X          -11.9176147311       -2.6976187056        2.4786286789  MEMB      10              0.0000000000
      1227        10  PMPG      H15Y          -11.1671712768       -4.1740228004        1.9208785072  MEMB      10              0.0000000000
      1228        10  PMPG      C316          -12.3534285069       -3.6502425835        0.7353122303  MEMB      10              0.0000000000
      1229        10  PMPG      H16X          -11.9129748263       -3.7579211765       -0.2679489515  MEMB      10              0.0000000000
      1230        10  PMPG      H16Y          -12.9730650827       -2.7664778125        0.9222311103  MEMB      10              0.0000000000
      1231        10  PMPG      H16Z          -13.0756434486       -4.4461310289        0.6850943469  MEMB      10              0.0000000000
      1232        11  POPE      N              -0.8057155593       16.6278553931       20.5469721809  MEMB      11              0.0000000000
      1233        11  POPE      HN1            -1.4859169471       16.5843578022       21.3388539250  MEMB      11              0.0000000000
      1234        11  POPE      HN2            -0.4902211360       17.6085419262       20.3775544582  MEMB      11              0.0000000000
      1235        11  POPE      HN3            -1.2197326029       16.2925390746       19.6546814384  MEMB      11              0.0000000000
      1236        11  POPE      C12             0.3057437722       15.6575525715       20.8894696268  MEMB      11              0.0000000000
      1237        11  POPE      H12A            0.1104173627       15.3925167398       21.9441285066  MEMB      11              0.0000000000
      1238        11  POPE      H12B            1.2594337788       16.2024027803       20.8649788172  MEMB      11              0.0000000000
      1239        11  POPE      C11             0.3273635061       14.4096523079       19.9742412202  MEMB      11              0.0000000000
      1240        11  POPE      H11A           -0.7274784064       14.0337122270       19.9388514629  MEMB      11              0.0000000000
      1241        11  POPE      H11B            0.9347019288       13.5767062951       20.4132069231  MEMB      11              0.0000000000
      1242        11  POPE      P               2.2489072257       14.1494850294       18.1259713298  MEMB      11              0.0000000000
      1243        11  POPE      O13             3.0427661853       13.7371949804       19.2894942802  MEMB      11              0.0000000000
      1244        11  POPE      O14             2.7924539378       15.1415397983       17.1788879874  MEMB      11              0.0000000000
      1245        11  POPE      O11             1.8064186521       12.8550707322       17.3651300740  MEMB      11              0.0000000000
      1246        11  POPE      O12             0.8246597262       14.7543911529       18.6694769326  MEMB      11              0.0000000000
      1247        11  POPE      C1              0.4656085895       12.8629109754       16.8927236849  MEMB      11              0.0000000000
      1248        11  POPE      HA              0.1359448216       13.8473191585       16.5359720544  MEMB      11              0.0000000000
      1249        11  POPE      HB             -0.2179324951       12.4115574715       17.6275120327  MEMB      11              0.0000000000
      1250        11  POPE      C2              0.4085437252       11.9968072869       15.7407042167  MEMB      11              0.0000000000
      1251        11  POPE      HS              0.9492297751       11.1001242067       16.1259046719  MEMB      11              0.0000000000
      1252        11  POPE      O21             1.2121133422       12.7679146017       14.7671458856  MEMB      11              0.0000000000
      1253        11  POPE      C21             1.1501056246       12.3575010555       13.6399170251  MEMB      11              0.0000000000
      1254        11  POPE      O22             0.3384518004       11.6061358939       13.3105252892  MEMB      11              0.0000000000
      1255        11  POPE      C22             2.0289669112       12.7159858186       12.5120715050  MEMB      11              0.0000000000
      1256        11  POPE      H2R             1.6988316658       13.6086092826       12.1759922122  MEMB      11              0.0000000000
      1257        11  POPE      H2S             1.4121865359       12.1410073852       11.8087350502  MEMB      11              0.0000000000
      1258        11  POPE      C3             -1.1070137019       11.5840114957       15.3043911958  MEMB      11              0.0000000000
      1259        11  POPE      HX             -1.5216443878       11.0056167483       16.1343303631  MEMB      11              0.0000000000
      1260        11  POPE      HY             -1.1736762530       10.8393003573       14.4499787458  MEMB      11              0.0000000000
      1261        11  POPE      O31            -1.8826362638       12.7252193439       15.0213600774  MEMB      11              0.0000000000
      1262        11  POPE      C31            -1.9780915714       12.8790334941       13.7512189506  MEMB      11              0.0000000000
      1263        11  POPE      O32            -2.2633258235       12.0829237813       12.8742148490  MEMB      11              0.0000000000
      1264        11  POPE      C32            -1.6689570610       14.2732968218       13.4424570647  MEMB      11              0.0000000000
      1265        11  POPE      H2X            -2.5153929055       14.4114613981       12.9626935264  MEMB      11              0.0000000000
      1266        11  POPE      H2Y            -1.5827396778       14.5975430996       12.4318628879  MEMB      11              0.0000000000
      1267        11  POPE      C23             3.6062233037       12.7832576446       12.2867057781  MEMB      11              0.0000000000
      1268        11  POPE      H3R             3.9815131360       12.7132112595       11.2297950721  MEMB      11              0.0000000000
      1269        11  POPE      H3S             4.2598044482       11.9790272495       12.0894404492  MEMB      11              0.0000000000
      1270        11  POPE      C24             4.2922586907       13.2802154074       13.4028618647  MEMB      11              0.0000000000
      1271        11  POPE      H4R             5.2152956929       12.7384584431       13.4320157292  MEMB      11              0.0000000000
      1272        11  POPE      H4S             3.7758741075       13.1746811944       14.3733773577  MEMB      11              0.0000000000
      1273        11  POPE      C25             4.2239927376       14.6587503719       13.0904552556  MEMB      11              0.0000000000
      1274        11  POPE      H5R             4.5206069226       15.1744292630       13.9869513234  MEMB      11              0.0000000000
      1275        11  POPE      H5S             3.2029843463       14.9178652415       12.8440269372  MEMB      11              0.0000000000
      1276        11  POPE      C26             5.1529688393       15.1348928213       12.1016030610  MEMB      11              0.0000000000
      1277        11  POPE      H6R             5.4706393142       14.3093253784       11.4500016605  MEMB      11              0.0000000000
      1278        11  POPE      H6S             5.9347153968       15.4577661053       12.8513292484  MEMB      11              0.0000000000
      1279        11  POPE      C27             5.1646161316       16.4935236712       11.7862970673  MEMB      11              0.0000000000
      1280        11  POPE      H7R             6.1707266598       16.8781103306       11.4837141044  MEMB      11              0.0000000000
      1281        11  POPE      H7S             5.0524740807       17.0455451177       12.7633307571  MEMB      11              0.0000000000
      1282        11  POPE      C28             4.1092186207       16.8139303835       10.7552537997  MEMB      11              0.0000000000
      1283        11  POPE      H8R             4.0155965931       17.8893644855       10.5460271283  MEMB      11              0.0000000000
      1284        11  POPE      H8S             3.1332152099       16.6107458674       11.2208592340  MEMB      11              0.0000000000
      1285        11  POPE      C29             4.5096678892       16.1870227893        9.4528134287  MEMB      11              0.0000000000
      1286        11  POPE      H91             5.4855927894       16.5269314775        9.0791643005  MEMB      11              0.0000000000
      1287        11  POPE      C210            3.8577080688       15.2568785613        8.7678903501  MEMB      11              0.0000000000
      1288        11  POPE      H101            4.1570606989       15.0356246798        7.7363006805  MEMB      11              0.0000000000
      1289        11  POPE      C211            2.5753231816       14.6599428918        9.1891692702  MEMB      11              0.0000000000
      1290        11  POPE      H11R            1.9874368800       15.2352689024        9.9135318639  MEMB      11              0.0000000000
      1291        11  POPE      H11S            2.8170735161       13.7701729438        9.7521171176  MEMB      11              0.0000000000
      1292        11  POPE      C212            1.6718448356       14.4441275232        8.0069845768  MEMB      11              0.0000000000
      1293        11  POPE      H12R            1.5495460631       15.1755084331        7.2507632365  MEMB      11              0.0000000000
      1294        11  POPE      H12S            0.6969367704       14.2264107548        8.5269533671  MEMB      11              0.0000000000
      1295        11  POPE      C213            2.2515531552       13.4681161840        7.0260512864  MEMB      11              0.0000000000
      1296        11  POPE      H13R            2.3044229497       12.8458242102        7.8167029650  MEMB      11              0.0000000000
      1297        11  POPE      H13S            3.2142522676       13.4169048441        6.5740547189  MEMB      11              0.0000000000
      1298        11  POPE      C214            1.4160417554       12.6540467185        6.1851668685  MEMB      11              0.0000000000
      1299        11  POPE      H14R            1.0856007451       13.2455296366        5.3911148407  MEMB      11              0.0000000000
      1300        11  POPE      H14S            0.4666422456       13.0032766768        6.6838263306  MEMB      11              0.0000000000
      1301        11  POPE      C215            1.6581314543       10.9979507038        5.7388405100  MEMB      11              0.0000000000
      1302        11  POPE      H15R            0.8640324150       10.2276678857        5.3412726199  MEMB      11              0.0000000000
      1303        11  POPE      H15S            2.0028817451       10.3195473620        6.4620785922  MEMB      11              0.0000000000
      1304        11  POPE      C216            2.2086331465       11.1456389535        4.5660157988  MEMB      11              0.0000000000
      1305        11  POPE      H16R            2.4408303118       10.0725662862        4.2322543352  MEMB      11              0.0000000000
      1306        11  POPE      H16S            3.0647744099       11.8255592525        4.8860973194  MEMB      11              0.0000000000
      1307        11  POPE      C217            1.4886932675       11.9196807185        3.5791793814  MEMB      11              0.0000000000
      1308        11  POPE      H17R            1.7268132464       13.0241377936        3.5479038780  MEMB      11              0.0000000000
      1309        11  POPE      H17S            0.4766582228       11.6726356735        3.3525844494  MEMB      11              0.0000000000
      1310        11  POPE      C218            1.7651427363       11.4711362053        2.4119443404  MEMB      11              0.0000000000
      1311        11  POPE      H18R            1.0917888299       12.0169153481        1.7313657575  MEMB      11              0.0000000000
      1312        11  POPE      H18S            1.7940252500       10.5048151801        1.8721960318  MEMB      11              0.0000000000
      1313        11  POPE      H18T            2.7557847416       12.0087610501        2.4410661254  MEMB      11              0.0000000000
      1314        11  POPE      C33            -1.3561155238       15.3167110630       14.4922373899  MEMB      11              0.0000000000
      1315        11  POPE      H3X            -1.3411364296       14.9479978964       15.5089771138  MEMB      11              0.0000000000
      1316        11  POPE      H3Y            -2.1863796358       15.6593174138       14.7982935031  MEMB      11              0.0000000000
      1317        11  POPE      C34            -1.2729676328       16.8096076355       14.0805317835  MEMB      11              0.0000000000
      1318        11  POPE      H4X            -0.2730681916       16.6134533625       13.7876597474  MEMB      11              0.0000000000
      1319        11  POPE      H4Y            -1.3145090970       17.5839554434       14.8959665434  MEMB      11              0.0000000000
      1320        11  POPE      C35            -2.1064281232       17.4332915356       12.9019926898  MEMB      11              0.0000000000
      1321        11  POPE      H5X            -3.1144553196       17.8384252374       13.2443046212  MEMB      11              0.0000000000
      1322        11  POPE      H5Y            -2.2788966785       16.7725037625       12.0472399604  MEMB      11              0.0000000000
      1323        11  POPE      C36            -1.5366264941       18.3712793237       12.0907896307  MEMB      11              0.0000000000
      1324        11  POPE      H6X            -1.1359582284       18.5310864483       13.1179622240  MEMB      11              0.0000000000
      1325        11  POPE      H6Y            -2.3573472913       19.0049425411       11.6412649448  MEMB      11              0.0000000000
      1326        11  POPE      C37            -0.2960562485       18.4405193212       11.3932659924  MEMB      11              0.0000000000
      1327        11  POPE      H7X            -0.5883756940       17.7401499109       10.6357777498  MEMB      11              0.0000000000
      1328        11  POPE      H7Y             0.5489544665       18.1623359965       12.0280028440  MEMB      11              0.0000000000
      1329        11  POPE      C38            -0.0294228863       19.7546553783       10.6902336580  MEMB      11              0.0000000000
      1330        11  POPE      H8X            -0.3217242682       20.7241972257       11.2661190008  MEMB      11              0.0000000000
      1331        11  POPE      H8Y            -0.9112133803       20.1009063050       10.5037932120  MEMB      11              0.0000000000
      1332        11  POPE      C39             1.3963086357       19.7947447691       10.0389413213  MEMB      11              0.0000000000
      1333        11  POPE      H9X             2.2345890257       19.9208984221       10.7772171375  MEMB      11              0.0000000000
      1334        11  POPE      H9Y             1.6141181016       20.6252683041        9.4773177323  MEMB      11              0.0000000000
      1335        11  POPE      C310            1.8039215507       18.6877221328        9.1183153303  MEMB      11              0.0000000000
      1336        11  POPE      H10X            1.2675228968       17.8280000072        9.5157675440  MEMB      11              0.0000000000
      1337        11  POPE      H10Y            2.8899970394       18.6125399949        9.0945858312  MEMB      11              0.0000000000
      1338        11  POPE      C311            1.7233829783       18.7192768207        7.6138548050  MEMB      11              0.0000000000
      1339        11  POPE      H11X            1.8641261918       19.6245364010        7.0159280583  MEMB      11              0.0000000000
      1340        11  POPE      H11Y            0.7803302976       18.4935014087        7.4630355885  MEMB      11              0.0000000000
      1341        11  POPE      C312            1.4677745613       17.4450539840        6.9253923575  MEMB      11              0.0000000000
      1342        11  POPE      H12X            0.7687532917       16.8048482928        7.6585960647  MEMB      11              0.0000000000
      1343        11  POPE      H12Y            2.4204869524       17.1178641423        7.1313117703  MEMB      11              0.0000000000
      1344        11  POPE      C313            1.1102327813       17.6990105705        5.3400228659  MEMB      11              0.0000000000
      1345        11  POPE      H13X            1.8519547128       18.3521767217        4.9825985995  MEMB      11              0.0000000000
      1346        11  POPE      H13Y            0.2489452994       18.4227679757        5.1155584418  MEMB      11              0.0000000000
      1347        11  POPE      C314            0.7062882244       16.3487538188        4.7208182353  MEMB      11              0.0000000000
      1348        11  POPE      H14X           -0.3449109378       15.9883997963        4.8825779298  MEMB      11              0.0000000000
      1349        11  POPE      H14Y            1.3131889418       15.6343117603        5.3036281901  MEMB      11              0.0000000000
      1350        11  POPE      C315            1.0702711610       16.1930003787        3.2739491714  MEMB      11              0.0000000000
      1351        11  POPE      H15X            0.6242356694       15.2340517718        2.9982894869  MEMB      11              0.0000000000
      1352        11  POPE      H15Y            2.1635494770       16.0474480796        3.2383716220  MEMB      11              0.0000000000
      1353        11  POPE      C316            0.6336308520       17.3115621790        2.3275303138  MEMB      11              0.0000000000
      1354        11  POPE      H16X            0.9964245537       17.0647481684        1.3045718889  MEMB      11              0.0000000000
      1355        11  POPE      H16Y            1.0990404007       18.2440477285        2.6719776283  MEMB      11              0.0000000000
      1356        11  POPE      H16Z           -0.4749565442       17.4685487284        2.2992234200  MEMB      11              0.0000000000
      1357        12  PYPG      C13            -4.5425332163       12.8413052613       20.0673162832  MEMB      12              0.0000000000
      1358        12  PYPG      H13A           -3.8538856377       11.9774520692       19.9505308922  MEMB      12              0.0000000000
      1359        12  PYPG      H13B           -4.2387500819       13.4051754565       20.9606941745  MEMB      12              0.0000000000
      1360        12  PYPG      OC3            -5.8250421304       12.3843968177       20.4729926400  MEMB      12              0.0000000000
      1361        12  PYPG      HO3            -6.4998852548       12.8939911583       20.0097519244  MEMB      12              0.0000000000
      1362        12  PYPG      C12            -4.5002862993       13.5764379299       18.6842235286  MEMB      12              0.0000000000
      1363        12  PYPG      H12A           -4.8756227757       12.8605587353       17.9043742853  MEMB      12              0.0000000000
      1364        12  PYPG      OC2            -3.1555080280       13.9424758871       18.3324154020  MEMB      12              0.0000000000
      1365        12  PYPG      HO2            -3.2563457079       14.4524045350       17.5190249791  MEMB      12              0.0000000000
      1366        12  PYPG      C11            -5.3945822842       14.8356955641       18.6092069296  MEMB      12              0.0000000000
      1367        12  PYPG      H11A           -5.3716413080       15.1903443387       17.5596766728  MEMB      12              0.0000000000
      1368        12  PYPG      H11B           -4.9932766670       15.6653527757       19.2365361504  MEMB      12              0.0000000000
      1369        12  PYPG      P              -7.9406619546       15.5051261323       18.8304256838  MEMB      12              0.0000000000
      1370        12  PYPG      O13            -8.1391423995       16.3124187386       20.0576475790  MEMB      12              0.0000000000
      1371        12  PYPG      O14            -9.1360509186       14.8343860990       18.2836982300  MEMB      12              0.0000000000
      1372        12  PYPG      O11            -7.3789793174       16.4537163274       17.7292466394  MEMB      12              0.0000000000
      1373        12  PYPG      O12            -6.7260147879       14.4875618121       18.9899045888  MEMB      12              0.0000000000
      1374        12  PYPG      C1             -7.9870802074       17.7171579656       17.5081683375  MEMB      12              0.0000000000
      1375        12  PYPG      HA             -7.5173086310       18.5190554224       18.1201851318  MEMB      12              0.0000000000
      1376        12  PYPG      HB             -9.0513986469       17.7670710633       17.8277135015  MEMB      12              0.0000000000
      1377        12  PYPG      C2             -7.8507889614       18.0198610256       16.0072541141  MEMB      12              0.0000000000
      1378        12  PYPG      HS             -8.4123856843       18.8869391723       15.7615432222  MEMB      12              0.0000000000
      1379        12  PYPG      O21            -8.2376119033       16.9158795911       15.1532415451  MEMB      12              0.0000000000
      1380        12  PYPG      C21            -9.5652358680       16.7875825194       15.0902840658  MEMB      12              0.0000000000
      1381        12  PYPG      O22           -10.3784674405       17.4480735600       15.7166859192  MEMB      12              0.0000000000
      1382        12  PYPG      C22            -9.9755910787       15.8127610553       13.9944613036  MEMB      12              0.0000000000
      1383        12  PYPG      H2R            -9.6808396886       16.1652780675       12.9808137021  MEMB      12              0.0000000000
      1384        12  PYPG      H2S           -11.0818890595       15.8374610464       14.0680581214  MEMB      12              0.0000000000
      1385        12  PYPG      C3             -6.4189918256       18.4714886355       15.6533418387  MEMB      12              0.0000000000
      1386        12  PYPG      HX             -6.2739265800       19.4644127053       16.1418473344  MEMB      12              0.0000000000
      1387        12  PYPG      HY             -6.3483110002       18.6482714377       14.5625728251  MEMB      12              0.0000000000
      1388        12  PYPG      O31            -5.4577113923       17.5221103663       16.0786812140  MEMB      12              0.0000000000
      1389        12  PYPG      C31            -4.2277074425       17.8652849164       15.9616750234  MEMB      12              0.0000000000
      1390        12  PYPG      O32            -3.7625829039       18.9160694714       15.5670185806  MEMB      12              0.0000000000
      1391        12  PYPG      C32            -3.5203122981       16.5690510660       16.2236693251  MEMB      12              0.0000000000
      1392        12  PYPG      H2X            -2.4896594217       16.8822373314       16.0584657537  MEMB      12              0.0000000000
      1393        12  PYPG      H2Y            -3.2739731977       16.3442560546       17.2464144264  MEMB      12              0.0000000000
      1394        12  PYPG      C23            -9.4953375115       14.3630636399       14.2388453673  MEMB      12              0.0000000000
      1395        12  PYPG      H3R            -9.2501471532       14.2995715849       15.3219390078  MEMB      12              0.0000000000
      1396        12  PYPG      H3S            -8.5841785232       14.2753073201       13.6129797034  MEMB      12              0.0000000000
      1397        12  PYPG      C24           -10.5227371554       13.2425008194       13.9301160568  MEMB      12              0.0000000000
      1398        12  PYPG      H4R           -10.9402384113       13.5290378204       12.9455722637  MEMB      12              0.0000000000
      1399        12  PYPG      H4S           -11.3077947619       13.2644005586       14.7207120701  MEMB      12              0.0000000000
      1400        12  PYPG      C25           -10.0644558616       11.7658495365       13.8688384898  MEMB      12              0.0000000000
      1401        12  PYPG      H5R           -10.9559051469       11.0954319697       13.7056252624  MEMB      12              0.0000000000
      1402        12  PYPG      H5S            -9.6562160205       11.4688305490       14.8506269024  MEMB      12              0.0000000000
      1403        12  PYPG      C26            -9.0203838552       11.5123891191       12.7903326315  MEMB      12              0.0000000000
      1404        12  PYPG      H6R            -8.7094800147       10.4813838511       12.8304816656  MEMB      12              0.0000000000
      1405        12  PYPG      H6S            -8.1277543249       12.1207240399       12.7919111798  MEMB      12              0.0000000000
      1406        12  PYPG      C27            -9.6347035908       11.6420436724       11.4976999697  MEMB      12              0.0000000000
      1407        12  PYPG      H7R           -10.3676555233       12.4224160308       11.2954355869  MEMB      12              0.0000000000
      1408        12  PYPG      H7S           -10.3486517757       10.8576821441       11.8170436268  MEMB      12              0.0000000000
      1409        12  PYPG      C28            -8.7758663060       11.5295014735       10.2314881150  MEMB      12              0.0000000000
      1410        12  PYPG      H8R            -8.1281374572       12.3592063988       10.1547629471  MEMB      12              0.0000000000
      1411        12  PYPG      H8S            -9.3163645134       11.7307613175        9.3807187761  MEMB      12              0.0000000000
      1412        12  PYPG      C29            -7.9595511443       10.4647160764        9.8318178751  MEMB      12              0.0000000000
      1413        12  PYPG      H9R            -7.1862238699       10.2262808031       10.4389628148  MEMB      12              0.0000000000
      1414        12  PYPG      C210           -8.0697908958        9.6781788096        8.9676686095  MEMB      12              0.0000000000
      1415        12  PYPG      H10R           -7.9573507318        8.7885253846        9.1270592904  MEMB      12              0.0000000000
      1416        12  PYPG      C211           -9.0306014290        9.6151494211        8.1125401011  MEMB      12              0.0000000000
      1417        12  PYPG      H11R          -10.1639171793        9.4746239934        9.0782149900  MEMB      12              0.0000000000
      1418        12  PYPG      H11S           -9.0807199746        8.4732020905        7.4898944513  MEMB      12              0.0000000000
      1419        12  PYPG      C212           -9.0272709173       11.0606683590        6.3492980313  MEMB      12              0.0000000000
      1420        12  PYPG      H12R           -9.0599437675       11.5003828375        7.2001550746  MEMB      12              0.0000000000
      1421        12  PYPG      H12S           -9.7182207648       11.2045866866        6.7111022169  MEMB      12              0.0000000000
      1422        12  PYPG      C213           -8.2507975983        9.9924870903        5.4268056047  MEMB      12              0.0000000000
      1423        12  PYPG      H13R           -8.7014522817        9.0408490951        4.9921350399  MEMB      12              0.0000000000
      1424        12  PYPG      H13S           -7.5509647046        9.5199305678        6.0966157455  MEMB      12              0.0000000000
      1425        12  PYPG      C214           -7.6610839144       10.8361404760        4.4303906119  MEMB      12              0.0000000000
      1426        12  PYPG      H14R           -7.7721381870       11.8502483693        4.8672023039  MEMB      12              0.0000000000
      1427        12  PYPG      H14S           -6.7199844366       10.5262421285        4.0784200595  MEMB      12              0.0000000000
      1428        12  PYPG      C215           -8.4114839999       10.7515302371        3.1481858502  MEMB      12              0.0000000000
      1429        12  PYPG      H15R           -8.8087328012       11.7933224564        3.0496544074  MEMB      12              0.0000000000
      1430        12  PYPG      H15S           -9.1975766686        9.9649744311        3.1570367721  MEMB      12              0.0000000000
      1431        12  PYPG      C216           -8.0757472472       10.4224937598        1.8492951943  MEMB      12              0.0000000000
      1432        12  PYPG      H16R           -7.9898236486        9.3433088615        2.0712021018  MEMB      12              0.0000000000
      1433        12  PYPG      H16S           -7.3140238965       11.0904874119        1.6515227468  MEMB      12              0.0000000000
      1434        12  PYPG      H16T           -8.7258610158       10.4116756398        0.9934166201  MEMB      12              0.0000000000
      1435        12  PYPG      C33            -4.1129237749       15.3048702460       15.3644018249  MEMB      12              0.0000000000
      1436        12  PYPG      H3X            -5.0717449088       14.9664959182       15.6124506695  MEMB      12              0.0000000000
      1437        12  PYPG      H3Y            -3.4019170751       14.4169705142       15.5634131149  MEMB      12              0.0000000000
      1438        12  PYPG      C34            -4.2211159389       15.5724024023       13.7940849711  MEMB      12              0.0000000000
      1439        12  PYPG      H4X            -3.3327813075       15.8611852498       13.3410382703  MEMB      12              0.0000000000
      1440        12  PYPG      H4Y            -4.4168355064       16.5711819542       13.4746073589  MEMB      12              0.0000000000
      1441        12  PYPG      C35            -4.5680626407       14.3906446880       12.8168202833  MEMB      12              0.0000000000
      1442        12  PYPG      H5X            -5.4964229073       14.2109319115       13.2327929099  MEMB      12              0.0000000000
      1443        12  PYPG      H5Y            -4.0588256232       13.4106075260       13.0093163871  MEMB      12              0.0000000000
      1444        12  PYPG      C36            -4.2828762926       14.8059775601       11.3433277013  MEMB      12              0.0000000000
      1445        12  PYPG      H6X            -3.2310560925       14.9222144423       10.9373404636  MEMB      12              0.0000000000
      1446        12  PYPG      H6Y            -4.7597617986       15.7967714403       11.3302913460  MEMB      12              0.0000000000
      1447        12  PYPG      C37            -4.9515278225       13.7947947666       10.4427002086  MEMB      12              0.0000000000
      1448        12  PYPG      H7X            -4.3240452515       12.8844797457       10.6094023573  MEMB      12              0.0000000000
      1449        12  PYPG      H7Y            -5.9742262650       13.6305994592       10.8477584207  MEMB      12              0.0000000000
      1450        12  PYPG      C38            -4.9299447708       14.0289629647        8.9183068161  MEMB      12              0.0000000000
      1451        12  PYPG      H8X            -5.2052016318       13.0418464649        8.4557043117  MEMB      12              0.0000000000
      1452        12  PYPG      H8Y            -3.8877807376       14.3104858593        8.6383170458  MEMB      12              0.0000000000
      1453        12  PYPG      C39            -5.9242225848       15.0768481070        8.3637434125  MEMB      12              0.0000000000
      1454        12  PYPG      H9X            -5.4493883532       16.0812004495        8.3611237580  MEMB      12              0.0000000000
      1455        12  PYPG      H9Y            -6.7875358642       15.0752384854        9.0648276751  MEMB      12              0.0000000000
      1456        12  PYPG      C310           -6.3105616090       14.8398039074        6.8879284555  MEMB      12              0.0000000000
      1457        12  PYPG      H10X           -7.2483542418       15.3268014162        6.5355457593  MEMB      12              0.0000000000
      1458        12  PYPG      H10Y           -6.4423778548       13.7460488997        6.7685153415  MEMB      12              0.0000000000
      1459        12  PYPG      C311           -5.2146928600       15.3790943219        5.9620010217  MEMB      12              0.0000000000
      1460        12  PYPG      H11X           -4.2406258940       15.1768661565        6.4682244454  MEMB      12              0.0000000000
      1461        12  PYPG      H11Y           -5.3621901039       16.4746095422        5.8209363625  MEMB      12              0.0000000000
      1462        12  PYPG      C312           -5.2491010321       14.7294335954        4.5826899156  MEMB      12              0.0000000000
      1463        12  PYPG      H12X           -5.0733449905       13.6532110042        4.7508141659  MEMB      12              0.0000000000
      1464        12  PYPG      H12Y           -6.2399656223       14.8630045485        4.1044270384  MEMB      12              0.0000000000
      1465        12  PYPG      C313           -4.2194223869       15.2849124611        3.6205071939  MEMB      12              0.0000000000
      1466        12  PYPG      H13X           -4.6115701352       16.2478549127        3.2322265533  MEMB      12              0.0000000000
      1467        12  PYPG      H13Y           -3.2466369524       15.3794122414        4.1537172968  MEMB      12              0.0000000000
      1468        12  PYPG      C314           -3.9217963253       14.4372865597        2.4149480560  MEMB      12              0.0000000000
      1469        12  PYPG      H14X           -3.6024623283       13.4815781692        2.8614033940  MEMB      12              0.0000000000
      1470        12  PYPG      H14Y           -4.8334700103       14.3947303197        1.7759892504  MEMB      12              0.0000000000
      1471        12  PYPG      C315           -2.8117405198       14.8998605794        1.4823106453  MEMB      12              0.0000000000
      1472        12  PYPG      H15X           -2.7612582376       14.1716292871        0.6537632543  MEMB      12              0.0000000000
      1473        12  PYPG      H15Y           -3.1483648881       15.8424728818        1.0289453165  MEMB      12              0.0000000000
      1474        12  PYPG      C316           -1.4222745846       15.0352696536        2.0284288856  MEMB      12              0.0000000000
      1475        12  PYPG      H16X           -0.8749893871       14.0767363012        2.1790489633  MEMB      12              0.0000000000
      1476        12  PYPG      H16Y           -1.3892077332       15.5981372286        2.9942080380  MEMB      12              0.0000000000
      1477        12  PYPG      H16Z           -0.7953344024       15.5953539443        1.2949321018  MEMB      12              0.0000000000
      1478        13  PMPG      C13            -1.7630623403      -17.1026578525       17.1286882973  MEMB      13              0.0000000000
      1479        13  PMPG      H13A           -1.3816242360      -16.0666964704       17.1856254845  MEMB      13              0.0000000000
      1480        13  PMPG      H13B           -1.0200726428      -17.7117132154       17.6855371506  MEMB      13              0.0000000000
      1481        13  PMPG      OC3            -1.8044243628      -17.5099965155       15.7585081027  MEMB      13              0.0000000000
      1482        13  PMPG      HO3            -1.4866877214      -16.7612469233       15.2600538523  MEMB      13              0.0000000000
      1483        13  PMPG      C12            -3.1655852983      -17.0661334207       17.7840456447  MEMB      13              0.0000000000
      1484        13  PMPG      H12A           -3.4370476779      -18.0899051840       18.1013013761  MEMB      13              0.0000000000
      1485        13  PMPG      OC2            -4.1345038937      -16.6088045499       16.8543434321  MEMB      13              0.0000000000
      1486        13  PMPG      HO2            -4.9233934537      -16.4564832725       17.3936953478  MEMB      13              0.0000000000
      1487        13  PMPG      C11            -3.2033581257      -16.1416811738       19.0183000682  MEMB      13              0.0000000000
      1488        13  PMPG      H11A           -2.7168061573      -15.1883770300       18.7139285547  MEMB      13              0.0000000000
      1489        13  PMPG      H11B           -2.6261382673      -16.6401545429       19.8317374469  MEMB      13              0.0000000000
      1490        13  PMPG      P              -4.7172522449      -15.0083775574       20.7670623630  MEMB      13              0.0000000000
      1491        13  PMPG      O13            -3.3966672157      -14.4722877124       21.1990107532  MEMB      13              0.0000000000
      1492        13  PMPG      O14            -5.4689252095      -15.8168553152       21.7350163863  MEMB      13              0.0000000000
      1493        13  PMPG      O11            -5.5460901472      -13.7673175683       20.3037579948  MEMB      13              0.0000000000
      1494        13  PMPG      O12            -4.5316611644      -15.8715907209       19.4462313599  MEMB      13              0.0000000000
      1495        13  PMPG      C1             -5.2310058412      -13.2082941257       19.0376806386  MEMB      13              0.0000000000
      1496        13  PMPG      HA             -4.1913348730      -13.3831905955       18.7128961695  MEMB      13              0.0000000000
      1497        13  PMPG      HB             -5.2590626899      -12.1212005007       19.1887792732  MEMB      13              0.0000000000
      1498        13  PMPG      C2             -6.1474478247      -13.7485118550       17.8992756014  MEMB      13              0.0000000000
      1499        13  PMPG      HS             -7.0931466771      -13.1006063762       18.1139178319  MEMB      13              0.0000000000
      1500        13  PMPG      O21            -6.5069467508      -15.0659310794       17.9851990948  MEMB      13              0.0000000000
      1501        13  PMPG      C21            -7.3929171558      -15.3752859578       17.0887752774  MEMB      13              0.0000000000
      1502        13  PMPG      O22            -8.0452912706      -14.6334240337       16.3666545715  MEMB      13              0.0000000000
      1503        13  PMPG      C22            -7.4444361477      -16.8598206131       17.1326469441  MEMB      13              0.0000000000
      1504        13  PMPG      H2R            -8.1112235417      -17.1148588738       17.9869304232  MEMB      13              0.0000000000
      1505        13  PMPG      H2S            -6.4394347799      -17.2023214868       17.4014716913  MEMB      13              0.0000000000
      1506        13  PMPG      C3             -5.5034806543      -13.6331748144       16.4078211925  MEMB      13              0.0000000000
      1507        13  PMPG      HX             -4.8780598751      -12.5976295947       16.4853706879  MEMB      13              0.0000000000
      1508        13  PMPG      HY             -6.3514942385      -13.7354214510       15.5844715651  MEMB      13              0.0000000000
      1509        13  PMPG      O31            -4.4099844378      -14.0567136545       15.8740823558  MEMB      13              0.0000000000
      1510        13  PMPG      C31            -3.7561266312      -13.3678548077       14.9296761932  MEMB      13              0.0000000000
      1511        13  PMPG      O32            -3.7154522141      -12.1766660016       14.6599569031  MEMB      13              0.0000000000
      1512        13  PMPG      C32            -2.8336064907      -14.3556861129       14.6384723844  MEMB      13              0.0000000000
      1513        13  PMPG      H2X            -2.6129627191      -14.9782987353       15.5058138735  MEMB      13              0.0000000000
      1514        13  PMPG      H2Y            -1.9305751048      -13.7920886891       14.6261070017  MEMB      13              0.0000000000
      1515        13  PMPG      C23            -7.9200580174      -17.4446594747       15.8004318093  MEMB      13              0.0000000000
      1516        13  PMPG      H3R            -8.9838623878      -17.1740555931       15.6544404099  MEMB      13              0.0000000000
      1517        13  PMPG      H3S            -7.8092076676      -18.5321616019       15.9442159629  MEMB      13              0.0000000000
      1518        13  PMPG      C24            -7.0968362760      -17.0061403606       14.5829635831  MEMB      13              0.0000000000
      1519        13  PMPG      H4R            -6.0139055965      -16.9328466395       14.8272117634  MEMB      13              0.0000000000
      1520        13  PMPG      H4S            -7.4731000764      -16.0013493662       14.3485271132  MEMB      13              0.0000000000
      1521        13  PMPG      C25            -7.3780188324      -17.7665935459       13.2925328179  MEMB      13              0.0000000000
      1522        13  PMPG      H5R            -7.1212235418      -17.2627162649       12.3804530427  MEMB      13              0.0000000000
      1523        13  PMPG      H5S            -8.3910125173      -18.2122621177       13.2794005847  MEMB      13              0.0000000000
      1524        13  PMPG      C26            -6.4155616412      -18.7359845014       12.8650514500  MEMB      13              0.0000000000
      1525        13  PMPG      H6R            -6.9022919756      -19.5503107108       12.2090901233  MEMB      13              0.0000000000
      1526        13  PMPG      H6S            -6.3197146674      -18.9213608410       13.9341080514  MEMB      13              0.0000000000
      1527        13  PMPG      C27            -5.0063630014      -18.5985067023       12.3265162927  MEMB      13              0.0000000000
      1528        13  PMPG      H7R            -4.5434650364      -17.8032885301       12.8662668405  MEMB      13              0.0000000000
      1529        13  PMPG      H7S            -5.2780759327      -18.5467378041       11.2693649598  MEMB      13              0.0000000000
      1530        13  PMPG      C28            -3.9088354792      -19.6291818200       12.4193195023  MEMB      13              0.0000000000
      1531        13  PMPG      H8R            -4.3468551030      -20.3328658340       11.7420245428  MEMB      13              0.0000000000
      1532        13  PMPG      H8S            -3.6369471778      -19.9652158159       13.4510091969  MEMB      13              0.0000000000
      1533        13  PMPG      C29            -2.6207196274      -19.4796762442       11.7708455831  MEMB      13              0.0000000000
      1534        13  PMPG      H9R            -1.9248451532      -18.9480714259       12.3967336507  MEMB      13              0.0000000000
      1535        13  PMPG      C217           -2.0909140093      -20.5383337301       10.8643036915  MEMB      13              0.0000000000
      1536        13  PMPG      H17R           -1.0105657108      -20.6341008863       10.8057506360  MEMB      13              0.0000000000
      1537        13  PMPG      H17S           -2.7709366268      -21.3586417705       10.6809843332  MEMB      13              0.0000000000
      1538        13  PMPG      C210           -2.5903410561      -19.2273276291       10.2944592960  MEMB      13              0.0000000000
      1539        13  PMPG      H10R           -1.7664863452      -18.5622539310       10.0326091325  MEMB      13              0.0000000000
      1540        13  PMPG      C211           -3.8033504620      -19.3586080950        9.3519756833  MEMB      13              0.0000000000
      1541        13  PMPG      H11R           -4.5272113891      -20.1425172758        9.6690488471  MEMB      13              0.0000000000
      1542        13  PMPG      H11S           -4.2978563131      -18.3556611941        9.2959769088  MEMB      13              0.0000000000
      1543        13  PMPG      C212           -3.4099217992      -19.7308644259        7.9187513610  MEMB      13              0.0000000000
      1544        13  PMPG      H12R           -3.0078152339      -20.7422037463        7.8747904899  MEMB      13              0.0000000000
      1545        13  PMPG      H12S           -2.5424924933      -19.1198108311        7.6029750769  MEMB      13              0.0000000000
      1546        13  PMPG      C213           -4.5546409997      -19.4377790334        6.9309506312  MEMB      13              0.0000000000
      1547        13  PMPG      H13R           -4.6275632124      -18.3473424511        7.0257227737  MEMB      13              0.0000000000
      1548        13  PMPG      H13S           -5.5665851433      -19.8726408326        7.1293920080  MEMB      13              0.0000000000
      1549        13  PMPG      C214           -4.2665492374      -19.7435144146        5.4722243749  MEMB      13              0.0000000000
      1550        13  PMPG      H14R           -5.1348802550      -19.5643954609        4.8226771416  MEMB      13              0.0000000000
      1551        13  PMPG      H14S           -4.3320085938      -20.8243604320        5.5214912746  MEMB      13              0.0000000000
      1552        13  PMPG      C215           -2.9777442144      -19.1255104110        4.8820361408  MEMB      13              0.0000000000
      1553        13  PMPG      H15R           -2.0942694834      -19.3840395863        5.5092741601  MEMB      13              0.0000000000
      1554        13  PMPG      H15S           -2.9896874276      -18.0169223630        4.9170027233  MEMB      13              0.0000000000
      1555        13  PMPG      C216           -2.7582896295      -19.5602485411        3.4324158243  MEMB      13              0.0000000000
      1556        13  PMPG      H16R           -1.7190479603      -19.3261807740        3.1104090194  MEMB      13              0.0000000000
      1557        13  PMPG      H16S           -3.4881276639      -19.1300224233        2.7152440304  MEMB      13              0.0000000000
      1558        13  PMPG      H16T           -2.9301333040      -20.6399205048        3.3409170984  MEMB      13              0.0000000000
      1559        13  PMPG      C33            -3.3613925859      -15.2742880246       13.5297616363  MEMB      13              0.0000000000
      1560        13  PMPG      H3X            -4.0428557180      -15.9906341987       14.0377500989  MEMB      13              0.0000000000
      1561        13  PMPG      H3Y            -2.4692314162      -15.7924285022       13.1503070988  MEMB      13              0.0000000000
      1562        13  PMPG      C34            -4.1377467857      -14.6648263995       12.3648524483  MEMB      13              0.0000000000
      1563        13  PMPG      H4X            -3.5654301504      -13.7940144850       11.9965414210  MEMB      13              0.0000000000
      1564        13  PMPG      H4Y            -5.1361897368      -14.3994627099       12.7496141580  MEMB      13              0.0000000000
      1565        13  PMPG      C35            -4.4401856945      -15.5218003932       11.1366658440  MEMB      13              0.0000000000
      1566        13  PMPG      H5X            -5.3733068717      -16.0949777388       11.3481147219  MEMB      13              0.0000000000
      1567        13  PMPG      H5Y            -3.6036888078      -16.1979145874       10.8648295048  MEMB      13              0.0000000000
      1568        13  PMPG      C36            -4.7013630922      -14.6195314067        9.9390977957  MEMB      13              0.0000000000
      1569        13  PMPG      H6X            -3.8099809698      -14.0099431430        9.7093582652  MEMB      13              0.0000000000
      1570        13  PMPG      H6Y            -5.5719521708      -13.9900916009       10.1842519131  MEMB      13              0.0000000000
      1571        13  PMPG      C37            -4.9346558468      -15.3489983873        8.6492019146  MEMB      13              0.0000000000
      1572        13  PMPG      H7X            -5.6759087996      -16.1010364958        8.9672484964  MEMB      13              0.0000000000
      1573        13  PMPG      H7Y            -4.0220508810      -15.8513549557        8.3128898130  MEMB      13              0.0000000000
      1574        13  PMPG      C38            -5.2932371558      -14.3722605698        7.5261041116  MEMB      13              0.0000000000
      1575        13  PMPG      H8X            -4.9160566905      -13.3971820042        7.7687783615  MEMB      13              0.0000000000
      1576        13  PMPG      H8Y            -6.3386188617      -14.0862688320        7.7424674808  MEMB      13              0.0000000000
      1577        13  PMPG      C39            -4.9872586955      -14.8491333773        6.0724561154  MEMB      13              0.0000000000
      1578        13  PMPG      H9X            -5.2865550771      -15.9012271227        5.8394786590  MEMB      13              0.0000000000
      1579        13  PMPG      H9Y            -3.8945650732      -14.8079890445        5.9254807578  MEMB      13              0.0000000000
      1580        13  PMPG      C310           -5.6752429111      -14.0177348434        5.0480995821  MEMB      13              0.0000000000
      1581        13  PMPG      H10X           -5.3828771885      -12.9579054630        5.0795022378  MEMB      13              0.0000000000
      1582        13  PMPG      H10Y           -6.7200786671      -14.0184318751        5.1563674872  MEMB      13              0.0000000000
      1583        13  PMPG      C311           -5.4590804299      -14.4782786989        3.7038218727  MEMB      13              0.0000000000
      1584        13  PMPG      H11X           -5.9580757198      -13.5870046295        3.2678994600  MEMB      13              0.0000000000
      1585        13  PMPG      H11Y           -5.9187089243      -15.4467343817        3.4356126579  MEMB      13              0.0000000000
      1586        13  PMPG      C312           -4.1288522034      -14.1456170421        3.2158389930  MEMB      13              0.0000000000
      1587        13  PMPG      H12X           -3.4616513388      -14.9589237075        3.4336788168  MEMB      13              0.0000000000
      1588        13  PMPG      H12Y           -3.7546434178      -13.1988920624        3.6381625631  MEMB      13              0.0000000000
      1589        13  PMPG      C313           -4.0930879852      -13.8582109294        1.8226469514  MEMB      13              0.0000000000
      1590        13  PMPG      H13X           -3.1094083801      -13.3321390732        1.8388762307  MEMB      13              0.0000000000
      1591        13  PMPG      H13Y           -4.5375152734      -13.0480107074        1.2191234397  MEMB      13              0.0000000000
      1592        13  PMPG      C314           -4.2784189935      -15.1516699581        1.0214205408  MEMB      13              0.0000000000
      1593        13  PMPG      H14X           -4.4055492056      -14.6446523461        0.0767508876  MEMB      13              0.0000000000
      1594        13  PMPG      H14Y           -5.0174331347      -15.2739675627        0.2311878306  MEMB      13              0.0000000000
      1595        13  PMPG      C315           -3.8787024973      -16.6556547869        1.3369364658  MEMB      13              0.0000000000
      1596        13  PMPG      H15X           -4.4238804342      -17.3074931283        0.5904863736  MEMB      13              0.0000000000
      1597        13  PMPG      H15Y           -4.1357790059      -16.7902070495        2.3486960204  MEMB      13              0.0000000000
      1598        13  PMPG      C316           -2.8721364347      -17.6083241832        1.1080084302  MEMB      13              0.0000000000
      1599        13  PMPG      H16X           -2.6101117916      -16.7351536604        1.4228333438  MEMB      13              0.0000000000
      1600        13  PMPG      H16Y           -2.4445823499      -17.3322985062        0.2739516998  MEMB      13              0.0000000000
      1601        13  PMPG      H16Z           -2.0817690160      -17.8651546208        1.7276155591  MEMB      13              0.0000000000
      1602        14  PMPE      N               6.4779974710      -17.4609930960       19.3647999073  MEMB      14              0.0000000000
      1603        14  PMPE      HN1             6.8383487239      -18.3726205331       19.7031293219  MEMB      14              0.0000000000
      1604        14  PMPE      HN2             5.6063033740      -17.6167065844       18.7937192204  MEMB      14              0.0000000000
      1605        14  PMPE      HN3             7.1819309610      -16.9522295103       18.7906559761  MEMB      14              0.0000000000
      1606        14  PMPE      C12             6.1893142565      -16.6560482437       20.5885246345  MEMB      14              0.0000000000
      1607        14  PMPE      H12A            7.1654934036      -16.3236784549       21.0235551405  MEMB      14              0.0000000000
      1608        14  PMPE      H12B            5.7349874555      -17.4172080636       21.2489626661  MEMB      14              0.0000000000
      1609        14  PMPE      C11             5.1320769295      -15.5581312186       20.3719240405  MEMB      14              0.0000000000
      1610        14  PMPE      H11A            5.6017011627      -14.6911517343       19.8457167964  MEMB      14              0.0000000000
      1611        14  PMPE      H11B            4.7910009197      -15.1312167119       21.3386510510  MEMB      14              0.0000000000
      1612        14  PMPE      P               3.5165502506      -15.5112940868       18.3201065894  MEMB      14              0.0000000000
      1613        14  PMPE      O13             2.9711780748      -14.1731338006       18.5478633331  MEMB      14              0.0000000000
      1614        14  PMPE      O14             2.7384027311      -16.4781845230       17.5276987924  MEMB      14              0.0000000000
      1615        14  PMPE      O11             4.9296367734      -15.3732842670       17.6275881564  MEMB      14              0.0000000000
      1616        14  PMPE      O12             3.9628204727      -16.0972934546       19.7323311666  MEMB      14              0.0000000000
      1617        14  PMPE      C1              4.9309808215      -14.6112089228       16.3884596961  MEMB      14              0.0000000000
      1618        14  PMPE      HA              5.7898018448      -13.9126959661       16.3902701121  MEMB      14              0.0000000000
      1619        14  PMPE      HB              4.1135146663      -13.9247501983       16.2325356533  MEMB      14              0.0000000000
      1620        14  PMPE      C2              4.8861960067      -15.5117385722       15.1878781995  MEMB      14              0.0000000000
      1621        14  PMPE      HS              5.4377372709      -14.9085738410       14.3730526560  MEMB      14              0.0000000000
      1622        14  PMPE      O21             3.7295205356      -16.1002790110       14.6445033247  MEMB      14              0.0000000000
      1623        14  PMPE      C21             3.1725803134      -15.5984944513       13.6556928264  MEMB      14              0.0000000000
      1624        14  PMPE      O22             3.3240743200      -14.4583043015       13.2448031859  MEMB      14              0.0000000000
      1625        14  PMPE      C22             2.4291474516      -16.7618691787       12.9871077175  MEMB      14              0.0000000000
      1626        14  PMPE      H2R             1.7182544760      -17.2799936406       13.6611817921  MEMB      14              0.0000000000
      1627        14  PMPE      H2S             3.1036177681      -17.4746924251       12.5102313624  MEMB      14              0.0000000000
      1628        14  PMPE      C3              5.5535628590      -16.6324727819       15.5188971328  MEMB      14              0.0000000000
      1629        14  PMPE      HX              5.3001304519      -17.5943215221       16.0217754979  MEMB      14              0.0000000000
      1630        14  PMPE      HY              6.3333229612      -16.2570357566       16.3875906080  MEMB      14              0.0000000000
      1631        14  PMPE      O31             5.7023676432      -17.0632934757       14.0771712828  MEMB      14              0.0000000000
      1632        14  PMPE      C31             6.4504886693      -16.6707148797       13.4684135354  MEMB      14              0.0000000000
      1633        14  PMPE      O32             7.1812877019      -15.6147198658       13.8539292576  MEMB      14              0.0000000000
      1634        14  PMPE      C32             6.8205217327      -18.2863082026       12.3013915742  MEMB      14              0.0000000000
      1635        14  PMPE      H2X             6.1016525830      -18.1020416858       11.6459275203  MEMB      14              0.0000000000
      1636        14  PMPE      H2Y             7.7106619806      -19.1126149545       12.4856148189  MEMB      14              0.0000000000
      1637        14  PMPE      C23             1.8560782860      -16.3405262712       11.6994407687  MEMB      14              0.0000000000
      1638        14  PMPE      H3R             2.3282707153      -15.5054810138       11.1557568456  MEMB      14              0.0000000000
      1639        14  PMPE      H3S             0.9455638407      -16.0821688682       12.0874933204  MEMB      14              0.0000000000
      1640        14  PMPE      C24             1.0564748660      -17.2763594686       10.8079018460  MEMB      14              0.0000000000
      1641        14  PMPE      H4R             0.1538792096      -16.8611830896       10.2633981890  MEMB      14              0.0000000000
      1642        14  PMPE      H4S             0.6073780474      -17.9769478486       11.5200990093  MEMB      14              0.0000000000
      1643        14  PMPE      C25             1.9855073251      -17.8136458145        9.7728827362  MEMB      14              0.0000000000
      1644        14  PMPE      H5R             1.3920347254      -18.5673286566        9.2299834572  MEMB      14              0.0000000000
      1645        14  PMPE      H5S             2.7517423425      -18.3820919200       10.3294007326  MEMB      14              0.0000000000
      1646        14  PMPE      C26             2.5887277510      -16.7745814154        8.7884878162  MEMB      14              0.0000000000
      1647        14  PMPE      H6R             3.2382443798      -17.3384360597        8.0936735829  MEMB      14              0.0000000000
      1648        14  PMPE      H6S             3.2632540874      -16.0138979574        9.2549025279  MEMB      14              0.0000000000
      1649        14  PMPE      C27             1.5234942575      -16.0663494747        7.9352483806  MEMB      14              0.0000000000
      1650        14  PMPE      H7R             1.1767034738      -15.1883560954        8.5110086025  MEMB      14              0.0000000000
      1651        14  PMPE      H7S             0.6467234831      -16.7301408960        7.7907763743  MEMB      14              0.0000000000
      1652        14  PMPE      C28             1.9845110271      -15.6082886986        6.5364376641  MEMB      14              0.0000000000
      1653        14  PMPE      H8R             1.2072072731      -14.9325269070        6.1665961555  MEMB      14              0.0000000000
      1654        14  PMPE      H8S             2.0594002054      -16.4743449411        5.8432350294  MEMB      14              0.0000000000
      1655        14  PMPE      C29             3.3442657750      -14.8977372065        6.5704193344  MEMB      14              0.0000000000
      1656        14  PMPE      H9R             4.1885681213      -15.4421015067        6.9603365008  MEMB      14              0.0000000000
      1657        14  PMPE      C217            3.3307854704      -13.4675528492        7.1216970832  MEMB      14              0.0000000000
      1658        14  PMPE      H17R            4.0769607567      -13.1227835419        7.7875713669  MEMB      14              0.0000000000
      1659        14  PMPE      H17S            2.4292396303      -13.5454589098        7.5592002377  MEMB      14              0.0000000000
      1660        14  PMPE      C210            3.6711864947      -13.7385189410        5.6846454923  MEMB      14              0.0000000000
      1661        14  PMPE      H10R            4.7161555725      -13.5281683291        5.5445504821  MEMB      14              0.0000000000
      1662        14  PMPE      C211            2.8454040088      -13.2743141468        4.5377413978  MEMB      14              0.0000000000
      1663        14  PMPE      H11R            3.0522137777      -12.1921789946        4.3349117993  MEMB      14              0.0000000000
      1664        14  PMPE      H11S            1.7761849385      -13.3901024249        4.8179343787  MEMB      14              0.0000000000
      1665        14  PMPE      C212            3.1290769941      -13.8903512497        3.1691324875  MEMB      14              0.0000000000
      1666        14  PMPE      H12R            2.5115262249      -13.6579393276        2.2715996839  MEMB      14              0.0000000000
      1667        14  PMPE      H12S            2.9405850642      -14.9409988417        3.3981304987  MEMB      14              0.0000000000
      1668        14  PMPE      C213            4.3863402615      -13.4402115697        2.4911711274  MEMB      14              0.0000000000
      1669        14  PMPE      H13R            5.1937104397      -13.6686232780        3.1981613449  MEMB      14              0.0000000000
      1670        14  PMPE      H13S            4.3688369958      -12.4041859717        2.1593279966  MEMB      14              0.0000000000
      1671        14  PMPE      C214            4.6848489194      -14.2694127104        1.3074455312  MEMB      14              0.0000000000
      1672        14  PMPE      H14R            4.2282891286      -15.0414991972        1.8689794751  MEMB      14              0.0000000000
      1673        14  PMPE      H14S            5.7647152951      -14.4691272620        1.1662231937  MEMB      14              0.0000000000
      1674        14  PMPE      C215            3.9998454945      -14.1745934748       -0.0221431675  MEMB      14              0.0000000000
      1675        14  PMPE      H15R            4.2046812735      -14.9500230814       -0.7785974271  MEMB      14              0.0000000000
      1676        14  PMPE      H15S            4.5893263079      -13.3322516949       -0.2829312465  MEMB      14              0.0000000000
      1677        14  PMPE      C216            2.5280067558      -13.9601850736       -0.1442621069  MEMB      14              0.0000000000
      1678        14  PMPE      H16R            2.0454696374      -14.8157779247        0.3544428478  MEMB      14              0.0000000000
      1679        14  PMPE      H16S            2.2389216649      -13.0038513204        0.2893044288  MEMB      14              0.0000000000
      1680        14  PMPE      H16T            2.1988803101      -13.8786467738       -1.1831782487  MEMB      14              0.0000000000
      1681        14  PMPE      C33             7.4173838010      -17.6990637534       10.7489128482  MEMB      14              0.0000000000
      1682        14  PMPE      H3X             8.3520533758      -17.6218609736       10.3372120949  MEMB      14              0.0000000000
      1683        14  PMPE      H3Y             8.2611231879      -18.0369521992       11.3891378954  MEMB      14              0.0000000000
      1684        14  PMPE      C34             7.5055880396      -16.1045313066        9.9625624364  MEMB      14              0.0000000000
      1685        14  PMPE      H4X             8.5130352612      -15.5966683237        9.6012429014  MEMB      14              0.0000000000
      1686        14  PMPE      H4Y             7.1013264804      -15.2146522186       10.5221959343  MEMB      14              0.0000000000
      1687        14  PMPE      C35             6.7763385343      -16.7183656624        8.9196150576  MEMB      14              0.0000000000
      1688        14  PMPE      H5X             6.1312834900      -16.0055576914        8.5795358435  MEMB      14              0.0000000000
      1689        14  PMPE      H5Y             6.2888623192      -17.7620226001        9.0639719169  MEMB      14              0.0000000000
      1690        14  PMPE      C36             7.6208966728      -16.9372060404        7.8081289186  MEMB      14              0.0000000000
      1691        14  PMPE      H6X             8.6852433945      -17.0388952038        8.3887286953  MEMB      14              0.0000000000
      1692        14  PMPE      H6Y             8.3673752833      -16.2882535330        7.4037561984  MEMB      14              0.0000000000
      1693        14  PMPE      C37             6.8375196828      -18.1885912339        6.9390970492  MEMB      14              0.0000000000
      1694        14  PMPE      H7X             6.4290039626      -19.1276766500        7.2818981668  MEMB      14              0.0000000000
      1695        14  PMPE      H7Y             7.4656166598      -19.0415931130        6.4847137135  MEMB      14              0.0000000000
      1696        14  PMPE      C38             5.9235867223      -17.5817115555        6.0117783623  MEMB      14              0.0000000000
      1697        14  PMPE      H8X             6.3505916813      -17.2242027689        5.0632171071  MEMB      14              0.0000000000
      1698        14  PMPE      H8Y             5.6559000954      -16.6950993476        6.5836500562  MEMB      14              0.0000000000
      1699        14  PMPE      C39             4.7088888354      -18.3647766627        5.7542657037  MEMB      14              0.0000000000
      1700        14  PMPE      H9X             4.0176663498      -17.5520425990        5.4675607106  MEMB      14              0.0000000000
      1701        14  PMPE      H9Y             4.2964475645      -18.9142622694        6.6207786531  MEMB      14              0.0000000000
      1702        14  PMPE      C310            4.9293136411      -19.1849485785        4.5600897516  MEMB      14              0.0000000000
      1703        14  PMPE      H10X            5.5057824406      -20.1105160999        4.8177885668  MEMB      14              0.0000000000
      1704        14  PMPE      H10Y            5.5440006675      -18.7224211266        3.7828207491  MEMB      14              0.0000000000
      1705        14  PMPE      C311            3.6085041444      -19.3385815838        3.8827057000  MEMB      14              0.0000000000
      1706        14  PMPE      H11X            2.8989155898      -20.0016935871        4.4392077468  MEMB      14              0.0000000000
      1707        14  PMPE      H11Y            4.0132095956      -19.7550243066        2.9314429840  MEMB      14              0.0000000000
      1708        14  PMPE      C312            2.7564499863      -18.2723672117        3.3632439504  MEMB      14              0.0000000000
      1709        14  PMPE      H12X            3.6197307386      -17.6822734663        3.1082622621  MEMB      14              0.0000000000
      1710        14  PMPE      H12Y            2.1828727695      -17.9358219656        4.2308029671  MEMB      14              0.0000000000
      1711        14  PMPE      C313            1.9379929795      -18.5993923081        2.1190197095  MEMB      14              0.0000000000
      1712        14  PMPE      H13X            1.1330092393      -19.3255105987        2.4155541328  MEMB      14              0.0000000000
      1713        14  PMPE      H13Y            2.6220173991      -19.0023031999        1.3470766818  MEMB      14              0.0000000000
      1714        14  PMPE      C314            1.1790553365      -17.4522682817        1.6212155523  MEMB      14              0.0000000000
      1715        14  PMPE      H14X            1.7088197978      -16.5258353032        1.4256160183  MEMB      14              0.0000000000
      1716        14  PMPE      H14Y            0.6888736658      -17.2628084886        2.5915212029  MEMB      14              0.0000000000
      1717        14  PMPE      C315            0.2616149249      -17.9426587485        0.5789761647  MEMB      14              0.0000000000
      1718        14  PMPE      H15X           -0.5643910637      -18.5157932162        1.0591178107  MEMB      14              0.0000000000
      1719        14  PMPE      H15Y            0.5604548496      -18.3709321287       -0.3571523536  MEMB      14              0.0000000000
      1720        14  PMPE      C316           -0.2371873232      -17.0334232285       -0.2973014116  MEMB      14              0.0000000000
      1721        14  PMPE      H16X           -0.7120744028      -16.6850937614        0.4223325957  MEMB      14              0.0000000000
      1722        14  PMPE      H16Y           -1.0882550993      -17.5883676329       -0.6869872759  MEMB      14              0.0000000000
      1723        14  PMPE      H16Z           -0.1144658931      -15.9949139344       -0.5703826656  MEMB      14              0.0000000000
      1724        15  POPE      N              14.9527663546        9.2736024383       21.9660860043  MEMB      15              0.0000000000
      1725        15  POPE      HN1            14.1232052383        9.1851513916       21.3370855066  MEMB      15              0.0000000000
      1726        15  POPE      HN2            15.0756462384        8.4375595645       22.5753660648  MEMB      15              0.0000000000
      1727        15  POPE      HN3            14.9269223381       10.1598635145       22.5176076338  MEMB      15              0.0000000000
      1728        15  POPE      C12            16.0724523093        9.4032780362       20.9897072622  MEMB      15              0.0000000000
      1729        15  POPE      H12A           17.0084877338        9.5007948186       21.5740965401  MEMB      15              0.0000000000
      1730        15  POPE      H12B           15.8785447969       10.2988624119       20.3477024708  MEMB      15              0.0000000000
      1731        15  POPE      C11            16.0641331887        8.2080160379       20.0511999693  MEMB      15              0.0000000000
      1732        15  POPE      H11A           16.1708659582        7.2363117708       20.5720855174  MEMB      15              0.0000000000
      1733        15  POPE      H11B           16.9422514824        8.3249100594       19.3787480292  MEMB      15              0.0000000000
      1734        15  POPE      P              14.7327162341        7.9697765854       17.7396338609  MEMB      15              0.0000000000
      1735        15  POPE      O13            13.3068249539        7.7566787496       17.4385920213  MEMB      15              0.0000000000
      1736        15  POPE      O14            15.7388747665        6.9486869655       17.3823581149  MEMB      15              0.0000000000
      1737        15  POPE      O11            15.1439785055        9.3801588430       17.1364795958  MEMB      15              0.0000000000
      1738        15  POPE      O12            14.8318880171        8.2046952608       19.3459606959  MEMB      15              0.0000000000
      1739        15  POPE      C1             14.3199055535       10.5400660416       17.3199360504  MEMB      15              0.0000000000
      1740        15  POPE      HA             13.9917779256       10.6690656897       18.3729222306  MEMB      15              0.0000000000
      1741        15  POPE      HB             13.4355409026       10.4126178551       16.7092893988  MEMB      15              0.0000000000
      1742        15  POPE      C2             14.9293204297       11.8757222627       16.7963231225  MEMB      15              0.0000000000
      1743        15  POPE      HS             14.2454291283       12.7148084918       17.0126565845  MEMB      15              0.0000000000
      1744        15  POPE      O21            15.2812581202       11.7352788480       15.3948087660  MEMB      15              0.0000000000
      1745        15  POPE      C21            14.5905530927       12.3078206469       14.4940251197  MEMB      15              0.0000000000
      1746        15  POPE      O22            13.6165350596       13.0189792335       14.6896508840  MEMB      15              0.0000000000
      1747        15  POPE      C22            15.2048015934       11.9441901413       13.1372032985  MEMB      15              0.0000000000
      1748        15  POPE      H2R            15.2639559162       10.8372235182       13.0100581485  MEMB      15              0.0000000000
      1749        15  POPE      H2S            16.1931202513       12.3994387644       13.0524369317  MEMB      15              0.0000000000
      1750        15  POPE      C3             16.1542413819       12.2166205334       17.6560071831  MEMB      15              0.0000000000
      1751        15  POPE      HX             15.8870863641       12.3741318649       18.6900480585  MEMB      15              0.0000000000
      1752        15  POPE      HY             16.6230904617       13.1946178994       17.3401913797  MEMB      15              0.0000000000
      1753        15  POPE      O31            16.9457010793       11.0594917281       17.7297106920  MEMB      15              0.0000000000
      1754        15  POPE      C31            17.4376526759       11.0404336795       16.5299760892  MEMB      15              0.0000000000
      1755        15  POPE      O32            17.6353091731       11.9647662649       15.8013534732  MEMB      15              0.0000000000
      1756        15  POPE      C32            18.2625011738       10.1563180905       16.6416946700  MEMB      15              0.0000000000
      1757        15  POPE      H2X            18.2611726903        9.5184364392       17.6841447236  MEMB      15              0.0000000000
      1758        15  POPE      H2Y            19.2037314541       10.6825629820       16.6874852024  MEMB      15              0.0000000000
      1759        15  POPE      C23            14.6191593290       12.6475477221       11.9653166710  MEMB      15              0.0000000000
      1760        15  POPE      H3R            15.2273281502       12.4861963084       11.0720683232  MEMB      15              0.0000000000
      1761        15  POPE      H3S            14.2809916750       13.7021429191       12.1484521139  MEMB      15              0.0000000000
      1762        15  POPE      C24            13.6322159669       11.7781396014       11.4538809521  MEMB      15              0.0000000000
      1763        15  POPE      H4R            12.9212025835       12.4245005388       11.9821222307  MEMB      15              0.0000000000
      1764        15  POPE      H4S            13.4970931079       10.7811194830       11.8425691502  MEMB      15              0.0000000000
      1765        15  POPE      C25            13.1944520085       11.6662135438        9.9873765626  MEMB      15              0.0000000000
      1766        15  POPE      H5R            13.5860669285       10.8552575285        9.5905953089  MEMB      15              0.0000000000
      1767        15  POPE      H5S            13.6760270779       12.6544961046       10.1043222305  MEMB      15              0.0000000000
      1768        15  POPE      C26            11.4506851776       11.6282423979        8.9881360388  MEMB      15              0.0000000000
      1769        15  POPE      H6R            10.4548373894       12.2733146831        9.4367916167  MEMB      15              0.0000000000
      1770        15  POPE      H6S            10.7681571345       11.0896760416        9.2615215931  MEMB      15              0.0000000000
      1771        15  POPE      C27            10.9063808058       11.8382094864        7.7050212795  MEMB      15              0.0000000000
      1772        15  POPE      H7R            11.2137717124       12.7702868535        7.2839080451  MEMB      15              0.0000000000
      1773        15  POPE      H7S             9.8506468933       12.1300373936        7.8319086761  MEMB      15              0.0000000000
      1774        15  POPE      C28            11.5703614557       10.7071882028        7.2309661769  MEMB      15              0.0000000000
      1775        15  POPE      H8R            12.6342282406       10.6236403269        7.4536447811  MEMB      15              0.0000000000
      1776        15  POPE      H8S            11.4014174665       10.9493703848        6.2421072704  MEMB      15              0.0000000000
      1777        15  POPE      C29            10.9800034957        9.4735242001        7.4670959409  MEMB      15              0.0000000000
      1778        15  POPE      H91            10.7605536252        9.3601978034        8.5098955836  MEMB      15              0.0000000000
      1779        15  POPE      C210           10.8369435013        8.5958528409        6.5106578951  MEMB      15              0.0000000000
      1780        15  POPE      H101           10.3492363639        7.6643214929        6.7266429499  MEMB      15              0.0000000000
      1781        15  POPE      C211           11.2685147600        8.7847213719        5.0920531247  MEMB      15              0.0000000000
      1782        15  POPE      H11R           11.1216772050        9.8318315439        4.7436049223  MEMB      15              0.0000000000
      1783        15  POPE      H11S           10.5519151691        8.3063682719        4.4547616432  MEMB      15              0.0000000000
      1784        15  POPE      C212           12.7179541466        8.2537916628        4.8553052501  MEMB      15              0.0000000000
      1785        15  POPE      H12R           12.6951459318        7.1711888597        5.0058448510  MEMB      15              0.0000000000
      1786        15  POPE      H12S           13.3560875783        8.7440004816        5.6544223754  MEMB      15              0.0000000000
      1787        15  POPE      C213           13.3578280711        8.6491217341        3.4942413639  MEMB      15              0.0000000000
      1788        15  POPE      H13R           14.4598536091        8.4894534980        3.5258937399  MEMB      15              0.0000000000
      1789        15  POPE      H13S           13.1751076464        9.7297007051        3.3384949528  MEMB      15              0.0000000000
      1790        15  POPE      C214           12.8625105532        7.9076346089        2.2576642856  MEMB      15              0.0000000000
      1791        15  POPE      H14R           11.8162237850        7.6468733992        2.3818258875  MEMB      15              0.0000000000
      1792        15  POPE      H14S           13.3901926753        6.9399200786        2.2093856582  MEMB      15              0.0000000000
      1793        15  POPE      C215           13.0172114710        8.6607840317        0.9413936790  MEMB      15              0.0000000000
      1794        15  POPE      H15R           14.0464595382        9.0988669354        0.9453819350  MEMB      15              0.0000000000
      1795        15  POPE      H15S           12.3635672152        9.5573623760        0.9356733740  MEMB      15              0.0000000000
      1796        15  POPE      C216           12.7294300827        7.7123477650       -0.2618920962  MEMB      15              0.0000000000
      1797        15  POPE      H16R           11.7610849448        7.2581231250       -0.2540458378  MEMB      15              0.0000000000
      1798        15  POPE      H16S           13.5346032404        6.9191245817       -0.3834552882  MEMB      15              0.0000000000
      1799        15  POPE      C217           12.5176793036        8.2808493789       -1.5304891409  MEMB      15              0.0000000000
      1800        15  POPE      H17R           11.7875240913        9.1617817988       -1.5626516757  MEMB      15              0.0000000000
      1801        15  POPE      H17S           12.4730829530        7.7033210911       -2.4419236682  MEMB      15              0.0000000000
      1802        15  POPE      C218           13.9387190125        8.4005954879       -1.4528178388  MEMB      15              0.0000000000
      1803        15  POPE      H18R           14.0947222095        8.6114397018       -2.6086885584  MEMB      15              0.0000000000
      1804        15  POPE      H18S           14.8375741526        8.1736684793       -1.9951203795  MEMB      15              0.0000000000
      1805        15  POPE      H18T           14.0955292136        9.4441289201       -0.7877171721  MEMB      15              0.0000000000
      1806        15  POPE      C33            18.6830001415        9.7185772652       15.1033572143  MEMB      15              0.0000000000
      1807        15  POPE      H3X            19.1012570936        8.5299871878       14.9832920220  MEMB      15              0.0000000000
      1808        15  POPE      H3Y            19.4301613625       10.5451267087       14.7330596937  MEMB      15              0.0000000000
      1809        15  POPE      C34            17.7488028611        9.0134272146       14.3098479338  MEMB      15              0.0000000000
      1810        15  POPE      H4X            17.3235465145        9.9756938054       14.3267903601  MEMB      15              0.0000000000
      1811        15  POPE      H4Y            17.4064440900        8.0857801615       14.8667268463  MEMB      15              0.0000000000
      1812        15  POPE      C35            17.9844484668        8.3231708497       13.0776157994  MEMB      15              0.0000000000
      1813        15  POPE      H5X            18.1396730384        7.2692785192       13.3621168890  MEMB      15              0.0000000000
      1814        15  POPE      H5Y            18.8683733913        8.4384026123       12.6006855787  MEMB      15              0.0000000000
      1815        15  POPE      C36            17.6150531092        8.9989295816       11.8621148007  MEMB      15              0.0000000000
      1816        15  POPE      H6X            18.0000122184       10.0562261108       11.8120986492  MEMB      15              0.0000000000
      1817        15  POPE      H6Y            16.5640847507        8.9242275083       12.0900050769  MEMB      15              0.0000000000
      1818        15  POPE      C37            18.1870344782        8.1333338132       10.7537964741  MEMB      15              0.0000000000
      1819        15  POPE      H7X            18.1865903057        7.0769570350       11.1264911836  MEMB      15              0.0000000000
      1820        15  POPE      H7Y            19.2644192632        8.4490817457       10.6650169710  MEMB      15              0.0000000000
      1821        15  POPE      C38            17.5600815603        8.5020764100        9.4502752124  MEMB      15              0.0000000000
      1822        15  POPE      H8X            18.2759903901        8.1731150250        8.6725915406  MEMB      15              0.0000000000
      1823        15  POPE      H8Y            17.5002496028        9.6184146139        9.4956246333  MEMB      15              0.0000000000
      1824        15  POPE      C39            16.1789514329        7.9733470432        9.0757295514  MEMB      15              0.0000000000
      1825        15  POPE      H9X            15.4170639236        8.6509253985        9.5289190549  MEMB      15              0.0000000000
      1826        15  POPE      H9Y            15.9578911196        6.9631019352        9.4680853026  MEMB      15              0.0000000000
      1827        15  POPE      C310           16.0405683515        7.9736127770        7.5431010792  MEMB      15              0.0000000000
      1828        15  POPE      H10X           16.2231520796        9.0161691523        7.1942279402  MEMB      15              0.0000000000
      1829        15  POPE      H10Y           14.9937741469        7.6935237204        7.3272190983  MEMB      15              0.0000000000
      1830        15  POPE      C311           16.9142606139        6.9769398447        6.7680305450  MEMB      15              0.0000000000
      1831        15  POPE      H11X           16.7768776742        5.9414840513        7.1618067061  MEMB      15              0.0000000000
      1832        15  POPE      H11Y           17.9893794920        7.2440206655        6.8449870932  MEMB      15              0.0000000000
      1833        15  POPE      C312           16.6127656623        6.9842805063        5.2774450110  MEMB      15              0.0000000000
      1834        15  POPE      H12X           16.9142867539        7.9476778391        4.8238777702  MEMB      15              0.0000000000
      1835        15  POPE      H12Y           15.5279632223        6.7435540340        5.1286961559  MEMB      15              0.0000000000
      1836        15  POPE      C313           17.5476201090        6.0246278617        4.6081629370  MEMB      15              0.0000000000
      1837        15  POPE      H13X           17.0345100868        5.0990656979        4.8824187114  MEMB      15              0.0000000000
      1838        15  POPE      H13Y           18.5239482776        5.9867924536        5.1480190692  MEMB      15              0.0000000000
      1839        15  POPE      C314           17.8053103690        6.3168932455        3.0984510650  MEMB      15              0.0000000000
      1840        15  POPE      H14X           18.6168956107        5.6713654606        2.6818314785  MEMB      15              0.0000000000
      1841        15  POPE      H14Y           18.0426052081        7.4027569118        3.0811622739  MEMB      15              0.0000000000
      1842        15  POPE      C315           16.6495940088        6.0950380820        2.1083818941  MEMB      15              0.0000000000
      1843        15  POPE      H15X           15.7497524376        6.4093059988        2.6791510468  MEMB      15              0.0000000000
      1844        15  POPE      H15Y           16.5816787018        5.0387450748        1.8054440676  MEMB      15              0.0000000000
      1845        15  POPE      C316           16.7640815284        6.6995297246        0.7030444392  MEMB      15              0.0000000000
      1846        15  POPE      H16X           15.9007194297        6.3461468115        0.0830404397  MEMB      15              0.0000000000
      1847        15  POPE      H16Y           17.7141899941        6.3826906684        0.1998322776  MEMB      15              0.0000000000
      1848        15  POPE      H16Z           16.7223137294        7.7979616980        0.7854898783  MEMB      15              0.0000000000
      1849        16  PMPE      N              10.9083635380       17.4659353955       20.3977002060  MEMB      16              0.0000000000
      1850        16  PMPE      HN1            11.4428630514       17.8684539106       19.6129217914  MEMB      16              0.0000000000
      1851        16  PMPE      HN2             9.9173262069       17.3254395859       20.0893324883  MEMB      16              0.0000000000
      1852        16  PMPE      HN3            10.9796511173       18.1388403314       21.1819550668  MEMB      16              0.0000000000
      1853        16  PMPE      C12            11.6017206531       16.1826152041       20.7630303726  MEMB      16              0.0000000000
      1854        16  PMPE      H12A           11.0071504275       15.7130463435       21.5466071251  MEMB      16              0.0000000000
      1855        16  PMPE      H12B           12.6120831046       16.4523201445       21.1333947090  MEMB      16              0.0000000000
      1856        16  PMPE      C11            11.6624846081       15.1614804427       19.6313152803  MEMB      16              0.0000000000
      1857        16  PMPE      H11A           12.4198781808       14.4093413805       19.9524025477  MEMB      16              0.0000000000
      1858        16  PMPE      H11B           12.0295748746       15.6271706975       18.6865902217  MEMB      16              0.0000000000
      1859        16  PMPE      P               9.4840149006       14.5332562441       18.2247660797  MEMB      16              0.0000000000
      1860        16  PMPE      O13             9.7418508214       15.8350809863       17.5864442244  MEMB      16              0.0000000000
      1861        16  PMPE      O14             8.0903099681       14.2244135771       18.5939924035  MEMB      16              0.0000000000
      1862        16  PMPE      O11            10.1397178118       13.4412082503       17.2990175327  MEMB      16              0.0000000000
      1863        16  PMPE      O12            10.3939257399       14.5210419556       19.5212921367  MEMB      16              0.0000000000
      1864        16  PMPE      C1             10.8466936251       12.3116633607       17.8004610287  MEMB      16              0.0000000000
      1865        16  PMPE      HA             10.3289911559       11.9118492816       18.7021221883  MEMB      16              0.0000000000
      1866        16  PMPE      HB             11.8634066738       12.5809697785       18.1169271156  MEMB      16              0.0000000000
      1867        16  PMPE      C2             10.9748710566       11.2199278600       16.7261768615  MEMB      16              0.0000000000
      1868        16  PMPE      HS             11.6680949224       10.3993390079       16.9586345653  MEMB      16              0.0000000000
      1869        16  PMPE      O21            11.3238625296       11.7077080169       15.4691660773  MEMB      16              0.0000000000
      1870        16  PMPE      C21            11.6662370299       10.8390269196       14.6010663931  MEMB      16              0.0000000000
      1871        16  PMPE      O22            12.0256821059        9.6828336344       14.6691447412  MEMB      16              0.0000000000
      1872        16  PMPE      C22            11.6555912563       11.5600947094       13.4515242662  MEMB      16              0.0000000000
      1873        16  PMPE      H2R            12.7473171620       11.5226939225       13.4192860060  MEMB      16              0.0000000000
      1874        16  PMPE      H2S            11.3524094675       12.6197599740       13.3868932946  MEMB      16              0.0000000000
      1875        16  PMPE      C3              9.6518274484       10.6012740612       16.6311078251  MEMB      16              0.0000000000
      1876        16  PMPE      HX              9.4208745587       10.2639475008       17.6705246492  MEMB      16              0.0000000000
      1877        16  PMPE      HY              9.8693088025        9.7226300529       15.9958442275  MEMB      16              0.0000000000
      1878        16  PMPE      O31             8.6185759710       11.5067430632       16.1434870730  MEMB      16              0.0000000000
      1879        16  PMPE      C31             8.2207294112       11.6167182300       14.8768414832  MEMB      16              0.0000000000
      1880        16  PMPE      O32             8.3873836128       10.8647300343       13.9408853223  MEMB      16              0.0000000000
      1881        16  PMPE      C32             7.5163607171       12.7771490454       14.5674120454  MEMB      16              0.0000000000
      1882        16  PMPE      H2X             7.7194376518       13.4567281861       15.3480824529  MEMB      16              0.0000000000
      1883        16  PMPE      H2Y             6.4529611648       12.7240137445       14.6277274970  MEMB      16              0.0000000000
      1884        16  PMPE      C23            10.9160236380       10.8490432936       12.4535597514  MEMB      16              0.0000000000
      1885        16  PMPE      H3R             9.9051065932       11.2211740180       12.1685321295  MEMB      16              0.0000000000
      1886        16  PMPE      H3S            11.1689299634        9.7617327461       12.2812965927  MEMB      16              0.0000000000
      1887        16  PMPE      C24            11.2012412495       11.2978808411       11.2896821526  MEMB      16              0.0000000000
      1888        16  PMPE      H4R            10.5931905584       10.4466394774       10.7378388939  MEMB      16              0.0000000000
      1889        16  PMPE      H4S            11.9332343464       10.3687234593       10.8327944227  MEMB      16              0.0000000000
      1890        16  PMPE      C25            11.5913450746       13.3220782255       10.7046865607  MEMB      16              0.0000000000
      1891        16  PMPE      H5R            12.4686792974       13.8361574035       11.0862231413  MEMB      16              0.0000000000
      1892        16  PMPE      H5S            10.6942872669       13.6405661494       11.0142040067  MEMB      16              0.0000000000
      1893        16  PMPE      C26            12.3646828401       13.9210294591        9.0567632353  MEMB      16              0.0000000000
      1894        16  PMPE      H6R            11.7291557192       14.4556565189        8.4193127976  MEMB      16              0.0000000000
      1895        16  PMPE      H6S            11.4680557918       13.6733109300        8.7367606100  MEMB      16              0.0000000000
      1896        16  PMPE      C27            13.5044207388       12.9837688064        8.0373482354  MEMB      16              0.0000000000
      1897        16  PMPE      H7R            13.7552861152       11.8397972764        8.0335995439  MEMB      16              0.0000000000
      1898        16  PMPE      H7S            14.3817117567       13.3093655674        8.6211078141  MEMB      16              0.0000000000
      1899        16  PMPE      C28            13.7140055406       13.0463627194        6.7149103287  MEMB      16              0.0000000000
      1900        16  PMPE      H8R            14.7901102561       12.6951157128        6.5959026480  MEMB      16              0.0000000000
      1901        16  PMPE      H8S            13.4855530265       14.1311820127        6.8761080424  MEMB      16              0.0000000000
      1902        16  PMPE      C29            12.8940147896       12.4587230885        5.7370868055  MEMB      16              0.0000000000
      1903        16  PMPE      H9R            11.8590919742       12.6742058788        5.6973338630  MEMB      16              0.0000000000
      1904        16  PMPE      C217           13.4574535286       11.1859252465        5.1997423071  MEMB      16              0.0000000000
      1905        16  PMPE      H17R           12.7610940188       10.4639685541        5.1431685188  MEMB      16              0.0000000000
      1906        16  PMPE      H17S           14.4758880514       10.9702005459        5.2341190072  MEMB      16              0.0000000000
      1907        16  PMPE      C210           13.0078336858       12.2579455918        4.3124169095  MEMB      16              0.0000000000
      1908        16  PMPE      H10R           12.0375734067       12.1059275662        3.8089906252  MEMB      16              0.0000000000
      1909        16  PMPE      C211           14.0422466487       12.8734159590        3.6295821438  MEMB      16              0.0000000000
      1910        16  PMPE      H11R           14.3591329091       12.3514589137        2.7264216641  MEMB      16              0.0000000000
      1911        16  PMPE      H11S           14.9093345535       12.9311246170        4.3307820978  MEMB      16              0.0000000000
      1912        16  PMPE      C212           13.4249291636       14.1425116812        3.2217131495  MEMB      16              0.0000000000
      1913        16  PMPE      H12R           13.0050668951       14.6967277892        4.1907642739  MEMB      16              0.0000000000
      1914        16  PMPE      H12S           12.5159044803       14.4299416687        2.7923074521  MEMB      16              0.0000000000
      1915        16  PMPE      C213           14.7129968047       14.7041220749        2.4972090816  MEMB      16              0.0000000000
      1916        16  PMPE      H13R           15.7365360011       15.4263464468        2.6164374997  MEMB      16              0.0000000000
      1917        16  PMPE      H13S           13.9785340231       15.4068158035        2.3660756206  MEMB      16              0.0000000000
      1918        16  PMPE      C214           15.4976690485       14.1838329982        1.6432784679  MEMB      16              0.0000000000
      1919        16  PMPE      H14R           14.2744046924       13.9656286266        1.1659676307  MEMB      16              0.0000000000
      1920        16  PMPE      H14S           15.7941540644       13.2825827389        1.6193349694  MEMB      16              0.0000000000
      1921        16  PMPE      C215           16.8275592084       15.3417894240        0.8364416656  MEMB      16              0.0000000000
      1922        16  PMPE      H15R           16.9474763062       14.8143721860       -0.0889877449  MEMB      16              0.0000000000
      1923        16  PMPE      H15S           17.2854642034       15.3449608379        1.6926965216  MEMB      16              0.0000000000
      1924        16  PMPE      C216           16.8410737264       17.0258281448        0.3429615815  MEMB      16              0.0000000000
      1925        16  PMPE      H16R           17.6261009248       17.6930119723        0.3414930629  MEMB      16              0.0000000000
      1926        16  PMPE      H16S           16.3090706208       17.3864430619       -0.5386983160  MEMB      16              0.0000000000
      1927        16  PMPE      H16T           16.2824202318       17.3859401402        1.1084279045  MEMB      16              0.0000000000
      1928        16  PMPE      C33             8.0673795507       12.9635632709       13.1568803731  MEMB      16              0.0000000000
      1929        16  PMPE      H3X             7.7193969029       12.2401993394       12.3660502379  MEMB      16              0.0000000000
      1930        16  PMPE      H3Y             9.1428572785       13.0664667792       13.1876984103  MEMB      16              0.0000000000
      1931        16  PMPE      C34             7.6284978076       14.2243161074       12.7260061862  MEMB      16              0.0000000000
      1932        16  PMPE      H4X             7.5970988622       14.9788110091       13.5445181069  MEMB      16              0.0000000000
      1933        16  PMPE      H4Y             6.6468250110       13.7248635795       12.6863452741  MEMB      16              0.0000000000
      1934        16  PMPE      C35             7.9910322023       14.9115207178       11.4078865196  MEMB      16              0.0000000000
      1935        16  PMPE      H5X             9.0689856804       14.9891511983       11.4845871754  MEMB      16              0.0000000000
      1936        16  PMPE      H5Y             7.6401477345       15.9519045616       11.3764332566  MEMB      16              0.0000000000
      1937        16  PMPE      C36             7.4543200938       14.2941858614       10.1066445250  MEMB      16              0.0000000000
      1938        16  PMPE      H6X             6.3789859951       14.4663636017        9.9754982249  MEMB      16              0.0000000000
      1939        16  PMPE      H6Y             7.5708636214       13.2083899605       10.1067591619  MEMB      16              0.0000000000
      1940        16  PMPE      C37             8.0085614034       14.9034498099        8.8305958281  MEMB      16              0.0000000000
      1941        16  PMPE      H7X             9.1092517714       14.7908841678        8.8468205225  MEMB      16              0.0000000000
      1942        16  PMPE      H7Y             7.7377027347       15.9828723290        8.9331635349  MEMB      16              0.0000000000
      1943        16  PMPE      C38             7.4575229843       14.2343095329        7.5457503238  MEMB      16              0.0000000000
      1944        16  PMPE      H8X             6.3846625293       14.5096864381        7.4309078625  MEMB      16              0.0000000000
      1945        16  PMPE      H8Y             7.5490129136       13.1191204028        7.5997841381  MEMB      16              0.0000000000
      1946        16  PMPE      C39             8.1276503465       14.7544987941        6.2654498797  MEMB      16              0.0000000000
      1947        16  PMPE      H9X             9.2123265511       14.5110092209        6.2583379978  MEMB      16              0.0000000000
      1948        16  PMPE      H9Y             7.9977547947       15.8577318403        6.3126020102  MEMB      16              0.0000000000
      1949        16  PMPE      C310            7.5325323602       14.1726619054        4.9704344127  MEMB      16              0.0000000000
      1950        16  PMPE      H10X            6.4406591889       14.3774503351        4.9017599991  MEMB      16              0.0000000000
      1951        16  PMPE      H10Y            7.6930442686       13.0699845775        5.0144663805  MEMB      16              0.0000000000
      1952        16  PMPE      C311            8.0671743951       14.7996912483        3.6691841706  MEMB      16              0.0000000000
      1953        16  PMPE      H11X            7.7433619562       15.8609194268        3.6618600322  MEMB      16              0.0000000000
      1954        16  PMPE      H11Y            7.5329217358       14.3472147926        2.8007586179  MEMB      16              0.0000000000
      1955        16  PMPE      C312            9.5847134189       14.6529460793        3.4492861353  MEMB      16              0.0000000000
      1956        16  PMPE      H12X            9.8080544559       13.5892125988        3.6484109277  MEMB      16              0.0000000000
      1957        16  PMPE      H12Y           10.2138217794       15.2122871713        4.1774114257  MEMB      16              0.0000000000
      1958        16  PMPE      C313           10.0643374753       15.0366797517        2.0340548101  MEMB      16              0.0000000000
      1959        16  PMPE      H13X           10.0020756853       14.2014244348        1.3106797267  MEMB      16              0.0000000000
      1960        16  PMPE      H13Y           11.1193897089       15.3460952471        2.0730064850  MEMB      16              0.0000000000
      1961        16  PMPE      C314            9.3660453229       16.2700427411        1.4877010335  MEMB      16              0.0000000000
      1962        16  PMPE      H14X            9.4387591142       17.0080109634        2.3212733321  MEMB      16              0.0000000000
      1963        16  PMPE      H14Y            8.2944368787       16.0020955190        1.3379836162  MEMB      16              0.0000000000
      1964        16  PMPE      C315           10.0711977320       16.9308842737        0.2865289706  MEMB      16              0.0000000000
      1965        16  PMPE      H15X           11.1463378480       17.0743158609        0.3194477243  MEMB      16              0.0000000000
      1966        16  PMPE      H15Y            9.5708748765       17.8374471624       -0.0629554193  MEMB      16              0.0000000000
      1967        16  PMPE      C316           10.0738893144       16.3192456524       -0.9366607586  MEMB      16              0.0000000000
      1968        16  PMPE      H16X            8.9350101910       16.2474609839       -1.1023300035  MEMB      16              0.0000000000
      1969        16  PMPE      H16Y           10.6415946723       15.3044487701       -0.9483482772  MEMB      16              0.0000000000
      1970        16  PMPE      H16Z           10.2940684023       16.8329737764       -1.9018950727  MEMB      16              0.0000000000
      1971        17  PMPE      N              19.3925209183       -3.6171752934       17.8261113615  MEMB      17              0.0000000000
      1972        17  PMPE      HN1            20.0411190268       -2.8035867808       17.8856426056  MEMB      17              0.0000000000
      1973        17  PMPE      HN2            19.9548535877       -4.4849439531       17.9621714615  MEMB      17              0.0000000000
      1974        17  PMPE      HN3            18.9328830345       -3.6163654688       16.8875225659  MEMB      17              0.0000000000
      1975        17  PMPE      C12            18.3612407105       -3.4197931989       18.9229549114  MEMB      17              0.0000000000
      1976        17  PMPE      H12A           17.9419869891       -2.4063098823       18.7716829833  MEMB      17              0.0000000000
      1977        17  PMPE      H12B           18.9005400989       -3.4147795078       19.8948027480  MEMB      17              0.0000000000
      1978        17  PMPE      C11            17.2165650745       -4.4637794056       18.9082407234  MEMB      17              0.0000000000
      1979        17  PMPE      H11A           16.7244216427       -4.4690736963       17.9026366028  MEMB      17              0.0000000000
      1980        17  PMPE      H11B           16.4643957791       -4.1360153400       19.6809694329  MEMB      17              0.0000000000
      1981        17  PMPE      P              16.8027253021       -7.0495784448       19.3360262324  MEMB      17              0.0000000000
      1982        17  PMPE      O13            15.4052488096       -6.6411387070       19.4811398452  MEMB      17              0.0000000000
      1983        17  PMPE      O14            17.3491795186       -7.9870438944       20.3371949792  MEMB      17              0.0000000000
      1984        17  PMPE      O11            16.9688459945       -7.7233766831       17.9235418153  MEMB      17              0.0000000000
      1985        17  PMPE      O12            17.7401128708       -5.7570438881       19.2131489284  MEMB      17              0.0000000000
      1986        17  PMPE      C1             18.1553390543       -7.7544058739       17.1493362114  MEMB      17              0.0000000000
      1987        17  PMPE      HA             18.3880325156       -8.8184064135       16.9558904772  MEMB      17              0.0000000000
      1988        17  PMPE      HB             19.0191118733       -7.3928210059       17.7413426888  MEMB      17              0.0000000000
      1989        17  PMPE      C2             17.9814526086       -6.9680039822       15.8003541441  MEMB      17              0.0000000000
      1990        17  PMPE      HS             17.5858733866       -5.9579688050       16.0766591046  MEMB      17              0.0000000000
      1991        17  PMPE      O21            17.1098238875       -7.6622646601       14.9015235324  MEMB      17              0.0000000000
      1992        17  PMPE      C21            15.8461123387       -7.3570213699       14.9890713560  MEMB      17              0.0000000000
      1993        17  PMPE      O22            15.3272423302       -6.6877171955       15.8476195793  MEMB      17              0.0000000000
      1994        17  PMPE      C22            15.1670317804       -7.8350055462       13.7415677046  MEMB      17              0.0000000000
      1995        17  PMPE      H2R            14.3873588794       -8.5631685282       13.9325802012  MEMB      17              0.0000000000
      1996        17  PMPE      H2S            15.7754064590       -8.5609684966       13.2289759689  MEMB      17              0.0000000000
      1997        17  PMPE      C3             19.3139606132       -6.7575638178       15.0120869148  MEMB      17              0.0000000000
      1998        17  PMPE      HX             19.8067590387       -7.7558108136       14.9262723661  MEMB      17              0.0000000000
      1999        17  PMPE      HY             19.9253661258       -6.0908429335       15.6515971983  MEMB      17              0.0000000000
      2000        17  PMPE      O31            19.1295212201       -6.2426088116       13.6671193765  MEMB      17              0.0000000000
      2001        17  PMPE      C31            19.0477493230       -4.9339591726       13.5117819543  MEMB      17              0.0000000000
      2002        17  PMPE      O32            19.3544183631       -4.0912189944       14.3429625186  MEMB      17              0.0000000000
      2003        17  PMPE      C32            18.4620826483       -4.6405754117       12.1330443107  MEMB      17              0.0000000000
      2004        17  PMPE      H2X            17.5081786410       -4.1043319212       12.2747441828  MEMB      17              0.0000000000
      2005        17  PMPE      H2Y            18.2712091506       -5.6005643858       11.6010537705  MEMB      17              0.0000000000
      2006        17  PMPE      C23            14.8075357081       -6.6250516296       12.8733452023  MEMB      17              0.0000000000
      2007        17  PMPE      H3R            15.7186833174       -5.9981818786       12.7672673306  MEMB      17              0.0000000000
      2008        17  PMPE      H3S            14.0164749688       -6.0013630597       13.3548700031  MEMB      17              0.0000000000
      2009        17  PMPE      C24            14.2680819565       -7.1149552412       11.5514238010  MEMB      17              0.0000000000
      2010        17  PMPE      H4R            13.7669708617       -6.2890502113       10.9913198146  MEMB      17              0.0000000000
      2011        17  PMPE      H4S            13.5316791814       -7.9029315048       11.8518034767  MEMB      17              0.0000000000
      2012        17  PMPE      C25            15.3003585837       -7.7598253097       10.6558448021  MEMB      17              0.0000000000
      2013        17  PMPE      H5R            15.8991294496       -8.5176509175       11.2064637780  MEMB      17              0.0000000000
      2014        17  PMPE      H5S            16.0092802132       -6.9779097830       10.3081525414  MEMB      17              0.0000000000
      2015        17  PMPE      C26            14.5594620010       -8.4088384604        9.4980597257  MEMB      17              0.0000000000
      2016        17  PMPE      H6R            13.8429480564       -7.6694390808        9.0734691009  MEMB      17              0.0000000000
      2017        17  PMPE      H6S            13.9500392924       -9.2531787556        9.8961741131  MEMB      17              0.0000000000
      2018        17  PMPE      C27            15.5737751445       -8.8913516566        8.4796662822  MEMB      17              0.0000000000
      2019        17  PMPE      H7R            15.1161919468       -9.5577463561        7.7202083457  MEMB      17              0.0000000000
      2020        17  PMPE      H7S            16.2718447944       -9.5459752139        9.0359264509  MEMB      17              0.0000000000
      2021        17  PMPE      C28            16.4257970299       -7.7622737123        7.8713319462  MEMB      17              0.0000000000
      2022        17  PMPE      H8R            17.2199655292       -7.4428815004        8.5921889559  MEMB      17              0.0000000000
      2023        17  PMPE      H8S            15.8103718623       -6.8810651896        7.6025622276  MEMB      17              0.0000000000
      2024        17  PMPE      C29            16.9850578655       -8.2779190517        6.5682294532  MEMB      17              0.0000000000
      2025        17  PMPE      H9R            16.2527069072       -8.6412240001        5.8161756806  MEMB      17              0.0000000000
      2026        17  PMPE      C217           18.3083682211       -8.9957370749        6.8260022938  MEMB      17              0.0000000000
      2027        17  PMPE      H17R           18.3601660387       -9.9808796298        6.3952920983  MEMB      17              0.0000000000
      2028        17  PMPE      H17S           18.6809872176       -8.7887547029        7.8190114393  MEMB      17              0.0000000000
      2029        17  PMPE      C210           18.2528141512       -7.7790498240        5.8913508547  MEMB      17              0.0000000000
      2030        17  PMPE      H10R           18.2506127056       -7.9741654671        4.8172291326  MEMB      17              0.0000000000
      2031        17  PMPE      C211           19.0784971442       -6.5329498077        6.2462430282  MEMB      17              0.0000000000
      2032        17  PMPE      H11R           19.9154609532       -6.3711108376        5.5201263938  MEMB      17              0.0000000000
      2033        17  PMPE      H11S           19.5996554068       -6.7015890140        7.2006131485  MEMB      17              0.0000000000
      2034        17  PMPE      C212           18.2020008436       -5.2863534961        6.4293974569  MEMB      17              0.0000000000
      2035        17  PMPE      H12R           18.8661622874       -4.4322256905        6.6959140153  MEMB      17              0.0000000000
      2036        17  PMPE      H12S           17.5466127480       -5.5255386288        7.2854479317  MEMB      17              0.0000000000
      2037        17  PMPE      C213           17.3146803748       -4.8392299201        5.2642610846  MEMB      17              0.0000000000
      2038        17  PMPE      H13R           16.3898296168       -4.3439869004        5.6608032280  MEMB      17              0.0000000000
      2039        17  PMPE      H13S           16.9742368825       -5.7029521807        4.6558936682  MEMB      17              0.0000000000
      2040        17  PMPE      C214           18.1475858432       -3.9183856918        4.3969142740  MEMB      17              0.0000000000
      2041        17  PMPE      H14R           18.7304591523       -3.2210871061        5.0391376293  MEMB      17              0.0000000000
      2042        17  PMPE      H14S           17.5098911926       -3.2855569289        3.7592166690  MEMB      17              0.0000000000
      2043        17  PMPE      C215           19.1106786228       -4.7395369238        3.5924550033  MEMB      17              0.0000000000
      2044        17  PMPE      H15R           18.6540235874       -5.5768274631        3.0593918115  MEMB      17              0.0000000000
      2045        17  PMPE      H15S           19.9784399148       -4.9691969381        4.2483279149  MEMB      17              0.0000000000
      2046        17  PMPE      C216           19.6658223126       -3.9600953634        2.6240191875  MEMB      17              0.0000000000
      2047        17  PMPE      H16R           20.3242831989       -4.4785192971        1.8517643050  MEMB      17              0.0000000000
      2048        17  PMPE      H16S           18.9692319797       -3.3244626950        1.9943320455  MEMB      17              0.0000000000
      2049        17  PMPE      H16T           20.3538418497       -3.2487612196        3.1946907332  MEMB      17              0.0000000000
      2050        17  PMPE      C33            19.4315554852       -3.7904819168       11.3052050779  MEMB      17              0.0000000000
      2051        17  PMPE      H3X            20.3899352154       -4.3403663955       11.4094241454  MEMB      17              0.0000000000
      2052        17  PMPE      H3Y            19.5636185789       -2.7605507181       11.7127805565  MEMB      17              0.0000000000
      2053        17  PMPE      C34            19.1089969680       -3.7878263416        9.8120017086  MEMB      17              0.0000000000
      2054        17  PMPE      H4X            18.8360190736       -4.8014826948        9.4733344727  MEMB      17              0.0000000000
      2055        17  PMPE      H4Y            19.9356812137       -3.3148849272        9.2414139536  MEMB      17              0.0000000000
      2056        17  PMPE      C35            17.9969273153       -2.8984758079        9.4451331965  MEMB      17              0.0000000000
      2057        17  PMPE      H5X            18.0013182901       -2.5389812330        8.4313641099  MEMB      17              0.0000000000
      2058        17  PMPE      H5Y            18.2534014751       -2.0245167215       10.0865079988  MEMB      17              0.0000000000
      2059        17  PMPE      C36            16.6076362237       -3.5404667346        9.5512599550  MEMB      17              0.0000000000
      2060        17  PMPE      H6X            16.6312719190       -3.9471172927       10.5624213657  MEMB      17              0.0000000000
      2061        17  PMPE      H6Y            16.5140214858       -4.5120585940        9.2157011915  MEMB      17              0.0000000000
      2062        17  PMPE      C37            15.3935002692       -2.7570639595        8.9670373711  MEMB      17              0.0000000000
      2063        17  PMPE      H7X            15.7824759169       -2.5931160095        8.0259473414  MEMB      17              0.0000000000
      2064        17  PMPE      H7Y            15.2597145542       -1.7263422543        8.9988637090  MEMB      17              0.0000000000
      2065        17  PMPE      C38            13.9828403176       -2.7552323964        9.3948290558  MEMB      17              0.0000000000
      2066        17  PMPE      H8X            13.4050589729       -1.8566703836        9.4839783457  MEMB      17              0.0000000000
      2067        17  PMPE      H8Y            13.8159815376       -2.8967434937       10.4122388147  MEMB      17              0.0000000000
      2068        17  PMPE      C39            13.3583174415       -3.9145988633        8.8779569476  MEMB      17              0.0000000000
      2069        17  PMPE      H9X            12.4069333768       -3.9055008777        9.4324739884  MEMB      17              0.0000000000
      2070        17  PMPE      H9Y            14.0463202619       -4.7291962625        9.1730200404  MEMB      17              0.0000000000
      2071        17  PMPE      C310           13.0134502763       -3.9060344045        7.4433085658  MEMB      17              0.0000000000
      2072        17  PMPE      H10X           13.8962811847       -3.7258973819        6.7672465598  MEMB      17              0.0000000000
      2073        17  PMPE      H10Y           12.1794154916       -3.1700749708        7.3383407243  MEMB      17              0.0000000000
      2074        17  PMPE      C311           12.4029093868       -5.1913825062        7.0113195782  MEMB      17              0.0000000000
      2075        17  PMPE      H11X           11.5559588975       -5.4633297762        7.6772196382  MEMB      17              0.0000000000
      2076        17  PMPE      H11Y           13.2045322065       -5.9419060742        7.1773530111  MEMB      17              0.0000000000
      2077        17  PMPE      C312           11.8662110519       -5.1034046420        5.5761796902  MEMB      17              0.0000000000
      2078        17  PMPE      H12X           11.2163404492       -4.2001204438        5.3837412609  MEMB      17              0.0000000000
      2079        17  PMPE      H12Y           11.2699437485       -6.0369190637        5.4910853699  MEMB      17              0.0000000000
      2080        17  PMPE      C313           12.9433421319       -5.0919855755        4.4807092781  MEMB      17              0.0000000000
      2081        17  PMPE      H13X           13.4808888691       -4.1322494978        4.5009180372  MEMB      17              0.0000000000
      2082        17  PMPE      H13Y           12.5036207696       -5.1559999356        3.4734078969  MEMB      17              0.0000000000
      2083        17  PMPE      C314           14.0071763926       -6.1825563116        4.5122827213  MEMB      17              0.0000000000
      2084        17  PMPE      H14X           13.5928002050       -7.1478486677        4.8744707056  MEMB      17              0.0000000000
      2085        17  PMPE      H14Y           14.7726125630       -5.8559596183        5.2426004540  MEMB      17              0.0000000000
      2086        17  PMPE      C315           14.6208167502       -6.3851425554        3.1157003613  MEMB      17              0.0000000000
      2087        17  PMPE      H15X           15.3308560642       -5.5545727486        2.8591978649  MEMB      17              0.0000000000
      2088        17  PMPE      H15Y           13.8026886893       -6.3313737635        2.3599533640  MEMB      17              0.0000000000
      2089        17  PMPE      C316           15.2866266817       -7.7528139195        2.9571375908  MEMB      17              0.0000000000
      2090        17  PMPE      H16X           14.5846102473       -8.6136112728        3.0167619892  MEMB      17              0.0000000000
      2091        17  PMPE      H16Y           16.1010236496       -7.8990000497        3.6909074720  MEMB      17              0.0000000000
      2092        17  PMPE      H16Z           15.7367276999       -7.7861721161        1.9604636405  MEMB      17              0.0000000000
      2093        18  PMPE      N             -19.5406220226       -8.2418303085       19.8651698637  MEMB      18              0.0000000000
      2094        18  PMPE      HN1           -19.2542710338       -7.2726989648       20.0891897243  MEMB      18              0.0000000000
      2095        18  PMPE      HN2           -20.5681639559       -8.3799592063       19.8456841917  MEMB      18              0.0000000000
      2096        18  PMPE      HN3           -19.0085008206       -8.8785487286       20.5125439475  MEMB      18              0.0000000000
      2097        18  PMPE      C12           -19.0405664907       -8.3672749258       18.4854149624  MEMB      18              0.0000000000
      2098        18  PMPE      H12A          -19.6985210290       -7.7698311637       17.8234540782  MEMB      18              0.0000000000
      2099        18  PMPE      H12B          -19.0751212816       -9.4132435962       18.1326961759  MEMB      18              0.0000000000
      2100        18  PMPE      C11           -17.5870739341       -7.9424647467       18.4603435475  MEMB      18              0.0000000000
      2101        18  PMPE      H11A          -17.4185748600       -6.8508580849       18.5355002015  MEMB      18              0.0000000000
      2102        18  PMPE      H11B          -17.3692355051       -8.1873411411       17.4004333684  MEMB      18              0.0000000000
      2103        18  PMPE      P             -15.7872021989       -9.7934926971       19.0372249706  MEMB      18              0.0000000000
      2104        18  PMPE      O13           -16.4805587521      -10.7060297046       18.1183114054  MEMB      18              0.0000000000
      2105        18  PMPE      O14           -15.1326659146      -10.3234611317       20.2379290837  MEMB      18              0.0000000000
      2106        18  PMPE      O11           -14.8008616910       -8.9745778570       18.1891982641  MEMB      18              0.0000000000
      2107        18  PMPE      O12           -16.8044628361       -8.6410705374       19.4451949734  MEMB      18              0.0000000000
      2108        18  PMPE      C1            -14.2901552880       -7.7750205762       18.7213982731  MEMB      18              0.0000000000
      2109        18  PMPE      HA            -13.7731076967       -8.0086283068       19.6889590922  MEMB      18              0.0000000000
      2110        18  PMPE      HB            -15.0900501491       -7.0168539337       18.7716314306  MEMB      18              0.0000000000
      2111        18  PMPE      C2            -13.2598043079       -7.2791689010       17.7632088663  MEMB      18              0.0000000000
      2112        18  PMPE      HS            -12.7277348436       -6.3355917056       18.1049600791  MEMB      18              0.0000000000
      2113        18  PMPE      O21           -13.6685871872       -7.1084348271       16.4253851105  MEMB      18              0.0000000000
      2114        18  PMPE      C21           -14.6162603012       -6.2643472647       16.1543141266  MEMB      18              0.0000000000
      2115        18  PMPE      O22           -15.0698686250       -5.4132757812       16.8906942989  MEMB      18              0.0000000000
      2116        18  PMPE      C22           -15.0786468086       -6.5419750755       14.7305127069  MEMB      18              0.0000000000
      2117        18  PMPE      H2R           -15.0554087358       -7.6493724951       14.5992130625  MEMB      18              0.0000000000
      2118        18  PMPE      H2S           -14.3839876666       -6.0448568304       14.0149992285  MEMB      18              0.0000000000
      2119        18  PMPE      C3            -12.2423671840       -8.3216151773       17.7128153841  MEMB      18              0.0000000000
      2120        18  PMPE      HX            -11.7218197966       -8.5148702100       18.7067600806  MEMB      18              0.0000000000
      2121        18  PMPE      HY            -11.6856516270       -7.7437779318       16.8944967162  MEMB      18              0.0000000000
      2122        18  PMPE      O31           -12.3787856117       -9.6192916915       17.2473649115  MEMB      18              0.0000000000
      2123        18  PMPE      C31           -12.2879269476       -9.8838755002       15.9775643348  MEMB      18              0.0000000000
      2124        18  PMPE      O32           -11.7385580097       -9.1731053231       15.1437140298  MEMB      18              0.0000000000
      2125        18  PMPE      C32           -12.9832330423      -11.1959417855       15.8012693685  MEMB      18              0.0000000000
      2126        18  PMPE      H2X           -13.2366559344      -11.6575551737       16.7634892467  MEMB      18              0.0000000000
      2127        18  PMPE      H2Y           -12.2618359515      -11.9303157953       15.4453634682  MEMB      18              0.0000000000
      2128        18  PMPE      C23           -16.5255024798       -6.0396374151       14.5368035245  MEMB      18              0.0000000000
      2129        18  PMPE      H3R           -16.6987387990       -5.0727735969       15.0814293493  MEMB      18              0.0000000000
      2130        18  PMPE      H3S           -17.1681401198       -6.7974567735       15.0298439375  MEMB      18              0.0000000000
      2131        18  PMPE      C24           -16.8190704518       -5.7646808831       13.0488907650  MEMB      18              0.0000000000
      2132        18  PMPE      H4R           -16.8047182610       -6.6021804505       12.3730515403  MEMB      18              0.0000000000
      2133        18  PMPE      H4S           -16.0584015121       -5.0026550978       12.7335767638  MEMB      18              0.0000000000
      2134        18  PMPE      C25           -18.1428285109       -5.1887224924       12.7079227422  MEMB      18              0.0000000000
      2135        18  PMPE      H5R           -18.1614566975       -4.6463876743       11.7341349459  MEMB      18              0.0000000000
      2136        18  PMPE      H5S           -17.8445895383       -4.5085094053       13.5025949664  MEMB      18              0.0000000000
      2137        18  PMPE      C26           -19.4599391210       -5.7963182428       13.1276454117  MEMB      18              0.0000000000
      2138        18  PMPE      H6R           -20.3334477908       -5.1093256223       12.9808389950  MEMB      18              0.0000000000
      2139        18  PMPE      H6S           -19.3383969045       -5.9408467988       14.2262595694  MEMB      18              0.0000000000
      2140        18  PMPE      C27           -19.6887064820       -7.0367474824       12.2809576062  MEMB      18              0.0000000000
      2141        18  PMPE      H7R           -20.5921680724       -7.5847730463       12.6045784313  MEMB      18              0.0000000000
      2142        18  PMPE      H7S           -18.8194911967       -7.7074926597       12.4443742655  MEMB      18              0.0000000000
      2143        18  PMPE      C28           -19.7203557139       -6.7898971131       10.7524513417  MEMB      18              0.0000000000
      2144        18  PMPE      H8R           -18.6631842618       -6.7102120112       10.4322207760  MEMB      18              0.0000000000
      2145        18  PMPE      H8S           -20.2663466999       -5.8493202051       10.4961915922  MEMB      18              0.0000000000
      2146        18  PMPE      C29           -20.4094308355       -7.9787002743       10.0818917658  MEMB      18              0.0000000000
      2147        18  PMPE      H9R           -21.4954359080       -8.0135604549       10.2595899623  MEMB      18              0.0000000000
      2148        18  PMPE      C217          -19.5995512724       -9.2696148216       10.3373270075  MEMB      18              0.0000000000
      2149        18  PMPE      H17R          -20.0932391444      -10.2013050189       10.5356797582  MEMB      18              0.0000000000
      2150        18  PMPE      H17S          -18.5598084706       -9.1508495542       10.5795182820  MEMB      18              0.0000000000
      2151        18  PMPE      C210          -19.8761141926       -8.7899204268        8.9171880271  MEMB      18              0.0000000000
      2152        18  PMPE      H10R          -20.6151499549       -9.3991238861        8.3633467098  MEMB      18              0.0000000000
      2153        18  PMPE      C211          -18.5851917558       -8.3841186453        8.2231952013  MEMB      18              0.0000000000
      2154        18  PMPE      H11R          -18.1177170772       -9.2396227310        7.6907089946  MEMB      18              0.0000000000
      2155        18  PMPE      H11S          -17.8785759041       -8.0869258363        9.0149158369  MEMB      18              0.0000000000
      2156        18  PMPE      C212          -18.7159775747       -7.2420030684        7.2273300242  MEMB      18              0.0000000000
      2157        18  PMPE      H12R          -18.9583972832       -6.2724716524        7.7125477958  MEMB      18              0.0000000000
      2158        18  PMPE      H12S          -19.5718030577       -7.5219852050        6.5586212830  MEMB      18              0.0000000000
      2159        18  PMPE      C213          -17.3974985811       -7.0252808531        6.4854080391  MEMB      18              0.0000000000
      2160        18  PMPE      H13R          -17.0638138449       -7.9183494690        5.9680911123  MEMB      18              0.0000000000
      2161        18  PMPE      H13S          -16.5093558746       -6.7017664051        7.0835736111  MEMB      18              0.0000000000
      2162        18  PMPE      C214          -17.6192836229       -6.0530530108        5.3827329446  MEMB      18              0.0000000000
      2163        18  PMPE      H14R          -18.1306060100       -5.1539117918        5.8231387180  MEMB      18              0.0000000000
      2164        18  PMPE      H14S          -18.3273074276       -6.4697392058        4.6445051650  MEMB      18              0.0000000000
      2165        18  PMPE      C215          -16.2481991478       -5.7955565562        4.7758612273  MEMB      18              0.0000000000
      2166        18  PMPE      H15R          -15.4822638143       -6.5257976367        4.7541273654  MEMB      18              0.0000000000
      2167        18  PMPE      H15S          -15.8590208580       -5.0297579035        5.5374355933  MEMB      18              0.0000000000
      2168        18  PMPE      C216          -16.2338841514       -5.4451818820        3.2538405590  MEMB      18              0.0000000000
      2169        18  PMPE      H16R          -15.2935386789       -4.8027258752        3.0151087261  MEMB      18              0.0000000000
      2170        18  PMPE      H16S          -16.8891627178       -5.5459546275        2.4613687675  MEMB      18              0.0000000000
      2171        18  PMPE      H16T          -17.1801062069       -4.7494095910        3.1722908852  MEMB      18              0.0000000000
      2172        18  PMPE      C33           -14.2846279202      -10.9324186672       15.0155277841  MEMB      18              0.0000000000
      2173        18  PMPE      H3X           -14.7149129550      -10.0009040002       15.4076244444  MEMB      18              0.0000000000
      2174        18  PMPE      H3Y           -15.0157650564      -11.7162127942       15.3076218600  MEMB      18              0.0000000000
      2175        18  PMPE      C34           -14.1722628844      -10.6191300600       13.5202515645  MEMB      18              0.0000000000
      2176        18  PMPE      H4X           -13.9213834480      -11.5162061174       13.0610506145  MEMB      18              0.0000000000
      2177        18  PMPE      H4Y           -13.4246805981       -9.8724400544       13.1853600766  MEMB      18              0.0000000000
      2178        18  PMPE      C35           -15.3928421738      -10.5975177225       12.6838093045  MEMB      18              0.0000000000
      2179        18  PMPE      H5X           -15.9403779243       -9.7390698075       13.0157211646  MEMB      18              0.0000000000
      2180        18  PMPE      H5Y           -16.0179088731      -11.5138044334       12.7950380914  MEMB      18              0.0000000000
      2181        18  PMPE      C36           -15.1511631657      -10.5244244762       11.2025031931  MEMB      18              0.0000000000
      2182        18  PMPE      H6X           -16.1720102003      -10.8153328549       10.8440813305  MEMB      18              0.0000000000
      2183        18  PMPE      H6Y           -14.4381493577      -11.2792699490       10.8767730203  MEMB      18              0.0000000000
      2184        18  PMPE      C37           -14.8327263333       -9.2127684007       10.5004586681  MEMB      18              0.0000000000
      2185        18  PMPE      H7X           -14.0968465880       -8.6435619075       11.0734510530  MEMB      18              0.0000000000
      2186        18  PMPE      H7Y           -15.7914207510       -8.6894481257       10.3027469598  MEMB      18              0.0000000000
      2187        18  PMPE      C38           -14.0510570090       -9.1510918200        9.1863627513  MEMB      18              0.0000000000
      2188        18  PMPE      H8X           -12.9775982041       -9.5083005391        9.3361059928  MEMB      18              0.0000000000
      2189        18  PMPE      H8Y           -14.2340680072       -8.1929665915        8.7366691033  MEMB      18              0.0000000000
      2190        18  PMPE      C39           -14.7565650733       -9.7030790683        8.1694504967  MEMB      18              0.0000000000
      2191        18  PMPE      H9X           -15.8929096852       -9.6773649776        8.5103909214  MEMB      18              0.0000000000
      2192        18  PMPE      H9Y           -14.1285921728      -10.5337486275        8.8132345836  MEMB      18              0.0000000000
      2193        18  PMPE      C310          -14.5295230689       -9.6948894896        6.5689148321  MEMB      18              0.0000000000
      2194        18  PMPE      H10X          -13.4044589866       -9.6717233342        6.5018736569  MEMB      18              0.0000000000
      2195        18  PMPE      H10Y          -14.9185009078       -8.8493546456        6.1451911548  MEMB      18              0.0000000000
      2196        18  PMPE      C311          -15.1879427165      -10.8283162383        5.5900000182  MEMB      18              0.0000000000
      2197        18  PMPE      H11X          -14.8391027122      -11.9348804509        5.7697474512  MEMB      18              0.0000000000
      2198        18  PMPE      H11Y          -14.3653571515      -11.2110299736        5.1948134807  MEMB      18              0.0000000000
      2199        18  PMPE      C312          -16.8206960442      -10.8921687486        5.4973129703  MEMB      18              0.0000000000
      2200        18  PMPE      H12X          -17.5608407295      -11.2724239138        6.3584571725  MEMB      18              0.0000000000
      2201        18  PMPE      H12Y          -17.4093995598      -11.6989762966        5.3911647791  MEMB      18              0.0000000000
      2202        18  PMPE      C313          -17.3661111143      -10.0098014797        4.7734845269  MEMB      18              0.0000000000
      2203        18  PMPE      H13X          -16.6109852216       -9.2741140736        4.9303443625  MEMB      18              0.0000000000
      2204        18  PMPE      H13Y          -18.3448680282      -10.0659652784        5.2419576605  MEMB      18              0.0000000000
      2205        18  PMPE      C314          -17.4200270364      -10.1497681818        3.4037490267  MEMB      18              0.0000000000
      2206        18  PMPE      H14X          -17.4349223461      -11.0049009810        2.9246020725  MEMB      18              0.0000000000
      2207        18  PMPE      H14Y          -16.4782904641      -10.1309131292        2.9752043164  MEMB      18              0.0000000000
      2208        18  PMPE      C315          -18.7543469673      -10.3654487781        2.9277800952  MEMB      18              0.0000000000
      2209        18  PMPE      H15X          -19.4165975828      -11.0319804361        3.4169840346  MEMB      18              0.0000000000
      2210        18  PMPE      H15Y          -19.0061004891      -11.0596267690        2.1155620766  MEMB      18              0.0000000000
      2211        18  PMPE      C316          -18.9041466520       -8.9609084939        2.5279733705  MEMB      18              0.0000000000
      2212        18  PMPE      H16X          -19.0366932450       -8.3466699711        3.3987483317  MEMB      18              0.0000000000
      2213        18  PMPE      H16Y          -19.7833610698       -9.0375241841        1.9711142191  MEMB      18              0.0000000000
      2214        18  PMPE      H16Z          -18.0687132661       -8.5300446622        1.8833313318  MEMB      18              0.0000000000
      2215        19  PYPG      C13           -18.2772943430        4.5044666409       19.4014796927  MEMB      19              0.0000000000
      2216        19  PYPG      H13A          -17.4880404983        4.0766311963       20.0548973957  MEMB      19              0.0000000000
      2217        19  PYPG      H13B          -19.0203288741        5.0358989220       20.0251346415  MEMB      19              0.0000000000
      2218        19  PYPG      OC3           -19.0550867181        3.4318002304       18.8874099794  MEMB      19              0.0000000000
      2219        19  PYPG      HO3           -19.4236772937        3.0031250369       19.6591393310  MEMB      19              0.0000000000
      2220        19  PYPG      C12           -17.6765230557        5.4109545091       18.2754374367  MEMB      19              0.0000000000
      2221        19  PYPG      H12A          -18.5389574465        5.8175557931       17.6953263259  MEMB      19              0.0000000000
      2222        19  PYPG      OC2           -16.8757284078        4.6405350251       17.3720136340  MEMB      19              0.0000000000
      2223        19  PYPG      HO2           -16.4784868779        5.2698550662       16.7720453947  MEMB      19              0.0000000000
      2224        19  PYPG      C11           -16.7980650580        6.6266940409       18.7432199986  MEMB      19              0.0000000000
      2225        19  PYPG      H11A          -16.5918232981        7.2408844470       17.8287342850  MEMB      19              0.0000000000
      2226        19  PYPG      H11B          -15.8053607029        6.2768411730       19.0755837018  MEMB      19              0.0000000000
      2227        19  PYPG      P             -18.4162795683        8.5215586034       19.5209481212  MEMB      19              0.0000000000
      2228        19  PYPG      O13           -18.2764929433        9.6907425148       20.4194639105  MEMB      19              0.0000000000
      2229        19  PYPG      O14           -19.7490750899        7.8742711946       19.4796344620  MEMB      19              0.0000000000
      2230        19  PYPG      O11           -18.0011734388        8.9396425115       18.0729073573  MEMB      19              0.0000000000
      2231        19  PYPG      O12           -17.3350200012        7.3984394960       19.8358430390  MEMB      19              0.0000000000
      2232        19  PYPG      C1            -18.6158554892       10.0824743155       17.5285303627  MEMB      19              0.0000000000
      2233        19  PYPG      HA            -18.3970390306       10.9777113972       18.1650250670  MEMB      19              0.0000000000
      2234        19  PYPG      HB            -19.6989394211        9.9004351084       17.4261054515  MEMB      19              0.0000000000
      2235        19  PYPG      C2            -18.0601122648       10.3984204266       16.1465071872  MEMB      19              0.0000000000
      2236        19  PYPG      HS            -18.8252676577       10.9741444315       15.5681216666  MEMB      19              0.0000000000
      2237        19  PYPG      O21           -17.5961892574        9.2494638454       15.4420445639  MEMB      19              0.0000000000
      2238        19  PYPG      C21           -18.5030324366        8.4847014899       14.9099279883  MEMB      19              0.0000000000
      2239        19  PYPG      O22           -19.7129283624        8.5474179361       14.9673228528  MEMB      19              0.0000000000
      2240        19  PYPG      C22           -17.7967602798        7.7173848097       13.8704009145  MEMB      19              0.0000000000
      2241        19  PYPG      H2R           -16.7086329260        7.6000060370       14.0180158756  MEMB      19              0.0000000000
      2242        19  PYPG      H2S           -18.0279799858        8.2501908693       12.9222183040  MEMB      19              0.0000000000
      2243        19  PYPG      C3            -16.9004719285       11.3059383974       16.4331260753  MEMB      19              0.0000000000
      2244        19  PYPG      HX            -16.2060588823       10.9601349604       17.2359068264  MEMB      19              0.0000000000
      2245        19  PYPG      HY            -17.4126489478       12.2455264876       16.7684885665  MEMB      19              0.0000000000
      2246        19  PYPG      O31           -16.1471744574       11.6427423211       15.3114006308  MEMB      19              0.0000000000
      2247        19  PYPG      C31           -15.1673825734       10.9609246891       14.9899925872  MEMB      19              0.0000000000
      2248        19  PYPG      O32           -14.7586939288       10.0172254835       15.6399273804  MEMB      19              0.0000000000
      2249        19  PYPG      C32           -14.5873294321       11.2842404662       13.6109430480  MEMB      19              0.0000000000
      2250        19  PYPG      H2X           -14.7070637911       12.0754799089       12.9800868840  MEMB      19              0.0000000000
      2251        19  PYPG      H2Y           -13.5326287106       11.5226058919       13.6574039648  MEMB      19              0.0000000000
      2252        19  PYPG      C23           -18.3721428284        6.4151294667       13.7655636867  MEMB      19              0.0000000000
      2253        19  PYPG      H3R           -19.5170319660        6.4089141385       13.6904225612  MEMB      19              0.0000000000
      2254        19  PYPG      H3S           -18.0456111143        5.7027880633       14.5652988381  MEMB      19              0.0000000000
      2255        19  PYPG      C24           -17.7618366998        6.0490109435       12.4396556760  MEMB      19              0.0000000000
      2256        19  PYPG      H4R           -18.3113528663        6.3102301286       11.5419854444  MEMB      19              0.0000000000
      2257        19  PYPG      H4S           -18.3540608163        5.3565519213       12.6546565933  MEMB      19              0.0000000000
      2258        19  PYPG      C25           -16.5607642860        5.1001736085       12.2842881254  MEMB      19              0.0000000000
      2259        19  PYPG      H5R           -16.5687331800        4.3908393826       13.1505330549  MEMB      19              0.0000000000
      2260        19  PYPG      H5S           -15.8801419502        5.9484188052       12.2720707199  MEMB      19              0.0000000000
      2261        19  PYPG      C26           -16.2315855640        4.3996289775       10.9434884361  MEMB      19              0.0000000000
      2262        19  PYPG      H6R           -16.5347132838        5.0122543524       10.0679458880  MEMB      19              0.0000000000
      2263        19  PYPG      H6S           -16.7963943909        3.4725082944       10.8219651182  MEMB      19              0.0000000000
      2264        19  PYPG      C27           -14.7858724015        4.0563324390       10.9019744924  MEMB      19              0.0000000000
      2265        19  PYPG      H7R           -14.6920708000        3.1307159048       11.5150051908  MEMB      19              0.0000000000
      2266        19  PYPG      H7S           -14.2098334465        4.9151054777       11.3372552168  MEMB      19              0.0000000000
      2267        19  PYPG      C28           -14.3092282981        3.9650210369        9.4883388303  MEMB      19              0.0000000000
      2268        19  PYPG      H8R           -13.2765240005        3.9204360981        9.7187972637  MEMB      19              0.0000000000
      2269        19  PYPG      H8S           -14.2313617975        4.9316060180        9.0137221918  MEMB      19              0.0000000000
      2270        19  PYPG      C29           -14.9434522850        2.9267593713        8.6398495739  MEMB      19              0.0000000000
      2271        19  PYPG      H9R           -14.9940583101        1.9330874901        9.1248477712  MEMB      19              0.0000000000
      2272        19  PYPG      C210          -15.2205955855        3.0237631887        7.3500545206  MEMB      19              0.0000000000
      2273        19  PYPG      H10R          -15.7745090026        2.1991155209        6.9629645075  MEMB      19              0.0000000000
      2274        19  PYPG      C211          -15.0027930736        4.1233925216        6.3891501202  MEMB      19              0.0000000000
      2275        19  PYPG      H11R          -14.1164567896        4.7259589579        6.6366012722  MEMB      19              0.0000000000
      2276        19  PYPG      H11S          -15.9103130369        4.7133563898        6.4334579507  MEMB      19              0.0000000000
      2277        19  PYPG      C212          -14.8143225770        3.8155248193        4.9375733478  MEMB      19              0.0000000000
      2278        19  PYPG      H12R          -13.9683650169        3.1383419371        4.9494178254  MEMB      19              0.0000000000
      2279        19  PYPG      H12S          -14.5134724970        4.6646721968        4.3232014566  MEMB      19              0.0000000000
      2280        19  PYPG      C213          -16.0508746109        3.3390062685        4.2556617038  MEMB      19              0.0000000000
      2281        19  PYPG      H13R          -16.8431416668        4.1191872822        4.3629981368  MEMB      19              0.0000000000
      2282        19  PYPG      H13S          -16.4555663376        2.4331992072        4.7506137309  MEMB      19              0.0000000000
      2283        19  PYPG      C214          -15.8344090406        2.8841747680        2.7444411382  MEMB      19              0.0000000000
      2284        19  PYPG      H14R          -15.0483472058        2.3467290898        2.3862951434  MEMB      19              0.0000000000
      2285        19  PYPG      H14S          -16.3923752532        2.0347195816        2.3472789222  MEMB      19              0.0000000000
      2286        19  PYPG      C215          -15.8535768740        3.9794919535        1.8671043824  MEMB      19              0.0000000000
      2287        19  PYPG      H15R          -15.3129393828        4.7801437211        2.1391652667  MEMB      19              0.0000000000
      2288        19  PYPG      H15S          -16.8720107570        4.3585741782        2.0912125610  MEMB      19              0.0000000000
      2289        19  PYPG      C216          -15.3170557986        3.6688137757        0.4995866348  MEMB      19              0.0000000000
      2290        19  PYPG      H16R          -14.2820450903        3.4628644637        0.5770849074  MEMB      19              0.0000000000
      2291        19  PYPG      H16S          -15.6986253987        4.2279683740       -0.3567638506  MEMB      19              0.0000000000
      2292        19  PYPG      H16T          -15.7663876578        2.7969058495        0.1554831785  MEMB      19              0.0000000000
      2293        19  PYPG      C33           -15.0509184900       10.2143556276       12.6590360701  MEMB      19              0.0000000000
      2294        19  PYPG      H3X           -16.1092419599        9.9586236416       12.6678789400  MEMB      19              0.0000000000
      2295        19  PYPG      H3Y           -14.4894770908        9.4165321102       13.0830290247  MEMB      19              0.0000000000
      2296        19  PYPG      C34           -14.7834755957       10.4624843410       11.2179228103  MEMB      19              0.0000000000
      2297        19  PYPG      H4X           -13.8240688386       10.4442231455       10.9889820431  MEMB      19              0.0000000000
      2298        19  PYPG      H4Y           -14.5338303064       11.4924279235       11.0583380269  MEMB      19              0.0000000000
      2299        19  PYPG      C35           -15.6965659810        9.8457965697       10.2082774249  MEMB      19              0.0000000000
      2300        19  PYPG      H5X           -15.5572376954       10.3413758963        9.1970794316  MEMB      19              0.0000000000
      2301        19  PYPG      H5Y           -16.6817845978       10.0010997495       10.7462628766  MEMB      19              0.0000000000
      2302        19  PYPG      C36           -15.8731447738        8.3617755919       10.0885095595  MEMB      19              0.0000000000
      2303        19  PYPG      H6X           -15.9846656177        8.0369529458       11.1422748728  MEMB      19              0.0000000000
      2304        19  PYPG      H6Y           -14.9860029410        7.8952013711        9.6503353972  MEMB      19              0.0000000000
      2305        19  PYPG      C37           -17.1432409375        8.0308031176        9.2849579896  MEMB      19              0.0000000000
      2306        19  PYPG      H7X           -17.4579692106        6.9732979687        9.4316429140  MEMB      19              0.0000000000
      2307        19  PYPG      H7Y           -17.9199967408        8.7036992740        9.7260968072  MEMB      19              0.0000000000
      2308        19  PYPG      C38           -17.0687240376        8.3427971439        7.7741117553  MEMB      19              0.0000000000
      2309        19  PYPG      H8X           -17.1567236737        9.4466687705        7.6787405506  MEMB      19              0.0000000000
      2310        19  PYPG      H8Y           -17.9433575348        7.9015143437        7.2682670009  MEMB      19              0.0000000000
      2311        19  PYPG      C39           -15.7834433597        7.9582931265        7.0422417913  MEMB      19              0.0000000000
      2312        19  PYPG      H9X           -15.6052646149        6.8576823314        6.9801207704  MEMB      19              0.0000000000
      2313        19  PYPG      H9Y           -15.0173708881        8.4729497696        7.6606799416  MEMB      19              0.0000000000
      2314        19  PYPG      C310          -15.7069128457        8.5377948965        5.6311208127  MEMB      19              0.0000000000
      2315        19  PYPG      H10X          -15.7617579038        9.6481579071        5.7016307937  MEMB      19              0.0000000000
      2316        19  PYPG      H10Y          -16.5534229064        8.0997668794        5.0454575387  MEMB      19              0.0000000000
      2317        19  PYPG      C311          -14.3472729059        8.2092114240        5.0179187301  MEMB      19              0.0000000000
      2318        19  PYPG      H11X          -14.2802302674        7.1192976438        4.9607085489  MEMB      19              0.0000000000
      2319        19  PYPG      H11Y          -13.5722639286        8.5550512181        5.7218600601  MEMB      19              0.0000000000
      2320        19  PYPG      C312          -14.0310876532        8.8335193869        3.6927732228  MEMB      19              0.0000000000
      2321        19  PYPG      H12X          -13.9512283557        9.9026953172        3.9118485410  MEMB      19              0.0000000000
      2322        19  PYPG      H12Y          -13.0529961846        8.6760288111        3.2466766266  MEMB      19              0.0000000000
      2323        19  PYPG      C313          -14.9758709849        8.3923770008        2.6734073183  MEMB      19              0.0000000000
      2324        19  PYPG      H13X          -15.0704685144        7.3751439711        2.3354689240  MEMB      19              0.0000000000
      2325        19  PYPG      H13Y          -16.0143515676        8.6129717802        3.1347557262  MEMB      19              0.0000000000
      2326        19  PYPG      C314          -14.6161740525        9.0244882402        1.3085503594  MEMB      19              0.0000000000
      2327        19  PYPG      H14X          -13.7497528726        9.2522582187        0.7794862408  MEMB      19              0.0000000000
      2328        19  PYPG      H14Y          -15.1753034467        8.4822711613        0.6724451058  MEMB      19              0.0000000000
      2329        19  PYPG      C315          -14.9965697695       10.2098686270        1.2166664084  MEMB      19              0.0000000000
      2330        19  PYPG      H15X          -15.7201069956       10.0231180104        2.1960420775  MEMB      19              0.0000000000
      2331        19  PYPG      H15Y          -14.0758188696       10.5729885894        1.9892882190  MEMB      19              0.0000000000
      2332        19  PYPG      C316          -15.6697556072       11.6192456147       -0.0604072901  MEMB      19              0.0000000000
      2333        19  PYPG      H16X          -14.9510616072       12.3710610275       -0.3014452516  MEMB      19              0.0000000000
      2334        19  PYPG      H16Y          -16.2330901250       12.5990423831        0.2322643901  MEMB      19              0.0000000000
      2335        19  PYPG      H16Z          -16.4916121901       11.4596843492       -0.6183685225  MEMB      19              0.0000000000
      2336        20  QMPE      N             -13.0507509198       13.9553770483       22.0589632251  MEMB      20              0.0000000000
      2337        20  QMPE      HN1           -13.9627291674       13.4646045475       22.0461304992  MEMB      20              0.0000000000
      2338        20  QMPE      HN2           -12.3242588871       13.4872698933       22.6493649538  MEMB      20              0.0000000000
      2339        20  QMPE      HN3           -13.1986240278       14.8909071458       22.4920954646  MEMB      20              0.0000000000
      2340        20  QMPE      C12           -12.6739717633       14.0410178630       20.5932395115  MEMB      20              0.0000000000
      2341        20  QMPE      H12A          -12.7769305987       13.0501536822       20.0977447838  MEMB      20              0.0000000000
      2342        20  QMPE      H12B          -11.6406067840       14.4222458270       20.4927318986  MEMB      20              0.0000000000
      2343        20  QMPE      C11           -13.5951277634       15.0025152616       19.8564462606  MEMB      20              0.0000000000
      2344        20  QMPE      H11A          -13.0090626444       15.4057805135       18.9980887619  MEMB      20              0.0000000000
      2345        20  QMPE      H11B          -13.8398233595       15.8472692451       20.5228608951  MEMB      20              0.0000000000
      2346        20  QMPE      P             -14.8524276543       13.9807207407       17.8743363526  MEMB      20              0.0000000000
      2347        20  QMPE      O13           -15.9210510857       13.0519495015       17.9157001513  MEMB      20              0.0000000000
      2348        20  QMPE      O14           -13.5495194115       13.5730281145       17.3116265404  MEMB      20              0.0000000000
      2349        20  QMPE      O11           -15.3963511454       15.3053449241       17.2920039456  MEMB      20              0.0000000000
      2350        20  QMPE      O12           -14.7625446250       14.3393401785       19.4208990493  MEMB      20              0.0000000000
      2351        20  QMPE      C1            -14.6793320093       16.0546667752       16.3311702028  MEMB      20              0.0000000000
      2352        20  QMPE      HA            -13.6335547200       15.7046667673       16.1980520155  MEMB      20              0.0000000000
      2353        20  QMPE      HB            -14.6144210649       17.0908620488       16.6897438210  MEMB      20              0.0000000000
      2354        20  QMPE      C2            -15.5055698945       16.1318581179       15.0409249144  MEMB      20              0.0000000000
      2355        20  QMPE      HS            -16.4473710036       16.6125326001       15.3022476175  MEMB      20              0.0000000000
      2356        20  QMPE      O21           -15.7325207950       14.7999493060       14.5869951501  MEMB      20              0.0000000000
      2357        20  QMPE      C21           -16.6179100629       14.6440773157       13.6139497963  MEMB      20              0.0000000000
      2358        20  QMPE      O22           -17.2021194646       15.4660301363       12.9694842035  MEMB      20              0.0000000000
      2359        20  QMPE      C22           -16.7968625640       13.2460033137       13.3030273421  MEMB      20              0.0000000000
      2360        20  QMPE      H2R           -17.1472520133       12.7820009202       14.1731964598  MEMB      20              0.0000000000
      2361        20  QMPE      H2S           -15.8192159413       13.2475045554       13.0039019017  MEMB      20              0.0000000000
      2362        20  QMPE      C3            -14.8511356761       16.9792164721       13.9481484621  MEMB      20              0.0000000000
      2363        20  QMPE      HX            -14.5741221755       17.9544762752       14.3659638849  MEMB      20              0.0000000000
      2364        20  QMPE      HY            -15.6167117269       17.2394454154       13.1686476491  MEMB      20              0.0000000000
      2365        20  QMPE      O31           -13.6986584244       16.2390659962       13.4589725399  MEMB      20              0.0000000000
      2366        20  QMPE      C31           -13.1173300027       16.9235025480       12.5269258034  MEMB      20              0.0000000000
      2367        20  QMPE      O32           -13.3146528640       18.0588602851       12.4241169102  MEMB      20              0.0000000000
      2368        20  QMPE      C32           -12.2377867551       16.2052561876       11.5488150807  MEMB      20              0.0000000000
      2369        20  QMPE      H2X           -11.7506298261       16.9041221233       10.8145298794  MEMB      20              0.0000000000
      2370        20  QMPE      H2Y           -11.5114689617       15.7281290123       12.2108378427  MEMB      20              0.0000000000
      2371        20  QMPE      C23           -17.5959563802       12.6782013101       12.1745931914  MEMB      20              0.0000000000
      2372        20  QMPE      H3R           -18.4825625049       13.3034003590       12.1314909573  MEMB      20              0.0000000000
      2373        20  QMPE      H3S           -17.8576792986       11.6414603987       12.4861276912  MEMB      20              0.0000000000
      2374        20  QMPE      C24           -16.9279692788       12.6948460579       10.8285422479  MEMB      20              0.0000000000
      2375        20  QMPE      H4R           -15.9613037734       12.3538680882       10.9136341841  MEMB      20              0.0000000000
      2376        20  QMPE      H4S           -16.7463483388       13.7189117284       10.4942853868  MEMB      20              0.0000000000
      2377        20  QMPE      C25           -17.6220366657       11.9505159933        9.7106591991  MEMB      20              0.0000000000
      2378        20  QMPE      H5R           -17.4720714797       10.9186020013        9.5017319220  MEMB      20              0.0000000000
      2379        20  QMPE      H5S           -17.1088164815       12.2242270755        8.7914189309  MEMB      20              0.0000000000
      2380        20  QMPE      C26           -19.1202888435       11.9907381114        9.7565720345  MEMB      20              0.0000000000
      2381        20  QMPE      H6R           -19.3869463202       13.0533264702        9.8059043579  MEMB      20              0.0000000000
      2382        20  QMPE      H6S           -19.4727404768       11.4594701253       10.6775463761  MEMB      20              0.0000000000
      2383        20  QMPE      C27           -19.6735918284       11.3212980465        8.5109030843  MEMB      20              0.0000000000
      2384        20  QMPE      H7R           -20.6622498555       10.8375549398        8.6956862091  MEMB      20              0.0000000000
      2385        20  QMPE      H7S           -18.9613849474       10.5394833147        8.2259941239  MEMB      20              0.0000000000
      2386        20  QMPE      C28           -19.7547353501       12.1835256985        7.2776551242  MEMB      20              0.0000000000
      2387        20  QMPE      H8R           -18.9905958868       12.8297985263        6.9423366859  MEMB      20              0.0000000000
      2388        20  QMPE      H8S           -20.2340423118       13.1285366318        7.6694955005  MEMB      20              0.0000000000
      2389        20  QMPE      C29           -20.3592254546       11.2617829996        6.1143233260  MEMB      20              0.0000000000
      2390        20  QMPE      H9R           -21.4624681993       11.0447741886        6.0301617263  MEMB      20              0.0000000000
      2391        20  QMPE      C217          -19.4154567368       10.4099110671        5.3723318779  MEMB      20              0.0000000000
      2392        20  QMPE      H17R          -18.4795500850       10.5826181214        5.8709523264  MEMB      20              0.0000000000
      2393        20  QMPE      H17S          -19.7978530589        9.6076278493        4.7681496083  MEMB      20              0.0000000000
      2394        20  QMPE      C210          -19.8624592998       11.6430954269        4.6767588985  MEMB      20              0.0000000000
      2395        20  QMPE      H10R          -20.6465070320       11.6410977462        3.8870751730  MEMB      20              0.0000000000
      2396        20  QMPE      C211          -18.8310978212       12.7065731549        4.4924504412  MEMB      20              0.0000000000
      2397        20  QMPE      H11R          -18.0279465689       12.7341215229        5.2346549625  MEMB      20              0.0000000000
      2398        20  QMPE      H11S          -18.3702865607       12.4626148532        3.5053003425  MEMB      20              0.0000000000
      2399        20  QMPE      C212          -19.3109610219       14.1274708001        4.7162858183  MEMB      20              0.0000000000
      2400        20  QMPE      H12R          -19.7705367039       14.5386956430        5.5767323928  MEMB      20              0.0000000000
      2401        20  QMPE      H12S          -20.2263654723       14.3113548173        4.0138790675  MEMB      20              0.0000000000
      2402        20  QMPE      C213          -17.9743485549       14.9810015146        4.4616027374  MEMB      20              0.0000000000
      2403        20  QMPE      H13R          -17.0007077679       14.9854523016        4.6646959237  MEMB      20              0.0000000000
      2404        20  QMPE      H13S          -18.3770022597       15.9542935696        4.9288644985  MEMB      20              0.0000000000
      2405        20  QMPE      C214          -17.1214089341       15.0775463072        2.7730397609  MEMB      20              0.0000000000
      2406        20  QMPE      H14R          -17.4259300800       13.8201829879        2.5032891811  MEMB      20              0.0000000000
      2407        20  QMPE      H14S          -16.5185211065       15.6588936846        2.3246795346  MEMB      20              0.0000000000
      2408        20  QMPE      C215          -18.6150629828       16.7004525011        0.8731117732  MEMB      20              0.0000000000
      2409        20  QMPE      H15R          -18.5831602342       18.1646665094        1.6657638210  MEMB      20              0.0000000000
      2410        20  QMPE      H15S          -19.7814603676       16.5018185433        1.0217272659  MEMB      20              0.0000000000
      2411        20  QMPE      C216          -18.0753615642       16.3385509414       -0.1425631698  MEMB      20              0.0000000000
      2412        20  QMPE      H16R          -18.3671127426       17.3963497252       -0.2768384625  MEMB      20              0.0000000000
      2413        20  QMPE      H16S          -18.7151357802       15.5051489605       -0.5436798589  MEMB      20              0.0000000000
      2414        20  QMPE      H16T          -17.0764290661       16.0905738071        0.0795965281  MEMB      20              0.0000000000
      2415        20  QMPE      C33           -13.0666683290       15.0705416745       10.9307783536  MEMB      20              0.0000000000
      2416        20  QMPE      H3X           -13.6737285447       14.6029809912       11.7379151121  MEMB      20              0.0000000000
      2417        20  QMPE      H3Y           -12.4217714254       14.2523209369       10.5891817360  MEMB      20              0.0000000000
      2418        20  QMPE      C34           -14.0358267046       15.3956862819        9.7960072574  MEMB      20              0.0000000000
      2419        20  QMPE      H4X           -14.6267974423       16.2816171024       10.0950649116  MEMB      20              0.0000000000
      2420        20  QMPE      H4Y           -14.7743746184       14.5646586491        9.7208528648  MEMB      20              0.0000000000
      2421        20  QMPE      C35           -13.4453179298       15.5647112139        8.3822519880  MEMB      20              0.0000000000
      2422        20  QMPE      H5X           -12.3865042870       15.3528896964        8.3229689208  MEMB      20              0.0000000000
      2423        20  QMPE      H5Y           -13.3706300222       16.6059141536        8.1541041710  MEMB      20              0.0000000000
      2424        20  QMPE      C36           -14.3048963934       14.9269779013        7.2858632937  MEMB      20              0.0000000000
      2425        20  QMPE      H6X           -15.3587645499       15.2836059733        7.3553517930  MEMB      20              0.0000000000
      2426        20  QMPE      H6Y           -14.3270469047       13.8453124722        7.4937738823  MEMB      20              0.0000000000
      2427        20  QMPE      C37           -13.8279733592       15.1976227602        5.8551864953  MEMB      20              0.0000000000
      2428        20  QMPE      H7X           -14.2801431241       16.0604155659        5.3317106303  MEMB      20              0.0000000000
      2429        20  QMPE      H7Y           -12.7433467530       15.3556103293        5.7847749274  MEMB      20              0.0000000000
      2430        20  QMPE      C38           -14.1622968703       14.0560561689        4.9500549599  MEMB      20              0.0000000000
      2431        20  QMPE      H8X           -13.5206202831       13.2040338572        5.2447013182  MEMB      20              0.0000000000
      2432        20  QMPE      H8Y           -15.2306262092       13.7935916411        5.0927290529  MEMB      20              0.0000000000
      2433        20  QMPE      C39           -13.9625743789       14.5329233036        3.5265362707  MEMB      20              0.0000000000
      2434        20  QMPE      H9X           -13.0382978822       15.1096047328        3.4242214185  MEMB      20              0.0000000000
      2435        20  QMPE      H9Y           -14.8363234484       15.1694792527        3.2957140255  MEMB      20              0.0000000000
      2436        20  QMPE      C310          -14.0059587090       13.4857801638        2.5597262393  MEMB      20              0.0000000000
      2437        20  QMPE      H10X          -13.4743554173       12.5842763392        2.8563651204  MEMB      20              0.0000000000
      2438        20  QMPE      H10Y          -13.6215038140       13.7529874295        1.5449528723  MEMB      20              0.0000000000
      2439        20  QMPE      C311          -15.4266915444       13.1556885716        2.5281222595  MEMB      20              0.0000000000
      2440        20  QMPE      H11X          -15.9808005759       13.5026765436        1.6806110966  MEMB      20              0.0000000000
      2441        20  QMPE      H11Y          -16.0353459636       12.9277637454        3.4185765859  MEMB      20              0.0000000000
      2442        20  QMPE      C312          -15.6379357201       12.0206831588        2.3948767570  MEMB      20              0.0000000000
      2443        20  QMPE      H12X          -15.1616880915       11.3051294359        3.2400458001  MEMB      20              0.0000000000
      2444        20  QMPE      H12Y          -14.4656798702       12.1008784331        1.4664646665  MEMB      20              0.0000000000
      2445        20  QMPE      C313          -17.3553385520       10.9994932438        1.7876045256  MEMB      20              0.0000000000
      2446        20  QMPE      H13X          -17.6903866992       10.6938724211        2.7828615369  MEMB      20              0.0000000000
      2447        20  QMPE      H13Y          -17.6970694656       11.6233238748        1.0363042856  MEMB      20              0.0000000000
      2448        20  QMPE      C314          -17.4204623492        9.4156501029        0.9576783186  MEMB      20              0.0000000000
      2449        20  QMPE      H14X          -18.2444625615        8.7893031337        1.1749169145  MEMB      20              0.0000000000
      2450        20  QMPE      H14Y          -16.8871027901        8.6141662292        1.5100611974  MEMB      20              0.0000000000
      2451        20  QMPE      C315          -16.8040412926        9.2593504452       -0.5287180092  MEMB      20              0.0000000000
      2452        20  QMPE      H15X          -15.7083673885        9.5783532555       -0.7437395819  MEMB      20              0.0000000000
      2453        20  QMPE      H15Y          -16.6413190275        8.2499469191       -0.8388296894  MEMB      20              0.0000000000
      2454        20  QMPE      H15Z          -17.3418382310       10.0191010419       -1.0682842316  MEMB      20              0.0000000000
      2455        21  PMPE      N             -12.8553722400      -17.9199532042       21.5553239774  MEMB      21              0.0000000000
      2456        21  PMPE      HN1           -13.6141599094      -18.4191726786       22.0687462447  MEMB      21              0.0000000000
      2457        21  PMPE      HN2           -12.1404164815      -18.5976716181       21.2035871169  MEMB      21              0.0000000000
      2458        21  PMPE      HN3           -12.4433225741      -17.1787756140       22.1735024626  MEMB      21              0.0000000000
      2459        21  PMPE      C12           -13.4476291677      -17.2246853938       20.3573233011  MEMB      21              0.0000000000
      2460        21  PMPE      H12A          -13.5017358983      -16.1466353158       20.6192914094  MEMB      21              0.0000000000
      2461        21  PMPE      H12B          -14.4693784821      -17.6377013858       20.2404207684  MEMB      21              0.0000000000
      2462        21  PMPE      C11           -12.7126753733      -17.4830775857       19.0163402600  MEMB      21              0.0000000000
      2463        21  PMPE      H11A          -13.3322552045      -17.0606511074       18.1967146764  MEMB      21              0.0000000000
      2464        21  PMPE      H11B          -12.6911939869      -18.5757489312       18.7865147102  MEMB      21              0.0000000000
      2465        21  PMPE      P             -11.1166357735      -15.5164347456       18.2707944717  MEMB      21              0.0000000000
      2466        21  PMPE      O13            -9.8167291171      -15.6132467583       17.7105024891  MEMB      21              0.0000000000
      2467        21  PMPE      O14           -11.3648094211      -14.3892551807       19.1742441387  MEMB      21              0.0000000000
      2468        21  PMPE      O11           -12.1283907856      -15.4342090067       17.0638205120  MEMB      21              0.0000000000
      2469        21  PMPE      O12           -11.4043777603      -16.9251287758       18.9874884883  MEMB      21              0.0000000000
      2470        21  PMPE      C1            -11.9479131646      -16.1838305812       15.8702298446  MEMB      21              0.0000000000
      2471        21  PMPE      HA            -12.8864325324      -16.3252287947       15.3515665885  MEMB      21              0.0000000000
      2472        21  PMPE      HB            -11.5731873627      -17.1923472920       16.1152499616  MEMB      21              0.0000000000
      2473        21  PMPE      C2            -11.0766496661      -15.4293802256       14.8430764647  MEMB      21              0.0000000000
      2474        21  PMPE      HS            -10.1846663856      -15.1102677481       15.4264762445  MEMB      21              0.0000000000
      2475        21  PMPE      O21           -11.8382888190      -14.3317729407       14.2941522532  MEMB      21              0.0000000000
      2476        21  PMPE      C21           -11.1165863408      -13.3538416070       13.7451918219  MEMB      21              0.0000000000
      2477        21  PMPE      O22            -9.9433292914      -13.2959558381       13.7191450058  MEMB      21              0.0000000000
      2478        21  PMPE      C22           -11.9579686747      -12.3276129415       13.1450464941  MEMB      21              0.0000000000
      2479        21  PMPE      H2R           -12.0160000984      -11.4102082761       13.7624148775  MEMB      21              0.0000000000
      2480        21  PMPE      H2S           -12.9155766139      -12.9079321918       13.1267420031  MEMB      21              0.0000000000
      2481        21  PMPE      C3            -10.5793290767      -16.3654117304       13.7150582457  MEMB      21              0.0000000000
      2482        21  PMPE      HX            -10.0822199146      -17.2106017140       14.1920096752  MEMB      21              0.0000000000
      2483        21  PMPE      HY             -9.8040402467      -15.8588096960       13.0997106396  MEMB      21              0.0000000000
      2484        21  PMPE      O31           -11.6696692299      -16.9195472590       12.9742500545  MEMB      21              0.0000000000
      2485        21  PMPE      C31           -11.3717403835      -17.5602008992       11.8720993332  MEMB      21              0.0000000000
      2486        21  PMPE      O32           -10.2675960235      -17.6860164721       11.3654482826  MEMB      21              0.0000000000
      2487        21  PMPE      C32           -12.6827370073      -18.1589609046       11.4071584249  MEMB      21              0.0000000000
      2488        21  PMPE      H2X           -13.5380926144      -17.4920006240       11.6630776017  MEMB      21              0.0000000000
      2489        21  PMPE      H2Y           -12.7830440542      -19.1262814729       11.9452264389  MEMB      21              0.0000000000
      2490        21  PMPE      C23           -11.6183906542      -11.5559334693       11.8597073717  MEMB      21              0.0000000000
      2491        21  PMPE      H3R           -10.5380368278      -11.3880735265       11.8733855416  MEMB      21              0.0000000000
      2492        21  PMPE      H3S           -12.1816121207      -10.5694583346       11.8136745742  MEMB      21              0.0000000000
      2493        21  PMPE      C24           -12.0322719602      -12.3104529431       10.6371321951  MEMB      21              0.0000000000
      2494        21  PMPE      H4R           -11.9398911908      -11.6848283410        9.7283562941  MEMB      21              0.0000000000
      2495        21  PMPE      H4S           -13.0568556388      -12.5059473002       10.9119325729  MEMB      21              0.0000000000
      2496        21  PMPE      C25           -11.4307347498      -13.6908793483       10.4228384120  MEMB      21              0.0000000000
      2497        21  PMPE      H5R           -11.8859430142      -14.3438285564       11.2014735426  MEMB      21              0.0000000000
      2498        21  PMPE      H5S           -10.3550399044      -13.6107292746       10.6548592562  MEMB      21              0.0000000000
      2499        21  PMPE      C26           -11.6499226755      -14.1436819695        8.9598471921  MEMB      21              0.0000000000
      2500        21  PMPE      H6R           -11.4548536996      -13.2612465393        8.3118446450  MEMB      21              0.0000000000
      2501        21  PMPE      H6S           -12.6799219029      -14.4847157921        8.8367867159  MEMB      21              0.0000000000
      2502        21  PMPE      C27           -10.8256237011      -15.3010219882        8.3989676622  MEMB      21              0.0000000000
      2503        21  PMPE      H7R           -11.1161076607      -15.4929939992        7.3318773645  MEMB      21              0.0000000000
      2504        21  PMPE      H7S           -11.1267641081      -16.1847019159        8.9885650681  MEMB      21              0.0000000000
      2505        21  PMPE      C28            -9.3191296172      -15.1438389381        8.6107047112  MEMB      21              0.0000000000
      2506        21  PMPE      H8R            -9.1385521136      -15.0640081928        9.7100607350  MEMB      21              0.0000000000
      2507        21  PMPE      H8S            -8.9595773583      -14.2200238395        8.1204149222  MEMB      21              0.0000000000
      2508        21  PMPE      C29            -8.6115033670      -16.3888504134        8.1099275631  MEMB      21              0.0000000000
      2509        21  PMPE      H9R            -8.6739932506      -17.3107265381        8.6854394088  MEMB      21              0.0000000000
      2510        21  PMPE      C217           -7.3305122432      -16.2870155414        7.4101402166  MEMB      21              0.0000000000
      2511        21  PMPE      H17R           -6.5992653613      -17.0304246949        7.6787330182  MEMB      21              0.0000000000
      2512        21  PMPE      H17S           -7.1708034914      -15.3900475987        6.9447722486  MEMB      21              0.0000000000
      2513        21  PMPE      C210           -8.5188545284      -16.6531387655        6.6240323921  MEMB      21              0.0000000000
      2514        21  PMPE      H10R           -8.3919790878      -17.6640254508        6.2765323420  MEMB      21              0.0000000000
      2515        21  PMPE      C211           -8.8503393001      -15.6339989550        5.5464354057  MEMB      21              0.0000000000
      2516        21  PMPE      H11R           -8.0841380883      -14.9696675389        5.2912319646  MEMB      21              0.0000000000
      2517        21  PMPE      H11S           -9.6910153487      -15.0017765116        5.8253981385  MEMB      21              0.0000000000
      2518        21  PMPE      C212           -9.0375132048      -16.4127250042        4.2767864698  MEMB      21              0.0000000000
      2519        21  PMPE      H12R           -9.6963503271      -17.2581301421        4.5493468293  MEMB      21              0.0000000000
      2520        21  PMPE      H12S           -8.0523504438      -16.7898013762        3.9046310197  MEMB      21              0.0000000000
      2521        21  PMPE      C213           -9.7595292491      -15.6652084336        3.2034606557  MEMB      21              0.0000000000
      2522        21  PMPE      H13R           -9.3428059042      -14.6524423341        3.0118672032  MEMB      21              0.0000000000
      2523        21  PMPE      H13S          -10.8339837166      -15.6301665057        3.3585798199  MEMB      21              0.0000000000
      2524        21  PMPE      C214           -9.7020506801      -16.4666163409        2.0049556880  MEMB      21              0.0000000000
      2525        21  PMPE      H14R           -9.6035963047      -17.5735005392        2.0774638991  MEMB      21              0.0000000000
      2526        21  PMPE      H14S           -8.6690217227      -16.1858412086        1.9119680811  MEMB      21              0.0000000000
      2527        21  PMPE      C215          -10.5124355195      -15.8400667316        0.8453777083  MEMB      21              0.0000000000
      2528        21  PMPE      H15R          -10.2722135192      -16.2566377933       -0.0563655797  MEMB      21              0.0000000000
      2529        21  PMPE      H15S          -10.1125947343      -14.8742527038        0.4888928834  MEMB      21              0.0000000000
      2530        21  PMPE      C216          -11.9664479091      -16.1182103109        0.7336395459  MEMB      21              0.0000000000
      2531        21  PMPE      H16R          -12.3630644071      -15.6671872163       -0.1983060459  MEMB      21              0.0000000000
      2532        21  PMPE      H16S          -12.1806839794      -17.2060914729        0.6718895641  MEMB      21              0.0000000000
      2533        21  PMPE      H16T          -12.3896063894      -15.6907095650        1.6306892027  MEMB      21              0.0000000000
      2534        21  PMPE      C33           -12.5783428910      -18.3487893852        9.9307273349  MEMB      21              0.0000000000
      2535        21  PMPE      H3X           -11.6972999347      -18.9317465307        9.6153506130  MEMB      21              0.0000000000
      2536        21  PMPE      H3Y           -12.7915436775      -17.4380623562        9.3262986752  MEMB      21              0.0000000000
      2537        21  PMPE      C34           -13.2981597947      -19.4320642373        9.4755088025  MEMB      21              0.0000000000
      2538        21  PMPE      H4X           -14.0971796938      -19.2565877565        9.9835244592  MEMB      21              0.0000000000
      2539        21  PMPE      H4Y           -13.5410781267      -20.3862297152        9.9311192735  MEMB      21              0.0000000000
      2540        21  PMPE      C35           -13.2408794924      -19.3943124326        8.0568699399  MEMB      21              0.0000000000
      2541        21  PMPE      H5X           -13.5429766965      -20.5725443123        8.1612462649  MEMB      21              0.0000000000
      2542        21  PMPE      H5Y           -12.4338680915      -19.8416597076        7.6096892080  MEMB      21              0.0000000000
      2543        21  PMPE      C36           -13.8567830832      -18.1304334348        7.0546175615  MEMB      21              0.0000000000
      2544        21  PMPE      H6X           -13.6200533495      -17.2064035210        7.4469021561  MEMB      21              0.0000000000
      2545        21  PMPE      H6Y           -15.0279738270      -17.8972011638        7.0342679038  MEMB      21              0.0000000000
      2546        21  PMPE      C37           -13.6049658376      -18.3736763425        5.4490348847  MEMB      21              0.0000000000
      2547        21  PMPE      H7X           -13.6398982134      -19.4506403584        5.0581836800  MEMB      21              0.0000000000
      2548        21  PMPE      H7Y           -12.5895857284      -18.1161109454        5.3442607099  MEMB      21              0.0000000000
      2549        21  PMPE      C38           -14.3977638638      -17.5694910197        4.4326802180  MEMB      21              0.0000000000
      2550        21  PMPE      H8X           -15.3633219716      -17.9757978813        4.1501175695  MEMB      21              0.0000000000
      2551        21  PMPE      H8Y           -13.7328513168      -17.5484422022        3.5251692007  MEMB      21              0.0000000000
      2552        21  PMPE      C39           -14.6920441435      -16.1741405044        4.8879155853  MEMB      21              0.0000000000
      2553        21  PMPE      H9X           -13.8178785488      -15.7822689720        5.4671398687  MEMB      21              0.0000000000
      2554        21  PMPE      H9Y           -15.6086836329      -16.0828030281        5.5159485706  MEMB      21              0.0000000000
      2555        21  PMPE      C310          -14.7942174739      -15.4460821804        3.5957174521  MEMB      21              0.0000000000
      2556        21  PMPE      H10X          -15.8076699683      -15.4312406492        3.0600412980  MEMB      21              0.0000000000
      2557        21  PMPE      H10Y          -14.0309045624      -15.7265962397        2.9032364920  MEMB      21              0.0000000000
      2558        21  PMPE      C311          -13.8957900225      -14.2288395191        3.6345411244  MEMB      21              0.0000000000
      2559        21  PMPE      H11X          -13.6140545709      -13.8400645503        4.5931552953  MEMB      21              0.0000000000
      2560        21  PMPE      H11Y          -14.8859856235      -14.0597425105        3.5216658189  MEMB      21              0.0000000000
      2561        21  PMPE      C312          -14.3061702550      -13.0483485729        2.9591351576  MEMB      21              0.0000000000
      2562        21  PMPE      H12X          -14.6258299591      -13.0522326525        1.9349806604  MEMB      21              0.0000000000
      2563        21  PMPE      H12Y          -13.7587566816      -13.7439895177        2.1947097330  MEMB      21              0.0000000000
      2564        21  PMPE      C313          -13.7747087685      -11.5113486902        3.3083196302  MEMB      21              0.0000000000
      2565        21  PMPE      H13X          -13.0098934704      -11.0611901976        3.7972623401  MEMB      21              0.0000000000
      2566        21  PMPE      H13Y          -14.5870651407      -10.9267772396        3.5369940558  MEMB      21              0.0000000000
      2567        21  PMPE      C314          -12.8326444672      -10.8133316609        2.2809096894  MEMB      21              0.0000000000
      2568        21  PMPE      H14X          -12.6826401589       -9.7150958984        2.2290132184  MEMB      21              0.0000000000
      2569        21  PMPE      H14Y          -14.0230298483      -11.6872175376        1.5191589913  MEMB      21              0.0000000000
      2570        21  PMPE      C315          -12.0871345868      -11.9790198688        0.5892092481  MEMB      21              0.0000000000
      2571        21  PMPE      H15X          -12.3568811300      -11.3561074008       -0.0781117954  MEMB      21              0.0000000000
      2572        21  PMPE      H15Y          -12.6514330943      -13.0481240705        0.5814916005  MEMB      21              0.0000000000
      2573        21  PMPE      C316          -11.4549683360      -11.4846274266        1.2940154240  MEMB      21              0.0000000000
      2574        21  PMPE      H16X          -11.2680536876      -10.5359160938        1.2930148227  MEMB      21              0.0000000000
      2575        21  PMPE      H16Y          -10.9471198799      -11.6298968794        0.6950291018  MEMB      21              0.0000000000
      2576        21  PMPE      H16Z          -11.0440912477      -12.0184405650        2.1451604283  MEMB      21              0.0000000000
      2577        22  PMPE      N              18.5151036666        3.3168157088       17.6108586270  MEMB      22              0.0000000000
      2578        22  PMPE      HN1            19.3682259797        3.8823961288       17.7040828368  MEMB      22              0.0000000000
      2579        22  PMPE      HN2            18.0279564284        3.4577387353       16.6998303770  MEMB      22              0.0000000000
      2580        22  PMPE      HN3            17.8051824192        3.5797719440       18.3447059004  MEMB      22              0.0000000000
      2581        22  PMPE      C12            18.7197385013        1.8216314604       17.8297452649  MEMB      22              0.0000000000
      2582        22  PMPE      H12A           19.3767194840        1.4600137936       17.0613273942  MEMB      22              0.0000000000
      2583        22  PMPE      H12B           17.8094409163        1.1853949180       17.7194303773  MEMB      22              0.0000000000
      2584        22  PMPE      C11            19.0916588907        1.6518131481       19.2685699105  MEMB      22              0.0000000000
      2585        22  PMPE      H11A           19.1377007354        0.5720269375       19.5147792360  MEMB      22              0.0000000000
      2586        22  PMPE      H11B           18.2320734683        2.0700663495       19.7896346405  MEMB      22              0.0000000000
      2587        22  PMPE      P              21.7000159376        1.6982664688       19.5234027501  MEMB      22              0.0000000000
      2588        22  PMPE      O13            21.8925218200        0.8263891525       20.6939911301  MEMB      22              0.0000000000
      2589        22  PMPE      O14            22.7107757149        2.7160227465       19.2207828803  MEMB      22              0.0000000000
      2590        22  PMPE      O11            21.5715077363        0.7732306340       18.2297885796  MEMB      22              0.0000000000
      2591        22  PMPE      O12            20.2419322514        2.4009980378       19.6178325862  MEMB      22              0.0000000000
      2592        22  PMPE      C1             22.8389921070        0.3725844199       17.6594803907  MEMB      22              0.0000000000
      2593        22  PMPE      HA             22.6905404691       -0.6407830363       17.2604315943  MEMB      22              0.0000000000
      2594        22  PMPE      HB             23.6837487095        0.3170187076       18.3951752899  MEMB      22              0.0000000000
      2595        22  PMPE      C2             23.3767432412        1.3012138267       16.5309200599  MEMB      22              0.0000000000
      2596        22  PMPE      HS             23.6796876839        2.2346448178       17.0596197167  MEMB      22              0.0000000000
      2597        22  PMPE      O21            22.3529411768        1.5058616142       15.5222719039  MEMB      22              0.0000000000
      2598        22  PMPE      C21            21.6083683744        2.5772318353       15.5981255944  MEMB      22              0.0000000000
      2599        22  PMPE      O22            21.7354565304        3.5211663505       16.3543583224  MEMB      22              0.0000000000
      2600        22  PMPE      C22            20.5138479406        2.5222145835       14.5214729111  MEMB      22              0.0000000000
      2601        22  PMPE      H2R            19.7066220775        3.2459274548       14.7668931148  MEMB      22              0.0000000000
      2602        22  PMPE      H2S            20.1037446857        1.4981870794       14.4053912945  MEMB      22              0.0000000000
      2603        22  PMPE      C3             24.6512652221        0.6849858499       15.8801776762  MEMB      22              0.0000000000
      2604        22  PMPE      HX             25.2192249329        0.0550742930       16.5792781420  MEMB      22              0.0000000000
      2605        22  PMPE      HY             25.3398327173        1.4391653659       15.4552196944  MEMB      22              0.0000000000
      2606        22  PMPE      O31            24.2671349731       -0.2194848764       14.9169777013  MEMB      22              0.0000000000
      2607        22  PMPE      C31            24.1063226276        0.3179820912       13.7066856594  MEMB      22              0.0000000000
      2608        22  PMPE      O32            24.4543501315        1.3667493801       13.2466063290  MEMB      22              0.0000000000
      2609        22  PMPE      C32            23.5014297515       -0.5023857016       12.7916535036  MEMB      22              0.0000000000
      2610        22  PMPE      H2X            22.5205811941       -1.0127910847       12.7020034475  MEMB      22              0.0000000000
      2611        22  PMPE      H2Y            24.0083854518       -1.3602013391       13.3894313329  MEMB      22              0.0000000000
      2612        22  PMPE      C23            21.1200338991        3.0184067136       13.1979608802  MEMB      22              0.0000000000
      2613        22  PMPE      H3R            21.9916576517        2.3770008880       12.9256853102  MEMB      22              0.0000000000
      2614        22  PMPE      H3S            21.5209916032        4.0281041676       13.4442637854  MEMB      22              0.0000000000
      2615        22  PMPE      C24            20.0956458595        3.0478144983       12.0424015655  MEMB      22              0.0000000000
      2616        22  PMPE      H4R            20.3994370704        3.7322332871       11.2305753648  MEMB      22              0.0000000000
      2617        22  PMPE      H4S            19.1139224253        3.4458259447       12.3609729592  MEMB      22              0.0000000000
      2618        22  PMPE      C25            19.8330193235        1.6459576846       11.4955292604  MEMB      22              0.0000000000
      2619        22  PMPE      H5R            19.6664701315        1.0461585202       12.4198125547  MEMB      22              0.0000000000
      2620        22  PMPE      H5S            20.7057768654        1.2636300701       10.9239433434  MEMB      22              0.0000000000
      2621        22  PMPE      C26            18.5964643248        1.5167240711       10.6127566713  MEMB      22              0.0000000000
      2622        22  PMPE      H6R            17.7148511439        1.9122785354       11.1417869177  MEMB      22              0.0000000000
      2623        22  PMPE      H6S            18.4526601927        0.4645380959       10.5060933544  MEMB      22              0.0000000000
      2624        22  PMPE      C27            18.7063952232        2.1300834609        9.2194482514  MEMB      22              0.0000000000
      2625        22  PMPE      H7R            18.8701766718        3.2068118953        9.4080429145  MEMB      22              0.0000000000
      2626        22  PMPE      H7S            17.7151196591        2.0455021306        8.7250944414  MEMB      22              0.0000000000
      2627        22  PMPE      C28            19.8789762496        1.5510698514        8.4110087419  MEMB      22              0.0000000000
      2628        22  PMPE      H8R            20.8449093255        1.7903294170        8.9095035596  MEMB      22              0.0000000000
      2629        22  PMPE      H8S            19.9910057421        2.0351092099        7.4225528842  MEMB      22              0.0000000000
      2630        22  PMPE      C29            19.7265768104        0.0500653328        8.2419521053  MEMB      22              0.0000000000
      2631        22  PMPE      H9R            19.5987966606       -0.6171019690        9.1161864753  MEMB      22              0.0000000000
      2632        22  PMPE      C217           20.6092407320       -0.4607516736        7.1520011669  MEMB      22              0.0000000000
      2633        22  PMPE      H17R           20.7899477206       -1.4829292128        7.2434269383  MEMB      22              0.0000000000
      2634        22  PMPE      H17S           21.2431390381        0.2626734520        6.6817766086  MEMB      22              0.0000000000
      2635        22  PMPE      C210           19.1275086823       -0.5155727493        6.9680173447  MEMB      22              0.0000000000
      2636        22  PMPE      H10R           18.7196622684       -1.5138800961        7.1562570479  MEMB      22              0.0000000000
      2637        22  PMPE      C211           18.4172261436        0.3980054656        5.9671662870  MEMB      22              0.0000000000
      2638        22  PMPE      H11R           19.0690815266        1.1274887950        5.4489522872  MEMB      22              0.0000000000
      2639        22  PMPE      H11S           17.6412329438        0.9704347497        6.5006648109  MEMB      22              0.0000000000
      2640        22  PMPE      C212           17.6306103934       -0.4230360983        4.9245411578  MEMB      22              0.0000000000
      2641        22  PMPE      H12R           17.1236584399       -1.2492758138        5.4686666275  MEMB      22              0.0000000000
      2642        22  PMPE      H12S           18.3570575002       -0.8972665576        4.2410644018  MEMB      22              0.0000000000
      2643        22  PMPE      C213           16.5118176234        0.2714383950        4.1016520395  MEMB      22              0.0000000000
      2644        22  PMPE      H13R           15.8399087648        0.9362801080        4.6828942546  MEMB      22              0.0000000000
      2645        22  PMPE      H13S           15.8528638974       -0.5611284860        3.7629895895  MEMB      22              0.0000000000
      2646        22  PMPE      C214           16.9448342669        0.9306612733        2.7811134705  MEMB      22              0.0000000000
      2647        22  PMPE      H14R           16.0171796368        1.2127597260        2.2291181759  MEMB      22              0.0000000000
      2648        22  PMPE      H14S           17.5476665539        0.2191411297        2.1819153148  MEMB      22              0.0000000000
      2649        22  PMPE      C215           17.8123610351        2.1508196213        2.9326856824  MEMB      22              0.0000000000
      2650        22  PMPE      H15R           18.2261417582        2.5425634324        1.9719554108  MEMB      22              0.0000000000
      2651        22  PMPE      H15S           18.6938652418        1.8645552029        3.5451138807  MEMB      22              0.0000000000
      2652        22  PMPE      C216           17.0722846213        3.2686104552        3.5686796571  MEMB      22              0.0000000000
      2653        22  PMPE      H16R           16.2632042970        3.7281405480        2.9765448769  MEMB      22              0.0000000000
      2654        22  PMPE      H16S           16.6050552748        3.1002378244        4.5544608634  MEMB      22              0.0000000000
      2655        22  PMPE      H16T           17.8962184268        3.9871879017        3.7266928053  MEMB      22              0.0000000000
      2656        22  PMPE      C33            24.1520936271       -0.0238567486       11.2450979465  MEMB      22              0.0000000000
      2657        22  PMPE      H3X            25.2311042080       -0.0127582398       11.2186376396  MEMB      22              0.0000000000
      2658        22  PMPE      H3Y            23.5729152967        0.7671249242       10.8975695147  MEMB      22              0.0000000000
      2659        22  PMPE      C34            24.0633876700       -0.7286614825        9.8079835279  MEMB      22              0.0000000000
      2660        22  PMPE      H4X            23.2281287952       -1.0118397979       10.6243263706  MEMB      22              0.0000000000
      2661        22  PMPE      H4Y            24.8271227820       -1.6630849683        9.2652913359  MEMB      22              0.0000000000
      2662        22  PMPE      C35            23.9516512648       -0.3712074649        8.4732153921  MEMB      22              0.0000000000
      2663        22  PMPE      H5X            24.9834004483       -0.0961571246        8.2786937867  MEMB      22              0.0000000000
      2664        22  PMPE      H5Y            22.9524863755       -0.0827495183        8.3325054767  MEMB      22              0.0000000000
      2665        22  PMPE      C36            23.7205699790       -1.2421818583        7.3256759538  MEMB      22              0.0000000000
      2666        22  PMPE      H6X            22.7012865613       -1.5580617826        6.8693407857  MEMB      22              0.0000000000
      2667        22  PMPE      H6Y            24.1994414131       -1.9873228217        7.8441784346  MEMB      22              0.0000000000
      2668        22  PMPE      C37            24.1849728448       -1.2633120234        6.0065699098  MEMB      22              0.0000000000
      2669        22  PMPE      H7X            24.2984181661       -2.2465910252        5.3925131857  MEMB      22              0.0000000000
      2670        22  PMPE      H7Y            25.0700190380       -0.7677026194        6.2485343020  MEMB      22              0.0000000000
      2671        22  PMPE      C38            23.3331284614       -0.5108182549        5.2415337148  MEMB      22              0.0000000000
      2672        22  PMPE      H8X            23.1412558088        0.2615764569        6.0010879149  MEMB      22              0.0000000000
      2673        22  PMPE      H8Y            22.4657811689       -1.1041964369        4.9371236534  MEMB      22              0.0000000000
      2674        22  PMPE      C39            24.0125343478        0.0542432777        4.1117804496  MEMB      22              0.0000000000
      2675        22  PMPE      H9X            24.1342537376       -0.6201868787        3.2419288387  MEMB      22              0.0000000000
      2676        22  PMPE      H9Y            24.9729825767        0.4307836002        4.5384457689  MEMB      22              0.0000000000
      2677        22  PMPE      C310           23.3409545629        1.2699941708        3.6308080078  MEMB      22              0.0000000000
      2678        22  PMPE      H10X           24.0022250302        1.7521393817        2.9001534610  MEMB      22              0.0000000000
      2679        22  PMPE      H10Y           23.1993444367        1.9929094138        4.4497465883  MEMB      22              0.0000000000
      2680        22  PMPE      C311           22.0116329274        1.0845296152        2.9807520490  MEMB      22              0.0000000000
      2681        22  PMPE      H11X           21.7286570696        2.1109567326        2.7017384775  MEMB      22              0.0000000000
      2682        22  PMPE      H11Y           21.2545691081        0.7492839102        3.7211298725  MEMB      22              0.0000000000
      2683        22  PMPE      C312           22.0013250820        0.2315760730        1.7618524671  MEMB      22              0.0000000000
      2684        22  PMPE      H12X           22.2690738914       -0.7661238676        2.1714294811  MEMB      22              0.0000000000
      2685        22  PMPE      H12Y           22.7800475884        0.3640420492        0.9771908727  MEMB      22              0.0000000000
      2686        22  PMPE      C313           20.5562305416        0.3398612050        1.2572839218  MEMB      22              0.0000000000
      2687        22  PMPE      H13X           20.2021323879        1.3413505933        1.2182946687  MEMB      22              0.0000000000
      2688        22  PMPE      H13Y           19.8593310011       -0.1723710387        1.9515867667  MEMB      22              0.0000000000
      2689        22  PMPE      C314           20.3418611772       -0.1069145423       -0.1946716891  MEMB      22              0.0000000000
      2690        22  PMPE      H14X           19.3242245234       -0.2735054457       -0.5357269062  MEMB      22              0.0000000000
      2691        22  PMPE      H14Y           20.9027621863       -0.9266197079       -0.4110747256  MEMB      22              0.0000000000
      2692        22  PMPE      C315           21.4192783407       -0.0193329347       -1.2837176527  MEMB      22              0.0000000000
      2693        22  PMPE      H15X           22.4668481608       -0.0648134458       -1.0879715985  MEMB      22              0.0000000000
      2694        22  PMPE      H15Y           21.0782523118        0.8015000096       -0.6298895470  MEMB      22              0.0000000000
      2695        22  PMPE      C316           21.1073647732       -0.0669678322       -2.8942860851  MEMB      22              0.0000000000
      2696        22  PMPE      H16X           20.0261072020        0.2594729045       -3.0209722958  MEMB      22              0.0000000000
      2697        22  PMPE      H16Y           21.2349492329       -1.0616827970       -3.1895412451  MEMB      22              0.0000000000
      2698        22  PMPE      H16Z           21.6300156975        0.6950491116       -3.5208105107  MEMB      22              0.0000000000
      2699        23  PYPG      C13           -22.7603990692       -0.0915058105       20.0218852865  MEMB      23              0.0000000000
      2700        23  PYPG      H13A          -22.0709911256        0.6623989517       19.5997076811  MEMB      23              0.0000000000
      2701        23  PYPG      H13B          -23.7862501850        0.2926392430       19.8544834400  MEMB      23              0.0000000000
      2702        23  PYPG      OC3           -22.5375895122       -0.0760748532       21.4173415808  MEMB      23              0.0000000000
      2703        23  PYPG      HO3           -21.8437461477        0.5687582690       21.5302955919  MEMB      23              0.0000000000
      2704        23  PYPG      C12           -22.4700044074       -1.5012985645       19.4408642196  MEMB      23              0.0000000000
      2705        23  PYPG      H12A          -22.6491421996       -1.4736150024       18.3506020461  MEMB      23              0.0000000000
      2706        23  PYPG      OC2           -23.3275749656       -2.4763246294       20.0140172321  MEMB      23              0.0000000000
      2707        23  PYPG      HO2           -22.9498129914       -3.3079739886       19.7325920546  MEMB      23              0.0000000000
      2708        23  PYPG      C11           -21.0198428520       -1.9873908996       19.6551060308  MEMB      23              0.0000000000
      2709        23  PYPG      H11A          -20.9401599289       -3.0915872634       19.4972418994  MEMB      23              0.0000000000
      2710        23  PYPG      H11B          -20.8577764732       -1.8636269337       20.7459938321  MEMB      23              0.0000000000
      2711        23  PYPG      P             -19.0271202362       -1.9567167324       17.9035219793  MEMB      23              0.0000000000
      2712        23  PYPG      O13           -19.7561831605       -3.0184044512       17.1578751204  MEMB      23              0.0000000000
      2713        23  PYPG      O14           -17.8979724533       -2.3671527914       18.7446609576  MEMB      23              0.0000000000
      2714        23  PYPG      O11           -18.5404898440       -0.8918602903       16.8659338910  MEMB      23              0.0000000000
      2715        23  PYPG      O12           -20.0972629244       -1.2052444099       18.8609490380  MEMB      23              0.0000000000
      2716        23  PYPG      C1            -19.3695636167        0.1368031543       16.3731638585  MEMB      23              0.0000000000
      2717        23  PYPG      HA            -18.7137460527        0.9722025534       16.0611985563  MEMB      23              0.0000000000
      2718        23  PYPG      HB            -20.0203469903        0.5676266692       17.1514315259  MEMB      23              0.0000000000
      2719        23  PYPG      C2            -20.2344682826       -0.3296319503       15.1971151443  MEMB      23              0.0000000000
      2720        23  PYPG      HS            -21.0454466766       -0.9796823002       15.6358587606  MEMB      23              0.0000000000
      2721        23  PYPG      O21           -19.3424022278       -1.0036358780       14.2953438151  MEMB      23              0.0000000000
      2722        23  PYPG      C21           -19.8899404152       -1.8696603888       13.5483066805  MEMB      23              0.0000000000
      2723        23  PYPG      O22           -21.0399296160       -2.1820010843       13.5475172767  MEMB      23              0.0000000000
      2724        23  PYPG      C22           -18.9214285303       -2.6587669052       12.8374934775  MEMB      23              0.0000000000
      2725        23  PYPG      H2R           -19.3343058030       -3.2315104354       11.9685219968  MEMB      23              0.0000000000
      2726        23  PYPG      H2S           -18.9439525932       -3.2572468589       13.8020392303  MEMB      23              0.0000000000
      2727        23  PYPG      C3            -20.8740791216        0.8987584357       14.5188036677  MEMB      23              0.0000000000
      2728        23  PYPG      HX            -21.5289814970        1.3833002635       15.2788376601  MEMB      23              0.0000000000
      2729        23  PYPG      HY            -21.4283382758        0.5853537826       13.6073153798  MEMB      23              0.0000000000
      2730        23  PYPG      O31           -19.8709452045        1.8246361383       14.1543644945  MEMB      23              0.0000000000
      2731        23  PYPG      C31           -20.3736641691        2.8845812748       13.6663995678  MEMB      23              0.0000000000
      2732        23  PYPG      O32           -21.5324195996        3.2219925769       13.5125699626  MEMB      23              0.0000000000
      2733        23  PYPG      C32           -19.2682963100        3.6277398273       13.2545323448  MEMB      23              0.0000000000
      2734        23  PYPG      H2X           -19.5978834355        4.5501206499       13.7968108924  MEMB      23              0.0000000000
      2735        23  PYPG      H2Y           -18.2778118104        3.5431208188       13.7816428541  MEMB      23              0.0000000000
      2736        23  PYPG      C23           -17.4879239082       -2.2116501400       12.5122904910  MEMB      23              0.0000000000
      2737        23  PYPG      H3R           -16.8995117606       -2.9915285194       11.9672399943  MEMB      23              0.0000000000
      2738        23  PYPG      H3S           -16.9017577737       -2.1224069394       13.4485426496  MEMB      23              0.0000000000
      2739        23  PYPG      C24           -17.5663291641       -0.9948795953       11.6086482598  MEMB      23              0.0000000000
      2740        23  PYPG      H4R           -18.2375083652       -0.2425524939       12.0654087905  MEMB      23              0.0000000000
      2741        23  PYPG      H4S           -18.0010281419       -1.2487042205       10.6107772235  MEMB      23              0.0000000000
      2742        23  PYPG      C25           -16.2351994977       -0.2823618491       11.4719133619  MEMB      23              0.0000000000
      2743        23  PYPG      H5R           -15.7047045832       -0.2497020001       12.4459048585  MEMB      23              0.0000000000
      2744        23  PYPG      H5S           -16.4399715159        0.7608432572       11.1398267955  MEMB      23              0.0000000000
      2745        23  PYPG      C26           -15.3792644495       -0.9762113638       10.4556688390  MEMB      23              0.0000000000
      2746        23  PYPG      H6R           -15.2110185877       -2.0326413566       10.6871040206  MEMB      23              0.0000000000
      2747        23  PYPG      H6S           -14.3958475331       -0.4707814932       10.3535855831  MEMB      23              0.0000000000
      2748        23  PYPG      C27           -15.9908517374       -0.8688671651        9.1069885628  MEMB      23              0.0000000000
      2749        23  PYPG      H7R           -15.8004409323        0.2483060037        9.0677382656  MEMB      23              0.0000000000
      2750        23  PYPG      H7S           -17.0005700371       -0.8266484701        8.7876850202  MEMB      23              0.0000000000
      2751        23  PYPG      C28           -15.4706634733       -1.9179998749        8.0370737581  MEMB      23              0.0000000000
      2752        23  PYPG      H8R           -15.8374962964       -2.8949535950        8.0533756769  MEMB      23              0.0000000000
      2753        23  PYPG      H8S           -14.4953685515       -2.0588595974        8.5285418565  MEMB      23              0.0000000000
      2754        23  PYPG      C29           -15.3520455296       -1.6739264986        6.4969693238  MEMB      23              0.0000000000
      2755        23  PYPG      H9R           -14.3950328723       -1.2737612264        6.1409292257  MEMB      23              0.0000000000
      2756        23  PYPG      C210          -15.7809496506       -1.8696118466        5.3324440374  MEMB      23              0.0000000000
      2757        23  PYPG      H10R          -15.6167601728       -1.2190952881        4.4301627765  MEMB      23              0.0000000000
      2758        23  PYPG      C211          -16.8272895563       -2.6688037120        5.3864396119  MEMB      23              0.0000000000
      2759        23  PYPG      H11R          -17.7672634577       -2.2701312195        5.0880194817  MEMB      23              0.0000000000
      2760        23  PYPG      H11S          -16.6798612104       -3.3876584556        6.2491866618  MEMB      23              0.0000000000
      2761        23  PYPG      C212          -16.1671258966       -3.1362829102        4.2320284062  MEMB      23              0.0000000000
      2762        23  PYPG      H12R          -17.1177605781       -3.8267910854        4.5889896506  MEMB      23              0.0000000000
      2763        23  PYPG      H12S          -15.1455258427       -3.7202450281        4.4392155964  MEMB      23              0.0000000000
      2764        23  PYPG      C213          -16.3315980605       -2.8070137422        2.6156086061  MEMB      23              0.0000000000
      2765        23  PYPG      H13R          -15.9210303704       -3.5824072857        1.8284848260  MEMB      23              0.0000000000
      2766        23  PYPG      H13S          -15.6779878368       -1.9965557680        2.3817498989  MEMB      23              0.0000000000
      2767        23  PYPG      C214          -17.8010115250       -2.7505173463        2.1835154787  MEMB      23              0.0000000000
      2768        23  PYPG      H14R          -18.5286720102       -3.3420748503        2.8133400847  MEMB      23              0.0000000000
      2769        23  PYPG      H14S          -18.1248155057       -1.7250914740        2.3062024907  MEMB      23              0.0000000000
      2770        23  PYPG      C215          -18.0573287746       -3.3024948721        0.8031900396  MEMB      23              0.0000000000
      2771        23  PYPG      H15R          -19.0873720019       -3.2059769674        0.8340056535  MEMB      23              0.0000000000
      2772        23  PYPG      H15S          -17.8936560394       -4.3750097722        0.6440969202  MEMB      23              0.0000000000
      2773        23  PYPG      C216          -17.7227405317       -2.3874182648       -0.3066844613  MEMB      23              0.0000000000
      2774        23  PYPG      H16R          -17.9850469706       -2.7372316784       -1.3176168605  MEMB      23              0.0000000000
      2775        23  PYPG      H16S          -16.6718237818       -2.2392542345       -0.2931817371  MEMB      23              0.0000000000
      2776        23  PYPG      H16T          -18.2663607436       -1.4603688537       -0.0645051046  MEMB      23              0.0000000000
      2777        23  PYPG      C33           -19.3112153500        3.8610474693       11.6472392367  MEMB      23              0.0000000000
      2778        23  PYPG      H3X           -18.4624886439        4.3779294722       11.1244005444  MEMB      23              0.0000000000
      2779        23  PYPG      H3Y           -19.9568296961        4.7251834296       11.4114934630  MEMB      23              0.0000000000
      2780        23  PYPG      C34           -19.1444567614        2.7280823179       10.8108706551  MEMB      23              0.0000000000
      2781        23  PYPG      H4X           -18.7589550491        1.9776556264       11.5132301077  MEMB      23              0.0000000000
      2782        23  PYPG      H4Y           -18.3380130670        2.9068812563       10.0586173715  MEMB      23              0.0000000000
      2783        23  PYPG      C35           -20.5098370440        2.5684069374       10.2374789637  MEMB      23              0.0000000000
      2784        23  PYPG      H5X           -20.9879816560        3.5568788809        9.9914596775  MEMB      23              0.0000000000
      2785        23  PYPG      H5Y           -21.1724082154        2.0611472337       10.9676856737  MEMB      23              0.0000000000
      2786        23  PYPG      C36           -20.4175165674        1.6932571097        9.0280855509  MEMB      23              0.0000000000
      2787        23  PYPG      H6X           -21.4442802883        1.5590896898        8.6337772036  MEMB      23              0.0000000000
      2788        23  PYPG      H6Y           -20.0312469417        0.6982796029        9.3453255499  MEMB      23              0.0000000000
      2789        23  PYPG      C37           -19.5249827141        2.2889755682        7.9450593452  MEMB      23              0.0000000000
      2790        23  PYPG      H7X           -19.7090725693        3.3843791199        7.8382537318  MEMB      23              0.0000000000
      2791        23  PYPG      H7Y           -18.4471782106        2.1882722999        8.2005899263  MEMB      23              0.0000000000
      2792        23  PYPG      C38           -19.7600204056        1.6042156285        6.6068258129  MEMB      23              0.0000000000
      2793        23  PYPG      H8X           -20.8421324521        1.6746098853        6.3631153899  MEMB      23              0.0000000000
      2794        23  PYPG      H8Y           -19.4930224582        0.5268267906        6.6788937332  MEMB      23              0.0000000000
      2795        23  PYPG      C39           -18.9662124734        2.3408539797        5.5397135379  MEMB      23              0.0000000000
      2796        23  PYPG      H9X           -17.9025406701        2.2649268720        5.7952299970  MEMB      23              0.0000000000
      2797        23  PYPG      H9Y           -19.2080457822        3.4082588881        5.6603687352  MEMB      23              0.0000000000
      2798        23  PYPG      C310          -19.4059310018        2.0157001728        4.1231027536  MEMB      23              0.0000000000
      2799        23  PYPG      H10X          -20.3243120467        2.5325584717        3.8298706551  MEMB      23              0.0000000000
      2800        23  PYPG      H10Y          -19.5519951233        0.9322280511        4.0138402040  MEMB      23              0.0000000000
      2801        23  PYPG      C311          -18.4772788528        2.3277244743        3.0585770551  MEMB      23              0.0000000000
      2802        23  PYPG      H11X          -17.8724977943        1.3679302499        2.9838290875  MEMB      23              0.0000000000
      2803        23  PYPG      H11Y          -17.9295176792        3.1785529282        3.2920608379  MEMB      23              0.0000000000
      2804        23  PYPG      C312          -18.9406009795        3.2061238095        1.8652640889  MEMB      23              0.0000000000
      2805        23  PYPG      H12X          -19.8496753961        2.7042412524        1.5402855920  MEMB      23              0.0000000000
      2806        23  PYPG      H12Y          -19.3445801210        4.1392089836        2.0776491186  MEMB      23              0.0000000000
      2807        23  PYPG      C313          -17.9792746610        3.2872713098        0.6793257094  MEMB      23              0.0000000000
      2808        23  PYPG      H13X          -17.5156442215        4.2542504794        0.3777630619  MEMB      23              0.0000000000
      2809        23  PYPG      H13Y          -17.3004360293        2.3633955322        0.7262465222  MEMB      23              0.0000000000
      2810        23  PYPG      C314          -18.4125934104        3.0598859785       -0.4180006064  MEMB      23              0.0000000000
      2811        23  PYPG      H14X          -19.3957880848        3.5804923891       -0.5354834514  MEMB      23              0.0000000000
      2812        23  PYPG      H14Y          -18.1631292746        3.2132059590       -1.1961930748  MEMB      23              0.0000000000
      2813        23  PYPG      C315          -17.7314565184        1.6774612193       -1.1064623703  MEMB      23              0.0000000000
      2814        23  PYPG      H15X          -17.9189205718        0.5828917064       -0.7770795690  MEMB      23              0.0000000000
      2815        23  PYPG      H15Y          -18.5596476518        1.8569896047       -2.0126948790  MEMB      23              0.0000000000
      2816        23  PYPG      C316          -17.2567452956        1.1691792515       -2.0902813975  MEMB      23              0.0000000000
      2817        23  PYPG      H16X          -17.5207117171        0.3619610802       -2.6733695796  MEMB      23              0.0000000000
      2818        23  PYPG      H16Y          -16.5598083415        1.0843886683       -1.3900623951  MEMB      23              0.0000000000
      2819        23  PYPG      H16Z          -16.5748133933        1.5872022042       -2.6767296588  MEMB      23              0.0000000000
      2820        24  PVCL2     C3             14.3329052342      -16.4649443923       21.3979780544  MEMB      24              0.0000000000
      2821        24  PVCL2     HG31           14.1970104990      -16.7008949555       20.3213949768  MEMB      24              0.0000000000
      2822        24  PVCL2     HG32           13.8004388411      -17.2159713301       22.0051894006  MEMB      24              0.0000000000
      2823        24  PVCL2     P3             12.3580588755      -14.9000798355       21.9125562670  MEMB      24              0.0000000000
      2824        24  PVCL2     OP33           12.1868405158      -13.4593626545       22.2211808771  MEMB      24              0.0000000000
      2825        24  PVCL2     OP34           11.8360720043      -15.8470904738       22.9343771668  MEMB      24              0.0000000000
      2826        24  PVCL2     OP31           13.9050063907      -15.1564988761       21.7458393729  MEMB      24              0.0000000000
      2827        24  PVCL2     OP32           11.7966736327      -15.2440093825       20.4398498632  MEMB      24              0.0000000000
      2828        24  PVCL2     C31            11.9910029302      -14.2542502296       19.3992863313  MEMB      24              0.0000000000
      2829        24  PVCL2     H31J           11.4554618847      -13.3071352650       19.6613644867  MEMB      24              0.0000000000
      2830        24  PVCL2     H31K           13.0835668555      -14.0679894779       19.2443256101  MEMB      24              0.0000000000
      2831        24  PVCL2     C2             15.8124813562      -16.5294312868       21.7185247996  MEMB      24              0.0000000000
      2832        24  PVCL2     HG22           15.8793735801      -15.9464481288       22.6758579522  MEMB      24              0.0000000000
      2833        24  PVCL2     OG12           16.1938712453      -17.9162170049       21.8326727464  MEMB      24              0.0000000000
      2834        24  PVCL2     HO12           16.9562557123      -17.9812993093       22.3960734999  MEMB      24              0.0000000000
      2835        24  PVCL2     C1             16.6474597285      -15.7740430932       20.6505528056  MEMB      24              0.0000000000
      2836        24  PVCL2     HG11           17.7233970405      -15.9048183656       20.8937238471  MEMB      24              0.0000000000
      2837        24  PVCL2     HG12           16.3581401213      -14.7053652550       20.7805307801  MEMB      24              0.0000000000
      2838        24  PVCL2     P1             16.5212194858      -15.2837007965       18.0597041344  MEMB      24              0.0000000000
      2839        24  PVCL2     OP13           15.5363177663      -14.1929561219       18.1935575562  MEMB      24              0.0000000000
      2840        24  PVCL2     OP14           17.9425511850      -14.9144993385       17.9537363491  MEMB      24              0.0000000000
      2841        24  PVCL2     OP11           16.3702695881      -16.2377004160       19.3153292673  MEMB      24              0.0000000000
      2842        24  PVCL2     OP12           16.1130275643      -16.1917881192       16.8262175670  MEMB      24              0.0000000000
      2843        24  PVCL2     C11            15.1619852828      -17.2412615893       17.0128590016  MEMB      24              0.0000000000
      2844        24  PVCL2     H11J           14.2682846365      -16.8912284270       17.5888176913  MEMB      24              0.0000000000
      2845        24  PVCL2     H11K           15.6250783752      -18.0433681559       17.6297647140  MEMB      24              0.0000000000
      2846        24  PVCL2     C12            14.6948586726      -17.8731352846       15.6546258998  MEMB      24              0.0000000000
      2847        24  PVCL2     H12J           14.0364477313      -18.7285687792       15.9329170460  MEMB      24              0.0000000000
      2848        24  PVCL2     O12            15.7551323651      -18.3832689277       14.8864494170  MEMB      24              0.0000000000
      2849        24  PVCL2     CA1            16.1568721811      -19.4754385296       15.3099354787  MEMB      24              0.0000000000
      2850        24  PVCL2     OA1            15.8040759384      -20.1647404177       16.2568750834  MEMB      24              0.0000000000
      2851        24  PVCL2     CA2            17.2001819347      -19.7166306475       14.3985466107  MEMB      24              0.0000000000
      2852        24  PVCL2     H2A            17.7888408834      -19.9634576114       15.2801445195  MEMB      24              0.0000000000
      2853        24  PVCL2     H2B            17.9006804685      -18.9573304490       14.0943488748  MEMB      24              0.0000000000
      2854        24  PVCL2     C13            14.0030936463      -16.8946764460       14.6753300840  MEMB      24              0.0000000000
      2855        24  PVCL2     H13J           14.6549266772      -15.9949795679       14.5864911319  MEMB      24              0.0000000000
      2856        24  PVCL2     H13K           13.0502757230      -16.4807857356       15.0561619337  MEMB      24              0.0000000000
      2857        24  PVCL2     O13            13.9217017110      -17.4481942174       13.3431750738  MEMB      24              0.0000000000
      2858        24  PVCL2     CB1            13.0972908752      -18.4326156981       13.0629953383  MEMB      24              0.0000000000
      2859        24  PVCL2     OB1            12.2357305786      -18.8955226896       13.7896534730  MEMB      24              0.0000000000
      2860        24  PVCL2     CB2            13.3762009035      -18.8692476224       11.6213839587  MEMB      24              0.0000000000
      2861        24  PVCL2     H2D            14.4710443005      -18.8332676698       11.4752479203  MEMB      24              0.0000000000
      2862        24  PVCL2     H2E            12.9695665150      -18.0848723527       10.9472677648  MEMB      24              0.0000000000
      2863        24  PVCL2     C32            11.3038444691      -14.6110932418       18.0273482954  MEMB      24              0.0000000000
      2864        24  PVCL2     H32J           10.2095602933      -14.5194453446       18.1604697890  MEMB      24              0.0000000000
      2865        24  PVCL2     O32            11.6692471429      -15.9331004361       17.5650171354  MEMB      24              0.0000000000
      2866        24  PVCL2     CC1            10.9398706392      -16.9365978938       18.0619186842  MEMB      24              0.0000000000
      2867        24  PVCL2     OC1            10.1192004534      -16.8582065638       18.9624757669  MEMB      24              0.0000000000
      2868        24  PVCL2     CC2            11.1203756284      -18.2385393501       17.2343038319  MEMB      24              0.0000000000
      2869        24  PVCL2     H2R            12.2156454462      -18.4354730130       17.1369674841  MEMB      24              0.0000000000
      2870        24  PVCL2     H2S            10.6799308364      -18.1240410170       16.2218188896  MEMB      24              0.0000000000
      2871        24  PVCL2     C33            11.5946619295      -13.5922859788       16.8640557623  MEMB      24              0.0000000000
      2872        24  PVCL2     H33J           11.0590209093      -13.9040524920       15.9345332599  MEMB      24              0.0000000000
      2873        24  PVCL2     H33K           11.2128217736      -12.5995778259       17.1956207718  MEMB      24              0.0000000000
      2874        24  PVCL2     O33            12.9884126934      -13.5287742591       16.5832465819  MEMB      24              0.0000000000
      2875        24  PVCL2     CD1            13.4064150313      -12.6809983675       15.6542036310  MEMB      24              0.0000000000
      2876        24  PVCL2     OD1            12.7246259017      -11.8494207677       15.0852711761  MEMB      24              0.0000000000
      2877        24  PVCL2     CD2            14.9056100653      -12.8724308879       15.4352754174  MEMB      24              0.0000000000
      2878        24  PVCL2     H2X            15.0747928829      -13.9607492175       15.5848302372  MEMB      24              0.0000000000
      2879        24  PVCL2     H2Y            15.4292907820      -12.2712901469       16.2087071311  MEMB      24              0.0000000000
      2880        24  PVCL2     CA3            16.8466976320      -20.7459434897       13.2311885746  MEMB      24              0.0000000000
      2881        24  PVCL2     H3A            17.7829755288      -20.5509733992       12.6736456873  MEMB      24              0.0000000000
      2882        24  PVCL2     H3B            16.2295480431      -20.3096229479       12.5296982077  MEMB      24              0.0000000000
      2883        24  PVCL2     CA4            16.5141986988      -22.3101170045       13.6116677357  MEMB      24              0.0000000000
      2884        24  PVCL2     H4A            15.6993489898      -22.2853664703       14.3040375259  MEMB      24              0.0000000000
      2885        24  PVCL2     H4B            17.0509135454      -22.8675855916       14.4094561993  MEMB      24              0.0000000000
      2886        24  PVCL2     CA5            16.2845716099      -23.3489311046       12.5266456858  MEMB      24              0.0000000000
      2887        24  PVCL2     H5A            15.7095890683      -22.7974746325       11.7828699683  MEMB      24              0.0000000000
      2888        24  PVCL2     H5B            15.7250623869      -24.1012850866       13.0722853777  MEMB      24              0.0000000000
      2889        24  PVCL2     CA6            17.4021990157      -24.1976406167       11.9603425471  MEMB      24              0.0000000000
      2890        24  PVCL2     H6A            18.1748129964      -24.5028714309       12.7233735737  MEMB      24              0.0000000000
      2891        24  PVCL2     H6B            17.7984165599      -23.6673912206       11.0465802619  MEMB      24              0.0000000000
      2892        24  PVCL2     CA7            17.2424407432      -25.1847870086       10.9712719268  MEMB      24              0.0000000000
      2893        24  PVCL2     H7A            16.7200235646      -25.9093268278       11.5468504504  MEMB      24              0.0000000000
      2894        24  PVCL2     H7B            18.2187940840      -25.5365521449       10.6943397797  MEMB      24              0.0000000000
      2895        24  PVCL2     CA8            16.5956565800      -24.6567152898        9.7501319801  MEMB      24              0.0000000000
      2896        24  PVCL2     H8A            17.2104274073      -24.2569710064        8.9476939173  MEMB      24              0.0000000000
      2897        24  PVCL2     H8B            15.8004919712      -23.9198495078        9.9847242534  MEMB      24              0.0000000000
      2898        24  PVCL2     CA9            16.1576620195      -25.8251431201        9.2561809479  MEMB      24              0.0000000000
      2899        24  PVCL2     H9A            15.6484477524      -26.1569180743       10.1246580884  MEMB      24              0.0000000000
      2900        24  PVCL2     H9B            16.5917743488      -26.7985880048        8.9838352302  MEMB      24              0.0000000000
      2901        24  PVCL2     CA10           15.3667352336      -25.4680933189        8.2648530856  MEMB      24              0.0000000000
      2902        24  PVCL2     H10A           15.3584370939      -26.6415362744        7.7891101716  MEMB      24              0.0000000000
      2903        24  PVCL2     H10B           16.4166229361      -25.2186247355        7.5547722878  MEMB      24              0.0000000000
      2904        24  PVCL2     CA11           13.7623153480      -24.5448476836        8.0577364914  MEMB      24              0.0000000000
      2905        24  PVCL2     H11A           13.2148322597      -24.5377080373        8.9656425681  MEMB      24              0.0000000000
      2906        24  PVCL2     CA12           12.8337459002      -24.0985939162        6.9675689680  MEMB      24              0.0000000000
      2907        24  PVCL2     H12A           11.8084186967      -23.8192175817        7.2050612235  MEMB      24              0.0000000000
      2908        24  PVCL2     CA13           12.7874317375      -24.2307781858        5.3713047294  MEMB      24              0.0000000000
      2909        24  PVCL2     H13A           12.3427318228      -24.9853883045        4.7455521858  MEMB      24              0.0000000000
      2910        24  PVCL2     H13B           13.3248904291      -25.0490879619        4.8412296436  MEMB      24              0.0000000000
      2911        24  PVCL2     CA14           12.3951262300      -23.0902737122        4.6536421449  MEMB      24              0.0000000000
      2912        24  PVCL2     H14A           11.4568638153      -22.8448834847        5.1565548388  MEMB      24              0.0000000000
      2913        24  PVCL2     H14B           12.2021552983      -23.3418023794        3.6040804873  MEMB      24              0.0000000000
      2914        24  PVCL2     CA15           13.4483619157      -22.0560857184        4.8060818898  MEMB      24              0.0000000000
      2915        24  PVCL2     H15A           13.8776915830      -22.1028374661        5.8396359776  MEMB      24              0.0000000000
      2916        24  PVCL2     H15B           12.9329834515      -21.1086278025        4.6023157814  MEMB      24              0.0000000000
      2917        24  PVCL2     CA16           14.6148764133      -22.1188883046        3.8290933282  MEMB      24              0.0000000000
      2918        24  PVCL2     H16A           15.1501435924      -23.0267625743        3.8931892994  MEMB      24              0.0000000000
      2919        24  PVCL2     H16B           15.3823225088      -21.4437556560        4.2227355923  MEMB      24              0.0000000000
      2920        24  PVCL2     CA17           14.3355802711      -21.8624514509        2.3525942183  MEMB      24              0.0000000000
      2921        24  PVCL2     H17A           13.9631076594      -20.8168676544        2.2473584741  MEMB      24              0.0000000000
      2922        24  PVCL2     H17B           13.5639342184      -22.5615820255        1.9583802054  MEMB      24              0.0000000000
      2923        24  PVCL2     CA18           15.5605476500      -22.0956426084        1.4664615704  MEMB      24              0.0000000000
      2924        24  PVCL2     H18A           16.4523159614      -21.5564602805        1.8205004276  MEMB      24              0.0000000000
      2925        24  PVCL2     H18B           15.3079360896      -21.7820923326        0.4367421123  MEMB      24              0.0000000000
      2926        24  PVCL2     H18C           15.8679235973      -23.1550069409        1.4233675054  MEMB      24              0.0000000000
      2927        24  PVCL2     CB3            12.7840935795      -20.2728880303       11.3470559338  MEMB      24              0.0000000000
      2928        24  PVCL2     H3D            11.7293976283      -20.2669025582       11.6775502829  MEMB      24              0.0000000000
      2929        24  PVCL2     H3E            13.3028346306      -21.0687279547       11.9304688689  MEMB      24              0.0000000000
      2930        24  PVCL2     CB4            12.6748620010      -20.6321323522        9.8635534514  MEMB      24              0.0000000000
      2931        24  PVCL2     H4D            12.5061632302      -19.7041740794        9.2804542604  MEMB      24              0.0000000000
      2932        24  PVCL2     H4E            11.7663430756      -21.2493956787        9.6852322822  MEMB      24              0.0000000000
      2933        24  PVCL2     CB5            13.8772626492      -21.3896024609        9.3682275485  MEMB      24              0.0000000000
      2934        24  PVCL2     H5D            13.7317693913      -21.7967030402        8.3458548474  MEMB      24              0.0000000000
      2935        24  PVCL2     H5E            14.1296762858      -22.2680812331        9.9956454604  MEMB      24              0.0000000000
      2936        24  PVCL2     CB6            15.0708993252      -20.5637208702        9.3119875907  MEMB      24              0.0000000000
      2937        24  PVCL2     H6D            15.5680786081      -20.6214334178       10.3481387764  MEMB      24              0.0000000000
      2938        24  PVCL2     H6E            14.9380263227      -19.5079544713        9.0120808032  MEMB      24              0.0000000000
      2939        24  PVCL2     CB7            15.8419488389      -21.3538526219        8.1824667492  MEMB      24              0.0000000000
      2940        24  PVCL2     H7D            15.7071060890      -21.0087818967        7.1371514588  MEMB      24              0.0000000000
      2941        24  PVCL2     H7E            16.1824247044      -22.3403730937        8.4883825244  MEMB      24              0.0000000000
      2942        24  PVCL2     CB8            17.1113052445      -21.0733898406        8.0259597209  MEMB      24              0.0000000000
      2943        24  PVCL2     H8D            16.9151739886      -20.7725618058        9.1450628625  MEMB      24              0.0000000000
      2944        24  PVCL2     H8E            16.9939893354      -20.1230072108        8.0330204949  MEMB      24              0.0000000000
      2945        24  PVCL2     CB9            18.5310657691      -21.8135977914        7.5627740540  MEMB      24              0.0000000000
      2946        24  PVCL2     H9D            18.6762900564      -22.7381014167        8.1019002500  MEMB      24              0.0000000000
      2947        24  PVCL2     H9E            19.5956813563      -21.4494913295        7.8766659918  MEMB      24              0.0000000000
      2948        24  PVCL2     CB10           18.6550115544      -21.7005690627        6.1236216451  MEMB      24              0.0000000000
      2949        24  PVCL2     H10D           17.7762524967      -22.1544655339        5.8166930823  MEMB      24              0.0000000000
      2950        24  PVCL2     H10E           19.4540303365      -22.3875863471        5.9894736357  MEMB      24              0.0000000000
      2951        24  PVCL2     CB11           18.8329699397      -20.3738076457        5.3851496854  MEMB      24              0.0000000000
      2952        24  PVCL2     H11D           19.8343745722      -19.9662623153        5.6753935090  MEMB      24              0.0000000000
      2953        24  PVCL2     H11E           18.1174892831      -19.6467685063        5.8092013987  MEMB      24              0.0000000000
      2954        24  PVCL2     CB12           18.5875578718      -20.4365096150        3.9030279082  MEMB      24              0.0000000000
      2955        24  PVCL2     H12D           17.5766264977      -20.1897287022        3.6301529874  MEMB      24              0.0000000000
      2956        24  PVCL2     H12E           18.9365528322      -21.3828559292        3.5329272531  MEMB      24              0.0000000000
      2957        24  PVCL2     CB13           19.2435304675      -19.4598749594        3.0552681969  MEMB      24              0.0000000000
      2958        24  PVCL2     H13D           20.2048382646      -19.7997463410        3.3238886591  MEMB      24              0.0000000000
      2959        24  PVCL2     H13E           19.0768150357      -18.5060255704        3.2587949256  MEMB      24              0.0000000000
      2960        24  PVCL2     CB14           19.3003649809      -19.3489847341        1.6229420127  MEMB      24              0.0000000000
      2961        24  PVCL2     H14D           19.9453936793      -18.4064661585        1.2295827383  MEMB      24              0.0000000000
      2962        24  PVCL2     H14E           18.3096266130      -19.2156624312        1.2184477544  MEMB      24              0.0000000000
      2963        24  PVCL2     CB15           20.0683695483      -20.7100684379        1.5769631357  MEMB      24              0.0000000000
      2964        24  PVCL2     H15D           19.9884725232      -20.0015371337        0.7613191390  MEMB      24              0.0000000000
      2965        24  PVCL2     H15E           19.5876928029      -21.5947448435        1.7842924316  MEMB      24              0.0000000000
      2966        24  PVCL2     CB16           21.2776544818      -21.3796496965        1.0907163133  MEMB      24              0.0000000000
      2967        24  PVCL2     H16D           21.5545041349      -22.2163025262        0.4245445882  MEMB      24              0.0000000000
      2968        24  PVCL2     H16E           21.6271484630      -21.5868068697        2.0839972418  MEMB      24              0.0000000000
      2969        24  PVCL2     H16F           21.9180554259      -20.5803790425        0.5493078660  MEMB      24              0.0000000000
      2970        24  PVCL2     CC3            10.4304061252      -19.4793674380       17.8645806982  MEMB      24              0.0000000000
      2971        24  PVCL2     H3R            10.6459069053      -19.4622456042       18.9574082804  MEMB      24              0.0000000000
      2972        24  PVCL2     H3S            10.8960340959      -20.3879235853       17.4116131625  MEMB      24              0.0000000000
      2973        24  PVCL2     CC4             8.8968925038      -19.6886689288       17.7757431745  MEMB      24              0.0000000000
      2974        24  PVCL2     H4R             8.4930570269      -19.0368610112       18.5763834441  MEMB      24              0.0000000000
      2975        24  PVCL2     H4S             8.5879790179      -20.7509179557       17.8978194097  MEMB      24              0.0000000000
      2976        24  PVCL2     CC5             8.2409395381      -19.3768957576       16.4965341241  MEMB      24              0.0000000000
      2977        24  PVCL2     H5R             7.2959275738      -19.9467209732       16.2336637881  MEMB      24              0.0000000000
      2978        24  PVCL2     H5S             8.9938490244      -19.5044634726       15.6854462943  MEMB      24              0.0000000000
      2979        24  PVCL2     CC6             7.8276038990      -18.0174901742       16.5746578293  MEMB      24              0.0000000000
      2980        24  PVCL2     H6R             8.4422708053      -17.1292290388       16.8155972846  MEMB      24              0.0000000000
      2981        24  PVCL2     H6S             6.8451159085      -17.9334532634       17.1119436865  MEMB      24              0.0000000000
      2982        24  PVCL2     CC7             7.7180992670      -17.9174043027       15.1614856942  MEMB      24              0.0000000000
      2983        24  PVCL2     H7R             7.6807779919      -16.7443269551       15.3865021892  MEMB      24              0.0000000000
      2984        24  PVCL2     H7S             6.6873244423      -18.5619673144       14.9275277223  MEMB      24              0.0000000000
      2985        24  PVCL2     CC8             8.7584562866      -17.6492228891       13.8555866043  MEMB      24              0.0000000000
      2986        24  PVCL2     H8R             8.9497650947      -18.7428581637       13.8003800788  MEMB      24              0.0000000000
      2987        24  PVCL2     H8S             9.4167245585      -17.0128137884       14.1841388155  MEMB      24              0.0000000000
      2988        24  PVCL2     CC9             8.9484283326      -16.3885850774       12.4529686461  MEMB      24              0.0000000000
      2989        24  PVCL2     H9R             7.7985507015      -15.9843667854       11.9964860330  MEMB      24              0.0000000000
      2990        24  PVCL2     H9S             8.1254273204      -16.7484077165       12.4006717738  MEMB      24              0.0000000000
      2991        24  PVCL2     CC10           10.1896263218      -17.2689880603       11.4596302669  MEMB      24              0.0000000000
      2992        24  PVCL2     H10R           10.5844476479      -16.3599548249       11.0271372651  MEMB      24              0.0000000000
      2993        24  PVCL2     H10S            9.5413200628      -16.5326272352       10.9607894226  MEMB      24              0.0000000000
      2994        24  PVCL2     CC11           10.0112490861      -18.9535622478       10.8509782377  MEMB      24              0.0000000000
      2995        24  PVCL2     H11R            9.5572864057      -19.4146022311       11.7486035680  MEMB      24              0.0000000000
      2996        24  PVCL2     CC12            9.3733813340      -19.5848080024        9.7268784932  MEMB      24              0.0000000000
      2997        24  PVCL2     H12R            9.7126081015      -20.3823319861        9.2673760589  MEMB      24              0.0000000000
      2998        24  PVCL2     CC13            8.6315326138      -19.2196070646        8.5087329884  MEMB      24              0.0000000000
      2999        24  PVCL2     H13R            8.0157142660      -18.6246336666        8.9748461487  MEMB      24              0.0000000000
      3000        24  PVCL2     H13S            7.6846029826      -19.7304487925        8.3794408525  MEMB      24              0.0000000000
      3001        24  PVCL2     CC14            9.4926684227      -18.4980609407        7.0984232426  MEMB      24              0.0000000000
      3002        24  PVCL2     H14R            9.8918285722      -19.3738880329        7.0164758854  MEMB      24              0.0000000000
      3003        24  PVCL2     H14S           10.2779461436      -17.8333136022        7.4515982104  MEMB      24              0.0000000000
      3004        24  PVCL2     CC15            8.9312008169      -17.7376748039        5.6530301472  MEMB      24              0.0000000000
      3005        24  PVCL2     H15R            8.3860755522      -16.7438218508        5.7091510983  MEMB      24              0.0000000000
      3006        24  PVCL2     H15S            8.0749977658      -18.1776601212        5.0457657734  MEMB      24              0.0000000000
      3007        24  PVCL2     CC16            9.8134557629      -17.5236829738        4.6181718552  MEMB      24              0.0000000000
      3008        24  PVCL2     H16R           10.5628053577      -17.0610653171        5.2124523665  MEMB      24              0.0000000000
      3009        24  PVCL2     H16S            9.2547981176      -16.9312370042        3.8766732519  MEMB      24              0.0000000000
      3010        24  PVCL2     CC17           10.2646444277      -18.7312507240        4.0190864412  MEMB      24              0.0000000000
      3011        24  PVCL2     H17R            9.3272051471      -19.0758758891        3.8575668365  MEMB      24              0.0000000000
      3012        24  PVCL2     H17S           10.6936271090      -19.4191871080        4.7433258863  MEMB      24              0.0000000000
      3013        24  PVCL2     CC18           11.0257903764      -18.6498352053        2.7551724449  MEMB      24              0.0000000000
      3014        24  PVCL2     H18R           11.8666818312      -18.0116212458        3.0286988186  MEMB      24              0.0000000000
      3015        24  PVCL2     H18S           10.4824796403      -18.2411230266        1.8789947660  MEMB      24              0.0000000000
      3016        24  PVCL2     H18T           11.4529010372      -19.6351490176        2.5067983801  MEMB      24              0.0000000000
      3017        24  PVCL2     CD3            15.4272599748      -12.4180637893       14.0482847862  MEMB      24              0.0000000000
      3018        24  PVCL2     H3X            15.2665748354      -11.3169419203       14.0004068236  MEMB      24              0.0000000000
      3019        24  PVCL2     H3Y            14.7913248971      -12.8998003324       13.2648306668  MEMB      24              0.0000000000
      3020        24  PVCL2     CD4            16.9576353227      -12.6222334320       13.8209172570  MEMB      24              0.0000000000
      3021        24  PVCL2     H4X            17.5406866600      -12.1503405902       14.6535833146  MEMB      24              0.0000000000
      3022        24  PVCL2     H4Y            17.2331413090      -12.1400612838       12.8524919469  MEMB      24              0.0000000000
      3023        24  PVCL2     CD5            17.4468997984      -14.0825811215       13.7321781091  MEMB      24              0.0000000000
      3024        24  PVCL2     H5X            17.2698643633      -14.5952927302       14.7032608366  MEMB      24              0.0000000000
      3025        24  PVCL2     H5Y            18.5468748508      -14.1432705883       13.5441780038  MEMB      24              0.0000000000
      3026        24  PVCL2     CD6            16.8541900210      -14.8434692704       12.5347677971  MEMB      24              0.0000000000
      3027        24  PVCL2     H6X            15.7531923221      -14.7837531149       12.5207609101  MEMB      24              0.0000000000
      3028        24  PVCL2     H6Y            17.1125557381      -15.9139132380       12.7059581616  MEMB      24              0.0000000000
      3029        24  PVCL2     CD7            17.5109577024      -14.3149164116       11.2255297278  MEMB      24              0.0000000000
      3030        24  PVCL2     H7X            18.4228663800      -14.8660203238       11.2068145155  MEMB      24              0.0000000000
      3031        24  PVCL2     H7Y            17.8404384242      -13.2643758039       11.2880540514  MEMB      24              0.0000000000
      3032        24  PVCL2     CD8            16.9930397346      -14.6552873582        9.8132265427  MEMB      24              0.0000000000
      3033        24  PVCL2     H8X            17.8483506498      -14.5521929007        9.0757572019  MEMB      24              0.0000000000
      3034        24  PVCL2     H8Y            16.2035655998      -13.9965332270        9.4409413924  MEMB      24              0.0000000000
      3035        24  PVCL2     CD9            16.3759954566      -16.0548639328        9.7637897504  MEMB      24              0.0000000000
      3036        24  PVCL2     H9X            15.6568387803      -16.3160557280       10.4387622549  MEMB      24              0.0000000000
      3037        24  PVCL2     H9Y            17.0634159916      -16.7663290485       10.3639586618  MEMB      24              0.0000000000
      3038        24  PVCL2     CD10           15.8796132364      -16.5464197635        8.3412283081  MEMB      24              0.0000000000
      3039        24  PVCL2     H10X           15.6985435717      -17.6652344287        8.3154484826  MEMB      24              0.0000000000
      3040        24  PVCL2     H10Y           16.6580504011      -16.3288079142        7.6063664877  MEMB      24              0.0000000000
      3041        24  PVCL2     CD11           14.8641892589      -15.9136903866        7.6427102576  MEMB      24              0.0000000000
      3042        24  PVCL2     H11X           15.2359170059      -14.8987422467        7.5055743008  MEMB      24              0.0000000000
      3043        24  PVCL2     H11Y           14.1249637119      -15.9432176897        8.4487175699  MEMB      24              0.0000000000
      3044        24  PVCL2     CD12           14.4922944045      -16.7162315659        6.3855750010  MEMB      24              0.0000000000
      3045        24  PVCL2     H12X           13.6797899734      -16.0802000417        5.9973547784  MEMB      24              0.0000000000
      3046        24  PVCL2     H12Y           14.2136142470      -17.7273083802        6.7676196308  MEMB      24              0.0000000000
      3047        24  PVCL2     CD13           15.4017489322      -16.8929701592        5.1612945229  MEMB      24              0.0000000000
      3048        24  PVCL2     H13X           16.0291401393      -17.7943855568        5.2533451822  MEMB      24              0.0000000000
      3049        24  PVCL2     H13Y           15.9746925210      -15.9467390542        5.0315715710  MEMB      24              0.0000000000
      3050        24  PVCL2     CD14           14.7542092795      -17.3369431283        3.8681211501  MEMB      24              0.0000000000
      3051        24  PVCL2     H14X           14.1835270738      -16.4569854682        3.5020547801  MEMB      24              0.0000000000
      3052        24  PVCL2     H14Y           14.0926564854      -18.2140759200        3.9601658288  MEMB      24              0.0000000000
      3053        24  PVCL2     CD15           15.8002198548      -17.7486602283        2.9022918674  MEMB      24              0.0000000000
      3054        24  PVCL2     H15X           15.2521304098      -18.3007365173        2.0472752614  MEMB      24              0.0000000000
      3055        24  PVCL2     H15Y           16.6045195227      -18.4529932559        2.9492651216  MEMB      24              0.0000000000
      3056        24  PVCL2     CD16           16.8000596174      -16.5930337225        2.6891435882  MEMB      24              0.0000000000
      3057        24  PVCL2     H16X           16.1896257230      -15.5249339232        2.3143807499  MEMB      24              0.0000000000
      3058        24  PVCL2     H16Y           17.4428376718      -17.1899525706        1.7425857660  MEMB      24              0.0000000000
      3059        24  PVCL2     H16Z           17.3187178316      -15.8956866890        3.1614329386  MEMB      24              0.0000000000
      3060        25  POPE      N              -3.0743181193       23.6478764699       21.6964529049  MEMB      25              0.0000000000
      3061        25  POPE      HN1            -3.6164005024       24.0666902769       20.9062964577  MEMB      25              0.0000000000
      3062        25  POPE      HN2            -3.6973656852       22.9950332613       22.2219264461  MEMB      25              0.0000000000
      3063        25  POPE      HN3            -2.7473195565       24.3842683243       22.3304811597  MEMB      25              0.0000000000
      3064        25  POPE      C12            -1.9609266982       22.7518598963       21.2298418240  MEMB      25              0.0000000000
      3065        25  POPE      H12A           -2.2591175798       21.7360431291       21.5889231369  MEMB      25              0.0000000000
      3066        25  POPE      H12B           -1.0090757696       23.0897615914       21.6834645508  MEMB      25              0.0000000000
      3067        25  POPE      C11            -1.8418033244       22.7112637653       19.7153980846  MEMB      25              0.0000000000
      3068        25  POPE      H11A           -0.9408563725       22.0985083848       19.4774154298  MEMB      25              0.0000000000
      3069        25  POPE      H11B           -1.7369100607       23.6900439284       19.2059903049  MEMB      25              0.0000000000
      3070        25  POPE      P              -3.0686663005       21.4270491458       17.8184920860  MEMB      25              0.0000000000
      3071        25  POPE      O13            -4.5042699035       21.3442999151       17.4940329390  MEMB      25              0.0000000000
      3072        25  POPE      O14            -2.2532085555       20.1973719924       17.9307087406  MEMB      25              0.0000000000
      3073        25  POPE      O11            -2.2990027018       22.4991697681       16.9118915571  MEMB      25              0.0000000000
      3074        25  POPE      O12            -3.0104685331       22.1009896275       19.2519394989  MEMB      25              0.0000000000
      3075        25  POPE      C1             -2.8535615385       23.7826066719       16.6852188868  MEMB      25              0.0000000000
      3076        25  POPE      HA             -2.1988825872       24.5757852281       17.0402567806  MEMB      25              0.0000000000
      3077        25  POPE      HB             -3.7344376001       23.9158500756       17.3564847975  MEMB      25              0.0000000000
      3078        25  POPE      C2             -3.2133722641       24.0325430134       15.1653076569  MEMB      25              0.0000000000
      3079        25  POPE      HS             -3.4613470034       25.1086615744       14.9552413290  MEMB      25              0.0000000000
      3080        25  POPE      O21            -4.2615527224       23.2766878520       14.7525420286  MEMB      25              0.0000000000
      3081        25  POPE      C21            -5.0705106871       23.6142224985       15.5407164097  MEMB      25              0.0000000000
      3082        25  POPE      O22            -5.1937913758       24.6913574633       16.1389818758  MEMB      25              0.0000000000
      3083        25  POPE      C22            -5.8704704936       22.6907332312       14.9851660091  MEMB      25              0.0000000000
      3084        25  POPE      H2R            -6.3614220580       22.3135138041       16.1745494361  MEMB      25              0.0000000000
      3085        25  POPE      H2S            -5.4997492140       21.6476517360       14.8119886887  MEMB      25              0.0000000000
      3086        25  POPE      C3             -2.1872384801       23.6854414780       14.1521974536  MEMB      25              0.0000000000
      3087        25  POPE      HX             -1.3851392488       24.4010309925       14.2940244891  MEMB      25              0.0000000000
      3088        25  POPE      HY             -2.6765884288       23.8670107630       13.1657892051  MEMB      25              0.0000000000
      3089        25  POPE      O31            -1.6735298458       22.3907198329       14.2907506206  MEMB      25              0.0000000000
      3090        25  POPE      C31            -2.0876388279       21.6487060906       13.4014889150  MEMB      25              0.0000000000
      3091        25  POPE      O32            -2.8078333153       21.8144581628       12.4164831691  MEMB      25              0.0000000000
      3092        25  POPE      C32            -1.4582302785       20.4798103668       13.7886187699  MEMB      25              0.0000000000
      3093        25  POPE      H2X            -1.9630679201       20.1927107957       12.9069741807  MEMB      25              0.0000000000
      3094        25  POPE      H2Y            -1.9603957125       19.8227992872       14.5072194303  MEMB      25              0.0000000000
      3095        25  POPE      C23            -7.2253671846       22.9573823822       13.2945518550  MEMB      25              0.0000000000
      3096        25  POPE      H3R            -8.0693430198       23.8153516940       13.2941636641  MEMB      25              0.0000000000
      3097        25  POPE      H3S            -8.2976368814       22.4859308375       13.1634036043  MEMB      25              0.0000000000
      3098        25  POPE      C24            -6.5919970852       22.8079740021       12.3846294445  MEMB      25              0.0000000000
      3099        25  POPE      H4R            -5.5782725499       23.4060141042       12.7025981622  MEMB      25              0.0000000000
      3100        25  POPE      H4S            -7.5991823093       23.2700478803       11.6185245053  MEMB      25              0.0000000000
      3101        25  POPE      C25            -6.3866755624       21.8895428049       11.6044286659  MEMB      25              0.0000000000
      3102        25  POPE      H5R            -7.3844598267       21.6901228745       11.1931595247  MEMB      25              0.0000000000
      3103        25  POPE      H5S            -6.0355345919       21.2980654775       12.4546749356  MEMB      25              0.0000000000
      3104        25  POPE      C26            -5.3399175112       22.3816777192       10.6448946298  MEMB      25              0.0000000000
      3105        25  POPE      H6R            -4.5185496097       22.9426242998       11.1555632962  MEMB      25              0.0000000000
      3106        25  POPE      H6S            -5.7127186173       23.0386359430        9.8593742107  MEMB      25              0.0000000000
      3107        25  POPE      C27            -4.9096403870       21.1346023209        9.9251266909  MEMB      25              0.0000000000
      3108        25  POPE      H7R            -5.8262345824       20.6365480764        9.5267193225  MEMB      25              0.0000000000
      3109        25  POPE      H7S            -4.5208177621       20.4133229386       10.6624790567  MEMB      25              0.0000000000
      3110        25  POPE      C28            -3.9658204173       21.3859439331        8.7499336467  MEMB      25              0.0000000000
      3111        25  POPE      H8R            -4.3273782677       22.2348178860        8.1492618030  MEMB      25              0.0000000000
      3112        25  POPE      H8S            -4.0486020067       20.4880280382        8.0881882048  MEMB      25              0.0000000000
      3113        25  POPE      C29            -2.5700767958       21.8458610772        8.9136219336  MEMB      25              0.0000000000
      3114        25  POPE      H91            -2.3666665957       22.7910583949        9.4075665439  MEMB      25              0.0000000000
      3115        25  POPE      C210           -1.5737451827       21.0731325620        8.7782076377  MEMB      25              0.0000000000
      3116        25  POPE      H101           -0.5419925380       21.3881045811        9.1389927444  MEMB      25              0.0000000000
      3117        25  POPE      C211           -1.6763009893       19.5944119972        8.4840698789  MEMB      25              0.0000000000
      3118        25  POPE      H11R           -2.6101294376       19.1458679231        8.2605777968  MEMB      25              0.0000000000
      3119        25  POPE      H11S           -1.3398938259       18.7822094476        9.2057684863  MEMB      25              0.0000000000
      3120        25  POPE      C212           -0.8149760587       19.6624629853        7.4212450304  MEMB      25              0.0000000000
      3121        25  POPE      H12R            0.2165428277       20.2275396295        7.8799495518  MEMB      25              0.0000000000
      3122        25  POPE      H12S           -0.7306768207       20.1167667191        6.4779504850  MEMB      25              0.0000000000
      3123        25  POPE      C213           -1.2245055935       18.0881917210        6.9134815586  MEMB      25              0.0000000000
      3124        25  POPE      H13R           -1.0714493468       17.0799196489        7.4132262771  MEMB      25              0.0000000000
      3125        25  POPE      H13S           -0.6086845942       17.4541804323        6.4169089525  MEMB      25              0.0000000000
      3126        25  POPE      C214           -2.0979909719       17.8771728952        5.7341485083  MEMB      25              0.0000000000
      3127        25  POPE      H14R           -2.8611940482       18.0941382107        6.4684200441  MEMB      25              0.0000000000
      3128        25  POPE      H14S           -1.9995343788       16.8058735178        5.4224252113  MEMB      25              0.0000000000
      3129        25  POPE      C215           -2.0815629633       18.7278252185        4.4784438421  MEMB      25              0.0000000000
      3130        25  POPE      H15R           -1.1583887165       18.5238865606        3.8780271984  MEMB      25              0.0000000000
      3131        25  POPE      H15S           -2.1517180440       19.7965090216        4.7170927979  MEMB      25              0.0000000000
      3132        25  POPE      C216           -3.3334049478       18.3869595879        3.6842769660  MEMB      25              0.0000000000
      3133        25  POPE      H16R           -4.2747201150       18.6318482737        4.2285835351  MEMB      25              0.0000000000
      3134        25  POPE      H16S           -3.2422831432       17.3169596582        3.6095686458  MEMB      25              0.0000000000
      3135        25  POPE      C217           -3.4413376955       19.0794366980        2.3469748162  MEMB      25              0.0000000000
      3136        25  POPE      H17R           -2.4495069916       19.3488180938        1.9390850124  MEMB      25              0.0000000000
      3137        25  POPE      H17S           -3.9275152441       20.0550335408        2.5742160008  MEMB      25              0.0000000000
      3138        25  POPE      C218           -4.2502477998       18.3503147374        1.2992857277  MEMB      25              0.0000000000
      3139        25  POPE      H18R           -4.5349124697       19.1613325638        0.6395151951  MEMB      25              0.0000000000
      3140        25  POPE      H18S           -5.2023837723       17.9054395121        1.6432473582  MEMB      25              0.0000000000
      3141        25  POPE      H18T           -3.6824127531       17.6362858722        0.6681656826  MEMB      25              0.0000000000
      3142        25  POPE      C33             0.0922820848       20.2083452918       13.8517466509  MEMB      25              0.0000000000
      3143        25  POPE      H3X             0.3937669158       19.1330504767       14.0517918195  MEMB      25              0.0000000000
      3144        25  POPE      H3Y             0.3594018989       20.8021019988       14.6764590808  MEMB      25              0.0000000000
      3145        25  POPE      C34             1.1357381716       20.7036555995       12.9528232760  MEMB      25              0.0000000000
      3146        25  POPE      H4X             1.1724197937       20.0848727707       12.2266304499  MEMB      25              0.0000000000
      3147        25  POPE      H4Y             2.0112113879       20.0636471919       12.8466721479  MEMB      25              0.0000000000
      3148        25  POPE      C35             1.2516364766       22.1219116808       12.5707754482  MEMB      25              0.0000000000
      3149        25  POPE      H5X             1.6181441964       22.3728247300       13.5789797220  MEMB      25              0.0000000000
      3150        25  POPE      H5Y             0.4339744410       22.8392588077       12.3948652993  MEMB      25              0.0000000000
      3151        25  POPE      C36             2.3876299139       22.1134259558       11.6034065733  MEMB      25              0.0000000000
      3152        25  POPE      H6X             3.1759701510       21.4086897589       11.8260127943  MEMB      25              0.0000000000
      3153        25  POPE      H6Y             3.0682585234       22.4875177080       12.2185340345  MEMB      25              0.0000000000
      3154        25  POPE      C37             2.2814342850       22.7084044724       10.2101107561  MEMB      25              0.0000000000
      3155        25  POPE      H7X             1.3730212425       22.2359278429        9.8993875077  MEMB      25              0.0000000000
      3156        25  POPE      H7Y             3.1242000349       22.3963086739        9.5586268401  MEMB      25              0.0000000000
      3157        25  POPE      C38             1.5190476396       24.0146118669        9.9787600671  MEMB      25              0.0000000000
      3158        25  POPE      H8X             1.9387725744       24.9302170919       10.3171753208  MEMB      25              0.0000000000
      3159        25  POPE      H8Y             0.8292375774       24.1974703657       10.7482317205  MEMB      25              0.0000000000
      3160        25  POPE      C39             0.8740928097       24.1135278888        8.6472725618  MEMB      25              0.0000000000
      3161        25  POPE      H9X             0.2705813259       23.2187054326        8.6635149613  MEMB      25              0.0000000000
      3162        25  POPE      H9Y             1.5180811067       23.8731301300        7.8276663042  MEMB      25              0.0000000000
      3163        25  POPE      C310           -0.0366278021       25.2883745824        8.3697686365  MEMB      25              0.0000000000
      3164        25  POPE      H10X            0.6184267643       25.9874769710        7.8723536720  MEMB      25              0.0000000000
      3165        25  POPE      H10Y           -0.5130561597       25.7526928490        9.2718496782  MEMB      25              0.0000000000
      3166        25  POPE      C311           -1.1188678306       24.9079859749        7.3469272743  MEMB      25              0.0000000000
      3167        25  POPE      H11X           -1.8386869636       25.7151175206        7.2010189570  MEMB      25              0.0000000000
      3168        25  POPE      H11Y           -1.6826726272       24.1153547911        7.8406839377  MEMB      25              0.0000000000
      3169        25  POPE      C312           -0.7039907769       24.3504632298        5.9678964156  MEMB      25              0.0000000000
      3170        25  POPE      H12X            0.2085003237       23.7371875901        6.0475543267  MEMB      25              0.0000000000
      3171        25  POPE      H12Y           -0.5522964090       25.1574879054        5.2575509736  MEMB      25              0.0000000000
      3172        25  POPE      C313           -1.7926383157       23.5269969017        5.2693803798  MEMB      25              0.0000000000
      3173        25  POPE      H13X           -2.6559290426       24.1983682711        5.1011659933  MEMB      25              0.0000000000
      3174        25  POPE      H13Y           -2.0545143599       22.7643002046        6.0210937898  MEMB      25              0.0000000000
      3175        25  POPE      C314           -1.3632263497       22.8470857816        3.9654137727  MEMB      25              0.0000000000
      3176        25  POPE      H14X           -2.2083142229       22.2694296994        3.5089173933  MEMB      25              0.0000000000
      3177        25  POPE      H14Y           -0.4947501069       22.2142514333        4.2579273514  MEMB      25              0.0000000000
      3178        25  POPE      C315           -0.9335754035       23.8359872351        2.9316612348  MEMB      25              0.0000000000
      3179        25  POPE      H15X           -0.0817333126       24.4448787933        3.2936276067  MEMB      25              0.0000000000
      3180        25  POPE      H15Y           -1.8020452484       24.4240312806        2.5856010875  MEMB      25              0.0000000000
      3181        25  POPE      C316           -0.4256365396       23.2752615109        1.7432957377  MEMB      25              0.0000000000
      3182        25  POPE      H16X           -1.1149452097       22.6374457763        1.1384996016  MEMB      25              0.0000000000
      3183        25  POPE      H16Y            0.5073677765       22.6649300756        1.9659169962  MEMB      25              0.0000000000
      3184        25  POPE      H16Z           -0.1405649307       24.0238301129        0.9506755011  MEMB      25              0.0000000000
      3185        26  OYPE      N               2.3176182481       22.8380739204       18.5887856415  MEMB      26              0.0000000000
      3186        26  OYPE      HN1             1.4147761324       23.1404714235       18.1805681782  MEMB      26              0.0000000000
      3187        26  OYPE      HN2             2.5211601709       21.8398182000       18.3696050465  MEMB      26              0.0000000000
      3188        26  OYPE      HN3             2.2831286324       22.9814865492       19.6172086028  MEMB      26              0.0000000000
      3189        26  OYPE      C12             3.4299964430       23.5723074447       17.9025592213  MEMB      26              0.0000000000
      3190        26  OYPE      H12A            3.5146485333       24.5990935623       18.3266564280  MEMB      26              0.0000000000
      3191        26  OYPE      H12B            3.0797136448       23.6381183163       16.8456251080  MEMB      26              0.0000000000
      3192        26  OYPE      C11             4.7650849134       22.7863430652       17.9874106151  MEMB      26              0.0000000000
      3193        26  OYPE      H11A            5.5010068401       23.5008289968       17.5514501173  MEMB      26              0.0000000000
      3194        26  OYPE      H11B            4.7519516468       21.8719094049       17.3355645614  MEMB      26              0.0000000000
      3195        26  OYPE      P               6.6956504469       22.0646654241       19.5626354300  MEMB      26              0.0000000000
      3196        26  OYPE      O13             7.0077445040       20.8401432639       18.8167598159  MEMB      26              0.0000000000
      3197        26  OYPE      O14             7.0812625452       22.0638206878       20.9771931671  MEMB      26              0.0000000000
      3198        26  OYPE      O11             7.3281100705       23.2716309906       18.7932577873  MEMB      26              0.0000000000
      3199        26  OYPE      O12             5.1380677975       22.4443563503       19.3354585703  MEMB      26              0.0000000000
      3200        26  OYPE      C1              7.8552214412       24.3815053801       19.4991181228  MEMB      26              0.0000000000
      3201        26  OYPE      HA              8.2646020049       24.0794970585       20.4995792515  MEMB      26              0.0000000000
      3202        26  OYPE      HB              7.0851222999       25.1502911761       19.6497170926  MEMB      26              0.0000000000
      3203        26  OYPE      C2              8.9720549082       25.0001929922       18.6622219203  MEMB      26              0.0000000000
      3204        26  OYPE      HS              9.1170896887       26.0496216293       19.0064810885  MEMB      26              0.0000000000
      3205        26  OYPE      O21             8.8471691002       24.9127080807       17.2478961865  MEMB      26              0.0000000000
      3206        26  OYPE      C21             7.7637472323       25.4995980072       16.8181827309  MEMB      26              0.0000000000
      3207        26  OYPE      O22             7.0383065132       26.2501952281       17.3716367080  MEMB      26              0.0000000000
      3208        26  OYPE      C22             7.1689080628       25.0159266448       15.5991438999  MEMB      26              0.0000000000
      3209        26  OYPE      H2R             6.8567959134       23.9866854348       15.7173253676  MEMB      26              0.0000000000
      3210        26  OYPE      H2S             7.7679570862       25.0758853715       14.7424251464  MEMB      26              0.0000000000
      3211        26  OYPE      C3             10.1282072253       24.2545523069       18.9632537132  MEMB      26              0.0000000000
      3212        26  OYPE      HX             10.4546561614       24.5354331201       20.0037456731  MEMB      26              0.0000000000
      3213        26  OYPE      HY             10.9580702720       24.6589531075       18.3168720574  MEMB      26              0.0000000000
      3214        26  OYPE      O31             9.8861845767       22.7964923625       18.9434170150  MEMB      26              0.0000000000
      3215        26  OYPE      C31            10.2015816935       22.0774528928       17.9158149760  MEMB      26              0.0000000000
      3216        26  OYPE      O32            10.5952408958       22.4372666614       16.9053694590  MEMB      26              0.0000000000
      3217        26  OYPE      C32            10.2754505021       20.6155763918       17.8801673776  MEMB      26              0.0000000000
      3218        26  OYPE      H2X            11.1688878067       20.2978460300       18.4309628464  MEMB      26              0.0000000000
      3219        26  OYPE      H2Y             9.3171593683       20.4292142008       18.3393212907  MEMB      26              0.0000000000
      3220        26  OYPE      C23             6.1750869774       25.8049646529       14.8597395170  MEMB      26              0.0000000000
      3221        26  OYPE      H3R             6.5360478435       26.8187659878       14.6554858835  MEMB      26              0.0000000000
      3222        26  OYPE      H3S             5.2841201759       25.7402696270       15.4832433630  MEMB      26              0.0000000000
      3223        26  OYPE      C24             5.9649783323       25.2622939862       13.4983310065  MEMB      26              0.0000000000
      3224        26  OYPE      H4R             5.4333228677       24.3512453038       13.8371758914  MEMB      26              0.0000000000
      3225        26  OYPE      H4S             6.7585099302       24.8566635896       12.8356645587  MEMB      26              0.0000000000
      3226        26  OYPE      C25             5.4163436422       26.3469387786       12.6895074382  MEMB      26              0.0000000000
      3227        26  OYPE      H5R             4.7466772437       26.8379450391       13.3192293360  MEMB      26              0.0000000000
      3228        26  OYPE      H5S             4.6929891760       26.3091193819       11.9296053407  MEMB      26              0.0000000000
      3229        26  OYPE      C26             6.2547777222       27.0750082193       11.8357377223  MEMB      26              0.0000000000
      3230        26  OYPE      H6R             7.0433480893       27.4648088130       12.3388638466  MEMB      26              0.0000000000
      3231        26  OYPE      H6S             5.6984767086       27.7452071502       12.3442715212  MEMB      26              0.0000000000
      3232        26  OYPE      C27             6.1521895687       27.2228257209       10.3009170584  MEMB      26              0.0000000000
      3233        26  OYPE      H7R             5.1750861662       27.1455691394        9.8840511000  MEMB      26              0.0000000000
      3234        26  OYPE      H7S             6.8678664526       26.4554893552       10.0577862233  MEMB      26              0.0000000000
      3235        26  OYPE      C28             6.4282233416       28.4110075114        9.4050219017  MEMB      26              0.0000000000
      3236        26  OYPE      H8R             7.2245205269       28.8129301498        9.9236046717  MEMB      26              0.0000000000
      3237        26  OYPE      H8S             5.8369204256       29.2091481215        9.5311262973  MEMB      26              0.0000000000
      3238        26  OYPE      C29             6.3960161078       28.5194741243        7.9875619440  MEMB      26              0.0000000000
      3239        26  OYPE      H9R             7.3325669796       28.4366930810        7.6104673511  MEMB      26              0.0000000000
      3240        26  OYPE      C210            5.4827966104       28.8473220375        7.1382979184  MEMB      26              0.0000000000
      3241        26  OYPE      H10R            5.7023989105       28.6559022028        6.1015522620  MEMB      26              0.0000000000
      3242        26  OYPE      C211            4.0951734347       29.2206459727        7.3989349322  MEMB      26              0.0000000000
      3243        26  OYPE      H11R            3.7223068146       29.9329957470        6.7079206931  MEMB      26              0.0000000000
      3244        26  OYPE      H11S            4.0008505541       29.6555365321        8.2915847770  MEMB      26              0.0000000000
      3245        26  OYPE      C212            3.0364864862       28.2701171133        7.5955058305  MEMB      26              0.0000000000
      3246        26  OYPE      H12R            2.2317163417       28.6890277685        7.9182988790  MEMB      26              0.0000000000
      3247        26  OYPE      H12S            2.9908137003       27.8214950261        8.6453237086  MEMB      26              0.0000000000
      3248        26  OYPE      C213            2.9185591077       27.4048631844        6.4299158880  MEMB      26              0.0000000000
      3249        26  OYPE      H13R            2.4866970921       26.6560732050        6.8755463484  MEMB      26              0.0000000000
      3250        26  OYPE      H13S            3.9263783634       27.3779237073        6.5925861327  MEMB      26              0.0000000000
      3251        26  OYPE      C214            2.9266179802       27.3090444594        4.9385070104  MEMB      26              0.0000000000
      3252        26  OYPE      H14R            3.6715405181       27.9343627698        4.5059487921  MEMB      26              0.0000000000
      3253        26  OYPE      H14S            2.0865488879       27.7559490912        5.1703745699  MEMB      26              0.0000000000
      3254        26  OYPE      C215            2.6460480753       26.0083549917        4.1572461666  MEMB      26              0.0000000000
      3255        26  OYPE      H15R            1.5383473411       25.8442158465        4.0947087828  MEMB      26              0.0000000000
      3256        26  OYPE      H15S            3.0612380200       25.1198761003        4.6350324388  MEMB      26              0.0000000000
      3257        26  OYPE      C216            3.3081526121       26.1251788029        2.7638323157  MEMB      26              0.0000000000
      3258        26  OYPE      H16R            4.3027066175       26.5756568222        2.8844293500  MEMB      26              0.0000000000
      3259        26  OYPE      H16S            2.8550058222       26.8595717705        2.0732905130  MEMB      26              0.0000000000
      3260        26  OYPE      H16T            3.2598406399       25.1802084268        2.1993790722  MEMB      26              0.0000000000
      3261        26  OYPE      C33            10.3947371379       19.9828304136       16.4395156902  MEMB      26              0.0000000000
      3262        26  OYPE      H3X            10.9986580580       19.0593188802       16.5513645694  MEMB      26              0.0000000000
      3263        26  OYPE      H3Y            10.8957171956       20.5844420137       15.6429138171  MEMB      26              0.0000000000
      3264        26  OYPE      C34             9.0501453762       19.5331585905       15.8761257726  MEMB      26              0.0000000000
      3265        26  OYPE      H4X             9.1923874923       19.0676596763       14.8836685227  MEMB      26              0.0000000000
      3266        26  OYPE      H4Y             8.5160146019       18.9371404123       16.6037374297  MEMB      26              0.0000000000
      3267        26  OYPE      C35             8.0626486578       20.5908871117       15.7258696081  MEMB      26              0.0000000000
      3268        26  OYPE      H5X             8.4887335246       20.8518987441       14.7230434305  MEMB      26              0.0000000000
      3269        26  OYPE      H5Y             8.2134919483       21.2606307034       16.6173072765  MEMB      26              0.0000000000
      3270        26  OYPE      C36             6.6477548951       20.4232388970       15.2686375125  MEMB      26              0.0000000000
      3271        26  OYPE      H6X             6.1320865792       19.9296401077       16.0068674734  MEMB      26              0.0000000000
      3272        26  OYPE      H6Y             6.0882226094       21.3689964899       15.3112330705  MEMB      26              0.0000000000
      3273        26  OYPE      C37             6.6315383672       19.7473980971       13.9204648583  MEMB      26              0.0000000000
      3274        26  OYPE      H7X             7.1189454548       20.5877328061       13.5958097512  MEMB      26              0.0000000000
      3275        26  OYPE      H7Y             7.3485080480       18.9211463883       13.8665714385  MEMB      26              0.0000000000
      3276        26  OYPE      C38             5.5133537320       19.8555751983       12.8892728817  MEMB      26              0.0000000000
      3277        26  OYPE      H8X             4.6950861961       19.3481814606       13.4401331541  MEMB      26              0.0000000000
      3278        26  OYPE      H8Y             5.2447417010       20.9080025406       12.7111562776  MEMB      26              0.0000000000
      3279        26  OYPE      C39             5.8182864796       19.3562448184       11.5005015272  MEMB      26              0.0000000000
      3280        26  OYPE      H9X             5.4780987702       18.4522111588       11.3018427145  MEMB      26              0.0000000000
      3281        26  OYPE      C310            6.2471497983       19.8674223311       10.3576167282  MEMB      26              0.0000000000
      3282        26  OYPE      H10X            6.4577545221       19.2941236509        9.4565516133  MEMB      26              0.0000000000
      3283        26  OYPE      C311            6.5839690369       21.2550625694       10.1727682549  MEMB      26              0.0000000000
      3284        26  OYPE      H11X            6.8742830046       21.5203386982       11.0476178242  MEMB      26              0.0000000000
      3285        26  OYPE      H11Y            7.4262949827       21.5679238736        9.5403204030  MEMB      26              0.0000000000
      3286        26  OYPE      C312            5.8627783531       22.2449922848        9.5989109731  MEMB      26              0.0000000000
      3287        26  OYPE      H12X            6.4246718911       23.2396468822        9.6748231992  MEMB      26              0.0000000000
      3288        26  OYPE      H12Y            4.9085577782       22.1979263532       10.0845549645  MEMB      26              0.0000000000
      3289        26  OYPE      C313            5.6653180199       21.8339668732        8.2286426853  MEMB      26              0.0000000000
      3290        26  OYPE      H13X            6.3401999879       21.0296873738        7.9945876983  MEMB      26              0.0000000000
      3291        26  OYPE      H13Y            4.6158439076       21.5643895112        8.0478639779  MEMB      26              0.0000000000
      3292        26  OYPE      C314            6.2898294149       22.7775077239        7.3374488004  MEMB      26              0.0000000000
      3293        26  OYPE      H14X            7.1422662988       23.3930172422        7.6495995872  MEMB      26              0.0000000000
      3294        26  OYPE      H14Y            5.6054139711       23.5074524957        7.6876073054  MEMB      26              0.0000000000
      3295        26  OYPE      C315            6.1688065326       22.4354784506        5.7580159146  MEMB      26              0.0000000000
      3296        26  OYPE      H15X            5.0743792044       22.5022397776        5.4025352447  MEMB      26              0.0000000000
      3297        26  OYPE      H15Y            6.6553315427       21.5273013857        5.6271973796  MEMB      26              0.0000000000
      3298        26  OYPE      C316            6.9357293421       23.3548614385        4.7188918927  MEMB      26              0.0000000000
      3299        26  OYPE      H16X            7.9340222157       23.4766800296        5.0812805498  MEMB      26              0.0000000000
      3300        26  OYPE      H16Y            6.6362995625       24.3640451135        4.5638331867  MEMB      26              0.0000000000
      3301        26  OYPE      C317            6.6916578284       23.2514692379        3.2571440342  MEMB      26              0.0000000000
      3302        26  OYPE      H17X            5.6207401975       23.2967564566        3.0602885425  MEMB      26              0.0000000000
      3303        26  OYPE      H17Y            7.3472135224       22.4360693487        3.1549340330  MEMB      26              0.0000000000
      3304        26  OYPE      C318            6.9712437792       24.2054193753        2.1861510752  MEMB      26              0.0000000000
      3305        26  OYPE      H18X            7.9606690508       24.4931029518        2.3573069483  MEMB      26              0.0000000000
      3306        26  OYPE      H18Y            7.3999807292       24.1162957217        1.2183998952  MEMB      26              0.0000000000
      3307        26  OYPE      H18Z            6.3353777645       25.0778376513        2.4322812248  MEMB      26              0.0000000000
      3308        27  PMPE      N              -0.2700696280      -25.0367401831       21.5274085398  MEMB      27              0.0000000000
      3309        27  PMPE      HN1            -0.8829683436      -25.8538268239       21.7213324703  MEMB      27              0.0000000000
      3310        27  PMPE      HN2            -0.0563816674      -24.5639964023       22.4176759563  MEMB      27              0.0000000000
      3311        27  PMPE      HN3            -0.8346522184      -24.4027923790       20.9261875133  MEMB      27              0.0000000000
      3312        27  PMPE      C12             1.0205605869      -25.3298746153       20.7881267826  MEMB      27              0.0000000000
      3313        27  PMPE      H12A            0.7809015275      -26.1292080008       20.0675269839  MEMB      27              0.0000000000
      3314        27  PMPE      H12B            1.7624365407      -25.7465368868       21.4879795635  MEMB      27              0.0000000000
      3315        27  PMPE      C11             1.6044509337      -24.1020916522       20.0469034055  MEMB      27              0.0000000000
      3316        27  PMPE      H11A            2.4220999399      -24.5248176139       19.4013329186  MEMB      27              0.0000000000
      3317        27  PMPE      H11B            2.0277722797      -23.3735722771       20.7929900236  MEMB      27              0.0000000000
      3318        27  PMPE      P               0.9411730943      -22.6823901451       17.8894897119  MEMB      27              0.0000000000
      3319        27  PMPE      O13             1.9471970559      -21.6605084401       18.2077448174  MEMB      27              0.0000000000
      3320        27  PMPE      O14            -0.3444212254      -22.2853339900       17.2969369054  MEMB      27              0.0000000000
      3321        27  PMPE      O11             1.5762163972      -23.7975035524       17.0003813018  MEMB      27              0.0000000000
      3322        27  PMPE      O12             0.6015203794      -23.4736448378       19.2511377977  MEMB      27              0.0000000000
      3323        27  PMPE      C1              0.8295550580      -25.0017811921       16.8161936260  MEMB      27              0.0000000000
      3324        27  PMPE      HA             -0.2820474246      -24.8449741624       16.8991723259  MEMB      27              0.0000000000
      3325        27  PMPE      HB              1.2033749505      -25.7744287466       17.5226949840  MEMB      27              0.0000000000
      3326        27  PMPE      C2              1.1381377525      -25.5937129415       15.4494666446  MEMB      27              0.0000000000
      3327        27  PMPE      HS              1.5068855770      -26.6451437487       15.6112245993  MEMB      27              0.0000000000
      3328        27  PMPE      O21             1.9303245951      -24.6024664161       14.7271686610  MEMB      27              0.0000000000
      3329        27  PMPE      C21             2.6478481369      -25.2320540878       13.9510137988  MEMB      27              0.0000000000
      3330        27  PMPE      O22             2.4838246636      -26.4644484947       13.8485567798  MEMB      27              0.0000000000
      3331        27  PMPE      C22             3.8077471111      -24.2422921079       13.3688404813  MEMB      27              0.0000000000
      3332        27  PMPE      H2R             4.1032423293      -24.3408960996       12.3167996717  MEMB      27              0.0000000000
      3333        27  PMPE      H2S             4.7787714550      -24.4206979372       13.8835922591  MEMB      27              0.0000000000
      3334        27  PMPE      C3             -0.0667507728      -25.8322209639       14.6462118742  MEMB      27              0.0000000000
      3335        27  PMPE      HX             -0.1784141558      -24.8617871128       14.4667069697  MEMB      27              0.0000000000
      3336        27  PMPE      HY             -0.9476256754      -25.8931961301       15.3279285598  MEMB      27              0.0000000000
      3337        27  PMPE      O31             0.0861714563      -26.4305121406       13.3164641702  MEMB      27              0.0000000000
      3338        27  PMPE      C31            -0.7202489794      -27.1898774640       12.5356376809  MEMB      27              0.0000000000
      3339        27  PMPE      O32            -1.8360851621      -27.5353586114       12.7671807988  MEMB      27              0.0000000000
      3340        27  PMPE      C32            -0.4731446068      -26.8662968045       11.0308273960  MEMB      27              0.0000000000
      3341        27  PMPE      H2X             0.3471714201      -26.1800739765       10.9991539465  MEMB      27              0.0000000000
      3342        27  PMPE      H2Y            -1.2983324081      -26.3531502210       10.4907621815  MEMB      27              0.0000000000
      3343        27  PMPE      C23             3.4616526456      -22.8020227130       13.1948044549  MEMB      27              0.0000000000
      3344        27  PMPE      H3R             4.3274628459      -22.3310464567       12.6578463174  MEMB      27              0.0000000000
      3345        27  PMPE      H3S             3.3337403253      -22.4009189646       14.2158441570  MEMB      27              0.0000000000
      3346        27  PMPE      C24             2.1848568974      -22.6597617277       12.3693601893  MEMB      27              0.0000000000
      3347        27  PMPE      H4R             1.9193847427      -21.5893408975       12.3413557713  MEMB      27              0.0000000000
      3348        27  PMPE      H4S             1.3282878574      -23.1621854894       12.8620706729  MEMB      27              0.0000000000
      3349        27  PMPE      C25             2.2356092588      -23.1546850518       10.9399878315  MEMB      27              0.0000000000
      3350        27  PMPE      H5R             2.2849813606      -24.2743401119       10.8497976014  MEMB      27              0.0000000000
      3351        27  PMPE      H5S             3.1031935724      -22.7292251697       10.3910007486  MEMB      27              0.0000000000
      3352        27  PMPE      C26             1.0092692124      -22.7265913832       10.2029187542  MEMB      27              0.0000000000
      3353        27  PMPE      H6R             0.9675643843      -21.6749963496        9.8998000720  MEMB      27              0.0000000000
      3354        27  PMPE      H6S             0.0870013435      -22.7439981146       10.8742763984  MEMB      27              0.0000000000
      3355        27  PMPE      C27             1.1328598118      -23.6799213037        8.9700745106  MEMB      27              0.0000000000
      3356        27  PMPE      H7R             0.1812754841      -23.7761689174        8.8100664489  MEMB      27              0.0000000000
      3357        27  PMPE      H7S             0.9420849405      -24.7448199906        9.0901708929  MEMB      27              0.0000000000
      3358        27  PMPE      C28             1.5887610753      -23.2079046793        7.5693582109  MEMB      27              0.0000000000
      3359        27  PMPE      H8R             1.3082518138      -22.1675813510        7.3163160669  MEMB      27              0.0000000000
      3360        27  PMPE      H8S             1.0722424290      -23.7335849831        6.7179278593  MEMB      27              0.0000000000
      3361        27  PMPE      C29             3.0293657720      -23.3719642728        7.5972266200  MEMB      27              0.0000000000
      3362        27  PMPE      H9R             3.3908409633      -24.3427258289        7.9514964092  MEMB      27              0.0000000000
      3363        27  PMPE      C217            3.9174252988      -22.1337551272        7.7072148547  MEMB      27              0.0000000000
      3364        27  PMPE      H17R            4.8561677759      -22.3575516887        8.1972289648  MEMB      27              0.0000000000
      3365        27  PMPE      H17S            3.4017789252      -21.1924102135        7.8182211541  MEMB      27              0.0000000000
      3366        27  PMPE      C210            3.7063623570      -22.8597757340        6.3778399297  MEMB      27              0.0000000000
      3367        27  PMPE      H10R            4.4446407388      -23.5436923708        6.0246613148  MEMB      27              0.0000000000
      3368        27  PMPE      C211            2.8274161243      -22.3356389778        5.2671641285  MEMB      27              0.0000000000
      3369        27  PMPE      H11R            2.2600262848      -21.4483730710        5.6326837848  MEMB      27              0.0000000000
      3370        27  PMPE      H11S            2.1389322580      -23.1049091413        4.8891906494  MEMB      27              0.0000000000
      3371        27  PMPE      C212            3.6950159021      -22.0892370350        4.0414630494  MEMB      27              0.0000000000
      3372        27  PMPE      H12R            4.5465054892      -22.7087528548        3.7857757569  MEMB      27              0.0000000000
      3373        27  PMPE      H12S            4.3005005009      -21.3458246196        4.4884475783  MEMB      27              0.0000000000
      3374        27  PMPE      C213            2.9570914527      -21.6284992021        2.7609166394  MEMB      27              0.0000000000
      3375        27  PMPE      H13R            3.8369753596      -21.3625294906        2.1091864498  MEMB      27              0.0000000000
      3376        27  PMPE      H13S            2.2742211349      -20.7450352256        2.8326541776  MEMB      27              0.0000000000
      3377        27  PMPE      C214            1.9789979183      -22.5386138747        2.2687896561  MEMB      27              0.0000000000
      3378        27  PMPE      H14R            1.0977603979      -22.4756954895        2.8837022235  MEMB      27              0.0000000000
      3379        27  PMPE      H14S            2.5704070752      -23.4616336397        2.2658252346  MEMB      27              0.0000000000
      3380        27  PMPE      C215            1.4020494520      -22.2196464178        1.0294527629  MEMB      27              0.0000000000
      3381        27  PMPE      H15R            0.7134367733      -21.3326891773        0.8967397606  MEMB      27              0.0000000000
      3382        27  PMPE      H15S            0.9859855596      -23.1823821518        0.6264937076  MEMB      27              0.0000000000
      3383        27  PMPE      C216            2.5249310780      -22.0011801319        0.4436782039  MEMB      27              0.0000000000
      3384        27  PMPE      H16R            3.2116363441      -21.1241014502        0.2074302112  MEMB      27              0.0000000000
      3385        27  PMPE      H16S            3.2657459654      -22.5905452290        0.0601846095  MEMB      27              0.0000000000
      3386        27  PMPE      H16T            1.5523170549      -22.0674332737       -0.3885478413  MEMB      27              0.0000000000
      3387        27  PMPE      C33            -0.5416737283      -28.0481557114       10.2303425287  MEMB      27              0.0000000000
      3388        27  PMPE      H3X            -1.5415803893      -28.5020378546       10.2643139932  MEMB      27              0.0000000000
      3389        27  PMPE      H3Y             0.2074656483      -28.6344652824       10.7781540847  MEMB      27              0.0000000000
      3390        27  PMPE      C34            -0.2551114906      -27.7298766303        8.8065437002  MEMB      27              0.0000000000
      3391        27  PMPE      H4X            -0.7881140883      -26.9065642962        8.3610690579  MEMB      27              0.0000000000
      3392        27  PMPE      H4Y            -0.4169509190      -28.6871098385        8.2662544499  MEMB      27              0.0000000000
      3393        27  PMPE      C35             1.0902862433      -27.3175735918        8.7146291324  MEMB      27              0.0000000000
      3394        27  PMPE      H5X             1.3505120596      -28.2710358862        9.2816322153  MEMB      27              0.0000000000
      3395        27  PMPE      H5Y             1.7186996304      -26.4794458148        9.0325445045  MEMB      27              0.0000000000
      3396        27  PMPE      C36             1.6063049947      -27.2447648777        7.4001368666  MEMB      27              0.0000000000
      3397        27  PMPE      H6X             1.7854744035      -28.3321770787        7.6625602204  MEMB      27              0.0000000000
      3398        27  PMPE      H6Y             2.6706120192      -26.8873351364        7.2904420346  MEMB      27              0.0000000000
      3399        27  PMPE      C37             0.8543367757      -26.7694989442        6.1310042419  MEMB      27              0.0000000000
      3400        27  PMPE      H7X             0.9757953190      -25.7106456020        6.3109914902  MEMB      27              0.0000000000
      3401        27  PMPE      H7Y            -0.1641335166      -27.1788385215        6.0758455679  MEMB      27              0.0000000000
      3402        27  PMPE      C38             1.5455289351      -26.6516283110        4.7392967842  MEMB      27              0.0000000000
      3403        27  PMPE      H8X             1.4346788312      -27.5437722342        4.2818945693  MEMB      27              0.0000000000
      3404        27  PMPE      H8Y             2.6150333794      -26.5357905447        4.7077697943  MEMB      27              0.0000000000
      3405        27  PMPE      C39             0.9214246288      -26.0393211841        3.6145703319  MEMB      27              0.0000000000
      3406        27  PMPE      H9X             1.4930968439      -26.0839131540        2.6503269954  MEMB      27              0.0000000000
      3407        27  PMPE      H9Y             0.8625893887      -25.0359216525        3.9553240748  MEMB      27              0.0000000000
      3408        27  PMPE      C310           -0.3528616651      -26.7328279917        3.5250326324  MEMB      27              0.0000000000
      3409        27  PMPE      H10X           -1.1315043928      -26.9457509703        4.2219303065  MEMB      27              0.0000000000
      3410        27  PMPE      H10Y           -0.0552123190      -27.6598549131        2.9365881544  MEMB      27              0.0000000000
      3411        27  PMPE      C311           -1.1496806832      -25.8600725003        2.8433634214  MEMB      27              0.0000000000
      3412        27  PMPE      H11X           -2.3440201144      -26.3149906855        2.6092786992  MEMB      27              0.0000000000
      3413        27  PMPE      H11Y           -0.3785153094      -25.6007914160        1.9794513986  MEMB      27              0.0000000000
      3414        27  PMPE      C312           -2.0487693947      -25.0982856905        3.0076921843  MEMB      27              0.0000000000
      3415        27  PMPE      H12X           -0.5066056362      -24.3190516068        2.9365118875  MEMB      27              0.0000000000
      3416        27  PMPE      H12Y           -2.0993959516      -25.2741982159        3.9319219230  MEMB      27              0.0000000000
      3417        27  PMPE      C313           -3.3804069482      -23.4679101819        1.9997610682  MEMB      27              0.0000000000
      3418        27  PMPE      H13X           -3.7468424638      -22.6276063365        2.5163681585  MEMB      27              0.0000000000
      3419        27  PMPE      H13Y           -4.0395721796      -24.1010744366        1.5302776722  MEMB      27              0.0000000000
      3420        27  PMPE      C314           -2.5304324754      -22.0969364751        0.8401977485  MEMB      27              0.0000000000
      3421        27  PMPE      H14X           -1.6944701555      -22.5909795990       -0.0937182749  MEMB      27              0.0000000000
      3422        27  PMPE      H14Y           -1.6569632243      -21.6358686510        1.3933622214  MEMB      27              0.0000000000
      3423        27  PMPE      C315           -3.1921143795      -21.8770293126       -0.2884907957  MEMB      27              0.0000000000
      3424        27  PMPE      H15X           -3.9334724670      -21.4056381065        0.3420883281  MEMB      27              0.0000000000
      3425        27  PMPE      H15Y           -3.5732636792      -22.7774663289       -0.7766822808  MEMB      27              0.0000000000
      3426        27  PMPE      C316           -2.2422753870      -21.1072962709       -1.1383826585  MEMB      27              0.0000000000
      3427        27  PMPE      H16X           -1.7559897901      -20.3333904788       -0.5209963136  MEMB      27              0.0000000000
      3428        27  PMPE      H16Y           -2.9210220569      -20.6680225325       -1.8241829184  MEMB      27              0.0000000000
      3429        27  PMPE      H16Z           -1.4385988842      -21.7664175352       -1.6055262059  MEMB      27              0.0000000000
      3430        28  PMPE      N              21.1835613813       15.0833609205       18.3492349192  MEMB      28              0.0000000000
      3431        28  PMPE      HN1            22.1092092177       14.6300117073       18.2496421474  MEMB      28              0.0000000000
      3432        28  PMPE      HN2            20.8012378411       15.2741154632       17.3942591966  MEMB      28              0.0000000000
      3433        28  PMPE      HN3            21.1368247010       15.8930753821       18.9460332359  MEMB      28              0.0000000000
      3434        28  PMPE      C12            20.1402570523       14.3511626870       19.1049216606  MEMB      28              0.0000000000
      3435        28  PMPE      H12A           20.3548014768       13.7477965141       19.9840000459  MEMB      28              0.0000000000
      3436        28  PMPE      H12B           20.4013148281       13.6748589537       18.5057117717  MEMB      28              0.0000000000
      3437        28  PMPE      C11            18.7011517211       14.6353569194       18.8072120028  MEMB      28              0.0000000000
      3438        28  PMPE      H11A           18.0318865638       13.8737953577       19.2925840417  MEMB      28              0.0000000000
      3439        28  PMPE      H11B           18.4496940367       14.6666027632       17.7113558072  MEMB      28              0.0000000000
      3440        28  PMPE      P              17.4678861305       16.8872368411       19.3061801323  MEMB      28              0.0000000000
      3441        28  PMPE      O13            17.7992541484       18.1716385016       19.9745472245  MEMB      28              0.0000000000
      3442        28  PMPE      O14            16.1743836191       16.2474847374       19.5794709471  MEMB      28              0.0000000000
      3443        28  PMPE      O11            17.5411107243       17.0653342727       17.7409541104  MEMB      28              0.0000000000
      3444        28  PMPE      O12            18.6613372351       15.8458211424       19.4848265667  MEMB      28              0.0000000000
      3445        28  PMPE      C1             18.6201507757       17.7443199648       17.1221792311  MEMB      28              0.0000000000
      3446        28  PMPE      HA             19.2076512932       17.0286456842       16.4914798110  MEMB      28              0.0000000000
      3447        28  PMPE      HB             19.2071944043       18.2846496218       17.8947004318  MEMB      28              0.0000000000
      3448        28  PMPE      C2             18.1071831840       18.8447416481       16.1768291083  MEMB      28              0.0000000000
      3449        28  PMPE      HS             17.7228507385       19.6728765083       16.7910967262  MEMB      28              0.0000000000
      3450        28  PMPE      O21            17.0122970808       18.2711008013       15.4414233274  MEMB      28              0.0000000000
      3451        28  PMPE      C21            16.1294837836       19.1463488434       14.9918836985  MEMB      28              0.0000000000
      3452        28  PMPE      O22            16.2479013319       20.3629542120       15.0963316307  MEMB      28              0.0000000000
      3453        28  PMPE      C22            14.9413340533       18.4329778206       14.3232814035  MEMB      28              0.0000000000
      3454        28  PMPE      H2R            13.9625422227       18.9232935755       14.5060919435  MEMB      28              0.0000000000
      3455        28  PMPE      H2S            14.8240504020       17.4337594215       14.7905626558  MEMB      28              0.0000000000
      3456        28  PMPE      C3             19.2216966186       19.3919350071       15.2293050781  MEMB      28              0.0000000000
      3457        28  PMPE      HX             20.0458763140       19.9224623804       15.7520012802  MEMB      28              0.0000000000
      3458        28  PMPE      HY             18.7464241440       20.1489380588       14.5653074426  MEMB      28              0.0000000000
      3459        28  PMPE      O31            19.7200019374       18.2678674227       14.5017624784  MEMB      28              0.0000000000
      3460        28  PMPE      C31            20.5490223925       18.4572941763       13.5284758284  MEMB      28              0.0000000000
      3461        28  PMPE      O32            21.3033251351       19.3943998132       13.3531083005  MEMB      28              0.0000000000
      3462        28  PMPE      C32            20.4172752940       17.3058714848       12.5685726179  MEMB      28              0.0000000000
      3463        28  PMPE      H2X            20.1408592965       16.3448611764       13.0718958280  MEMB      28              0.0000000000
      3464        28  PMPE      H2Y            21.4430122941       17.3438014646       12.1531822688  MEMB      28              0.0000000000
      3465        28  PMPE      C23            15.1271174255       18.2707233392       12.7948135279  MEMB      28              0.0000000000
      3466        28  PMPE      H3R            16.0134173984       17.6143731126       12.6291643390  MEMB      28              0.0000000000
      3467        28  PMPE      H3S            15.4150142200       19.2234136304       12.2910971636  MEMB      28              0.0000000000
      3468        28  PMPE      C24            13.8236447311       17.6589060728       12.2124210174  MEMB      28              0.0000000000
      3469        28  PMPE      H4R            12.9192038652       18.2371535131       12.5133522448  MEMB      28              0.0000000000
      3470        28  PMPE      H4S            13.6750355123       16.6190802961       12.5817117812  MEMB      28              0.0000000000
      3471        28  PMPE      C25            13.7444069443       17.6227011515       10.7021206091  MEMB      28              0.0000000000
      3472        28  PMPE      H5R            12.8198508173       17.0853586197       10.3854940146  MEMB      28              0.0000000000
      3473        28  PMPE      H5S            14.6106392957       17.0458924892       10.3167371986  MEMB      28              0.0000000000
      3474        28  PMPE      C26            13.7349551210       19.0224453048       10.1479243114  MEMB      28              0.0000000000
      3475        28  PMPE      H6R            14.5714382286       19.6212758743       10.5567875212  MEMB      28              0.0000000000
      3476        28  PMPE      H6S            12.8113067765       19.5854942007       10.4317528453  MEMB      28              0.0000000000
      3477        28  PMPE      C27            13.8277882977       18.9117048239        8.6563096961  MEMB      28              0.0000000000
      3478        28  PMPE      H7R            13.4818513627       19.9028004634        8.5315363195  MEMB      28              0.0000000000
      3479        28  PMPE      H7S            13.1212046115       18.1525512669        8.2518014994  MEMB      28              0.0000000000
      3480        28  PMPE      C28            15.2211876961       18.7061535715        8.1216714685  MEMB      28              0.0000000000
      3481        28  PMPE      H8R            15.2664344401       18.2356777788        7.2500181598  MEMB      28              0.0000000000
      3482        28  PMPE      H8S            15.6083917000       17.8081278769        8.5613400958  MEMB      28              0.0000000000
      3483        28  PMPE      C29            16.1835277248       19.8376243644        8.1275669915  MEMB      28              0.0000000000
      3484        28  PMPE      H9R            16.3185178180       20.2262823215        9.1350003817  MEMB      28              0.0000000000
      3485        28  PMPE      C217           16.4728855578       20.7424137187        6.9059064292  MEMB      28              0.0000000000
      3486        28  PMPE      H17R           16.8152382509       21.6936353120        7.2279913152  MEMB      28              0.0000000000
      3487        28  PMPE      H17S           15.7927014409       20.6314658090        6.1483950205  MEMB      28              0.0000000000
      3488        28  PMPE      C210           17.4175069746       19.7706192148        7.2958411551  MEMB      28              0.0000000000
      3489        28  PMPE      H10R           18.1310423091       20.0899750596        7.9940090955  MEMB      28              0.0000000000
      3490        28  PMPE      C211           17.6164844679       18.6703000054        6.3994705350  MEMB      28              0.0000000000
      3491        28  PMPE      H11R           16.7133017853       18.4903424405        5.8278352044  MEMB      28              0.0000000000
      3492        28  PMPE      H11S           17.9540893832       17.7762096939        6.9591513552  MEMB      28              0.0000000000
      3493        28  PMPE      C212           18.6659774089       18.9267068370        5.4499217276  MEMB      28              0.0000000000
      3494        28  PMPE      H12R           19.4745438828       19.4687857752        5.9389710943  MEMB      28              0.0000000000
      3495        28  PMPE      H12S           18.4893260439       19.7476082766        4.7360207822  MEMB      28              0.0000000000
      3496        28  PMPE      C213           18.7898933447       17.4811744167        4.8616034631  MEMB      28              0.0000000000
      3497        28  PMPE      H13R           18.9969496239       16.5667657921        5.2672783982  MEMB      28              0.0000000000
      3498        28  PMPE      H13S           19.8540829726       17.2805883590        4.8814524628  MEMB      28              0.0000000000
      3499        28  PMPE      C214           18.2841616865       17.3316998711        3.3876353612  MEMB      28              0.0000000000
      3500        28  PMPE      H14R           18.2756449994       18.4098782650        3.2739640931  MEMB      28              0.0000000000
      3501        28  PMPE      H14S           17.3573132753       17.6588565269        3.0758387324  MEMB      28              0.0000000000
      3502        28  PMPE      C215           19.0559968912       16.4266775962        2.2903106140  MEMB      28              0.0000000000
      3503        28  PMPE      H15R           18.7668034760       16.7173078647        1.2970217579  MEMB      28              0.0000000000
      3504        28  PMPE      H15S           18.7026826317       15.4470598576        2.5990717519  MEMB      28              0.0000000000
      3505        28  PMPE      C216           20.5534988041       16.0639246883        2.0124541935  MEMB      28              0.0000000000
      3506        28  PMPE      H16R           21.0762250832       16.9739164798        1.6415488045  MEMB      28              0.0000000000
      3507        28  PMPE      H16S           21.0175397365       15.9301802605        3.0283212104  MEMB      28              0.0000000000
      3508        28  PMPE      H16T           20.7571898636       15.3532925121        1.2583878246  MEMB      28              0.0000000000
      3509        28  PMPE      C33            19.4798056172       17.4297567800       11.3543545312  MEMB      28              0.0000000000
      3510        28  PMPE      H3X            19.8489800834       18.1998170266       10.6518500157  MEMB      28              0.0000000000
      3511        28  PMPE      H3Y            18.5007939322       17.7453377434       11.7670192618  MEMB      28              0.0000000000
      3512        28  PMPE      C34            19.3173685595       16.1165452199       10.5443349836  MEMB      28              0.0000000000
      3513        28  PMPE      H4X            18.2660144542       16.0591181823       10.1726825748  MEMB      28              0.0000000000
      3514        28  PMPE      H4Y            19.5731257172       15.2683057875       11.2174845195  MEMB      28              0.0000000000
      3515        28  PMPE      C35            20.2050924927       16.0768758336        9.2915031202  MEMB      28              0.0000000000
      3516        28  PMPE      H5X            21.1999658388       16.4198782630        9.6328668655  MEMB      28              0.0000000000
      3517        28  PMPE      H5Y            19.8241355873       16.8782040308        8.6232187100  MEMB      28              0.0000000000
      3518        28  PMPE      C36            20.4265778372       14.7160373374        8.5666726709  MEMB      28              0.0000000000
      3519        28  PMPE      H6X            21.0050948517       14.0352236739        9.2199394678  MEMB      28              0.0000000000
      3520        28  PMPE      H6Y            21.0567780215       14.9274480823        7.6687803446  MEMB      28              0.0000000000
      3521        28  PMPE      C37            19.1977233317       13.8887164246        8.1526476626  MEMB      28              0.0000000000
      3522        28  PMPE      H7X            18.6754134014       13.5219313540        9.0675777359  MEMB      28              0.0000000000
      3523        28  PMPE      H7Y            19.5190438070       12.9603464500        7.6200278419  MEMB      28              0.0000000000
      3524        28  PMPE      C38            18.2473073547       14.6726191958        7.2540046438  MEMB      28              0.0000000000
      3525        28  PMPE      H8X            18.7446710592       14.9586483088        6.2910798299  MEMB      28              0.0000000000
      3526        28  PMPE      H8Y            17.9598973565       15.6255823066        7.7554797502  MEMB      28              0.0000000000
      3527        28  PMPE      C39            16.9338190606       13.9309658672        7.0729359529  MEMB      28              0.0000000000
      3528        28  PMPE      H9X            16.4615764767       13.5941588488        8.0203632490  MEMB      28              0.0000000000
      3529        28  PMPE      H9Y            17.0180530671       13.0243059321        6.4384129190  MEMB      28              0.0000000000
      3530        28  PMPE      C310           16.0173747566       14.8567247448        6.4139126847  MEMB      28              0.0000000000
      3531        28  PMPE      H10X           15.6442460352       15.7596969377        6.9029951111  MEMB      28              0.0000000000
      3532        28  PMPE      H10Y           15.1127515812       14.4350644097        6.3331435046  MEMB      28              0.0000000000
      3533        28  PMPE      C311           16.2992468810       14.9867550885        5.0007367809  MEMB      28              0.0000000000
      3534        28  PMPE      H11X           16.3719207037       13.9781718151        4.4778626600  MEMB      28              0.0000000000
      3535        28  PMPE      H11Y           17.1055516954       15.5332319191        4.6840481332  MEMB      28              0.0000000000
      3536        28  PMPE      C312           15.0059395210       15.5809853009        4.8433220193  MEMB      28              0.0000000000
      3537        28  PMPE      H12X           14.6857253522       14.7401813736        4.6801777636  MEMB      28              0.0000000000
      3538        28  PMPE      H12Y           15.1299649616       15.9609312931        3.9926541086  MEMB      28              0.0000000000
      3539        28  PMPE      C313           14.1227005163       16.6164641553        4.6491467108  MEMB      28              0.0000000000
      3540        28  PMPE      H13X           14.9759940987       17.0462569039        5.2394923735  MEMB      28              0.0000000000
      3541        28  PMPE      H13Y           13.4277838223       16.5455608149        5.3684270870  MEMB      28              0.0000000000
      3542        28  PMPE      C314           13.3401791119       17.2310104121        3.3333404855  MEMB      28              0.0000000000
      3543        28  PMPE      H14X           12.5702808952       16.5486245305        3.1413754088  MEMB      28              0.0000000000
      3544        28  PMPE      H14Y           14.1504559376       17.0452389861        2.5146036206  MEMB      28              0.0000000000
      3545        28  PMPE      C315           12.6198575657       18.7517691721        3.2564790274  MEMB      28              0.0000000000
      3546        28  PMPE      H15X           13.3301165842       19.6156033496        3.3678362679  MEMB      28              0.0000000000
      3547        28  PMPE      H15Y           12.1041109463       19.0167177301        4.1114784410  MEMB      28              0.0000000000
      3548        28  PMPE      C316           12.1731738737       19.4389541030        2.0055440646  MEMB      28              0.0000000000
      3549        28  PMPE      H16X           12.7624648646       19.1200446290        1.1339028428  MEMB      28              0.0000000000
      3550        28  PMPE      H16Y           12.2500498569       20.5651923809        2.0479990584  MEMB      28              0.0000000000
      3551        28  PMPE      H16Z           11.2501972252       18.9414685821        1.9037435572  MEMB      28              0.0000000000
      3552        29  PMPE      N             -12.3327070834       19.6820408752       19.5747846702  MEMB      29              0.0000000000
      3553        29  PMPE      HN1           -11.4204266654       19.2468664157       19.7659330632  MEMB      29              0.0000000000
      3554        29  PMPE      HN2           -13.0413601955       18.9164486014       19.6253224811  MEMB      29              0.0000000000
      3555        29  PMPE      HN3           -12.3225399496       20.0384352721       18.5911187244  MEMB      29              0.0000000000
      3556        29  PMPE      C12           -12.4791658448       20.8191464931       20.5848084325  MEMB      29              0.0000000000
      3557        29  PMPE      H12A          -12.3181671412       20.4194206528       21.6070327273  MEMB      29              0.0000000000
      3558        29  PMPE      H12B          -13.4940781250       21.1850286406       20.4474919050  MEMB      29              0.0000000000
      3559        29  PMPE      C11           -11.4392894736       21.9535695916       20.4737564492  MEMB      29              0.0000000000
      3560        29  PMPE      H11A          -10.4450528696       21.5126012549       20.7375889465  MEMB      29              0.0000000000
      3561        29  PMPE      H11B          -11.5643857637       22.7587824510       21.2374131104  MEMB      29              0.0000000000
      3562        29  PMPE      P             -10.1818394782       22.3832548329       18.3636807468  MEMB      29              0.0000000000
      3563        29  PMPE      O13            -8.9727104207       22.2820137521       19.1730943296  MEMB      29              0.0000000000
      3564        29  PMPE      O14           -10.1900401449       23.2513823954       17.3074992168  MEMB      29              0.0000000000
      3565        29  PMPE      O11           -10.4869984907       21.2939029681       17.3761580282  MEMB      29              0.0000000000
      3566        29  PMPE      O12           -11.4928942428       22.5312571459       19.1806595420  MEMB      29              0.0000000000
      3567        29  PMPE      C1             -9.4561326317       20.7473434220       16.6671799882  MEMB      29              0.0000000000
      3568        29  PMPE      HA             -9.7374801219       19.7249466205       16.5615238861  MEMB      29              0.0000000000
      3569        29  PMPE      HB             -8.4238663245       20.9260080929       17.1327300445  MEMB      29              0.0000000000
      3570        29  PMPE      C2             -9.5430823443       21.2139443446       15.2669654686  MEMB      29              0.0000000000
      3571        29  PMPE      HS             -8.9814023279       20.2668915378       14.7431364818  MEMB      29              0.0000000000
      3572        29  PMPE      O21            -9.2649693452       22.5819995095       15.3435431319  MEMB      29              0.0000000000
      3573        29  PMPE      C21            -8.3136214364       22.4545668740       15.3561992136  MEMB      29              0.0000000000
      3574        29  PMPE      O22            -7.6345953022       21.4211074610       14.9276380507  MEMB      29              0.0000000000
      3575        29  PMPE      C22            -8.0759672647       23.8899407506       15.2051707395  MEMB      29              0.0000000000
      3576        29  PMPE      H2R            -7.2723849471       23.9910389752       15.8775513158  MEMB      29              0.0000000000
      3577        29  PMPE      H2S            -8.8554634674       24.5119753326       15.0376700771  MEMB      29              0.0000000000
      3578        29  PMPE      C3            -10.6082796076       21.2586192193       14.3852752190  MEMB      29              0.0000000000
      3579        29  PMPE      HX            -11.3144317709       21.9828025592       14.8403787046  MEMB      29              0.0000000000
      3580        29  PMPE      HY            -10.9477714123       20.2247662708       14.4475117492  MEMB      29              0.0000000000
      3581        29  PMPE      O31           -10.0569061779       21.6242618721       13.0805966136  MEMB      29              0.0000000000
      3582        29  PMPE      C31           -10.9035580369       21.4083368410       12.2186850734  MEMB      29              0.0000000000
      3583        29  PMPE      O32           -11.9982571406       21.2452703983       12.5909043204  MEMB      29              0.0000000000
      3584        29  PMPE      C32           -10.3685306534       21.3916513790       10.8047938556  MEMB      29              0.0000000000
      3585        29  PMPE      H2X           -10.5861581518       20.5083956780       10.1769539979  MEMB      29              0.0000000000
      3586        29  PMPE      H2Y            -9.3087338753       21.2418626404       11.0376431383  MEMB      29              0.0000000000
      3587        29  PMPE      C23            -6.2997048736       25.4070504170       13.1024877229  MEMB      29              0.0000000000
      3588        29  PMPE      H3R            -5.3513416695       25.1277698515       13.6516399547  MEMB      29              0.0000000000
      3589        29  PMPE      H3S            -6.2830302761       26.4997701351       13.3205263874  MEMB      29              0.0000000000
      3590        29  PMPE      C24            -6.8575024808       25.2306115945       12.0807648034  MEMB      29              0.0000000000
      3591        29  PMPE      H4R            -8.0143968350       24.9420103459       12.0883987325  MEMB      29              0.0000000000
      3592        29  PMPE      H4S            -6.5636844591       24.5613220599       11.5523631743  MEMB      29              0.0000000000
      3593        29  PMPE      C25            -6.1311607384       25.5685141471       10.9960378573  MEMB      29              0.0000000000
      3594        29  PMPE      H5R            -5.0661452769       25.2133156624       11.2422174773  MEMB      29              0.0000000000
      3595        29  PMPE      H5S            -6.2276664071       26.5662753991       11.2850540379  MEMB      29              0.0000000000
      3596        29  PMPE      C26            -6.9465192529       25.2036590681        9.7353187913  MEMB      29              0.0000000000
      3597        29  PMPE      H6R            -7.1068897298       24.1153017916        9.6642716505  MEMB      29              0.0000000000
      3598        29  PMPE      H6S            -6.2591027741       25.5329721957        8.9749443365  MEMB      29              0.0000000000
      3599        29  PMPE      C27            -8.3214121061       25.8553852345        9.5092776579  MEMB      29              0.0000000000
      3600        29  PMPE      H7R            -8.3193148837       26.8444794677        9.8997094164  MEMB      29              0.0000000000
      3601        29  PMPE      H7S            -9.1458397220       25.3777779663       10.0691331434  MEMB      29              0.0000000000
      3602        29  PMPE      C28            -8.7437773017       26.0935814179        8.0955802411  MEMB      29              0.0000000000
      3603        29  PMPE      H8R            -8.1095203375       26.8871821954        7.6678151151  MEMB      29              0.0000000000
      3604        29  PMPE      H8S            -9.7727019918       26.5248055951        8.1452104313  MEMB      29              0.0000000000
      3605        29  PMPE      C29            -8.6281910446       24.7373683374        7.4167482589  MEMB      29              0.0000000000
      3606        29  PMPE      H9R            -8.9848715539       23.8481163373        7.9384948229  MEMB      29              0.0000000000
      3607        29  PMPE      C217           -7.3945193328       24.4526454997        6.5618214725  MEMB      29              0.0000000000
      3608        29  PMPE      H17R           -7.0860676555       23.4228556091        6.5584283575  MEMB      29              0.0000000000
      3609        29  PMPE      H17S           -6.7249715259       25.2807697282        6.3780090346  MEMB      29              0.0000000000
      3610        29  PMPE      C210           -8.7862042682       24.5858442947        5.9442147182  MEMB      29              0.0000000000
      3611        29  PMPE      H10R           -9.2066255532       23.6575687922        5.5370958416  MEMB      29              0.0000000000
      3612        29  PMPE      C211           -8.8752225324       25.7574844435        5.0743833944  MEMB      29              0.0000000000
      3613        29  PMPE      H11R           -8.5469831058       25.5623093743        4.0559041772  MEMB      29              0.0000000000
      3614        29  PMPE      H11S           -8.0353262131       26.4131425721        5.3968865751  MEMB      29              0.0000000000
      3615        29  PMPE      C212          -10.3178597675       26.2709120387        5.0680509052  MEMB      29              0.0000000000
      3616        29  PMPE      H12R          -10.2529830070       27.0373670409        4.3106548996  MEMB      29              0.0000000000
      3617        29  PMPE      H12S          -10.6241607832       26.5985146993        6.0855477427  MEMB      29              0.0000000000
      3618        29  PMPE      C213          -11.4123803001       25.6991782067        4.2181986949  MEMB      29              0.0000000000
      3619        29  PMPE      H13R          -12.3948208820       26.2326177566        4.3279792218  MEMB      29              0.0000000000
      3620        29  PMPE      H13S          -11.4844982324       24.7124184206        4.6143300620  MEMB      29              0.0000000000
      3621        29  PMPE      C214          -11.0424045216       25.3868481698        2.7880604286  MEMB      29              0.0000000000
      3622        29  PMPE      H14R          -11.9360045576       25.0094905428        2.2630434335  MEMB      29              0.0000000000
      3623        29  PMPE      H14S          -10.2046017881       24.7277520373        2.6029427083  MEMB      29              0.0000000000
      3624        29  PMPE      C215          -10.6300701393       26.5147816925        2.0729979724  MEMB      29              0.0000000000
      3625        29  PMPE      H15R           -9.9676843372       27.2277591390        2.2720833413  MEMB      29              0.0000000000
      3626        29  PMPE      H15S          -11.5210585925       27.1873995261        2.5613388705  MEMB      29              0.0000000000
      3627        29  PMPE      C216          -10.1876627407       26.2895344924        0.4883760570  MEMB      29              0.0000000000
      3628        29  PMPE      H16R          -11.0072905915       25.8170899845       -0.1313109504  MEMB      29              0.0000000000
      3629        29  PMPE      H16S          -10.0441934078       27.2660457094       -0.1033509822  MEMB      29              0.0000000000
      3630        29  PMPE      H16T           -9.3335254686       25.7440256491        0.3637128046  MEMB      29              0.0000000000
      3631        29  PMPE      C33           -10.7090399575       22.7290772272       10.1260141108  MEMB      29              0.0000000000
      3632        29  PMPE      H3X            -9.9649451272       22.9401275476        9.3444613021  MEMB      29              0.0000000000
      3633        29  PMPE      H3Y           -10.6526830823       23.5868218304       10.8282950419  MEMB      29              0.0000000000
      3634        29  PMPE      C34           -12.0697028408       22.6987169934        9.4948776291  MEMB      29              0.0000000000
      3635        29  PMPE      H4X           -12.3428665151       23.6866425457        9.1393128827  MEMB      29              0.0000000000
      3636        29  PMPE      H4Y           -12.8419409989       22.4299857940       10.2408597771  MEMB      29              0.0000000000
      3637        29  PMPE      C35           -12.1470780542       21.7507707974        8.3594535981  MEMB      29              0.0000000000
      3638        29  PMPE      H5X           -12.1720780788       20.7298608939        8.7511726796  MEMB      29              0.0000000000
      3639        29  PMPE      H5Y           -11.2898888327       21.8470666832        7.6673282405  MEMB      29              0.0000000000
      3640        29  PMPE      C36           -13.4399811370       21.9100713632        7.7187051855  MEMB      29              0.0000000000
      3641        29  PMPE      H6X           -13.3864413661       22.7246113857        7.2003735007  MEMB      29              0.0000000000
      3642        29  PMPE      H6Y           -14.3075581168       22.2121521186        8.3106104678  MEMB      29              0.0000000000
      3643        29  PMPE      C37           -13.6442774642       20.8405867721        6.8026852382  MEMB      29              0.0000000000
      3644        29  PMPE      H7X           -14.6570055547       21.0246764308        6.4260978637  MEMB      29              0.0000000000
      3645        29  PMPE      H7Y           -13.7840295324       20.0261425194        7.5274355762  MEMB      29              0.0000000000
      3646        29  PMPE      C38           -12.6545166161       20.5815861936        5.5965495647  MEMB      29              0.0000000000
      3647        29  PMPE      H8X           -11.7776479981       20.1093791201        5.9697904847  MEMB      29              0.0000000000
      3648        29  PMPE      H8Y           -12.5954009085       21.6065350305        5.1581933835  MEMB      29              0.0000000000
      3649        29  PMPE      C39           -12.8281837420       19.5107852651        4.4346270119  MEMB      29              0.0000000000
      3650        29  PMPE      H9X           -13.2296685366       19.8292039037        3.4700815664  MEMB      29              0.0000000000
      3651        29  PMPE      H9Y           -13.4480612666       18.6902492464        4.6465089465  MEMB      29              0.0000000000
      3652        29  PMPE      C310          -11.8558115175       19.1433305462        3.5227051584  MEMB      29              0.0000000000
      3653        29  PMPE      H10X          -12.3678916508       18.3930182935        2.8521389299  MEMB      29              0.0000000000
      3654        29  PMPE      H10Y          -11.2620281638       18.7461750376        4.3336932966  MEMB      29              0.0000000000
      3655        29  PMPE      C311          -11.2111341108       20.2933556654        2.7948319427  MEMB      29              0.0000000000
      3656        29  PMPE      H11X          -10.3222606420       19.7639565727        2.4311824558  MEMB      29              0.0000000000
      3657        29  PMPE      H11Y          -10.8260097220       21.0610343370        3.4475598075  MEMB      29              0.0000000000
      3658        29  PMPE      C312          -11.8784948857       20.9721659199        1.6387816725  MEMB      29              0.0000000000
      3659        29  PMPE      H12X          -11.1894631291       21.6588360272        1.1489633332  MEMB      29              0.0000000000
      3660        29  PMPE      H12Y          -12.7184928098       21.5611769816        1.8301014140  MEMB      29              0.0000000000
      3661        29  PMPE      C313          -12.4439843510       20.1785526421        0.6665671819  MEMB      29              0.0000000000
      3662        29  PMPE      H13X          -13.1279828516       19.3517246931        0.9512300260  MEMB      29              0.0000000000
      3663        29  PMPE      H13Y          -11.5662833371       19.8801508595        0.1519567476  MEMB      29              0.0000000000
      3664        29  PMPE      C314          -12.8800330380       20.9598951351       -0.3247819313  MEMB      29              0.0000000000
      3665        29  PMPE      H14X          -13.8449576015       21.0078257275       -0.4064845281  MEMB      29              0.0000000000
      3666        29  PMPE      H14Y          -13.3063849961       20.2573873855       -0.7551966911  MEMB      29              0.0000000000
      3667        29  PMPE      C315          -11.9889209827       21.6513875659       -1.0912324265  MEMB      29              0.0000000000
      3668        29  PMPE      H15X          -10.9814077362       21.1700483558       -0.8030452150  MEMB      29              0.0000000000
      3669        29  PMPE      H15Y          -11.8518733817       22.4941896768       -0.5038263327  MEMB      29              0.0000000000
      3670        29  PMPE      C316          -12.2670245492       22.2020779074       -2.5168349602  MEMB      29              0.0000000000
      3671        29  PMPE      H16X          -13.1141388951       22.5155667838       -2.7759837095  MEMB      29              0.0000000000
      3672        29  PMPE      H16Y          -11.9174971649       21.5653465671       -3.3868786360  MEMB      29              0.0000000000
      3673        29  PMPE      H16Z          -11.7301174057       23.1529806877       -2.7698103413  MEMB      29              0.0000000000
      3674        30  POPE      N              -8.2235810085      -25.5195815238       20.0645513257  MEMB      30              0.0000000000
      3675        30  POPE      HN1            -8.8244145890      -26.3379885324       19.8776945025  MEMB      30              0.0000000000
      3676        30  POPE      HN2            -7.5050393879      -25.7972863560       20.7584954181  MEMB      30              0.0000000000
      3677        30  POPE      HN3            -8.8376656343      -24.7700567325       20.4721546002  MEMB      30              0.0000000000
      3678        30  POPE      C12            -7.3922458417      -25.1134494841       18.8487191088  MEMB      30              0.0000000000
      3679        30  POPE      H12A           -7.2371355873      -26.0665941956       18.3051424323  MEMB      30              0.0000000000
      3680        30  POPE      H12B           -6.4204963464      -24.7066296757       19.2339354283  MEMB      30              0.0000000000
      3681        30  POPE      C11            -8.0134790702      -24.0301679185       17.9271803669  MEMB      30              0.0000000000
      3682        30  POPE      H11A           -8.8996156451      -24.3901095421       17.3491637129  MEMB      30              0.0000000000
      3683        30  POPE      H11B           -7.2988303724      -23.7396980319       17.1127032169  MEMB      30              0.0000000000
      3684        30  POPE      P              -7.4128320170      -21.6996960572       19.0854365683  MEMB      30              0.0000000000
      3685        30  POPE      O13            -6.5430459235      -22.1035876118       20.2020494347  MEMB      30              0.0000000000
      3686        30  POPE      O14            -8.2396293222      -20.4986087442       19.2925993600  MEMB      30              0.0000000000
      3687        30  POPE      O11            -6.5116684081      -21.5270455522       17.8189980271  MEMB      30              0.0000000000
      3688        30  POPE      O12            -8.3782165440      -22.9152061986       18.7277016983  MEMB      30              0.0000000000
      3689        30  POPE      C1             -5.3200838189      -20.7274592952       17.9635259913  MEMB      30              0.0000000000
      3690        30  POPE      HA             -4.7854611007      -20.8235406873       18.9336893147  MEMB      30              0.0000000000
      3691        30  POPE      HB             -5.6257077844      -19.6774048815       17.8243852308  MEMB      30              0.0000000000
      3692        30  POPE      C2             -4.3103893024      -21.0178557008       16.8655746237  MEMB      30              0.0000000000
      3693        30  POPE      HS             -3.5741845265      -20.1746616271       16.7399315247  MEMB      30              0.0000000000
      3694        30  POPE      O21            -5.0801798312      -21.3247461547       15.7534511026  MEMB      30              0.0000000000
      3695        30  POPE      C21            -5.1857586398      -20.4099335887       15.0608950341  MEMB      30              0.0000000000
      3696        30  POPE      O22            -4.7369306442      -19.2508215134       15.1926599893  MEMB      30              0.0000000000
      3697        30  POPE      C22            -5.9487576962      -21.2382214394       13.9900877810  MEMB      30              0.0000000000
      3698        30  POPE      H2R            -6.2539414356      -20.6894056754       13.3060232764  MEMB      30              0.0000000000
      3699        30  POPE      H2S            -6.9534980887      -21.5404760458       14.1651510899  MEMB      30              0.0000000000
      3700        30  POPE      C3             -3.4278280939      -22.2068875206       17.0764025765  MEMB      30              0.0000000000
      3701        30  POPE      HX             -4.1161929066      -22.9464636060       17.5482925482  MEMB      30              0.0000000000
      3702        30  POPE      HY             -2.5895951708      -22.0130270098       17.7584451586  MEMB      30              0.0000000000
      3703        30  POPE      O31            -2.8602359551      -22.5421492715       15.8041921241  MEMB      30              0.0000000000
      3704        30  POPE      C31            -3.2290061130      -23.6560974933       15.2727855205  MEMB      30              0.0000000000
      3705        30  POPE      O32            -4.1462357781      -24.3578618949       15.6180209352  MEMB      30              0.0000000000
      3706        30  POPE      C32            -2.3102093159      -23.9376988338       14.1729209832  MEMB      30              0.0000000000
      3707        30  POPE      H2X            -1.4442477379      -23.8497717341       14.7801058402  MEMB      30              0.0000000000
      3708        30  POPE      H2Y            -2.0130263759      -23.1570082252       13.4957460109  MEMB      30              0.0000000000
      3709        30  POPE      C23            -5.2056458016      -21.9826038941       12.9208816541  MEMB      30              0.0000000000
      3710        30  POPE      H3R            -4.9997090844      -22.8826514054       13.3642129214  MEMB      30              0.0000000000
      3711        30  POPE      H3S            -4.1495317475      -21.7159697005       12.9989124972  MEMB      30              0.0000000000
      3712        30  POPE      C24            -5.7700684689      -21.9726794421       11.4567122078  MEMB      30              0.0000000000
      3713        30  POPE      H4R            -4.9966168965      -22.4817856545       10.8582859325  MEMB      30              0.0000000000
      3714        30  POPE      H4S            -5.9280289738      -20.9628920930       10.9727611128  MEMB      30              0.0000000000
      3715        30  POPE      C25            -7.0238226224      -22.7586543534       11.3107153962  MEMB      30              0.0000000000
      3716        30  POPE      H5R            -7.8336290568      -22.1820620835       11.8025263503  MEMB      30              0.0000000000
      3717        30  POPE      H5S            -6.8464709791      -23.7304526800       11.8220714349  MEMB      30              0.0000000000
      3718        30  POPE      C26            -7.4100743408      -23.0218570239        9.8541658144  MEMB      30              0.0000000000
      3719        30  POPE      H6R            -7.5883614541      -22.0934610492        9.2844664840  MEMB      30              0.0000000000
      3720        30  POPE      H6S            -8.3956897509      -23.5051922068        9.8791544514  MEMB      30              0.0000000000
      3721        30  POPE      C27            -6.3725746462      -23.8030689435        9.0388084544  MEMB      30              0.0000000000
      3722        30  POPE      H7R            -5.4446059389      -23.2235073456        9.1754345440  MEMB      30              0.0000000000
      3723        30  POPE      H7S            -6.5999395636      -23.7401311507        7.9514319250  MEMB      30              0.0000000000
      3724        30  POPE      C28            -6.1530661785      -25.2515705087        9.5141562779  MEMB      30              0.0000000000
      3725        30  POPE      H8R            -7.1081189762      -25.6553849356        9.8888243140  MEMB      30              0.0000000000
      3726        30  POPE      H8S            -5.5222492426      -25.2442816528       10.4266343744  MEMB      30              0.0000000000
      3727        30  POPE      C29            -5.5781798459      -26.2104378514        8.5020847256  MEMB      30              0.0000000000
      3728        30  POPE      H91            -4.4877356080      -26.2313799149        8.4414183202  MEMB      30              0.0000000000
      3729        30  POPE      C210           -6.2461822936      -27.0459245172        7.6966636161  MEMB      30              0.0000000000
      3730        30  POPE      H101           -5.6932807151      -27.7029866865        7.0202547873  MEMB      30              0.0000000000
      3731        30  POPE      C211           -7.7214413963      -27.2226756936        7.6056112887  MEMB      30              0.0000000000
      3732        30  POPE      H11R           -8.2324564509      -26.5509738368        8.3246620483  MEMB      30              0.0000000000
      3733        30  POPE      H11S           -7.9780657093      -28.2629529447        7.8840183465  MEMB      30              0.0000000000
      3734        30  POPE      C212           -8.2242640819      -26.9434105124        6.1816973336  MEMB      30              0.0000000000
      3735        30  POPE      H12R           -9.2840585655      -27.2702550280        6.1761591044  MEMB      30              0.0000000000
      3736        30  POPE      H12S           -7.6665145462      -27.5184198404        5.4005502564  MEMB      30              0.0000000000
      3737        30  POPE      C213           -8.1895950091      -25.4512976869        5.8409642872  MEMB      30              0.0000000000
      3738        30  POPE      H13R           -7.1365071110      -25.1415881095        5.7003942455  MEMB      30              0.0000000000
      3739        30  POPE      H13S           -8.5887910561      -24.8642213614        6.7098621255  MEMB      30              0.0000000000
      3740        30  POPE      C214           -9.0615255026      -25.0978127740        4.6223275588  MEMB      30              0.0000000000
      3741        30  POPE      H14R           -9.3676886875      -24.0365393879        4.7062803309  MEMB      30              0.0000000000
      3742        30  POPE      H14S           -9.9917112297      -25.6880452270        4.7026985862  MEMB      30              0.0000000000
      3743        30  POPE      C215           -8.5744583166      -25.4355214400        3.2010823975  MEMB      30              0.0000000000
      3744        30  POPE      H15R           -9.4707602204      -25.6987558295        2.5932770083  MEMB      30              0.0000000000
      3745        30  POPE      H15S           -7.9190617351      -26.3322215486        3.2095905023  MEMB      30              0.0000000000
      3746        30  POPE      C216           -7.9312770912      -24.2409042559        2.4999775985  MEMB      30              0.0000000000
      3747        30  POPE      H16R           -7.1881825271      -23.8273374735        3.2038615823  MEMB      30              0.0000000000
      3748        30  POPE      H16S           -8.6434612621      -23.4262263536        2.2332186490  MEMB      30              0.0000000000
      3749        30  POPE      C217           -7.1480717743      -24.5701117484        1.2436152037  MEMB      30              0.0000000000
      3750        30  POPE      H17R           -6.2610587596      -25.1765473137        1.5121589778  MEMB      30              0.0000000000
      3751        30  POPE      H17S           -6.7111184105      -23.6058464816        0.9029061036  MEMB      30              0.0000000000
      3752        30  POPE      C218           -7.9477902546      -25.2602403454        0.1405973656  MEMB      30              0.0000000000
      3753        30  POPE      H18R           -8.7133520805      -24.6145336427       -0.3182863462  MEMB      30              0.0000000000
      3754        30  POPE      H18S           -8.4333952397      -26.2016684627        0.4440521142  MEMB      30              0.0000000000
      3755        30  POPE      H18T           -7.2812714453      -25.5253411308       -0.6630814745  MEMB      30              0.0000000000
      3756        30  POPE      C33            -2.7043208054      -25.1794322773       13.4868731953  MEMB      30              0.0000000000
      3757        30  POPE      H3X            -3.7493654674      -25.4075402416       13.3553931370  MEMB      30              0.0000000000
      3758        30  POPE      H3Y            -2.3926650859      -26.0324684137       14.1142512453  MEMB      30              0.0000000000
      3759        30  POPE      C34            -2.2581934409      -25.1596446456       12.0714437364  MEMB      30              0.0000000000
      3760        30  POPE      H4X            -2.7097945003      -26.1252178959       11.5962774961  MEMB      30              0.0000000000
      3761        30  POPE      H4Y            -1.1231572783      -25.0582873881       12.1653933857  MEMB      30              0.0000000000
      3762        30  POPE      C35            -2.4607298784      -24.1554500896       11.0656447874  MEMB      30              0.0000000000
      3763        30  POPE      H5X            -2.2669856208      -23.2124822030       11.5593579260  MEMB      30              0.0000000000
      3764        30  POPE      H5Y            -3.4469084220      -24.2948140471       10.6692437401  MEMB      30              0.0000000000
      3765        30  POPE      C36            -1.6124043468      -24.2102755692        9.8460336263  MEMB      30              0.0000000000
      3766        30  POPE      H6X            -1.6363948372      -25.0834054311        9.1720836483  MEMB      30              0.0000000000
      3767        30  POPE      H6Y            -0.6109616730      -24.3679169490       10.3235429042  MEMB      30              0.0000000000
      3768        30  POPE      C37            -1.9067076563      -22.9835092785        8.9129239123  MEMB      30              0.0000000000
      3769        30  POPE      H7X            -1.6474194000      -22.1145276506        9.4662253277  MEMB      30              0.0000000000
      3770        30  POPE      H7Y            -2.9003558657      -23.0921550575        8.5377894013  MEMB      30              0.0000000000
      3771        30  POPE      C38            -1.0814077665      -22.6154256492        7.6781654237  MEMB      30              0.0000000000
      3772        30  POPE      H8X            -0.7314811940      -23.6040134524        7.2624241229  MEMB      30              0.0000000000
      3773        30  POPE      H8Y            -0.2715179103      -21.9983888880        8.1702261510  MEMB      30              0.0000000000
      3774        30  POPE      C39            -1.3907490572      -21.8530017458        6.5242212441  MEMB      30              0.0000000000
      3775        30  POPE      H9X            -0.6047970857      -22.1547018481        5.7936774495  MEMB      30              0.0000000000
      3776        30  POPE      H9Y            -1.2478400910      -20.7993468541        6.7958601723  MEMB      30              0.0000000000
      3777        30  POPE      C310           -2.6961030110      -22.2893664011        6.0412546549  MEMB      30              0.0000000000
      3778        30  POPE      H10X           -2.8175304100      -21.6675202246        5.1327939613  MEMB      30              0.0000000000
      3779        30  POPE      H10Y           -3.5766003592      -22.1298415389        6.6877380871  MEMB      30              0.0000000000
      3780        30  POPE      C311           -2.7935410640      -23.7175434450        5.7794252774  MEMB      30              0.0000000000
      3781        30  POPE      H11X           -3.6787505442      -24.1923467695        6.1769349292  MEMB      30              0.0000000000
      3782        30  POPE      H11Y           -1.8836598811      -24.3271224404        5.9421549101  MEMB      30              0.0000000000
      3783        30  POPE      C312           -3.2101399618      -23.6335576673        4.4914115127  MEMB      30              0.0000000000
      3784        30  POPE      H12X           -4.1288001065      -23.3772162549        4.0946472913  MEMB      30              0.0000000000
      3785        30  POPE      H12Y           -3.6675447892      -24.7881148472        4.3709023749  MEMB      30              0.0000000000
      3786        30  POPE      C313           -1.7177301788      -23.0184116754        3.6515369734  MEMB      30              0.0000000000
      3787        30  POPE      H13X           -0.9638478619      -23.8990868472        4.3783991667  MEMB      30              0.0000000000
      3788        30  POPE      H13Y           -1.5513522505      -22.3122778704        3.0387315460  MEMB      30              0.0000000000
      3789        30  POPE      C314           -1.2953517759      -23.9719950321        1.2523446370  MEMB      30              0.0000000000
      3790        30  POPE      H14X           -0.4445978830      -23.8346836442        1.1129336603  MEMB      30              0.0000000000
      3791        30  POPE      H14Y           -2.1270037652      -24.1034402517        0.5679728185  MEMB      30              0.0000000000
      3792        30  POPE      C315           -2.1641351742      -25.5623391481        0.6277472069  MEMB      30              0.0000000000
      3793        30  POPE      H15X           -2.1760552559      -25.6481360089       -0.3314036396  MEMB      30              0.0000000000
      3794        30  POPE      H15Y           -3.2796109502      -25.6838492278        1.0843692556  MEMB      30              0.0000000000
      3795        30  POPE      C316           -1.3501255281      -27.1353834024        0.7953844396  MEMB      30              0.0000000000
      3796        30  POPE      H16X           -0.2452376207      -27.0664705867        1.1056368991  MEMB      30              0.0000000000
      3797        30  POPE      H16Y           -1.9111543505      -27.9176692255        0.9197395488  MEMB      30              0.0000000000
      3798        30  POPE      H16Z           -1.5609991035      -27.6584336966        1.8891590027  MEMB      30              0.0000000000
      3799        31  POPE      N              25.3094068845       11.2724324444       17.3576546286  MEMB      31              0.0000000000
      3800        31  POPE      HN1            25.2366689291       12.1220177587       16.7626339999  MEMB      31              0.0000000000
      3801        31  POPE      HN2            24.9562268652       11.5064361237       18.3052054783  MEMB      31              0.0000000000
      3802        31  POPE      HN3            26.2708776963       10.9089441290       17.5236441762  MEMB      31              0.0000000000
      3803        31  POPE      C12            24.5819202048       10.0952015290       16.7441947093  MEMB      31              0.0000000000
      3804        31  POPE      H12A           25.2381936674        9.6673790372       15.9700453788  MEMB      31              0.0000000000
      3805        31  POPE      H12B           23.6781809834       10.5013276402       16.2346472097  MEMB      31              0.0000000000
      3806        31  POPE      C11            24.2417624135        9.0281897610       17.7998012330  MEMB      31              0.0000000000
      3807        31  POPE      H11A           25.1063884053        8.4716925788       18.2574606448  MEMB      31              0.0000000000
      3808        31  POPE      H11B           23.6100027105        8.2377245547       17.3365138164  MEMB      31              0.0000000000
      3809        31  POPE      P              22.9279682944        9.1250416591       20.1109412727  MEMB      31              0.0000000000
      3810        31  POPE      O13            23.2004048835       10.1228120512       21.1624430577  MEMB      31              0.0000000000
      3811        31  POPE      O14            23.4376564173        7.7616113590       20.2394546100  MEMB      31              0.0000000000
      3812        31  POPE      O11            21.3688984568        9.1225659799       19.9026943019  MEMB      31              0.0000000000
      3813        31  POPE      O12            23.4917561491        9.7335918874       18.7656475549  MEMB      31              0.0000000000
      3814        31  POPE      C1             20.7814374992       10.4093637344       19.8351630015  MEMB      31              0.0000000000
      3815        31  POPE      HA             21.3885508326       11.2778923277       19.5591628476  MEMB      31              0.0000000000
      3816        31  POPE      HB             19.9634090756       10.6374974881       20.5528184982  MEMB      31              0.0000000000
      3817        31  POPE      C2             19.9776782284       10.3425177617       18.7374689388  MEMB      31              0.0000000000
      3818        31  POPE      HS             19.0110313954        9.9176284887       19.2144754451  MEMB      31              0.0000000000
      3819        31  POPE      O21            20.7147437669        9.5946512834       17.5973028717  MEMB      31              0.0000000000
      3820        31  POPE      C21            20.3032235532        8.6905403099       16.7058604319  MEMB      31              0.0000000000
      3821        31  POPE      O22            19.2353731941        7.9801306717       16.8465794541  MEMB      31              0.0000000000
      3822        31  POPE      C22            21.1632818614        9.2491982771       15.1156563516  MEMB      31              0.0000000000
      3823        31  POPE      H2R            21.7621905438        8.4926906824       15.3382564822  MEMB      31              0.0000000000
      3824        31  POPE      H2S            21.4006014489       10.3613292474       14.8584900706  MEMB      31              0.0000000000
      3825        31  POPE      C3             19.5540714694       11.8432779319       18.3267514270  MEMB      31              0.0000000000
      3826        31  POPE      HX             18.6192986556       12.2431386258       18.8178221786  MEMB      31              0.0000000000
      3827        31  POPE      HY             18.7343071804       12.2560938448       17.7679949149  MEMB      31              0.0000000000
      3828        31  POPE      O31            20.3843157878       12.3670706341       17.1481898382  MEMB      31              0.0000000000
      3829        31  POPE      C31            20.2861136744       12.9141837676       15.9048358455  MEMB      31              0.0000000000
      3830        31  POPE      O32            19.6272147856       12.7173191385       14.9466185957  MEMB      31              0.0000000000
      3831        31  POPE      C32            21.3369173658       13.8940992262       15.5748131060  MEMB      31              0.0000000000
      3832        31  POPE      H2X            22.2577181934       13.7035735109       16.0941617453  MEMB      31              0.0000000000
      3833        31  POPE      H2Y            21.0037352446       14.8595113474       15.9472414851  MEMB      31              0.0000000000
      3834        31  POPE      C23            20.6397697633        8.8154195805       13.6420704995  MEMB      31              0.0000000000
      3835        31  POPE      H3R            20.0053376861        9.6933380345       13.1653152489  MEMB      31              0.0000000000
      3836        31  POPE      H3S            20.0211898045        7.7690939792       13.7883417912  MEMB      31              0.0000000000
      3837        31  POPE      C24            21.1358905553        7.9759900487       12.6614049236  MEMB      31              0.0000000000
      3838        31  POPE      H4R            20.3571057897        7.6748292310       11.9208795265  MEMB      31              0.0000000000
      3839        31  POPE      H4S            21.4499119621        7.0607312524       13.2023548743  MEMB      31              0.0000000000
      3840        31  POPE      C25            22.0968592924        8.8688645550       12.0966700567  MEMB      31              0.0000000000
      3841        31  POPE      H5R            22.6527498532        9.2349023258       12.9810311642  MEMB      31              0.0000000000
      3842        31  POPE      H5S            21.6656373827        9.7755593408       11.6249982388  MEMB      31              0.0000000000
      3843        31  POPE      C26            22.8449092387        7.9642647600       11.1745872421  MEMB      31              0.0000000000
      3844        31  POPE      H6R            22.0974190113        7.4774935117       10.5133895366  MEMB      31              0.0000000000
      3845        31  POPE      H6S            23.2451872791        7.1493344002       11.8131205189  MEMB      31              0.0000000000
      3846        31  POPE      C27            24.0256654145        8.6237469557       10.4603034238  MEMB      31              0.0000000000
      3847        31  POPE      H7R            24.6699411537        8.9986585205       11.2873027554  MEMB      31              0.0000000000
      3848        31  POPE      H7S            23.7253869941        9.4481506579        9.7716842103  MEMB      31              0.0000000000
      3849        31  POPE      C28            24.9560597238        7.7297371025        9.6115841295  MEMB      31              0.0000000000
      3850        31  POPE      H8R            25.6376200873        7.1446963158       10.2624004433  MEMB      31              0.0000000000
      3851        31  POPE      H8S            25.6362550026        8.4258001821        9.0630802849  MEMB      31              0.0000000000
      3852        31  POPE      C29            24.1827438691        6.8356267210        8.6736551009  MEMB      31              0.0000000000
      3853        31  POPE      H91            23.5563172262        6.0713529699        9.1622134846  MEMB      31              0.0000000000
      3854        31  POPE      C210           24.0809681381        6.9653167147        7.3393230453  MEMB      31              0.0000000000
      3855        31  POPE      H101           23.3647426657        6.3337110030        6.8229353441  MEMB      31              0.0000000000
      3856        31  POPE      C211           24.7177552054        8.0355817657        6.4577279541  MEMB      31              0.0000000000
      3857        31  POPE      H11R           24.8978599677        9.0076330471        6.8992335450  MEMB      31              0.0000000000
      3858        31  POPE      H11S           24.3940749976        8.1251814720        5.4161837260  MEMB      31              0.0000000000
      3859        31  POPE      C212           26.0181702057        7.8312073191        6.1091931138  MEMB      31              0.0000000000
      3860        31  POPE      H12R           26.1598331854        7.5223717419        5.1970179950  MEMB      31              0.0000000000
      3861        31  POPE      H12S           26.2323826635        6.8636747402        6.7611435395  MEMB      31              0.0000000000
      3862        31  POPE      C213           27.0949914578        8.9182094077        5.3697516240  MEMB      31              0.0000000000
      3863        31  POPE      H13R           28.1562297281        8.5432153213        4.9700497348  MEMB      31              0.0000000000
      3864        31  POPE      H13S           27.2054540166        9.3300258207        6.2845364476  MEMB      31              0.0000000000
      3865        31  POPE      C214           26.8162973442        9.6634612512        4.2605622619  MEMB      31              0.0000000000
      3866        31  POPE      H14R           26.1701288428       10.3691064012        4.7344061418  MEMB      31              0.0000000000
      3867        31  POPE      H14S           26.2693078629        8.9601256634        3.6636323093  MEMB      31              0.0000000000
      3868        31  POPE      C215           28.0459334952       10.1252485024        3.5730526235  MEMB      31              0.0000000000
      3869        31  POPE      H15R           28.5650305872        9.3525559324        2.9909793777  MEMB      31              0.0000000000
      3870        31  POPE      H15S           28.8121768627       10.3999024314        4.2543643177  MEMB      31              0.0000000000
      3871        31  POPE      C216           27.6643751358       11.2104960727        2.6627844988  MEMB      31              0.0000000000
      3872        31  POPE      H16R           26.8561500123       10.7498637240        2.0933349914  MEMB      31              0.0000000000
      3873        31  POPE      H16S           28.5814005386       11.5444877231        2.1242304377  MEMB      31              0.0000000000
      3874        31  POPE      C217           26.8593735351       12.3850952434        2.9786943205  MEMB      31              0.0000000000
      3875        31  POPE      H17R           27.5568583107       12.9505262013        3.4590459656  MEMB      31              0.0000000000
      3876        31  POPE      H17S           25.9623630458       12.1435021393        3.5434932036  MEMB      31              0.0000000000
      3877        31  POPE      C218           26.6602008159       13.4236873156        1.9289277632  MEMB      31              0.0000000000
      3878        31  POPE      H18R           27.6284610222       13.7774015523        1.5237670154  MEMB      31              0.0000000000
      3879        31  POPE      H18S           26.1355754049       14.3272645497        2.3559540051  MEMB      31              0.0000000000
      3880        31  POPE      H18T           26.2508447792       12.9080594748        1.0948317752  MEMB      31              0.0000000000
      3881        31  POPE      C33            21.5592410342       13.8883680646       14.0235459553  MEMB      31              0.0000000000
      3882        31  POPE      H3X            20.7307835042       14.3099832908       13.3951802489  MEMB      31              0.0000000000
      3883        31  POPE      H3Y            21.7851027881       12.8690625055       13.6187462671  MEMB      31              0.0000000000
      3884        31  POPE      C34            22.7104734183       14.8077075914       13.6732111988  MEMB      31              0.0000000000
      3885        31  POPE      H4X            23.6826625603       14.3887416448       13.9436300198  MEMB      31              0.0000000000
      3886        31  POPE      H4Y            22.6251815584       15.7101581743       14.3033081811  MEMB      31              0.0000000000
      3887        31  POPE      C35            22.6825402107       15.2753298891       12.2178837288  MEMB      31              0.0000000000
      3888        31  POPE      H5X            23.1863251517       16.2259272263       12.0228515679  MEMB      31              0.0000000000
      3889        31  POPE      H5Y            21.7407645540       15.6276448140       12.0026225061  MEMB      31              0.0000000000
      3890        31  POPE      C36            22.6692814152       14.2879221553       11.0506465579  MEMB      31              0.0000000000
      3891        31  POPE      H6X            22.5666290557       14.9071003027       10.1344000312  MEMB      31              0.0000000000
      3892        31  POPE      H6Y            21.7641188851       13.6859577783       11.1493672328  MEMB      31              0.0000000000
      3893        31  POPE      C37            23.7687028493       13.2455039569       10.9868865945  MEMB      31              0.0000000000
      3894        31  POPE      H7X            24.0426276176       12.9360816285       12.0027508392  MEMB      31              0.0000000000
      3895        31  POPE      H7Y            24.6766582320       13.6761634200       10.6873136255  MEMB      31              0.0000000000
      3896        31  POPE      C38            23.9780571101       12.2987219664        9.8764860312  MEMB      31              0.0000000000
      3897        31  POPE      H8X            23.3113703582       11.5493761178       10.2584419409  MEMB      31              0.0000000000
      3898        31  POPE      H8Y            25.0708856819       12.0346219021        9.8373408097  MEMB      31              0.0000000000
      3899        31  POPE      C39            23.5145008686       12.6921429022        8.5138313173  MEMB      31              0.0000000000
      3900        31  POPE      H9X            24.2588407408       13.3437021520        8.1585740197  MEMB      31              0.0000000000
      3901        31  POPE      H9Y            22.6121762131       13.2879887663        8.5967550861  MEMB      31              0.0000000000
      3902        31  POPE      C310           23.5265712081       11.5585577475        7.5316385433  MEMB      31              0.0000000000
      3903        31  POPE      H10X           22.7672820244       10.8581634950        7.9003067956  MEMB      31              0.0000000000
      3904        31  POPE      H10Y           24.5193440324       11.0834152103        7.5929884198  MEMB      31              0.0000000000
      3905        31  POPE      C311           23.2040998576       11.9039507569        6.0791884598  MEMB      31              0.0000000000
      3906        31  POPE      H11X           23.9596165574       12.3893412399        5.4210564003  MEMB      31              0.0000000000
      3907        31  POPE      H11Y           22.3407458402       12.5921706471        6.0787909346  MEMB      31              0.0000000000
      3908        31  POPE      C312           23.2090325759       10.8054184261        5.1079991696  MEMB      31              0.0000000000
      3909        31  POPE      H12X           24.1810478694       10.2856842010        5.2300702791  MEMB      31              0.0000000000
      3910        31  POPE      H12Y           23.2304573951       11.2641842173        4.0888003576  MEMB      31              0.0000000000
      3911        31  POPE      C313           22.0088817436        9.9333704729        5.3708134450  MEMB      31              0.0000000000
      3912        31  POPE      H13X           21.0709888859       10.5377343800        5.3998004544  MEMB      31              0.0000000000
      3913        31  POPE      H13Y           22.1365194069        9.5636914268        6.4174040208  MEMB      31              0.0000000000
      3914        31  POPE      C314           21.8283909231        8.7824982902        4.3564348225  MEMB      31              0.0000000000
      3915        31  POPE      H14X           20.8380427792        8.3305923420        4.5873081025  MEMB      31              0.0000000000
      3916        31  POPE      H14Y           22.5868427944        7.9879819349        4.5020577787  MEMB      31              0.0000000000
      3917        31  POPE      C315           21.9617659441        9.1322094855        2.8557577583  MEMB      31              0.0000000000
      3918        31  POPE      H15X           22.9603209132        9.6248099739        2.6966503291  MEMB      31              0.0000000000
      3919        31  POPE      H15Y           21.0993686861        9.7811450902        2.5680190448  MEMB      31              0.0000000000
      3920        31  POPE      C316           21.9865769389        7.9159816181        1.9195077487  MEMB      31              0.0000000000
      3921        31  POPE      H16X           22.8239877081        7.2488455764        2.2292492220  MEMB      31              0.0000000000
      3922        31  POPE      H16Y           22.1635148028        8.2519806963        0.8753475470  MEMB      31              0.0000000000
      3923        31  POPE      H16Z           21.0175928345        7.3712791845        1.9177677434  MEMB      31              0.0000000000
      3924        32  PMPE      N              10.3728875496      -21.6420992649       19.5408092128  MEMB      32              0.0000000000
      3925        32  PMPE      HN1            10.9366926453      -21.5868705366       18.6614269515  MEMB      32              0.0000000000
      3926        32  PMPE      HN2             9.3952070669      -21.8392401967       19.2305103363  MEMB      32              0.0000000000
      3927        32  PMPE      HN3            10.4076647293      -20.7115048473       20.0145621046  MEMB      32              0.0000000000
      3928        32  PMPE      C12            10.8787117876      -22.7150670897       20.4121922050  MEMB      32              0.0000000000
      3929        32  PMPE      H12A           10.8140354670      -22.3079542245       21.4189118493  MEMB      32              0.0000000000
      3930        32  PMPE      H12B           11.9425723789      -22.9054139187       20.1780871949  MEMB      32              0.0000000000
      3931        32  PMPE      C11             9.9229222455      -23.8936724022       20.2755016727  MEMB      32              0.0000000000
      3932        32  PMPE      H11A            8.9436643921      -23.4827917991       20.6284541893  MEMB      32              0.0000000000
      3933        32  PMPE      H11B           10.1604397856      -24.7380403230       20.9573993798  MEMB      32              0.0000000000
      3934        32  PMPE      P               8.5724402125      -25.1797878671       18.4240377241  MEMB      32              0.0000000000
      3935        32  PMPE      O13             7.4044049679      -24.8273675699       19.2471560806  MEMB      32              0.0000000000
      3936        32  PMPE      O14             8.9648842667      -26.5823731400       18.2302050851  MEMB      32              0.0000000000
      3937        32  PMPE      O11             8.3646545645      -24.5003765881       16.9848345497  MEMB      32              0.0000000000
      3938        32  PMPE      O12             9.8642599685      -24.3383364611       18.9228455554  MEMB      32              0.0000000000
      3939        32  PMPE      C1              9.4821948886      -24.1060621140       16.1687749658  MEMB      32              0.0000000000
      3940        32  PMPE      HA             10.4452814212      -24.2243274960       16.7096147517  MEMB      32              0.0000000000
      3941        32  PMPE      HB              9.3912748530      -23.0341473871       15.8823677435  MEMB      32              0.0000000000
      3942        32  PMPE      C2              9.6159802404      -24.8609744702       14.8018758414  MEMB      32              0.0000000000
      3943        32  PMPE      HS             10.5243870662      -24.4564969939       14.2939384480  MEMB      32              0.0000000000
      3944        32  PMPE      O21             8.4173535645      -24.6719866255       14.0104099758  MEMB      32              0.0000000000
      3945        32  PMPE      C21             8.5424550312      -24.3338227384       12.7305313137  MEMB      32              0.0000000000
      3946        32  PMPE      O22             9.5785963258      -24.1209371950       12.1335560026  MEMB      32              0.0000000000
      3947        32  PMPE      C22             7.1543451376      -24.2082184047       12.1144303419  MEMB      32              0.0000000000
      3948        32  PMPE      H2R             6.8706806603      -23.1465368498       12.0317498425  MEMB      32              0.0000000000
      3949        32  PMPE      H2S             6.4731764701      -24.7063325483       12.8344489564  MEMB      32              0.0000000000
      3950        32  PMPE      C3              9.8839337839      -26.3707810732       15.0064863859  MEMB      32              0.0000000000
      3951        32  PMPE      HX              8.9625442734      -26.7677872141       15.4940629811  MEMB      32              0.0000000000
      3952        32  PMPE      HY             10.7559844427      -26.5842301341       15.6614787740  MEMB      32              0.0000000000
      3953        32  PMPE      O31            10.1025235737      -27.0094673568       13.7541545758  MEMB      32              0.0000000000
      3954        32  PMPE      C31            11.3090582660      -26.8632252076       13.2810825808  MEMB      32              0.0000000000
      3955        32  PMPE      O32            12.2771874004      -26.2956144321       13.7555045565  MEMB      32              0.0000000000
      3956        32  PMPE      C32            11.2962607208      -27.6818735278       12.0623466005  MEMB      32              0.0000000000
      3957        32  PMPE      H2X            10.9892712065      -28.6895589386       12.3353787617  MEMB      32              0.0000000000
      3958        32  PMPE      H2Y            12.3686994720      -27.7784860833       12.0828235320  MEMB      32              0.0000000000
      3959        32  PMPE      C23             7.0128443757      -24.8965160797       10.7369106420  MEMB      32              0.0000000000
      3960        32  PMPE      H3R             5.9263490840      -24.8443551842       10.4786138739  MEMB      32              0.0000000000
      3961        32  PMPE      H3S             7.3231001980      -25.9620221500       10.8774178424  MEMB      32              0.0000000000
      3962        32  PMPE      C24             7.7900026622      -24.3466349824        9.5203778714  MEMB      32              0.0000000000
      3963        32  PMPE      H4R             8.8631329945      -24.6160068875        9.6764409207  MEMB      32              0.0000000000
      3964        32  PMPE      H4S             7.6978134204      -23.2494761250        9.3179372547  MEMB      32              0.0000000000
      3965        32  PMPE      C25             7.2975332022      -25.0946623537        8.2673180803  MEMB      32              0.0000000000
      3966        32  PMPE      H5R             6.1932667969      -25.0759933992        8.1945116147  MEMB      32              0.0000000000
      3967        32  PMPE      H5S             7.5154976215      -26.1695228883        8.4436529393  MEMB      32              0.0000000000
      3968        32  PMPE      C26             7.9330473920      -24.6181893640        6.9489783613  MEMB      32              0.0000000000
      3969        32  PMPE      H6R             8.1579235109      -25.4962092080        6.3080131983  MEMB      32              0.0000000000
      3970        32  PMPE      H6S             8.9279310064      -24.1819351045        7.1482527852  MEMB      32              0.0000000000
      3971        32  PMPE      C27             7.0772286111      -23.6120007557        6.1698329073  MEMB      32              0.0000000000
      3972        32  PMPE      H7R             6.8553528392      -22.7441716804        6.8398058380  MEMB      32              0.0000000000
      3973        32  PMPE      H7S             6.1456994516      -24.1214498948        5.8877214625  MEMB      32              0.0000000000
      3974        32  PMPE      C28             7.7082959977      -23.1904091185        4.8439847142  MEMB      32              0.0000000000
      3975        32  PMPE      H8R             6.9467664742      -22.7355841011        4.1731038802  MEMB      32              0.0000000000
      3976        32  PMPE      H8S             8.1098911678      -24.0536848963        4.2895877063  MEMB      32              0.0000000000
      3977        32  PMPE      C29             8.8886706140      -22.3402783250        5.1179478688  MEMB      32              0.0000000000
      3978        32  PMPE      H9R             9.6990160485      -22.6777864213        5.7979506775  MEMB      32              0.0000000000
      3979        32  PMPE      C217            8.5079067949      -20.9809301638        5.5499805410  MEMB      32              0.0000000000
      3980        32  PMPE      H17R            9.2482741207      -20.6433894599        6.1560497669  MEMB      32              0.0000000000
      3981        32  PMPE      H17S            7.4695181893      -20.7388210347        5.5557190861  MEMB      32              0.0000000000
      3982        32  PMPE      C210            9.1252277235      -21.2076145658        4.2010944678  MEMB      32              0.0000000000
      3983        32  PMPE      H10R           10.2075816765      -21.0765490436        4.1133189869  MEMB      32              0.0000000000
      3984        32  PMPE      C211            8.2087591748      -20.7025277889        3.0484266077  MEMB      32              0.0000000000
      3985        32  PMPE      H11R            8.0489559840      -19.5998886445        2.8624255809  MEMB      32              0.0000000000
      3986        32  PMPE      H11S            7.1906026790      -20.8279050147        3.3544367849  MEMB      32              0.0000000000
      3987        32  PMPE      C212            8.7500047817      -21.1676912116        1.7146847236  MEMB      32              0.0000000000
      3988        32  PMPE      H12R            8.9453901575      -22.2366821142        1.8827889593  MEMB      32              0.0000000000
      3989        32  PMPE      H12S            9.7216355625      -20.7279596564        1.3669313392  MEMB      32              0.0000000000
      3990        32  PMPE      C213            7.7018836442      -20.9538512634        0.6348276568  MEMB      32              0.0000000000
      3991        32  PMPE      H13R            8.1746529465      -20.7640972889       -0.3560412637  MEMB      32              0.0000000000
      3992        32  PMPE      H13S            7.0571303532      -20.0830399359        0.9049185803  MEMB      32              0.0000000000
      3993        32  PMPE      C214            6.7238699090      -22.1132538396        0.5374807457  MEMB      32              0.0000000000
      3994        32  PMPE      H14R            6.2757038861      -22.3025085830        1.5254773668  MEMB      32              0.0000000000
      3995        32  PMPE      H14S            7.1447834450      -23.0463885207        0.0990748463  MEMB      32              0.0000000000
      3996        32  PMPE      C215            5.5162874378      -21.7656927144       -0.2158055018  MEMB      32              0.0000000000
      3997        32  PMPE      H15R            5.0199116525      -20.8275361236        0.0656757155  MEMB      32              0.0000000000
      3998        32  PMPE      H15S            4.9300484915      -22.6703064237       -0.2507434603  MEMB      32              0.0000000000
      3999        32  PMPE      C216            5.7809180849      -21.6865382704       -1.5228625806  MEMB      32              0.0000000000
      4000        32  PMPE      H16R            6.7944465329      -21.3047698115       -1.5874845138  MEMB      32              0.0000000000
      4001        32  PMPE      H16S            6.1551959219      -22.5642427653       -2.0092202903  MEMB      32              0.0000000000
      4002        32  PMPE      H16T            5.0951965223      -21.0000957934       -2.1584721341  MEMB      32              0.0000000000
      4003        32  PMPE      C33            10.5650059002      -27.0680284343       10.8330748796  MEMB      32              0.0000000000
      4004        32  PMPE      H3X            10.8586245409      -25.9978382384       10.7927331146  MEMB      32              0.0000000000
      4005        32  PMPE      H3Y             9.4873836484      -27.1321292503       10.9576072904  MEMB      32              0.0000000000
      4006        32  PMPE      C34            10.7911758719      -27.5917387950        9.4256079376  MEMB      32              0.0000000000
      4007        32  PMPE      H4X            10.3391832616      -28.5048786484        9.1090305259  MEMB      32              0.0000000000
      4008        32  PMPE      H4Y            11.7023311569      -28.1219910965        9.4553851894  MEMB      32              0.0000000000
      4009        32  PMPE      C35            10.6541269723      -26.4876043479        8.2995429923  MEMB      32              0.0000000000
      4010        32  PMPE      H5X            11.4713981386      -25.6762356253        8.4095020262  MEMB      32              0.0000000000
      4011        32  PMPE      H5Y             9.8972404560      -25.8591133030        8.5032817567  MEMB      32              0.0000000000
      4012        32  PMPE      C36            10.6727989431      -27.1604116714        6.9073680934  MEMB      32              0.0000000000
      4013        32  PMPE      H6X             9.9676586761      -27.9001763174        6.7076710792  MEMB      32              0.0000000000
      4014        32  PMPE      H6Y            11.4000637726      -27.8635058931        6.8077303957  MEMB      32              0.0000000000
      4015        32  PMPE      C37            10.7498222644      -26.3219068225        5.7053125794  MEMB      32              0.0000000000
      4016        32  PMPE      H7X            11.6377139011      -26.0462287672        5.8497428233  MEMB      32              0.0000000000
      4017        32  PMPE      H7Y            10.4161020812      -25.3394593629        5.9268479835  MEMB      32              0.0000000000
      4018        32  PMPE      C38            10.9179176874      -26.7996574854        4.2656574417  MEMB      32              0.0000000000
      4019        32  PMPE      H8X            10.0682387530      -27.4717701474        4.2883577456  MEMB      32              0.0000000000
      4020        32  PMPE      H8Y            11.8412515550      -27.3714892600        3.9961715694  MEMB      32              0.0000000000
      4021        32  PMPE      C39            10.7300141215      -25.6502920823        3.2460347561  MEMB      32              0.0000000000
      4022        32  PMPE      H9X            11.6663242915      -25.0851595600        3.1133296164  MEMB      32              0.0000000000
      4023        32  PMPE      H9Y             9.9423763055      -24.9304690448        3.6017266262  MEMB      32              0.0000000000
      4024        32  PMPE      C310           10.5613481286      -26.1338493809        1.8044832587  MEMB      32              0.0000000000
      4025        32  PMPE      H10X           11.4693034080      -26.6569347799        1.4357429804  MEMB      32              0.0000000000
      4026        32  PMPE      H10Y           10.3919670035      -25.2313672696        1.1828330371  MEMB      32              0.0000000000
      4027        32  PMPE      C311            9.4263612972      -27.1173176531        1.6542171531  MEMB      32              0.0000000000
      4028        32  PMPE      H11X            9.7492844628      -28.0163137750        2.2251101555  MEMB      32              0.0000000000
      4029        32  PMPE      H11Y            9.2340592398      -27.4964021162        0.6204133374  MEMB      32              0.0000000000
      4030        32  PMPE      C312            8.2353681395      -26.4777571065        2.3430594376  MEMB      32              0.0000000000
      4031        32  PMPE      H12X            7.7598576397      -25.6419950834        1.7815421449  MEMB      32              0.0000000000
      4032        32  PMPE      H12Y            8.4018672622      -26.2585857341        3.4066530817  MEMB      32              0.0000000000
      4033        32  PMPE      C313            7.2158358923      -27.3770675663        2.6533788294  MEMB      32              0.0000000000
      4034        32  PMPE      H13X            6.8890516508      -27.6188477131        3.6978316675  MEMB      32              0.0000000000
      4035        32  PMPE      H13Y            7.7321700045      -28.3872518971        2.3921511174  MEMB      32              0.0000000000
      4036        32  PMPE      C314            5.9749637446      -26.7820865394        1.8526462137  MEMB      32              0.0000000000
      4037        32  PMPE      H14X            5.2954987517      -25.9932451894        1.9318565373  MEMB      32              0.0000000000
      4038        32  PMPE      H14Y            5.3592865904      -27.3121396484        2.6780632777  MEMB      32              0.0000000000
      4039        32  PMPE      C315            5.8499062317      -27.0121833976        0.2311833775  MEMB      32              0.0000000000
      4040        32  PMPE      H15X            5.6651066422      -27.9269669972       -0.0237377846  MEMB      32              0.0000000000
      4041        32  PMPE      H15Y            6.8350022468      -27.1597154619       -0.1519253457  MEMB      32              0.0000000000
      4042        32  PMPE      C316            4.8198179359      -26.4434227569       -0.6661991136  MEMB      32              0.0000000000
      4043        32  PMPE      H16X            5.0604370379      -26.7865970986       -1.6982440971  MEMB      32              0.0000000000
      4044        32  PMPE      H16Y            5.0542452996      -25.4273925191       -0.4453822852  MEMB      32              0.0000000000
      4045        32  PMPE      H16Z            3.7748763303      -26.7281416218       -0.4047571048  MEMB      32              0.0000000000
      4046        33  PMPG      C13           -18.7830860282      -18.0052829625       21.2946812075  MEMB      33              0.0000000000
      4047        33  PMPG      H13A          -18.9779840664      -18.6395974551       22.1774071205  MEMB      33              0.0000000000
      4048        33  PMPG      H13B          -18.2487383936      -18.5353919560       20.4587624765  MEMB      33              0.0000000000
      4049        33  PMPG      OC3           -17.9962767187      -16.9560290651       21.8357288399  MEMB      33              0.0000000000
      4050        33  PMPG      HO3           -17.5964868119      -16.4904789092       21.1005647135  MEMB      33              0.0000000000
      4051        33  PMPG      C12           -20.1323047144      -17.4820686064       20.7679263883  MEMB      33              0.0000000000
      4052        33  PMPG      H12A          -20.5658983375      -16.8087029700       21.5419625499  MEMB      33              0.0000000000
      4053        33  PMPG      OC2           -21.0431564771      -18.5646676407       20.5862139473  MEMB      33              0.0000000000
      4054        33  PMPG      HO2           -21.8168064592      -18.1667652027       20.1433215211  MEMB      33              0.0000000000
      4055        33  PMPG      C11           -19.8759557847      -16.6838295213       19.4597149926  MEMB      33              0.0000000000
      4056        33  PMPG      H11A          -19.0852257099      -17.1983450311       18.8576635106  MEMB      33              0.0000000000
      4057        33  PMPG      H11B          -19.4957887518      -15.6974848681       19.8072252647  MEMB      33              0.0000000000
      4058        33  PMPG      P             -20.9639622314      -16.1339420867       17.1488466861  MEMB      33              0.0000000000
      4059        33  PMPG      O13           -22.1393603344      -15.3309815654       16.7612042021  MEMB      33              0.0000000000
      4060        33  PMPG      O14           -20.7141042672      -17.3942632626       16.4329286296  MEMB      33              0.0000000000
      4061        33  PMPG      O11           -19.6675426399      -15.2483944728       17.0645389292  MEMB      33              0.0000000000
      4062        33  PMPG      O12           -21.0499147222      -16.4727471181       18.6882879377  MEMB      33              0.0000000000
      4063        33  PMPG      C1            -19.5582406013      -13.9323431946       17.5898455240  MEMB      33              0.0000000000
      4064        33  PMPG      HA            -18.9101802211      -13.9960361614       18.4892810370  MEMB      33              0.0000000000
      4065        33  PMPG      HB            -20.5437092371      -13.5152851096       17.9107232157  MEMB      33              0.0000000000
      4066        33  PMPG      C2            -18.8814244823      -13.0302176853       16.5216053120  MEMB      33              0.0000000000
      4067        33  PMPG      HS            -19.1207049317      -11.9568423134       16.6369558804  MEMB      33              0.0000000000
      4068        33  PMPG      O21           -19.3015322763      -13.3928071178       15.1948542926  MEMB      33              0.0000000000
      4069        33  PMPG      C21           -20.5908616922      -13.2859739215       14.8565519134  MEMB      33              0.0000000000
      4070        33  PMPG      O22           -21.4553718476      -12.6907083409       15.4707655485  MEMB      33              0.0000000000
      4071        33  PMPG      C22           -20.8526754210      -13.9672046909       13.4987548973  MEMB      33              0.0000000000
      4072        33  PMPG      H2R           -21.3811393226      -13.2762656596       12.8166162938  MEMB      33              0.0000000000
      4073        33  PMPG      H2S           -21.5279595105      -14.8117380393       13.7541853812  MEMB      33              0.0000000000
      4074        33  PMPG      C3            -17.3133965045      -13.1342002176       16.6643916354  MEMB      33              0.0000000000
      4075        33  PMPG      HX            -17.0750976988      -12.6792134801       17.6442694147  MEMB      33              0.0000000000
      4076        33  PMPG      HY            -16.8879548344      -12.4774191067       15.8763538219  MEMB      33              0.0000000000
      4077        33  PMPG      O31           -16.7595413406      -14.4704591853       16.6848087335  MEMB      33              0.0000000000
      4078        33  PMPG      C31           -16.2585580825      -14.9055470691       15.5461191484  MEMB      33              0.0000000000
      4079        33  PMPG      O32           -16.2347826445      -14.3052596216       14.4827495723  MEMB      33              0.0000000000
      4080        33  PMPG      C32           -15.6031269557      -16.2487235502       15.8240524400  MEMB      33              0.0000000000
      4081        33  PMPG      H2X           -15.6582122597      -16.5756210415       16.8820689496  MEMB      33              0.0000000000
      4082        33  PMPG      H2Y           -14.5869104699      -16.1425127687       15.5151024226  MEMB      33              0.0000000000
      4083        33  PMPG      C23           -19.6224935332      -14.4881526739       12.7377267977  MEMB      33              0.0000000000
      4084        33  PMPG      H3R           -20.0441074811      -15.1686272459       11.9606077362  MEMB      33              0.0000000000
      4085        33  PMPG      H3S           -18.9711125573      -15.1183034665       13.3793754868  MEMB      33              0.0000000000
      4086        33  PMPG      C24           -18.8449000952      -13.3537986734       12.0478127201  MEMB      33              0.0000000000
      4087        33  PMPG      H4R           -18.3546574214      -12.6768917720       12.7874598441  MEMB      33              0.0000000000
      4088        33  PMPG      H4S           -19.5874885941      -12.7321167320       11.5041573164  MEMB      33              0.0000000000
      4089        33  PMPG      C25           -17.7413320087      -13.9714530859       11.1831288523  MEMB      33              0.0000000000
      4090        33  PMPG      H5R           -18.1174480910      -14.6020192806       10.3570842874  MEMB      33              0.0000000000
      4091        33  PMPG      H5S           -17.1768193954      -14.6442748440       11.8811828496  MEMB      33              0.0000000000
      4092        33  PMPG      C26           -16.7950294909      -13.0509473058       10.4509955911  MEMB      33              0.0000000000
      4093        33  PMPG      H6R           -16.0921090745      -12.6688441716       11.2017445146  MEMB      33              0.0000000000
      4094        33  PMPG      H6S           -17.2534729866      -12.1851012802        9.9046011918  MEMB      33              0.0000000000
      4095        33  PMPG      C27           -15.9669618605      -13.8535641246        9.4647749089  MEMB      33              0.0000000000
      4096        33  PMPG      H7R           -16.5703101016      -14.0988588703        8.6049055391  MEMB      33              0.0000000000
      4097        33  PMPG      H7S           -15.6024087676      -14.7639701357        9.9133913909  MEMB      33              0.0000000000
      4098        33  PMPG      C28           -14.7892443641      -13.2134448766        9.0009149112  MEMB      33              0.0000000000
      4099        33  PMPG      H8R           -14.1548230183      -13.7682036953        8.3300777010  MEMB      33              0.0000000000
      4100        33  PMPG      H8S           -14.2538911308      -12.7133197405        9.7476752559  MEMB      33              0.0000000000
      4101        33  PMPG      C29           -15.2207225384      -12.1786792396        8.4755077963  MEMB      33              0.0000000000
      4102        33  PMPG      H9R           -15.6099101213      -11.4283337864        9.1876072004  MEMB      33              0.0000000000
      4103        33  PMPG      C217          -13.9246812470      -12.1126113327        7.5420193212  MEMB      33              0.0000000000
      4104        33  PMPG      H17R          -13.4190934171      -11.4620647593        6.8652330379  MEMB      33              0.0000000000
      4105        33  PMPG      H17S          -13.4477385543      -12.7453603028        6.8080325803  MEMB      33              0.0000000000
      4106        33  PMPG      C210          -15.8191121447      -12.0898118640        7.4737622764  MEMB      33              0.0000000000
      4107        33  PMPG      H10R          -16.2977470165      -10.9876514203        7.4707149964  MEMB      33              0.0000000000
      4108        33  PMPG      C211          -16.5287387649      -13.2752347722        6.5552259108  MEMB      33              0.0000000000
      4109        33  PMPG      H11R          -16.0576979636      -14.1696485754        6.7892220502  MEMB      33              0.0000000000
      4110        33  PMPG      H11S          -17.6375330265      -13.2247540839        6.3608151351  MEMB      33              0.0000000000
      4111        33  PMPG      C212          -16.2510667113      -13.5101101381        5.0220936248  MEMB      33              0.0000000000
      4112        33  PMPG      H12R          -16.6071307368      -14.3402005743        4.5034782592  MEMB      33              0.0000000000
      4113        33  PMPG      H12S          -15.3434967887      -13.0505336539        4.7581897383  MEMB      33              0.0000000000
      4114        33  PMPG      C213          -16.7149023410      -12.7539855738        3.7446170411  MEMB      33              0.0000000000
      4115        33  PMPG      H13R          -16.0376708363      -11.8727164133        3.6887521790  MEMB      33              0.0000000000
      4116        33  PMPG      H13S          -17.7461447181      -12.5071148914        3.9162007712  MEMB      33              0.0000000000
      4117        33  PMPG      C214          -16.7606723856      -12.9412321869        2.2797663263  MEMB      33              0.0000000000
      4118        33  PMPG      H14R          -17.4480983511      -13.6090948773        2.1238902183  MEMB      33              0.0000000000
      4119        33  PMPG      H14S          -16.1040810284      -13.7454150046        2.2431217938  MEMB      33              0.0000000000
      4120        33  PMPG      C215          -16.6657650380      -11.9027017253        1.1060198560  MEMB      33              0.0000000000
      4121        33  PMPG      H15R          -15.8776590961      -12.1028140284        0.4668171013  MEMB      33              0.0000000000
      4122        33  PMPG      H15S          -16.2440869991      -11.1135210084        1.1876433196  MEMB      33              0.0000000000
      4123        33  PMPG      C216          -17.6598758641      -10.9594884540        0.4577301422  MEMB      33              0.0000000000
      4124        33  PMPG      H16R          -17.6696653024      -10.3619375484       -0.4123224852  MEMB      33              0.0000000000
      4125        33  PMPG      H16S          -17.6132405023      -10.0721284399        1.0703935163  MEMB      33              0.0000000000
      4126        33  PMPG      H16T          -18.4797138772      -11.6763057845        0.4934580632  MEMB      33              0.0000000000
      4127        33  PMPG      C33           -16.2385770257      -17.3462194301       15.0235617150  MEMB      33              0.0000000000
      4128        33  PMPG      H3X           -17.2532658270      -17.5266982764       15.4134487475  MEMB      33              0.0000000000
      4129        33  PMPG      H3Y           -15.6452108705      -18.2053592304       15.2364899811  MEMB      33              0.0000000000
      4130        33  PMPG      C34           -16.3811244686      -17.0693118354       13.5707733639  MEMB      33              0.0000000000
      4131        33  PMPG      H4X           -15.4664752551      -16.8630338266       13.0136326386  MEMB      33              0.0000000000
      4132        33  PMPG      H4Y           -17.0854746427      -16.2338762708       13.5214760756  MEMB      33              0.0000000000
      4133        33  PMPG      C35           -17.0191777388      -18.0852553256       12.8774169978  MEMB      33              0.0000000000
      4134        33  PMPG      H5X           -17.8619362116      -18.4070752286       13.5011953694  MEMB      33              0.0000000000
      4135        33  PMPG      H5Y           -16.2592171212      -18.9547266195       12.9996067505  MEMB      33              0.0000000000
      4136        33  PMPG      C36           -17.4472842756      -17.5098926415       11.4413850578  MEMB      33              0.0000000000
      4137        33  PMPG      H6X           -16.7975980092      -17.3712333721       10.5399720950  MEMB      33              0.0000000000
      4138        33  PMPG      H6Y           -18.3683980880      -17.1009641594       11.1348719966  MEMB      33              0.0000000000
      4139        33  PMPG      C37           -18.0209397546      -18.5011339391       10.8926429179  MEMB      33              0.0000000000
      4140        33  PMPG      H7X           -19.0461934915      -18.8557942573       10.8242713043  MEMB      33              0.0000000000
      4141        33  PMPG      H7Y           -17.1592215993      -19.4028880867       11.6680505016  MEMB      33              0.0000000000
      4142        33  PMPG      C38           -18.5254806307      -18.7353122195        9.2711731278  MEMB      33              0.0000000000
      4143        33  PMPG      H8X           -18.0063982143      -19.5052035434        8.4630893026  MEMB      33              0.0000000000
      4144        33  PMPG      H8Y           -17.8523634929      -18.5632573276        8.7772884668  MEMB      33              0.0000000000
      4145        33  PMPG      C39           -19.8689244984      -18.5298604619        8.9706995486  MEMB      33              0.0000000000
      4146        33  PMPG      H9X           -19.9447991714      -17.7328750988        9.6881360353  MEMB      33              0.0000000000
      4147        33  PMPG      H9Y           -20.4899520161      -19.3732124772        9.3807346365  MEMB      33              0.0000000000
      4148        33  PMPG      C310          -19.8522297439      -18.1128492709        7.5273102658  MEMB      33              0.0000000000
      4149        33  PMPG      H10X          -20.8363020274      -17.6792381730        7.3906613486  MEMB      33              0.0000000000
      4150        33  PMPG      H10Y          -19.7124613016      -18.9290561913        6.7872064521  MEMB      33              0.0000000000
      4151        33  PMPG      C311          -18.6565235870      -17.2561193504        7.1179180270  MEMB      33              0.0000000000
      4152        33  PMPG      H11X          -17.7397254297      -17.8669683656        7.1065941731  MEMB      33              0.0000000000
      4153        33  PMPG      H11Y          -18.3918410670      -16.4565980240        7.8189643481  MEMB      33              0.0000000000
      4154        33  PMPG      C312          -18.7689050269      -16.7648001854        5.6903643900  MEMB      33              0.0000000000
      4155        33  PMPG      H12X          -19.1585099206      -17.5794199596        5.0468531643  MEMB      33              0.0000000000
      4156        33  PMPG      H12Y          -17.7321468460      -16.5724598366        5.3559904423  MEMB      33              0.0000000000
      4157        33  PMPG      C313          -19.6500216432      -15.5143396419        5.5559040594  MEMB      33              0.0000000000
      4158        33  PMPG      H13X          -19.2646081283      -14.7235735843        6.2357867086  MEMB      33              0.0000000000
      4159        33  PMPG      H13Y          -20.6553467043      -15.8016585632        5.9390503618  MEMB      33              0.0000000000
      4160        33  PMPG      C314          -19.7464546492      -14.9019575818        4.1303469435  MEMB      33              0.0000000000
      4161        33  PMPG      H14X          -18.7648937236      -14.9645914613        3.6128680070  MEMB      33              0.0000000000
      4162        33  PMPG      H14Y          -19.9655224530      -13.8153270318        4.2169879934  MEMB      33              0.0000000000
      4163        33  PMPG      C315          -20.9321804757      -15.4611251187        3.3205051262  MEMB      33              0.0000000000
      4164        33  PMPG      H15X          -21.8661194194      -15.0370516942        3.7781589069  MEMB      33              0.0000000000
      4165        33  PMPG      H15Y          -20.8810840332      -16.5460595321        3.4457841937  MEMB      33              0.0000000000
      4166        33  PMPG      C316          -20.9665483508      -15.1770648711        1.8367537459  MEMB      33              0.0000000000
      4167        33  PMPG      H16X          -20.2781929409      -15.6316499185        1.1454939916  MEMB      33              0.0000000000
      4168        33  PMPG      H16Y          -20.5039012806      -14.1747112624        1.8348643383  MEMB      33              0.0000000000
      4169        33  PMPG      H16Z          -22.0017081203      -15.2397080741        1.3918330277  MEMB      33              0.0000000000
      4170        34  QMPE      N              24.4155289006      -11.2117082841       22.3560427456  MEMB      34              0.0000000000
      4171        34  QMPE      HN1            24.2286422979      -12.2307986004       22.4763108855  MEMB      34              0.0000000000
      4172        34  QMPE      HN2            25.4485234361      -11.0660583605       22.3560065023  MEMB      34              0.0000000000
      4173        34  QMPE      HN3            23.9678355406      -10.7431182963       23.1719654806  MEMB      34              0.0000000000
      4174        34  QMPE      C12            23.8089559476      -10.6776384919       21.0816911343  MEMB      34              0.0000000000
      4175        34  QMPE      H12A           23.9174296871       -9.5744039602       21.0880952588  MEMB      34              0.0000000000
      4176        34  QMPE      H12B           22.7317853635      -10.9034838006       21.1110792635  MEMB      34              0.0000000000
      4177        34  QMPE      C11            24.5014422127      -11.3608464641       19.8980941429  MEMB      34              0.0000000000
      4178        34  QMPE      H11A           24.4677023569      -12.4652767553       20.0437059124  MEMB      34              0.0000000000
      4179        34  QMPE      H11B           25.5645766350      -11.0560708713       19.9127139767  MEMB      34              0.0000000000
      4180        34  QMPE      P              23.2223822694      -12.0364569437       17.6712819658  MEMB      34              0.0000000000
      4181        34  QMPE      O13            23.0431236956      -11.5303685387       16.3006466833  MEMB      34              0.0000000000
      4182        34  QMPE      O14            22.0199349093      -12.4077207041       18.4306750185  MEMB      34              0.0000000000
      4183        34  QMPE      O11            24.2168325778      -13.2805344243       17.6542785274  MEMB      34              0.0000000000
      4184        34  QMPE      O12            23.9701651955      -10.9809662392       18.6351326128  MEMB      34              0.0000000000
      4185        34  QMPE      C1             25.4941325901      -13.1220391689       17.0356433739  MEMB      34              0.0000000000
      4186        34  QMPE      HA             26.1852290937      -13.8311109005       17.5307508837  MEMB      34              0.0000000000
      4187        34  QMPE      HB             25.9107839864      -12.0857301189       17.1195280092  MEMB      34              0.0000000000
      4188        34  QMPE      C2             25.4513336562      -13.3943207142       15.5183494279  MEMB      34              0.0000000000
      4189        34  QMPE      HS             24.7558813570      -12.6237259949       15.1080207397  MEMB      34              0.0000000000
      4190        34  QMPE      O21            24.9963468668      -14.7236701126       15.3072416958  MEMB      34              0.0000000000
      4191        34  QMPE      C21            24.0668125914      -14.8628800697       14.4186290167  MEMB      34              0.0000000000
      4192        34  QMPE      O22            23.4971308134      -14.0266271165       13.7479970556  MEMB      34              0.0000000000
      4193        34  QMPE      C22            23.8947601914      -16.3063533568       14.1944808209  MEMB      34              0.0000000000
      4194        34  QMPE      H2R            23.1938382447      -16.3075761025       13.4100912877  MEMB      34              0.0000000000
      4195        34  QMPE      H2S            23.4614316469      -16.7895468887       15.0871269390  MEMB      34              0.0000000000
      4196        34  QMPE      C3             26.8927729197      -13.2053242955       14.9516445417  MEMB      34              0.0000000000
      4197        34  QMPE      HX             27.5862797600      -13.9012557370       15.4851441286  MEMB      34              0.0000000000
      4198        34  QMPE      HY             27.1768042289      -12.1687372290       15.2366026875  MEMB      34              0.0000000000
      4199        34  QMPE      O31            27.0432370778      -13.4392932307       13.5305442541  MEMB      34              0.0000000000
      4200        34  QMPE      C31            26.6899323103      -12.4208810958       12.7499404811  MEMB      34              0.0000000000
      4201        34  QMPE      O32            26.2522418627      -11.3927150897       13.1553667690  MEMB      34              0.0000000000
      4202        34  QMPE      C32            26.9264970558      -12.6969735690       11.2656354851  MEMB      34              0.0000000000
      4203        34  QMPE      H2X            28.0092955812      -12.6050352348       11.0543884911  MEMB      34              0.0000000000
      4204        34  QMPE      H2Y            26.5309747619      -13.7129986364       11.0892244608  MEMB      34              0.0000000000
      4205        34  QMPE      C23            25.2055591456      -16.9201990113       13.7492430438  MEMB      34              0.0000000000
      4206        34  QMPE      H3R            24.9105037678      -17.9717501374       13.8152485713  MEMB      34              0.0000000000
      4207        34  QMPE      H3S            25.9968204698      -16.6582014404       14.4754136949  MEMB      34              0.0000000000
      4208        34  QMPE      C24            25.7667658224      -16.5848174605       12.3592554919  MEMB      34              0.0000000000
      4209        34  QMPE      H4R            26.6251769459      -15.8655488938       12.4179381723  MEMB      34              0.0000000000
      4210        34  QMPE      H4S            24.9879108028      -16.1533409230       11.7514927596  MEMB      34              0.0000000000
      4211        34  QMPE      C25            26.0763278042      -17.8207028233       11.5143596719  MEMB      34              0.0000000000
      4212        34  QMPE      H5R            25.3791068111      -18.5837408341       11.2834434564  MEMB      34              0.0000000000
      4213        34  QMPE      H5S            26.5074672612      -18.3484226624       12.2929049867  MEMB      34              0.0000000000
      4214        34  QMPE      C26            27.0917364139      -17.6996766225       10.3391748688  MEMB      34              0.0000000000
      4215        34  QMPE      H6R            27.6922841616      -18.6629832231       10.2376922791  MEMB      34              0.0000000000
      4216        34  QMPE      H6S            27.7864185180      -16.8471251179       10.5797370946  MEMB      34              0.0000000000
      4217        34  QMPE      C27            26.4597537003      -17.2625610650        9.1591716400  MEMB      34              0.0000000000
      4218        34  QMPE      H7R            25.8524823938      -16.3772792013        9.3961710302  MEMB      34              0.0000000000
      4219        34  QMPE      H7S            25.8368966638      -18.1145204364        9.0435433657  MEMB      34              0.0000000000
      4220        34  QMPE      C28            27.3750578294      -17.0500033132        7.9860265555  MEMB      34              0.0000000000
      4221        34  QMPE      H8R            26.6287336963      -17.0231976673        7.1720008086  MEMB      34              0.0000000000
      4222        34  QMPE      H8S            28.0700064456      -17.9036077315        7.8412372412  MEMB      34              0.0000000000
      4223        34  QMPE      C29            28.1875800935      -15.7615957245        8.1081148165  MEMB      34              0.0000000000
      4224        34  QMPE      H9R            29.0514088502      -15.7555480738        8.8026089380  MEMB      34              0.0000000000
      4225        34  QMPE      C217           27.3272436496      -14.4971708173        8.1135159938  MEMB      34              0.0000000000
      4226        34  QMPE      H17R           26.3047783669      -14.6043626056        7.7880589881  MEMB      34              0.0000000000
      4227        34  QMPE      H17S           27.6768613317      -13.7452550977        8.8025221015  MEMB      34              0.0000000000
      4228        34  QMPE      C210           28.2761330881      -14.7964203529        6.9548627019  MEMB      34              0.0000000000
      4229        34  QMPE      H10R           29.0609825295      -14.0319671134        6.9557200157  MEMB      34              0.0000000000
      4230        34  QMPE      C211           27.5329614256      -15.0545637010        5.6447822255  MEMB      34              0.0000000000
      4231        34  QMPE      H11R           26.5235771812      -15.4295980030        5.9157543248  MEMB      34              0.0000000000
      4232        34  QMPE      H11S           27.3925102688      -14.0708047179        5.1447735996  MEMB      34              0.0000000000
      4233        34  QMPE      C212           28.2068411267      -15.9747208273        4.5970987138  MEMB      34              0.0000000000
      4234        34  QMPE      H12R           27.5627086825      -15.8854569430        3.6955550221  MEMB      34              0.0000000000
      4235        34  QMPE      H12S           28.1774165850      -17.0516531210        4.8309209901  MEMB      34              0.0000000000
      4236        34  QMPE      C213           29.6518040452      -15.6188557589        4.2150374423  MEMB      34              0.0000000000
      4237        34  QMPE      H13R           30.3775966913      -16.3467253398        4.6337235375  MEMB      34              0.0000000000
      4238        34  QMPE      H13S           29.9357483790      -14.6328474709        4.6360035001  MEMB      34              0.0000000000
      4239        34  QMPE      C214           29.8903143542      -15.6731528303        2.7179867009  MEMB      34              0.0000000000
      4240        34  QMPE      H14R           29.7834460857      -16.6990786013        2.2979691168  MEMB      34              0.0000000000
      4241        34  QMPE      H14S           30.8914174572      -15.2748753653        2.4545833937  MEMB      34              0.0000000000
      4242        34  QMPE      C215           28.9862921579      -14.8739184089        1.8940282376  MEMB      34              0.0000000000
      4243        34  QMPE      H15R           28.6705669514      -13.8874794795        2.3797026489  MEMB      34              0.0000000000
      4244        34  QMPE      H15S           28.0141509295      -15.4220618095        1.8047001129  MEMB      34              0.0000000000
      4245        34  QMPE      C216           29.7606396792      -14.7573066795        0.5233773384  MEMB      34              0.0000000000
      4246        34  QMPE      H16R           29.9574656919      -15.4650902474       -0.2338833049  MEMB      34              0.0000000000
      4247        34  QMPE      H16S           30.2612720169      -13.7635361868        0.5232854094  MEMB      34              0.0000000000
      4248        34  QMPE      H16T           29.0878061888      -14.7616490917       -0.3897287389  MEMB      34              0.0000000000
      4249        34  QMPE      C33            26.1943026838      -11.7731400932       10.2592402281  MEMB      34              0.0000000000
      4250        34  QMPE      H3X            26.7179264727      -11.8454967752        9.2773778654  MEMB      34              0.0000000000
      4251        34  QMPE      H3Y            26.2399982266      -10.7230890406       10.6142981381  MEMB      34              0.0000000000
      4252        34  QMPE      C34            24.7362083421      -12.2189327122       10.1348980787  MEMB      34              0.0000000000
      4253        34  QMPE      H4X            24.4434606105      -12.4368189026       11.1785787159  MEMB      34              0.0000000000
      4254        34  QMPE      H4Y            24.6376305546      -13.1654762727        9.5657465309  MEMB      34              0.0000000000
      4255        34  QMPE      C35            23.7284226965      -11.1522198840        9.7480655449  MEMB      34              0.0000000000
      4256        34  QMPE      H5X            23.8499879616      -10.3205121144       10.4833929671  MEMB      34              0.0000000000
      4257        34  QMPE      H5Y            22.6888198335      -11.5276676444        9.8846323006  MEMB      34              0.0000000000
      4258        34  QMPE      C36            23.9703728221      -10.6793025784        8.3322222944  MEMB      34              0.0000000000
      4259        34  QMPE      H6X            24.9692647405      -10.2544390951        8.1954118944  MEMB      34              0.0000000000
      4260        34  QMPE      H6Y            23.4875370549       -9.8046070147        8.3068027795  MEMB      34              0.0000000000
      4261        34  QMPE      C37            23.3777553091      -11.5489679655        7.2199781308  MEMB      34              0.0000000000
      4262        34  QMPE      H7X            24.0671993899      -12.4080639029        7.2278749202  MEMB      34              0.0000000000
      4263        34  QMPE      H7Y            22.3457136536      -11.8478130716        7.4912908475  MEMB      34              0.0000000000
      4264        34  QMPE      C38            23.2668191345      -10.9649660666        5.8005118933  MEMB      34              0.0000000000
      4265        34  QMPE      H8X            22.5644492669      -10.1128823799        5.7865768944  MEMB      34              0.0000000000
      4266        34  QMPE      H8Y            24.2619395454      -10.5818160653        5.5321989285  MEMB      34              0.0000000000
      4267        34  QMPE      C39            22.8063717613      -11.9024499018        4.6806492241  MEMB      34              0.0000000000
      4268        34  QMPE      H9X            22.4262302556      -11.2620361825        3.8492408206  MEMB      34              0.0000000000
      4269        34  QMPE      H9Y            21.9299327139      -12.4675717518        5.0496909591  MEMB      34              0.0000000000
      4270        34  QMPE      C310           23.9827764949      -12.7596171193        4.2152042307  MEMB      34              0.0000000000
      4271        34  QMPE      H10X           24.4642509033      -13.1605920933        5.1491959869  MEMB      34              0.0000000000
      4272        34  QMPE      H10Y           24.6907244590      -12.0741662021        3.6761062291  MEMB      34              0.0000000000
      4273        34  QMPE      C311           23.5603973001      -13.9142728395        3.2959439054  MEMB      34              0.0000000000
      4274        34  QMPE      H11X           22.6730123509      -13.6439009332        2.6755147894  MEMB      34              0.0000000000
      4275        34  QMPE      H11Y           23.2555780701      -14.7479020711        3.9656064261  MEMB      34              0.0000000000
      4276        34  QMPE      C312           24.7068324413      -14.3395571501        2.3686401778  MEMB      34              0.0000000000
      4277        34  QMPE      H12X           25.5790196829      -14.5639974531        3.0297313879  MEMB      34              0.0000000000
      4278        34  QMPE      H12Y           24.9455102273      -13.4633545478        1.7169739231  MEMB      34              0.0000000000
      4279        34  QMPE      C313           24.3977602204      -15.5724342694        1.4992068833  MEMB      34              0.0000000000
      4280        34  QMPE      H13X           25.1679616520      -15.7069467474        0.7023496651  MEMB      34              0.0000000000
      4281        34  QMPE      H13Y           24.4127009138      -16.4812304314        2.1501916416  MEMB      34              0.0000000000
      4282        34  QMPE      C314           23.1477483483      -15.4510691733        0.6188589374  MEMB      34              0.0000000000
      4283        34  QMPE      H14X           23.2605838560      -14.5612791841       -0.0356122169  MEMB      34              0.0000000000
      4284        34  QMPE      H14Y           22.1971167156      -15.3025301098        1.1758923431  MEMB      34              0.0000000000
      4285        34  QMPE      C315           23.0082161603      -16.6200450575       -0.3403873166  MEMB      34              0.0000000000
      4286        34  QMPE      H15X           22.1220745326      -16.4798352624       -0.9626358606  MEMB      34              0.0000000000
      4287        34  QMPE      H15Y           23.8696842559      -16.8131615534       -1.0014113912  MEMB      34              0.0000000000
      4288        34  QMPE      H15Z           22.8595513343      -17.5067215490        0.2084248976  MEMB      34              0.0000000000
      4289        35  PYPG      C13            25.4390979043       -1.1864549313       19.7727734185  MEMB      35              0.0000000000
      4290        35  PYPG      H13A           25.6097895477       -0.4739672181       20.6106937590  MEMB      35              0.0000000000
      4291        35  PYPG      H13B           25.7765263281       -0.6766391270       18.8400941974  MEMB      35              0.0000000000
      4292        35  PYPG      OC3            24.0432966847       -1.4557174090       19.6867048103  MEMB      35              0.0000000000
      4293        35  PYPG      HO3            23.9472611356       -2.2754209215       19.2060458540  MEMB      35              0.0000000000
      4294        35  PYPG      C12            26.1548911178       -2.5286459800       20.0767118424  MEMB      35              0.0000000000
      4295        35  PYPG      H12A           25.7976476536       -2.8738463541       21.0635667547  MEMB      35              0.0000000000
      4296        35  PYPG      OC2            27.5786011631       -2.3744781416       20.1358020391  MEMB      35              0.0000000000
      4297        35  PYPG      HO2            27.8742918152       -3.2987143190       20.1837409106  MEMB      35              0.0000000000
      4298        35  PYPG      C11            25.7967219694       -3.6597057971       19.0743106326  MEMB      35              0.0000000000
      4299        35  PYPG      H11A           26.2388013766       -3.2797360828       18.1305171061  MEMB      35              0.0000000000
      4300        35  PYPG      H11B           24.6939174364       -3.7772595178       18.9460350609  MEMB      35              0.0000000000
      4301        35  PYPG      P              26.5318004115       -5.9992297010       18.2764631667  MEMB      35              0.0000000000
      4302        35  PYPG      O13            25.2303707298       -6.2114751713       17.6263160128  MEMB      35              0.0000000000
      4303        35  PYPG      O14            27.2597404329       -7.1821250819       18.7766862779  MEMB      35              0.0000000000
      4304        35  PYPG      O11            27.3643408720       -5.2392103738       17.2249813131  MEMB      35              0.0000000000
      4305        35  PYPG      O12            26.3738402798       -4.9224748763       19.4294817396  MEMB      35              0.0000000000
      4306        35  PYPG      C1             28.6720227729       -4.8219826851       17.3600884922  MEMB      35              0.0000000000
      4307        35  PYPG      HA             29.0893557510       -5.2540662764       18.3181702218  MEMB      35              0.0000000000
      4308        35  PYPG      HB             28.7462066311       -3.7604470332       17.6379758124  MEMB      35              0.0000000000
      4309        35  PYPG      C2             29.2945910461       -5.2876921065       15.9655453700  MEMB      35              0.0000000000
      4310        35  PYPG      HS             30.3432137006       -4.7583912092       15.7698742148  MEMB      35              0.0000000000
      4311        35  PYPG      O21            28.7174183516       -4.9848759841       14.8386765506  MEMB      35              0.0000000000
      4312        35  PYPG      C21            28.3628070650       -3.7800274734       14.7768024113  MEMB      35              0.0000000000
      4313        35  PYPG      O22            28.6547273494       -2.7449949604       15.2766366617  MEMB      35              0.0000000000
      4314        35  PYPG      C22            27.6342083174       -3.5900833927       13.6323566831  MEMB      35              0.0000000000
      4315        35  PYPG      H2R            26.8645942904       -4.2407569148       14.0159316086  MEMB      35              0.0000000000
      4316        35  PYPG      H2S            28.0848413850       -3.9473662830       12.6951181958  MEMB      35              0.0000000000
      4317        35  PYPG      C3             29.3203124516       -6.9182784650       16.0185150021  MEMB      35              0.0000000000
      4318        35  PYPG      HX             30.1383583560       -7.7362145944       16.5744053140  MEMB      35              0.0000000000
      4319        35  PYPG      HY             30.0152838979       -7.1701912660       15.7178039802  MEMB      35              0.0000000000
      4320        35  PYPG      O31            28.4182097558       -7.7344574459       16.2712337415  MEMB      35              0.0000000000
      4321        35  PYPG      C31            28.0286501166       -8.2271035984       15.1814858528  MEMB      35              0.0000000000
      4322        35  PYPG      O32            28.4983206049       -8.2198612754       14.0634292762  MEMB      35              0.0000000000
      4323        35  PYPG      C32            26.8120964252       -8.8983324830       15.5636572145  MEMB      35              0.0000000000
      4324        35  PYPG      H2X            27.1113340916       -9.8686649713       15.9995809950  MEMB      35              0.0000000000
      4325        35  PYPG      H2Y            26.3110497522       -8.3088154554       16.3446030657  MEMB      35              0.0000000000
      4326        35  PYPG      C23            27.4274449632       -2.0674620901       13.5023655308  MEMB      35              0.0000000000
      4327        35  PYPG      H3R            28.2918334242       -1.4332661808       13.2358208226  MEMB      35              0.0000000000
      4328        35  PYPG      H3S            26.9961973368       -1.6024313167       14.3983883232  MEMB      35              0.0000000000
      4329        35  PYPG      C24            26.4715649913       -1.8778426274       12.4619574237  MEMB      35              0.0000000000
      4330        35  PYPG      H4R            26.9050398774       -2.1656852595       11.4739314341  MEMB      35              0.0000000000
      4331        35  PYPG      H4S            26.2599985898       -0.7903495987       12.4534803976  MEMB      35              0.0000000000
      4332        35  PYPG      C25            25.3858465412       -2.9483457576       12.7091716041  MEMB      35              0.0000000000
      4333        35  PYPG      H5R            25.1404776608       -2.8996691282       13.7801997630  MEMB      35              0.0000000000
      4334        35  PYPG      H5S            25.7019521160       -3.9067192186       12.3049286115  MEMB      35              0.0000000000
      4335        35  PYPG      C26            24.0822437012       -3.0076508611       12.0003678893  MEMB      35              0.0000000000
      4336        35  PYPG      H6R            24.2615584499       -2.0528473460       11.7957469317  MEMB      35              0.0000000000
      4337        35  PYPG      H6S            23.0981655761       -2.8469766853       12.4383687975  MEMB      35              0.0000000000
      4338        35  PYPG      C27            24.2603675152       -2.9511385518       10.6881555859  MEMB      35              0.0000000000
      4339        35  PYPG      H7R            24.6332176425       -3.7737999520       10.2811799188  MEMB      35              0.0000000000
      4340        35  PYPG      H7S            25.3784723181       -2.0451389703       10.6746248235  MEMB      35              0.0000000000
      4341        35  PYPG      C28            22.6637756507       -2.7345962362        9.6670882276  MEMB      35              0.0000000000
      4342        35  PYPG      H8R            21.9209514430       -1.6156918804        9.8094386692  MEMB      35              0.0000000000
      4343        35  PYPG      H8S            21.9915834331       -3.2374634204       10.1445888930  MEMB      35              0.0000000000
      4344        35  PYPG      C29            22.3719171379       -3.2755125426        8.2538735282  MEMB      35              0.0000000000
      4345        35  PYPG      H9R            21.9843305350       -2.1353972580        8.2725300112  MEMB      35              0.0000000000
      4346        35  PYPG      C210           23.2981900705       -3.7435356962        7.1512526100  MEMB      35              0.0000000000
      4347        35  PYPG      H10R           23.0482287499       -3.2040997206        6.1301514206  MEMB      35              0.0000000000
      4348        35  PYPG      C211           24.9984708200       -3.7435117648        7.1973888624  MEMB      35              0.0000000000
      4349        35  PYPG      H11R           25.0909347862       -4.5745656010        6.6027954955  MEMB      35              0.0000000000
      4350        35  PYPG      H11S           25.2697013217       -3.7917566208        8.2696993722  MEMB      35              0.0000000000
      4351        35  PYPG      C212           26.2678045051       -2.6190542252        6.9622094614  MEMB      35              0.0000000000
      4352        35  PYPG      H12R           27.1921406910       -3.0049366192        7.3620534042  MEMB      35              0.0000000000
      4353        35  PYPG      H12S           26.1890406634       -1.6336382482        7.5792400441  MEMB      35              0.0000000000
      4354        35  PYPG      C213           26.5389070704       -2.3262209255        5.4641452742  MEMB      35              0.0000000000
      4355        35  PYPG      H13R           25.8307879238       -1.8580393747        4.7459632076  MEMB      35              0.0000000000
      4356        35  PYPG      H13S           26.7062251351       -3.0647395883        4.7738862471  MEMB      35              0.0000000000
      4357        35  PYPG      C214           27.1029741504       -1.1374107692        5.2637984298  MEMB      35              0.0000000000
      4358        35  PYPG      H14R           26.7349013183       -0.3397813928        6.0354428963  MEMB      35              0.0000000000
      4359        35  PYPG      H14S           28.1318443077       -1.3424534930        5.7576194958  MEMB      35              0.0000000000
      4360        35  PYPG      C215           26.9673834096       -0.5522624202        3.6354871266  MEMB      35              0.0000000000
      4361        35  PYPG      H15R           27.1554483847        0.5398527796        3.2432311596  MEMB      35              0.0000000000
      4362        35  PYPG      H15S           26.0266214044       -0.3692644524        3.4060783310  MEMB      35              0.0000000000
      4363        35  PYPG      C216           27.6794136451       -1.0599794297        2.4608773267  MEMB      35              0.0000000000
      4364        35  PYPG      H16R           28.6425031594       -0.6299743201        2.0944044516  MEMB      35              0.0000000000
      4365        35  PYPG      H16S           27.1603480112       -0.6640809297        1.6138093907  MEMB      35              0.0000000000
      4366        35  PYPG      H16T           27.9542845184       -1.9796776189        2.9161519534  MEMB      35              0.0000000000
      4367        35  PYPG      C33            25.9384287914       -9.1080374833       14.3381450032  MEMB      35              0.0000000000
      4368        35  PYPG      H3X            25.1947039168       -9.9043089390       14.6158145338  MEMB      35              0.0000000000
      4369        35  PYPG      H3Y            26.6012209810       -9.4225666745       13.5043826991  MEMB      35              0.0000000000
      4370        35  PYPG      C34            25.1512552695       -7.9490620148       13.7515628202  MEMB      35              0.0000000000
      4371        35  PYPG      H4X            25.8183140587       -7.2141400508       13.2473951640  MEMB      35              0.0000000000
      4372        35  PYPG      H4Y            24.6939567227       -7.4336696759       14.6058742977  MEMB      35              0.0000000000
      4373        35  PYPG      C35            24.0712462395       -8.4225541763       12.7564326409  MEMB      35              0.0000000000
      4374        35  PYPG      H5X            23.3644674591       -9.1379759640       13.2393444676  MEMB      35              0.0000000000
      4375        35  PYPG      H5Y            24.6182142563       -9.0533656100       12.0237613573  MEMB      35              0.0000000000
      4376        35  PYPG      C36            23.3293632230       -7.2107372505       12.1422773338  MEMB      35              0.0000000000
      4377        35  PYPG      H6X            24.0310594077       -6.3520961136       12.0633749976  MEMB      35              0.0000000000
      4378        35  PYPG      H6Y            22.5409098306       -6.8820595321       12.8538691730  MEMB      35              0.0000000000
      4379        35  PYPG      C37            22.6098301824       -7.5151750585       10.8256490920  MEMB      35              0.0000000000
      4380        35  PYPG      H7X            22.3419791784       -8.5893687891       10.8894825289  MEMB      35              0.0000000000
      4381        35  PYPG      H7Y            21.6489839377       -6.9651341487       10.7600780111  MEMB      35              0.0000000000
      4382        35  PYPG      C38            23.4526039499       -7.2677154720        9.5757367975  MEMB      35              0.0000000000
      4383        35  PYPG      H8X            24.4434329143       -7.7345836076        9.7591470781  MEMB      35              0.0000000000
      4384        35  PYPG      H8Y            23.6151659532       -6.1935402437        9.3548555227  MEMB      35              0.0000000000
      4385        35  PYPG      C39            22.7778118486       -7.8013979832        8.3244509904  MEMB      35              0.0000000000
      4386        35  PYPG      H9X            21.9569834146       -7.1716888827        8.0416756886  MEMB      35              0.0000000000
      4387        35  PYPG      H9Y            22.1834669465       -8.7182145721        8.5928636386  MEMB      35              0.0000000000
      4388        35  PYPG      C310           23.7257730454       -7.7993669403        7.1030021327  MEMB      35              0.0000000000
      4389        35  PYPG      H10X           24.0412096146       -8.7686023330        6.6456208337  MEMB      35              0.0000000000
      4390        35  PYPG      H10Y           24.6921360716       -7.3468882308        7.4164629146  MEMB      35              0.0000000000
      4391        35  PYPG      C311           23.1163029397       -6.9427966224        6.0456289821  MEMB      35              0.0000000000
      4392        35  PYPG      H11X           23.1293376195       -5.8915210064        6.3714119530  MEMB      35              0.0000000000
      4393        35  PYPG      H11Y           22.0612073692       -7.2100265904        5.8431232330  MEMB      35              0.0000000000
      4394        35  PYPG      C312           23.9939078179       -7.1460434099        4.9197244086  MEMB      35              0.0000000000
      4395        35  PYPG      H12X           25.0377858946       -6.9123886937        5.1302315058  MEMB      35              0.0000000000
      4396        35  PYPG      H12Y           23.9090213122       -8.0943184778        4.3171866782  MEMB      35              0.0000000000
      4397        35  PYPG      C313           23.6278488207       -6.2106951200        4.0918925472  MEMB      35              0.0000000000
      4398        35  PYPG      H13X           24.3551023118       -6.8012996176        3.2870071728  MEMB      35              0.0000000000
      4399        35  PYPG      H13Y           22.5900599433       -6.4815532060        3.6075237394  MEMB      35              0.0000000000
      4400        35  PYPG      C314           23.8982703440       -4.4773713812        4.2646954037  MEMB      35              0.0000000000
      4401        35  PYPG      H14X           22.9750469723       -4.1996163464        4.7367500477  MEMB      35              0.0000000000
      4402        35  PYPG      H14Y           24.9403636840       -4.3647676453        4.5270889366  MEMB      35              0.0000000000
      4403        35  PYPG      C315           23.8370390163       -3.1597405137        3.0483428239  MEMB      35              0.0000000000
      4404        35  PYPG      H15X           22.8207388126       -3.3123056902        2.5069557217  MEMB      35              0.0000000000
      4405        35  PYPG      H15Y           23.6847353061       -2.2619277879        3.4508044769  MEMB      35              0.0000000000
      4406        35  PYPG      C316           25.1022597896       -3.0737940816        2.0081408430  MEMB      35              0.0000000000
      4407        35  PYPG      H16X           25.5174176666       -4.0403353482        1.4948867146  MEMB      35              0.0000000000
      4408        35  PYPG      H16Y           26.0081202902       -3.0886897745        2.4802262123  MEMB      35              0.0000000000
      4409        35  PYPG      H16Z           24.8497192415       -2.5720958411        1.0482415812  MEMB      35              0.0000000000
      4410        36  PMPE      N              15.7654132012       22.6545764470       17.2869860325  MEMB      36              0.0000000000
      4411        36  PMPE      HN1            16.7521279616       22.8026573954       17.0048769545  MEMB      36              0.0000000000
      4412        36  PMPE      HN2            15.2270222624       22.1786396504       16.5284442198  MEMB      36              0.0000000000
      4413        36  PMPE      HN3            15.2804708936       23.5533614079       17.4909279411  MEMB      36              0.0000000000
      4414        36  PMPE      C12            15.8262859449       21.7832153531       18.5191540570  MEMB      36              0.0000000000
      4415        36  PMPE      H12A           16.5457987475       22.2843028268       19.1988510622  MEMB      36              0.0000000000
      4416        36  PMPE      H12B           16.2533183622       20.8184499084       18.2004379007  MEMB      36              0.0000000000
      4417        36  PMPE      C11            14.4693340228       21.6183658344       19.1897900175  MEMB      36              0.0000000000
      4418        36  PMPE      H11A           14.4856241855       20.9647061845       20.0906629048  MEMB      36              0.0000000000
      4419        36  PMPE      H11B           13.7682676501       21.1674200286       18.4351928602  MEMB      36              0.0000000000
      4420        36  PMPE      P              12.6985204818       23.3196201922       19.6623543983  MEMB      36              0.0000000000
      4421        36  PMPE      O13            12.6406251233       24.8005144371       19.7562263606  MEMB      36              0.0000000000
      4422        36  PMPE      O14            11.8105047854       22.4232007521       20.4624741295  MEMB      36              0.0000000000
      4423        36  PMPE      O11            12.4964508713       23.0592743183       18.1432729685  MEMB      36              0.0000000000
      4424        36  PMPE      O12            14.1328381828       22.9074215552       19.6313956066  MEMB      36              0.0000000000
      4425        36  PMPE      C1             12.8319239233       23.6978839466       16.9219278197  MEMB      36              0.0000000000
      4426        36  PMPE      HA             13.1599565880       22.8217037206       16.3304625366  MEMB      36              0.0000000000
      4427        36  PMPE      HB             13.6120412053       24.3668957662       17.2102380314  MEMB      36              0.0000000000
      4428        36  PMPE      C2             11.8211165840       24.4861797449       15.8954707426  MEMB      36              0.0000000000
      4429        36  PMPE      HS             11.2261011203       25.2236217023       16.5308097847  MEMB      36              0.0000000000
      4430        36  PMPE      O21            10.9666473655       23.6398873479       15.1290195138  MEMB      36              0.0000000000
      4431        36  PMPE      C21             9.8393007438       24.0993571746       14.8900615525  MEMB      36              0.0000000000
      4432        36  PMPE      O22             9.7027329828       25.2689803835       14.5734038183  MEMB      36              0.0000000000
      4433        36  PMPE      C22             8.8376489491       22.9749714557       15.0281585135  MEMB      36              0.0000000000
      4434        36  PMPE      H2R             8.2768656518       22.9374385778       16.0208547902  MEMB      36              0.0000000000
      4435        36  PMPE      H2S             9.5663675321       22.1389851167       15.1273994681  MEMB      36              0.0000000000
      4436        36  PMPE      C3             12.5883888457       25.1522501332       14.8246304136  MEMB      36              0.0000000000
      4437        36  PMPE      HX             13.2105568327       25.9601828595       15.2075806588  MEMB      36              0.0000000000
      4438        36  PMPE      HY             11.8671006604       25.5083753889       14.0729702640  MEMB      36              0.0000000000
      4439        36  PMPE      O31            13.4108772096       24.1311413744       14.2502545936  MEMB      36              0.0000000000
      4440        36  PMPE      C31            12.9364555658       23.4500968292       13.2074356802  MEMB      36              0.0000000000
      4441        36  PMPE      O32            11.9430668141       23.6749531569       12.5469774715  MEMB      36              0.0000000000
      4442        36  PMPE      C32            13.9165902010       22.3441071352       12.9275763569  MEMB      36              0.0000000000
      4443        36  PMPE      H2X            13.5175637894       21.8004003024       12.0587260939  MEMB      36              0.0000000000
      4444        36  PMPE      H2Y            13.9136047844       21.6517659611       13.7914807207  MEMB      36              0.0000000000
      4445        36  PMPE      C23             7.7310821873       22.7788545446       13.9440101877  MEMB      36              0.0000000000
      4446        36  PMPE      H3R             7.1719712594       23.5737868701       13.9273684615  MEMB      36              0.0000000000
      4447        36  PMPE      H3S             6.7342130647       22.3472790773       14.0728839119  MEMB      36              0.0000000000
      4448        36  PMPE      C24             8.0188190383       22.4382401166       12.5787722413  MEMB      36              0.0000000000
      4449        36  PMPE      H4R             8.5622512376       23.2127501136       12.1040320737  MEMB      36              0.0000000000
      4450        36  PMPE      H4S             6.9098800508       22.5778337573       12.3215866354  MEMB      36              0.0000000000
      4451        36  PMPE      C25             8.7157054213       21.0646635124       12.3083222563  MEMB      36              0.0000000000
      4452        36  PMPE      H5R             8.0271078928       20.1709959628       12.1840125222  MEMB      36              0.0000000000
      4453        36  PMPE      H5S             9.4296131877       20.9106587691       13.0980696886  MEMB      36              0.0000000000
      4454        36  PMPE      C26             9.3001582378       20.6457255568       11.0572291587  MEMB      36              0.0000000000
      4455        36  PMPE      H6R             8.7035209385       20.8750551965       10.3184574468  MEMB      36              0.0000000000
      4456        36  PMPE      H6S             9.1373049240       19.5787830406       10.8699786887  MEMB      36              0.0000000000
      4457        36  PMPE      C27            10.5082768002       21.3562574295       10.6814512280  MEMB      36              0.0000000000
      4458        36  PMPE      H7R            11.2234408422       21.0258477083       11.4434585598  MEMB      36              0.0000000000
      4459        36  PMPE      H7S            10.3102067685       22.4354088861       10.8483555559  MEMB      36              0.0000000000
      4460        36  PMPE      C28            11.0687931249       21.0068089338        9.2959659546  MEMB      36              0.0000000000
      4461        36  PMPE      H8R            11.2487577172       19.9165825147        9.2346639799  MEMB      36              0.0000000000
      4462        36  PMPE      H8S            12.0448081333       21.5506864017        9.3108047397  MEMB      36              0.0000000000
      4463        36  PMPE      C29            10.1960968061       21.4018616049        8.1054391154  MEMB      36              0.0000000000
      4464        36  PMPE      H9R             9.8376486317       22.4416099451        8.1080625943  MEMB      36              0.0000000000
      4465        36  PMPE      C217            9.1533810907       20.3384953353        7.7270012180  MEMB      36              0.0000000000
      4466        36  PMPE      H17R            8.2094261573       20.8455465677        7.6477031218  MEMB      36              0.0000000000
      4467        36  PMPE      H17S            9.3075549016       19.2832325908        7.9270127068  MEMB      36              0.0000000000
      4468        36  PMPE      C210           10.2435119510       20.7371335628        6.7431677710  MEMB      36              0.0000000000
      4469        36  PMPE      H10R           10.0223312491       21.4202356847        5.9112038358  MEMB      36              0.0000000000
      4470        36  PMPE      C211           11.4469988032       19.8456140623        6.5375280808  MEMB      36              0.0000000000
      4471        36  PMPE      H11R           11.3106120523       19.3736412063        5.5787655700  MEMB      36              0.0000000000
      4472        36  PMPE      H11S           11.4491398544       18.9987839063        7.2480518440  MEMB      36              0.0000000000
      4473        36  PMPE      C212           12.7049037848       20.7109180736        6.4045197791  MEMB      36              0.0000000000
      4474        36  PMPE      H12R           13.4511334849       20.6817073070        7.0834534812  MEMB      36              0.0000000000
      4475        36  PMPE      H12S           12.6085224041       21.7863574896        6.3896785921  MEMB      36              0.0000000000
      4476        36  PMPE      C213           13.6441387914       20.4009541992        5.3465574288  MEMB      36              0.0000000000
      4477        36  PMPE      H13R           14.4697205812       20.9680145822        5.0122353818  MEMB      36              0.0000000000
      4478        36  PMPE      H13S           12.9043561018       20.7228908443        4.6201104029  MEMB      36              0.0000000000
      4479        36  PMPE      C214           14.2408257382       19.0740636134        5.1784499170  MEMB      36              0.0000000000
      4480        36  PMPE      H14R           13.3267974395       18.4115504292        5.4159788907  MEMB      36              0.0000000000
      4481        36  PMPE      H14S           14.7536274407       18.6751616870        5.8120668073  MEMB      36              0.0000000000
      4482        36  PMPE      C215           15.3670492178       18.7458059649        3.8868184427  MEMB      36              0.0000000000
      4483        36  PMPE      H15R           15.8006803005       17.6787832658        3.7617133763  MEMB      36              0.0000000000
      4484        36  PMPE      H15S           16.2237378280       19.2181977008        4.1632725532  MEMB      36              0.0000000000
      4485        36  PMPE      C216           15.1533692249       19.0933987280        2.4005795061  MEMB      36              0.0000000000
      4486        36  PMPE      H16R           14.2865259122       18.5870755890        1.9166086519  MEMB      36              0.0000000000
      4487        36  PMPE      H16S           14.5175102501       19.8298299912        2.0864551204  MEMB      36              0.0000000000
      4488        36  PMPE      H16T           15.4109546201       18.5606167893        1.6949768399  MEMB      36              0.0000000000
      4489        36  PMPE      C33            15.3539295098       22.8644647580       12.7542779138  MEMB      36              0.0000000000
      4490        36  PMPE      H3X            15.9983949744       21.9887312609       12.5719864542  MEMB      36              0.0000000000
      4491        36  PMPE      H3Y            15.7092810885       23.2383219363       13.7305281806  MEMB      36              0.0000000000
      4492        36  PMPE      C34            15.6029624108       23.7638803512       11.5366265104  MEMB      36              0.0000000000
      4493        36  PMPE      H4X            16.6819111693       24.0244212399       11.5092727736  MEMB      36              0.0000000000
      4494        36  PMPE      H4Y            15.0413026004       24.7126208962       11.6285307878  MEMB      36              0.0000000000
      4495        36  PMPE      C35            15.1845807609       23.0394500726       10.2546025509  MEMB      36              0.0000000000
      4496        36  PMPE      H5X            14.1077674474       23.2305760714       10.0699024859  MEMB      36              0.0000000000
      4497        36  PMPE      H5Y            15.3443584305       21.9458383663       10.4381059619  MEMB      36              0.0000000000
      4498        36  PMPE      C36            15.8325092083       23.5505441319        8.9738441344  MEMB      36              0.0000000000
      4499        36  PMPE      H6X            16.8911291473       23.2678728296        9.0550421640  MEMB      36              0.0000000000
      4500        36  PMPE      H6Y            15.8084318676       24.6491871540        8.9228646910  MEMB      36              0.0000000000
      4501        36  PMPE      C37            15.0603802868       23.0081009172        7.7606910411  MEMB      36              0.0000000000
      4502        36  PMPE      H7X            13.9863920062       23.0359507075        7.8750560787  MEMB      36              0.0000000000
      4503        36  PMPE      H7Y            15.0692847767       21.9377527188        8.0032107508  MEMB      36              0.0000000000
      4504        36  PMPE      C38            15.5776903966       23.4210420358        6.3186922798  MEMB      36              0.0000000000
      4505        36  PMPE      H8X            15.2058757226       22.7613190084        5.5011912305  MEMB      36              0.0000000000
      4506        36  PMPE      H8Y            16.6841708612       23.2869819945        6.2127656515  MEMB      36              0.0000000000
      4507        36  PMPE      C39            15.4907159518       24.8987051245        5.9470976782  MEMB      36              0.0000000000
      4508        36  PMPE      H9X            15.9589986335       24.9795917975        4.9374273587  MEMB      36              0.0000000000
      4509        36  PMPE      H9Y            16.1989787014       25.3732547552        6.6653732639  MEMB      36              0.0000000000
      4510        36  PMPE      C310           14.0787632108       25.5039129793        6.0651270586  MEMB      36              0.0000000000
      4511        36  PMPE      H10X           13.8942194537       26.4615119724        5.5311664135  MEMB      36              0.0000000000
      4512        36  PMPE      H10Y           13.9436024982       25.7326312075        7.1401902851  MEMB      36              0.0000000000
      4513        36  PMPE      C311           12.9760663349       24.5130259379        5.7196976593  MEMB      36              0.0000000000
      4514        36  PMPE      H11X           12.9181059954       23.7759864747        6.5244245403  MEMB      36              0.0000000000
      4515        36  PMPE      H11Y           13.2247306255       24.0167971108        4.7623211288  MEMB      36              0.0000000000
      4516        36  PMPE      C312           11.6141798117       25.1062718285        5.6394114939  MEMB      36              0.0000000000
      4517        36  PMPE      H12X           11.7948661018       26.0527990944        5.1101505066  MEMB      36              0.0000000000
      4518        36  PMPE      H12Y           11.1132863968       25.2508102001        6.6332259446  MEMB      36              0.0000000000
      4519        36  PMPE      C313           10.7358673395       24.2584221080        4.8339534705  MEMB      36              0.0000000000
      4520        36  PMPE      H13X            9.7437232874       24.5557328839        5.0189884446  MEMB      36              0.0000000000
      4521        36  PMPE      H13Y           10.4901047710       23.3361125736        5.3243771161  MEMB      36              0.0000000000
      4522        36  PMPE      C314           11.1430692459       24.1737819169        3.4233229653  MEMB      36              0.0000000000
      4523        36  PMPE      H14X           12.0902878550       23.7221471146        3.1341208235  MEMB      36              0.0000000000
      4524        36  PMPE      H14Y           11.1164042038       25.2175278545        2.9677212562  MEMB      36              0.0000000000
      4525        36  PMPE      C315           10.1189152241       23.2381202045        2.9353920966  MEMB      36              0.0000000000
      4526        36  PMPE      H15X           10.6325142915       23.0686549454        2.1312298817  MEMB      36              0.0000000000
      4527        36  PMPE      H15Y            9.4008402199       23.8319686452        2.6655057073  MEMB      36              0.0000000000
      4528        36  PMPE      C316            9.7986680745       21.8183363545        2.8099845057  MEMB      36              0.0000000000
      4529        36  PMPE      H16X            9.0374133941       21.6037133248        2.0023597705  MEMB      36              0.0000000000
      4530        36  PMPE      H16Y            9.3661870751       21.8179326527        3.7924082839  MEMB      36              0.0000000000
      4531        36  PMPE      H16Z           10.6973911411       21.2322668188        2.7078007232  MEMB      36              0.0000000000
      4532        37  POPE      N             -19.7706194756       14.6497647339       20.4237587177  MEMB      37              0.0000000000
      4533        37  POPE      HN1           -20.4493933657       14.0269560173       20.9145941268  MEMB      37              0.0000000000
      4534        37  POPE      HN2           -18.8241404676       14.2638093782       20.6271946737  MEMB      37              0.0000000000
      4535        37  POPE      HN3           -19.8402201698       15.6228987167       20.7760364149  MEMB      37              0.0000000000
      4536        37  POPE      C12           -20.0834717787       14.6826230704       18.9312424830  MEMB      37              0.0000000000
      4537        37  POPE      H12A          -19.6210436648       13.7925005195       18.4719793282  MEMB      37              0.0000000000
      4538        37  POPE      H12B          -19.5661447392       15.5425729058       18.4679956344  MEMB      37              0.0000000000
      4539        37  POPE      C11           -21.5996753418       14.7869237588       18.5972319664  MEMB      37              0.0000000000
      4540        37  POPE      H11A          -21.6865104147       14.6215069854       17.5040140051  MEMB      37              0.0000000000
      4541        37  POPE      H11B          -21.9738949684       15.8184683162       18.7751435190  MEMB      37              0.0000000000
      4542        37  POPE      P             -23.9045521631       13.4798511009       18.8540465406  MEMB      37              0.0000000000
      4543        37  POPE      O13           -24.7945291768       14.5301384430       19.3612354112  MEMB      37              0.0000000000
      4544        37  POPE      O14           -24.1722241247       12.0835135380       19.2391587732  MEMB      37              0.0000000000
      4545        37  POPE      O11           -23.8767188132       13.6244367260       17.3030146994  MEMB      37              0.0000000000
      4546        37  POPE      O12           -22.3895855291       13.8333927235       19.2949383745  MEMB      37              0.0000000000
      4547        37  POPE      C1            -23.3891610958       12.5838736091       16.4742850050  MEMB      37              0.0000000000
      4548        37  POPE      HA            -23.9173491866       11.6261448694       16.6669391282  MEMB      37              0.0000000000
      4549        37  POPE      HB            -22.3089627155       12.4357908790       16.6708232172  MEMB      37              0.0000000000
      4550        37  POPE      C2            -23.6618473241       12.9614035300       15.0029056508  MEMB      37              0.0000000000
      4551        37  POPE      HS            -23.1878653782       12.2492153634       14.2887833131  MEMB      37              0.0000000000
      4552        37  POPE      O21           -23.2659951507       14.3024901069       14.7389250842  MEMB      37              0.0000000000
      4553        37  POPE      C21           -21.9859674220       14.5016110763       14.8045628512  MEMB      37              0.0000000000
      4554        37  POPE      O22           -21.1243127331       13.6722389350       15.0315162210  MEMB      37              0.0000000000
      4555        37  POPE      C22           -21.6951572519       15.8931695980       14.4035179512  MEMB      37              0.0000000000
      4556        37  POPE      H2R           -20.5851735068       16.0221966283       14.3487786627  MEMB      37              0.0000000000
      4557        37  POPE      H2S           -22.1444678714       16.5379437129       15.1509164465  MEMB      37              0.0000000000
      4558        37  POPE      C3            -25.1587497653       12.8880631832       14.7277115134  MEMB      37              0.0000000000
      4559        37  POPE      HX            -25.6466864394       13.3037725803       15.6427091987  MEMB      37              0.0000000000
      4560        37  POPE      HY            -25.3301610291       11.8053245376       14.6174388649  MEMB      37              0.0000000000
      4561        37  POPE      O31           -25.4866491654       13.4564601175       13.4573825581  MEMB      37              0.0000000000
      4562        37  POPE      C31           -26.0077043791       14.6345428936       13.2434214071  MEMB      37              0.0000000000
      4563        37  POPE      O32           -26.4659749365       15.4207828087       14.0407200114  MEMB      37              0.0000000000
      4564        37  POPE      C32           -25.8961160862       14.9096114883       11.7689837386  MEMB      37              0.0000000000
      4565        37  POPE      H2X           -25.7052239280       13.9417648525       11.2498387892  MEMB      37              0.0000000000
      4566        37  POPE      H2Y           -25.0680521180       15.6419632530       11.6483123601  MEMB      37              0.0000000000
      4567        37  POPE      C23           -22.4450336821       16.2250761545       13.1224054198  MEMB      37              0.0000000000
      4568        37  POPE      H3R           -22.2972494503       17.2517321807       12.8172896158  MEMB      37              0.0000000000
      4569        37  POPE      H3S           -23.5350805599       16.0545838355       13.1859260823  MEMB      37              0.0000000000
      4570        37  POPE      C24           -21.8429683453       15.5041241763       11.9448147483  MEMB      37              0.0000000000
      4571        37  POPE      H4R           -22.2299653275       14.4761289598       11.9326779701  MEMB      37              0.0000000000
      4572        37  POPE      H4S           -20.7471017767       15.5055554803       12.1375225131  MEMB      37              0.0000000000
      4573        37  POPE      C25           -22.1618706165       16.2010933272       10.6204850391  MEMB      37              0.0000000000
      4574        37  POPE      H5R           -21.4805893641       17.0758941620       10.5543154394  MEMB      37              0.0000000000
      4575        37  POPE      H5S           -23.1880249702       16.6211271884       10.7029712649  MEMB      37              0.0000000000
      4576        37  POPE      C26           -22.0857542169       15.3373879663        9.3311982422  MEMB      37              0.0000000000
      4577        37  POPE      H6R           -21.0209318798       15.1246842292        9.0931228187  MEMB      37              0.0000000000
      4578        37  POPE      H6S           -22.4619996174       16.0247546992        8.5405359007  MEMB      37              0.0000000000
      4579        37  POPE      C27           -22.9562248326       14.0439480783        9.3768354903  MEMB      37              0.0000000000
      4580        37  POPE      H7R           -23.9017758619       14.3583801943        9.8441026253  MEMB      37              0.0000000000
      4581        37  POPE      H7S           -22.5381682210       13.3031356931       10.0867853064  MEMB      37              0.0000000000
      4582        37  POPE      C28           -23.4559424876       13.3653241458        8.0832287866  MEMB      37              0.0000000000
      4583        37  POPE      H8R           -24.0644184324       14.0255616086        7.4848895153  MEMB      37              0.0000000000
      4584        37  POPE      H8S           -23.9800858447       12.4277551693        8.3178894003  MEMB      37              0.0000000000
      4585        37  POPE      C29           -22.3878484306       12.9850111506        7.2524719657  MEMB      37              0.0000000000
      4586        37  POPE      H91           -21.8430385782       12.2340833275        7.8681765765  MEMB      37              0.0000000000
      4587        37  POPE      C210          -22.1024955400       13.3080423455        5.9749130816  MEMB      37              0.0000000000
      4588        37  POPE      H101          -21.2305023141       13.0050255684        5.4454076364  MEMB      37              0.0000000000
      4589        37  POPE      C211          -22.7545516383       14.1086165481        5.0004387752  MEMB      37              0.0000000000
      4590        37  POPE      H11R          -22.0402421312       14.7270728876        4.4451906995  MEMB      37              0.0000000000
      4591        37  POPE      H11S          -23.3810475555       14.7234489241        5.6053088706  MEMB      37              0.0000000000
      4592        37  POPE      C212          -23.4967534217       13.0831985728        4.1471339187  MEMB      37              0.0000000000
      4593        37  POPE      H12R          -24.3216451034       12.6426883752        4.7500501609  MEMB      37              0.0000000000
      4594        37  POPE      H12S          -22.7788059138       12.2665932929        3.8509810554  MEMB      37              0.0000000000
      4595        37  POPE      C213          -24.0447824373       13.5927736963        2.8214304614  MEMB      37              0.0000000000
      4596        37  POPE      H13R          -24.9223667965       14.2799965699        2.8440071915  MEMB      37              0.0000000000
      4597        37  POPE      H13S          -24.3333206247       12.6528058504        2.3038709377  MEMB      37              0.0000000000
      4598        37  POPE      C214          -22.9461070987       14.2999021712        2.0661584323  MEMB      37              0.0000000000
      4599        37  POPE      H14R          -22.0252110532       13.6846254221        2.1251615844  MEMB      37              0.0000000000
      4600        37  POPE      H14S          -22.7622654345       15.2532108699        2.6088290033  MEMB      37              0.0000000000
      4601        37  POPE      C215          -23.3164950610       14.5238645390        0.6166771819  MEMB      37              0.0000000000
      4602        37  POPE      H15R          -23.5335750211       13.5657674393        0.1224813945  MEMB      37              0.0000000000
      4603        37  POPE      H15S          -22.4685758639       14.9748303596        0.1344345328  MEMB      37              0.0000000000
      4604        37  POPE      C216          -24.5380584029       15.4100133568        0.4300922305  MEMB      37              0.0000000000
      4605        37  POPE      H16R          -25.3564274701       14.8300628052        0.8756917735  MEMB      37              0.0000000000
      4606        37  POPE      H16S          -24.7877815959       15.4792267072       -0.6484838939  MEMB      37              0.0000000000
      4607        37  POPE      C217          -24.3655020790       16.7920949763        1.1014926317  MEMB      37              0.0000000000
      4608        37  POPE      H17R          -23.4337596591       17.2295120269        0.7352000059  MEMB      37              0.0000000000
      4609        37  POPE      H17S          -24.1718877605       16.6509549604        2.1863015566  MEMB      37              0.0000000000
      4610        37  POPE      C218          -25.4990358967       17.7986939655        1.0257013568  MEMB      37              0.0000000000
      4611        37  POPE      H18R          -26.1788212886       17.2919248147        1.6952675076  MEMB      37              0.0000000000
      4612        37  POPE      H18S          -25.8997569917       18.0807568111        0.0159348820  MEMB      37              0.0000000000
      4613        37  POPE      H18T          -25.5143258385       18.6641596875        1.6809154844  MEMB      37              0.0000000000
      4614        37  POPE      C33           -27.1967310571       15.4217794161       11.1941755084  MEMB      37              0.0000000000
      4615        37  POPE      H3X           -27.5290003334       16.3764238287       11.6812363912  MEMB      37              0.0000000000
      4616        37  POPE      H3Y           -27.9699266706       14.6427744304       11.3984466640  MEMB      37              0.0000000000
      4617        37  POPE      C34           -27.0084085506       15.4122139255        9.6823756732  MEMB      37              0.0000000000
      4618        37  POPE      H4X           -27.9740445841       15.1203610543        9.3147731651  MEMB      37              0.0000000000
      4619        37  POPE      H4Y           -26.6044746293       14.5325993872        9.2106955506  MEMB      37              0.0000000000
      4620        37  POPE      C35           -26.1905858899       16.5816983755        9.1238219541  MEMB      37              0.0000000000
      4621        37  POPE      H5X           -25.1652992509       16.4304092796        9.4945560220  MEMB      37              0.0000000000
      4622        37  POPE      H5Y           -26.5409899246       17.4887774431        9.5955054445  MEMB      37              0.0000000000
      4623        37  POPE      C36           -26.1838782379       16.8172186553        7.6098777659  MEMB      37              0.0000000000
      4624        37  POPE      H6X           -27.2438732847       16.6970645375        7.2991371359  MEMB      37              0.0000000000
      4625        37  POPE      H6Y           -25.5536624186       16.0223788348        7.1540540123  MEMB      37              0.0000000000
      4626        37  POPE      C37           -25.6878501554       18.2196910373        7.1753817411  MEMB      37              0.0000000000
      4627        37  POPE      H7X           -26.2978695129       19.0452697958        7.4850014519  MEMB      37              0.0000000000
      4628        37  POPE      H7Y           -25.8201175065       18.3156076938        6.0867885332  MEMB      37              0.0000000000
      4629        37  POPE      C38           -24.3163643977       18.6788533434        7.6382709679  MEMB      37              0.0000000000
      4630        37  POPE      H8X           -24.0661161720       18.2595595822        8.6359850964  MEMB      37              0.0000000000
      4631        37  POPE      H8Y           -24.3915245328       19.7863620800        7.7650672143  MEMB      37              0.0000000000
      4632        37  POPE      C39           -23.2526025543       18.2917740139        6.6063136139  MEMB      37              0.0000000000
      4633        37  POPE      H9X           -23.5494573988       18.6231895610        5.5979480887  MEMB      37              0.0000000000
      4634        37  POPE      H9Y           -23.3445962884       17.2002597483        6.4708384369  MEMB      37              0.0000000000
      4635        37  POPE      C310          -21.8274073722       18.7392657244        6.9875085462  MEMB      37              0.0000000000
      4636        37  POPE      H10X          -21.6148548782       18.3325664248        8.0015660897  MEMB      37              0.0000000000
      4637        37  POPE      H10Y          -21.8035209789       19.8504556772        7.0706929764  MEMB      37              0.0000000000
      4638        37  POPE      C311          -20.7421136009       18.2397988708        6.0207620824  MEMB      37              0.0000000000
      4639        37  POPE      H11X          -20.7237033527       17.1272029530        6.1008365931  MEMB      37              0.0000000000
      4640        37  POPE      H11Y          -19.7617934271       18.6760397728        6.3329807511  MEMB      37              0.0000000000
      4641        37  POPE      C312          -21.0267899801       18.6309213475        4.5721482121  MEMB      37              0.0000000000
      4642        37  POPE      H12X          -21.2922462082       19.6857237153        4.5340829101  MEMB      37              0.0000000000
      4643        37  POPE      H12Y          -21.9053660210       18.0699704652        4.1643218943  MEMB      37              0.0000000000
      4644        37  POPE      C313          -19.8563748315       18.5340629725        3.6539221430  MEMB      37              0.0000000000
      4645        37  POPE      H13X          -18.8411425143       18.8756376359        3.9574264473  MEMB      37              0.0000000000
      4646        37  POPE      H13Y          -19.9928084014       19.1240894414        2.7238736376  MEMB      37              0.0000000000
      4647        37  POPE      C314          -19.8560624449       17.1378068303        3.3033925303  MEMB      37              0.0000000000
      4648        37  POPE      H14X          -20.6833757845       16.8345828065        2.6237091351  MEMB      37              0.0000000000
      4649        37  POPE      H14Y          -20.0419864321       16.4044054162        4.0791117176  MEMB      37              0.0000000000
      4650        37  POPE      C315          -18.5507667389       16.7712063060        3.0196682967  MEMB      37              0.0000000000
      4651        37  POPE      H15X          -17.6598544665       17.0169292999        3.4444394925  MEMB      37              0.0000000000
      4652        37  POPE      H15Y          -17.2588883501       17.3839735746        1.9705725464  MEMB      37              0.0000000000
      4653        37  POPE      C316          -19.2804089007       14.8589948396        2.1110724802  MEMB      37              0.0000000000
      4654        37  POPE      H16X          -19.0536095620       14.1586556375        2.6988723409  MEMB      37              0.0000000000
      4655        37  POPE      H16Y          -18.2026847327       14.6087260132        1.2413180263  MEMB      37              0.0000000000
      4656        37  POPE      H16Z          -19.2109874579       14.4919608660        1.1928252949  MEMB      37              0.0000000000
      4657        38  QMPE      N             -25.0883833408        4.9038860986       20.4405290215  MEMB      38              0.0000000000
      4658        38  QMPE      HN1           -26.0877634328        5.1831740610       20.4821140725  MEMB      38              0.0000000000
      4659        38  QMPE      HN2           -25.0450292610        4.3773197808       19.5357128271  MEMB      38              0.0000000000
      4660        38  QMPE      HN3           -24.9972364380        4.3771003492       21.3302137902  MEMB      38              0.0000000000
      4661        38  QMPE      C12           -24.2529330514        6.1549386875       20.3691403875  MEMB      38              0.0000000000
      4662        38  QMPE      H12A          -23.2950708531        5.8942481291       19.8813087964  MEMB      38              0.0000000000
      4663        38  QMPE      H12B          -24.0274512965        6.4820434439       21.3943068166  MEMB      38              0.0000000000
      4664        38  QMPE      C11           -25.0590483672        7.2596109831       19.6586209430  MEMB      38              0.0000000000
      4665        38  QMPE      H11A          -24.4793463858        8.1683263735       19.4308511398  MEMB      38              0.0000000000
      4666        38  QMPE      H11B          -25.7544114915        7.7068712649       20.3961163658  MEMB      38              0.0000000000
      4667        38  QMPE      P             -27.2744086956        6.9833289341       18.3407008333  MEMB      38              0.0000000000
      4668        38  QMPE      O13           -27.6721331246        8.4010292642       18.2171410851  MEMB      38              0.0000000000
      4669        38  QMPE      O14           -27.7385438346        6.2439499772       19.5249288155  MEMB      38              0.0000000000
      4670        38  QMPE      O11           -27.5445532086        6.1785321554       17.0301238024  MEMB      38              0.0000000000
      4671        38  QMPE      O12           -25.7160384927        6.7905037566       18.4801494179  MEMB      38              0.0000000000
      4672        38  QMPE      C1            -26.4894971962        5.3505408827       16.5338358288  MEMB      38              0.0000000000
      4673        38  QMPE      HA            -26.4008729011        4.4123976728       17.1375871503  MEMB      38              0.0000000000
      4674        38  QMPE      HB            -25.4911201808        5.8302866162       16.4791463052  MEMB      38              0.0000000000
      4675        38  QMPE      C2            -26.7345258428        5.1161972584       15.0624271805  MEMB      38              0.0000000000
      4676        38  QMPE      HS            -25.8443894076        4.6741429421       14.5690934223  MEMB      38              0.0000000000
      4677        38  QMPE      O21           -27.2941691598        6.2097932435       14.3241392441  MEMB      38              0.0000000000
      4678        38  QMPE      C21           -26.4403999361        7.1653738403       14.1663805699  MEMB      38              0.0000000000
      4679        38  QMPE      O22           -25.2281564202        7.0514762079       14.2115425059  MEMB      38              0.0000000000
      4680        38  QMPE      C22           -27.1388746955        8.4814584365       13.8416559355  MEMB      38              0.0000000000
      4681        38  QMPE      H2R           -27.4962469332        8.9061014179       14.7991254229  MEMB      38              0.0000000000
      4682        38  QMPE      H2S           -28.0254787036        8.2476972880       13.2194725843  MEMB      38              0.0000000000
      4683        38  QMPE      C3            -27.6925703456        4.1085191590       14.9713856332  MEMB      38              0.0000000000
      4684        38  QMPE      HX            -28.6319006181        4.5067914552       15.3821599973  MEMB      38              0.0000000000
      4685        38  QMPE      HY            -27.3835513287        3.2038715540       15.5928540621  MEMB      38              0.0000000000
      4686        38  QMPE      O31           -27.9593868346        3.9545398276       13.5675928354  MEMB      38              0.0000000000
      4687        38  QMPE      C31           -27.0383027804        3.3092645316       12.9751159490  MEMB      38              0.0000000000
      4688        38  QMPE      O32           -26.1466327138        2.6442103262       13.4604259931  MEMB      38              0.0000000000
      4689        38  QMPE      C32           -27.5075707599        3.0400563794       11.6079445224  MEMB      38              0.0000000000
      4690        38  QMPE      H2X           -27.1059591962        2.0328839768       11.2905370809  MEMB      38              0.0000000000
      4691        38  QMPE      H2Y           -28.5624616110        2.7562539980       11.6924005977  MEMB      38              0.0000000000
      4692        38  QMPE      C23           -26.0971430735        9.4202174658       13.1759488116  MEMB      38              0.0000000000
      4693        38  QMPE      H3R           -25.7235909370        8.8770452199       12.2772566360  MEMB      38              0.0000000000
      4694        38  QMPE      H3S           -25.2177474258        9.5423888494       13.8517938888  MEMB      38              0.0000000000
      4695        38  QMPE      C24           -26.5717411496       10.8366203579       12.8519047374  MEMB      38              0.0000000000
      4696        38  QMPE      H4R           -25.7326807240       11.4027087597       12.4031737553  MEMB      38              0.0000000000
      4697        38  QMPE      H4S           -26.9104623757       11.3616652710       13.7874003901  MEMB      38              0.0000000000
      4698        38  QMPE      C25           -27.7632480341       10.9305128748       11.9469546347  MEMB      38              0.0000000000
      4699        38  QMPE      H5R           -28.1147083997       11.9740557126       11.9151088703  MEMB      38              0.0000000000
      4700        38  QMPE      H5S           -28.4091136066       10.4107507813       12.5943050962  MEMB      38              0.0000000000
      4701        38  QMPE      C26           -27.7601897407       10.1663999689       10.6328409588  MEMB      38              0.0000000000
      4702        38  QMPE      H6R           -28.7035029047       10.1814794554       10.0262828592  MEMB      38              0.0000000000
      4703        38  QMPE      H6S           -27.5327239273        9.1250461388       10.9413867044  MEMB      38              0.0000000000
      4704        38  QMPE      C27           -26.7401058901       10.8230633857        9.7208373811  MEMB      38              0.0000000000
      4705        38  QMPE      H7R           -25.8528419785       11.0708380682       10.3405308034  MEMB      38              0.0000000000
      4706        38  QMPE      H7S           -27.3079442715       11.7407805044        9.4438020329  MEMB      38              0.0000000000
      4707        38  QMPE      C28           -26.3264192593       10.0064274858        8.4894647151  MEMB      38              0.0000000000
      4708        38  QMPE      H8R           -25.5348958317       10.4704977377        7.8571251416  MEMB      38              0.0000000000
      4709        38  QMPE      H8S           -27.2297700334        9.8458359912        7.8744053355  MEMB      38              0.0000000000
      4710        38  QMPE      C29           -25.7919663243        8.6733359077        8.9600765867  MEMB      38              0.0000000000
      4711        38  QMPE      H9R           -26.4529791938        8.0252409651        9.5515838102  MEMB      38              0.0000000000
      4712        38  QMPE      C217          -24.3028000161        8.6698319633        9.3186404860  MEMB      38              0.0000000000
      4713        38  QMPE      H17R          -23.8412204090        9.6305710980        9.1564379171  MEMB      38              0.0000000000
      4714        38  QMPE      H17S          -24.0743777883        8.0217288777       10.1599087073  MEMB      38              0.0000000000
      4715        38  QMPE      C210          -24.8319440809        7.9300743542        8.0807684139  MEMB      38              0.0000000000
      4716        38  QMPE      H10R          -24.7521280820        6.8478468208        8.2534353519  MEMB      38              0.0000000000
      4717        38  QMPE      C211          -24.4550691441        8.4557921484        6.6828023064  MEMB      38              0.0000000000
      4718        38  QMPE      H11R          -25.3184576745        8.9042563578        6.1295726399  MEMB      38              0.0000000000
      4719        38  QMPE      H11S          -23.6940482155        9.2472542643        6.7744285881  MEMB      38              0.0000000000
      4720        38  QMPE      C212          -23.8213526414        7.2985028681        5.8740457554  MEMB      38              0.0000000000
      4721        38  QMPE      H12R          -24.4103300423        6.3877600417        6.1158545263  MEMB      38              0.0000000000
      4722        38  QMPE      H12S          -22.7426974797        7.1575377811        6.1143910069  MEMB      38              0.0000000000
      4723        38  QMPE      C213          -23.9679408727        7.4204979364        4.3603048469  MEMB      38              0.0000000000
      4724        38  QMPE      H13R          -23.4111544059        8.3236493747        4.0347334452  MEMB      38              0.0000000000
      4725        38  QMPE      H13S          -25.0580919855        7.5811163041        4.2361612434  MEMB      38              0.0000000000
      4726        38  QMPE      C214          -23.4707385003        6.1946978300        3.5474410698  MEMB      38              0.0000000000
      4727        38  QMPE      H14R          -23.9802996874        5.2529406757        3.8545673228  MEMB      38              0.0000000000
      4728        38  QMPE      H14S          -22.3961127999        6.0276647394        3.7876262446  MEMB      38              0.0000000000
      4729        38  QMPE      C215          -23.6823608145        6.3093866617        2.0080498948  MEMB      38              0.0000000000
      4730        38  QMPE      H15R          -24.7786127949        6.1783485549        1.8452880435  MEMB      38              0.0000000000
      4731        38  QMPE      H15S          -23.1614556529        5.4227662085        1.5701221278  MEMB      38              0.0000000000
      4732        38  QMPE      C216          -23.2452385267        7.6623802581        1.3882289314  MEMB      38              0.0000000000
      4733        38  QMPE      H16R          -23.9182269231        8.4474595987        1.7722452886  MEMB      38              0.0000000000
      4734        38  QMPE      H16S          -23.3614631940        7.8970111851        0.3222614263  MEMB      38              0.0000000000
      4735        38  QMPE      H16T          -22.1740452213        7.8483270371        1.5942009184  MEMB      38              0.0000000000
      4736        38  QMPE      C33           -27.1028207482        4.0931607838       10.7957172286  MEMB      38              0.0000000000
      4737        38  QMPE      H3X           -26.1237806320        3.7976873416       10.5176405237  MEMB      38              0.0000000000
      4738        38  QMPE      H3Y           -27.3573077544        5.0324957718       11.3625931603  MEMB      38              0.0000000000
      4739        38  QMPE      C34           -27.7536185473        4.0987883759        9.6540565577  MEMB      38              0.0000000000
      4740        38  QMPE      H4X           -28.6551512189        4.3571569473       10.5887407631  MEMB      38              0.0000000000
      4741        38  QMPE      H4Y           -27.9746889480        3.1738019207        9.0877249799  MEMB      38              0.0000000000
      4742        38  QMPE      C35           -27.4613602557        5.1686364233        8.4350517667  MEMB      38              0.0000000000
      4743        38  QMPE      H5X           -26.6274046584        4.6548212005        7.9839386760  MEMB      38              0.0000000000
      4744        38  QMPE      H5Y           -27.2768396419        6.1145553810        8.9373099436  MEMB      38              0.0000000000
      4745        38  QMPE      C36           -28.3559037797        5.7327094755        7.2193185567  MEMB      38              0.0000000000
      4746        38  QMPE      H6X           -29.3353911678        6.2277212464        7.5426765845  MEMB      38              0.0000000000
      4747        38  QMPE      H6Y           -28.6350960495        4.8677298615        6.5339411381  MEMB      38              0.0000000000
      4748        38  QMPE      C37           -27.6558708555        6.4407027033        6.1959047931  MEMB      38              0.0000000000
      4749        38  QMPE      H7X           -27.2387171366        7.3475626106        6.6279180157  MEMB      38              0.0000000000
      4750        38  QMPE      H7Y           -26.9125595135        5.7204668310        5.8998912984  MEMB      38              0.0000000000
      4751        38  QMPE      C38           -28.5067739170        6.7580359709        5.0338592343  MEMB      38              0.0000000000
      4752        38  QMPE      H8X           -29.1620116221        5.9983348872        4.6133942255  MEMB      38              0.0000000000
      4753        38  QMPE      H8Y           -29.0902035035        7.3196396785        5.6905370249  MEMB      38              0.0000000000
      4754        38  QMPE      C39           -27.9249006255        7.7925725659        4.1047515000  MEMB      38              0.0000000000
      4755        38  QMPE      H9X           -27.0282139083        7.3961909412        3.6742040556  MEMB      38              0.0000000000
      4756        38  QMPE      H9Y           -27.5044808513        8.5829223314        4.7190402894  MEMB      38              0.0000000000
      4757        38  QMPE      C310          -28.7784079083        8.4322373963        3.0055720666  MEMB      38              0.0000000000
      4758        38  QMPE      H10X          -29.4769979376        9.2372416680        3.2117748979  MEMB      38              0.0000000000
      4759        38  QMPE      H10Y          -29.5847774716        7.6867558193        2.8736742313  MEMB      38              0.0000000000
      4760        38  QMPE      C311          -27.8730442483        8.9317675482        1.8101109657  MEMB      38              0.0000000000
      4761        38  QMPE      H11X          -28.4226241501        9.0878365725        0.8239328004  MEMB      38              0.0000000000
      4762        38  QMPE      H11Y          -27.0539289708        8.1990385207        1.6624046958  MEMB      38              0.0000000000
      4763        38  QMPE      C312          -27.2191067022       10.1808502082        2.0698012682  MEMB      38              0.0000000000
      4764        38  QMPE      H12X          -26.5046942398       10.1433977419        2.8550279805  MEMB      38              0.0000000000
      4765        38  QMPE      H12Y          -28.0782441196       10.7137905168        2.5735596028  MEMB      38              0.0000000000
      4766        38  QMPE      C313          -26.5803398796       10.8117938914        0.8085498276  MEMB      38              0.0000000000
      4767        38  QMPE      H13X          -27.3258377850       11.0069927720       -0.0618795180  MEMB      38              0.0000000000
      4768        38  QMPE      H13Y          -26.1364837001       11.7497789671        1.2529405888  MEMB      38              0.0000000000
      4769        38  QMPE      C314          -25.4500702479       10.2986998225        0.1513477508  MEMB      38              0.0000000000
      4770        38  QMPE      H14X          -25.8194320965        9.3580230216       -0.2853299992  MEMB      38              0.0000000000
      4771        38  QMPE      H14Y          -24.6308996688       10.1618562942        0.8206246548  MEMB      38              0.0000000000
      4772        38  QMPE      C315          -24.8778827693       11.3700281772       -0.6785533937  MEMB      38              0.0000000000
      4773        38  QMPE      H15X          -24.8249789666       12.3967288040       -0.5024776675  MEMB      38              0.0000000000
      4774        38  QMPE      H15Y          -23.8839426725       11.1541008618       -0.9722431078  MEMB      38              0.0000000000
      4775        38  QMPE      H15Z          -25.4762017274       11.3689309400       -1.4686579967  MEMB      38              0.0000000000
      4776        39  PMPE      N             -25.6440436023       -7.2390334251       20.7098665346  MEMB      39              0.0000000000
      4777        39  PMPE      HN1           -26.2049558549       -7.1808342464       21.5899509944  MEMB      39              0.0000000000
      4778        39  PMPE      HN2           -24.9310520209       -6.4852090586       20.7014426072  MEMB      39              0.0000000000
      4779        39  PMPE      HN3           -26.2788910507       -7.1583886207       19.8790561315  MEMB      39              0.0000000000
      4780        39  PMPE      C12           -25.0330552527       -8.5991021386       20.5682611756  MEMB      39              0.0000000000
      4781        39  PMPE      H12A          -25.9027305138       -9.2702140673       20.5242362056  MEMB      39              0.0000000000
      4782        39  PMPE      H12B          -24.4708535459       -8.8255902400       21.4932387909  MEMB      39              0.0000000000
      4783        39  PMPE      C11           -24.2569974526       -8.8626627448       19.2633332591  MEMB      39              0.0000000000
      4784        39  PMPE      H11A          -23.2050218755       -8.5234154962       19.3446217341  MEMB      39              0.0000000000
      4785        39  PMPE      H11B          -24.6880500031       -8.3827936389       18.3643820298  MEMB      39              0.0000000000
      4786        39  PMPE      P             -25.4278599402      -11.0520852194       18.3053614524  MEMB      39              0.0000000000
      4787        39  PMPE      O13           -26.6507105366      -10.1949815956       18.3067393296  MEMB      39              0.0000000000
      4788        39  PMPE      O14           -25.5993230897      -12.3251742175       19.0367619716  MEMB      39              0.0000000000
      4789        39  PMPE      O11           -24.9151697756      -11.2616732353       16.8387533555  MEMB      39              0.0000000000
      4790        39  PMPE      O12           -24.2486409588      -10.2553632723       19.0467973520  MEMB      39              0.0000000000
      4791        39  PMPE      C1            -24.2887196246      -10.1899918043       16.1115218710  MEMB      39              0.0000000000
      4792        39  PMPE      HA            -23.5094197774      -10.6293442544       15.4498770654  MEMB      39              0.0000000000
      4793        39  PMPE      HB            -23.7587942239       -9.4699576753       16.7603161242  MEMB      39              0.0000000000
      4794        39  PMPE      C2            -25.2900647112       -9.3946526868       15.2437816185  MEMB      39              0.0000000000
      4795        39  PMPE      HS            -25.7963634235       -8.6345575490       15.9075028910  MEMB      39              0.0000000000
      4796        39  PMPE      O21           -26.1732366621      -10.3742173902       14.6868424273  MEMB      39              0.0000000000
      4797        39  PMPE      C21           -27.3422460502       -9.9182432291       14.3749304550  MEMB      39              0.0000000000
      4798        39  PMPE      O22           -27.6967462227       -8.7517136163       14.4268907787  MEMB      39              0.0000000000
      4799        39  PMPE      C22           -28.1873913436      -11.0964149329       13.9092508116  MEMB      39              0.0000000000
      4800        39  PMPE      H2R           -29.2346107066      -10.7825028114       14.0846979177  MEMB      39              0.0000000000
      4801        39  PMPE      H2S           -27.8756846835      -11.9546981092       14.5397854106  MEMB      39              0.0000000000
      4802        39  PMPE      C3            -24.6098371846       -8.5922419513       14.1056298658  MEMB      39              0.0000000000
      4803        39  PMPE      HX            -24.1177520517       -7.7531446000       14.5409126602  MEMB      39              0.0000000000
      4804        39  PMPE      HY            -25.4100951402       -8.1996295675       13.4295758667  MEMB      39              0.0000000000
      4805        39  PMPE      O31           -23.5424598337       -9.3142149872       13.4764064821  MEMB      39              0.0000000000
      4806        39  PMPE      C31           -23.4279986351       -9.1218638617       12.1806225602  MEMB      39              0.0000000000
      4807        39  PMPE      O32           -24.0575195132       -8.3218105814       11.5138894807  MEMB      39              0.0000000000
      4808        39  PMPE      C32           -22.3532118541      -10.0797612678       11.6762811579  MEMB      39              0.0000000000
      4809        39  PMPE      H2X           -21.5471046523      -10.0606146418       12.4337053059  MEMB      39              0.0000000000
      4810        39  PMPE      H2Y           -21.9307473700       -9.7856639614       10.7136812489  MEMB      39              0.0000000000
      4811        39  PMPE      C23           -27.8396171410      -11.4600259209       12.4493410640  MEMB      39              0.0000000000
      4812        39  PMPE      H3R           -26.7370811667      -11.6013363996       12.3466508099  MEMB      39              0.0000000000
      4813        39  PMPE      H3S           -28.0789829065      -10.5717692286       11.8324972503  MEMB      39              0.0000000000
      4814        39  PMPE      C24           -28.5611945413      -12.6868639551       11.8616559909  MEMB      39              0.0000000000
      4815        39  PMPE      H4R           -28.5804202608      -13.5738039202       12.5403020352  MEMB      39              0.0000000000
      4816        39  PMPE      H4S           -27.9876225805      -12.9882725442       10.9553410692  MEMB      39              0.0000000000
      4817        39  PMPE      C25           -30.0109844477      -12.3680734901       11.4564603840  MEMB      39              0.0000000000
      4818        39  PMPE      H5R           -30.5354491821      -11.9281720463       12.3351600629  MEMB      39              0.0000000000
      4819        39  PMPE      H5S           -30.5502130211      -13.3202901189       11.2517782472  MEMB      39              0.0000000000
      4820        39  PMPE      C26           -30.1837401831      -11.3767423991       10.2645783452  MEMB      39              0.0000000000
      4821        39  PMPE      H6R           -29.8979859983      -10.3518870059       10.5948897737  MEMB      39              0.0000000000
      4822        39  PMPE      H6S           -31.2796730081      -11.3756411810       10.0651902120  MEMB      39              0.0000000000
      4823        39  PMPE      C27           -29.4608183677      -11.7462969915        8.9307621590  MEMB      39              0.0000000000
      4824        39  PMPE      H7R           -29.7999576808      -12.7752647936        8.6937602839  MEMB      39              0.0000000000
      4825        39  PMPE      H7S           -28.3664712918      -11.8088166067        9.0467389084  MEMB      39              0.0000000000
      4826        39  PMPE      C28           -29.6580571811      -10.8357286109        7.6805631971  MEMB      39              0.0000000000
      4827        39  PMPE      H8R           -29.6428422304       -9.7648448390        7.9887783543  MEMB      39              0.0000000000
      4828        39  PMPE      H8S           -30.6321075859      -11.1418286134        7.2532895567  MEMB      39              0.0000000000
      4829        39  PMPE      C29           -28.6064130161      -11.0847761194        6.5863204021  MEMB      39              0.0000000000
      4830        39  PMPE      H9R           -28.2659146975      -12.1294243663        6.4676212332  MEMB      39              0.0000000000
      4831        39  PMPE      C217          -27.5909189892       -9.9432923220        6.4590145793  MEMB      39              0.0000000000
      4832        39  PMPE      H17R          -26.6072440326      -10.3814150121        6.4142413586  MEMB      39              0.0000000000
      4833        39  PMPE      H17S          -27.8652250103       -9.0625275935        7.0336871104  MEMB      39              0.0000000000
      4834        39  PMPE      C210          -28.5553762389      -10.2435655096        5.3173126364  MEMB      39              0.0000000000
      4835        39  PMPE      H10R          -28.0862841200      -10.6857676436        4.4173461787  MEMB      39              0.0000000000
      4836        39  PMPE      C211          -29.6498743095       -9.1876929902        5.0984183062  MEMB      39              0.0000000000
      4837        39  PMPE      H11R          -29.6653107197       -8.4713983206        5.9445189416  MEMB      39              0.0000000000
      4838        39  PMPE      H11S          -30.6295439421       -9.7074569581        5.0954528763  MEMB      39              0.0000000000
      4839        39  PMPE      C212          -29.4973858617       -8.4619441461        3.7369172182  MEMB      39              0.0000000000
      4840        39  PMPE      H12R          -30.3690190079       -7.8243543216        3.4858290227  MEMB      39              0.0000000000
      4841        39  PMPE      H12S          -29.5197905397       -9.2661303254        2.9607245910  MEMB      39              0.0000000000
      4842        39  PMPE      C213          -28.2377288527       -7.5636193555        3.6825060243  MEMB      39              0.0000000000
      4843        39  PMPE      H13R          -27.3727712068       -8.1935544232        3.9567002549  MEMB      39              0.0000000000
      4844        39  PMPE      H13S          -28.2062384415       -6.6943650906        4.3772386116  MEMB      39              0.0000000000
      4845        39  PMPE      C214          -27.9099875164       -6.9661368505        2.3217250870  MEMB      39              0.0000000000
      4846        39  PMPE      H14R          -28.8338655587       -6.4789566558        1.9143643081  MEMB      39              0.0000000000
      4847        39  PMPE      H14S          -27.5629010065       -7.8304675711        1.7080032314  MEMB      39              0.0000000000
      4848        39  PMPE      C215          -26.7561583537       -5.9470818581        2.4164231865  MEMB      39              0.0000000000
      4849        39  PMPE      H15R          -26.9282004247       -5.2421157468        3.2649214440  MEMB      39              0.0000000000
      4850        39  PMPE      H15S          -26.7682866578       -5.3484502486        1.4791871222  MEMB      39              0.0000000000
      4851        39  PMPE      C216          -25.3628285384       -6.5653665191        2.6113369274  MEMB      39              0.0000000000
      4852        39  PMPE      H16R          -25.0087344708       -6.3841093712        3.6533928593  MEMB      39              0.0000000000
      4853        39  PMPE      H16S          -25.3953972394       -7.6621107242        2.4529310401  MEMB      39              0.0000000000
      4854        39  PMPE      H16T          -24.6338486607       -6.1424797787        1.8825834866  MEMB      39              0.0000000000
      4855        39  PMPE      C33           -22.8766784178      -11.4919044539       11.3777542201  MEMB      39              0.0000000000
      4856        39  PMPE      H3X           -23.4509775113      -11.8731536372       12.2426427148  MEMB      39              0.0000000000
      4857        39  PMPE      H3Y           -22.0300074795      -12.2021537848       11.2330699090  MEMB      39              0.0000000000
      4858        39  PMPE      C34           -23.7932825389      -11.4661084107       10.1451557674  MEMB      39              0.0000000000
      4859        39  PMPE      H4X           -23.3337883271      -10.9611827212        9.2687224680  MEMB      39              0.0000000000
      4860        39  PMPE      H4Y           -24.7107850324      -10.8955309315       10.4007119039  MEMB      39              0.0000000000
      4861        39  PMPE      C35           -24.3183726567      -12.8308496920        9.7192048901  MEMB      39              0.0000000000
      4862        39  PMPE      H5X           -25.0046465746      -12.6639348495        8.8532095594  MEMB      39              0.0000000000
      4863        39  PMPE      H5Y           -24.9160349433      -13.1978544594       10.5858942749  MEMB      39              0.0000000000
      4864        39  PMPE      C36           -23.2261084007      -13.8362963479        9.3495694027  MEMB      39              0.0000000000
      4865        39  PMPE      H6X           -23.6516433522      -14.6807681565        8.7666225121  MEMB      39              0.0000000000
      4866        39  PMPE      H6Y           -22.8109243838      -14.3254762531       10.2563238503  MEMB      39              0.0000000000
      4867        39  PMPE      C37           -21.9870853009      -13.2524878840        8.6502410605  MEMB      39              0.0000000000
      4868        39  PMPE      H7X           -21.3849969013      -14.1739398967        8.4620725397  MEMB      39              0.0000000000
      4869        39  PMPE      H7Y           -21.4465724129      -12.5269947607        9.3029319663  MEMB      39              0.0000000000
      4870        39  PMPE      C38           -22.1584691641      -12.5412439873        7.3081646722  MEMB      39              0.0000000000
      4871        39  PMPE      H8X           -21.1403223098      -12.4781869531        6.8479201542  MEMB      39              0.0000000000
      4872        39  PMPE      H8Y           -22.5492313616      -11.5071524576        7.4327525880  MEMB      39              0.0000000000
      4873        39  PMPE      C39           -23.1587644443      -13.2269747576        6.3894981370  MEMB      39              0.0000000000
      4874        39  PMPE      H9X           -24.1476418705      -13.2990432299        6.9112539569  MEMB      39              0.0000000000
      4875        39  PMPE      H9Y           -22.7958325382      -14.2492564143        6.1514227482  MEMB      39              0.0000000000
      4876        39  PMPE      C310          -23.4240556499      -12.3974021224        5.1273372748  MEMB      39              0.0000000000
      4877        39  PMPE      H10X          -22.4890525509      -12.2270560770        4.5465576093  MEMB      39              0.0000000000
      4878        39  PMPE      H10Y          -23.7465927935      -11.3970878571        5.4848826872  MEMB      39              0.0000000000
      4879        39  PMPE      C311          -24.5724590088      -13.0110644865        4.3072745493  MEMB      39              0.0000000000
      4880        39  PMPE      H11X          -25.4291768650      -13.2803367368        4.9766028267  MEMB      39              0.0000000000
      4881        39  PMPE      H11Y          -24.2776777418      -13.9977723155        3.9086263154  MEMB      39              0.0000000000
      4882        39  PMPE      C312          -25.1730880096      -12.1549799684        3.1810685799  MEMB      39              0.0000000000
      4883        39  PMPE      H12X          -24.5104146626      -11.7503526560        2.3796954343  MEMB      39              0.0000000000
      4884        39  PMPE      H12Y          -25.6593130380      -11.2720616943        3.6271307570  MEMB      39              0.0000000000
      4885        39  PMPE      C313          -26.3343973159      -12.9414302422        2.5676734177  MEMB      39              0.0000000000
      4886        39  PMPE      H13X          -27.0996319393      -13.2419106989        3.2933052756  MEMB      39              0.0000000000
      4887        39  PMPE      H13Y          -25.8692518996      -13.8774164484        2.1728716109  MEMB      39              0.0000000000
      4888        39  PMPE      C314          -27.1243837472      -12.0759694319        1.6053921765  MEMB      39              0.0000000000
      4889        39  PMPE      H14X          -26.1990261908      -11.8795580895        1.0066163976  MEMB      39              0.0000000000
      4890        39  PMPE      H14Y          -27.3161248382      -11.0324898759        1.8577792481  MEMB      39              0.0000000000
      4891        39  PMPE      C315          -28.4124730776      -12.7407155191        0.8938318742  MEMB      39              0.0000000000
      4892        39  PMPE      H15X          -28.6441954179      -12.3115323337       -0.1146958407  MEMB      39              0.0000000000
      4893        39  PMPE      H15Y          -29.3408809562      -12.4534104384        1.3561503740  MEMB      39              0.0000000000
      4894        39  PMPE      C316          -28.3428243595      -14.2716726572        0.5821062202  MEMB      39              0.0000000000
      4895        39  PMPE      H16X          -27.3994413817      -14.6089386932        0.0953757909  MEMB      39              0.0000000000
      4896        39  PMPE      H16Y          -29.1046032314      -14.5549673736       -0.1742560356  MEMB      39              0.0000000000
      4897        39  PMPE      H16Z          -28.3257434912      -14.8461969680        1.5053318364  MEMB      39              0.0000000000
      4898        40  PMPE      N             -16.6189090211      -25.2967923076       16.5169950261  MEMB      40              0.0000000000
      4899        40  PMPE      HN1           -16.3851288273      -24.3515391126       16.1570905797  MEMB      40              0.0000000000
      4900        40  PMPE      HN2           -15.7966952984      -25.7681735123       16.8687921326  MEMB      40              0.0000000000
      4901        40  PMPE      HN3           -17.1499593648      -25.8618536490       15.8210369330  MEMB      40              0.0000000000
      4902        40  PMPE      C12           -17.3324202900      -25.2298192883       17.8003865160  MEMB      40              0.0000000000
      4903        40  PMPE      H12A          -17.5746920954      -26.1747510364       18.2656424738  MEMB      40              0.0000000000
      4904        40  PMPE      H12B          -18.1865732185      -25.1471799776       17.3931090939  MEMB      40              0.0000000000
      4905        40  PMPE      C11           -17.0809458496      -24.0738159170       18.6852836547  MEMB      40              0.0000000000
      4906        40  PMPE      H11A          -17.7938663217      -24.1931730397       19.5442803474  MEMB      40              0.0000000000
      4907        40  PMPE      H11B          -17.2664267685      -23.0713048650       18.2131271234  MEMB      40              0.0000000000
      4908        40  PMPE      P             -15.0172846530      -23.2430979609       19.9052064627  MEMB      40              0.0000000000
      4909        40  PMPE      O13           -13.9351206177      -23.9109276290       20.6554462885  MEMB      40              0.0000000000
      4910        40  PMPE      O14           -16.0599734130      -22.5123277769       20.6621211316  MEMB      40              0.0000000000
      4911        40  PMPE      O11           -14.3909069671      -22.2512764582       18.8516613487  MEMB      40              0.0000000000
      4912        40  PMPE      O12           -15.7435151921      -24.3327105422       19.0192453870  MEMB      40              0.0000000000
      4913        40  PMPE      C1            -13.9729558709      -22.5803941099       17.5436315607  MEMB      40              0.0000000000
      4914        40  PMPE      HA            -14.1057107888      -23.6566720396       17.3422914502  MEMB      40              0.0000000000
      4915        40  PMPE      HB            -12.8786025768      -22.3957914325       17.4664103201  MEMB      40              0.0000000000
      4916        40  PMPE      C2            -14.7097923606      -21.6708458521       16.5325730395  MEMB      40              0.0000000000
      4917        40  PMPE      HS            -14.5744821164      -20.6355012792       16.9652357997  MEMB      40              0.0000000000
      4918        40  PMPE      O21           -16.1099710994      -22.0362144828       16.4755647369  MEMB      40              0.0000000000
      4919        40  PMPE      C21           -16.7713622956      -20.9801431259       16.0229619406  MEMB      40              0.0000000000
      4920        40  PMPE      O22           -16.3446285246      -19.9033656498       15.8869962441  MEMB      40              0.0000000000
      4921        40  PMPE      C22           -18.0203241581      -21.2615830265       15.6243273225  MEMB      40              0.0000000000
      4922        40  PMPE      H2R           -18.8106643306      -21.0719583452       16.4038649906  MEMB      40              0.0000000000
      4923        40  PMPE      H2S           -17.9043024940      -22.3376806445       15.2754982263  MEMB      40              0.0000000000
      4924        40  PMPE      C3            -14.1161905407      -21.7809132038       15.0836142126  MEMB      40              0.0000000000
      4925        40  PMPE      HX            -13.0838468695      -21.3832366821       15.0114846863  MEMB      40              0.0000000000
      4926        40  PMPE      HY            -14.7572476957      -21.1404731008       14.4352070425  MEMB      40              0.0000000000
      4927        40  PMPE      O31           -14.1248256947      -23.1407532582       14.6074310981  MEMB      40              0.0000000000
      4928        40  PMPE      C31           -14.3921520045      -23.2149018156       13.3025984394  MEMB      40              0.0000000000
      4929        40  PMPE      O32           -14.5236225994      -22.3298627477       12.4984264676  MEMB      40              0.0000000000
      4930        40  PMPE      C32           -14.6532334361      -24.5681608277       12.9869965437  MEMB      40              0.0000000000
      4931        40  PMPE      H2X           -15.2424051982      -25.1550977040       13.6933605148  MEMB      40              0.0000000000
      4932        40  PMPE      H2Y           -13.6113618724      -24.8948072490       13.1533235106  MEMB      40              0.0000000000
      4933        40  PMPE      C23           -18.5600482671      -20.4908651615       14.4801892996  MEMB      40              0.0000000000
      4934        40  PMPE      H3R           -18.8984182654      -19.4671563729       14.5976163229  MEMB      40              0.0000000000
      4935        40  PMPE      H3S           -19.5381400127      -20.7673492203       14.2504101003  MEMB      40              0.0000000000
      4936        40  PMPE      C24           -17.8377455074      -20.8567282596       13.2965839344  MEMB      40              0.0000000000
      4937        40  PMPE      H4R           -17.5056069895      -21.8421748893       13.0230044627  MEMB      40              0.0000000000
      4938        40  PMPE      H4S           -16.7958658692      -20.6413623910       13.3504154040  MEMB      40              0.0000000000
      4939        40  PMPE      C25           -18.7055246999      -20.3830472942       12.1605352821  MEMB      40              0.0000000000
      4940        40  PMPE      H5R           -19.1155501822      -19.3451018603       12.5635453967  MEMB      40              0.0000000000
      4941        40  PMPE      H5S           -19.7079519318      -20.4047465791       11.9681514908  MEMB      40              0.0000000000
      4942        40  PMPE      C26           -17.6513171942      -20.7465901151       10.3347880555  MEMB      40              0.0000000000
      4943        40  PMPE      H6R           -18.4174757929      -20.8534698107        9.3827519220  MEMB      40              0.0000000000
      4944        40  PMPE      H6S           -17.4703866803      -21.5970314181       10.2158412568  MEMB      40              0.0000000000
      4945        40  PMPE      C27           -16.1186484196      -19.7039514318       10.0703958491  MEMB      40              0.0000000000
      4946        40  PMPE      H7R           -15.4916530513      -19.8732899386       10.9555350266  MEMB      40              0.0000000000
      4947        40  PMPE      H7S           -15.7700049697      -18.8657190787       10.9059843611  MEMB      40              0.0000000000
      4948        40  PMPE      C28           -15.8229183251      -18.8683831204        8.8684666751  MEMB      40              0.0000000000
      4949        40  PMPE      H8R           -15.1156658294      -18.0217313258        9.0885240022  MEMB      40              0.0000000000
      4950        40  PMPE      H8S           -16.3469934279      -18.0959856897        8.3801687192  MEMB      40              0.0000000000
      4951        40  PMPE      C29           -15.6291734319      -20.2719582436        8.2372519332  MEMB      40              0.0000000000
      4952        40  PMPE      H9R           -15.2150169314      -21.0537990473        8.9794754629  MEMB      40              0.0000000000
      4953        40  PMPE      C217          -15.0417710582      -20.3989900632        6.6958514236  MEMB      40              0.0000000000
      4954        40  PMPE      H17R          -13.9953773216      -20.7120635550        6.4495334755  MEMB      40              0.0000000000
      4955        40  PMPE      H17S          -15.1764179108      -19.5319228081        6.3140699320  MEMB      40              0.0000000000
      4956        40  PMPE      C210          -16.2023044375      -20.8898078653        7.0708031066  MEMB      40              0.0000000000
      4957        40  PMPE      H10R          -15.8216013888      -21.8879123053        6.9410270943  MEMB      40              0.0000000000
      4958        40  PMPE      C211          -17.0628961397      -20.0168403379        6.2071837842  MEMB      40              0.0000000000
      4959        40  PMPE      H11R          -16.7357189042      -18.9482630585        6.0137915650  MEMB      40              0.0000000000
      4960        40  PMPE      H11S          -17.9741547668      -19.9305004637        6.7162654983  MEMB      40              0.0000000000
      4961        40  PMPE      C212          -17.3438091603      -20.6311245171        4.9133660444  MEMB      40              0.0000000000
      4962        40  PMPE      H12R          -18.2174049254      -20.0756448198        4.4965917923  MEMB      40              0.0000000000
      4963        40  PMPE      H12S          -17.5567463182      -21.7048359033        5.0363579427  MEMB      40              0.0000000000
      4964        40  PMPE      C213          -16.2253814721      -20.4628135990        3.9613200495  MEMB      40              0.0000000000
      4965        40  PMPE      H13R          -15.3110684668      -20.8955799122        4.3649656594  MEMB      40              0.0000000000
      4966        40  PMPE      H13S          -16.2183940427      -19.4089655221        3.7674314074  MEMB      40              0.0000000000
      4967        40  PMPE      C214          -16.4420208736      -20.9461018326        2.6603734698  MEMB      40              0.0000000000
      4968        40  PMPE      H14R          -16.4714731949      -22.0671231459        2.8626836752  MEMB      40              0.0000000000
      4969        40  PMPE      H14S          -15.6560769729      -20.7408833874        1.9090763751  MEMB      40              0.0000000000
      4970        40  PMPE      C215          -17.6611676074      -20.1946061239        2.1494648516  MEMB      40              0.0000000000
      4971        40  PMPE      H15R          -18.6252761747      -20.2005684366        2.5477490005  MEMB      40              0.0000000000
      4972        40  PMPE      H15S          -17.6294357097      -20.7038431745        1.4717563250  MEMB      40              0.0000000000
      4973        40  PMPE      C216          -17.8990768357      -19.1369306180        1.2490896490  MEMB      40              0.0000000000
      4974        40  PMPE      H16R          -18.8379528375      -19.1502034406        0.6421261408  MEMB      40              0.0000000000
      4975        40  PMPE      H16S          -18.0281091547      -18.5579266902        2.1599651450  MEMB      40              0.0000000000
      4976        40  PMPE      H16T          -17.0106056126      -19.0939696403        0.6380590676  MEMB      40              0.0000000000
      4977        40  PMPE      C33           -15.1694475030      -24.8417158024       11.5430704472  MEMB      40              0.0000000000
      4978        40  PMPE      H3X           -15.3591191809      -25.9531428703       11.3046652970  MEMB      40              0.0000000000
      4979        40  PMPE      H3Y           -14.3596568817      -24.4466959684       10.8646652359  MEMB      40              0.0000000000
      4980        40  PMPE      C34           -16.4584615337      -24.4100489692       11.1118513506  MEMB      40              0.0000000000
      4981        40  PMPE      H4X           -16.3707260580      -23.3364927583       11.1011593753  MEMB      40              0.0000000000
      4982        40  PMPE      H4Y           -17.2293628644      -24.8692348091       11.7599933502  MEMB      40              0.0000000000
      4983        40  PMPE      C35           -16.7633217767      -24.8632752265        9.7321145979  MEMB      40              0.0000000000
      4984        40  PMPE      H5X           -16.8478372616      -25.9468612244       10.0145141332  MEMB      40              0.0000000000
      4985        40  PMPE      H5Y           -16.0208276941      -24.5536931690        8.9525198933  MEMB      40              0.0000000000
      4986        40  PMPE      C36           -18.1255395783      -24.5231372060        9.2211484736  MEMB      40              0.0000000000
      4987        40  PMPE      H6X           -17.9881889560      -23.4264026577        9.2280219807  MEMB      40              0.0000000000
      4988        40  PMPE      H6Y           -18.8128993637      -24.9300801021        9.9878515120  MEMB      40              0.0000000000
      4989        40  PMPE      C37           -18.8167160116      -24.9543752279        7.9756068529  MEMB      40              0.0000000000
      4990        40  PMPE      H7X           -19.8342914457      -24.6399021436        7.7982617308  MEMB      40              0.0000000000
      4991        40  PMPE      H7Y           -18.7568297415      -26.0344057618        7.9269446954  MEMB      40              0.0000000000
      4992        40  PMPE      C38           -18.3470668371      -24.3691665385        6.7612604163  MEMB      40              0.0000000000
      4993        40  PMPE      H8X           -17.1636981878      -24.3175144743        7.1928493032  MEMB      40              0.0000000000
      4994        40  PMPE      H8Y           -18.1653359628      -23.2596280076        6.7335324222  MEMB      40              0.0000000000
      4995        40  PMPE      C39           -18.8635099429      -25.4659262279        4.9828131050  MEMB      40              0.0000000000
      4996        40  PMPE      H9X           -19.5891082017      -24.9260464328        5.0288738566  MEMB      40              0.0000000000
      4997        40  PMPE      H9Y           -18.8889470209      -26.3302625705        5.5687728102  MEMB      40              0.0000000000
      4998        40  PMPE      C310          -18.7033500779      -25.6079783956        3.2185618383  MEMB      40              0.0000000000
      4999        40  PMPE      H10X          -17.8261770927      -26.4962986356        4.4869499823  MEMB      40              0.0000000000
      5000        40  PMPE      H10Y          -17.9711945532      -24.5392228289        3.2290586502  MEMB      40              0.0000000000
      5001        40  PMPE      C311          -19.2904079737      -25.6786078312        2.4627958664  MEMB      40              0.0000000000
      5002        40  PMPE      H11X          -19.8056445700      -24.8716592790        2.9194621450  MEMB      40              0.0000000000
      5003        40  PMPE      H11Y          -19.7588328722      -26.1683070068        3.2594532818  MEMB      40              0.0000000000
      5004        40  PMPE      C312          -18.0038089206      -25.7118955528        1.2508468027  MEMB      40              0.0000000000
      5005        40  PMPE      H12X          -16.7716266738      -25.9382419485        1.0563117854  MEMB      40              0.0000000000
      5006        40  PMPE      H12Y          -17.1231357087      -25.1089944965        1.1322413099  MEMB      40              0.0000000000
      5007        40  PMPE      C313          -18.5778228553      -26.3972261364        0.2947210776  MEMB      40              0.0000000000
      5008        40  PMPE      H13X          -19.5079447840      -26.7758745476        0.6953322759  MEMB      40              0.0000000000
      5009        40  PMPE      H13Y          -18.4681604980      -27.5696790493        0.3330813550  MEMB      40              0.0000000000
      5010        40  PMPE      C314          -19.7149208469      -26.0649544714       -0.0841160218  MEMB      40              0.0000000000
      5011        40  PMPE      H14X          -20.1407473397      -25.1911409465        0.6851626082  MEMB      40              0.0000000000
      5012        40  PMPE      H14Y          -20.3904136898      -26.6126974878       -0.8772166513  MEMB      40              0.0000000000
      5013        40  PMPE      C315          -18.3789806804      -25.7750782033       -1.0145408339  MEMB      40              0.0000000000
      5014        40  PMPE      H15X          -17.0164017543      -23.9536067150       -0.6583991010  MEMB      40              0.0000000000
      5015        40  PMPE      H15Y          -19.6874209739      -25.1594070240       -0.8991466203  MEMB      40              0.0000000000
      5016        40  PMPE      C316          -19.2278221366      -25.5076009783       -2.3902164891  MEMB      40              0.0000000000
      5017        40  PMPE      H16X          -18.8412868388      -24.3140510021       -3.0650425579  MEMB      40              0.0000000000
      5018        40  PMPE      H16Y          -19.7054423161      -24.7229813031       -2.7049956246  MEMB      40              0.0000000000
      5019        40  PMPE      H16Z          -18.3634215148      -25.4428091493       -2.2949017139  MEMB      40              0.0000000000
      5020        41  PYPG      C13           -19.3539943340       24.7054648515       17.9072010884  MEMB      41              0.0000000000
      5021        41  PYPG      H13A          -18.5701352037       25.1621196243       18.5449370371  MEMB      41              0.0000000000
      5022        41  PYPG      H13B          -19.2167314050       25.0545856400       16.8781620214  MEMB      41              0.0000000000
      5023        41  PYPG      OC3           -20.6330349797       25.1251690322       18.3951104719  MEMB      41              0.0000000000
      5024        41  PYPG      HO3           -21.3126572682       24.6900752848       17.8728457809  MEMB      41              0.0000000000
      5025        41  PYPG      C12           -19.1739807139       23.1814593507       17.8223861513  MEMB      41              0.0000000000
      5026        41  PYPG      H12A          -18.1097547754       22.9852136885       17.5487151947  MEMB      41              0.0000000000
      5027        41  PYPG      OC2           -19.9932985097       22.6348772216       16.7861008039  MEMB      41              0.0000000000
      5028        41  PYPG      HO2           -19.9089349461       21.6780230865       16.9340583101  MEMB      41              0.0000000000
      5029        41  PYPG      C11           -19.4620884012       22.4843149296       19.1513957762  MEMB      41              0.0000000000
      5030        41  PYPG      H11A          -20.4788565913       22.7423380669       19.5136291485  MEMB      41              0.0000000000
      5031        41  PYPG      H11B          -18.7091303791       22.8651179318       19.8971837043  MEMB      41              0.0000000000
      5032        41  PYPG      P             -18.8279761412       20.1616610788       20.0522788051  MEMB      41              0.0000000000
      5033        41  PYPG      O13           -19.2116498540       20.7123489470       21.3707020727  MEMB      41              0.0000000000
      5034        41  PYPG      O14           -17.4014810392       19.9355767327       19.7515512340  MEMB      41              0.0000000000
      5035        41  PYPG      O11           -19.5981554075       18.7811577021       19.8590834926  MEMB      41              0.0000000000
      5036        41  PYPG      O12           -19.4138795315       21.0821100042       18.9204443715  MEMB      41              0.0000000000
      5037        41  PYPG      C1            -20.5207357179       18.5078213072       18.8160651484  MEMB      41              0.0000000000
      5038        41  PYPG      HA            -21.2962450961       19.2956787466       18.7272881839  MEMB      41              0.0000000000
      5039        41  PYPG      HB            -21.0991931803       17.6308502922       19.1577675120  MEMB      41              0.0000000000
      5040        41  PYPG      C2            -19.8435652943       18.2041882055       17.4295393149  MEMB      41              0.0000000000
      5041        41  PYPG      HS            -19.2276450470       17.2822783444       17.5715695051  MEMB      41              0.0000000000
      5042        41  PYPG      O21           -19.0695218485       19.3151196431       16.9518954962  MEMB      41              0.0000000000
      5043        41  PYPG      C21           -18.1252690725       19.0122590185       16.1013315551  MEMB      41              0.0000000000
      5044        41  PYPG      O22           -17.9983510643       17.9572566998       15.5108700961  MEMB      41              0.0000000000
      5045        41  PYPG      C22           -17.2185901497       20.1953618487       15.9144557419  MEMB      41              0.0000000000
      5046        41  PYPG      H2R           -17.0635073282       20.7209006986       16.8641240781  MEMB      41              0.0000000000
      5047        41  PYPG      H2S           -17.6894155904       20.9269939246       15.2384827152  MEMB      41              0.0000000000
      5048        41  PYPG      C3            -20.8585194787       17.8795891955       16.3573746336  MEMB      41              0.0000000000
      5049        41  PYPG      HX            -21.5000538297       17.0597541510       16.7586910184  MEMB      41              0.0000000000
      5050        41  PYPG      HY            -20.3208731388       17.5026588381       15.4552882371  MEMB      41              0.0000000000
      5051        41  PYPG      O31           -21.6970943912       19.0026603380       16.0460407509  MEMB      41              0.0000000000
      5052        41  PYPG      C31           -21.7443252216       19.3629812951       14.7722509215  MEMB      41              0.0000000000
      5053        41  PYPG      O32           -21.3678235522       18.7289135369       13.8265781922  MEMB      41              0.0000000000
      5054        41  PYPG      C32           -22.1751948905       20.7700125910       14.5924926706  MEMB      41              0.0000000000
      5055        41  PYPG      H2X           -23.2784484393       20.8189753428       14.5778612487  MEMB      41              0.0000000000
      5056        41  PYPG      H2Y           -21.7304052384       21.3588627005       15.4180954944  MEMB      41              0.0000000000
      5057        41  PYPG      C23           -15.8922110774       19.6158271665       15.4590684427  MEMB      41              0.0000000000
      5058        41  PYPG      H3R           -16.0994698914       18.9766533484       14.5768448698  MEMB      41              0.0000000000
      5059        41  PYPG      H3S           -15.4813638249       18.9325012456       16.2327299215  MEMB      41              0.0000000000
      5060        41  PYPG      C24           -14.8742291632       20.6803017278       15.1468036370  MEMB      41              0.0000000000
      5061        41  PYPG      H4R           -14.2805352304       20.9710864180       16.0413612778  MEMB      41              0.0000000000
      5062        41  PYPG      H4S           -15.4370278138       21.5826900424       14.8400978175  MEMB      41              0.0000000000
      5063        41  PYPG      C25           -13.9944496738       20.3097913294       13.9860273340  MEMB      41              0.0000000000
      5064        41  PYPG      H5R           -13.3863701863       19.4027531963       14.1348212132  MEMB      41              0.0000000000
      5065        41  PYPG      H5S           -13.3051439207       21.1319385504       14.0508121913  MEMB      41              0.0000000000
      5066        41  PYPG      C26           -14.7301482123       20.2411413486       12.6283622544  MEMB      41              0.0000000000
      5067        41  PYPG      H6R           -15.3944456769       21.0923665352       12.5048679920  MEMB      41              0.0000000000
      5068        41  PYPG      H6S           -15.3338191760       19.3115064763       12.6762813124  MEMB      41              0.0000000000
      5069        41  PYPG      C27           -13.8984468704       20.1767173625       11.3241395769  MEMB      41              0.0000000000
      5070        41  PYPG      H7R           -13.1442085049       19.4380493981       11.0937556315  MEMB      41              0.0000000000
      5071        41  PYPG      H7S           -13.1470823789       20.8394693071       11.1421754334  MEMB      41              0.0000000000
      5072        41  PYPG      C28           -14.4159642018       20.3295355021       10.0133532922  MEMB      41              0.0000000000
      5073        41  PYPG      H8R           -13.6515484380       19.7962101372        9.4033697226  MEMB      41              0.0000000000
      5074        41  PYPG      H8S           -14.3321803738       21.3833533757        9.8281018146  MEMB      41              0.0000000000
      5075        41  PYPG      C29           -15.7569035300       19.8013323046        9.9081929761  MEMB      41              0.0000000000
      5076        41  PYPG      H9R           -16.5283266776       20.4335571896       10.3521698597  MEMB      41              0.0000000000
      5077        41  PYPG      C210          -16.1108458220       18.7452287604        9.1934111534  MEMB      41              0.0000000000
      5078        41  PYPG      H10R          -17.1557374392       18.4810932072        9.2072087186  MEMB      41              0.0000000000
      5079        41  PYPG      C211          -15.2978888652       17.8496729496        8.3407128579  MEMB      41              0.0000000000
      5080        41  PYPG      H11R          -15.5125065983       16.7863352999        8.5870173800  MEMB      41              0.0000000000
      5081        41  PYPG      H11S          -14.2161313239       18.1121877384        8.4182893872  MEMB      41              0.0000000000
      5082        41  PYPG      C212          -15.6834729584       17.7990088824        6.8784900625  MEMB      41              0.0000000000
      5083        41  PYPG      H12R          -16.7200180641       17.6210823114        6.6802024975  MEMB      41              0.0000000000
      5084        41  PYPG      H12S          -15.1522638307       17.0089185115        6.4608728159  MEMB      41              0.0000000000
      5085        41  PYPG      C213          -15.2814543078       18.9438087678        6.1330884499  MEMB      41              0.0000000000
      5086        41  PYPG      H13R          -14.1576172105       18.8071699541        6.2669691422  MEMB      41              0.0000000000
      5087        41  PYPG      H13S          -15.7809930554       19.7393241016        6.7511525392  MEMB      41              0.0000000000
      5088        41  PYPG      C214          -15.6050723257       19.1553703209        4.6640949079  MEMB      41              0.0000000000
      5089        41  PYPG      H14R          -15.1616677790       18.2748799706        4.1433188565  MEMB      41              0.0000000000
      5090        41  PYPG      H14S          -16.6389779335       19.3165200358        4.4913146906  MEMB      41              0.0000000000
      5091        41  PYPG      C215          -15.1890106861       20.4322705942        3.9582388926  MEMB      41              0.0000000000
      5092        41  PYPG      H15R          -14.3115612224       21.0162499043        4.2683588473  MEMB      41              0.0000000000
      5093        41  PYPG      H15S          -15.4910889880       21.1894823579        4.4366803959  MEMB      41              0.0000000000
      5094        41  PYPG      C216          -15.0595532729       20.4986942908        2.4437624839  MEMB      41              0.0000000000
      5095        41  PYPG      H16R          -16.0146098646       20.8692898503        2.1981002200  MEMB      41              0.0000000000
      5096        41  PYPG      H16S          -14.6672720841       19.5194442671        2.1335661375  MEMB      41              0.0000000000
      5097        41  PYPG      H16T          -14.3874375765       21.2847063944        2.0665662605  MEMB      41              0.0000000000
      5098        41  PYPG      C33           -21.7494490888       21.2823136038       13.2066198024  MEMB      41              0.0000000000
      5099        41  PYPG      H3X           -22.2126355137       22.2877431751       13.1076537769  MEMB      41              0.0000000000
      5100        41  PYPG      H3Y           -22.0608161757       20.6299978517       12.3546150215  MEMB      41              0.0000000000
      5101        41  PYPG      C34           -20.2664970940       21.5298136379       13.0697105403  MEMB      41              0.0000000000
      5102        41  PYPG      H4X           -19.6947190230       20.5706579080       13.0601625994  MEMB      41              0.0000000000
      5103        41  PYPG      H4Y           -19.9689697870       22.1981139892       13.9088842405  MEMB      41              0.0000000000
      5104        41  PYPG      C35           -19.9762122992       22.2214501315       11.7536233331  MEMB      41              0.0000000000
      5105        41  PYPG      H5X           -20.5126804434       23.1941418555       11.6649210856  MEMB      41              0.0000000000
      5106        41  PYPG      H5Y           -20.3176938600       21.5825345131       10.9147881323  MEMB      41              0.0000000000
      5107        41  PYPG      C36           -18.5038032565       22.4407211013       11.5452606948  MEMB      41              0.0000000000
      5108        41  PYPG      H6X           -17.9292082430       21.4927876140       11.6583792506  MEMB      41              0.0000000000
      5109        41  PYPG      H6Y           -18.1497142609       23.1931756741       12.2971824744  MEMB      41              0.0000000000
      5110        41  PYPG      C37           -18.3320499641       22.9369266532       10.1334976380  MEMB      41              0.0000000000
      5111        41  PYPG      H7X           -18.1798906633       22.1805607266        9.3591360162  MEMB      41              0.0000000000
      5112        41  PYPG      H7Y           -19.0190209043       23.7654861037        9.8597793825  MEMB      41              0.0000000000
      5113        41  PYPG      C38           -17.0955301716       23.5116416268       10.0505471772  MEMB      41              0.0000000000
      5114        41  PYPG      H8X           -16.3564217462       22.8565605209       10.6002112817  MEMB      41              0.0000000000
      5115        41  PYPG      H8Y           -17.2954524586       24.3042340474       10.7127651891  MEMB      41              0.0000000000
      5116        41  PYPG      C39           -16.8499196925       24.2261980849        8.7559329968  MEMB      41              0.0000000000
      5117        41  PYPG      H9X           -16.8351702789       23.5214119366        8.0074448540  MEMB      41              0.0000000000
      5118        41  PYPG      H9Y           -15.8531624029       23.9855038679        8.5032524428  MEMB      41              0.0000000000
      5119        41  PYPG      C310          -17.2603666691       25.7265436995        8.4490730318  MEMB      41              0.0000000000
      5120        41  PYPG      H10X          -16.5529321201       26.6328495678        8.3533673004  MEMB      41              0.0000000000
      5121        41  PYPG      H10Y          -17.7749766606       26.0055049560        9.3617799937  MEMB      41              0.0000000000
      5122        41  PYPG      C311          -17.8417650014       25.7858925197        7.0651447591  MEMB      41              0.0000000000
      5123        41  PYPG      H11X          -17.2480872030       25.6708650457        6.1540430005  MEMB      41              0.0000000000
      5124        41  PYPG      H11Y          -18.1470143874       26.8028320921        6.9385166951  MEMB      41              0.0000000000
      5125        41  PYPG      C312          -18.9130084546       24.7709788769        6.8881521826  MEMB      41              0.0000000000
      5126        41  PYPG      H12X          -18.3975328004       23.7908447589        6.7949091637  MEMB      41              0.0000000000
      5127        41  PYPG      H12Y          -19.5112722785       24.7502287774        7.8248086885  MEMB      41              0.0000000000
      5128        41  PYPG      C313          -19.6828591292       25.0266962897        5.5915348144  MEMB      41              0.0000000000
      5129        41  PYPG      H13X          -20.2925033760       25.9529089687        5.6785298352  MEMB      41              0.0000000000
      5130        41  PYPG      H13Y          -18.9637484913       25.1365581493        4.7368542332  MEMB      41              0.0000000000
      5131        41  PYPG      C314          -20.6533293760       23.8851654505        5.3147087745  MEMB      41              0.0000000000
      5132        41  PYPG      H14X          -20.7570160799       23.3113236347        6.2675958505  MEMB      41              0.0000000000
      5133        41  PYPG      H14Y          -21.6241317957       24.3035343445        4.9666606087  MEMB      41              0.0000000000
      5134        41  PYPG      C315          -20.1546287269       22.9770567249        4.2132219302  MEMB      41              0.0000000000
      5135        41  PYPG      H15X          -19.1561858003       22.6477335210        4.5527812543  MEMB      41              0.0000000000
      5136        41  PYPG      H15Y          -20.7198362931       22.0245983791        4.1707230422  MEMB      41              0.0000000000
      5137        41  PYPG      C316          -20.0622195617       23.6912586345        2.8598998488  MEMB      41              0.0000000000
      5138        41  PYPG      H16X          -19.6085636482       22.9752378214        2.1562758847  MEMB      41              0.0000000000
      5139        41  PYPG      H16Y          -19.3393246990       24.5278997510        2.8748455408  MEMB      41              0.0000000000
      5140        41  PYPG      H16Z          -21.0317623311       24.1124199713        2.4972137462  MEMB      41              0.0000000000
      5141        42  PMPG      C13            29.8554721707        3.3601866648       21.4854984469  MEMB      42              0.0000000000
      5142        42  PMPG      H13A           29.6726275481        3.6219881840       22.5477300396  MEMB      42              0.0000000000
      5143        42  PMPG      H13B           29.1320698207        2.5718799758       21.1971016498  MEMB      42              0.0000000000
      5144        42  PMPG      OC3            31.1739698272        2.8486689520       21.2847914253  MEMB      42              0.0000000000
      5145        42  PMPG      HO3            31.7311633563        3.2672425569       21.9401472665  MEMB      42              0.0000000000
      5146        42  PMPG      C12            29.6253748502        4.6224606228       20.6169040148  MEMB      42              0.0000000000
      5147        42  PMPG      H12A           30.4147534451        5.3596402403       20.8818865055  MEMB      42              0.0000000000
      5148        42  PMPG      OC2            28.3895549664        5.2240461748       20.9573900082  MEMB      42              0.0000000000
      5149        42  PMPG      HO2            28.2128055779        5.8523037550       20.2546116230  MEMB      42              0.0000000000
      5150        42  PMPG      C11            29.6577183202        4.3634450030       19.0809042475  MEMB      42              0.0000000000
      5151        42  PMPG      H11A           30.6934752184        4.0822219012       18.7577866667  MEMB      42              0.0000000000
      5152        42  PMPG      H11B           29.3743859052        5.2910273763       18.5384458989  MEMB      42              0.0000000000
      5153        42  PMPG      P              28.2694610495        2.9621792407       17.2503292351  MEMB      42              0.0000000000
      5154        42  PMPG      O13            27.7479613958        4.1630997495       16.5739005353  MEMB      42              0.0000000000
      5155        42  PMPG      O14            27.4161642925        1.7507214586       17.2787019990  MEMB      42              0.0000000000
      5156        42  PMPG      O11            29.6740722944        2.6094787191       16.6043480617  MEMB      42              0.0000000000
      5157        42  PMPG      O12            28.7149440797        3.3475958739       18.7402415502  MEMB      42              0.0000000000
      5158        42  PMPG      C1             30.5417771146        1.6427530344       17.1927717254  MEMB      42              0.0000000000
      5159        42  PMPG      HA             30.0668687745        0.6384749681       17.3046653009  MEMB      42              0.0000000000
      5160        42  PMPG      HB             30.8494184041        1.9858083070       18.2057656886  MEMB      42              0.0000000000
      5161        42  PMPG      C2             31.8727662078        1.5317175440       16.4123324530  MEMB      42              0.0000000000
      5162        42  PMPG      HS             32.5500074419        1.0258372259       17.1537455821  MEMB      42              0.0000000000
      5163        42  PMPG      O21            32.3072831187        2.8439468927       16.0302357603  MEMB      42              0.0000000000
      5164        42  PMPG      C21            33.5855091202        3.0180402471       15.9698918925  MEMB      42              0.0000000000
      5165        42  PMPG      O22            34.4387907287        2.2329950495       16.3460731705  MEMB      42              0.0000000000
      5166        42  PMPG      C22            33.7906582014        4.3722025655       15.2720827345  MEMB      42              0.0000000000
      5167        42  PMPG      H2R            33.2516998706        4.3400034336       14.3100334424  MEMB      42              0.0000000000
      5168        42  PMPG      H2S            34.8471241470        4.5405696429       15.0348678842  MEMB      42              0.0000000000
      5169        42  PMPG      C3             31.7933462772        0.6849570511       15.1066267203  MEMB      42              0.0000000000
      5170        42  PMPG      HX             31.0317124200       -0.1002499773       15.1623550527  MEMB      42              0.0000000000
      5171        42  PMPG      HY             32.8041679398        0.2256628941       15.0590037898  MEMB      42              0.0000000000
      5172        42  PMPG      O31            31.6338228221        1.4277204546       13.8790772513  MEMB      42              0.0000000000
      5173        42  PMPG      C31            30.3954795838        1.7705011708       13.5220557142  MEMB      42              0.0000000000
      5174        42  PMPG      O32            29.3655882367        1.5063612967       14.0992479771  MEMB      42              0.0000000000
      5175        42  PMPG      C32            30.4942538089        2.5927445744       12.2359443962  MEMB      42              0.0000000000
      5176        42  PMPG      H2X            31.1409260978        2.1358680504       11.4622095526  MEMB      42              0.0000000000
      5177        42  PMPG      H2Y            30.8949661437        3.5830890307       12.5173301160  MEMB      42              0.0000000000
      5178        42  PMPG      C23            33.2626390415        5.5146499404       16.1538537543  MEMB      42              0.0000000000
      5179        42  PMPG      H3R            34.0839111130        5.7430005294       16.8687353432  MEMB      42              0.0000000000
      5180        42  PMPG      H3S            32.3279959076        5.2630506297       16.7071041853  MEMB      42              0.0000000000
      5181        42  PMPG      C24            32.8462942409        6.7639464526       15.4323035552  MEMB      42              0.0000000000
      5182        42  PMPG      H4R            33.7393328384        7.2121435681       14.9350065898  MEMB      42              0.0000000000
      5183        42  PMPG      H4S            32.4771593892        7.4485807434       16.2484047489  MEMB      42              0.0000000000
      5184        42  PMPG      C25            31.7956684338        6.6201282989       14.3509161431  MEMB      42              0.0000000000
      5185        42  PMPG      H5R            30.7778009053        6.3984825168       14.7361334466  MEMB      42              0.0000000000
      5186        42  PMPG      H5S            32.1279135754        5.8270156842       13.6487445116  MEMB      42              0.0000000000
      5187        42  PMPG      C26            31.7126865130        7.8095371024       13.4772421326  MEMB      42              0.0000000000
      5188        42  PMPG      H6R            32.6958407113        8.0024253950       13.0249734274  MEMB      42              0.0000000000
      5189        42  PMPG      H6S            31.3978317942        8.7343532242       13.9953871953  MEMB      42              0.0000000000
      5190        42  PMPG      C27            30.7557698027        7.4596635361       12.3859079681  MEMB      42              0.0000000000
      5191        42  PMPG      H7R            30.8151042829        8.1510211506       11.6949783160  MEMB      42              0.0000000000
      5192        42  PMPG      H7S            29.7065063058        7.5219208283       12.6231076393  MEMB      42              0.0000000000
      5193        42  PMPG      C28            31.1493944235        6.5081980302       11.2775390020  MEMB      42              0.0000000000
      5194        42  PMPG      H8R            31.0463236159        5.5469307967       11.7530469657  MEMB      42              0.0000000000
      5195        42  PMPG      H8S            32.1703504655        6.6806318123       10.8641933844  MEMB      42              0.0000000000
      5196        42  PMPG      C29            30.0742659639        6.5082335326       10.2444233916  MEMB      42              0.0000000000
      5197        42  PMPG      H9R            29.0483616724        6.8130658716       10.5605755874  MEMB      42              0.0000000000
      5198        42  PMPG      C217           30.4197116354        6.9002248803        8.8936546282  MEMB      42              0.0000000000
      5199        42  PMPG      H17R           29.5317269154        7.4790071438        8.8355620345  MEMB      42              0.0000000000
      5200        42  PMPG      H17S           31.3807654577        7.3222215970        8.5696179502  MEMB      42              0.0000000000
      5201        42  PMPG      C210           30.2258085675        5.5341930182        9.0857530920  MEMB      42              0.0000000000
      5202        42  PMPG      H10R           29.3187847019        5.1872544010        8.5741841288  MEMB      42              0.0000000000
      5203        42  PMPG      C211           31.5698559358        4.9145723559        8.8700101970  MEMB      42              0.0000000000
      5204        42  PMPG      H11R           32.4277961507        5.6244670381        8.9848765512  MEMB      42              0.0000000000
      5205        42  PMPG      H11S           31.6524289049        4.2027458311        9.7063003317  MEMB      42              0.0000000000
      5206        42  PMPG      C212           31.6553121846        4.2930087497        7.4728992687  MEMB      42              0.0000000000
      5207        42  PMPG      H12R           30.9105829626        3.5110739625        7.3187055861  MEMB      42              0.0000000000
      5208        42  PMPG      H12S           32.6079289268        3.7242347543        7.4780520850  MEMB      42              0.0000000000
      5209        42  PMPG      C213           31.5515264032        5.3209555635        6.2806009771  MEMB      42              0.0000000000
      5210        42  PMPG      H13R           32.1763051812        6.2306631358        6.5557462108  MEMB      42              0.0000000000
      5211        42  PMPG      H13S           30.5920891255        5.6034357715        6.0331988160  MEMB      42              0.0000000000
      5212        42  PMPG      C214           32.0512472862        4.7624097104        4.9142024250  MEMB      42              0.0000000000
      5213        42  PMPG      H14R           31.7326907475        3.7340223385        4.9060089442  MEMB      42              0.0000000000
      5214        42  PMPG      H14S           33.0684005167        4.6705829311        4.7358248113  MEMB      42              0.0000000000
      5215        42  PMPG      C215           32.2322842868        5.6988736552        3.7516405728  MEMB      42              0.0000000000
      5216        42  PMPG      H15R           32.4816005336        6.6565427019        4.2349323607  MEMB      42              0.0000000000
      5217        42  PMPG      H15S           31.1834899382        5.5632184552        3.5076917862  MEMB      42              0.0000000000
      5218        42  PMPG      C216           33.1477144980        5.4501950693        2.5202993635  MEMB      42              0.0000000000
      5219        42  PMPG      H16R           32.9148855917        6.2324787352        1.7603216514  MEMB      42              0.0000000000
      5220        42  PMPG      H16S           32.8910077191        4.4466364365        2.1284691890  MEMB      42              0.0000000000
      5221        42  PMPG      H16T           34.2559073742        5.4954943555        2.6523054691  MEMB      42              0.0000000000
      5222        42  PMPG      C33            29.1471418725        2.8451794308       11.5700334681  MEMB      42              0.0000000000
      5223        42  PMPG      H3X            29.4062241822        3.4667426154       10.6902547236  MEMB      42              0.0000000000
      5224        42  PMPG      H3Y            28.4789391109        3.3996749596       12.2744332516  MEMB      42              0.0000000000
      5225        42  PMPG      C34            28.6186023969        1.5531486946       10.9802248119  MEMB      42              0.0000000000
      5226        42  PMPG      H4X            28.6168913724        0.8472785163       11.8392761775  MEMB      42              0.0000000000
      5227        42  PMPG      H4Y            29.3672386980        1.1934439019       10.2308040603  MEMB      42              0.0000000000
      5228        42  PMPG      C35            27.2134379478        1.6775838396       10.3919612741  MEMB      42              0.0000000000
      5229        42  PMPG      H5X            26.5059737090        1.7909634812       11.2592927782  MEMB      42              0.0000000000
      5230        42  PMPG      H5Y            27.0382193325        0.7247409615        9.8490808904  MEMB      42              0.0000000000
      5231        42  PMPG      C36            26.9685815607        2.8293819368        9.3986605670  MEMB      42              0.0000000000
      5232        42  PMPG      H6X            27.2232304570        3.7867133003        9.8928956056  MEMB      42              0.0000000000
      5233        42  PMPG      H6Y            25.8713534169        2.8689518419        9.2133327032  MEMB      42              0.0000000000
      5234        42  PMPG      C37            27.7283217327        2.7285571736        8.0787797922  MEMB      42              0.0000000000
      5235        42  PMPG      H7X            28.8290078395        2.6033353631        8.1935024983  MEMB      42              0.0000000000
      5236        42  PMPG      H7Y            27.6284765419        3.6170735855        7.4431469991  MEMB      42              0.0000000000
      5237        42  PMPG      C38            27.2120056537        1.6997923960        7.1412130429  MEMB      42              0.0000000000
      5238        42  PMPG      H8X            26.1646080279        1.9072083244        6.8293044934  MEMB      42              0.0000000000
      5239        42  PMPG      H8Y            27.1735182923        0.7048977940        7.6208673606  MEMB      42              0.0000000000
      5240        42  PMPG      C39            28.2688511602        1.8830783291        6.0956143175  MEMB      42              0.0000000000
      5241        42  PMPG      H9X            29.2544718455        1.4669194348        6.3637939676  MEMB      42              0.0000000000
      5242        42  PMPG      H9Y            28.1961902718        2.7819168414        5.4533111145  MEMB      42              0.0000000000
      5243        42  PMPG      C310           28.0813605290        1.2123741169        5.0233473745  MEMB      42              0.0000000000
      5244        42  PMPG      H10X           26.9144236655        1.2544690727        4.8548957669  MEMB      42              0.0000000000
      5245        42  PMPG      H10Y           28.4700811324        0.2990432114        5.3071136586  MEMB      42              0.0000000000
      5246        42  PMPG      C311           29.2170494122        0.7058197373        4.1421977302  MEMB      42              0.0000000000
      5247        42  PMPG      H11X           29.2188385559       -0.2698853925        3.7142253682  MEMB      42              0.0000000000
      5248        42  PMPG      H11Y           30.0625559048        0.1304789828        4.5734227583  MEMB      42              0.0000000000
      5249        42  PMPG      C312           29.1291901122        1.8365841095        3.2247596351  MEMB      42              0.0000000000
      5250        42  PMPG      H12X           29.7080208189        1.6861137115        2.5199498277  MEMB      42              0.0000000000
      5251        42  PMPG      H12Y           29.5924220195        2.5073530232        3.8757902208  MEMB      42              0.0000000000
      5252        42  PMPG      C313           28.2443895656        2.3518451967        2.1122655351  MEMB      42              0.0000000000
      5253        42  PMPG      H13X           27.3256635240        2.4999737217        2.6140977046  MEMB      42              0.0000000000
      5254        42  PMPG      H13Y           28.0926999532        1.5454947038        1.3768047975  MEMB      42              0.0000000000
      5255        42  PMPG      C314           28.7776487056        3.5350907551        1.2405391149  MEMB      42              0.0000000000
      5256        42  PMPG      H14X           28.0951570290        3.6253735636        0.3537628474  MEMB      42              0.0000000000
      5257        42  PMPG      H14Y           29.8236159693        3.6161915431        0.9131543025  MEMB      42              0.0000000000
      5258        42  PMPG      C315           28.7700343184        4.6719648678        1.9998948558  MEMB      42              0.0000000000
      5259        42  PMPG      H15X           29.3091199425        5.6014566816        1.6886278420  MEMB      42              0.0000000000
      5260        42  PMPG      H15Y           28.9011818312        4.4361422493        3.0774782349  MEMB      42              0.0000000000
      5261        42  PMPG      C316           27.4763668495        4.8488769162        1.8050686589  MEMB      42              0.0000000000
      5262        42  PMPG      H16X           26.8045751424        4.9609748399        0.9623742042  MEMB      42              0.0000000000
      5263        42  PMPG      H16Y           27.7460870830        6.0177882721        1.9695054733  MEMB      42              0.0000000000
      5264        42  PMPG      H16Z           26.7660155805        4.3430730899        2.5558004243  MEMB      42              0.0000000000
      5265        43  PMPE      N              20.7098717186      -19.5883589586       21.0701113405  MEMB      43              0.0000000000
      5266        43  PMPE      HN1            20.1127567224      -19.0030498468       20.4502047805  MEMB      43              0.0000000000
      5267        43  PMPE      HN2            20.8695885708      -20.5445399167       20.6848436551  MEMB      43              0.0000000000
      5268        43  PMPE      HN3            20.3896175614      -19.6320519534       22.0555817973  MEMB      43              0.0000000000
      5269        43  PMPE      C12            22.0718763568      -18.9917264368       21.0760020368  MEMB      43              0.0000000000
      5270        43  PMPE      H12A           22.7799393591      -19.8371280846       21.2502022407  MEMB      43              0.0000000000
      5271        43  PMPE      H12B           22.1057750119      -18.2152107043       21.8765302433  MEMB      43              0.0000000000
      5272        43  PMPE      C11            22.3912002296      -18.2186588220       19.7859116388  MEMB      43              0.0000000000
      5273        43  PMPE      H11A           23.5012457455      -18.0707589561       19.8096942041  MEMB      43              0.0000000000
      5274        43  PMPE      H11B           21.8330565870      -17.2505882354       19.8447058169  MEMB      43              0.0000000000
      5275        43  PMPE      P              22.8761504337      -20.0709090680       18.0479599659  MEMB      43              0.0000000000
      5276        43  PMPE      O13            22.4844517081      -21.2176741068       18.8900738142  MEMB      43              0.0000000000
      5277        43  PMPE      O14            24.2955625599      -19.6954397556       17.9708364104  MEMB      43              0.0000000000
      5278        43  PMPE      O11            22.3642947134      -20.2420506407       16.5758305353  MEMB      43              0.0000000000
      5279        43  PMPE      O12            22.0068609427      -18.8489033937       18.5734781406  MEMB      43              0.0000000000
      5280        43  PMPE      C1             21.9557137535      -19.0541457598       15.8794149126  MEMB      43              0.0000000000
      5281        43  PMPE      HA             22.1763697614      -19.1401089625       14.7921776013  MEMB      43              0.0000000000
      5282        43  PMPE      HB             22.5076226664      -18.1666787144       16.2385950236  MEMB      43              0.0000000000
      5283        43  PMPE      C2             20.4381138837      -18.8238762747       15.9993693523  MEMB      43              0.0000000000
      5284        43  PMPE      HS             20.1384109263      -19.1308202757       17.0157549360  MEMB      43              0.0000000000
      5285        43  PMPE      O21            19.9032994595      -19.7149899311       15.0098587532  MEMB      43              0.0000000000
      5286        43  PMPE      C21            19.6833111118      -20.9775653356       15.5476093969  MEMB      43              0.0000000000
      5287        43  PMPE      O22            19.3322469768      -21.1978983094       16.6798650157  MEMB      43              0.0000000000
      5288        43  PMPE      C22            19.2001859909      -21.8290210189       14.4366695714  MEMB      43              0.0000000000
      5289        43  PMPE      H2R            18.2893549936      -21.5218756308       14.4990908856  MEMB      43              0.0000000000
      5290        43  PMPE      H2S            18.8382079919      -22.8021125435       14.6349117788  MEMB      43              0.0000000000
      5291        43  PMPE      C3             19.9988895817      -17.3213944156       15.7934224788  MEMB      43              0.0000000000
      5292        43  PMPE      HX             20.2584505681      -16.6460854695       16.6503751841  MEMB      43              0.0000000000
      5293        43  PMPE      HY             18.8925847182      -17.2765306546       15.7797035832  MEMB      43              0.0000000000
      5294        43  PMPE      O31            20.5702535317      -16.7543011890       14.6101838200  MEMB      43              0.0000000000
      5295        43  PMPE      C31            19.8367649403      -16.7263641495       13.5247455789  MEMB      43              0.0000000000
      5296        43  PMPE      O32            18.7661760388      -17.2446539124       13.3350044789  MEMB      43              0.0000000000
      5297        43  PMPE      C32            20.5615475730      -15.8445802242       12.5441168173  MEMB      43              0.0000000000
      5298        43  PMPE      H2X            21.0391312734      -15.0552257242       13.1586856713  MEMB      43              0.0000000000
      5299        43  PMPE      H2Y            19.9150458018      -15.3503039525       11.8576894466  MEMB      43              0.0000000000
      5300        43  PMPE      C23            19.7220667967      -21.6502310742       13.0831341273  MEMB      43              0.0000000000
      5301        43  PMPE      H3R            20.6013896648      -22.2216289062       13.3139677105  MEMB      43              0.0000000000
      5302        43  PMPE      H3S            19.8053468097      -20.6440423014       12.7213885370  MEMB      43              0.0000000000
      5303        43  PMPE      C24            19.0426546316      -22.1847910448       11.9119154491  MEMB      43              0.0000000000
      5304        43  PMPE      H4R            17.9494573394      -21.9796210293       11.6202963825  MEMB      43              0.0000000000
      5305        43  PMPE      H4S            19.2854743743      -23.2022240331       12.2224043498  MEMB      43              0.0000000000
      5306        43  PMPE      C25            19.7071251747      -22.2016286263       10.6218042270  MEMB      43              0.0000000000
      5307        43  PMPE      H5R            19.2263146719      -22.9694013019        9.9184731016  MEMB      43              0.0000000000
      5308        43  PMPE      H5S            20.6744589861      -22.5153914841       10.8749863164  MEMB      43              0.0000000000
      5309        43  PMPE      C26            19.8831330828      -20.7662951005       10.1041967152  MEMB      43              0.0000000000
      5310        43  PMPE      H6R            20.6169962762      -20.8008163215        9.3181327042  MEMB      43              0.0000000000
      5311        43  PMPE      H6S            20.0037844681      -19.9503673385       10.7867002349  MEMB      43              0.0000000000
      5312        43  PMPE      C27            18.7732259616      -20.1107834369        9.5744231087  MEMB      43              0.0000000000
      5313        43  PMPE      H7R            18.0210391057      -19.5584562180       10.1849462890  MEMB      43              0.0000000000
      5314        43  PMPE      H7S            18.3592190576      -21.3302126450        9.6384878496  MEMB      43              0.0000000000
      5315        43  PMPE      C28            18.7998755565      -19.1608279274        8.1427096051  MEMB      43              0.0000000000
      5316        43  PMPE      H8R            17.8329690677      -18.8774931304        7.4234836142  MEMB      43              0.0000000000
      5317        43  PMPE      H8S            19.2126890517      -19.7049263912        7.4122744575  MEMB      43              0.0000000000
      5318        43  PMPE      C29            19.4379307884      -17.9931282978        8.3656304305  MEMB      43              0.0000000000
      5319        43  PMPE      H9R            19.7680524530      -18.0260309087        9.4140648879  MEMB      43              0.0000000000
      5320        43  PMPE      C217           18.3725805801      -17.2479065202        8.7306493539  MEMB      43              0.0000000000
      5321        43  PMPE      H17R           18.5738587488      -16.3983553695        9.3570081551  MEMB      43              0.0000000000
      5322        43  PMPE      H17S           17.4739525825      -17.8284081508        8.7074400289  MEMB      43              0.0000000000
      5323        43  PMPE      C210           18.9834326010      -16.8081260208        7.5084689760  MEMB      43              0.0000000000
      5324        43  PMPE      H10R           19.4666599967      -15.8695660406        7.7356596318  MEMB      43              0.0000000000
      5325        43  PMPE      C211           18.2076126701      -16.8908232759        6.1993849986  MEMB      43              0.0000000000
      5326        43  PMPE      H11R           17.7785751731      -15.9492593339        5.8184007522  MEMB      43              0.0000000000
      5327        43  PMPE      H11S           17.3351693413      -17.5406298099        6.3583991453  MEMB      43              0.0000000000
      5328        43  PMPE      C212           19.0220417959      -17.4935411472        5.1862507448  MEMB      43              0.0000000000
      5329        43  PMPE      H12R           18.1971696414      -17.9747500712        4.6047314885  MEMB      43              0.0000000000
      5330        43  PMPE      H12S           19.5648188374      -18.2459741230        5.7202742285  MEMB      43              0.0000000000
      5331        43  PMPE      C213           20.0194855853      -16.5823958001        4.4669383068  MEMB      43              0.0000000000
      5332        43  PMPE      H13R           20.8137403676      -16.2873307108        5.1742674811  MEMB      43              0.0000000000
      5333        43  PMPE      H13S           19.4160956943      -15.7209209251        4.1452172092  MEMB      43              0.0000000000
      5334        43  PMPE      C214           20.7140053991      -17.0488151227        3.1714045298  MEMB      43              0.0000000000
      5335        43  PMPE      H14R           21.1802604554      -16.3391125484        2.5309716662  MEMB      43              0.0000000000
      5336        43  PMPE      H14S           19.8672331344      -17.1598115003        2.4658820570  MEMB      43              0.0000000000
      5337        43  PMPE      C215           21.7073624658      -18.1937122314        3.3937838443  MEMB      43              0.0000000000
      5338        43  PMPE      H15R           21.3714832213      -18.8907822519        4.2126842878  MEMB      43              0.0000000000
      5339        43  PMPE      H15S           22.6954786144      -17.9536788969        3.6240696358  MEMB      43              0.0000000000
      5340        43  PMPE      C216           22.1975071207      -18.9332828361        2.2337562245  MEMB      43              0.0000000000
      5341        43  PMPE      H16R           22.3300294041      -19.9574210796        2.4049345525  MEMB      43              0.0000000000
      5342        43  PMPE      H16S           21.3536506265      -19.1790610939        1.9106844925  MEMB      43              0.0000000000
      5343        43  PMPE      H16T           22.3113918333      -18.6668070343        1.2423001308  MEMB      43              0.0000000000
      5344        43  PMPE      C33            21.5101848438      -16.6921379988       11.6846917108  MEMB      43              0.0000000000
      5345        43  PMPE      H3X            21.0800357873      -17.6070631296       11.2657161596  MEMB      43              0.0000000000
      5346        43  PMPE      H3Y            22.2032326698      -17.1734502869       12.3388963593  MEMB      43              0.0000000000
      5347        43  PMPE      C34            22.1015081703      -15.9486783556       10.4930960255  MEMB      43              0.0000000000
      5348        43  PMPE      H4X            22.6079341770      -15.0263648213       10.8571627014  MEMB      43              0.0000000000
      5349        43  PMPE      H4Y            21.2060630297      -15.6615980022        9.8882763331  MEMB      43              0.0000000000
      5350        43  PMPE      C35            23.1528902562      -16.7062671263        9.6433149326  MEMB      43              0.0000000000
      5351        43  PMPE      H5X            24.0051050274      -17.0707990956       10.2478292206  MEMB      43              0.0000000000
      5352        43  PMPE      H5Y            23.5877127364      -15.9230286633        8.9836409915  MEMB      43              0.0000000000
      5353        43  PMPE      C36            22.6325092485      -17.8771948123        8.7846445888  MEMB      43              0.0000000000
      5354        43  PMPE      H6X            21.9347533652      -17.4922358204        8.0223210015  MEMB      43              0.0000000000
      5355        43  PMPE      H6Y            22.0826995667      -18.5972843063        9.4208045151  MEMB      43              0.0000000000
      5356        43  PMPE      C37            23.7211501303      -18.6951130645        8.0882874248  MEMB      43              0.0000000000
      5357        43  PMPE      H7X            24.3724062908      -19.0114586725        8.9049688430  MEMB      43              0.0000000000
      5358        43  PMPE      H7Y            24.3074433498      -18.1016787762        7.3600987217  MEMB      43              0.0000000000
      5359        43  PMPE      C38            23.3351751729      -20.0146484480        7.4648518534  MEMB      43              0.0000000000
      5360        43  PMPE      H8X            23.1796908973      -20.7756587255        8.2750694036  MEMB      43              0.0000000000
      5361        43  PMPE      H8Y            24.1842997979      -20.2891975797        6.8020918592  MEMB      43              0.0000000000
      5362        43  PMPE      C39            22.1136598626      -19.9259103486        6.6182309713  MEMB      43              0.0000000000
      5363        43  PMPE      H9X            22.1578075418      -19.1701280604        5.8323626485  MEMB      43              0.0000000000
      5364        43  PMPE      H9Y            21.2983632904      -19.5589474231        7.2719801461  MEMB      43              0.0000000000
      5365        43  PMPE      C310           21.7831407677      -21.3338217029        6.2064821238  MEMB      43              0.0000000000
      5366        43  PMPE      H10X           20.8079634055      -21.3362851640        6.0776771352  MEMB      43              0.0000000000
      5367        43  PMPE      H10Y           21.8407867578      -22.0311958988        7.0229643547  MEMB      43              0.0000000000
      5368        43  PMPE      C311           22.1825549785      -21.9047764712        4.9205365468  MEMB      43              0.0000000000
      5369        43  PMPE      H11X           23.2397656532      -21.9243091360        5.0242340790  MEMB      43              0.0000000000
      5370        43  PMPE      H11Y           21.9108525031      -21.3343772937        4.0323026598  MEMB      43              0.0000000000
      5371        43  PMPE      C312           21.6932364297      -23.2758658248        4.5609440574  MEMB      43              0.0000000000
      5372        43  PMPE      H12X           21.7504179465      -23.8540017025        5.4955530189  MEMB      43              0.0000000000
      5373        43  PMPE      H12Y           22.3523751315      -23.7562214519        3.8309673327  MEMB      43              0.0000000000
      5374        43  PMPE      C313           20.4470929258      -23.3720382364        3.7893900542  MEMB      43              0.0000000000
      5375        43  PMPE      H13X           20.3605317255      -22.5557851469        3.1064621678  MEMB      43              0.0000000000
      5376        43  PMPE      H13Y           19.7395262142      -23.2421038573        4.5545223676  MEMB      43              0.0000000000
      5377        43  PMPE      C314           20.0660632741      -24.6681275661        3.1017150877  MEMB      43              0.0000000000
      5378        43  PMPE      H14X           18.9658024648      -24.5963951083        2.9271761188  MEMB      43              0.0000000000
      5379        43  PMPE      H14Y           20.1999262835      -25.5315058200        3.7813604180  MEMB      43              0.0000000000
      5380        43  PMPE      C315           20.7038278109      -24.8780582845        1.7271476030  MEMB      43              0.0000000000
      5381        43  PMPE      H15X           21.8104613838      -24.7958437763        1.7544503918  MEMB      43              0.0000000000
      5382        43  PMPE      H15Y           20.3994702326      -24.0686211321        1.0353373096  MEMB      43              0.0000000000
      5383        43  PMPE      C316           20.2224766452      -26.1922928253        1.1252440701  MEMB      43              0.0000000000
      5384        43  PMPE      H16X           20.4853997267      -27.0623239577        1.7526824669  MEMB      43              0.0000000000
      5385        43  PMPE      H16Y           20.5917560214      -26.3616038398        0.1296504220  MEMB      43              0.0000000000
      5386        43  PMPE      H16Z           19.1447548731      -26.1644677134        0.9619921965  MEMB      43              0.0000000000
      5387        44  QMPE      N              -1.1101413637       28.2067550153       20.8664675517  MEMB      44              0.0000000000
      5388        44  QMPE      HN1            -1.5451699747       29.1316526783       21.0629925434  MEMB      44              0.0000000000
      5389        44  QMPE      HN2            -1.7406678915       27.4796139194       21.2246030509  MEMB      44              0.0000000000
      5390        44  QMPE      HN3            -0.1958896704       28.1885538841       21.3631020043  MEMB      44              0.0000000000
      5391        44  QMPE      C12            -0.9216987171       27.9934458474       19.3773734653  MEMB      44              0.0000000000
      5392        44  QMPE      H12A           -1.7961823299       28.4220348304       18.8423166594  MEMB      44              0.0000000000
      5393        44  QMPE      H12B           -0.8575623653       26.8971708171       19.2088994548  MEMB      44              0.0000000000
      5394        44  QMPE      C11             0.3910876309       28.5519338976       18.8387479244  MEMB      44              0.0000000000
      5395        44  QMPE      H11A            0.3181913516       28.4272786100       17.7238000836  MEMB      44              0.0000000000
      5396        44  QMPE      H11B            1.2165763380       27.9572117720       19.2741672159  MEMB      44              0.0000000000
      5397        44  QMPE      P               1.7278338511       30.7764713526       18.5656911089  MEMB      44              0.0000000000
      5398        44  QMPE      O13             2.1551202211       31.7446290978       19.5819785401  MEMB      44              0.0000000000
      5399        44  QMPE      O14             1.2310590425       31.2623375394       17.2611582046  MEMB      44              0.0000000000
      5400        44  QMPE      O11             2.9065081908       29.7469508232       18.3152058107  MEMB      44              0.0000000000
      5401        44  QMPE      O12             0.5769468551       29.8893350794       19.2455202444  MEMB      44              0.0000000000
      5402        44  QMPE      C1              3.9282953345       30.1120870559       17.3684864913  MEMB      44              0.0000000000
      5403        44  QMPE      HA              4.9060170287       29.6952688543       17.6980502541  MEMB      44              0.0000000000
      5404        44  QMPE      HB              4.0814272069       31.2172939885       17.2634261966  MEMB      44              0.0000000000
      5405        44  QMPE      C2              3.6734625350       29.5584976102       15.9494139843  MEMB      44              0.0000000000
      5406        44  QMPE      HS              2.9343801241       30.2519249589       15.4686497734  MEMB      44              0.0000000000
      5407        44  QMPE      O21             3.1431205858       28.2090920849       16.0222474869  MEMB      44              0.0000000000
      5408        44  QMPE      C21             2.4350493901       27.8528932353       14.9725258381  MEMB      44              0.0000000000
      5409        44  QMPE      O22             2.2352865212       28.4996616925       13.9636074700  MEMB      44              0.0000000000
      5410        44  QMPE      C22             1.7620272423       26.5060122529       15.2466357391  MEMB      44              0.0000000000
      5411        44  QMPE      H2R             0.7739799076       26.4838389592       14.7441190613  MEMB      44              0.0000000000
      5412        44  QMPE      H2S             1.5863427197       26.4963672198       16.3347811935  MEMB      44              0.0000000000
      5413        44  QMPE      C3              5.0120763215       29.6144002173       15.1667358590  MEMB      44              0.0000000000
      5414        44  QMPE      HX              5.7207749953       28.8541292305       15.5625413905  MEMB      44              0.0000000000
      5415        44  QMPE      HY              5.4926652608       30.6210541672       15.3094099082  MEMB      44              0.0000000000
      5416        44  QMPE      O31             4.6640477968       29.3838849884       13.8007951177  MEMB      44              0.0000000000
      5417        44  QMPE      C31             5.5681827908       29.7191654605       12.9749384596  MEMB      44              0.0000000000
      5418        44  QMPE      O32             6.7342367934       29.4673674579       13.1185594513  MEMB      44              0.0000000000
      5419        44  QMPE      C32             5.0941797370       29.5516289214       11.5837669980  MEMB      44              0.0000000000
      5420        44  QMPE      H2X             6.1559221272       29.2715500178       11.3477811843  MEMB      44              0.0000000000
      5421        44  QMPE      H2Y             4.4516960603       28.6258643904       11.3755514179  MEMB      44              0.0000000000
      5422        44  QMPE      C23             2.5410049559       25.2877440187       14.7061873634  MEMB      44              0.0000000000
      5423        44  QMPE      H3R             1.9274502579       24.3840638849       14.8029604519  MEMB      44              0.0000000000
      5424        44  QMPE      H3S             3.5002244981       25.1777138827       15.2446936309  MEMB      44              0.0000000000
      5425        44  QMPE      C24             2.7986169974       25.4186136156       13.2309012905  MEMB      44              0.0000000000
      5426        44  QMPE      H4R             3.2223760507       26.2913189648       13.2984689076  MEMB      44              0.0000000000
      5427        44  QMPE      H4S             2.1923471724       25.9638705603       12.5353839301  MEMB      44              0.0000000000
      5428        44  QMPE      C25             3.5991768007       24.4174189984       12.5303004731  MEMB      44              0.0000000000
      5429        44  QMPE      H5R             2.6606718268       24.2745912458       11.9866010404  MEMB      44              0.0000000000
      5430        44  QMPE      H5S             3.9735996045       23.6092390680       13.2127104657  MEMB      44              0.0000000000
      5431        44  QMPE      C26             4.4888544360       24.3652232800       11.2522321971  MEMB      44              0.0000000000
      5432        44  QMPE      H6R             4.8917567096       23.4693310214       11.1664436350  MEMB      44              0.0000000000
      5433        44  QMPE      H6S             5.5744111932       24.6246390202       11.3317329798  MEMB      44              0.0000000000
      5434        44  QMPE      C27             4.0729345418       25.2633984441       10.1415167420  MEMB      44              0.0000000000
      5435        44  QMPE      H7R             3.6201898695       26.2721840605       10.3632573219  MEMB      44              0.0000000000
      5436        44  QMPE      H7S             3.4053704331       24.8115692794        9.4836481540  MEMB      44              0.0000000000
      5437        44  QMPE      C28             4.9653805279       25.1111006245        9.0294798171  MEMB      44              0.0000000000
      5438        44  QMPE      H8R             4.9219142962       24.0998518724        9.1070006076  MEMB      44              0.0000000000
      5439        44  QMPE      H8S             5.9697702007       25.4016664035        9.0197902125  MEMB      44              0.0000000000
      5440        44  QMPE      C29             4.3192461846       25.6424148287        7.9038528777  MEMB      44              0.0000000000
      5441        44  QMPE      H9R             4.1484601498       26.5615483474        8.2922298970  MEMB      44              0.0000000000
      5442        44  QMPE      C217            3.4516148603       24.7255029772        7.0154799516  MEMB      44              0.0000000000
      5443        44  QMPE      H17R            3.5406500733       23.7856201162        7.4360134830  MEMB      44              0.0000000000
      5444        44  QMPE      H17S            2.4283665979       24.9813561887        6.7771496171  MEMB      44              0.0000000000
      5445        44  QMPE      C210            4.6692952855       25.5511292272        6.5123689923  MEMB      44              0.0000000000
      5446        44  QMPE      H10R            4.7289911815       26.2267004180        5.5809241801  MEMB      44              0.0000000000
      5447        44  QMPE      C211            5.5988064520       25.0525689458        6.1394861101  MEMB      44              0.0000000000
      5448        44  QMPE      H11R            5.1693698884       24.1742377198        6.1964788952  MEMB      44              0.0000000000
      5449        44  QMPE      H11S            5.0863207488       24.5980793102        5.1598206768  MEMB      44              0.0000000000
      5450        44  QMPE      C212            7.1455330176       25.3913200802        6.4853808485  MEMB      44              0.0000000000
      5451        44  QMPE      H12R            7.9372830830       24.6209239308        6.4502664824  MEMB      44              0.0000000000
      5452        44  QMPE      H12S            7.3422151923       25.6745933089        7.4947456035  MEMB      44              0.0000000000
      5453        44  QMPE      C213            7.7478792254       26.3270744987        5.5075793581  MEMB      44              0.0000000000
      5454        44  QMPE      H13R            8.5334230613       26.9115707560        5.8945420755  MEMB      44              0.0000000000
      5455        44  QMPE      H13S            6.8398715150       26.9405469245        5.5547514614  MEMB      44              0.0000000000
      5456        44  QMPE      C214            8.3427818343       26.0015999488        4.0833643272  MEMB      44              0.0000000000
      5457        44  QMPE      H14R            7.7079392150       25.3614030989        3.8896601585  MEMB      44              0.0000000000
      5458        44  QMPE      H14S            9.0930000195       25.4475815190        3.7732940465  MEMB      44              0.0000000000
      5459        44  QMPE      C215            8.3180575654       26.5238161097        2.6191653088  MEMB      44              0.0000000000
      5460        44  QMPE      H15R            7.2748941861       26.4879420658        2.4504670153  MEMB      44              0.0000000000
      5461        44  QMPE      H15S            8.1841193743       26.1095289001        1.6076441900  MEMB      44              0.0000000000
      5462        44  QMPE      C216            9.2043486905       27.4767530091        2.1708915210  MEMB      44              0.0000000000
      5463        44  QMPE      H16R           10.1194007911       27.2807097650        2.6134760067  MEMB      44              0.0000000000
      5464        44  QMPE      H16S            8.6644177374       28.3854540377        2.5346038137  MEMB      44              0.0000000000
      5465        44  QMPE      H16T            9.2434805593       28.1574296456        1.3983561288  MEMB      44              0.0000000000
      5466        44  QMPE      C33             4.5659252278       30.4926030821       10.7514717842  MEMB      44              0.0000000000
      5467        44  QMPE      H3X             4.4427964512       30.1979054546        9.7700304035  MEMB      44              0.0000000000
      5468        44  QMPE      H3Y             5.1866974474       31.1776346617       10.3690956683  MEMB      44              0.0000000000
      5469        44  QMPE      C34             3.3222337278       30.5084279422       11.3321406230  MEMB      44              0.0000000000
      5470        44  QMPE      H4X             3.5441890172       30.9938538110       12.2610240229  MEMB      44              0.0000000000
      5471        44  QMPE      H4Y             2.7583735866       29.6019743678       11.5534106137  MEMB      44              0.0000000000
      5472        44  QMPE      C35             2.5681264579       31.1017318825       10.4221897998  MEMB      44              0.0000000000
      5473        44  QMPE      H5X             3.1811996662       31.7972514048        9.6241025456  MEMB      44              0.0000000000
      5474        44  QMPE      H5Y             1.8937707268       31.5750891810       11.2386066537  MEMB      44              0.0000000000
      5475        44  QMPE      C36             1.8690256520       30.3525695762        9.5031449766  MEMB      44              0.0000000000
      5476        44  QMPE      H6X             2.4262653197       30.3175953163        8.6297640592  MEMB      44              0.0000000000
      5477        44  QMPE      H6Y             1.0788591926       30.8858377840        9.1363396500  MEMB      44              0.0000000000
      5478        44  QMPE      C37             0.6339204868       29.7508658460        9.8471762557  MEMB      44              0.0000000000
      5479        44  QMPE      H7X             1.1915305035       29.0007808094       10.3435188485  MEMB      44              0.0000000000
      5480        44  QMPE      H7Y             0.0428619892       30.3054371256       10.6158500608  MEMB      44              0.0000000000
      5481        44  QMPE      C38            -0.2635745483       29.4469682419        8.6422072866  MEMB      44              0.0000000000
      5482        44  QMPE      H8X            -1.0475022221       28.9189957849        9.1803251541  MEMB      44              0.0000000000
      5483        44  QMPE      H8Y            -0.6607539152       30.3622842484        8.1592823675  MEMB      44              0.0000000000
      5484        44  QMPE      C39             0.1967554946       28.5866763832        7.4948716596  MEMB      44              0.0000000000
      5485        44  QMPE      H9X             0.6811237356       27.7140670316        7.9494583268  MEMB      44              0.0000000000
      5486        44  QMPE      H9Y             0.9301725062       29.1078642386        6.8108766451  MEMB      44              0.0000000000
      5487        44  QMPE      C310           -0.8611542650       28.1255958739        6.6094357102  MEMB      44              0.0000000000
      5488        44  QMPE      H10X           -1.4507688177       29.0364718468        6.4875221297  MEMB      44              0.0000000000
      5489        44  QMPE      H10Y           -1.4593008057       27.4398465148        7.2057153399  MEMB      44              0.0000000000
      5490        44  QMPE      C311           -0.3321568091       27.4964663898        5.3159688298  MEMB      44              0.0000000000
      5491        44  QMPE      H11X           -1.1929009289       26.9644947258        4.8503257782  MEMB      44              0.0000000000
      5492        44  QMPE      H11Y            0.3805145579       26.6920233609        5.6079062999  MEMB      44              0.0000000000
      5493        44  QMPE      C312            0.3104958678       28.4552266816        4.2672457428  MEMB      44              0.0000000000
      5494        44  QMPE      H12X            1.2141550193       29.0702438418        4.5593602224  MEMB      44              0.0000000000
      5495        44  QMPE      H12Y           -0.3314948710       29.2805378847        4.1442420287  MEMB      44              0.0000000000
      5496        44  QMPE      C313            0.5347694471       27.8641670436        2.8697057044  MEMB      44              0.0000000000
      5497        44  QMPE      H13X            0.8341177378       28.7030084500        2.2321101560  MEMB      44              0.0000000000
      5498        44  QMPE      H13Y            1.2935521411       27.1613688658        2.7915379442  MEMB      44              0.0000000000
      5499        44  QMPE      C314           -0.5835447703       26.9653959389        2.3659157517  MEMB      44              0.0000000000
      5500        44  QMPE      H14X           -1.4623831537       27.5931419178        2.5493481208  MEMB      44              0.0000000000
      5501        44  QMPE      H14Y           -0.6641088256       26.1403418448        3.0742523031  MEMB      44              0.0000000000
      5502        44  QMPE      C315           -0.5289286891       26.4065158399        0.9272029045  MEMB      44              0.0000000000
      5503        44  QMPE      H15X           -1.3407820630       25.6728944589        0.7073990759  MEMB      44              0.0000000000
      5504        44  QMPE      H15Y           -0.6292036676       27.2458144782        0.2298987397  MEMB      44              0.0000000000
      5505        44  QMPE      H15Z            0.3900575129       25.8376764509        0.6652605539  MEMB      44              0.0000000000
      5506        45  PVCL2     C3            -28.0401146357       -2.1003830875       20.1945765268  MEMB      45              0.0000000000
      5507        45  PVCL2     HG31          -27.4575197568       -2.8147996845       19.5837062430  MEMB      45              0.0000000000
      5508        45  PVCL2     HG32          -27.3676920204       -1.7875409936       21.0339249404  MEMB      45              0.0000000000
      5509        45  PVCL2     P3            -29.2973083951       -4.0851588969       21.4771617112  MEMB      45              0.0000000000
      5510        45  PVCL2     OP33          -30.7161377269       -4.4616607353       21.6726812448  MEMB      45              0.0000000000
      5511        45  PVCL2     OP34          -28.4326404209       -4.0233297822       22.6747764675  MEMB      45              0.0000000000
      5512        45  PVCL2     OP31          -29.2098074079       -2.7000447787       20.7235555210  MEMB      45              0.0000000000
      5513        45  PVCL2     OP32          -28.6562665707       -5.1537289799       20.4781311566  MEMB      45              0.0000000000
      5514        45  PVCL2     C31           -29.3499277783       -5.4995736225       19.2696551033  MEMB      45              0.0000000000
      5515        45  PVCL2     H31J          -30.0360016972       -6.3609574884       19.4399691089  MEMB      45              0.0000000000
      5516        45  PVCL2     H31K          -30.0362411539       -4.7194200308       18.8567836700  MEMB      45              0.0000000000
      5517        45  PVCL2     C2            -28.4841438318       -0.8803390894       19.3247330436  MEMB      45              0.0000000000
      5518        45  PVCL2     HG22          -28.8153957404       -0.1475556795       20.0758427718  MEMB      45              0.0000000000
      5519        45  PVCL2     OG12          -27.3801116793       -0.2813879845       18.6493709528  MEMB      45              0.0000000000
      5520        45  PVCL2     HO12          -27.0703714428        0.4177888366       19.2169179875  MEMB      45              0.0000000000
      5521        45  PVCL2     C1            -29.6569588968       -1.0761624852       18.2910211846  MEMB      45              0.0000000000
      5522        45  PVCL2     HG11          -29.6145889373       -2.0796793931       17.8088880232  MEMB      45              0.0000000000
      5523        45  PVCL2     HG12          -29.4693409780       -0.3002153803       17.4999200597  MEMB      45              0.0000000000
      5524        45  PVCL2     P1            -32.2295745421       -0.8326862975       17.9307434282  MEMB      45              0.0000000000
      5525        45  PVCL2     OP13          -32.2133713008       -1.9437590595       16.9465468471  MEMB      45              0.0000000000
      5526        45  PVCL2     OP14          -33.4425897521       -0.7680249831       18.7658247360  MEMB      45              0.0000000000
      5527        45  PVCL2     OP11          -30.9526606849       -0.8950398600       18.8881469601  MEMB      45              0.0000000000
      5528        45  PVCL2     OP12          -31.9610691027        0.5885093665       17.2744068205  MEMB      45              0.0000000000
      5529        45  PVCL2     C11           -31.7173766457        1.7214773577       18.1248323995  MEMB      45              0.0000000000
      5530        45  PVCL2     H11J          -31.0682472029        1.4784846615       19.0015125528  MEMB      45              0.0000000000
      5531        45  PVCL2     H11K          -32.6683722265        2.0855402712       18.5680960714  MEMB      45              0.0000000000
      5532        45  PVCL2     C12           -31.2684886108        2.9244777509       17.2736452092  MEMB      45              0.0000000000
      5533        45  PVCL2     H12J          -31.5588273925        3.8815113595       17.7550548522  MEMB      45              0.0000000000
      5534        45  PVCL2     O12           -31.8306814126        2.8668863100       15.9588689400  MEMB      45              0.0000000000
      5535        45  PVCL2     CA1           -32.9940130986        3.4401635416       15.7944708359  MEMB      45              0.0000000000
      5536        45  PVCL2     OA1           -33.6741611128        3.9589473366       16.6556602219  MEMB      45              0.0000000000
      5537        45  PVCL2     CA2           -33.2868202029        3.5659908225       14.3083947590  MEMB      45              0.0000000000
      5538        45  PVCL2     H2A           -32.6994625381        4.4329027098       13.9642454006  MEMB      45              0.0000000000
      5539        45  PVCL2     H2B           -34.3637456292        3.7988960456       14.1828506851  MEMB      45              0.0000000000
      5540        45  PVCL2     C13           -29.7488404489        3.0121395599       17.1383109015  MEMB      45              0.0000000000
      5541        45  PVCL2     H13J          -29.2409892141        3.1198178911       18.0990694493  MEMB      45              0.0000000000
      5542        45  PVCL2     H13K          -29.6111909041        4.0310907130       16.7361667204  MEMB      45              0.0000000000
      5543        45  PVCL2     O13           -29.1429027810        1.8665721257       16.4770314184  MEMB      45              0.0000000000
      5544        45  PVCL2     CB1           -29.1933336719        1.8966193387       15.1600194782  MEMB      45              0.0000000000
      5545        45  PVCL2     OB1           -29.7790890258        2.7436672067       14.5220965450  MEMB      45              0.0000000000
      5546        45  PVCL2     CB2           -28.2383846530        0.8702294262       14.5627779581  MEMB      45              0.0000000000
      5547        45  PVCL2     H2D           -28.6864681566       -0.0387850311       14.9040541371  MEMB      45              0.0000000000
      5548        45  PVCL2     H2E           -27.1918357483        0.9991444837       14.9060552301  MEMB      45              0.0000000000
      5549        45  PVCL2     C32           -28.2511996220       -5.9211619971       18.2915065425  MEMB      45              0.0000000000
      5550        45  PVCL2     H32J          -27.8660532140       -6.8685976363       18.7693038577  MEMB      45              0.0000000000
      5551        45  PVCL2     O32           -27.2273135282       -4.8942068351       18.1551295522  MEMB      45              0.0000000000
      5552        45  PVCL2     CC1           -26.0522887257       -5.3481161233       17.8171259052  MEMB      45              0.0000000000
      5553        45  PVCL2     OC1           -25.7343106981       -6.5236247071       17.8935058131  MEMB      45              0.0000000000
      5554        45  PVCL2     CC2           -25.0928850038       -4.2521093378       17.3935054798  MEMB      45              0.0000000000
      5555        45  PVCL2     H2R           -24.7531310862       -3.6876401427       18.2929694391  MEMB      45              0.0000000000
      5556        45  PVCL2     H2S           -25.5889039044       -3.5109660115       16.7364645120  MEMB      45              0.0000000000
      5557        45  PVCL2     C33           -28.7841918035       -6.2447636535       16.8910534834  MEMB      45              0.0000000000
      5558        45  PVCL2     H33J          -27.9076343977       -6.6750292806       16.3647938393  MEMB      45              0.0000000000
      5559        45  PVCL2     H33K          -29.5646315273       -7.0343330021       17.0050442841  MEMB      45              0.0000000000
      5560        45  PVCL2     O33           -29.2300543942       -5.0465672667       16.2011773339  MEMB      45              0.0000000000
      5561        45  PVCL2     CD1           -29.7030627935       -5.3244697289       14.9869658685  MEMB      45              0.0000000000
      5562        45  PVCL2     OD1           -29.8513640143       -6.4512150395       14.5515170130  MEMB      45              0.0000000000
      5563        45  PVCL2     CD2           -30.0134931915       -4.0443241999       14.2060731594  MEMB      45              0.0000000000
      5564        45  PVCL2     H2X           -29.1266074272       -3.3846043115       14.3491782696  MEMB      45              0.0000000000
      5565        45  PVCL2     H2Y           -30.8964531239       -3.5488700214       14.6755055093  MEMB      45              0.0000000000
      5566        45  PVCL2     CA3           -32.9288079752        2.3570588384       13.4338632128  MEMB      45              0.0000000000
      5567        45  PVCL2     H3A           -32.1859795384        1.7011590886       13.9325941733  MEMB      45              0.0000000000
      5568        45  PVCL2     H3B           -32.4819464924        2.7243072868       12.4817090440  MEMB      45              0.0000000000
      5569        45  PVCL2     CA4           -34.1705106000        1.5250913845       13.1564531121  MEMB      45              0.0000000000
      5570        45  PVCL2     H4A           -34.6660796663        1.3240727654       14.1419356282  MEMB      45              0.0000000000
      5571        45  PVCL2     H4B           -33.9143797861        0.5427892199       12.6883736175  MEMB      45              0.0000000000
      5572        45  PVCL2     CA5           -35.2160966113        2.1999641638       12.2509436144  MEMB      45              0.0000000000
      5573        45  PVCL2     H5A           -35.6806902902        3.0993748948       12.7333341676  MEMB      45              0.0000000000
      5574        45  PVCL2     H5B           -35.8980819224        1.3352727720       12.1186295306  MEMB      45              0.0000000000
      5575        45  PVCL2     CA6           -34.8180580690        2.6365275100       10.8361252511  MEMB      45              0.0000000000
      5576        45  PVCL2     H6A           -34.2570080737        3.5349796699       11.0036522948  MEMB      45              0.0000000000
      5577        45  PVCL2     H6B           -35.6980426749        2.9283173238       10.2339190980  MEMB      45              0.0000000000
      5578        45  PVCL2     CA7           -33.9731271941        1.5942184422       10.0997839434  MEMB      45              0.0000000000
      5579        45  PVCL2     H7A           -34.6016895697        0.7012662113       10.2341853116  MEMB      45              0.0000000000
      5580        45  PVCL2     H7B           -33.0336861805        1.3915536858       10.6037946103  MEMB      45              0.0000000000
      5581        45  PVCL2     CA8           -33.5599985881        1.7819695876        8.6648550980  MEMB      45              0.0000000000
      5582        45  PVCL2     H8A           -33.1802881747        0.8789598082        8.1192069558  MEMB      45              0.0000000000
      5583        45  PVCL2     H8B           -32.9469466422        2.6636637292        8.4188165649  MEMB      45              0.0000000000
      5584        45  PVCL2     CA9           -34.6950213403        2.1416683495        7.9732781963  MEMB      45              0.0000000000
      5585        45  PVCL2     H9A           -34.1061580818        2.4689589078        6.9962165516  MEMB      45              0.0000000000
      5586        45  PVCL2     H9B           -35.1557530879        3.1116240523        8.2267192133  MEMB      45              0.0000000000
      5587        45  PVCL2     CA10          -35.7053056820        0.8599399224        7.9409385572  MEMB      45              0.0000000000
      5588        45  PVCL2     H10A          -36.8600489863        1.1028773596        7.7062165292  MEMB      45              0.0000000000
      5589        45  PVCL2     H10B          -36.4111161843        0.7285550560        8.7263368289  MEMB      45              0.0000000000
      5590        45  PVCL2     CA11          -35.2083164278       -0.4030825835        7.1168033538  MEMB      45              0.0000000000
      5591        45  PVCL2     H11A          -36.0746963656       -1.0935521906        7.2116336033  MEMB      45              0.0000000000
      5592        45  PVCL2     CA12          -34.4624113656       -0.6138257817        5.9251500162  MEMB      45              0.0000000000
      5593        45  PVCL2     H12A          -34.9195393804       -1.4679818891        5.3063137798  MEMB      45              0.0000000000
      5594        45  PVCL2     CA13          -33.7891646889        0.4490506279        4.9382791803  MEMB      45              0.0000000000
      5595        45  PVCL2     H13A          -32.8801052383        0.7156849805        5.3430729282  MEMB      45              0.0000000000
      5596        45  PVCL2     H13B          -34.2073374613        1.5416920425        4.8931370366  MEMB      45              0.0000000000
      5597        45  PVCL2     CA14          -33.7301981265        0.1429275619        3.3559516480  MEMB      45              0.0000000000
      5598        45  PVCL2     H14A          -33.5030165563       -0.8913364889        3.2332795952  MEMB      45              0.0000000000
      5599        45  PVCL2     H14B          -33.1327761833        0.9496625756        2.8688493676  MEMB      45              0.0000000000
      5600        45  PVCL2     CA15          -34.9033323288       -0.0274696728        2.3431350377  MEMB      45              0.0000000000
      5601        45  PVCL2     H15A          -34.9844010317        0.7957850633        2.9532238474  MEMB      45              0.0000000000
      5602        45  PVCL2     H15B          -35.8631424150       -0.5307592085        2.5353295362  MEMB      45              0.0000000000
      5603        45  PVCL2     CA16          -34.9485685475        0.5345758859        0.8478256058  MEMB      45              0.0000000000
      5604        45  PVCL2     H16A          -36.0157487415        0.4481552765        0.4473903868  MEMB      45              0.0000000000
      5605        45  PVCL2     H16B          -34.2575748211       -0.2056569930        0.5391136880  MEMB      45              0.0000000000
      5606        45  PVCL2     CA17          -34.3725543456        1.9397442087        0.3079469224  MEMB      45              0.0000000000
      5607        45  PVCL2     H17A          -34.8547050222        2.8315525833        0.5664601855  MEMB      45              0.0000000000
      5608        45  PVCL2     H17B          -34.7720657571        2.1241424849       -0.6988349262  MEMB      45              0.0000000000
      5609        45  PVCL2     CA18          -33.3626652799        2.8231168198        1.0746560689  MEMB      45              0.0000000000
      5610        45  PVCL2     H18A          -33.6085837265        3.0842892701        2.1514106361  MEMB      45              0.0000000000
      5611        45  PVCL2     H18B          -33.1634370729        3.8050770770        0.5814494976  MEMB      45              0.0000000000
      5612        45  PVCL2     H18C          -32.5449088125        2.1314681661        1.0041115386  MEMB      45              0.0000000000
      5613        45  PVCL2     CB3           -28.2827484162        0.6329773072       13.0626360136  MEMB      45              0.0000000000
      5614        45  PVCL2     H3D           -27.4637819230        0.1649935950       12.5437366864  MEMB      45              0.0000000000
      5615        45  PVCL2     H3E           -28.0456318736        1.4670313996       12.7815282154  MEMB      45              0.0000000000
      5616        45  PVCL2     CB4           -29.6019927420        0.5981563617       12.3704754849  MEMB      45              0.0000000000
      5617        45  PVCL2     H4D           -30.2165039747        1.4918432401       12.6185073983  MEMB      45              0.0000000000
      5618        45  PVCL2     H4E           -29.9053173204       -0.2856295544       12.9448216940  MEMB      45              0.0000000000
      5619        45  PVCL2     CB5           -29.6302572187        0.4222586901       10.8335103174  MEMB      45              0.0000000000
      5620        45  PVCL2     H5D           -30.6804636085        0.3459967405       10.5102319641  MEMB      45              0.0000000000
      5621        45  PVCL2     H5E           -29.0428453032       -0.4312454395       10.4576795216  MEMB      45              0.0000000000
      5622        45  PVCL2     CB6           -29.3327008242        1.5813413370        9.9105460105  MEMB      45              0.0000000000
      5623        45  PVCL2     H6D           -29.0563492374        1.3289877933        8.8887554013  MEMB      45              0.0000000000
      5624        45  PVCL2     H6E           -28.2837475248        1.7117896662       10.0161180765  MEMB      45              0.0000000000
      5625        45  PVCL2     CB7           -30.2031500280        2.9140605344       10.1588428115  MEMB      45              0.0000000000
      5626        45  PVCL2     H7D           -30.1748935518        3.2777851836       11.2310823050  MEMB      45              0.0000000000
      5627        45  PVCL2     H7E           -31.2165917652        2.6890234082       10.1128856861  MEMB      45              0.0000000000
      5628        45  PVCL2     CB8           -30.1245844968        4.1872552416        9.1760515460  MEMB      45              0.0000000000
      5629        45  PVCL2     H8D           -29.4376753858        5.2702954281        9.4177488922  MEMB      45              0.0000000000
      5630        45  PVCL2     H8E           -30.6121204036        5.0313378101        9.4598104156  MEMB      45              0.0000000000
      5631        45  PVCL2     CB9           -29.8219103344        3.5059072991        7.8611408678  MEMB      45              0.0000000000
      5632        45  PVCL2     H9D           -28.8153172453        3.1067944479        7.4797693450  MEMB      45              0.0000000000
      5633        45  PVCL2     H9E           -29.8838218180        4.5268556315        7.8194334803  MEMB      45              0.0000000000
      5634        45  PVCL2     CB10          -30.9552652173        3.3325794146        7.0335018733  MEMB      45              0.0000000000
      5635        45  PVCL2     H10D          -31.7057946044        3.9912915091        7.5375905230  MEMB      45              0.0000000000
      5636        45  PVCL2     H10E          -31.1592285608        2.2779870728        7.2204878288  MEMB      45              0.0000000000
      5637        45  PVCL2     CB11          -30.7464482174        3.8370772563        5.6165495034  MEMB      45              0.0000000000
      5638        45  PVCL2     H11D          -30.5042808330        4.9182214619        5.6959020917  MEMB      45              0.0000000000
      5639        45  PVCL2     H11E          -31.7541210637        3.7359465183        5.1730996400  MEMB      45              0.0000000000
      5640        45  PVCL2     CB12          -29.6455239952        3.0918414948        4.8310388446  MEMB      45              0.0000000000
      5641        45  PVCL2     H12D          -30.0723637822        2.0706871216        4.7157511336  MEMB      45              0.0000000000
      5642        45  PVCL2     H12E          -28.7045777462        3.0407876837        5.4257228244  MEMB      45              0.0000000000
      5643        45  PVCL2     CB13          -29.2884441047        3.6095338398        3.4211173150  MEMB      45              0.0000000000
      5644        45  PVCL2     H13D          -28.9194096012        4.6503795910        3.3874739426  MEMB      45              0.0000000000
      5645        45  PVCL2     H13E          -30.2389603549        3.5635943387        2.8520973792  MEMB      45              0.0000000000
      5646        45  PVCL2     CB14          -28.2105790715        2.7736539036        2.7219417939  MEMB      45              0.0000000000
      5647        45  PVCL2     H14D          -28.3714954214        2.8054197458        1.6240289198  MEMB      45              0.0000000000
      5648        45  PVCL2     H14E          -28.3742884226        1.7019850665        2.9453285172  MEMB      45              0.0000000000
      5649        45  PVCL2     CB15          -26.7786314686        3.2163550332        3.0816922751  MEMB      45              0.0000000000
      5650        45  PVCL2     H15D          -26.5545165069        2.8768815155        4.1138327286  MEMB      45              0.0000000000
      5651        45  PVCL2     H15E          -26.6896637812        4.3383317755        3.0858937971  MEMB      45              0.0000000000
      5652        45  PVCL2     CB16          -25.7920402588        2.5351610925        2.1321975579  MEMB      45              0.0000000000
      5653        45  PVCL2     H16D          -26.0265471564        2.8848627639        1.1129545642  MEMB      45              0.0000000000
      5654        45  PVCL2     H16E          -25.9598928405        1.4354704201        2.1047823333  MEMB      45              0.0000000000
      5655        45  PVCL2     H16F          -24.7194810523        2.7299121510        2.3488514987  MEMB      45              0.0000000000
      5656        45  PVCL2     CC3           -23.8719241388       -4.9008984999       16.6717989413  MEMB      45              0.0000000000
      5657        45  PVCL2     H3R           -23.4236195219       -5.7096726740       17.2874854001  MEMB      45              0.0000000000
      5658        45  PVCL2     H3S           -23.1430985442       -4.0766333271       16.5803230198  MEMB      45              0.0000000000
      5659        45  PVCL2     CC4           -24.0927225489       -5.5258524868       15.2738899379  MEMB      45              0.0000000000
      5660        45  PVCL2     H4R           -24.7507838604       -6.3830495234       15.4588778604  MEMB      45              0.0000000000
      5661        45  PVCL2     H4S           -23.1836962827       -5.9699185110       14.7923248324  MEMB      45              0.0000000000
      5662        45  PVCL2     CC5           -24.8742096748       -4.6741758990       14.2825515319  MEMB      45              0.0000000000
      5663        45  PVCL2     H5R           -25.7781624848       -4.3597544726       14.8260114575  MEMB      45              0.0000000000
      5664        45  PVCL2     H5S           -25.2099232435       -5.3094332139       13.4309542788  MEMB      45              0.0000000000
      5665        45  PVCL2     CC6           -24.1152231674       -3.4271746659       13.8708292488  MEMB      45              0.0000000000
      5666        45  PVCL2     H6R           -23.5487341250       -3.1287154834       14.7737600765  MEMB      45              0.0000000000
      5667        45  PVCL2     H6S           -24.7484719313       -2.5382585241       13.6625893902  MEMB      45              0.0000000000
      5668        45  PVCL2     CC7           -23.1699593614       -3.7456143006       12.7362599824  MEMB      45              0.0000000000
      5669        45  PVCL2     H7R           -22.5413217176       -4.6312634130       12.9760146260  MEMB      45              0.0000000000
      5670        45  PVCL2     H7S           -22.6172283354       -2.8354412215       12.5438757117  MEMB      45              0.0000000000
      5671        45  PVCL2     CC8           -23.7627482921       -3.9651128659       11.3848953619  MEMB      45              0.0000000000
      5672        45  PVCL2     H8R           -24.1930829357       -4.9911313282       11.3925647302  MEMB      45              0.0000000000
      5673        45  PVCL2     H8S           -22.8977468591       -3.8449856236       10.6931651063  MEMB      45              0.0000000000
      5674        45  PVCL2     CC9           -24.8248973286       -2.9546776377       11.0397046641  MEMB      45              0.0000000000
      5675        45  PVCL2     H9R           -24.5088630429       -1.9005184841       11.2207319794  MEMB      45              0.0000000000
      5676        45  PVCL2     H9S           -25.6719237488       -3.1874407867       11.7155302201  MEMB      45              0.0000000000
      5677        45  PVCL2     CC10          -25.3440372173       -3.1850538340        9.6323085052  MEMB      45              0.0000000000
      5678        45  PVCL2     H10R          -26.2762849697       -2.6160094604        9.5591081115  MEMB      45              0.0000000000
      5679        45  PVCL2     H10S          -25.6041741624       -4.2594253584        9.4642800037  MEMB      45              0.0000000000
      5680        45  PVCL2     CC11          -24.4933687578       -2.6710843326        8.5291831224  MEMB      45              0.0000000000
      5681        45  PVCL2     H11R          -24.1223296180       -3.4683276933        7.8852243722  MEMB      45              0.0000000000
      5682        45  PVCL2     CC12          -24.2873170566       -1.3918310325        8.1825844729  MEMB      45              0.0000000000
      5683        45  PVCL2     H12R          -23.6567660154       -1.1970062064        7.3079021820  MEMB      45              0.0000000000
      5684        45  PVCL2     CC13          -24.8422891794       -0.1458029256        8.8111432916  MEMB      45              0.0000000000
      5685        45  PVCL2     H13R          -23.9845928717        0.5625410206        8.7700712014  MEMB      45              0.0000000000
      5686        45  PVCL2     H13S          -25.1008061871       -0.3470558188        9.8772709794  MEMB      45              0.0000000000
      5687        45  PVCL2     CC14          -26.0378684122        0.5390158866        8.0898996403  MEMB      45              0.0000000000
      5688        45  PVCL2     H14R          -26.5704178730        1.2064370649        8.8125743674  MEMB      45              0.0000000000
      5689        45  PVCL2     H14S          -26.7858113849       -0.1930819509        7.7316726887  MEMB      45              0.0000000000
      5690        45  PVCL2     CC15          -25.6021842782        1.3852290783        6.8777504264  MEMB      45              0.0000000000
      5691        45  PVCL2     H15R          -24.6676511253        1.9169706096        7.1522950490  MEMB      45              0.0000000000
      5692        45  PVCL2     H15S          -26.4022056005        2.1215438324        6.6512285041  MEMB      45              0.0000000000
      5693        45  PVCL2     CC16          -25.2773474452        0.5988605392        5.5970612428  MEMB      45              0.0000000000
      5694        45  PVCL2     H16R          -26.0360640020        0.7665619200        4.7998279388  MEMB      45              0.0000000000
      5695        45  PVCL2     H16S          -25.3136047099       -0.4726631491        5.8810314537  MEMB      45              0.0000000000
      5696        45  PVCL2     CC17          -23.9033197848        0.9769383772        4.9929384436  MEMB      45              0.0000000000
      5697        45  PVCL2     H17R          -23.0999532633        0.8085804879        5.7473064143  MEMB      45              0.0000000000
      5698        45  PVCL2     H17S          -23.9061560399        2.0485909305        4.6909274671  MEMB      45              0.0000000000
      5699        45  PVCL2     CC18          -23.4588923921        0.1951806953        3.7598117420  MEMB      45              0.0000000000
      5700        45  PVCL2     H18R          -22.6421915942        0.7250941584        3.2165987809  MEMB      45              0.0000000000
      5701        45  PVCL2     H18S          -24.2890363675        0.0750092742        3.0354708886  MEMB      45              0.0000000000
      5702        45  PVCL2     H18T          -23.0801327885       -0.7874863759        4.1185672409  MEMB      45              0.0000000000
      5703        45  PVCL2     CD3           -30.3571615461       -4.3786578367       12.7049546110  MEMB      45              0.0000000000
      5704        45  PVCL2     H3X           -30.8985392174       -3.5217059297       12.2462433790  MEMB      45              0.0000000000
      5705        45  PVCL2     H3Y           -31.0927041322       -5.2174362390       12.6481656900  MEMB      45              0.0000000000
      5706        45  PVCL2     CD4           -29.1065516417       -4.7559468800       11.8566318288  MEMB      45              0.0000000000
      5707        45  PVCL2     H4X           -28.7070553927       -5.7490574841       12.1808568120  MEMB      45              0.0000000000
      5708        45  PVCL2     H4Y           -28.3381418355       -3.9711868290       12.0118971874  MEMB      45              0.0000000000
      5709        45  PVCL2     CD5           -29.2173267694       -4.8056351922       10.3137088058  MEMB      45              0.0000000000
      5710        45  PVCL2     H5X           -30.1554026524       -5.3191994759       10.0284010345  MEMB      45              0.0000000000
      5711        45  PVCL2     H5Y           -28.3651257987       -5.4121567984        9.8994077735  MEMB      45              0.0000000000
      5712        45  PVCL2     CD6           -29.2665857257       -3.3933582923        9.6839055805  MEMB      45              0.0000000000
      5713        45  PVCL2     H6X           -28.5527476179       -2.6915584549       10.1764490779  MEMB      45              0.0000000000
      5714        45  PVCL2     H6Y           -30.2988726764       -3.0126057618        9.8326451181  MEMB      45              0.0000000000
      5715        45  PVCL2     CD7           -29.0878734725       -3.3528816014        8.1527076445  MEMB      45              0.0000000000
      5716        45  PVCL2     H7X           -29.8196312573       -4.0661283045        7.7154221137  MEMB      45              0.0000000000
      5717        45  PVCL2     H7Y           -28.0630074222       -3.7147589869        7.9393796026  MEMB      45              0.0000000000
      5718        45  PVCL2     CD8           -29.2825746679       -1.9465434251        7.5226990158  MEMB      45              0.0000000000
      5719        45  PVCL2     H8X           -28.4404865540       -1.3182532810        7.8598315323  MEMB      45              0.0000000000
      5720        45  PVCL2     H8Y           -30.1702576367       -1.4531470007        7.9759853364  MEMB      45              0.0000000000
      5721        45  PVCL2     CD9           -29.1747530532       -1.8409864160        5.9749135788  MEMB      45              0.0000000000
      5722        45  PVCL2     H9X           -29.0907078363       -0.7572460219        5.6895747735  MEMB      45              0.0000000000
      5723        45  PVCL2     H9Y           -30.0484173703       -2.2716185050        5.4353269345  MEMB      45              0.0000000000
      5724        45  PVCL2     CD10          -27.9238385726       -2.5318741434        5.4021347700  MEMB      45              0.0000000000
      5725        45  PVCL2     H10X          -27.9777120616       -3.6411941478        5.4308168370  MEMB      45              0.0000000000
      5726        45  PVCL2     H10Y          -26.9921441489       -2.2026071249        5.9143601005  MEMB      45              0.0000000000
      5727        45  PVCL2     CD11          -27.6421312324       -2.1670257033        3.9503170026  MEMB      45              0.0000000000
      5728        45  PVCL2     H11X          -26.7134533843       -2.7105494360        3.6562770833  MEMB      45              0.0000000000
      5729        45  PVCL2     H11Y          -27.4970918183       -1.0653415038        3.9133160250  MEMB      45              0.0000000000
      5730        45  PVCL2     CD12          -28.7492138236       -2.4902192091        2.9538274093  MEMB      45              0.0000000000
      5731        45  PVCL2     H12X          -29.5333621634       -1.7113926141        3.0465581672  MEMB      45              0.0000000000
      5732        45  PVCL2     H12Y          -29.1795462722       -3.4940263254        3.1703450051  MEMB      45              0.0000000000
      5733        45  PVCL2     CD13          -28.2615610319       -2.4242421070        1.5042317175  MEMB      45              0.0000000000
      5734        45  PVCL2     H13X          -27.5813587066       -3.2886527193        1.3611760628  MEMB      45              0.0000000000
      5735        45  PVCL2     H13Y          -27.6936953607       -1.4853906997        1.3337894922  MEMB      45              0.0000000000
      5736        45  PVCL2     CD14          -29.3766153834       -2.5342786241        0.4637506879  MEMB      45              0.0000000000
      5737        45  PVCL2     H14X          -29.9758418355       -3.4268691933        0.7837939545  MEMB      45              0.0000000000
      5738        45  PVCL2     H14Y          -28.8903435743       -2.8127401056       -0.4966006620  MEMB      45              0.0000000000
      5739        45  PVCL2     CD15          -30.2294723601       -1.2409362362        0.3335124606  MEMB      45              0.0000000000
      5740        45  PVCL2     H15X          -30.8339185287       -1.1566482552        1.2569161416  MEMB      45              0.0000000000
      5741        45  PVCL2     H15Y          -30.9323522882       -1.2750063290       -0.5015043515  MEMB      45              0.0000000000
      5742        45  PVCL2     CD16          -29.6257496307        0.1446303957        0.1225843569  MEMB      45              0.0000000000
      5743        45  PVCL2     H16X          -28.8864187783        0.4015405009        0.9006743495  MEMB      45              0.0000000000
      5744        45  PVCL2     H16Y          -30.4848283162        0.8583936167        0.1488234828  MEMB      45              0.0000000000
      5745        45  PVCL2     H16Z          -29.1811187480        0.2338454066       -0.8691313711  MEMB      45              0.0000000000
      5746        46  PMPE      N              -5.8362829022       30.6736868496       20.8494844412  MEMB      46              0.0000000000
      5747        46  PMPE      HN1            -5.4524933828       31.1434716142       21.6933249729  MEMB      46              0.0000000000
      5748        46  PMPE      HN2            -5.2985906656       29.8452469825       20.5116791190  MEMB      46              0.0000000000
      5749        46  PMPE      HN3            -5.8939532067       31.3297188998       20.0572212831  MEMB      46              0.0000000000
      5750        46  PMPE      C12            -7.2623676939       30.4883487885       21.2143542542  MEMB      46              0.0000000000
      5751        46  PMPE      H12A           -7.7135977410       31.4809802725       21.0290394509  MEMB      46              0.0000000000
      5752        46  PMPE      H12B           -7.3352420947       30.3088468731       22.3170957045  MEMB      46              0.0000000000
      5753        46  PMPE      C11            -7.9186580813       29.4304419932       20.3207957483  MEMB      46              0.0000000000
      5754        46  PMPE      H11A           -9.0044959846       29.5823335610       20.5684953192  MEMB      46              0.0000000000
      5755        46  PMPE      H11B           -7.4883196857       28.4802216889       20.6592339369  MEMB      46              0.0000000000
      5756        46  PMPE      P              -8.7371950193       29.0376890064       17.8366899344  MEMB      46              0.0000000000
      5757        46  PMPE      O13            -8.0632316742       28.7359927158       16.5642804554  MEMB      46              0.0000000000
      5758        46  PMPE      O14            -9.8284517448       30.0293221027       17.8054659489  MEMB      46              0.0000000000
      5759        46  PMPE      O11            -9.3774135030       27.7687396644       18.5150847837  MEMB      46              0.0000000000
      5760        46  PMPE      O12            -7.6310967508       29.5281645266       18.9162650168  MEMB      46              0.0000000000
      5761        46  PMPE      C1             -8.6888923997       26.5953385100       18.6540082410  MEMB      46              0.0000000000
      5762        46  PMPE      HA             -8.7822651181       26.0217496548       19.5413610691  MEMB      46              0.0000000000
      5763        46  PMPE      HB             -7.5708126606       26.7625411195       18.5584385923  MEMB      46              0.0000000000
      5764        46  PMPE      C2             -9.3845786074       25.6034673249       17.7556417236  MEMB      46              0.0000000000
      5765        46  PMPE      HS             -8.9375719924       24.6178187822       18.1160578477  MEMB      46              0.0000000000
      5766        46  PMPE      O21            -8.9940556613       25.9432981908       16.4930765465  MEMB      46              0.0000000000
      5767        46  PMPE      C21            -7.6775686413       25.8969259772       16.5960439439  MEMB      46              0.0000000000
      5768        46  PMPE      O22            -7.1048963509       25.1438989960       17.4428086442  MEMB      46              0.0000000000
      5769        46  PMPE      C22            -7.3503907773       26.0985388567       15.0801969418  MEMB      46              0.0000000000
      5770        46  PMPE      H2R            -6.6566104391       24.9267754052       14.7716649709  MEMB      46              0.0000000000
      5771        46  PMPE      H2S            -6.3318041858       26.2173916275       15.1151929553  MEMB      46              0.0000000000
      5772        46  PMPE      C3            -10.9698914286       25.5102475492       17.7228798026  MEMB      46              0.0000000000
      5773        46  PMPE      HX            -11.2127732588       25.1240312586       18.7271773276  MEMB      46              0.0000000000
      5774        46  PMPE      HY            -11.4891294673       24.7462319986       17.0848315227  MEMB      46              0.0000000000
      5775        46  PMPE      O31           -11.6670428031       26.6496155673       17.3592270948  MEMB      46              0.0000000000
      5776        46  PMPE      C31           -11.9740643500       26.8006956189       16.0887532915  MEMB      46              0.0000000000
      5777        46  PMPE      O32           -11.7518694146       26.0690131701       15.1455922070  MEMB      46              0.0000000000
      5778        46  PMPE      C32           -12.7021602112       28.1029501803       16.0070534179  MEMB      46              0.0000000000
      5779        46  PMPE      H2X           -12.2479660323       28.8467332275       16.6700283432  MEMB      46              0.0000000000
      5780        46  PMPE      H2Y           -13.7767069529       27.9716937045       16.2543891688  MEMB      46              0.0000000000
      5781        46  PMPE      C23            -8.5834494339       26.2723942815       13.8376876507  MEMB      46              0.0000000000
      5782        46  PMPE      H3R            -9.0003881684       26.9589126547       14.4452329760  MEMB      46              0.0000000000
      5783        46  PMPE      H3S            -9.3116142072       25.3974136994       13.6074524473  MEMB      46              0.0000000000
      5784        46  PMPE      C24            -8.4829359871       27.0735340078       12.4929754608  MEMB      46              0.0000000000
      5785        46  PMPE      H4R            -9.3334636955       26.8772411539       11.9286040029  MEMB      46              0.0000000000
      5786        46  PMPE      H4S            -8.2485058237       26.5726983743       11.5986984633  MEMB      46              0.0000000000
      5787        46  PMPE      C25            -7.5429568962       28.2063038368       12.3440520143  MEMB      46              0.0000000000
      5788        46  PMPE      H5R            -6.5483225484       28.1751796141       12.8456183890  MEMB      46              0.0000000000
      5789        46  PMPE      H5S            -8.2055403057       28.7721540129       12.9563258066  MEMB      46              0.0000000000
      5790        46  PMPE      C26            -7.4219575622       28.6323501683       10.8953575268  MEMB      46              0.0000000000
      5791        46  PMPE      H6R            -8.4440361861       28.6378447349       10.4284321328  MEMB      46              0.0000000000
      5792        46  PMPE      H6S            -6.8352727488       27.8909851682       10.3189733253  MEMB      46              0.0000000000
      5793        46  PMPE      C27            -6.7397487880       29.9595446957       10.7597803814  MEMB      46              0.0000000000
      5794        46  PMPE      H7R            -5.9729855451       30.1206527023       11.5420405772  MEMB      46              0.0000000000
      5795        46  PMPE      H7S            -7.5971775667       30.6280145999       10.9763040957  MEMB      46              0.0000000000
      5796        46  PMPE      C28            -6.1373619645       30.1996179843        9.3571007060  MEMB      46              0.0000000000
      5797        46  PMPE      H8R            -6.1443787968       31.2764404556        9.1018081929  MEMB      46              0.0000000000
      5798        46  PMPE      H8S            -6.8441466452       29.6797235362        8.6806744312  MEMB      46              0.0000000000
      5799        46  PMPE      C29            -4.7156253856       29.6347500481        9.1811797216  MEMB      46              0.0000000000
      5800        46  PMPE      H9R            -4.5283366255       28.6095785038        9.5129913065  MEMB      46              0.0000000000
      5801        46  PMPE      C217           -3.5656340077       30.6291371574        9.3353987677  MEMB      46              0.0000000000
      5802        46  PMPE      H17R           -2.7405653504       30.2218215849        9.9142832005  MEMB      46              0.0000000000
      5803        46  PMPE      H17S           -3.9214004448       31.6482265493        9.3298544081  MEMB      46              0.0000000000
      5804        46  PMPE      C210           -3.8148186061       29.9338665580        8.0002500041  MEMB      46              0.0000000000
      5805        46  PMPE      H10R           -3.1424290763       29.0900535214        7.7772116992  MEMB      46              0.0000000000
      5806        46  PMPE      C211           -4.2311777335       30.8011931180        6.8100442961  MEMB      46              0.0000000000
      5807        46  PMPE      H11R           -3.3442479275       30.8658992961        6.1441949765  MEMB      46              0.0000000000
      5808        46  PMPE      H11S           -4.4655860821       31.8414047488        7.1171578065  MEMB      46              0.0000000000
      5809        46  PMPE      C212           -5.4252693490       30.2618079499        6.0045293986  MEMB      46              0.0000000000
      5810        46  PMPE      H12R           -5.8527239164       31.0999678919        5.4086785045  MEMB      46              0.0000000000
      5811        46  PMPE      H12S           -6.2505738040       29.9763195233        6.6766880930  MEMB      46              0.0000000000
      5812        46  PMPE      C213           -5.1489458647       29.0163204599        5.1417285384  MEMB      46              0.0000000000
      5813        46  PMPE      H13R           -6.1264358247       28.4839208135        5.1046834872  MEMB      46              0.0000000000
      5814        46  PMPE      H13S           -4.4588458637       28.2940632211        5.6224603525  MEMB      46              0.0000000000
      5815        46  PMPE      C214           -4.5106076389       29.3788141893        3.7840614311  MEMB      46              0.0000000000
      5816        46  PMPE      H14R           -3.5562093626       29.8782401426        4.0667065881  MEMB      46              0.0000000000
      5817        46  PMPE      H14S           -5.1082443042       30.1823048369        3.3058732746  MEMB      46              0.0000000000
      5818        46  PMPE      C215           -4.2541083795       28.1802008728        2.8269565626  MEMB      46              0.0000000000
      5819        46  PMPE      H15R           -3.5498611973       27.4642749526        3.3158564207  MEMB      46              0.0000000000
      5820        46  PMPE      H15S           -3.7864747870       28.4667993733        1.8561708432  MEMB      46              0.0000000000
      5821        46  PMPE      C216           -5.4945290879       27.3740024690        2.4553215139  MEMB      46              0.0000000000
      5822        46  PMPE      H16R           -5.1690088318       26.4331446594        1.9565960333  MEMB      46              0.0000000000
      5823        46  PMPE      H16S           -6.0200544247       27.1078405792        3.3953332269  MEMB      46              0.0000000000
      5824        46  PMPE      H16T           -6.1683975531       27.9394628206        1.7686277429  MEMB      46              0.0000000000
      5825        46  PMPE      C33           -12.5631680915       28.6890209683       14.6256244460  MEMB      46              0.0000000000
      5826        46  PMPE      H3X           -13.3124532566       29.5075418280       14.6279673248  MEMB      46              0.0000000000
      5827        46  PMPE      H3Y           -12.7887940664       27.8979947979       13.8854026708  MEMB      46              0.0000000000
      5828        46  PMPE      C34           -11.2133459230       29.3140174618       14.2863902882  MEMB      46              0.0000000000
      5829        46  PMPE      H4X           -10.4245967419       28.5344355667       14.2102915528  MEMB      46              0.0000000000
      5830        46  PMPE      H4Y           -10.9108864529       29.9794823619       15.1308621856  MEMB      46              0.0000000000
      5831        46  PMPE      C35           -11.2422230526       29.9970197515       12.9003643831  MEMB      46              0.0000000000
      5832        46  PMPE      H5X           -10.3301511386       30.6300927849       12.8453894506  MEMB      46              0.0000000000
      5833        46  PMPE      H5Y           -12.1270736416       30.6517124875       12.7539433572  MEMB      46              0.0000000000
      5834        46  PMPE      C36           -11.2968415179       29.0082999318       11.7172004133  MEMB      46              0.0000000000
      5835        46  PMPE      H6X           -12.2618957297       28.4505960426       11.7672919748  MEMB      46              0.0000000000
      5836        46  PMPE      H6Y           -10.5219966735       28.2397605132       11.8375515504  MEMB      46              0.0000000000
      5837        46  PMPE      C37           -11.1457561042       29.6993481325       10.3430390733  MEMB      46              0.0000000000
      5838        46  PMPE      H7X           -10.1617262107       30.2033635420       10.2524368559  MEMB      46              0.0000000000
      5839        46  PMPE      H7Y           -11.9098249076       30.5078437615       10.2807179740  MEMB      46              0.0000000000
      5840        46  PMPE      C38           -11.2259352679       28.6363439103        9.2404930370  MEMB      46              0.0000000000
      5841        46  PMPE      H8X           -12.2740017496       28.2557921603        9.3176261689  MEMB      46              0.0000000000
      5842        46  PMPE      H8Y           -10.4955222221       27.8540538772        9.5685855805  MEMB      46              0.0000000000
      5843        46  PMPE      C39           -10.9409821846       29.1163053030        7.8011486622  MEMB      46              0.0000000000
      5844        46  PMPE      H9X           -11.4546929197       30.0853536142        7.6525506188  MEMB      46              0.0000000000
      5845        46  PMPE      H9Y           -11.3938220196       28.3903991456        7.0789851772  MEMB      46              0.0000000000
      5846        46  PMPE      C310           -9.4654376587       29.3993228827        7.4555533448  MEMB      46              0.0000000000
      5847        46  PMPE      H10X           -8.8274316992       28.5750750128        7.7623810444  MEMB      46              0.0000000000
      5848        46  PMPE      H10Y           -9.0179872649       30.2486984116        7.9954122492  MEMB      46              0.0000000000
      5849        46  PMPE      C311           -9.2653214735       29.8599364991        6.0167813168  MEMB      46              0.0000000000
      5850        46  PMPE      H11X           -8.2323952345       30.1761277321        5.8375681199  MEMB      46              0.0000000000
      5851        46  PMPE      H11Y          -10.0768248745       30.5711073678        5.7722276041  MEMB      46              0.0000000000
      5852        46  PMPE      C312           -9.3385559405       28.7884377418        5.0788011039  MEMB      46              0.0000000000
      5853        46  PMPE      H12X          -10.4599685011       28.6042494905        5.1304606392  MEMB      46              0.0000000000
      5854        46  PMPE      H12Y           -8.7414500434       28.0094511156        5.5485183429  MEMB      46              0.0000000000
      5855        46  PMPE      C313           -8.8564324477       28.8446554362        3.6394507920  MEMB      46              0.0000000000
      5856        46  PMPE      H13X           -8.7267482118       27.8304540131        3.2280889065  MEMB      46              0.0000000000
      5857        46  PMPE      H13Y           -7.8202138038       29.1657174955        3.5495602114  MEMB      46              0.0000000000
      5858        46  PMPE      C314           -9.9214747165       29.5872441609        2.8749739734  MEMB      46              0.0000000000
      5859        46  PMPE      H14X           -9.9158568696       30.6099561981        3.2658123559  MEMB      46              0.0000000000
      5860        46  PMPE      H14Y          -10.9141096271       29.1434443218        3.1291080579  MEMB      46              0.0000000000
      5861        46  PMPE      C315           -9.6729564658       29.5055471516        1.3804039387  MEMB      46              0.0000000000
      5862        46  PMPE      H15X          -10.5819563266       29.8329051416        0.8132429508  MEMB      46              0.0000000000
      5863        46  PMPE      H15Y           -9.6372538996       28.5339799819        1.0771648762  MEMB      46              0.0000000000
      5864        46  PMPE      C316           -8.3675890071       30.1010623041        0.9555781202  MEMB      46              0.0000000000
      5865        46  PMPE      H16X           -7.9247870321       29.8306975853       -0.0074796723  MEMB      46              0.0000000000
      5866        46  PMPE      H16Y           -7.6463441227       29.9947049660        1.7595309125  MEMB      46              0.0000000000
      5867        46  PMPE      H16Z           -8.5655952018       31.1208980291        0.9030989757  MEMB      46              0.0000000000
      5868        47  PMPE      N              13.9687793717      -25.6037400666       20.3438426242  MEMB      47              0.0000000000
      5869        47  PMPE      HN1            13.6447084205      -25.9415383543       19.4122637244  MEMB      47              0.0000000000
      5870        47  PMPE      HN2            14.0140208480      -26.4195418652       20.9911481497  MEMB      47              0.0000000000
      5871        47  PMPE      HN3            13.2578199524      -24.9556981114       20.7215055028  MEMB      47              0.0000000000
      5872        47  PMPE      C12            15.3739627914      -25.0575443514       20.2007955520  MEMB      47              0.0000000000
      5873        47  PMPE      H12A           15.8868312902      -25.3747291363       21.1272732113  MEMB      47              0.0000000000
      5874        47  PMPE      H12B           15.3907558196      -23.9579726155       20.1940883595  MEMB      47              0.0000000000
      5875        47  PMPE      C11            16.0162671969      -25.7058316911       18.9690821355  MEMB      47              0.0000000000
      5876        47  PMPE      H11A           15.5091379446      -25.3669704099       18.0300467984  MEMB      47              0.0000000000
      5877        47  PMPE      H11B           15.8339440234      -26.8003065262       19.1201257894  MEMB      47              0.0000000000
      5878        47  PMPE      P              18.3598819063      -26.6812740541       18.5420501475  MEMB      47              0.0000000000
      5879        47  PMPE      O13            18.1477863405      -27.7192287537       19.5728448769  MEMB      47              0.0000000000
      5880        47  PMPE      O14            19.7258664563      -26.1979739631       18.3231184215  MEMB      47              0.0000000000
      5881        47  PMPE      O11            17.6793059962      -27.0728745827       17.1711536139  MEMB      47              0.0000000000
      5882        47  PMPE      O12            17.4180545936      -25.4392093856       18.8979560658  MEMB      47              0.0000000000
      5883        47  PMPE      C1             17.5872375947      -26.2342687099       16.0259677806  MEMB      47              0.0000000000
      5884        47  PMPE      HA             17.7635783501      -25.1429085275       16.1760567526  MEMB      47              0.0000000000
      5885        47  PMPE      HB             16.5759293752      -26.3226325517       15.5835299529  MEMB      47              0.0000000000
      5886        47  PMPE      C2             18.5453984217      -26.6834971617       14.9392562448  MEMB      47              0.0000000000
      5887        47  PMPE      HS             18.3390732712      -25.9628136375       14.1125644471  MEMB      47              0.0000000000
      5888        47  PMPE      O21            18.2824993063      -28.0287053262       14.5891143860  MEMB      47              0.0000000000
      5889        47  PMPE      C21            17.3568556158      -28.0542824514       13.7480508352  MEMB      47              0.0000000000
      5890        47  PMPE      O22            16.8220416016      -27.1628031343       13.1258901096  MEMB      47              0.0000000000
      5891        47  PMPE      C22            17.2008462851      -29.3009466223       13.5376663978  MEMB      47              0.0000000000
      5892        47  PMPE      H2R            16.5893654629      -30.0133831875       14.2293472272  MEMB      47              0.0000000000
      5893        47  PMPE      H2S            18.1872592509      -29.6293045660       12.8677170519  MEMB      47              0.0000000000
      5894        47  PMPE      C3             20.0010567811      -26.5557115969       15.3525301977  MEMB      47              0.0000000000
      5895        47  PMPE      HX             20.2577456369      -27.4069240931       16.0262656867  MEMB      47              0.0000000000
      5896        47  PMPE      HY             20.1106381776      -25.6361275578       15.9581411862  MEMB      47              0.0000000000
      5897        47  PMPE      O31            20.7557644073      -26.4582825218       14.1323230578  MEMB      47              0.0000000000
      5898        47  PMPE      C31            21.9314871839      -27.0674298280       14.1743374176  MEMB      47              0.0000000000
      5899        47  PMPE      O32            22.4360034361      -27.5315128301       15.1681370444  MEMB      47              0.0000000000
      5900        47  PMPE      C32            22.5211006341      -27.1319112050       12.7916968054  MEMB      47              0.0000000000
      5901        47  PMPE      H2X            23.3134760677      -27.9252503004       12.8115562123  MEMB      47              0.0000000000
      5902        47  PMPE      H2Y            22.9648087618      -26.1308943810       12.5675275263  MEMB      47              0.0000000000
      5903        47  PMPE      C23            16.2353277849      -29.1356147648       12.8184381565  MEMB      47              0.0000000000
      5904        47  PMPE      H3R            16.7143537462      -29.9865264049       12.2514392617  MEMB      47              0.0000000000
      5905        47  PMPE      H3S            16.5725970754      -28.7687888816       11.7431581932  MEMB      47              0.0000000000
      5906        47  PMPE      C24            14.2375909169      -29.2990708892       13.1284661676  MEMB      47              0.0000000000
      5907        47  PMPE      H4R            14.1207233697      -28.4970518938       13.5894986841  MEMB      47              0.0000000000
      5908        47  PMPE      H4S            14.2514859945      -30.1988106833       13.8213244537  MEMB      47              0.0000000000
      5909        47  PMPE      C25            13.1751442257      -29.5397354969       11.2126712803  MEMB      47              0.0000000000
      5910        47  PMPE      H5R            12.4865668174      -29.5805236642       11.8298819179  MEMB      47              0.0000000000
      5911        47  PMPE      H5S            13.3757726070      -30.6055158137       10.4652397159  MEMB      47              0.0000000000
      5912        47  PMPE      C26            13.6125617831      -28.9454534539        9.9786834099  MEMB      47              0.0000000000
      5913        47  PMPE      H6R            12.9409188861      -29.4469724905        9.3068170254  MEMB      47              0.0000000000
      5914        47  PMPE      H6S            14.5812451587      -29.1244809551        9.4896418489  MEMB      47              0.0000000000
      5915        47  PMPE      C27            13.6983577599      -27.6446257008       10.4106712053  MEMB      47              0.0000000000
      5916        47  PMPE      H7R            14.3774467321      -27.2596776160       11.1787062090  MEMB      47              0.0000000000
      5917        47  PMPE      H7S            12.8132890954      -27.1022624573       10.5320986837  MEMB      47              0.0000000000
      5918        47  PMPE      C28            13.9335716966      -27.1058764503        9.3287232553  MEMB      47              0.0000000000
      5919        47  PMPE      H8R            14.9259919636      -27.5799976365        9.1037433259  MEMB      47              0.0000000000
      5920        47  PMPE      H8S            13.8980539111      -25.9954951999        9.7673203502  MEMB      47              0.0000000000
      5921        47  PMPE      C29            13.3609261341      -27.1899714909        7.9954861705  MEMB      47              0.0000000000
      5922        47  PMPE      H9R            12.6269713468      -26.9651554838        8.3809568033  MEMB      47              0.0000000000
      5923        47  PMPE      C217           13.6379674632      -28.1326610200        7.0155884206  MEMB      47              0.0000000000
      5924        47  PMPE      H17R           12.8894549961      -28.6166142133        6.5143147377  MEMB      47              0.0000000000
      5925        47  PMPE      H17S           14.4730031646      -28.5528066889        7.3504763542  MEMB      47              0.0000000000
      5926        47  PMPE      C210           13.8049324077      -26.7272989715        6.4365643283  MEMB      47              0.0000000000
      5927        47  PMPE      H10R           13.1087412187      -26.1810873798        6.5130239670  MEMB      47              0.0000000000
      5928        47  PMPE      C211           15.0976258764      -25.6280550850        5.9993897244  MEMB      47              0.0000000000
      5929        47  PMPE      H11R           15.9474732773      -26.4403035502        6.2009007712  MEMB      47              0.0000000000
      5930        47  PMPE      H11S           15.2788494612      -24.3037033925        6.6783516672  MEMB      47              0.0000000000
      5931        47  PMPE      C212           15.5351678668      -24.9883755092        5.0454645205  MEMB      47              0.0000000000
      5932        47  PMPE      H12R           16.3081468620      -24.3161540913        5.4125704659  MEMB      47              0.0000000000
      5933        47  PMPE      H12S           14.8673879630      -24.1894715817        5.1056679223  MEMB      47              0.0000000000
      5934        47  PMPE      C213           15.5294305129      -25.9558623567        4.0001521804  MEMB      47              0.0000000000
      5935        47  PMPE      H13R           14.7004114107      -26.7168188968        4.0927490630  MEMB      47              0.0000000000
      5936        47  PMPE      H13S           16.4977351473      -26.4571055311        4.1251009360  MEMB      47              0.0000000000
      5937        47  PMPE      C214           15.3353937498      -25.0764974298        2.8236666667  MEMB      47              0.0000000000
      5938        47  PMPE      H14R           16.1193816100      -24.2781611408        2.9094157353  MEMB      47              0.0000000000
      5939        47  PMPE      H14S           14.3296007348      -24.5927403826        2.9730840634  MEMB      47              0.0000000000
      5940        47  PMPE      C215           15.3123151977      -25.8570605046        1.5369983875  MEMB      47              0.0000000000
      5941        47  PMPE      H15R           14.5923212725      -25.4621734335        0.7955967098  MEMB      47              0.0000000000
      5942        47  PMPE      H15S           14.8593836089      -26.8216169214        1.8314767431  MEMB      47              0.0000000000
      5943        47  PMPE      C216           16.6576078157      -25.9738921156        0.8311640490  MEMB      47              0.0000000000
      5944        47  PMPE      H16R           17.4267881949      -26.4099712181        1.4981531265  MEMB      47              0.0000000000
      5945        47  PMPE      H16S           16.5891432319      -26.6404988840       -0.0574267995  MEMB      47              0.0000000000
      5946        47  PMPE      H16T           16.9755600945      -24.9535551808        0.5090535389  MEMB      47              0.0000000000
      5947        47  PMPE      C33            21.4236859510      -27.4987037054       11.8069445556  MEMB      47              0.0000000000
      5948        47  PMPE      H3X            20.6801937849      -26.6684062694       11.8273087732  MEMB      47              0.0000000000
      5949        47  PMPE      H3Y            21.0077151206      -28.4689654587       12.1893874955  MEMB      47              0.0000000000
      5950        47  PMPE      C34            21.8318796182      -27.7055447096       10.3499862863  MEMB      47              0.0000000000
      5951        47  PMPE      H4X            22.6675269383      -28.4348987228       10.3542687876  MEMB      47              0.0000000000
      5952        47  PMPE      H4Y            22.1806509755      -26.8103391595        9.8013181738  MEMB      47              0.0000000000
      5953        47  PMPE      C35            20.6670711914      -28.1672578006        9.4656727057  MEMB      47              0.0000000000
      5954        47  PMPE      H5X            20.0269858487      -28.8421465772       10.0526315705  MEMB      47              0.0000000000
      5955        47  PMPE      H5Y            21.1191256123      -28.7206261577        8.6085499886  MEMB      47              0.0000000000
      5956        47  PMPE      C36            19.7009821891      -27.0380193608        9.0949653719  MEMB      47              0.0000000000
      5957        47  PMPE      H6X            20.2832455772      -26.1597309202        8.7739947840  MEMB      47              0.0000000000
      5958        47  PMPE      H6Y            19.1942240188      -26.7978481953       10.0282967562  MEMB      47              0.0000000000
      5959        47  PMPE      C37            18.6009951632      -27.3338811389        8.0838411999  MEMB      47              0.0000000000
      5960        47  PMPE      H7X            18.0017953604      -26.4080142388        7.9271871023  MEMB      47              0.0000000000
      5961        47  PMPE      H7Y            17.9662557678      -28.1730711302        8.4687031036  MEMB      47              0.0000000000
      5962        47  PMPE      C38            19.1403825497      -27.7564767607        6.7695743569  MEMB      47              0.0000000000
      5963        47  PMPE      H8X            19.8547557807      -28.5032541023        7.0010793892  MEMB      47              0.0000000000
      5964        47  PMPE      H8Y            19.9167776820      -27.1129228907        6.3665571686  MEMB      47              0.0000000000
      5965        47  PMPE      C39            18.0770017891      -28.1050603635        5.7465626728  MEMB      47              0.0000000000
      5966        47  PMPE      H9X            17.5109499335      -27.2009557874        5.5908025732  MEMB      47              0.0000000000
      5967        47  PMPE      H9Y            17.3032025644      -28.8074015338        6.1397841432  MEMB      47              0.0000000000
      5968        47  PMPE      C310           18.8161540937      -28.4349060111        4.4346899612  MEMB      47              0.0000000000
      5969        47  PMPE      H10X           19.5530858634      -29.2255607290        4.7804297312  MEMB      47              0.0000000000
      5970        47  PMPE      H10Y           19.4426222172      -27.6451374020        4.0604916371  MEMB      47              0.0000000000
      5971        47  PMPE      C311           17.8730869667      -28.8700416657        3.2570887706  MEMB      47              0.0000000000
      5972        47  PMPE      H11X           17.2686550571      -28.0213822820        2.9795234227  MEMB      47              0.0000000000
      5973        47  PMPE      H11Y           17.0931211325      -29.6281543862        3.5468693642  MEMB      47              0.0000000000
      5974        47  PMPE      C312           18.5897002647      -29.5223398015        2.0873346151  MEMB      47              0.0000000000
      5975        47  PMPE      H12X           18.9074391716      -30.5053088323        2.3057974897  MEMB      47              0.0000000000
      5976        47  PMPE      H12Y           19.5782086892      -29.1527812453        1.9134154396  MEMB      47              0.0000000000
      5977        47  PMPE      C313           17.7340742228      -29.5282207961        0.8048310671  MEMB      47              0.0000000000
      5978        47  PMPE      H13X           18.2775881189      -29.9549717380       -0.0213727618  MEMB      47              0.0000000000
      5979        47  PMPE      H13Y           17.6976748700      -28.4505940533        0.7020832138  MEMB      47              0.0000000000
      5980        47  PMPE      C314           16.2721643594      -30.0385069429        0.7626750926  MEMB      47              0.0000000000
      5981        47  PMPE      H14X           15.7489349135      -29.5670501130        1.6239002325  MEMB      47              0.0000000000
      5982        47  PMPE      H14Y           16.0685227182      -31.1279310813        0.8892177805  MEMB      47              0.0000000000
      5983        47  PMPE      C315           15.5094689340      -29.6562601805       -0.4403658364  MEMB      47              0.0000000000
      5984        47  PMPE      H15X           15.3633556499      -28.5606425720       -0.3301437961  MEMB      47              0.0000000000
      5985        47  PMPE      H15Y           14.6283971953      -30.3017583733       -0.2263715612  MEMB      47              0.0000000000
      5986        47  PMPE      C316           15.8446680881      -29.9971423257       -1.8715206694  MEMB      47              0.0000000000
      5987        47  PMPE      H16X           15.8239558298      -31.0606404643       -2.0009636193  MEMB      47              0.0000000000
      5988        47  PMPE      H16Y           16.8493879398      -29.7145680296       -2.1654231203  MEMB      47              0.0000000000
      5989        47  PMPE      H16Z           15.0695028220      -29.5718948749       -2.5550956714  MEMB      47              0.0000000000
      5990        48  POPE      N              -6.0940819397      -32.2805301196       20.0260537618  MEMB      48              0.0000000000
      5991        48  POPE      HN1            -6.1931193831      -31.6298611531       19.2163029228  MEMB      48              0.0000000000
      5992        48  POPE      HN2            -6.1853439649      -33.2725983097       19.7221549391  MEMB      48              0.0000000000
      5993        48  POPE      HN3            -6.8305685158      -32.1126218393       20.7480759898  MEMB      48              0.0000000000
      5994        48  POPE      C12            -4.7287550319      -32.1480364867       20.6538917150  MEMB      48              0.0000000000
      5995        48  POPE      H12A           -4.6828736687      -33.0087059320       21.3500925383  MEMB      48              0.0000000000
      5996        48  POPE      H12B           -4.7312212650      -31.2595378245       21.3112477545  MEMB      48              0.0000000000
      5997        48  POPE      C11            -3.5053212064      -32.1259171255       19.6720426882  MEMB      48              0.0000000000
      5998        48  POPE      H11A           -3.4897567918      -32.9916468227       18.9724859853  MEMB      48              0.0000000000
      5999        48  POPE      H11B           -2.6096018089      -32.1569735264       20.3536007261  MEMB      48              0.0000000000
      6000        48  POPE      P              -2.0058822902      -30.4360415146       18.3748468295  MEMB      48              0.0000000000
      6001        48  POPE      O13            -1.2289722227      -31.5131200136       17.7430710713  MEMB      48              0.0000000000
      6002        48  POPE      O14            -1.4461529759      -29.7226531341       19.5512767218  MEMB      48              0.0000000000
      6003        48  POPE      O11            -2.4136321974      -29.3987485500       17.2901029630  MEMB      48              0.0000000000
      6004        48  POPE      O12            -3.4462388926      -30.9805315951       18.8268274673  MEMB      48              0.0000000000
      6005        48  POPE      C1             -1.4266993894      -28.5184756396       16.8264888618  MEMB      48              0.0000000000
      6006        48  POPE      HA             -0.4590104361      -29.0468828792       16.6228628204  MEMB      48              0.0000000000
      6007        48  POPE      HB             -1.2564643702      -27.6389120237       17.5023097284  MEMB      48              0.0000000000
      6008        48  POPE      C2             -1.8843823800      -28.1151774456       15.4661652458  MEMB      48              0.0000000000
      6009        48  POPE      HS             -1.1539965351      -27.5470005894       15.0738010093  MEMB      48              0.0000000000
      6010        48  POPE      O21            -3.2370318187      -27.5960535611       15.3573092824  MEMB      48              0.0000000000
      6011        48  POPE      C21            -3.7241903857      -26.8391389690       16.3301581639  MEMB      48              0.0000000000
      6012        48  POPE      O22            -3.0721489809      -26.1667126067       17.1189129715  MEMB      48              0.0000000000
      6013        48  POPE      C22            -5.2664784773      -26.8598319245       16.2057532598  MEMB      48              0.0000000000
      6014        48  POPE      H2R            -5.5461355931      -26.0672387623       15.4869052605  MEMB      48              0.0000000000
      6015        48  POPE      H2S            -5.7612220825      -26.5651751664       17.1385863713  MEMB      48              0.0000000000
      6016        48  POPE      C3             -1.6696032882      -29.3097468265       14.5119122836  MEMB      48              0.0000000000
      6017        48  POPE      HX             -0.6238275567      -29.6511577773       14.6136366291  MEMB      48              0.0000000000
      6018        48  POPE      HY             -1.5780970808      -29.2987667999       13.4536015628  MEMB      48              0.0000000000
      6019        48  POPE      O31            -2.7550072546      -30.1453621858       14.5672033199  MEMB      48              0.0000000000
      6020        48  POPE      C31            -2.4431574913      -31.3438658098       14.8912524583  MEMB      48              0.0000000000
      6021        48  POPE      O32            -1.3346135326      -31.8603197724       14.8198899112  MEMB      48              0.0000000000
      6022        48  POPE      C32            -3.7267065760      -31.9829073439       15.3208016837  MEMB      48              0.0000000000
      6023        48  POPE      H2X            -4.6320928309      -31.3657655242       15.2358765759  MEMB      48              0.0000000000
      6024        48  POPE      H2Y            -3.5584322987      -32.3775070556       16.3412892651  MEMB      48              0.0000000000
      6025        48  POPE      C23            -5.8549704689      -28.1185753538       15.5608730809  MEMB      48              0.0000000000
      6026        48  POPE      H3R            -5.5636291389      -29.0528480950       16.0835855449  MEMB      48              0.0000000000
      6027        48  POPE      H3S            -5.4665933266      -28.2237350400       14.5186214942  MEMB      48              0.0000000000
      6028        48  POPE      C24            -7.3727987272      -27.9893568969       15.4750399009  MEMB      48              0.0000000000
      6029        48  POPE      H4R            -7.6241034416      -26.9984525909       15.0291175731  MEMB      48              0.0000000000
      6030        48  POPE      H4S            -7.7402463568      -27.9284586407       16.5273633970  MEMB      48              0.0000000000
      6031        48  POPE      C25            -7.8836701538      -29.2232016132       14.6836601088  MEMB      48              0.0000000000
      6032        48  POPE      H5R            -8.9956926419      -29.3037758115       14.6083877472  MEMB      48              0.0000000000
      6033        48  POPE      H5S            -7.4946101192      -30.0998271427       15.2472631313  MEMB      48              0.0000000000
      6034        48  POPE      C26            -7.3590271047      -29.3719016336       13.2243242119  MEMB      48              0.0000000000
      6035        48  POPE      H6R            -6.2755196845      -29.5919086317       13.0835678042  MEMB      48              0.0000000000
      6036        48  POPE      H6S            -7.5869563954      -28.4044839040       12.7354524630  MEMB      48              0.0000000000
      6037        48  POPE      C27            -7.9489416414      -30.5584005383       12.4527348803  MEMB      48              0.0000000000
      6038        48  POPE      H7R            -9.0318720388      -30.3625141879       12.2670707275  MEMB      48              0.0000000000
      6039        48  POPE      H7S            -7.7625937878      -31.4736517539       13.0710711710  MEMB      48              0.0000000000
      6040        48  POPE      C28            -7.2780488040      -30.7493333638       11.0760758742  MEMB      48              0.0000000000
      6041        48  POPE      H8R            -6.1819282286      -30.9148494196       11.1373065525  MEMB      48              0.0000000000
      6042        48  POPE      H8S            -7.4346997564      -29.7916370837       10.5349752812  MEMB      48              0.0000000000
      6043        48  POPE      C29            -7.8362462399      -31.9396032498       10.3444782560  MEMB      48              0.0000000000
      6044        48  POPE      H91            -8.2190295547      -32.7339151974       11.0050520360  MEMB      48              0.0000000000
      6045        48  POPE      C210           -7.8824008945      -32.1596070351        9.0149196662  MEMB      48              0.0000000000
      6046        48  POPE      H101           -8.3155248562      -33.1148409397        8.6921823248  MEMB      48              0.0000000000
      6047        48  POPE      C211           -7.4012478826      -31.2948889728        7.8730585743  MEMB      48              0.0000000000
      6048        48  POPE      H11R           -7.4496391424      -30.2224326113        8.1620717163  MEMB      48              0.0000000000
      6049        48  POPE      H11S           -8.1070006270      -31.4156599337        7.0141118263  MEMB      48              0.0000000000
      6050        48  POPE      C212           -5.9485014759      -31.5955929878        7.4190681119  MEMB      48              0.0000000000
      6051        48  POPE      H12R           -5.8641284248      -32.5725362454        6.8894549630  MEMB      48              0.0000000000
      6052        48  POPE      H12S           -5.2558820798      -31.5712994555        8.2867610938  MEMB      48              0.0000000000
      6053        48  POPE      C213           -5.4122627547      -30.5273191806        6.4706206703  MEMB      48              0.0000000000
      6054        48  POPE      H13R           -5.7782162136      -29.5629093239        6.8748543456  MEMB      48              0.0000000000
      6055        48  POPE      H13S           -5.8990492631      -30.7427222803        5.4997059705  MEMB      48              0.0000000000
      6056        48  POPE      C214           -3.8848636062      -30.5411696591        6.2513873407  MEMB      48              0.0000000000
      6057        48  POPE      H14R           -3.5464780440      -31.4956114832        5.7998225022  MEMB      48              0.0000000000
      6058        48  POPE      H14S           -3.3440683086      -30.4853895131        7.2109083055  MEMB      48              0.0000000000
      6059        48  POPE      C215           -3.3841648885      -29.4058881890        5.3532702886  MEMB      48              0.0000000000
      6060        48  POPE      H15R           -2.2679212631      -29.4572390933        5.3267030950  MEMB      48              0.0000000000
      6061        48  POPE      H15S           -3.6731412583      -28.4430456889        5.8272031858  MEMB      48              0.0000000000
      6062        48  POPE      C216           -3.8591131936      -29.6403794459        3.9144115097  MEMB      48              0.0000000000
      6063        48  POPE      H16R           -4.9493015195      -29.6859169332        3.8376396274  MEMB      48              0.0000000000
      6064        48  POPE      H16S           -3.3945719802      -30.6283570854        3.6754982316  MEMB      48              0.0000000000
      6065        48  POPE      C217           -3.5071762734      -28.5396552392        2.9494919819  MEMB      48              0.0000000000
      6066        48  POPE      H17R           -2.4474261003      -28.5495190170        3.2511767225  MEMB      48              0.0000000000
      6067        48  POPE      H17S           -3.9694648859      -27.5708774521        3.2231905205  MEMB      48              0.0000000000
      6068        48  POPE      C218           -3.8617466607      -28.7937987179        1.4749138962  MEMB      48              0.0000000000
      6069        48  POPE      H18R           -4.8877739006      -29.1340189074        1.4238213005  MEMB      48              0.0000000000
      6070        48  POPE      H18S           -3.2194742089      -29.6044451301        1.0753823141  MEMB      48              0.0000000000
      6071        48  POPE      H18T           -3.7713782416      -27.8968592741        0.7898509153  MEMB      48              0.0000000000
      6072        48  POPE      C33            -4.0170827530      -33.0293123527       14.3593260093  MEMB      48              0.0000000000
      6073        48  POPE      H3X            -4.7672890000      -33.7390466881       14.8561229800  MEMB      48              0.0000000000
      6074        48  POPE      H3Y            -3.0428906408      -33.6460377323       14.2640835136  MEMB      48              0.0000000000
      6075        48  POPE      C34            -4.5842326658      -32.5776117044       12.9765447905  MEMB      48              0.0000000000
      6076        48  POPE      H4X            -3.8290195919      -31.9596910523       12.4852459871  MEMB      48              0.0000000000
      6077        48  POPE      H4Y            -5.6102733884      -32.2807316906       12.9559190464  MEMB      48              0.0000000000
      6078        48  POPE      C35            -4.8260735932      -33.4685774050       11.8380437221  MEMB      48              0.0000000000
      6079        48  POPE      H5X            -5.5382473164      -34.2716856019       11.7024503262  MEMB      48              0.0000000000
      6080        48  POPE      H5Y            -3.9123617015      -33.8087826294       12.3702295239  MEMB      48              0.0000000000
      6081        48  POPE      C36            -4.6996473247      -33.3301759896       10.2815524915  MEMB      48              0.0000000000
      6082        48  POPE      H6X            -3.6767457107      -33.1523401468       10.2192500363  MEMB      48              0.0000000000
      6083        48  POPE      H6Y            -5.1254903011      -32.4278944362       10.0822057548  MEMB      48              0.0000000000
      6084        48  POPE      C37            -5.1911080646      -34.5464762002        9.2332503487  MEMB      48              0.0000000000
      6085        48  POPE      H7X            -4.9740216765      -34.2455696076        8.2334817463  MEMB      48              0.0000000000
      6086        48  POPE      H7Y            -6.2396579043      -34.7415146666        9.5042187081  MEMB      48              0.0000000000
      6087        48  POPE      C38            -4.5562011492      -36.0769030532        8.8801827279  MEMB      48              0.0000000000
      6088        48  POPE      H8X            -5.1189770480      -36.8723815225        8.5748550825  MEMB      48              0.0000000000
      6089        48  POPE      H8Y            -5.0453545722      -36.4025210167        9.9488837796  MEMB      48              0.0000000000
      6090        48  POPE      C39            -2.3819391550      -36.7630943413        8.6370068350  MEMB      48              0.0000000000
      6091        48  POPE      H9X            -2.5817265521      -37.5717210399        8.8211757798  MEMB      48              0.0000000000
      6092        48  POPE      H9Y            -1.7908601192      -37.0380866381        9.7681308819  MEMB      48              0.0000000000
      6093        48  POPE      C310           -2.4194401628      -35.9781108069        7.6312571852  MEMB      48              0.0000000000
      6094        48  POPE      H10X           -1.3748281023      -35.8826387180        7.4495383002  MEMB      48              0.0000000000
      6095        48  POPE      H10Y           -2.8951039525      -34.9566029588        7.5297523089  MEMB      48              0.0000000000
      6096        48  POPE      C311           -3.4187197227      -36.0272398442        6.8910615532  MEMB      48              0.0000000000
      6097        48  POPE      H11X           -4.3621226872      -36.5634354846        6.7807752052  MEMB      48              0.0000000000
      6098        48  POPE      H11Y           -2.7016701460      -36.9414259149        6.9079916308  MEMB      48              0.0000000000
      6099        48  POPE      C312           -2.8592022533      -35.2438642383        5.6651621976  MEMB      48              0.0000000000
      6100        48  POPE      H12X           -2.3747230165      -35.7361816364        4.7899968171  MEMB      48              0.0000000000
      6101        48  POPE      H12Y           -1.7971693129      -35.3579993123        5.8357689441  MEMB      48              0.0000000000
      6102        48  POPE      C313           -3.8492842803      -34.2491397062        5.3333915464  MEMB      48              0.0000000000
      6103        48  POPE      H13X           -3.4320110428      -33.5072539714        5.9826519107  MEMB      48              0.0000000000
      6104        48  POPE      H13Y           -4.7732783324      -34.6961643177        5.7192009099  MEMB      48              0.0000000000
      6105        48  POPE      C314           -4.1847099899      -33.7338364652        3.9787854892  MEMB      48              0.0000000000
      6106        48  POPE      H14X           -4.5435008859      -32.7276359284        3.9566250246  MEMB      48              0.0000000000
      6107        48  POPE      H14Y           -4.5849782857      -34.4091720415        3.2144920482  MEMB      48              0.0000000000
      6108        48  POPE      C315           -3.1864283419      -33.4686877960        3.2417531269  MEMB      48              0.0000000000
      6109        48  POPE      H15X           -2.6761112844      -34.6048580490        3.3927916605  MEMB      48              0.0000000000
      6110        48  POPE      H15Y           -2.5892929117      -32.6266832458        3.6782887128  MEMB      48              0.0000000000
      6111        48  POPE      C316           -3.3460799464      -32.7293064756        1.8478381008  MEMB      48              0.0000000000
      6112        48  POPE      H16X           -2.4494849554      -32.7669827671        1.2758559991  MEMB      48              0.0000000000
      6113        48  POPE      H16Y           -3.1140100682      -31.6345398244        1.9010356938  MEMB      48              0.0000000000
      6114        48  POPE      H16Z           -3.1959613893      -33.3471019579        0.9701608457  MEMB      48              0.0000000000
      6115        49  PMPE      N              10.1526933566       31.8568154049       20.8996169954  MEMB      49              0.0000000000
      6116        49  PMPE      HN1            10.2240755296       32.2559722456       21.8545970002  MEMB      49              0.0000000000
      6117        49  PMPE      HN2            10.0251544358       30.8208040870       20.9474461570  MEMB      49              0.0000000000
      6118        49  PMPE      HN3            11.0139977645       32.0160025294       20.3501114036  MEMB      49              0.0000000000
      6119        49  PMPE      C12             8.9490096364       32.4898953881       20.2650850722  MEMB      49              0.0000000000
      6120        49  PMPE      H12A            9.0687541223       33.5839192577       20.1903611753  MEMB      49              0.0000000000
      6121        49  PMPE      H12B            8.1287674752       32.3434767466       20.9348642757  MEMB      49              0.0000000000
      6122        49  PMPE      C11             8.6079373469       31.7708953104       18.9719892426  MEMB      49              0.0000000000
      6123        49  PMPE      H11A            9.5313596510       31.8259237340       18.3582132816  MEMB      49              0.0000000000
      6124        49  PMPE      H11B            7.7534092667       32.2818624207       18.4783208235  MEMB      49              0.0000000000
      6125        49  PMPE      P               8.8484149331       29.2358103631       18.3882380012  MEMB      49              0.0000000000
      6126        49  PMPE      O13             7.8584257602       28.2019129608       18.4291750572  MEMB      49              0.0000000000
      6127        49  PMPE      O14            10.1684923933       28.9975961732       19.0060571220  MEMB      49              0.0000000000
      6128        49  PMPE      O11             9.0344550317       29.8287275813       16.9571519762  MEMB      49              0.0000000000
      6129        49  PMPE      O12             8.2338157699       30.4270887495       19.2156973547  MEMB      49              0.0000000000
      6130        49  PMPE      C1             10.3129408039       29.7365191466       16.3264757841  MEMB      49              0.0000000000
      6131        49  PMPE      HA             10.3781290663       28.7709334779       15.7663156992  MEMB      49              0.0000000000
      6132        49  PMPE      HB             11.1498117565       29.7790820554       17.0588810441  MEMB      49              0.0000000000
      6133        49  PMPE      C2             10.4932534056       30.9394260360       15.3828576329  MEMB      49              0.0000000000
      6134        49  PMPE      HS             10.7430582006       31.8397954458       15.9839142517  MEMB      49              0.0000000000
      6135        49  PMPE      O21             9.2443159872       31.1343011136       14.7720565618  MEMB      49              0.0000000000
      6136        49  PMPE      C21             9.0651451931       31.9183213441       13.7442070972  MEMB      49              0.0000000000
      6137        49  PMPE      O22             9.8142882124       32.7066894590       13.2395948273  MEMB      49              0.0000000000
      6138        49  PMPE      C22             7.7991283704       31.5757551563       13.1962730931  MEMB      49              0.0000000000
      6139        49  PMPE      H2R             7.3137426464       31.1099320423       14.1407978651  MEMB      49              0.0000000000
      6140        49  PMPE      H2S             8.0012367808       30.9063291926       12.2712083879  MEMB      49              0.0000000000
      6141        49  PMPE      C3             11.6397208496       30.6925122633       14.3674331379  MEMB      49              0.0000000000
      6142        49  PMPE      HX             12.5462612050       30.7183509446       15.0079495320  MEMB      49              0.0000000000
      6143        49  PMPE      HY             11.7133766954       31.5619051796       13.6942023234  MEMB      49              0.0000000000
      6144        49  PMPE      O31            11.5310399657       29.4395325448       13.6481111584  MEMB      49              0.0000000000
      6145        49  PMPE      C31            12.3304157475       29.2920000577       12.5810743647  MEMB      49              0.0000000000
      6146        49  PMPE      O32            13.1192795787       30.1258645026       12.1787381228  MEMB      49              0.0000000000
      6147        49  PMPE      C32            12.2285791710       27.8436109976       12.0412879443  MEMB      49              0.0000000000
      6148        49  PMPE      H2X            13.0519203674       27.2819928475       12.5226333105  MEMB      49              0.0000000000
      6149        49  PMPE      H2Y            12.4205061944       27.7967974401       10.9458387623  MEMB      49              0.0000000000
      6150        49  PMPE      C23             6.7162471155       32.4826636881       12.7099215437  MEMB      49              0.0000000000
      6151        49  PMPE      H3R             6.7243150076       33.3900936795       13.3103359800  MEMB      49              0.0000000000
      6152        49  PMPE      H3S             5.6811064825       32.0272862628       12.7665233087  MEMB      49              0.0000000000
      6153        49  PMPE      C24             6.9280377530       32.8314836166       11.2757354628  MEMB      49              0.0000000000
      6154        49  PMPE      H4R             6.4362098550       33.7198642570       11.1776457210  MEMB      49              0.0000000000
      6155        49  PMPE      H4S             6.2923554043       32.3274245650       10.6718136316  MEMB      49              0.0000000000
      6156        49  PMPE      C25             8.2512126975       32.8025688918       10.5551730325  MEMB      49              0.0000000000
      6157        49  PMPE      H5R             8.5489187835       31.7381390046       10.4205657390  MEMB      49              0.0000000000
      6158        49  PMPE      H5S             8.9922376948       33.3421298510       11.1673275728  MEMB      49              0.0000000000
      6159        49  PMPE      C26             8.1332994786       33.4858359585        9.1918344256  MEMB      49              0.0000000000
      6160        49  PMPE      H6R             9.1678307482       33.8092903801        8.9350774177  MEMB      49              0.0000000000
      6161        49  PMPE      H6S             7.4992317305       34.3829270284        9.3334647850  MEMB      49              0.0000000000
      6162        49  PMPE      C27             7.4512931925       32.5446313504        8.1957989772  MEMB      49              0.0000000000
      6163        49  PMPE      H7R             6.4201831399       32.3559439850        8.5854696409  MEMB      49              0.0000000000
      6164        49  PMPE      H7S             7.9486871378       31.5582006917        8.1846850724  MEMB      49              0.0000000000
      6165        49  PMPE      C28             7.3673529544       33.0352495377        6.7800552780  MEMB      49              0.0000000000
      6166        49  PMPE      H8R             7.2982454670       32.1182941504        6.1672539024  MEMB      49              0.0000000000
      6167        49  PMPE      H8S             8.2192365572       33.6537445210        6.4377547611  MEMB      49              0.0000000000
      6168        49  PMPE      C29             6.1532176794       33.8026351769        6.8542516680  MEMB      49              0.0000000000
      6169        49  PMPE      H9R             6.1916497572       34.7616626115        6.9603390544  MEMB      49              0.0000000000
      6170        49  PMPE      C217            4.8495840349       33.2021848900        6.6851679697  MEMB      49              0.0000000000
      6171        49  PMPE      H17R            4.0508547585       33.7012277966        7.1478472037  MEMB      49              0.0000000000
      6172        49  PMPE      H17S            4.8558565848       32.1991540921        6.3673465892  MEMB      49              0.0000000000
      6173        49  PMPE      C210            5.6300298597       34.1191165836        5.7144224623  MEMB      49              0.0000000000
      6174        49  PMPE      H10R            4.8079798045       34.8335667872        5.6650234720  MEMB      49              0.0000000000
      6175        49  PMPE      C211            6.4017301084       33.4604870817        4.6798622066  MEMB      49              0.0000000000
      6176        49  PMPE      H11R            4.1171238583       33.7635005233        4.5936231827  MEMB      49              0.0000000000
      6177        49  PMPE      H11S            6.4244872950       32.3330972412        4.1720433366  MEMB      49              0.0000000000
      6178        49  PMPE      C212            7.5217238917       34.1893364623        3.5905860421  MEMB      49              0.0000000000
      6179        49  PMPE      H12R            7.8870204205       34.4779339584        4.4909496364  MEMB      49              0.0000000000
      6180        49  PMPE      H12S            7.2191141905       35.1130697191        2.9775539508  MEMB      49              0.0000000000
      6181        49  PMPE      C213            7.8959955155       33.3400752417        2.3633898368  MEMB      49              0.0000000000
      6182        49  PMPE      H13R            7.0966409575       32.9706152260        1.6551980984  MEMB      49              0.0000000000
      6183        49  PMPE      H13S            8.3404769215       32.4796702035        2.8323287227  MEMB      49              0.0000000000
      6184        49  PMPE      C214            8.8693872005       34.1639044179        1.6006968457  MEMB      49              0.0000000000
      6185        49  PMPE      H14R            9.4592023760       34.5830792454        2.4608908680  MEMB      49              0.0000000000
      6186        49  PMPE      H14S            8.3357219960       35.0122363711        1.1126983830  MEMB      49              0.0000000000
      6187        49  PMPE      C215            9.6162790287       33.2730644225        0.6046098314  MEMB      49              0.0000000000
      6188        49  PMPE      H15R            8.9590279221       32.7950580422       -0.1233306043  MEMB      49              0.0000000000
      6189        49  PMPE      H15S           10.1134435346       32.4528976620        1.1371584704  MEMB      49              0.0000000000
      6190        49  PMPE      C216           10.6613708000       33.9689414201       -0.1776953219  MEMB      49              0.0000000000
      6191        49  PMPE      H16R           10.1017476083       34.7413436776       -0.6955348286  MEMB      49              0.0000000000
      6192        49  PMPE      H16S           11.4842051303       34.3978516023        0.4654874580  MEMB      49              0.0000000000
      6193        49  PMPE      H16T           11.1687979049       33.5070969116       -1.0204303158  MEMB      49              0.0000000000
      6194        49  PMPE      C33            10.9116692861       27.1464110128       12.4633957647  MEMB      49              0.0000000000
      6195        49  PMPE      H3X            10.7824610319       27.1539914333       13.5696473740  MEMB      49              0.0000000000
      6196        49  PMPE      H3Y            10.9635264323       26.0551995360       12.2449934194  MEMB      49              0.0000000000
      6197        49  PMPE      C34             9.6688542202       27.8147240285       11.8775033084  MEMB      49              0.0000000000
      6198        49  PMPE      H4X             9.6611541855       28.9105132045       12.0644763815  MEMB      49              0.0000000000
      6199        49  PMPE      H4Y             8.7951408753       27.3882222632       12.3936871022  MEMB      49              0.0000000000
      6200        49  PMPE      C35             9.5030741686       27.5897354088       10.3885303975  MEMB      49              0.0000000000
      6201        49  PMPE      H5X             8.5868879599       27.0067487808       10.2709392475  MEMB      49              0.0000000000
      6202        49  PMPE      H5Y            10.2806437145       26.9144549911       10.0147720853  MEMB      49              0.0000000000
      6203        49  PMPE      C36             9.5250346908       28.8791844762        9.5650222294  MEMB      49              0.0000000000
      6204        49  PMPE      H6X            10.3712976039       29.5374715392        9.7628505668  MEMB      49              0.0000000000
      6205        49  PMPE      H6Y             8.7415112773       29.5525263638        9.9038721965  MEMB      49              0.0000000000
      6206        49  PMPE      C37             9.4881252166       28.6141293221        8.0717538140  MEMB      49              0.0000000000
      6207        49  PMPE      H7X             9.0997517271       29.5353972573        7.5670015232  MEMB      49              0.0000000000
      6208        49  PMPE      H7Y             8.8408543044       27.7257448201        7.8870405555  MEMB      49              0.0000000000
      6209        49  PMPE      C38            10.8423777446       28.2077169466        7.5603110439  MEMB      49              0.0000000000
      6210        49  PMPE      H8X            11.1831474366       27.3363425802        8.1414726558  MEMB      49              0.0000000000
      6211        49  PMPE      H8Y            11.5676047329       29.0050485803        7.7408318803  MEMB      49              0.0000000000
      6212        49  PMPE      C39            10.9280967875       27.8999436310        6.1092853207  MEMB      49              0.0000000000
      6213        49  PMPE      H9X            10.3249254789       26.9748009470        5.9389585211  MEMB      49              0.0000000000
      6214        49  PMPE      H9Y            11.9884273316       27.7255313297        5.8083025045  MEMB      49              0.0000000000
      6215        49  PMPE      C310           10.5665033331       29.0507077518        5.2454494031  MEMB      49              0.0000000000
      6216        49  PMPE      H10X           11.3716925235       29.3449282745        4.5278326430  MEMB      49              0.0000000000
      6217        49  PMPE      H10Y            9.9504306378       29.8169015656        5.6828408787  MEMB      49              0.0000000000
      6218        49  PMPE      C311            9.5942744526       28.6964036393        4.3525870476  MEMB      49              0.0000000000
      6219        49  PMPE      H11X            9.8873320310       27.5867080631        4.3253671722  MEMB      49              0.0000000000
      6220        49  PMPE      H11Y            9.8963484578       29.2940344701        3.3726548775  MEMB      49              0.0000000000
      6221        49  PMPE      C312            8.0006376602       28.8385466949        4.5761726472  MEMB      49              0.0000000000
      6222        49  PMPE      H12X            7.7287044213       29.8323069121        4.3833901903  MEMB      49              0.0000000000
      6223        49  PMPE      H12Y            7.9024578978       28.5997935300        5.6357191256  MEMB      49              0.0000000000
      6224        49  PMPE      C313            6.7273601495       28.2667623477        3.6454878985  MEMB      49              0.0000000000
      6225        49  PMPE      H13X            5.8068284063       28.3142801232        4.1305482104  MEMB      49              0.0000000000
      6226        49  PMPE      H13Y            6.4758649821       27.1909016046        3.8417513942  MEMB      49              0.0000000000
      6227        49  PMPE      C314            6.5985657069       28.3756827459        1.9900295658  MEMB      49              0.0000000000
      6228        49  PMPE      H14X            5.9948421682       27.5839987755        1.5801486844  MEMB      49              0.0000000000
      6229        49  PMPE      H14Y            7.3230442465       27.9102664139        1.1982353136  MEMB      49              0.0000000000
      6230        49  PMPE      C315            6.8490663407       29.5926998111        1.4689574669  MEMB      49              0.0000000000
      6231        49  PMPE      H15X            7.1110044317       29.4568769183        0.3950720306  MEMB      49              0.0000000000
      6232        49  PMPE      H15Y            7.6085718748       30.1762388955        2.0038602991  MEMB      49              0.0000000000
      6233        49  PMPE      C316            5.5420765449       29.9593250035        1.7317076151  MEMB      49              0.0000000000
      6234        49  PMPE      H16X            4.7950031787       29.4985061418        1.0263509563  MEMB      49              0.0000000000
      6235        49  PMPE      H16Y            5.7544573877       30.9791808408        1.3974437893  MEMB      49              0.0000000000
      6236        49  PMPE      H16Z            5.0948073998       30.0442165861        2.7258701377  MEMB      49              0.0000000000
      6237        50  POPE      N              19.7856212524       24.1106294369       20.5562436202  MEMB      50              0.0000000000
      6238        50  POPE      HN1            20.7278634710       23.8790668675       20.9528713108  MEMB      50              0.0000000000
      6239        50  POPE      HN2            19.8871428633       24.8677906555       19.8518896066  MEMB      50              0.0000000000
      6240        50  POPE      HN3            19.1060569063       24.3632406875       21.3022336511  MEMB      50              0.0000000000
      6241        50  POPE      C12            19.5344032041       22.9034231220       19.7337047158  MEMB      50              0.0000000000
      6242        50  POPE      H12A           18.5810290843       23.0061892700       19.1815133133  MEMB      50              0.0000000000
      6243        50  POPE      H12B           19.5099866037       22.0198751840       20.3984119928  MEMB      50              0.0000000000
      6244        50  POPE      C11            20.6757853533       22.8052123319       18.7238872393  MEMB      50              0.0000000000
      6245        50  POPE      H11A           20.7331295374       23.7632315415       18.1398770288  MEMB      50              0.0000000000
      6246        50  POPE      H11B           20.3388563319       21.9498206726       18.0813693542  MEMB      50              0.0000000000
      6247        50  POPE      P              23.2596554965       23.0814370095       18.6416153754  MEMB      50              0.0000000000
      6248        50  POPE      O13            24.4540630572       22.4017102617       19.1403871950  MEMB      50              0.0000000000
      6249        50  POPE      O14            23.2710854019       24.5582484489       18.7428070838  MEMB      50              0.0000000000
      6250        50  POPE      O11            23.0173813334       22.7192153465       17.1457971565  MEMB      50              0.0000000000
      6251        50  POPE      O12            21.9250714563       22.5471881891       19.3797505521  MEMB      50              0.0000000000
      6252        50  POPE      C1             24.0790255982       23.1545559698       16.2695183548  MEMB      50              0.0000000000
      6253        50  POPE      HA             24.3964878850       22.2929264770       15.6511498982  MEMB      50              0.0000000000
      6254        50  POPE      HB             25.0372566274       23.4970531664       16.7530537794  MEMB      50              0.0000000000
      6255        50  POPE      C2             23.6477323517       24.4313368072       15.5076847021  MEMB      50              0.0000000000
      6256        50  POPE      HS             23.8993638349       25.2690697013       16.2021733591  MEMB      50              0.0000000000
      6257        50  POPE      O21            22.2524286257       24.3496060652       15.1482948411  MEMB      50              0.0000000000
      6258        50  POPE      C21            21.4812162652       25.3762862391       15.3148041419  MEMB      50              0.0000000000
      6259        50  POPE      O22            21.7896007763       26.4642721674       15.7579858439  MEMB      50              0.0000000000
      6260        50  POPE      C22            20.0677976983       24.8830838254       14.9574461976  MEMB      50              0.0000000000
      6261        50  POPE      H2R            19.4730723768       25.6620230129       14.6074432945  MEMB      50              0.0000000000
      6262        50  POPE      H2S            19.5658483237       24.4014810452       15.8004841681  MEMB      50              0.0000000000
      6263        50  POPE      C3             24.5170828353       24.6420469011       14.2558272522  MEMB      50              0.0000000000
      6264        50  POPE      HX             25.5911111158       24.6279790918       14.5444899138  MEMB      50              0.0000000000
      6265        50  POPE      HY             24.3993818244       25.6424310739       13.8218277012  MEMB      50              0.0000000000
      6266        50  POPE      O31            24.1201115151       23.7464475313       13.2270282773  MEMB      50              0.0000000000
      6267        50  POPE      C31            24.9672038546       22.8748211425       12.7801958862  MEMB      50              0.0000000000
      6268        50  POPE      O32            26.0901497990       22.6662471364       13.2117220397  MEMB      50              0.0000000000
      6269        50  POPE      C32            24.3164253493       22.2516088042       11.5472291998  MEMB      50              0.0000000000
      6270        50  POPE      H2X            23.4270135162       22.8616573463       11.3440203313  MEMB      50              0.0000000000
      6271        50  POPE      H2Y            23.9943142491       21.2035993192       11.7386064656  MEMB      50              0.0000000000
      6272        50  POPE      C23            19.8305572988       24.0672947889       13.6747797099  MEMB      50              0.0000000000
      6273        50  POPE      H3R            18.7983425774       23.6721385206       13.7300304199  MEMB      50              0.0000000000
      6274        50  POPE      H3S            20.4949405074       23.2028760575       13.7310936154  MEMB      50              0.0000000000
      6275        50  POPE      C24            19.9548681108       24.9013339644       12.3840550590  MEMB      50              0.0000000000
      6276        50  POPE      H4R            21.0352760017       25.1621831984       12.3216736323  MEMB      50              0.0000000000
      6277        50  POPE      H4S            19.3319958048       25.8219256687       12.4544126135  MEMB      50              0.0000000000
      6278        50  POPE      C25            19.5974450515       24.2516489541       11.0345378352  MEMB      50              0.0000000000
      6279        50  POPE      H5R            19.6796217748       25.0782438670       10.2885215009  MEMB      50              0.0000000000
      6280        50  POPE      H5S            18.5689478664       23.8442504209       10.9843305556  MEMB      50              0.0000000000
      6281        50  POPE      C26            20.5803215850       23.1299499485       10.7049187862  MEMB      50              0.0000000000
      6282        50  POPE      H6R            20.3829886492       22.3065509664       11.4204254530  MEMB      50              0.0000000000
      6283        50  POPE      H6S            21.5847357969       23.4827789817       10.9877855386  MEMB      50              0.0000000000
      6284        50  POPE      C27            20.6475023782       22.7020983477        9.2249346415  MEMB      50              0.0000000000
      6285        50  POPE      H7R            21.0578377677       21.6676593264        9.1286110865  MEMB      50              0.0000000000
      6286        50  POPE      H7S            21.2433039162       23.4530432482        8.6461711169  MEMB      50              0.0000000000
      6287        50  POPE      C28            19.3128983688       22.6748893082        8.5176468852  MEMB      50              0.0000000000
      6288        50  POPE      H8R            19.0566179773       23.6987484717        8.2537523586  MEMB      50              0.0000000000
      6289        50  POPE      H8S            18.5554334248       22.3370220555        9.2595205136  MEMB      50              0.0000000000
      6290        50  POPE      C29            19.3981292400       21.8796949783        7.2544850107  MEMB      50              0.0000000000
      6291        50  POPE      H91            19.6087429397       20.8319733563        7.4558326077  MEMB      50              0.0000000000
      6292        50  POPE      C210           19.4820851392       22.2092839446        5.9757871355  MEMB      50              0.0000000000
      6293        50  POPE      H101           19.6800066060       21.3950854381        5.2669299207  MEMB      50              0.0000000000
      6294        50  POPE      C211           19.5328569027       23.5953064608        5.4368738996  MEMB      50              0.0000000000
      6295        50  POPE      H11R           18.8883669787       24.2871622189        6.0257764970  MEMB      50              0.0000000000
      6296        50  POPE      H11S           19.2108072521       23.6365272215        4.3805879787  MEMB      50              0.0000000000
      6297        50  POPE      C212           20.9830553367       24.1084279521        5.3642749329  MEMB      50              0.0000000000
      6298        50  POPE      H12R           21.3103842549       24.3982991295        6.3891168412  MEMB      50              0.0000000000
      6299        50  POPE      H12S           20.9188651797       25.0259736464        4.7454546781  MEMB      50              0.0000000000
      6300        50  POPE      C213           22.0437599649       23.1632720749        4.7417249697  MEMB      50              0.0000000000
      6301        50  POPE      H13R           22.0314453634       22.2030987969        5.3054154319  MEMB      50              0.0000000000
      6302        50  POPE      H13S           23.0409394914       23.6489974917        4.8735118702  MEMB      50              0.0000000000
      6303        50  POPE      C214           21.9390361157       22.8460494379        3.2335273449  MEMB      50              0.0000000000
      6304        50  POPE      H14R           21.9143421927       23.7726376163        2.6298427986  MEMB      50              0.0000000000
      6305        50  POPE      H14S           21.0156828427       22.2548133863        3.0379257304  MEMB      50              0.0000000000
      6306        50  POPE      C215           23.1858054944       22.1095944428        2.7218405418  MEMB      50              0.0000000000
      6307        50  POPE      H15R           23.1934271403       21.1671667142        3.3157787403  MEMB      50              0.0000000000
      6308        50  POPE      H15S           24.1117698529       22.6611880545        2.9694692819  MEMB      50              0.0000000000
      6309        50  POPE      C216           23.2320184347       21.8834519357        1.1932326664  MEMB      50              0.0000000000
      6310        50  POPE      H16R           23.0378219494       22.7465052662        0.5498704302  MEMB      50              0.0000000000
      6311        50  POPE      H16S           22.4472221029       21.1504679867        1.0036380672  MEMB      50              0.0000000000
      6312        50  POPE      C217           24.6033654563       21.5159235162        0.5777303554  MEMB      50              0.0000000000
      6313        50  POPE      H17R           25.1816983404       20.8514643522        1.0530454182  MEMB      50              0.0000000000
      6314        50  POPE      H17S           25.2080300846       22.2840459083        0.9172678201  MEMB      50              0.0000000000
      6315        50  POPE      C218           24.9886323475       21.1002112325       -0.8240294787  MEMB      50              0.0000000000
      6316        50  POPE      H18R           25.8396750061       20.4351699830       -0.9108654760  MEMB      50              0.0000000000
      6317        50  POPE      H18S           24.6177257151       21.7530588680       -1.6065655148  MEMB      50              0.0000000000
      6318        50  POPE      H18T           24.5588914414       20.2191251131       -1.1627386115  MEMB      50              0.0000000000
      6319        50  POPE      C33            25.2415756179       22.3113590208       10.3363466226  MEMB      50              0.0000000000
      6320        50  POPE      H3X            25.8284422536       21.4595928423       10.6334357567  MEMB      50              0.0000000000
      6321        50  POPE      H3Y            25.9617989481       23.1435673196       10.3142417328  MEMB      50              0.0000000000
      6322        50  POPE      C34            24.5089313720       22.2474834060        8.9964940021  MEMB      50              0.0000000000
      6323        50  POPE      H4X            23.7995477295       23.0699481765        8.8642594559  MEMB      50              0.0000000000
      6324        50  POPE      H4Y            23.9011545437       21.3179985252        8.9661151381  MEMB      50              0.0000000000
      6325        50  POPE      C35            25.3738698666       22.3915109238        7.7573364970  MEMB      50              0.0000000000
      6326        50  POPE      H5X            26.4133950289       22.0449137830        8.0958940706  MEMB      50              0.0000000000
      6327        50  POPE      H5Y            25.6900547442       23.3149023107        7.3488035232  MEMB      50              0.0000000000
      6328        50  POPE      C36            24.6741420275       21.7364024805        6.5021158604  MEMB      50              0.0000000000
      6329        50  POPE      H6X            25.4014851495       21.7256454847        5.6936438640  MEMB      50              0.0000000000
      6330        50  POPE      H6Y            23.5856929352       21.6814575854        6.4022666251  MEMB      50              0.0000000000
      6331        50  POPE      C37            24.6052717244       20.3618682481        6.2959487160  MEMB      50              0.0000000000
      6332        50  POPE      H7X            24.1337261873       20.0157576277        7.3808425210  MEMB      50              0.0000000000
      6333        50  POPE      H7Y            26.3975926685       19.9856664170        5.8869276632  MEMB      50              0.0000000000
      6334        50  POPE      C38            23.2917276793       19.2219513953        5.6477892319  MEMB      50              0.0000000000
      6335        50  POPE      H8X            23.4593930903       17.9272298475        5.3959495077  MEMB      50              0.0000000000
      6336        50  POPE      H8Y            23.4308964829       19.8020117376        4.7887708917  MEMB      50              0.0000000000
      6337        50  POPE      C39            22.4517008220       18.7479092292        6.6749633085  MEMB      50              0.0000000000
      6338        50  POPE      H9X            22.2440304858       19.6023590561        7.3054027841  MEMB      50              0.0000000000
      6339        50  POPE      H9Y            22.8886145236       17.8987924311        7.2813108494  MEMB      50              0.0000000000
      6340        50  POPE      C310           21.5649155755       18.1814093017        5.6847757110  MEMB      50              0.0000000000
      6341        50  POPE      H10X           20.7505478849       18.4172003690        6.2452130382  MEMB      50              0.0000000000
      6342        50  POPE      H10Y           21.5250393451       17.0730310617        5.7626601066  MEMB      50              0.0000000000
      6343        50  POPE      C311           21.6307205299       18.7660553774        4.1751930569  MEMB      50              0.0000000000
      6344        50  POPE      H11X           22.3087674778       18.1292693539        3.5712653139  MEMB      50              0.0000000000
      6345        50  POPE      H11Y           21.6737086522       19.8398602788        4.0630157045  MEMB      50              0.0000000000
      6346        50  POPE      C312           20.7094822597       18.6026734714        3.0996152348  MEMB      50              0.0000000000
      6347        50  POPE      H12X           20.0019453547       18.6711507693        3.6788265654  MEMB      50              0.0000000000
      6348        50  POPE      H12Y           20.5243278850       17.6737441078        3.3025820529  MEMB      50              0.0000000000
      6349        50  POPE      C313           19.8347028099       19.4560019282        2.2275392319  MEMB      50              0.0000000000
      6350        50  POPE      H13X           19.6601458018       20.3323113756        2.8484218991  MEMB      50              0.0000000000
      6351        50  POPE      H13Y           18.8453750316       19.0943920160        1.7626310475  MEMB      50              0.0000000000
      6352        50  POPE      C314           20.5278192860       19.2771407918        1.0752550702  MEMB      50              0.0000000000
      6353        50  POPE      H14X           20.4014823830       18.2855157599        0.5626246175  MEMB      50              0.0000000000
      6354        50  POPE      H14Y           21.5901975027       19.2940396559        1.4566400187  MEMB      50              0.0000000000
      6355        50  POPE      C315           19.9733221194       20.2845701954        0.1256315517  MEMB      50              0.0000000000
      6356        50  POPE      H15X           20.4182942437       21.3014180546        0.1882201611  MEMB      50              0.0000000000
      6357        50  POPE      H15Y           18.9280841455       20.3887250053        0.2693760074  MEMB      50              0.0000000000
      6358        50  POPE      C316           19.6279311392       19.7140196688       -1.2085478428  MEMB      50              0.0000000000
      6359        50  POPE      H16X           19.5544107590       18.7533217700       -1.6441289104  MEMB      50              0.0000000000
      6360        50  POPE      H16Y           20.5347653357       19.1165588809       -1.1632636880  MEMB      50              0.0000000000
      6361        50  POPE      H16Z           19.5955010642       20.4622724133       -2.0260937396  MEMB      50              0.0000000000
      6362        51  PMPE      N              24.3714541571       15.1696386432       18.9402709473  MEMB      51              0.0000000000
      6363        51  PMPE      HN1            23.9384887382       16.0724214936       18.6381255185  MEMB      51              0.0000000000
      6364        51  PMPE      HN2            24.0928166342       14.3485532100       18.3735136452  MEMB      51              0.0000000000
      6365        51  PMPE      HN3            24.1538102139       14.9434629397       19.9286428863  MEMB      51              0.0000000000
      6366        51  PMPE      C12            25.8575788721       15.3167714307       18.9295306452  MEMB      51              0.0000000000
      6367        51  PMPE      H12A           26.2154673418       14.7244255561       18.0679124231  MEMB      51              0.0000000000
      6368        51  PMPE      H12B           26.2197505202       14.9037477021       19.9027787918  MEMB      51              0.0000000000
      6369        51  PMPE      C11            26.2992885539       16.7606561988       18.7374410509  MEMB      51              0.0000000000
      6370        51  PMPE      H11A           25.9153280059       17.3256639781       19.6260115351  MEMB      51              0.0000000000
      6371        51  PMPE      H11B           25.9277600525       17.2235447801       17.7986715874  MEMB      51              0.0000000000
      6372        51  PMPE      P              28.5679883572       17.9871812730       19.1414964309  MEMB      51              0.0000000000
      6373        51  PMPE      O13            29.9251683799       17.5189896749       19.4637163828  MEMB      51              0.0000000000
      6374        51  PMPE      O14            27.7766754317       18.5938848582       20.2400260340  MEMB      51              0.0000000000
      6375        51  PMPE      O11            28.7010014037       18.9838098735       17.9321566442  MEMB      51              0.0000000000
      6376        51  PMPE      O12            27.7097138979       16.7462423613       18.6317493228  MEMB      51              0.0000000000
      6377        51  PMPE      C1             29.4903607812       18.7451966105       16.7602333818  MEMB      51              0.0000000000
      6378        51  PMPE      HA             29.8953839020       17.7025525128       16.6872237326  MEMB      51              0.0000000000
      6379        51  PMPE      HB             30.3357385417       19.4747913403       16.6583067595  MEMB      51              0.0000000000
      6380        51  PMPE      C2             28.5506511948       19.0986633791       15.6117507084  MEMB      51              0.0000000000
      6381        51  PMPE      HS             28.0310260648       20.0376232139       15.9413289439  MEMB      51              0.0000000000
      6382        51  PMPE      O21            27.6686420231       17.9801607377       15.3936215228  MEMB      51              0.0000000000
      6383        51  PMPE      C21            26.5358702129       18.3280786481       14.8210757160  MEMB      51              0.0000000000
      6384        51  PMPE      O22            26.0691186456       19.4509975792       14.7861610595  MEMB      51              0.0000000000
      6385        51  PMPE      C22            25.9086552865       17.1080788520       14.1486239793  MEMB      51              0.0000000000
      6386        51  PMPE      H2R            25.0591697408       17.4439973619       13.5120389556  MEMB      51              0.0000000000
      6387        51  PMPE      H2S            25.5125403746       16.4692001983       14.9613839636  MEMB      51              0.0000000000
      6388        51  PMPE      C3             29.2134357603       19.4779211016       14.2649779671  MEMB      51              0.0000000000
      6389        51  PMPE      HX             29.7784545830       20.4306356354       14.3762315761  MEMB      51              0.0000000000
      6390        51  PMPE      HY             28.3756228495       19.7269752161       13.5725896811  MEMB      51              0.0000000000
      6391        51  PMPE      O31            30.0184886288       18.3826045377       13.7747327215  MEMB      51              0.0000000000
      6392        51  PMPE      C31            31.0473806393       18.7369861428       12.9964329927  MEMB      51              0.0000000000
      6393        51  PMPE      O32            31.2541390788       19.8367389122       12.5493212673  MEMB      51              0.0000000000
      6394        51  PMPE      C32            31.9249138428       17.5754703339       12.6592802978  MEMB      51              0.0000000000
      6395        51  PMPE      H2X            31.2780449578       16.8194117277       12.7871127414  MEMB      51              0.0000000000
      6396        51  PMPE      H2Y            32.6896869870       17.4100808683       13.4143750834  MEMB      51              0.0000000000
      6397        51  PMPE      C23            26.9045440895       16.3023896402       13.2747895889  MEMB      51              0.0000000000
      6398        51  PMPE      H3R            27.8795026705       16.1924429110       13.7623672396  MEMB      51              0.0000000000
      6399        51  PMPE      H3S            27.0635905412       16.8142960213       12.2858617387  MEMB      51              0.0000000000
      6400        51  PMPE      C24            26.3528124682       14.9470167542       12.9730054091  MEMB      51              0.0000000000
      6401        51  PMPE      H4R            25.7322436299       14.5143750175       13.8012357903  MEMB      51              0.0000000000
      6402        51  PMPE      H4S            27.0044051440       14.1193315067       12.6720293774  MEMB      51              0.0000000000
      6403        51  PMPE      C25            25.5134040434       15.3237574515       11.8308324047  MEMB      51              0.0000000000
      6404        51  PMPE      H5R            24.9077170748       16.1547689162       11.9904041755  MEMB      51              0.0000000000
      6405        51  PMPE      H5S            24.8216348317       14.6206856908       12.2221335690  MEMB      51              0.0000000000
      6406        51  PMPE      C26            26.0714110989       15.3039098448       10.3848429580  MEMB      51              0.0000000000
      6407        51  PMPE      H6R            26.6141510094       14.3374422390       10.3082142037  MEMB      51              0.0000000000
      6408        51  PMPE      H6S            26.7450522800       16.1382263130       10.2416976330  MEMB      51              0.0000000000
      6409        51  PMPE      C27            25.0882918865       15.3650637856        9.1940987187  MEMB      51              0.0000000000
      6410        51  PMPE      H7R            24.4582171994       16.2359379917        9.2322736852  MEMB      51              0.0000000000
      6411        51  PMPE      H7S            24.2758454138       14.6924116533        9.2516744265  MEMB      51              0.0000000000
      6412        51  PMPE      C28            25.7379632407       15.1809486688        7.8522892586  MEMB      51              0.0000000000
      6413        51  PMPE      H8R            26.2303601198       14.1573931740        7.8081270123  MEMB      51              0.0000000000
      6414        51  PMPE      H8S            26.5032920792       15.9498961687        7.7568470031  MEMB      51              0.0000000000
      6415        51  PMPE      C29            24.7200536850       15.5472740368        6.7397319180  MEMB      51              0.0000000000
      6416        51  PMPE      H9R            23.8559137254       16.1697388227        6.9047317158  MEMB      51              0.0000000000
      6417        51  PMPE      C217           24.1845339042       14.3330649092        6.2229004861  MEMB      51              0.0000000000
      6418        51  PMPE      H17R           23.1725079724       14.2644920711        5.8488934995  MEMB      51              0.0000000000
      6419        51  PMPE      H17S           24.8545841168       13.4838780838        6.5043809029  MEMB      51              0.0000000000
      6420        51  PMPE      C210           24.8696052492       15.1442395006        5.2941887281  MEMB      51              0.0000000000
      6421        51  PMPE      H10R           24.5055465761       15.8186316334        4.5725453766  MEMB      51              0.0000000000
      6422        51  PMPE      C211           26.1405457333       14.9133756973        5.0797680244  MEMB      51              0.0000000000
      6423        51  PMPE      H11R           26.3897506956       14.3496077490        4.1857325615  MEMB      51              0.0000000000
      6424        51  PMPE      H11S           26.3776300465       14.1639903368        5.9106616332  MEMB      51              0.0000000000
      6425        51  PMPE      C212           27.1325853496       16.3168292920        4.9220704827  MEMB      51              0.0000000000
      6426        51  PMPE      H12R           27.2389591662       16.7731614180        5.9704505132  MEMB      51              0.0000000000
      6427        51  PMPE      H12S           26.8060232633       16.8147390920        4.1575999240  MEMB      51              0.0000000000
      6428        51  PMPE      C213           28.8912199152       16.2004658441        4.1310610086  MEMB      51              0.0000000000
      6429        51  PMPE      H13R           29.6946279528       15.2716026979        4.3478084347  MEMB      51              0.0000000000
      6430        51  PMPE      H13S           29.4475441659       16.8397148184        4.7385475468  MEMB      51              0.0000000000
      6431        51  PMPE      C214           28.9259912231       15.6201012041        2.7990729028  MEMB      51              0.0000000000
      6432        51  PMPE      H14R           28.1638364363       14.8576247889        2.8365885216  MEMB      51              0.0000000000
      6433        51  PMPE      H14S           29.8633702886       15.0756963288        2.5394905237  MEMB      51              0.0000000000
      6434        51  PMPE      C215           28.6649251941       16.7676808376        1.9846698174  MEMB      51              0.0000000000
      6435        51  PMPE      H15R           29.1856020369       17.5952544523        2.5382806480  MEMB      51              0.0000000000
      6436        51  PMPE      H15S           27.5582822246       16.8798642706        1.9702148186  MEMB      51              0.0000000000
      6437        51  PMPE      C216           29.2851756139       16.5354878865        0.6443132264  MEMB      51              0.0000000000
      6438        51  PMPE      H16R           30.3944722126       16.4855942461        0.7563667835  MEMB      51              0.0000000000
      6439        51  PMPE      H16S           28.9027792581       15.5692307463        0.2528483464  MEMB      51              0.0000000000
      6440        51  PMPE      H16T           29.0078024516       17.3348181149       -0.0624050809  MEMB      51              0.0000000000
      6441        51  PMPE      C33            32.3057825876       17.5595251884       11.1873584420  MEMB      51              0.0000000000
      6442        51  PMPE      H3X            33.0030592803       16.7268008785       10.9487141869  MEMB      51              0.0000000000
      6443        51  PMPE      H3Y            32.8045292969       18.5011021374       10.9379538143  MEMB      51              0.0000000000
      6444        51  PMPE      C34            31.0754101855       17.3933031548       10.3284010475  MEMB      51              0.0000000000
      6445        51  PMPE      H4X            30.1016782563       17.4747977475       10.8245101731  MEMB      51              0.0000000000
      6446        51  PMPE      H4Y            31.0884332677       16.3778008037       10.2797787285  MEMB      51              0.0000000000
      6447        51  PMPE      C35            31.1784111449       17.9477474451        8.9294031125  MEMB      51              0.0000000000
      6448        51  PMPE      H5X            32.0354375892       17.4679336858        8.3925479290  MEMB      51              0.0000000000
      6449        51  PMPE      H5Y            31.2957993466       19.0223547747        8.9345646999  MEMB      51              0.0000000000
      6450        51  PMPE      C36            29.9582200410       17.8728564019        8.0697834618  MEMB      51              0.0000000000
      6451        51  PMPE      H6X            30.1891858127       16.9256785964        7.8287054570  MEMB      51              0.0000000000
      6452        51  PMPE      H6Y            30.0246508449       18.2652752365        7.0582145819  MEMB      51              0.0000000000
      6453        51  PMPE      C37            28.5316680615       17.9185692338        8.5993490565  MEMB      51              0.0000000000
      6454        51  PMPE      H7X            28.2216579561       17.2382415383        9.3999589776  MEMB      51              0.0000000000
      6455        51  PMPE      H7Y            27.8665584464       17.6285721360        7.7588630547  MEMB      51              0.0000000000
      6456        51  PMPE      C38            28.2738218698       19.2658554726        9.1308113050  MEMB      51              0.0000000000
      6457        51  PMPE      H8X            28.6450849260       19.9571252513        8.3421803361  MEMB      51              0.0000000000
      6458        51  PMPE      H8Y            28.8150660269       19.4759038249       10.0643355705  MEMB      51              0.0000000000
      6459        51  PMPE      C39            26.8609836184       19.4561328191        9.5983228723  MEMB      51              0.0000000000
      6460        51  PMPE      H9X            26.8081807206       20.5375917594        9.6056318306  MEMB      51              0.0000000000
      6461        51  PMPE      H9Y            26.5045547045       18.9982348689       10.5027285117  MEMB      51              0.0000000000
      6462        51  PMPE      C310           25.8109149676       18.9344500935        8.7787902278  MEMB      51              0.0000000000
      6463        51  PMPE      H10X           24.8068379401       19.2624521652        9.1218026210  MEMB      51              0.0000000000
      6464        51  PMPE      H10Y           25.8201764757       17.9354863296        8.3370710354  MEMB      51              0.0000000000
      6465        51  PMPE      C311           26.2741733133       19.3946674686        7.6649035974  MEMB      51              0.0000000000
      6466        51  PMPE      H11X           26.9865020509       20.3816418395        7.3262654250  MEMB      51              0.0000000000
      6467        51  PMPE      H11Y           25.8963656124       20.3736835463        7.8901213849  MEMB      51              0.0000000000
      6468        51  PMPE      C312           25.5296373908       18.3217568606        5.9369263038  MEMB      51              0.0000000000
      6469        51  PMPE      H12X           24.7531319724       18.2805192289        6.7164935977  MEMB      51              0.0000000000
      6470        51  PMPE      H12Y           25.5910201635       17.5406023421        5.9536220227  MEMB      51              0.0000000000
      6471        51  PMPE      C313           25.5586819171       19.3512444511        4.2852972247  MEMB      51              0.0000000000
      6472        51  PMPE      H13X           26.6308932781       19.6088708871        4.2102037460  MEMB      51              0.0000000000
      6473        51  PMPE      H13Y           25.1685602765       20.4941293830        4.2502004460  MEMB      51              0.0000000000
      6474        51  PMPE      C314           24.9107701554       18.5557713757        3.3332713193  MEMB      51              0.0000000000
      6475        51  PMPE      H14X           24.0140653013       18.1205933060        3.6531831416  MEMB      51              0.0000000000
      6476        51  PMPE      H14Y           25.5008033779       17.6953067261        3.2811038425  MEMB      51              0.0000000000
      6477        51  PMPE      C315           24.6844682187       19.0879120564        2.0529283112  MEMB      51              0.0000000000
      6478        51  PMPE      H15X           25.7396909221       19.3346513313        1.7165792210  MEMB      51              0.0000000000
      6479        51  PMPE      H15Y           24.0461081614       19.9651692827        2.2181519027  MEMB      51              0.0000000000
      6480        51  PMPE      C316           24.0877974915       18.2603086357        0.9732653319  MEMB      51              0.0000000000
      6481        51  PMPE      H16X           24.6998242900       17.3740591236        0.8900141191  MEMB      51              0.0000000000
      6482        51  PMPE      H16Y           24.2686503621       18.7232349776        0.0200151414  MEMB      51              0.0000000000
      6483        51  PMPE      H16Z           23.0004633478       18.0966059416        1.0063439152  MEMB      51              0.0000000000
      6484        52  QMPE      N               4.8700725817      -33.6326113105       21.9760326889  MEMB      52              0.0000000000
      6485        52  QMPE      HN1             5.1952033485      -33.1709382981       22.8519285721  MEMB      52              0.0000000000
      6486        52  QMPE      HN2             4.0460985859      -33.0747175491       21.6431789197  MEMB      52              0.0000000000
      6487        52  QMPE      HN3             4.6446229179      -34.6125673707       22.2426520419  MEMB      52              0.0000000000
      6488        52  QMPE      C12             5.9845127888      -33.6855657484       20.9465421243  MEMB      52              0.0000000000
      6489        52  QMPE      H12A            5.9688504170      -34.6627706268       20.4241183725  MEMB      52              0.0000000000
      6490        52  QMPE      H12B            6.9105719088      -33.6246227088       21.5591645353  MEMB      52              0.0000000000
      6491        52  QMPE      C11             6.0750144701      -32.4777974889       19.9724135626  MEMB      52              0.0000000000
      6492        52  QMPE      H11A            7.0540957958      -32.6071819942       19.4366392381  MEMB      52              0.0000000000
      6493        52  QMPE      H11B            6.1019253910      -31.5787381599       20.6210808506  MEMB      52              0.0000000000
      6494        52  QMPE      P               5.1640714135      -31.2784147201       17.8095802180  MEMB      52              0.0000000000
      6495        52  QMPE      O13             6.6014720679      -31.0524555960       17.5868387090  MEMB      52              0.0000000000
      6496        52  QMPE      O14             4.3621353584      -30.0750042032       18.0895820120  MEMB      52              0.0000000000
      6497        52  QMPE      O11             4.5882089905      -32.1097841516       16.5899188536  MEMB      52              0.0000000000
      6498        52  QMPE      O12             4.9988050815      -32.3286013092       19.0395417223  MEMB      52              0.0000000000
      6499        52  QMPE      C1              5.4287050987      -33.0180325478       15.8724634612  MEMB      52              0.0000000000
      6500        52  QMPE      HA              4.9253804788      -33.9984111616       15.9126705622  MEMB      52              0.0000000000
      6501        52  QMPE      HB              6.4097669750      -33.2147966232       16.3679785528  MEMB      52              0.0000000000
      6502        52  QMPE      C2              5.6473478110      -32.6149622880       14.3685921844  MEMB      52              0.0000000000
      6503        52  QMPE      HS              6.6078601419      -33.0840200164       14.0321826320  MEMB      52              0.0000000000
      6504        52  QMPE      O21             5.7094272182      -31.1806636407       14.1451488944  MEMB      52              0.0000000000
      6505        52  QMPE      C21             6.8553201992      -30.5694674926       14.4929178567  MEMB      52              0.0000000000
      6506        52  QMPE      O22             7.8183143445      -31.1201266273       14.9864403452  MEMB      52              0.0000000000
      6507        52  QMPE      C22             6.9400785597      -29.1155368375       13.9682392896  MEMB      52              0.0000000000
      6508        52  QMPE      H2R             7.6247854752      -29.0816213979       13.0932172053  MEMB      52              0.0000000000
      6509        52  QMPE      H2S             7.3979771572      -28.5009805455       14.7745351593  MEMB      52              0.0000000000
      6510        52  QMPE      C3              4.4814183888      -33.1911787523       13.4797266283  MEMB      52              0.0000000000
      6511        52  QMPE      HX              3.5327524692      -32.7206570220       13.7639015290  MEMB      52              0.0000000000
      6512        52  QMPE      HY              4.2630714508      -34.2798599001       13.6920090581  MEMB      52              0.0000000000
      6513        52  QMPE      O31             4.6484597333      -32.8099646157       12.0755054050  MEMB      52              0.0000000000
      6514        52  QMPE      C31             5.3058585029      -33.7353359627       11.4747378504  MEMB      52              0.0000000000
      6515        52  QMPE      O32             5.5910982716      -34.7252885482       12.0846121655  MEMB      52              0.0000000000
      6516        52  QMPE      C32             5.6640086801      -33.4082071141        9.9939483375  MEMB      52              0.0000000000
      6517        52  QMPE      H2X             6.0100791383      -32.3608949082       10.0005609971  MEMB      52              0.0000000000
      6518        52  QMPE      H2Y             6.5320024942      -34.0114053907        9.6312001485  MEMB      52              0.0000000000
      6519        52  QMPE      C23             5.5971302649      -28.5577190540       13.4984055783  MEMB      52              0.0000000000
      6520        52  QMPE      H3R             4.8977034910      -28.5628863411       14.3594761618  MEMB      52              0.0000000000
      6521        52  QMPE      H3S             5.1912825079      -29.2256291611       12.7122272695  MEMB      52              0.0000000000
      6522        52  QMPE      C24             5.7424067870      -27.2111798458       12.8440798388  MEMB      52              0.0000000000
      6523        52  QMPE      H4R             6.2963499054      -27.3043230763       11.9095237244  MEMB      52              0.0000000000
      6524        52  QMPE      H4S             6.1442711065      -26.5054774889       13.6300979872  MEMB      52              0.0000000000
      6525        52  QMPE      C25             4.4958286218      -26.7095010208       12.2460593865  MEMB      52              0.0000000000
      6526        52  QMPE      H5R             4.4771358030      -25.8602399708       11.6042922578  MEMB      52              0.0000000000
      6527        52  QMPE      H5S             4.3193076510      -26.3601249102       13.1809951057  MEMB      52              0.0000000000
      6528        52  QMPE      C26             3.5423599621      -27.5561083745       11.5383758199  MEMB      52              0.0000000000
      6529        52  QMPE      H6R             2.6076136702      -26.9980584784       11.2759258333  MEMB      52              0.0000000000
      6530        52  QMPE      H6S             3.2696126272      -28.4306037030       12.1408417121  MEMB      52              0.0000000000
      6531        52  QMPE      C27             4.3148134945      -27.8379890122       10.2840542822  MEMB      52              0.0000000000
      6532        52  QMPE      H7R             5.1603666683      -28.5078892074       10.4258147587  MEMB      52              0.0000000000
      6533        52  QMPE      H7S             4.6548352207      -26.8683869818        9.8258807587  MEMB      52              0.0000000000
      6534        52  QMPE      C28             3.4893032823      -28.6518228186        9.3935600067  MEMB      52              0.0000000000
      6535        52  QMPE      H8R             3.1938444153      -27.8221477935        8.8252140565  MEMB      52              0.0000000000
      6536        52  QMPE      H8S             2.7256741274      -29.2717940401        9.9198974658  MEMB      52              0.0000000000
      6537        52  QMPE      C29             4.0181071378      -29.4797357220        8.3324728268  MEMB      52              0.0000000000
      6538        52  QMPE      H9R             4.4684586644      -30.3602339368        8.7788890583  MEMB      52              0.0000000000
      6539        52  QMPE      C217            4.6964021226      -28.7196643605        7.2268525552  MEMB      52              0.0000000000
      6540        52  QMPE      H17R            4.4804612150      -27.6559387042        7.1874444177  MEMB      52              0.0000000000
      6541        52  QMPE      H17S            5.5456580604      -29.1274436607        6.7414295440  MEMB      52              0.0000000000
      6542        52  QMPE      C210            3.4941551289      -29.6529768915        6.8901824688  MEMB      52              0.0000000000
      6543        52  QMPE      H10R            3.5334363476      -30.6920707941        6.6921763637  MEMB      52              0.0000000000
      6544        52  QMPE      C211            2.4890427862      -29.0588894360        5.9075944706  MEMB      52              0.0000000000
      6545        52  QMPE      H11R            1.3293350274      -29.1996007923        6.2245863223  MEMB      52              0.0000000000
      6546        52  QMPE      H11S            2.9011168245      -28.0104112234        5.8376505095  MEMB      52              0.0000000000
      6547        52  QMPE      C212            2.4420889412      -29.4384148403        4.5934611557  MEMB      52              0.0000000000
      6548        52  QMPE      H12R            1.4854560852      -29.2114771890        4.0923799003  MEMB      52              0.0000000000
      6549        52  QMPE      H12S            2.1708869849      -30.4293363577        4.7264970679  MEMB      52              0.0000000000
      6550        52  QMPE      C213            3.6551646183      -28.9615938423        3.8958017607  MEMB      52              0.0000000000
      6551        52  QMPE      H13R            4.4084290024      -29.6716011235        4.2820780538  MEMB      52              0.0000000000
      6552        52  QMPE      H13S            4.0153805444      -27.9117216454        4.1202207659  MEMB      52              0.0000000000
      6553        52  QMPE      C214            3.2322190112      -29.1627727802        2.4650995100  MEMB      52              0.0000000000
      6554        52  QMPE      H14R            2.2420047885      -28.7342201664        2.2569097329  MEMB      52              0.0000000000
      6555        52  QMPE      H14S            3.3254457880      -30.1886297762        2.1191023611  MEMB      52              0.0000000000
      6556        52  QMPE      C215            4.0820369546      -28.5582816519        1.5225568066  MEMB      52              0.0000000000
      6557        52  QMPE      H15R            3.8125605795      -27.4246587289        1.7631626360  MEMB      52              0.0000000000
      6558        52  QMPE      H15S            3.7293236011      -28.3865976644        0.5204843965  MEMB      52              0.0000000000
      6559        52  QMPE      C216            5.5927303124      -29.3353191857        1.7159568428  MEMB      52              0.0000000000
      6560        52  QMPE      H16R            5.9598947447      -29.2166349417        2.7544292364  MEMB      52              0.0000000000
      6561        52  QMPE      H16S            6.5356229762      -28.8153849142        1.1867843473  MEMB      52              0.0000000000
      6562        52  QMPE      H16T            6.1901947662      -29.7910904834        0.9753855154  MEMB      52              0.0000000000
      6563        52  QMPE      C33             4.3388045332      -33.5887053067        9.2016691933  MEMB      52              0.0000000000
      6564        52  QMPE      H3X             3.7162333342      -32.8038313201        9.6755813969  MEMB      52              0.0000000000
      6565        52  QMPE      H3Y             3.8141257931      -34.5527494359        9.4060893781  MEMB      52              0.0000000000
      6566        52  QMPE      C34             4.2863435023      -33.2995452440        7.6980852761  MEMB      52              0.0000000000
      6567        52  QMPE      H4X             4.7085871126      -32.3164282110        7.4369076434  MEMB      52              0.0000000000
      6568        52  QMPE      H4Y             3.2484356028      -33.3376928290        7.3072005607  MEMB      52              0.0000000000
      6569        52  QMPE      C35             4.8915239285      -34.3427797235        6.8607557265  MEMB      52              0.0000000000
      6570        52  QMPE      H5X             4.6870627605      -35.2825722495        7.2897952720  MEMB      52              0.0000000000
      6571        52  QMPE      H5Y             6.0048578210      -34.2318145012        7.0717656908  MEMB      52              0.0000000000
      6572        52  QMPE      C36             4.2746306913      -34.3278186187        5.3712412906  MEMB      52              0.0000000000
      6573        52  QMPE      H6X             3.4849318537      -34.9810380619        5.0646518210  MEMB      52              0.0000000000
      6574        52  QMPE      H6Y             4.6764224957      -35.2372756841        4.9592556824  MEMB      52              0.0000000000
      6575        52  QMPE      C37             4.6787373248      -32.9818584164        4.5198572209  MEMB      52              0.0000000000
      6576        52  QMPE      H7X             3.7033412709      -32.6518285523        4.6719416133  MEMB      52              0.0000000000
      6577        52  QMPE      H7Y             5.5142265224      -32.4763660990        5.1051323490  MEMB      52              0.0000000000
      6578        52  QMPE      C38             4.9882014801      -32.6985266814        2.9192811158  MEMB      52              0.0000000000
      6579        52  QMPE      H8X             5.2893338038      -31.7147494933        2.7348377986  MEMB      52              0.0000000000
      6580        52  QMPE      H8Y             5.9506357436      -32.8047872946        2.3707454997  MEMB      52              0.0000000000
      6581        52  QMPE      C39             4.5612361790      -33.8143052123        1.9722440508  MEMB      52              0.0000000000
      6582        52  QMPE      H9X             3.8004276220      -33.4107926360        2.1211131022  MEMB      52              0.0000000000
      6583        52  QMPE      H9Y             4.3454512789      -34.8525354056        2.2514064337  MEMB      52              0.0000000000
      6584        52  QMPE      C310            4.8609558600      -33.8406624492        0.6889878765  MEMB      52              0.0000000000
      6585        52  QMPE      H10X            4.1856888602      -34.2693579297        0.0998988776  MEMB      52              0.0000000000
      6586        52  QMPE      H10Y            5.7045983103      -34.3992636910        0.4937413484  MEMB      52              0.0000000000
      6587        52  QMPE      C311            4.7863113975      -32.6309844858        0.1676272271  MEMB      52              0.0000000000
      6588        52  QMPE      H11X            5.7467251774      -32.1357203476        0.5734863964  MEMB      52              0.0000000000
      6589        52  QMPE      H11Y            4.0062197572      -31.9176723467        0.3037769344  MEMB      52              0.0000000000
      6590        52  QMPE      C312            4.4555040581      -32.8818250609       -1.4112599339  MEMB      52              0.0000000000
      6591        52  QMPE      H12X            4.4571639020      -33.6656550693       -2.0859278164  MEMB      52              0.0000000000
      6592        52  QMPE      H12Y            5.3864240468      -33.3058961020       -1.4065742065  MEMB      52              0.0000000000
      6593        52  QMPE      C313            4.1064744206      -31.5941689347       -2.5317898799  MEMB      52              0.0000000000
      6594        52  QMPE      H13X            4.5481186890      -31.5758684872       -3.5269194351  MEMB      52              0.0000000000
      6595        52  QMPE      H13Y            3.2659544612      -31.0797051322       -2.1764507578  MEMB      52              0.0000000000
      6596        52  QMPE      C314            4.5599578482      -30.2995160543       -3.0397552791  MEMB      52              0.0000000000
      6597        52  QMPE      H14X            4.9966635089      -28.7853526321       -2.7048883043  MEMB      52              0.0000000000
      6598        52  QMPE      H14Y            4.1181180139      -29.1372427806       -3.0086029513  MEMB      52              0.0000000000
      6599        52  QMPE      C315            7.4422923166      -30.1630447999       -3.3567423962  MEMB      52              0.0000000000
      6600        52  QMPE      H15X            7.7945419576      -29.9373233516       -2.4882570559  MEMB      52              0.0000000000
      6601        52  QMPE      H15Y            7.6562881860      -30.7832262075       -3.1453587509  MEMB      52              0.0000000000
      6602        52  QMPE      H15Z            7.3004066749      -29.2788098869       -2.7882229781  MEMB      52              0.0000000000
      6603        53  POPE      N              -9.7196438523      -29.8165728547       20.1827598480  MEMB      53              0.0000000000
      6604        53  POPE      HN1            -9.4472312714      -30.1644783491       19.2459033872  MEMB      53              0.0000000000
      6605        53  POPE      HN2            -9.2745598340      -28.9015891309       20.3151368210  MEMB      53              0.0000000000
      6606        53  POPE      HN3            -9.4251564691      -30.4903513812       20.9238205359  MEMB      53              0.0000000000
      6607        53  POPE      C12           -11.2041826931      -29.5942346950       20.2064771140  MEMB      53              0.0000000000
      6608        53  POPE      H12A          -11.5402694822      -29.1439255787       19.2569613310  MEMB      53              0.0000000000
      6609        53  POPE      H12B          -11.3039677715      -28.7913361231       20.9073021344  MEMB      53              0.0000000000
      6610        53  POPE      C11           -12.0503623136      -30.8468824251       20.5129673748  MEMB      53              0.0000000000
      6611        53  POPE      H11A          -13.1193727575      -30.6185983693       20.3345693696  MEMB      53              0.0000000000
      6612        53  POPE      H11B          -12.0127347020      -31.1291098046       21.5906003109  MEMB      53              0.0000000000
      6613        53  POPE      P             -11.8796930170      -32.0649931062       18.1218328164  MEMB      53              0.0000000000
      6614        53  POPE      O13           -12.0580796678      -33.4661993378       17.7449373342  MEMB      53              0.0000000000
      6615        53  POPE      O14           -10.7239613382      -31.3198984952       17.5581194449  MEMB      53              0.0000000000
      6616        53  POPE      O11           -13.2274629981      -31.2684255683       17.9517248610  MEMB      53              0.0000000000
      6617        53  POPE      O12           -11.6761302020      -31.9602439847       19.7076384674  MEMB      53              0.0000000000
      6618        53  POPE      C1            -14.3106670176      -31.7357032496       17.1650810837  MEMB      53              0.0000000000
      6619        53  POPE      HA            -15.2369403584      -31.2786357865       17.5682763173  MEMB      53              0.0000000000
      6620        53  POPE      HB            -14.4670099705      -32.8530544864       17.1757218552  MEMB      53              0.0000000000
      6621        53  POPE      C2            -14.0983542937      -31.1795544689       15.7610152846  MEMB      53              0.0000000000
      6622        53  POPE      HS            -13.0581169917      -31.3941178532       15.4191852870  MEMB      53              0.0000000000
      6623        53  POPE      O21           -14.3863250591      -29.7696841927       15.7803697370  MEMB      53              0.0000000000
      6624        53  POPE      C21           -13.6298454091      -29.0423710960       14.9941566388  MEMB      53              0.0000000000
      6625        53  POPE      O22           -12.7798220886      -29.4205970263       14.2091894107  MEMB      53              0.0000000000
      6626        53  POPE      C22           -14.0841628818      -27.6237037192       15.1744272132  MEMB      53              0.0000000000
      6627        53  POPE      H2R           -13.7762771285      -27.2523482448       16.1737620564  MEMB      53              0.0000000000
      6628        53  POPE      H2S           -15.1908234356      -27.5576596326       15.0585172957  MEMB      53              0.0000000000
      6629        53  POPE      C3            -14.9941021643      -31.9346792840       14.8358368511  MEMB      53              0.0000000000
      6630        53  POPE      HX            -16.0585822694      -31.9367787440       15.1906507107  MEMB      53              0.0000000000
      6631        53  POPE      HY            -14.5676525502      -32.9865588867       14.8810314213  MEMB      53              0.0000000000
      6632        53  POPE      O31           -14.9496179862      -31.3290660347       13.5332031225  MEMB      53              0.0000000000
      6633        53  POPE      C31           -14.3382345662      -32.0470543116       12.5832019952  MEMB      53              0.0000000000
      6634        53  POPE      O32           -14.0289727796      -33.2217482223       12.6447941906  MEMB      53              0.0000000000
      6635        53  POPE      C32           -14.4733953803      -31.2450451970       11.2976286683  MEMB      53              0.0000000000
      6636        53  POPE      H2X           -14.2108163682      -31.8770577273       10.4137473053  MEMB      53              0.0000000000
      6637        53  POPE      H2Y           -13.9506927276      -30.3374187734       11.4807463703  MEMB      53              0.0000000000
      6638        53  POPE      C23           -13.3222800897      -26.8811565550       14.1206091706  MEMB      53              0.0000000000
      6639        53  POPE      H3R           -12.2348748390      -26.9929837737       14.0438619630  MEMB      53              0.0000000000
      6640        53  POPE      H3S           -13.3124071424      -25.8682773058       14.5908671183  MEMB      53              0.0000000000
      6641        53  POPE      C24           -13.9394190841      -27.1054621188       12.7003148877  MEMB      53              0.0000000000
      6642        53  POPE      H4R           -15.0456470075      -26.8530730623       12.8544076660  MEMB      53              0.0000000000
      6643        53  POPE      H4S           -14.0564103052      -28.1343475519       12.4315965812  MEMB      53              0.0000000000
      6644        53  POPE      C25           -13.1100097135      -26.3704884757       11.5070001421  MEMB      53              0.0000000000
      6645        53  POPE      H5R           -12.7360465424      -25.3138373829       11.7052163388  MEMB      53              0.0000000000
      6646        53  POPE      H5S           -13.6852473671      -26.2023596068       10.5503262919  MEMB      53              0.0000000000
      6647        53  POPE      C26           -11.8581843132      -26.9561245548       11.1815851206  MEMB      53              0.0000000000
      6648        53  POPE      H6R           -11.3721966846      -27.1197865873       12.1533245857  MEMB      53              0.0000000000
      6649        53  POPE      H6S           -11.2804038189      -26.2708376602       10.5235047904  MEMB      53              0.0000000000
      6650        53  POPE      C27           -12.1036338550      -28.2739960415       10.5540837580  MEMB      53              0.0000000000
      6651        53  POPE      H7R           -12.8758450189      -28.1419489934        9.7624000572  MEMB      53              0.0000000000
      6652        53  POPE      H7S           -12.5102622764      -28.9359718066       11.3496607996  MEMB      53              0.0000000000
      6653        53  POPE      C28           -10.7685962459      -28.8091517048       10.0794845069  MEMB      53              0.0000000000
      6654        53  POPE      H8R           -10.1291911833      -28.9399317018       10.9882933235  MEMB      53              0.0000000000
      6655        53  POPE      H8S           -10.2672639665      -28.0173401312        9.4744065756  MEMB      53              0.0000000000
      6656        53  POPE      C29           -11.0754306979      -30.0859673814        9.3286012477  MEMB      53              0.0000000000
      6657        53  POPE      H91           -11.3193998574      -30.9626611435        9.9393053849  MEMB      53              0.0000000000
      6658        53  POPE      C210          -11.0837818218      -30.2594412222        8.0038634626  MEMB      53              0.0000000000
      6659        53  POPE      H101          -11.3750231679      -31.2464101019        7.6006038527  MEMB      53              0.0000000000
      6660        53  POPE      C211          -10.7743849705      -29.1907722425        6.9963862721  MEMB      53              0.0000000000
      6661        53  POPE      H11R           -9.9804530111      -29.6012688471        6.3431004490  MEMB      53              0.0000000000
      6662        53  POPE      H11S          -10.3220358760      -28.3035008877        7.4803920530  MEMB      53              0.0000000000
      6663        53  POPE      C212          -11.9903959774      -28.8141822445        6.1535131497  MEMB      53              0.0000000000
      6664        53  POPE      H12R          -11.8079666919      -27.9755946766        5.4337479434  MEMB      53              0.0000000000
      6665        53  POPE      H12S          -12.8719285831      -28.5809229558        6.8165698432  MEMB      53              0.0000000000
      6666        53  POPE      C213          -12.3936841747      -30.0229368098        5.3370374865  MEMB      53              0.0000000000
      6667        53  POPE      H13R          -13.2952393793      -29.6355425562        5.0317562911  MEMB      53              0.0000000000
      6668        53  POPE      H13S          -12.7717504321      -30.8079646332        5.9938691161  MEMB      53              0.0000000000
      6669        53  POPE      C214          -11.4956001220      -30.3983430157        4.1292622095  MEMB      53              0.0000000000
      6670        53  POPE      H14R          -10.4803814729      -30.6477777846        4.4125704098  MEMB      53              0.0000000000
      6671        53  POPE      H14S          -11.5146977607      -29.4996137610        3.4797696697  MEMB      53              0.0000000000
      6672        53  POPE      C215          -11.8318811269      -31.6267832261        3.2586723510  MEMB      53              0.0000000000
      6673        53  POPE      H15R          -12.1271407428      -32.5064289398        3.8783694628  MEMB      53              0.0000000000
      6674        53  POPE      H15S          -11.2776108433      -31.9524060939        2.4041541127  MEMB      53              0.0000000000
      6675        53  POPE      C216          -12.7966701359      -31.3610386055        2.1962363808  MEMB      53              0.0000000000
      6676        53  POPE      H16R          -13.1405673745      -30.7826301737        3.0148988604  MEMB      53              0.0000000000
      6677        53  POPE      H16S          -13.5825199346      -32.0478631835        1.7542761604  MEMB      53              0.0000000000
      6678        53  POPE      C217          -12.7656557863      -30.6563454071        1.1270710027  MEMB      53              0.0000000000
      6679        53  POPE      H17R          -12.1903931094      -30.4809875728        0.4069832238  MEMB      53              0.0000000000
      6680        53  POPE      H17S          -12.5091417953      -29.6142707268        1.8441064923  MEMB      53              0.0000000000
      6681        53  POPE      C218          -14.1922655950      -31.0100592866        0.0640947407  MEMB      53              0.0000000000
      6682        53  POPE      H18R          -15.2710460935      -30.7346082951        0.2063370466  MEMB      53              0.0000000000
      6683        53  POPE      H18S          -14.8861759183      -31.4631509929       -0.4276170128  MEMB      53              0.0000000000
      6684        53  POPE      H18T          -14.5775585941      -30.1139939356       -0.3387791118  MEMB      53              0.0000000000
      6685        53  POPE      C33           -15.8357715441      -30.6029540578       11.0547756852  MEMB      53              0.0000000000
      6686        53  POPE      H3X           -16.4624169491      -30.1437729753       11.7870822194  MEMB      53              0.0000000000
      6687        53  POPE      H3Y           -16.2024488573      -31.4106941219       11.5092751171  MEMB      53              0.0000000000
      6688        53  POPE      C34           -16.1989949206      -30.3325483983        9.6217209794  MEMB      53              0.0000000000
      6689        53  POPE      H4X           -17.2609784101      -30.5234177555        9.2257906255  MEMB      53              0.0000000000
      6690        53  POPE      H4Y           -15.4128884037      -30.8642224380        9.0184818923  MEMB      53              0.0000000000
      6691        53  POPE      C35           -16.0174041895      -28.9210553852        9.4598947270  MEMB      53              0.0000000000
      6692        53  POPE      H5X           -15.0185912287      -28.7346573887        9.9002166005  MEMB      53              0.0000000000
      6693        53  POPE      H5Y           -16.7824614359      -28.4648793902       10.1209516902  MEMB      53              0.0000000000
      6694        53  POPE      C36           -16.1243159387      -28.4278234616        8.0437743842  MEMB      53              0.0000000000
      6695        53  POPE      H6X           -17.1441191339      -28.6258214571        7.6384871151  MEMB      53              0.0000000000
      6696        53  POPE      H6Y           -15.4089762168      -28.8251609695        7.3077704093  MEMB      53              0.0000000000
      6697        53  POPE      C37           -15.7770221815      -26.9899049085        8.1604553832  MEMB      53              0.0000000000
      6698        53  POPE      H7X           -14.9242687144      -26.7558908452        8.8068050265  MEMB      53              0.0000000000
      6699        53  POPE      H7Y           -16.7305864802      -26.5566818629        8.4032343582  MEMB      53              0.0000000000
      6700        53  POPE      C38           -15.4441045481      -26.2273472731        6.9966096721  MEMB      53              0.0000000000
      6701        53  POPE      H8X           -14.6749989421      -26.6556447776        6.3852837571  MEMB      53              0.0000000000
      6702        53  POPE      H8Y           -15.1942210918      -25.1677938130        7.1029312057  MEMB      53              0.0000000000
      6703        53  POPE      C39           -16.6107416896      -26.1357997486        6.2034163457  MEMB      53              0.0000000000
      6704        53  POPE      H9X           -17.4309168749      -26.2288899360        6.7625640685  MEMB      53              0.0000000000
      6705        53  POPE      H9Y           -17.0432379932      -27.2052922778        6.0993994508  MEMB      53              0.0000000000
      6706        53  POPE      C310          -16.6312141997      -24.4957930153        5.1479253107  MEMB      53              0.0000000000
      6707        53  POPE      H10X          -16.0071548788      -23.8556500773        5.2065454000  MEMB      53              0.0000000000
      6708        53  POPE      H10Y          -17.5022239232      -23.8722590508        4.9279234781  MEMB      53              0.0000000000
      6709        53  POPE      C311          -14.3175962845      -26.0314851575        3.6422081532  MEMB      53              0.0000000000
      6710        53  POPE      H11X          -14.0147954283      -26.2813988237        4.4962362894  MEMB      53              0.0000000000
      6711        53  POPE      H11Y          -14.6557635818      -25.0724667426        2.9404457484  MEMB      53              0.0000000000
      6712        53  POPE      C312          -15.7421202928      -27.5686979028        4.5386243966  MEMB      53              0.0000000000
      6713        53  POPE      H12X          -15.7672997664      -28.4170816342        4.3768414778  MEMB      53              0.0000000000
      6714        53  POPE      H12Y          -15.0963508228      -27.2307177352        3.6759821137  MEMB      53              0.0000000000
      6715        53  POPE      C313          -18.1803255256      -28.2208786293        3.8772532560  MEMB      53              0.0000000000
      6716        53  POPE      H13X          -18.4662111163      -27.5629537783        3.2953748263  MEMB      53              0.0000000000
      6717        53  POPE      H13Y          -18.6348934507      -27.9099449760        4.4267299861  MEMB      53              0.0000000000
      6718        53  POPE      C314          -19.1450043482      -28.5537385835        2.6101189286  MEMB      53              0.0000000000
      6719        53  POPE      H14X          -20.0418683276      -27.9999620411        3.2785949588  MEMB      53              0.0000000000
      6720        53  POPE      H14Y          -19.4205144233      -28.3062409625        1.6498542264  MEMB      53              0.0000000000
      6721        53  POPE      C315          -18.2972702596      -30.0137187211        2.6004477018  MEMB      53              0.0000000000
      6722        53  POPE      H15X          -17.5653459515      -30.1790460327        3.4740664679  MEMB      53              0.0000000000
      6723        53  POPE      H15Y          -17.9322859050      -30.6580115867        1.8385900586  MEMB      53              0.0000000000
      6724        53  POPE      C316          -18.7169278335      -30.5368396479        3.5558866809  MEMB      53              0.0000000000
      6725        53  POPE      H16X          -19.6082585914      -30.2001716114        3.1190039604  MEMB      53              0.0000000000
      6726        53  POPE      H16Y          -19.1290567845      -29.8665090572        4.0118854780  MEMB      53              0.0000000000
      6727        53  POPE      H16Z          -19.0476066639      -31.4669381404        3.9427682976  MEMB      53              0.0000000000
      6728        54  QMPE      N             -13.5498209743       30.0978924943       18.0421017704  MEMB      54              0.0000000000
      6729        54  QMPE      HN1           -12.6271602964       30.4558136764       17.6997287585  MEMB      54              0.0000000000
      6730        54  QMPE      HN2           -14.2067899963       29.8999447828       17.2476224264  MEMB      54              0.0000000000
      6731        54  QMPE      HN3           -13.9898214310       30.7381485709       18.7312613409  MEMB      54              0.0000000000
      6732        54  QMPE      C12           -13.3972823120       28.8462091489       18.8576119224  MEMB      54              0.0000000000
      6733        54  QMPE      H12A          -12.9365891710       29.2314231017       19.7764086814  MEMB      54              0.0000000000
      6734        54  QMPE      H12B          -12.6828225742       28.1433206394       18.4193094597  MEMB      54              0.0000000000
      6735        54  QMPE      C11           -14.7651734011       28.1861923584       19.0764401082  MEMB      54              0.0000000000
      6736        54  QMPE      H11A          -14.6748598135       27.2157658032       19.6039414664  MEMB      54              0.0000000000
      6737        54  QMPE      H11B          -15.2612421892       27.9332881860       18.1126926133  MEMB      54              0.0000000000
      6738        54  QMPE      P             -16.8210810210       29.8184251315       19.2673283528  MEMB      54              0.0000000000
      6739        54  QMPE      O13           -16.8455586988       31.1533750270       19.8685725133  MEMB      54              0.0000000000
      6740        54  QMPE      O14           -18.0139880699       28.9537482834       19.2803008879  MEMB      54              0.0000000000
      6741        54  QMPE      O11           -16.2706987431       29.9702338052       17.7771054366  MEMB      54              0.0000000000
      6742        54  QMPE      O12           -15.5679505678       29.0427979370       19.8660871207  MEMB      54              0.0000000000
      6743        54  QMPE      C1            -17.1434787715       30.2271858942       16.6866557376  MEMB      54              0.0000000000
      6744        54  QMPE      HA            -16.5604561714       30.7653440496       15.9045475369  MEMB      54              0.0000000000
      6745        54  QMPE      HB            -17.9938814849       30.8905459503       16.9699560555  MEMB      54              0.0000000000
      6746        54  QMPE      C2            -17.7229969171       28.9174517026       16.0916724956  MEMB      54              0.0000000000
      6747        54  QMPE      HS            -18.4864791012       28.5018128657       16.7921610517  MEMB      54              0.0000000000
      6748        54  QMPE      O21           -16.6449330912       27.9693542983       15.9042533346  MEMB      54              0.0000000000
      6749        54  QMPE      C21           -17.0303460372       26.7233099289       15.7032818460  MEMB      54              0.0000000000
      6750        54  QMPE      O22           -18.1642902821       26.3372580663       15.5308193295  MEMB      54              0.0000000000
      6751        54  QMPE      C22           -15.8409282720       25.7925917297       15.7012211448  MEMB      54              0.0000000000
      6752        54  QMPE      H2R           -16.1318490137       24.9067997681       16.3065713758  MEMB      54              0.0000000000
      6753        54  QMPE      H2S           -14.9521935986       26.3104906674       16.1084262487  MEMB      54              0.0000000000
      6754        54  QMPE      C3            -18.4657468600       29.2184624508       14.7696599862  MEMB      54              0.0000000000
      6755        54  QMPE      HX            -19.1929939086       30.0530012361       14.9299126530  MEMB      54              0.0000000000
      6756        54  QMPE      HY            -19.0247824078       28.3030939138       14.5109020981  MEMB      54              0.0000000000
      6757        54  QMPE      O31           -17.5503393687       29.5464726698       13.7242627267  MEMB      54              0.0000000000
      6758        54  QMPE      C31           -17.8871557382       29.0615852715       12.5296112173  MEMB      54              0.0000000000
      6759        54  QMPE      O32           -18.8408065643       28.3597205831       12.2586550887  MEMB      54              0.0000000000
      6760        54  QMPE      C32           -16.8284586343       29.4929746698       11.5593869474  MEMB      54              0.0000000000
      6761        54  QMPE      H2X           -16.0505283737       30.0513123909       12.1277776060  MEMB      54              0.0000000000
      6762        54  QMPE      H2Y           -16.3478441920       28.5666274884       11.1803135521  MEMB      54              0.0000000000
      6763        54  QMPE      C23           -15.6385565869       25.2969603607       14.2708980484  MEMB      54              0.0000000000
      6764        54  QMPE      H3R           -16.6147168590       24.8953284112       13.8943402679  MEMB      54              0.0000000000
      6765        54  QMPE      H3S           -14.8217466950       24.5367942295       14.2389223721  MEMB      54              0.0000000000
      6766        54  QMPE      C24           -15.1847270053       26.4185443947       13.3613564574  MEMB      54              0.0000000000
      6767        54  QMPE      H4R           -14.4511029751       27.0014720579       13.9448917450  MEMB      54              0.0000000000
      6768        54  QMPE      H4S           -16.0727558345       27.0206091780       13.0920020513  MEMB      54              0.0000000000
      6769        54  QMPE      C25           -14.5728353109       25.9629655640       12.0684151879  MEMB      54              0.0000000000
      6770        54  QMPE      H5R           -13.6954521131       25.3329273041       12.2335064568  MEMB      54              0.0000000000
      6771        54  QMPE      H5S           -14.3691344863       26.8178838204       11.3844401106  MEMB      54              0.0000000000
      6772        54  QMPE      C26           -15.3572667487       24.9886308556       11.3623819204  MEMB      54              0.0000000000
      6773        54  QMPE      H6R           -16.2188068540       25.6529324498       10.9870053486  MEMB      54              0.0000000000
      6774        54  QMPE      H6S           -15.7233771663       24.0775635334       11.9514003307  MEMB      54              0.0000000000
      6775        54  QMPE      C27           -14.5690089366       24.4551628853       10.1534483826  MEMB      54              0.0000000000
      6776        54  QMPE      H7R           -14.8343165129       23.3911869464        9.8076377297  MEMB      54              0.0000000000
      6777        54  QMPE      H7S           -13.6800860624       24.0353130335       10.3615162983  MEMB      54              0.0000000000
      6778        54  QMPE      C28           -14.4662138228       25.5620468004        9.0411668979  MEMB      54              0.0000000000
      6779        54  QMPE      H8R           -14.8009869499       26.5251082234        9.4066472363  MEMB      54              0.0000000000
      6780        54  QMPE      H8S           -15.1503122933       25.5838026660        8.2232952650  MEMB      54              0.0000000000
      6781        54  QMPE      C29           -13.5749559023       25.2766777507        7.8955873061  MEMB      54              0.0000000000
      6782        54  QMPE      H9R           -12.5921813954       25.2271802792        8.2297437222  MEMB      54              0.0000000000
      6783        54  QMPE      C217          -13.7829320262       26.0619363380        6.6031449703  MEMB      54              0.0000000000
      6784        54  QMPE      H17R          -14.7350803837       26.5509690370        6.5873163659  MEMB      54              0.0000000000
      6785        54  QMPE      H17S          -12.8173864942       26.4201019074        6.3342789898  MEMB      54              0.0000000000
      6786        54  QMPE      C210          -13.8450485783       24.6098231051        6.5553932614  MEMB      54              0.0000000000
      6787        54  QMPE      H10R          -12.9327622513       24.0903379813        6.1966647133  MEMB      54              0.0000000000
      6788        54  QMPE      C211          -15.1644382073       24.0024837054        6.3114649084  MEMB      54              0.0000000000
      6789        54  QMPE      H11R          -15.3723839781       23.2331652888        7.0385052082  MEMB      54              0.0000000000
      6790        54  QMPE      H11S          -15.8768834770       24.7155338842        6.2515266025  MEMB      54              0.0000000000
      6791        54  QMPE      C212          -15.3532493154       23.0871657913        5.2705700890  MEMB      54              0.0000000000
      6792        54  QMPE      H12R          -16.3450707900       22.5188407192        5.2530650534  MEMB      54              0.0000000000
      6793        54  QMPE      H12S          -14.5380899897       22.4294091277        5.4931889260  MEMB      54              0.0000000000
      6794        54  QMPE      C213          -14.7507403561       23.3816002294        3.9519475118  MEMB      54              0.0000000000
      6795        54  QMPE      H13R          -14.8155413038       22.5634357791        3.2881170440  MEMB      54              0.0000000000
      6796        54  QMPE      H13S          -13.6491767592       23.4626687917        3.9145468712  MEMB      54              0.0000000000
      6797        54  QMPE      C214          -15.7211693815       24.2145158277        3.2361377217  MEMB      54              0.0000000000
      6798        54  QMPE      H14R          -15.9392937374       25.0804334609        3.8686032480  MEMB      54              0.0000000000
      6799        54  QMPE      H14S          -16.6866276406       23.6687028192        3.0808461277  MEMB      54              0.0000000000
      6800        54  QMPE      C215          -15.1497678229       24.6362066723        1.9300350078  MEMB      54              0.0000000000
      6801        54  QMPE      H15R          -14.9268681913       23.7258121820        1.3271954969  MEMB      54              0.0000000000
      6802        54  QMPE      H15S          -14.2115616198       25.2053147854        2.0865192866  MEMB      54              0.0000000000
      6803        54  QMPE      C216          -16.1015424407       25.5313159665        1.1999655012  MEMB      54              0.0000000000
      6804        54  QMPE      H16R          -16.3489802183       26.4696604220        1.7413857174  MEMB      54              0.0000000000
      6805        54  QMPE      H16S          -17.0164391115       24.9618994324        0.9375284269  MEMB      54              0.0000000000
      6806        54  QMPE      H16T          -15.5825183587       25.8335690770        0.2871412420  MEMB      54              0.0000000000
      6807        54  QMPE      C33           -17.4180080715       30.4036594551       10.4535378782  MEMB      54              0.0000000000
      6808        54  QMPE      H3X           -16.5182947977       30.9734218103       10.1497959798  MEMB      54              0.0000000000
      6809        54  QMPE      H3Y           -18.1841768811       31.1491575308       10.7636047476  MEMB      54              0.0000000000
      6810        54  QMPE      C34           -17.9812087887       29.6428883089        9.2429425323  MEMB      54              0.0000000000
      6811        54  QMPE      H4X           -18.9314477714       29.1206153418        9.5254290183  MEMB      54              0.0000000000
      6812        54  QMPE      H4Y           -17.2284882261       28.8600858260        9.0323801261  MEMB      54              0.0000000000
      6813        54  QMPE      C35           -18.0794204256       30.4508657531        7.9203612596  MEMB      54              0.0000000000
      6814        54  QMPE      H5X           -17.2773699904       31.2312964753        7.8675925343  MEMB      54              0.0000000000
      6815        54  QMPE      H5Y           -19.0568560328       30.9858394679        7.8889423261  MEMB      54              0.0000000000
      6816        54  QMPE      C36           -17.9889440929       29.5375923133        6.6628669111  MEMB      54              0.0000000000
      6817        54  QMPE      H6X           -18.5991198712       28.6216501847        6.8423123551  MEMB      54              0.0000000000
      6818        54  QMPE      H6Y           -16.9513537916       29.1833719058        6.4794340016  MEMB      54              0.0000000000
      6819        54  QMPE      C37           -18.5770040127       30.1878878168        5.3866153872  MEMB      54              0.0000000000
      6820        54  QMPE      H7X           -18.7360592395       29.4052321063        4.5961611217  MEMB      54              0.0000000000
      6821        54  QMPE      H7Y           -19.5465264278       30.6296659339        5.7139693583  MEMB      54              0.0000000000
      6822        54  QMPE      C38           -17.7720233054       31.3235051548        4.7324958805  MEMB      54              0.0000000000
      6823        54  QMPE      H8X           -18.3218570537       31.7422002953        3.8507137457  MEMB      54              0.0000000000
      6824        54  QMPE      H8Y           -17.5790339272       32.1657960022        5.4275546172  MEMB      54              0.0000000000
      6825        54  QMPE      C39           -16.3687308838       30.8924778539        4.3758825641  MEMB      54              0.0000000000
      6826        54  QMPE      H9X           -16.3911904571       29.8797347516        3.9227747312  MEMB      54              0.0000000000
      6827        54  QMPE      H9Y           -15.7785323071       30.8611508432        5.3005150093  MEMB      54              0.0000000000
      6828        54  QMPE      C310          -15.6866006397       31.9121010601        3.5481704491  MEMB      54              0.0000000000
      6829        54  QMPE      H10X          -15.5261649270       32.9093110467        3.8537599940  MEMB      54              0.0000000000
      6830        54  QMPE      H10Y          -16.5833514260       32.3427054549        2.9800794514  MEMB      54              0.0000000000
      6831        54  QMPE      C311          -14.3546765285       31.2977694796        2.9035086905  MEMB      54              0.0000000000
      6832        54  QMPE      H11X          -13.5845747706       31.1852090405        3.6319266672  MEMB      54              0.0000000000
      6833        54  QMPE      H11Y          -13.9725656381       32.1483301561        2.2354321899  MEMB      54              0.0000000000
      6834        54  QMPE      C312          -14.3800673773       29.8196043037        2.1601630727  MEMB      54              0.0000000000
      6835        54  QMPE      H12X          -14.8830072495       29.5241585311        1.1556508836  MEMB      54              0.0000000000
      6836        54  QMPE      H12Y          -14.9388028340       29.1425388002        2.7576765033  MEMB      54              0.0000000000
      6837        54  QMPE      C313          -13.1693120799       29.5138086531        1.3986248637  MEMB      54              0.0000000000
      6838        54  QMPE      H13X          -12.9264393098       30.0627046988        0.4410688807  MEMB      54              0.0000000000
      6839        54  QMPE      H13Y          -12.4579774579       29.7230333250        2.1855394566  MEMB      54              0.0000000000
      6840        54  QMPE      C314          -13.3988373936       28.1242132734        1.0785657405  MEMB      54              0.0000000000
      6841        54  QMPE      H14X          -14.0305673470       27.9026679994        0.2230748897  MEMB      54              0.0000000000
      6842        54  QMPE      H14Y          -13.6253405281       27.5042753714        1.9736195213  MEMB      54              0.0000000000
      6843        54  QMPE      C315          -12.3350112062       27.6778780824        0.5114974720  MEMB      54              0.0000000000
      6844        54  QMPE      H15X          -12.4112061054       26.5379047005        0.7510047564  MEMB      54              0.0000000000
      6845        54  QMPE      H15Y          -11.7094600026       28.0850157633       -0.2521062102  MEMB      54              0.0000000000
      6846        54  QMPE      H15Z          -11.4948748137       28.1554914135        1.0844434133  MEMB      54              0.0000000000
      6847        55  POPE      N             -28.0554006777      -14.4494366972       18.6210845277  MEMB      55              0.0000000000
      6848        55  POPE      HN1           -27.3827148762      -14.8694913698       19.2871893757  MEMB      55              0.0000000000
      6849        55  POPE      HN2           -27.6406787422      -14.5830259366       17.6827820062  MEMB      55              0.0000000000
      6850        55  POPE      HN3           -28.2192278428      -13.4498243158       18.8767615353  MEMB      55              0.0000000000
      6851        55  POPE      C12           -29.3517625989      -15.1831296359       18.6546854455  MEMB      55              0.0000000000
      6852        55  POPE      H12A          -30.0506465681      -14.6171835546       17.9848953754  MEMB      55              0.0000000000
      6853        55  POPE      H12B          -29.6635802495      -15.1479151932       19.7214223093  MEMB      55              0.0000000000
      6854        55  POPE      C11           -29.1777267420      -16.6432915419       18.1721461915  MEMB      55              0.0000000000
      6855        55  POPE      H11A          -28.8083858330      -16.6255651963       17.1165838951  MEMB      55              0.0000000000
      6856        55  POPE      H11B          -30.2087552691      -17.0660881283       18.2168527058  MEMB      55              0.0000000000
      6857        55  POPE      P             -28.5613435151      -18.9445279242       19.3948165806  MEMB      55              0.0000000000
      6858        55  POPE      O13           -29.7506379733      -18.9846875470       20.2577639546  MEMB      55              0.0000000000
      6859        55  POPE      O14           -27.3298539154      -19.5410241153       19.9388855595  MEMB      55              0.0000000000
      6860        55  POPE      O11           -28.9006592201      -19.6677697891       18.0327896504  MEMB      55              0.0000000000
      6861        55  POPE      O12           -28.2800456186      -17.4050741177       18.9902075849  MEMB      55              0.0000000000
      6862        55  POPE      C1            -27.9084247755      -20.4217671163       17.3373479757  MEMB      55              0.0000000000
      6863        55  POPE      HA            -27.5640739652      -21.3399913624       17.8744709231  MEMB      55              0.0000000000
      6864        55  POPE      HB            -27.0060661838      -19.8076917286       17.1696243459  MEMB      55              0.0000000000
      6865        55  POPE      C2            -28.3937529683      -20.7619613572       15.9252508379  MEMB      55              0.0000000000
      6866        55  POPE      HS            -27.4816094033      -21.0987071156       15.3882187467  MEMB      55              0.0000000000
      6867        55  POPE      O21           -29.0039127186      -19.5778326053       15.3542340764  MEMB      55              0.0000000000
      6868        55  POPE      C21           -28.7133498380      -19.3677960041       14.0838987587  MEMB      55              0.0000000000
      6869        55  POPE      O22           -28.0796757464      -20.1152399909       13.3633010510  MEMB      55              0.0000000000
      6870        55  POPE      C22           -29.2771368541      -18.0138078775       13.6647977136  MEMB      55              0.0000000000
      6871        55  POPE      H2R           -28.4354510239      -17.2984984544       13.5278320826  MEMB      55              0.0000000000
      6872        55  POPE      H2S           -29.9726476243      -17.6938410504       14.4701938420  MEMB      55              0.0000000000
      6873        55  POPE      C3            -29.3922124138      -21.9295425565       15.9913796170  MEMB      55              0.0000000000
      6874        55  POPE      HX            -30.1809187053      -21.5658480425       16.6860734901  MEMB      55              0.0000000000
      6875        55  POPE      HY            -28.9229504508      -22.8220923312       16.4622955938  MEMB      55              0.0000000000
      6876        55  POPE      O31           -29.9590766427      -22.2158271267       14.7012141503  MEMB      55              0.0000000000
      6877        55  POPE      C31           -29.2516963414      -23.0285001290       13.9276511310  MEMB      55              0.0000000000
      6878        55  POPE      O32           -28.2228756586      -23.5973358123       14.2502752420  MEMB      55              0.0000000000
      6879        55  POPE      C32           -29.9625773755      -23.1512624162       12.5564284485  MEMB      55              0.0000000000
      6880        55  POPE      H2X           -31.0666606541      -23.0804835997       12.6318927319  MEMB      55              0.0000000000
      6881        55  POPE      H2Y           -29.7037578807      -24.1361144546       12.1339917676  MEMB      55              0.0000000000
      6882        55  POPE      C23           -30.0117714826      -18.0756879519       12.3094605077  MEMB      55              0.0000000000
      6883        55  POPE      H3R           -29.3246268476      -18.5560700602       11.5822134978  MEMB      55              0.0000000000
      6884        55  POPE      H3S           -30.2149226607      -17.0147606149       12.0140723850  MEMB      55              0.0000000000
      6885        55  POPE      C24           -31.3342209738      -18.8460075453       12.4329688048  MEMB      55              0.0000000000
      6886        55  POPE      H4R           -31.9028486575      -18.2310796356       13.1723626587  MEMB      55              0.0000000000
      6887        55  POPE      H4S           -31.1544839361      -19.8431162591       12.8643447121  MEMB      55              0.0000000000
      6888        55  POPE      C25           -32.0841950950      -19.1854613510       11.1428126680  MEMB      55              0.0000000000
      6889        55  POPE      H5R           -32.6779739730      -20.0913437868       11.2321674098  MEMB      55              0.0000000000
      6890        55  POPE      H5S           -31.4104857895      -19.2398202196       10.2588066907  MEMB      55              0.0000000000
      6891        55  POPE      C26           -33.2709885513      -18.3709502280       10.9643579412  MEMB      55              0.0000000000
      6892        55  POPE      H6R           -32.6143804189      -17.6991022149       10.6587428856  MEMB      55              0.0000000000
      6893        55  POPE      H6S           -33.7555657378      -17.8043964035       11.7412255790  MEMB      55              0.0000000000
      6894        55  POPE      C27           -34.1053634256      -18.5695387074        9.8803289140  MEMB      55              0.0000000000
      6895        55  POPE      H7R           -35.0942079680      -18.0070328221       10.1392671733  MEMB      55              0.0000000000
      6896        55  POPE      H7S           -34.2056283990      -19.6030675941       10.1535267814  MEMB      55              0.0000000000
      6897        55  POPE      C28           -33.4090578963      -18.7799690149        8.4885458929  MEMB      55              0.0000000000
      6898        55  POPE      H8R           -34.2732358324      -19.1945057090        8.0368175797  MEMB      55              0.0000000000
      6899        55  POPE      H8S           -32.9924068806      -19.7145202802        8.3987729235  MEMB      55              0.0000000000
      6900        55  POPE      C29           -32.4420759311      -17.8503155964        7.6678750130  MEMB      55              0.0000000000
      6901        55  POPE      H91           -32.7918055328      -16.8249104071        7.4865748086  MEMB      55              0.0000000000
      6902        55  POPE      C210          -31.8150146247      -17.7184717019        6.6212288883  MEMB      55              0.0000000000
      6903        55  POPE      H101          -31.6830389725      -16.7276372398        6.1849314846  MEMB      55              0.0000000000
      6904        55  POPE      C211          -31.9606514251      -18.7499627300        5.7914423934  MEMB      55              0.0000000000
      6905        55  POPE      H11R          -32.2729200411      -19.6602923039        6.2916163989  MEMB      55              0.0000000000
      6906        55  POPE      H11S          -30.8876505113      -18.6370921469        5.6946020297  MEMB      55              0.0000000000
      6907        55  POPE      C212          -32.6189259050      -18.5256780067        4.5833627919  MEMB      55              0.0000000000
      6908        55  POPE      H12R          -32.4828679510      -17.5407071421        4.0770484253  MEMB      55              0.0000000000
      6909        55  POPE      H12S          -33.7098767265      -18.7111299836        4.4371634989  MEMB      55              0.0000000000
      6910        55  POPE      C213          -31.8105270184      -19.1436374902        3.9335581148  MEMB      55              0.0000000000
      6911        55  POPE      H13R          -32.2171831259      -20.3024273481        4.2768607750  MEMB      55              0.0000000000
      6912        55  POPE      H13S          -30.8062320088      -19.5284996899        3.6858944523  MEMB      55              0.0000000000
      6913        55  POPE      C214          -32.2615981534      -18.2313346200        2.3005886977  MEMB      55              0.0000000000
      6914        55  POPE      H14R          -31.9627759170      -18.0698015414        1.4958049479  MEMB      55              0.0000000000
      6915        55  POPE      H14S          -33.4613688501      -18.6629635413        2.6607447328  MEMB      55              0.0000000000
      6916        55  POPE      C215          -31.3363994480      -19.9389591891        0.2611037495  MEMB      55              0.0000000000
      6917        55  POPE      H15R          -30.5179121953      -20.4282451421        0.7165729554  MEMB      55              0.0000000000
      6918        55  POPE      H15S          -32.1643769721      -20.3115127901       -0.2472639045  MEMB      55              0.0000000000
      6919        55  POPE      C216          -31.4760822030      -22.0367149974        0.7104525816  MEMB      55              0.0000000000
      6920        55  POPE      H16R          -31.5198255755      -22.4452429722        1.9354502344  MEMB      55              0.0000000000
      6921        55  POPE      H16S          -31.3741075894      -22.9607861747        0.2997734590  MEMB      55              0.0000000000
      6922        55  POPE      C217          -32.8389177243      -22.2276556300        0.7027135463  MEMB      55              0.0000000000
      6923        55  POPE      H17R          -33.2504568504      -21.6656767824       -0.1657536072  MEMB      55              0.0000000000
      6924        55  POPE      H17S          -33.9349502969      -21.3774417335        1.5833151761  MEMB      55              0.0000000000
      6925        55  POPE      C218          -33.2687329902      -23.8256910677        1.1532628912  MEMB      55              0.0000000000
      6926        55  POPE      H18R          -33.9989013958      -24.2912578146        0.9202269282  MEMB      55              0.0000000000
      6927        55  POPE      H18S          -34.3871813887      -24.0702258639        1.2924980535  MEMB      55              0.0000000000
      6928        55  POPE      H18T          -32.8996949627      -24.3645075556        1.5649804755  MEMB      55              0.0000000000
      6929        55  POPE      C33           -29.6008939335      -22.0417923448       11.5441080330  MEMB      55              0.0000000000
      6930        55  POPE      H3X           -28.5133204850      -22.0085111334       11.3263550314  MEMB      55              0.0000000000
      6931        55  POPE      H3Y           -29.9377191422      -21.0764939587       11.9816495974  MEMB      55              0.0000000000
      6932        55  POPE      C34           -30.2908424235      -22.1624839717       10.1801052603  MEMB      55              0.0000000000
      6933        55  POPE      H4X           -30.2684691331      -21.1343839320        9.7495657706  MEMB      55              0.0000000000
      6934        55  POPE      H4Y           -31.3556168664      -22.4235354074       10.2913527735  MEMB      55              0.0000000000
      6935        55  POPE      C35           -29.5665943362      -23.0739248495        9.1831175667  MEMB      55              0.0000000000
      6936        55  POPE      H5X           -29.4139316259      -24.1186684510        9.5424506720  MEMB      55              0.0000000000
      6937        55  POPE      H5Y           -28.5658056725      -22.6375121746        9.0981541614  MEMB      55              0.0000000000
      6938        55  POPE      C36           -30.1283757493      -22.9764831092        7.7540474606  MEMB      55              0.0000000000
      6939        55  POPE      H6X           -31.2036085245      -23.2603980478        7.7210124896  MEMB      55              0.0000000000
      6940        55  POPE      H6Y           -29.5464113662      -23.7058181459        7.1573313003  MEMB      55              0.0000000000
      6941        55  POPE      C37           -29.9499215683      -21.5589551721        7.1509844408  MEMB      55              0.0000000000
      6942        55  POPE      H7X           -28.9361223796      -21.1782142875        7.3993556483  MEMB      55              0.0000000000
      6943        55  POPE      H7Y           -30.6514503065      -20.8921587225        7.6801312657  MEMB      55              0.0000000000
      6944        55  POPE      C38           -30.1709594105      -21.3925200995        5.6412600548  MEMB      55              0.0000000000
      6945        55  POPE      H8X           -29.7370467021      -20.4247077504        5.2740843412  MEMB      55              0.0000000000
      6946        55  POPE      H8Y           -31.2351413135      -21.4124117572        5.3995665584  MEMB      55              0.0000000000
      6947        55  POPE      C39           -29.5462258590      -22.4770187188        4.8388617557  MEMB      55              0.0000000000
      6948        55  POPE      H9X           -29.9519567683      -22.4925185976        3.8057191370  MEMB      55              0.0000000000
      6949        55  POPE      H9Y           -29.7733118133      -23.4896884054        5.2585774872  MEMB      55              0.0000000000
      6950        55  POPE      C310          -28.0681735668      -22.1232102853        4.9056624665  MEMB      55              0.0000000000
      6951        55  POPE      H10X          -27.7953217973      -22.4611101804        5.9233606675  MEMB      55              0.0000000000
      6952        55  POPE      H10Y          -27.7814579866      -21.1259568459        4.6215115549  MEMB      55              0.0000000000
      6953        55  POPE      C311          -27.1888895926      -22.7285441535        3.9768961905  MEMB      55              0.0000000000
      6954        55  POPE      H11X          -27.4864590029      -23.6638243808        4.6757916607  MEMB      55              0.0000000000
      6955        55  POPE      H11Y          -26.2353788222      -23.0460606834        3.7962642220  MEMB      55              0.0000000000
      6956        55  POPE      C312          -27.3389064311      -22.5470965467        2.6412602322  MEMB      55              0.0000000000
      6957        55  POPE      H12X          -27.5990195814      -21.5375245070        2.4158917129  MEMB      55              0.0000000000
      6958        55  POPE      H12Y          -28.5166356218      -22.8506772580        2.4140370870  MEMB      55              0.0000000000
      6959        55  POPE      C313          -26.2688923686      -24.0991813721        0.5388972579  MEMB      55              0.0000000000
      6960        55  POPE      H13X          -26.0498085785      -25.1714338492        0.6881315991  MEMB      55              0.0000000000
      6961        55  POPE      H13Y          -25.7477352479      -23.4451825910        0.5766760232  MEMB      55              0.0000000000
      6962        55  POPE      C314          -27.4062388544      -24.5409062678       -0.4294285852  MEMB      55              0.0000000000
      6963        55  POPE      H14X          -26.5377279241      -24.5643089841       -1.1566484185  MEMB      55              0.0000000000
      6964        55  POPE      H14Y          -28.4701636745      -23.7475272556       -0.6463921303  MEMB      55              0.0000000000
      6965        55  POPE      C315          -28.2215417670      -25.0473662546       -0.6423659396  MEMB      55              0.0000000000
      6966        55  POPE      H15X          -28.9924741743      -25.0172898179        0.1952843846  MEMB      55              0.0000000000
      6967        55  POPE      H15Y          -27.4731754332      -25.8920961517       -0.6959866880  MEMB      55              0.0000000000
      6968        55  POPE      C316          -28.9118815038      -24.6947419686       -2.0393501768  MEMB      55              0.0000000000
      6969        55  POPE      H16X          -28.0914283986      -24.7918263309       -2.7187389308  MEMB      55              0.0000000000
      6970        55  POPE      H16Y          -29.7240135993      -23.9576044022       -2.0625352922  MEMB      55              0.0000000000
      6971        55  POPE      H16Z          -29.6428191188      -25.3237402586       -2.2269295951  MEMB      55              0.0000000000
      6972        56  PMPE      N              31.3010910821      -12.4935731773       17.4355279977  MEMB      56              0.0000000000
      6973        56  PMPE      HN1            31.5000647308      -12.7467976468       16.4476985313  MEMB      56              0.0000000000
      6974        56  PMPE      HN2            32.1922161890      -12.1465046429       17.8717681024  MEMB      56              0.0000000000
      6975        56  PMPE      HN3            30.9986843009      -13.3456491323       17.9524408955  MEMB      56              0.0000000000
      6976        56  PMPE      C12            30.2263622358      -11.4327441635       17.5481557023  MEMB      56              0.0000000000
      6977        56  PMPE      H12A           29.4764112921      -11.8165600209       18.2735037158  MEMB      56              0.0000000000
      6978        56  PMPE      H12B           29.7601496609      -11.3606770810       16.5444759115  MEMB      56              0.0000000000
      6979        56  PMPE      C11            30.7460765506      -10.0571106802       18.0347300049  MEMB      56              0.0000000000
      6980        56  PMPE      H11A           29.8953163769       -9.3379102187       17.9981369786  MEMB      56              0.0000000000
      6981        56  PMPE      H11B           31.5152155792       -9.6438932133       17.3467853846  MEMB      56              0.0000000000
      6982        56  PMPE      P              32.7167388231      -10.1072003840       19.8425429025  MEMB      56              0.0000000000
      6983        56  PMPE      O13            33.3453415017      -11.2940650292       19.2063491734  MEMB      56              0.0000000000
      6984        56  PMPE      O14            32.7444578642      -10.0007055748       21.3020832095  MEMB      56              0.0000000000
      6985        56  PMPE      O11            33.4414683869       -8.8572518996       19.2165858635  MEMB      56              0.0000000000
      6986        56  PMPE      O12            31.1915004447      -10.1021340562       19.3804607236  MEMB      56              0.0000000000
      6987        56  PMPE      C1             33.5467194651       -7.6598191734       20.0152083564  MEMB      56              0.0000000000
      6988        56  PMPE      HA             34.3691692558       -7.7641734833       20.7571660228  MEMB      56              0.0000000000
      6989        56  PMPE      HB             32.6269256425       -7.4548839106       20.6227790150  MEMB      56              0.0000000000
      6990        56  PMPE      C2             33.8021893420       -6.4058642295       19.1387541268  MEMB      56              0.0000000000
      6991        56  PMPE      HS             33.7125057083       -5.5140157307       19.8086360417  MEMB      56              0.0000000000
      6992        56  PMPE      O21            32.9307983973       -6.3012793613       18.0927810746  MEMB      56              0.0000000000
      6993        56  PMPE      C21            31.7795524065       -6.2335788644       18.4156426978  MEMB      56              0.0000000000
      6994        56  PMPE      O22            31.0844108269       -5.8871915743       19.3546155263  MEMB      56              0.0000000000
      6995        56  PMPE      C22            31.3539758935       -6.1911226219       17.2059011501  MEMB      56              0.0000000000
      6996        56  PMPE      H2R            30.9676871587       -5.2673438960       17.2767515679  MEMB      56              0.0000000000
      6997        56  PMPE      H2S            30.2926760787       -6.5153671414       17.7574059862  MEMB      56              0.0000000000
      6998        56  PMPE      C3             35.1556807066       -6.4029097142       18.4436921363  MEMB      56              0.0000000000
      6999        56  PMPE      HX             35.8537422500       -6.3951290844       19.2569239369  MEMB      56              0.0000000000
      7000        56  PMPE      HY             35.2647322242       -5.5066909906       17.8098399568  MEMB      56              0.0000000000
      7001        56  PMPE      O31            35.4786603208       -7.5833223652       17.7326362820  MEMB      56              0.0000000000
      7002        56  PMPE      C31            35.2167326148       -7.5862468832       16.4424662902  MEMB      56              0.0000000000
      7003        56  PMPE      O32            34.9111339933       -6.6259090978       15.7710315158  MEMB      56              0.0000000000
      7004        56  PMPE      C32            35.4474332339       -8.9688410370       15.9187342810  MEMB      56              0.0000000000
      7005        56  PMPE      H2X            35.1489548950       -9.7166605360       16.6767159491  MEMB      56              0.0000000000
      7006        56  PMPE      H2Y            36.5453949972       -8.9762944621       15.8534960183  MEMB      56              0.0000000000
      7007        56  PMPE      C23            31.9853671645       -6.7125840653       15.5997169901  MEMB      56              0.0000000000
      7008        56  PMPE      H3R            32.6123051691       -7.4161235558       16.0790667646  MEMB      56              0.0000000000
      7009        56  PMPE      H3S            32.2935815626       -5.8470770317       15.0310326501  MEMB      56              0.0000000000
      7010        56  PMPE      C24            31.2411611118       -7.6662493823       14.3017095505  MEMB      56              0.0000000000
      7011        56  PMPE      H4R            30.2725880829       -7.0914134461       13.9443020354  MEMB      56              0.0000000000
      7012        56  PMPE      H4S            30.7630224789       -8.6298688924       14.7129264851  MEMB      56              0.0000000000
      7013        56  PMPE      C25            31.7517124979       -7.6543647047       13.0153451562  MEMB      56              0.0000000000
      7014        56  PMPE      H5R            32.1605817524       -8.6671791324       13.0194406267  MEMB      56              0.0000000000
      7015        56  PMPE      H5S            32.4243424328       -6.7900272133       13.1513133015  MEMB      56              0.0000000000
      7016        56  PMPE      C26            30.7404397483       -7.4216020363       11.9004205722  MEMB      56              0.0000000000
      7017        56  PMPE      H6R            30.0159897746       -6.6135607637       12.1555923250  MEMB      56              0.0000000000
      7018        56  PMPE      H6S            30.1095733450       -8.3167551916       11.7419376586  MEMB      56              0.0000000000
      7019        56  PMPE      C27            31.5424055662       -7.2464606413       10.6305529354  MEMB      56              0.0000000000
      7020        56  PMPE      H7R            32.4061469705       -7.9555029790       10.7517550193  MEMB      56              0.0000000000
      7021        56  PMPE      H7S            31.9721397701       -6.2302956435       10.5282339710  MEMB      56              0.0000000000
      7022        56  PMPE      C28            30.7959576010       -7.6972211778        9.3558495214  MEMB      56              0.0000000000
      7023        56  PMPE      H8R            30.6589542169       -8.7962585989        9.4139532316  MEMB      56              0.0000000000
      7024        56  PMPE      H8S            31.4811422691       -7.5804883469        8.5044431912  MEMB      56              0.0000000000
      7025        56  PMPE      C29            29.4468727356       -7.0146285216        9.0524241581  MEMB      56              0.0000000000
      7026        56  PMPE      H9R            29.3106756315       -5.9233674483        9.2374906607  MEMB      56              0.0000000000
      7027        56  PMPE      C217           28.2790958237       -7.9510540816        9.4003423654  MEMB      56              0.0000000000
      7028        56  PMPE      H17R           27.4503533461       -7.4415688853        9.8687983007  MEMB      56              0.0000000000
      7029        56  PMPE      H17S           28.4233208905       -9.0271495816        9.4243585795  MEMB      56              0.0000000000
      7030        56  PMPE      C210           28.5290104814       -7.5293615673        7.9558327873  MEMB      56              0.0000000000
      7031        56  PMPE      H10R           27.7636171398       -6.8190235922        7.5882404025  MEMB      56              0.0000000000
      7032        56  PMPE      C211           28.9684746909       -8.6631641142        7.0053789000  MEMB      56              0.0000000000
      7033        56  PMPE      H11R           28.1128626375       -9.3408428729        6.8062937715  MEMB      56              0.0000000000
      7034        56  PMPE      H11S           29.8145063829       -9.2929168987        7.3796520009  MEMB      56              0.0000000000
      7035        56  PMPE      C212           29.4677322151       -8.1148605719        5.6622298666  MEMB      56              0.0000000000
      7036        56  PMPE      H12R           30.0179965773       -8.9674175671        5.1862581385  MEMB      56              0.0000000000
      7037        56  PMPE      H12S           30.1430025161       -7.2625727724        5.8845689489  MEMB      56              0.0000000000
      7038        56  PMPE      C213           28.4223225805       -7.5061065970        4.7164361701  MEMB      56              0.0000000000
      7039        56  PMPE      H13R           27.8196516674       -6.7359136833        5.2491728073  MEMB      56              0.0000000000
      7040        56  PMPE      H13S           27.7061568039       -8.2911673987        4.4211152690  MEMB      56              0.0000000000
      7041        56  PMPE      C214           29.0748173246       -6.9366448748        3.4480573534  MEMB      56              0.0000000000
      7042        56  PMPE      H14R           29.2755001612       -7.7421284766        2.7171124086  MEMB      56              0.0000000000
      7043        56  PMPE      H14S           30.0832621252       -6.5002437654        3.6307774009  MEMB      56              0.0000000000
      7044        56  PMPE      C215           28.3060471776       -5.8279398458        2.7715608326  MEMB      56              0.0000000000
      7045        56  PMPE      H15R           27.2217271390       -6.0098610519        2.5728733742  MEMB      56              0.0000000000
      7046        56  PMPE      H15S           28.8649778566       -5.7985771034        1.8229896704  MEMB      56              0.0000000000
      7047        56  PMPE      C216           28.6210597716       -4.5091416766        3.4311771728  MEMB      56              0.0000000000
      7048        56  PMPE      H16R           28.4163610641       -4.5383172648        4.5182938440  MEMB      56              0.0000000000
      7049        56  PMPE      H16S           29.6933985358       -4.2774170503        3.2896581291  MEMB      56              0.0000000000
      7050        56  PMPE      H16T           28.0868257124       -3.7000368704        2.9471862177  MEMB      56              0.0000000000
      7051        56  PMPE      C33            34.7366390323       -9.2030969551       14.5646513676  MEMB      56              0.0000000000
      7052        56  PMPE      H3X            35.2014002857       -8.5980397088       13.7551841275  MEMB      56              0.0000000000
      7053        56  PMPE      H3Y            33.6733848090       -8.9114085406       14.6387891943  MEMB      56              0.0000000000
      7054        56  PMPE      C34            34.6043724506      -10.6830858176       14.2541229520  MEMB      56              0.0000000000
      7055        56  PMPE      H4X            34.0983698825      -11.0941682447       15.1442344678  MEMB      56              0.0000000000
      7056        56  PMPE      H4Y            35.5630110033      -11.1551316532       14.1658482231  MEMB      56              0.0000000000
      7057        56  PMPE      C35            33.8774855569      -11.0444770226       12.9694702798  MEMB      56              0.0000000000
      7058        56  PMPE      H5X            34.4163990043      -10.5720590233       12.1189974296  MEMB      56              0.0000000000
      7059        56  PMPE      H5Y            32.8780681070      -10.5789314052       13.0010022051  MEMB      56              0.0000000000
      7060        56  PMPE      C36            33.7060557111      -12.5709012928       12.8441287848  MEMB      56              0.0000000000
      7061        56  PMPE      H6X            32.9852796217      -12.8763277265       13.6333563057  MEMB      56              0.0000000000
      7062        56  PMPE      H6Y            34.6758168003      -13.1115982178       12.9833516687  MEMB      56              0.0000000000
      7063        56  PMPE      C37            33.1049312020      -13.0466273700       11.5241229331  MEMB      56              0.0000000000
      7064        56  PMPE      H7X            33.1024264307      -14.1636879526       11.5428017719  MEMB      56              0.0000000000
      7065        56  PMPE      H7Y            33.8139972450      -12.6949032140       10.7360737601  MEMB      56              0.0000000000
      7066        56  PMPE      C38            31.6608544529      -12.5379175253       11.3058306996  MEMB      56              0.0000000000
      7067        56  PMPE      H8X            31.6394181340      -11.4528182217       11.4949871717  MEMB      56              0.0000000000
      7068        56  PMPE      H8Y            30.9389306297      -12.9569253457       12.0471356718  MEMB      56              0.0000000000
      7069        56  PMPE      C39            31.0915240106      -12.9182542644        9.9348498668  MEMB      56              0.0000000000
      7070        56  PMPE      H9X            29.9830444498      -12.9672644741        9.9118704652  MEMB      56              0.0000000000
      7071        56  PMPE      H9Y            31.3866398792      -13.9791899750        9.7812596573  MEMB      56              0.0000000000
      7072        56  PMPE      C310           31.3374358256      -11.9940688253        8.7243445007  MEMB      56              0.0000000000
      7073        56  PMPE      H10X           30.7652545725      -11.0382430557        8.7700511092  MEMB      56              0.0000000000
      7074        56  PMPE      H10Y           30.8420650269      -12.6381497706        7.9649892313  MEMB      56              0.0000000000
      7075        56  PMPE      C311           32.7888262447      -11.6437819981        8.3757364675  MEMB      56              0.0000000000
      7076        56  PMPE      H11X           33.3823882582      -12.5810817022        8.4473821075  MEMB      56              0.0000000000
      7077        56  PMPE      H11Y           33.1631190264      -10.9734437424        9.1956381185  MEMB      56              0.0000000000
      7078        56  PMPE      C312           32.9883304908      -11.0346936680        6.9481300182  MEMB      56              0.0000000000
      7079        56  PMPE      H12X           34.0314038039      -11.2514654594        6.6232404092  MEMB      56              0.0000000000
      7080        56  PMPE      H12Y           32.8394103929       -9.9264318658        6.9476494142  MEMB      56              0.0000000000
      7081        56  PMPE      C313           32.1201169671      -11.5567829181        5.7699174196  MEMB      56              0.0000000000
      7082        56  PMPE      H13X           31.0911733756      -11.1606482314        5.8587978459  MEMB      56              0.0000000000
      7083        56  PMPE      H13Y           32.0060137923      -12.6616883655        5.7282717749  MEMB      56              0.0000000000
      7084        56  PMPE      C314           32.6511775303      -11.0977146497        4.3966078622  MEMB      56              0.0000000000
      7085        56  PMPE      H14X           33.7492314925      -11.2760068609        4.3101880484  MEMB      56              0.0000000000
      7086        56  PMPE      H14Y           32.5090959848      -10.0159936501        4.2108643889  MEMB      56              0.0000000000
      7087        56  PMPE      C315           31.9252338340      -11.7502507528        3.2222085077  MEMB      56              0.0000000000
      7088        56  PMPE      H15X           31.7981117410      -12.8400489013        3.4290498276  MEMB      56              0.0000000000
      7089        56  PMPE      H15Y           32.6738200371      -11.6325898348        2.4100372430  MEMB      56              0.0000000000
      7090        56  PMPE      C316           30.6015245058      -11.0559944491        2.8302395639  MEMB      56              0.0000000000
      7091        56  PMPE      H16X           30.7344289628      -10.0028256341        2.4861449872  MEMB      56              0.0000000000
      7092        56  PMPE      H16Y           29.9083390041      -11.0875267737        3.7092002514  MEMB      56              0.0000000000
      7093        56  PMPE      H16Z           30.1519000185      -11.5543549214        1.9462214810  MEMB      56              0.0000000000
      7094        57  PMPE      N             -25.1586447965      -25.8552896110       21.0829825902  MEMB      57              0.0000000000
      7095        57  PMPE      HN1           -25.7382902799      -26.7067250880       21.2349769087  MEMB      57              0.0000000000
      7096        57  PMPE      HN2           -24.3742401328      -26.1058391962       20.4442851948  MEMB      57              0.0000000000
      7097        57  PMPE      HN3           -24.7333404996      -25.4608535735       21.9516915389  MEMB      57              0.0000000000
      7098        57  PMPE      C12           -25.8715609244      -24.6752173866       20.4795597072  MEMB      57              0.0000000000
      7099        57  PMPE      H12A          -26.6252100376      -24.3128773763       21.2117532050  MEMB      57              0.0000000000
      7100        57  PMPE      H12B          -26.3927748550      -25.0049588960       19.5553404357  MEMB      57              0.0000000000
      7101        57  PMPE      C11           -24.8459672851      -23.5297778979       20.2859173780  MEMB      57              0.0000000000
      7102        57  PMPE      H11A          -24.5339126371      -23.1419900135       21.2879406842  MEMB      57              0.0000000000
      7103        57  PMPE      H11B          -25.3358047312      -22.6764256851       19.7812656278  MEMB      57              0.0000000000
      7104        57  PMPE      P             -23.6603056908      -23.9169176962       17.9592271556  MEMB      57              0.0000000000
      7105        57  PMPE      O13           -23.2571696045      -22.6096242449       17.4101196644  MEMB      57              0.0000000000
      7106        57  PMPE      O14           -24.9160714290      -24.5453619479       17.5219988995  MEMB      57              0.0000000000
      7107        57  PMPE      O11           -22.5385469200      -24.9889849147       17.7275244488  MEMB      57              0.0000000000
      7108        57  PMPE      O12           -23.6822155918      -23.9187013163       19.5651920736  MEMB      57              0.0000000000
      7109        57  PMPE      C1            -21.6939015582      -25.3456459384       18.8165459329  MEMB      57              0.0000000000
      7110        57  PMPE      HA            -22.2410615060      -25.9764551697       19.5407461244  MEMB      57              0.0000000000
      7111        57  PMPE      HB            -21.3714352308      -24.4198521694       19.3643552951  MEMB      57              0.0000000000
      7112        57  PMPE      C2            -20.5026910716      -26.1983319550       18.3010784946  MEMB      57              0.0000000000
      7113        57  PMPE      HS            -19.6928970915      -26.1485478075       19.0718953525  MEMB      57              0.0000000000
      7114        57  PMPE      O21           -20.0910485177      -25.8089415497       16.9641319574  MEMB      57              0.0000000000
      7115        57  PMPE      C21           -20.0211674176      -24.4546958131       16.8008389368  MEMB      57              0.0000000000
      7116        57  PMPE      O22           -19.6812712922      -23.7084664399       17.7094055478  MEMB      57              0.0000000000
      7117        57  PMPE      C22           -19.6215858687      -24.2994653173       15.3079278885  MEMB      57              0.0000000000
      7118        57  PMPE      H2R           -20.1167359348      -25.0822087075       14.7444573021  MEMB      57              0.0000000000
      7119        57  PMPE      H2S           -18.5350361653      -24.3555454908       15.0165571867  MEMB      57              0.0000000000
      7120        57  PMPE      C3            -20.8457424895      -27.6788648276       18.1739480645  MEMB      57              0.0000000000
      7121        57  PMPE      HX            -21.1857540447      -28.1170675971       19.1257180086  MEMB      57              0.0000000000
      7122        57  PMPE      HY            -19.9279025004      -28.2085464885       17.8519434470  MEMB      57              0.0000000000
      7123        57  PMPE      O31           -21.9056009236      -27.7919512054       17.2450416099  MEMB      57              0.0000000000
      7124        57  PMPE      C31           -21.5550936896      -28.3150491543       16.0981075764  MEMB      57              0.0000000000
      7125        57  PMPE      O32           -20.4786445956      -28.8092705866       15.7965189694  MEMB      57              0.0000000000
      7126        57  PMPE      C32           -22.7244023091      -28.1178667007       15.1705213860  MEMB      57              0.0000000000
      7127        57  PMPE      H2X           -23.1839244047      -27.1208283458       15.3196816561  MEMB      57              0.0000000000
      7128        57  PMPE      H2Y           -23.4369499575      -28.8236374161       15.5227731907  MEMB      57              0.0000000000
      7129        57  PMPE      C23           -20.3059749226      -23.0037294684       14.9393647763  MEMB      57              0.0000000000
      7130        57  PMPE      H3R           -19.6770853428      -22.4053124642       15.3872655004  MEMB      57              0.0000000000
      7131        57  PMPE      H3S           -21.0012577388      -22.5485358537       15.6513235123  MEMB      57              0.0000000000
      7132        57  PMPE      C24           -20.4911404440      -22.5900830096       13.4950224812  MEMB      57              0.0000000000
      7133        57  PMPE      H4R           -20.7903533689      -21.5188592208       13.3292573334  MEMB      57              0.0000000000
      7134        57  PMPE      H4S           -21.3849848512      -22.9720985249       13.1075432051  MEMB      57              0.0000000000
      7135        57  PMPE      C25           -19.3935272280      -23.0720157264       12.6334228401  MEMB      57              0.0000000000
      7136        57  PMPE      H5R           -18.4656429029      -23.4793567042       13.0673993614  MEMB      57              0.0000000000
      7137        57  PMPE      H5S           -19.0801522060      -22.2794635435       12.1697695280  MEMB      57              0.0000000000
      7138        57  PMPE      C26           -19.5951275580      -23.1688981331       11.1743798472  MEMB      57              0.0000000000
      7139        57  PMPE      H6R           -20.1985807950      -24.0110365789       11.0166569663  MEMB      57              0.0000000000
      7140        57  PMPE      H6S           -18.5381326087      -23.2454911134       10.8858772619  MEMB      57              0.0000000000
      7141        57  PMPE      C27           -20.1483906354      -22.0915273448       10.2682039094  MEMB      57              0.0000000000
      7142        57  PMPE      H7R           -19.5859154789      -21.3435896383       10.5202960660  MEMB      57              0.0000000000
      7143        57  PMPE      H7S           -20.9227582207      -21.4774755115       10.6489014799  MEMB      57              0.0000000000
      7144        57  PMPE      C28           -20.1803052125      -22.3120610944        8.7402735229  MEMB      57              0.0000000000
      7145        57  PMPE      H8R           -20.9023898113      -23.1129735420        8.6563316832  MEMB      57              0.0000000000
      7146        57  PMPE      H8S           -19.2028848422      -22.5641112066        8.2936121585  MEMB      57              0.0000000000
      7147        57  PMPE      C29           -20.4801375027      -21.1032229068        7.8832481866  MEMB      57              0.0000000000
      7148        57  PMPE      H9R           -19.6742297504      -20.4510871395        7.7813535106  MEMB      57              0.0000000000
      7149        57  PMPE      C217          -21.8964343926      -20.5570161054        7.9343060132  MEMB      57              0.0000000000
      7150        57  PMPE      H17R          -21.9412975626      -19.4946216564        8.1362015770  MEMB      57              0.0000000000
      7151        57  PMPE      H17S          -22.4204493120      -21.2863818331        8.5067460306  MEMB      57              0.0000000000
      7152        57  PMPE      C210          -21.2428955846      -20.9863107392        6.6371204864  MEMB      57              0.0000000000
      7153        57  PMPE      H10R          -21.0363803834      -20.1173201322        5.9793706913  MEMB      57              0.0000000000
      7154        57  PMPE      C211          -21.8447637809      -22.2005685091        6.0559795570  MEMB      57              0.0000000000
      7155        57  PMPE      H11R          -22.4206757620      -21.8106757934        5.2095978669  MEMB      57              0.0000000000
      7156        57  PMPE      H11S          -22.5385300807      -22.6861655236        6.7703907252  MEMB      57              0.0000000000
      7157        57  PMPE      C212          -20.8158748876      -23.1434395402        5.5517147603  MEMB      57              0.0000000000
      7158        57  PMPE      H12R          -21.2512903674      -23.9909241392        4.9891667709  MEMB      57              0.0000000000
      7159        57  PMPE      H12S          -20.2933396599      -23.5538403703        6.3865709872  MEMB      57              0.0000000000
      7160        57  PMPE      C213          -19.8718351186      -22.5336048671        4.6433380414  MEMB      57              0.0000000000
      7161        57  PMPE      H13R          -19.1206391729      -23.2670903629        4.4410062814  MEMB      57              0.0000000000
      7162        57  PMPE      H13S          -19.3809937343      -21.6606188270        5.0585672434  MEMB      57              0.0000000000
      7163        57  PMPE      C214          -20.5231574129      -22.3839509528        3.3618753461  MEMB      57              0.0000000000
      7164        57  PMPE      H14R          -21.1165872522      -21.4886083033        3.3302730794  MEMB      57              0.0000000000
      7165        57  PMPE      H14S          -20.9561677888      -23.3049629021        2.9174739450  MEMB      57              0.0000000000
      7166        57  PMPE      C215          -19.5081293583      -22.0198266571        2.6586005211  MEMB      57              0.0000000000
      7167        57  PMPE      H15R          -18.5356615273      -21.8486536882        3.2933701292  MEMB      57              0.0000000000
      7168        57  PMPE      H15S          -19.8841624647      -21.2827159075        1.9151818761  MEMB      57              0.0000000000
      7169        57  PMPE      C216          -18.9907371401      -23.0148610149        2.4228231008  MEMB      57              0.0000000000
      7170        57  PMPE      H16R          -17.9795797026      -22.6740455986        2.0545258773  MEMB      57              0.0000000000
      7171        57  PMPE      H16S          -18.3042047503      -23.5204209360        2.0256560387  MEMB      57              0.0000000000
      7172        57  PMPE      H16T          -19.2805164892      -23.7575270329        1.6873133743  MEMB      57              0.0000000000
      7173        57  PMPE      C33           -22.3577653026      -28.4859941905       13.7291023346  MEMB      57              0.0000000000
      7174        57  PMPE      H3X           -23.2770881663      -28.5773395329       13.1271351106  MEMB      57              0.0000000000
      7175        57  PMPE      H3Y           -21.8285158968      -29.4812670138       13.6942093908  MEMB      57              0.0000000000
      7176        57  PMPE      C34           -21.5307333618      -27.3638293268       13.0758335776  MEMB      57              0.0000000000
      7177        57  PMPE      H4X           -21.0781063002      -27.7322907012       12.1248468381  MEMB      57              0.0000000000
      7178        57  PMPE      H4Y           -20.7429102712      -27.1599041928       13.8264613903  MEMB      57              0.0000000000
      7179        57  PMPE      C35           -22.1814660289      -25.9726583310       12.8906378505  MEMB      57              0.0000000000
      7180        57  PMPE      H5X           -21.4540187967      -25.2778235616       12.4004839192  MEMB      57              0.0000000000
      7181        57  PMPE      H5Y           -22.4957641493      -25.5353314883       13.8753285097  MEMB      57              0.0000000000
      7182        57  PMPE      C36           -23.3912563047      -25.9361183170       11.9621945902  MEMB      57              0.0000000000
      7183        57  PMPE      H6X           -24.1243122817      -26.6609277474       12.3747534165  MEMB      57              0.0000000000
      7184        57  PMPE      H6Y           -23.0504486223      -26.1933284089       10.9314676507  MEMB      57              0.0000000000
      7185        57  PMPE      C37           -24.0184155031      -24.5355067278       11.9822744367  MEMB      57              0.0000000000
      7186        57  PMPE      H7X           -23.2771189051      -23.8432755290       11.5300265740  MEMB      57              0.0000000000
      7187        57  PMPE      H7Y           -24.1807615470      -24.2792162187       13.0615400027  MEMB      57              0.0000000000
      7188        57  PMPE      C38           -25.3275066287      -24.3432205837       11.2080184493  MEMB      57              0.0000000000
      7189        57  PMPE      H8X           -25.7628823439      -23.3499551360       11.4623048724  MEMB      57              0.0000000000
      7190        57  PMPE      H8Y           -26.0895393333      -25.0718763428       11.5344042431  MEMB      57              0.0000000000
      7191        57  PMPE      C39           -25.1541245350      -24.3819127172        9.6816235467  MEMB      57              0.0000000000
      7192        57  PMPE      H9X           -24.7277246978      -25.3592866577        9.3622236281  MEMB      57              0.0000000000
      7193        57  PMPE      H9Y           -24.4764728817      -23.5402934442        9.4205352403  MEMB      57              0.0000000000
      7194        57  PMPE      C310          -26.4906725515      -24.1969444487        8.9746536354  MEMB      57              0.0000000000
      7195        57  PMPE      H10X          -26.8905901299      -23.2031268599        9.2119783076  MEMB      57              0.0000000000
      7196        57  PMPE      H10Y          -27.1581074952      -24.9456413811        9.3917480784  MEMB      57              0.0000000000
      7197        57  PMPE      C311          -26.5049391777      -24.2873835028        7.4741809138  MEMB      57              0.0000000000
      7198        57  PMPE      H11X          -27.5871697868      -24.1432993215        7.1959215328  MEMB      57              0.0000000000
      7199        57  PMPE      H11Y          -26.1169252636      -25.2703500237        7.1176989743  MEMB      57              0.0000000000
      7200        57  PMPE      C312          -25.6438998188      -23.0913921284        7.0165936020  MEMB      57              0.0000000000
      7201        57  PMPE      H12X          -24.6121959618      -23.1525319544        7.2816056128  MEMB      57              0.0000000000
      7202        57  PMPE      H12Y          -26.1209688094      -22.1267227772        7.2957299111  MEMB      57              0.0000000000
      7203        57  PMPE      C313          -25.2197372102      -22.9402158339        5.6261081358  MEMB      57              0.0000000000
      7204        57  PMPE      H13X          -25.3720134508      -21.9246590019        5.1670807879  MEMB      57              0.0000000000
      7205        57  PMPE      H13Y          -26.1821623209      -23.4291872736        5.6901907650  MEMB      57              0.0000000000
      7206        57  PMPE      C314          -24.5227260325      -23.9891688600        4.6879623314  MEMB      57              0.0000000000
      7207        57  PMPE      H14X          -25.0664407037      -24.9343607771        4.4791959331  MEMB      57              0.0000000000
      7208        57  PMPE      H14Y          -23.7834119552      -24.2448656963        5.3941635140  MEMB      57              0.0000000000
      7209        57  PMPE      C315          -23.8670901228      -23.5103728385        3.3480393640  MEMB      57              0.0000000000
      7210        57  PMPE      H15X          -23.3050879202      -24.3422616702        2.8693851474  MEMB      57              0.0000000000
      7211        57  PMPE      H15Y          -23.2678803574      -22.6250252650        3.5271685913  MEMB      57              0.0000000000
      7212        57  PMPE      C316          -24.5287525004      -22.8017516347        2.2472676332  MEMB      57              0.0000000000
      7213        57  PMPE      H16X          -25.4426532376      -23.2491078047        2.2787977176  MEMB      57              0.0000000000
      7214        57  PMPE      H16Y          -24.2320123495      -23.1665056520        1.2443189907  MEMB      57              0.0000000000
      7215        57  PMPE      H16Z          -25.1897665029      -21.9380892849        2.3727542674  MEMB      57              0.0000000000
      7216        58  POPE      N              33.1354357208       13.1164904827       20.9619517722  MEMB      58              0.0000000000
      7217        58  POPE      HN1            32.6658222456       13.4847535217       20.1087167504  MEMB      58              0.0000000000
      7218        58  POPE      HN2            32.4278282984       12.6477386640       21.5800232280  MEMB      58              0.0000000000
      7219        58  POPE      HN3            33.7086821588       13.8152343251       21.4510929780  MEMB      58              0.0000000000
      7220        58  POPE      C12            34.1346991173       12.0783022076       20.6254073336  MEMB      58              0.0000000000
      7221        58  POPE      H12A           34.1452789763       11.4012079592       21.5072152495  MEMB      58              0.0000000000
      7222        58  POPE      H12B           35.1052188168       12.6167281526       20.5250765170  MEMB      58              0.0000000000
      7223        58  POPE      C11            33.7315035021       11.4119433280       19.3122969424  MEMB      58              0.0000000000
      7224        58  POPE      H11A           34.5004324207       10.6738383060       19.0086253458  MEMB      58              0.0000000000
      7225        58  POPE      H11B           33.7514361114       12.1893616350       18.5070681141  MEMB      58              0.0000000000
      7226        58  POPE      P              31.7778141193       10.1001414629       18.1763752473  MEMB      58              0.0000000000
      7227        58  POPE      O13            30.7487531842       11.0173992109       17.6543650288  MEMB      58              0.0000000000
      7228        58  POPE      O14            31.3587099324        8.7390310632       18.5802233747  MEMB      58              0.0000000000
      7229        58  POPE      O11            32.9883774857       10.0250686760       17.1751546313  MEMB      58              0.0000000000
      7230        58  POPE      O12            32.4572920624       10.7752982854       19.4488596047  MEMB      58              0.0000000000
      7231        58  POPE      C1             32.6618749187        9.8196163510       15.7958441750  MEMB      58              0.0000000000
      7232        58  POPE      HA             31.5821473921        9.7304229189       15.5366969514  MEMB      58              0.0000000000
      7233        58  POPE      HB             33.1900787246        8.9436848611       15.4842272793  MEMB      58              0.0000000000
      7234        58  POPE      C2             33.2648291653       10.8183278444       14.8166865598  MEMB      58              0.0000000000
      7235        58  POPE      HS             34.2612952085       11.0335494337       15.2544852639  MEMB      58              0.0000000000
      7236        58  POPE      O21            32.4064153653       11.9590172544       14.7855734332  MEMB      58              0.0000000000
      7237        58  POPE      C21            32.8860550405       13.1104518272       14.3969384876  MEMB      58              0.0000000000
      7238        58  POPE      O22            34.0662906622       13.3593445466       14.1875419740  MEMB      58              0.0000000000
      7239        58  POPE      C22            31.7444655533       14.1403161461       14.4096835149  MEMB      58              0.0000000000
      7240        58  POPE      H2R            32.1339373823       15.0866966858       14.8373563533  MEMB      58              0.0000000000
      7241        58  POPE      H2S            30.9389140088       13.7995875362       15.0949048211  MEMB      58              0.0000000000
      7242        58  POPE      C3             33.4513835863       10.2206410218       13.3754929652  MEMB      58              0.0000000000
      7243        58  POPE      HX             33.9506802243        9.2136432332       13.4753376743  MEMB      58              0.0000000000
      7244        58  POPE      HY             34.1312759435       10.9040666355       12.8806529261  MEMB      58              0.0000000000
      7245        58  POPE      O31            32.2442359853       10.2742013468       12.5804189870  MEMB      58              0.0000000000
      7246        58  POPE      C31            32.2186402178        9.7538097114       11.3858510078  MEMB      58              0.0000000000
      7247        58  POPE      O32            33.0155601114        8.9173899174       10.9506359213  MEMB      58              0.0000000000
      7248        58  POPE      C32            30.7128232874       10.0833182201       10.8872052370  MEMB      58              0.0000000000
      7249        58  POPE      H2X            30.4671464428       11.0797803614       11.0680423222  MEMB      58              0.0000000000
      7250        58  POPE      H2Y            29.8191749970        9.5473897661       11.3823471645  MEMB      58              0.0000000000
      7251        58  POPE      C23            31.1549072523       14.3510170795       13.0120448367  MEMB      58              0.0000000000
      7252        58  POPE      H3R            31.8363456475       14.2496073780       12.1617030856  MEMB      58              0.0000000000
      7253        58  POPE      H3S            30.7281640382       15.2920588467       12.9013975324  MEMB      58              0.0000000000
      7254        58  POPE      C24            29.8086364366       13.7363267786       12.7423238449  MEMB      58              0.0000000000
      7255        58  POPE      H4R            29.0915895045       13.9380632206       13.5825183377  MEMB      58              0.0000000000
      7256        58  POPE      H4S            30.0067448613       12.6709917311       12.6520741685  MEMB      58              0.0000000000
      7257        58  POPE      C25            29.2087518274       14.2868016078       11.4536099075  MEMB      58              0.0000000000
      7258        58  POPE      H5R            28.9671015482       15.3525652260       11.6943883334  MEMB      58              0.0000000000
      7259        58  POPE      H5S            28.3185486952       13.6808295059       11.1839609079  MEMB      58              0.0000000000
      7260        58  POPE      C26            30.0499543160       14.2919971377       10.1992767874  MEMB      58              0.0000000000
      7261        58  POPE      H6R            30.5293268390       13.3870973190        9.8996496932  MEMB      58              0.0000000000
      7262        58  POPE      H6S            31.0058118323       14.7220237270       10.3454068961  MEMB      58              0.0000000000
      7263        58  POPE      C27            29.2886510197       14.9555658824        9.0978916646  MEMB      58              0.0000000000
      7264        58  POPE      H7R            29.4164916537       15.9736095422        9.3767313585  MEMB      58              0.0000000000
      7265        58  POPE      H7S            28.2298994097       14.6775758526        9.1711627866  MEMB      58              0.0000000000
      7266        58  POPE      C28            29.8777656188       14.7933916724        7.7400261697  MEMB      58              0.0000000000
      7267        58  POPE      H8R            29.9548587732       13.7380129325        7.5475525346  MEMB      58              0.0000000000
      7268        58  POPE      H8S            30.8784953004       15.2693244537        7.6654857735  MEMB      58              0.0000000000
      7269        58  POPE      C29            28.9449630382       15.4321116546        6.8458151953  MEMB      58              0.0000000000
      7270        58  POPE      H91            28.9559185318       16.5480762842        6.5366659035  MEMB      58              0.0000000000
      7271        58  POPE      C210           28.5472703038       14.5433800235        6.0417202191  MEMB      58              0.0000000000
      7272        58  POPE      H101           28.1457250860       14.6563240384        5.0718718549  MEMB      58              0.0000000000
      7273        58  POPE      C211           28.4670655069       13.2970958824        5.4924213977  MEMB      58              0.0000000000
      7274        58  POPE      H11R           27.4636480932       12.9834550102        5.1723399330  MEMB      58              0.0000000000
      7275        58  POPE      H11S           28.3734714055       12.7334867689        6.2967253914  MEMB      58              0.0000000000
      7276        58  POPE      C212           29.5025784000       12.9880097407        4.4583762866  MEMB      58              0.0000000000
      7277        58  POPE      H12R           29.4612199159       13.4493269492        3.4614512626  MEMB      58              0.0000000000
      7278        58  POPE      H12S           29.0561791117       12.0914766371        4.2226393305  MEMB      58              0.0000000000
      7279        58  POPE      C213           30.7826402892       12.8339496456        5.1391265852  MEMB      58              0.0000000000
      7280        58  POPE      H13R           30.4910138816       12.3498451121        6.0848218610  MEMB      58              0.0000000000
      7281        58  POPE      H13S           31.2599157485       13.7706663987        5.4425210516  MEMB      58              0.0000000000
      7282        58  POPE      C214           31.7472330999       11.9101992144        4.4789958011  MEMB      58              0.0000000000
      7283        58  POPE      H14R           32.5339884884       11.6369024969        5.2068685105  MEMB      58              0.0000000000
      7284        58  POPE      H14S           32.2520358910       12.4312604889        3.6466161729  MEMB      58              0.0000000000
      7285        58  POPE      C215           31.1051864300       10.6245117614        4.0096384097  MEMB      58              0.0000000000
      7286        58  POPE      H15R           30.4350257853       10.8654796342        3.1457361409  MEMB      58              0.0000000000
      7287        58  POPE      H15S           30.5046588834       10.1380340280        4.8145370860  MEMB      58              0.0000000000
      7288        58  POPE      C216           32.1617196470        9.6311619449        3.5960655886  MEMB      58              0.0000000000
      7289        58  POPE      H16R           31.7083914394        8.6516604727        3.3838940670  MEMB      58              0.0000000000
      7290        58  POPE      H16S           32.9042465223        9.5007318180        4.4145682839  MEMB      58              0.0000000000
      7291        58  POPE      C217           32.8646411948       10.1261134951        2.3645714430  MEMB      58              0.0000000000
      7292        58  POPE      H17R           33.3809668904       11.0242138665        2.7011365271  MEMB      58              0.0000000000
      7293        58  POPE      H17S           32.1951666431       10.5661760360        1.6252301546  MEMB      58              0.0000000000
      7294        58  POPE      C218           33.7478707965        9.1243031448        1.6184593976  MEMB      58              0.0000000000
      7295        58  POPE      H18R           34.3709300638        9.6987574366        0.8923324774  MEMB      58              0.0000000000
      7296        58  POPE      H18S           33.1856228477        8.5054873111        0.9509413249  MEMB      58              0.0000000000
      7297        58  POPE      H18T           34.3871250367        8.5579163359        2.3332229349  MEMB      58              0.0000000000
      7298        58  POPE      C33            30.6031053486        9.6210122824        9.5048803041  MEMB      58              0.0000000000
      7299        58  POPE      H3X            31.0148662806        8.6864238801        9.7244384866  MEMB      58              0.0000000000
      7300        58  POPE      H3Y            31.3673616766       10.0078785302        8.8550762894  MEMB      58              0.0000000000
      7301        58  POPE      C34            29.1874671660        9.7017684942        9.0601308671  MEMB      58              0.0000000000
      7302        58  POPE      H4X            28.9669797722       10.7723247514        9.2376962013  MEMB      58              0.0000000000
      7303        58  POPE      H4Y            28.5048627188        9.0541784917        9.6529238665  MEMB      58              0.0000000000
      7304        58  POPE      C35            29.0828448804        9.5243500327        7.5824304209  MEMB      58              0.0000000000
      7305        58  POPE      H5X            29.7946534753       10.2282078653        7.1918358382  MEMB      58              0.0000000000
      7306        58  POPE      H5Y            28.1328574753       10.0481221005        7.4696737890  MEMB      58              0.0000000000
      7307        58  POPE      C36            29.3658279013        8.2251725841        6.7986244551  MEMB      58              0.0000000000
      7308        58  POPE      H6X            30.0355531709        7.4302104526        6.9144644409  MEMB      58              0.0000000000
      7309        58  POPE      H6Y            29.8330145012        8.3526236317        5.8525027975  MEMB      58              0.0000000000
      7310        58  POPE      C37            28.3612427875        7.1185077440        7.0529622896  MEMB      58              0.0000000000
      7311        58  POPE      H7X            28.0149344715        7.3799520852        6.2602093007  MEMB      58              0.0000000000
      7312        58  POPE      H7Y            27.5872408794        7.5279108519        7.7590790337  MEMB      58              0.0000000000
      7313        58  POPE      C38            28.1549434218        5.9069231469        6.0162399312  MEMB      58              0.0000000000
      7314        58  POPE      H8X            28.0776834334        5.1913904481        6.7680524460  MEMB      58              0.0000000000
      7315        58  POPE      H8Y            29.0311856183        5.9316373224        5.3778250835  MEMB      58              0.0000000000
      7316        58  POPE      C39            26.9355477036        5.4881353263        5.0696243410  MEMB      58              0.0000000000
      7317        58  POPE      H9X            25.8744136889        5.6643410721        5.3187225976  MEMB      58              0.0000000000
      7318        58  POPE      H9Y            26.7756499334        4.4682654112        4.7826069686  MEMB      58              0.0000000000
      7319        58  POPE      C310           27.0603667748        6.3129162193        3.8397345275  MEMB      58              0.0000000000
      7320        58  POPE      H10X           28.1377606174        5.9751335473        3.7199155130  MEMB      58              0.0000000000
      7321        58  POPE      H10Y           27.5683383979        7.2718945018        3.7541473903  MEMB      58              0.0000000000
      7322        58  POPE      C311           25.7827570306        6.4377725104        2.6161679276  MEMB      58              0.0000000000
      7323        58  POPE      H11X           24.9800835351        6.9507593033        2.9258476510  MEMB      58              0.0000000000
      7324        58  POPE      H11Y           25.3008100828        5.4331026314        2.2312161611  MEMB      58              0.0000000000
      7325        58  POPE      C312           26.2481883577        7.1095779937        1.1001695629  MEMB      58              0.0000000000
      7326        58  POPE      H12X           25.4408237664        6.9035804245        0.4386027163  MEMB      58              0.0000000000
      7327        58  POPE      H12Y           27.1760902449        6.6831856881        0.4544202040  MEMB      58              0.0000000000
      7328        58  POPE      C313           26.8501983534        8.4183716516        1.2717775164  MEMB      58              0.0000000000
      7329        58  POPE      H13X           27.8530755768        8.3795787134        1.7064265550  MEMB      58              0.0000000000
      7330        58  POPE      H13Y           26.1442241442        8.9652480302        1.8915930600  MEMB      58              0.0000000000
      7331        58  POPE      C314           26.8322463138        8.9774795245       -0.0578318332  MEMB      58              0.0000000000
      7332        58  POPE      H14X           25.7433420886        8.8802126458       -0.2664167849  MEMB      58              0.0000000000
      7333        58  POPE      H14Y           27.3097937143        8.3664744106       -0.8487900951  MEMB      58              0.0000000000
      7334        58  POPE      C315           27.2933454000       10.3815373481       -0.2002848299  MEMB      58              0.0000000000
      7335        58  POPE      H15X           27.6873840497       10.8525860574        0.5951221618  MEMB      58              0.0000000000
      7336        58  POPE      H15Y           26.6627385387       11.1873336687       -0.6398283769  MEMB      58              0.0000000000
      7337        58  POPE      C316           28.5120452838       10.3763008908       -0.8568316518  MEMB      58              0.0000000000
      7338        58  POPE      H16X           28.6648308777        9.9689901416       -1.8567859210  MEMB      58              0.0000000000
      7339        58  POPE      H16Y           29.3871719786        9.9727274272       -0.2548002258  MEMB      58              0.0000000000
      7340        58  POPE      H16Z           28.6205317858       11.5042968389       -0.9690014979  MEMB      58              0.0000000000
      7341        59  PMPE      N              17.0663837231       27.2954770213       18.4088865969  MEMB      59              0.0000000000
      7342        59  PMPE      HN1            17.6536274454       27.8006580942       17.7065409510  MEMB      59              0.0000000000
      7343        59  PMPE      HN2            17.5649221376       27.2101164155       19.3047930413  MEMB      59              0.0000000000
      7344        59  PMPE      HN3            16.8882640107       26.3452330593       18.0442666380  MEMB      59              0.0000000000
      7345        59  PMPE      C12            15.8071433884       28.0970048720       18.6398154062  MEMB      59              0.0000000000
      7346        59  PMPE      H12A           15.4752433224       28.0217611339       19.7039690612  MEMB      59              0.0000000000
      7347        59  PMPE      H12B           15.0471949547       27.6578038883       17.9780355726  MEMB      59              0.0000000000
      7348        59  PMPE      C11            15.9734918330       29.5830336641       18.3420485824  MEMB      59              0.0000000000
      7349        59  PMPE      H11A           14.9313382506       29.9822275510       18.3522954008  MEMB      59              0.0000000000
      7350        59  PMPE      H11B           16.3981936530       29.8129475810       17.3362658739  MEMB      59              0.0000000000
      7351        59  PMPE      P              17.6362948934       31.4044493741       19.3933912653  MEMB      59              0.0000000000
      7352        59  PMPE      O13            18.3792671161       31.4606530302       20.6846358937  MEMB      59              0.0000000000
      7353        59  PMPE      O14            17.0217467783       32.6189174553       18.8556559378  MEMB      59              0.0000000000
      7354        59  PMPE      O11            18.6373345473       30.8343329670       18.3095546808  MEMB      59              0.0000000000
      7355        59  PMPE      O12            16.7005607337       30.1270692186       19.4331399946  MEMB      59              0.0000000000
      7356        59  PMPE      C1             19.9195009809       30.3701992022       18.7301459032  MEMB      59              0.0000000000
      7357        59  PMPE      HA             19.8124447733       29.4887062001       19.4066564881  MEMB      59              0.0000000000
      7358        59  PMPE      HB             20.4022535895       31.2114857494       19.2633915498  MEMB      59              0.0000000000
      7359        59  PMPE      C2             20.8613573543       30.0298330220       17.5320142816  MEMB      59              0.0000000000
      7360        59  PMPE      HS             21.8759903573       29.7701230628       17.9131473522  MEMB      59              0.0000000000
      7361        59  PMPE      O21            20.9361442015       31.1810475945       16.6612853314  MEMB      59              0.0000000000
      7362        59  PMPE      C21            21.6743924376       31.0941714340       15.5524268009  MEMB      59              0.0000000000
      7363        59  PMPE      O22            22.3895513342       30.2243357312       15.1637703349  MEMB      59              0.0000000000
      7364        59  PMPE      C22            21.2678680112       32.0537409156       14.4996343127  MEMB      59              0.0000000000
      7365        59  PMPE      H2R            22.1590653256       32.3687087618       13.9232292050  MEMB      59              0.0000000000
      7366        59  PMPE      H2S            20.8784244279       32.9328288126       15.0024985974  MEMB      59              0.0000000000
      7367        59  PMPE      C3             20.3248065625       28.8259039625       16.7636495434  MEMB      59              0.0000000000
      7368        59  PMPE      HX             20.0495813790       27.9996404643       17.4568354528  MEMB      59              0.0000000000
      7369        59  PMPE      HY             21.1527770061       28.4541378345       16.1301071976  MEMB      59              0.0000000000
      7370        59  PMPE      O31            19.2104212964       29.3345041476       15.9923508909  MEMB      59              0.0000000000
      7371        59  PMPE      C31            18.6594624906       28.4273622828       15.3026988663  MEMB      59              0.0000000000
      7372        59  PMPE      O32            18.8218203268       27.2588715850       15.5078293094  MEMB      59              0.0000000000
      7373        59  PMPE      C32            17.5357613409       28.9482454698       14.4793595508  MEMB      59              0.0000000000
      7374        59  PMPE      H2X            17.9416538305       29.6702015356       13.7507656429  MEMB      59              0.0000000000
      7375        59  PMPE      H2Y            16.8718310723       29.4449648169       15.2139414737  MEMB      59              0.0000000000
      7376        59  PMPE      C23            20.3038437152       31.2419166105       13.6036256425  MEMB      59              0.0000000000
      7377        59  PMPE      H3R            19.4316207198       31.0275438070       14.2489531286  MEMB      59              0.0000000000
      7378        59  PMPE      H3S            20.6394450660       30.1945244384       13.3799118176  MEMB      59              0.0000000000
      7379        59  PMPE      C24            19.6993328699       32.0134639396       12.4108853422  MEMB      59              0.0000000000
      7380        59  PMPE      H4R            19.4231000801       33.0335998375       12.6550016513  MEMB      59              0.0000000000
      7381        59  PMPE      H4S            18.8814802464       31.3770895516       12.0625067145  MEMB      59              0.0000000000
      7382        59  PMPE      C25            20.5097534553       32.1845187912       11.2314190203  MEMB      59              0.0000000000
      7383        59  PMPE      H5R            20.5849807368       31.0327937002       11.1505166826  MEMB      59              0.0000000000
      7384        59  PMPE      H5S            21.3777827652       32.7598352142       11.7020012522  MEMB      59              0.0000000000
      7385        59  PMPE      C26            20.1032657443       32.6684179601        9.8415933690  MEMB      59              0.0000000000
      7386        59  PMPE      H6R            19.7616073087       33.6605642331        9.9864271911  MEMB      59              0.0000000000
      7387        59  PMPE      H6S            19.4102067948       31.8776229659        9.5678145037  MEMB      59              0.0000000000
      7388        59  PMPE      C27            21.0579563715       32.8641986070        8.6938647443  MEMB      59              0.0000000000
      7389        59  PMPE      H7R            21.4553848219       31.8324698553        8.7618934908  MEMB      59              0.0000000000
      7390        59  PMPE      H7S            21.9089204752       33.6492212782        8.7382241737  MEMB      59              0.0000000000
      7391        59  PMPE      C28            20.7814458380       33.2633572607        7.2872156415  MEMB      59              0.0000000000
      7392        59  PMPE      H8R            20.2249368306       32.4467678341        6.8670689479  MEMB      59              0.0000000000
      7393        59  PMPE      H8S            21.5921472047       33.2027697139        6.5300477648  MEMB      59              0.0000000000
      7394        59  PMPE      C29            20.5321954563       34.7308877065        7.3197899518  MEMB      59              0.0000000000
      7395        59  PMPE      H9R            21.1225353556       35.4302053086        7.9573479899  MEMB      59              0.0000000000
      7396        59  PMPE      C217           19.0636102910       34.8695421513        7.5093179843  MEMB      59              0.0000000000
      7397        59  PMPE      H17R           18.7494382368       35.7475657043        8.0536666874  MEMB      59              0.0000000000
      7398        59  PMPE      H17S           18.6018474521       33.8889309179        7.4371520713  MEMB      59              0.0000000000
      7399        59  PMPE      C210           19.7350785999       35.2593037003        6.1976804786  MEMB      59              0.0000000000
      7400        59  PMPE      H10R           19.7301656772       36.3242445816        6.0038961612  MEMB      59              0.0000000000
      7401        59  PMPE      C211           19.3264353227       34.3745111664        5.0370643431  MEMB      59              0.0000000000
      7402        59  PMPE      H11R           18.5372241414       34.8306187035        4.4464275928  MEMB      59              0.0000000000
      7403        59  PMPE      H11S           19.0887674924       33.3388033286        5.3609502197  MEMB      59              0.0000000000
      7404        59  PMPE      C212           20.3647378398       34.2298987678        4.0171359125  MEMB      59              0.0000000000
      7405        59  PMPE      H12R           20.9994477216       33.8576497614        4.8057784426  MEMB      59              0.0000000000
      7406        59  PMPE      H12S           20.7304078293       35.1759115993        3.5589465403  MEMB      59              0.0000000000
      7407        59  PMPE      C213           20.0283764028       33.2423687823        2.9771236847  MEMB      59              0.0000000000
      7408        59  PMPE      H13R           19.1647619209       33.5841989995        2.4520346560  MEMB      59              0.0000000000
      7409        59  PMPE      H13S           20.0721989737       32.1806350020        3.2385336727  MEMB      59              0.0000000000
      7410        59  PMPE      C214           20.9101819127       33.1115023313        1.9430005825  MEMB      59              0.0000000000
      7411        59  PMPE      H14R           21.8300340667       32.6235975314        2.6669560763  MEMB      59              0.0000000000
      7412        59  PMPE      H14S           20.9931656368       34.1135296582        1.2951439278  MEMB      59              0.0000000000
      7413        59  PMPE      C215           20.6852040182       32.0599866285        0.9062603694  MEMB      59              0.0000000000
      7414        59  PMPE      H15R           21.1064705187       31.1437370871        1.2365321950  MEMB      59              0.0000000000
      7415        59  PMPE      H15S           21.1823968512       31.6521099426        0.0382451561  MEMB      59              0.0000000000
      7416        59  PMPE      C216           19.6320364198       32.2942410804       -0.0282211440  MEMB      59              0.0000000000
      7417        59  PMPE      H16R           19.8478092307       32.0052176322       -1.0906952151  MEMB      59              0.0000000000
      7418        59  PMPE      H16S           18.9216989102       31.6155481268        0.4111351661  MEMB      59              0.0000000000
      7419        59  PMPE      H16T           19.2907397949       33.3266830978        0.0875000263  MEMB      59              0.0000000000
      7420        59  PMPE      C33            16.8161936550       27.7659710118       13.8089037141  MEMB      59              0.0000000000
      7421        59  PMPE      H3X            16.4335297339       27.0701860142       14.5869782945  MEMB      59              0.0000000000
      7422        59  PMPE      H3Y            17.5104749670       27.1544882810       13.1988406816  MEMB      59              0.0000000000
      7423        59  PMPE      C34            15.6216560239       28.1713473287       12.9523492777  MEMB      59              0.0000000000
      7424        59  PMPE      H4X            14.9074133553       28.7428465064       13.5956078237  MEMB      59              0.0000000000
      7425        59  PMPE      H4Y            15.1364778168       27.2214704481       12.6319875884  MEMB      59              0.0000000000
      7426        59  PMPE      C35            15.8843282048       29.0143811879       11.6798450998  MEMB      59              0.0000000000
      7427        59  PMPE      H5X            16.1015809670       30.0655393629       11.9688798693  MEMB      59              0.0000000000
      7428        59  PMPE      H5Y            14.9078606668       29.0072169100       11.1442860867  MEMB      59              0.0000000000
      7429        59  PMPE      C36            16.9111745451       28.5306978879       10.6254671231  MEMB      59              0.0000000000
      7430        59  PMPE      H6X            16.7725456807       27.4415480189       10.4704897442  MEMB      59              0.0000000000
      7431        59  PMPE      H6Y            17.9504812024       28.6253189451       10.9940212021  MEMB      59              0.0000000000
      7432        59  PMPE      C37            16.7419464730       29.2067585252        9.2285341227  MEMB      59              0.0000000000
      7433        59  PMPE      H7X            16.6889330709       30.3160507955        9.2546332490  MEMB      59              0.0000000000
      7434        59  PMPE      H7Y            15.7928066952       28.8173211609        8.7929501529  MEMB      59              0.0000000000
      7435        59  PMPE      C38            17.8513170013       28.8868143233        8.2150720080  MEMB      59              0.0000000000
      7436        59  PMPE      H8X            17.7986585189       27.7754509611        8.1029423766  MEMB      59              0.0000000000
      7437        59  PMPE      H8Y            18.8354806260       29.1583640150        8.6532983767  MEMB      59              0.0000000000
      7438        59  PMPE      C39            17.7667701682       29.6709698588        6.8691209114  MEMB      59              0.0000000000
      7439        59  PMPE      H9X            18.4722820804       29.1631849214        6.1858780366  MEMB      59              0.0000000000
      7440        59  PMPE      H9Y            18.1370645183       30.7208049719        6.9513631250  MEMB      59              0.0000000000
      7441        59  PMPE      C310           16.3784034786       29.6291962443        6.2024340389  MEMB      59              0.0000000000
      7442        59  PMPE      H10X           15.6666907729       30.1582358946        6.8782108958  MEMB      59              0.0000000000
      7443        59  PMPE      H10Y           16.1587156609       28.5390827223        6.1667612161  MEMB      59              0.0000000000
      7444        59  PMPE      C311           16.2791486343       30.1286958647        4.7394990904  MEMB      59              0.0000000000
      7445        59  PMPE      H11X           15.3627243523       29.7199785501        4.2331127519  MEMB      59              0.0000000000
      7446        59  PMPE      H11Y           17.1817688516       29.7764546015        4.1865078534  MEMB      59              0.0000000000
      7447        59  PMPE      C312           16.2111331318       31.6571031973        4.6325087739  MEMB      59              0.0000000000
      7448        59  PMPE      H12X           16.8459841598       32.0841347607        5.4439361920  MEMB      59              0.0000000000
      7449        59  PMPE      H12Y           15.1592901635       31.9822302718        4.7941352631  MEMB      59              0.0000000000
      7450        59  PMPE      C313           16.6405599173       32.2225666606        3.2655582619  MEMB      59              0.0000000000
      7451        59  PMPE      H13X           17.6628533409       31.9430241973        2.9733141177  MEMB      59              0.0000000000
      7452        59  PMPE      H13Y           16.6355856833       33.3284318001        3.2867920468  MEMB      59              0.0000000000
      7453        59  PMPE      C314           15.8641331489       31.7151722647        2.0673396472  MEMB      59              0.0000000000
      7454        59  PMPE      H14X           15.5956615528       30.6406028026        2.1416300020  MEMB      59              0.0000000000
      7455        59  PMPE      H14Y           16.3646140551       31.9363018035        1.1346191038  MEMB      59              0.0000000000
      7456        59  PMPE      C315           14.6649258284       32.4621187960        1.7794752987  MEMB      59              0.0000000000
      7457        59  PMPE      H15X           14.3200328739       32.1589190548        2.7239420341  MEMB      59              0.0000000000
      7458        59  PMPE      H15Y           13.9918605480       31.8810552460        1.1830703635  MEMB      59              0.0000000000
      7459        59  PMPE      C316           14.7116069175       33.9269751935        1.4250348876  MEMB      59              0.0000000000
      7460        59  PMPE      H16X           13.8108368561       34.5661131673        1.3817284727  MEMB      59              0.0000000000
      7461        59  PMPE      H16Y           15.0451542451       33.9907423162        0.4261404609  MEMB      59              0.0000000000
      7462        59  PMPE      H16Z           15.3767802160       34.4628724925        2.1271775727  MEMB      59              0.0000000000
      7463        60  PMPE      N             -30.7009207758       13.7979078828       17.8046659935  MEMB      60              0.0000000000
      7464        60  PMPE      HN1           -30.2442443394       13.2664392208       17.0246939658  MEMB      60              0.0000000000
      7465        60  PMPE      HN2           -29.9450545224       14.0553107933       18.4763759821  MEMB      60              0.0000000000
      7466        60  PMPE      HN3           -31.4115583823       13.2269682187       18.2914206632  MEMB      60              0.0000000000
      7467        60  PMPE      C12           -31.4059850676       15.0831091117       17.3870030833  MEMB      60              0.0000000000
      7468        60  PMPE      H12A          -32.2549289187       14.7482436154       16.7576244824  MEMB      60              0.0000000000
      7469        60  PMPE      H12B          -30.6731266538       15.6645725706       16.7986174109  MEMB      60              0.0000000000
      7470        60  PMPE      C11           -31.8440640502       15.9870060518       18.5710953293  MEMB      60              0.0000000000
      7471        60  PMPE      H11A          -32.7453473803       15.5479127068       19.0386110435  MEMB      60              0.0000000000
      7472        60  PMPE      H11B          -32.2321035382       16.9951768459       18.2280389584  MEMB      60              0.0000000000
      7473        60  PMPE      P             -30.0877247642       17.4893357121       19.7510838933  MEMB      60              0.0000000000
      7474        60  PMPE      O13           -28.8590871470       17.3150326920       20.5470134082  MEMB      60              0.0000000000
      7475        60  PMPE      O14           -31.1223316355       18.4096271085       20.2250212914  MEMB      60              0.0000000000
      7476        60  PMPE      O11           -29.7391324752       17.8372925718       18.2455652405  MEMB      60              0.0000000000
      7477        60  PMPE      O12           -30.7746502983       16.0546604801       19.5370263607  MEMB      60              0.0000000000
      7478        60  PMPE      C1            -28.4583011216       18.3785455855       17.9426824199  MEMB      60              0.0000000000
      7479        60  PMPE      HA            -27.7855148779       17.5248399192       17.8127333534  MEMB      60              0.0000000000
      7480        60  PMPE      HB            -28.0618608922       19.0284064872       18.7702186913  MEMB      60              0.0000000000
      7481        60  PMPE      C2            -28.4922853167       19.1890151741       16.6197945134  MEMB      60              0.0000000000
      7482        60  PMPE      HS            -29.0514302349       20.0411751268       16.7733567507  MEMB      60              0.0000000000
      7483        60  PMPE      O21           -29.1112161310       18.4742701211       15.5372803123  MEMB      60              0.0000000000
      7484        60  PMPE      C21           -30.4469946558       18.5329587476       15.4574736108  MEMB      60              0.0000000000
      7485        60  PMPE      O22           -31.2024416915       19.1864920955       16.1527854674  MEMB      60              0.0000000000
      7486        60  PMPE      C22           -30.9655751657       17.7140519723       14.2541948323  MEMB      60              0.0000000000
      7487        60  PMPE      H2R           -30.8897779315       16.6119259326       14.3783745658  MEMB      60              0.0000000000
      7488        60  PMPE      H2S           -30.3973573692       17.9860499663       13.3401574815  MEMB      60              0.0000000000
      7489        60  PMPE      C3            -27.1034958211       19.7008620886       16.1448316073  MEMB      60              0.0000000000
      7490        60  PMPE      HX            -26.3579891783       18.8873474438       16.1338536764  MEMB      60              0.0000000000
      7491        60  PMPE      HY            -26.7510561775       20.4009439210       16.9079348534  MEMB      60              0.0000000000
      7492        60  PMPE      O31           -27.1936360542       20.4501576561       14.9153566838  MEMB      60              0.0000000000
      7493        60  PMPE      C31           -26.7271878176       19.7067613576       13.9246837371  MEMB      60              0.0000000000
      7494        60  PMPE      O32           -25.9846608783       18.7778454766       13.9343355533  MEMB      60              0.0000000000
      7495        60  PMPE      C32           -27.2583285865       19.9722287135       12.6811429273  MEMB      60              0.0000000000
      7496        60  PMPE      H2X           -26.5089268031       20.5138384425       11.9762046308  MEMB      60              0.0000000000
      7497        60  PMPE      H2Y           -28.3715293922       20.1639988265       12.9047649515  MEMB      60              0.0000000000
      7498        60  PMPE      C23           -32.4537935852       18.0327115239       13.9399255360  MEMB      60              0.0000000000
      7499        60  PMPE      H3R           -32.7442865576       19.0956555316       14.0621777761  MEMB      60              0.0000000000
      7500        60  PMPE      H3S           -33.1362765998       17.4435351262       14.5856534487  MEMB      60              0.0000000000
      7501        60  PMPE      C24           -32.7647857619       17.8373803507       12.4664769639  MEMB      60              0.0000000000
      7502        60  PMPE      H4R           -32.2484076360       18.6491913442       11.9214585752  MEMB      60              0.0000000000
      7503        60  PMPE      H4S           -33.8360230916       18.0638511449       12.2844720371  MEMB      60              0.0000000000
      7504        60  PMPE      C25           -32.2939669641       16.4738983388       11.9692779153  MEMB      60              0.0000000000
      7505        60  PMPE      H5R           -32.7551947451       15.7032368548       12.6295907279  MEMB      60              0.0000000000
      7506        60  PMPE      H5S           -31.1891926328       16.3838152643       12.1133158506  MEMB      60              0.0000000000
      7507        60  PMPE      C26           -32.8010369958       16.1821476369       10.5499770291  MEMB      60              0.0000000000
      7508        60  PMPE      H6R           -33.9126559529       16.1950220743       10.6244844141  MEMB      60              0.0000000000
      7509        60  PMPE      H6S           -32.5239479487       15.1614300160       10.2954957263  MEMB      60              0.0000000000
      7510        60  PMPE      C27           -32.3644189957       17.1601118245        9.4292422282  MEMB      60              0.0000000000
      7511        60  PMPE      H7R           -31.6062026551       17.8592331674        9.7622906289  MEMB      60              0.0000000000
      7512        60  PMPE      H7S           -33.1785811976       17.8627623564        9.1639515845  MEMB      60              0.0000000000
      7513        60  PMPE      C28           -31.7224755811       16.5276297001        8.1868242690  MEMB      60              0.0000000000
      7514        60  PMPE      H8R           -31.4651791021       17.2244308406        7.3650763491  MEMB      60              0.0000000000
      7515        60  PMPE      H8S           -32.5611952437       15.9855041047        7.8794334848  MEMB      60              0.0000000000
      7516        60  PMPE      C29           -30.5531230921       15.6055490078        8.4416587857  MEMB      60              0.0000000000
      7517        60  PMPE      H9R           -30.5383783150       14.9456763702        9.3262597979  MEMB      60              0.0000000000
      7518        60  PMPE      C217          -29.3994500838       16.5414284228        8.3488855764  MEMB      60              0.0000000000
      7519        60  PMPE      H17R          -28.8166188377       16.6784790771        9.2030864183  MEMB      60              0.0000000000
      7520        60  PMPE      H17S          -29.4878953014       17.4626212136        7.8793365441  MEMB      60              0.0000000000
      7521        60  PMPE      C210          -29.4384315571       15.3257798309        7.4318136904  MEMB      60              0.0000000000
      7522        60  PMPE      H10R          -29.0419555411       14.3300354684        7.7196271281  MEMB      60              0.0000000000
      7523        60  PMPE      C211          -29.7083054097       15.6704467633        5.9572682967  MEMB      60              0.0000000000
      7524        60  PMPE      H11R          -28.8988258172       15.4696118555        5.2555765838  MEMB      60              0.0000000000
      7525        60  PMPE      H11S          -30.0553714458       16.7126784890        5.9095087833  MEMB      60              0.0000000000
      7526        60  PMPE      C212          -30.6605283127       14.8040017551        5.2417774629  MEMB      60              0.0000000000
      7527        60  PMPE      H12R          -31.4518887933       14.9890680747        5.7616810998  MEMB      60              0.0000000000
      7528        60  PMPE      H12S          -30.6239968522       13.7815397909        5.5013587090  MEMB      60              0.0000000000
      7529        60  PMPE      C213          -30.9338798892       14.8652555522        3.7957255655  MEMB      60              0.0000000000
      7530        60  PMPE      H13R          -31.3137391220       13.8871243414        3.4560106763  MEMB      60              0.0000000000
      7531        60  PMPE      H13S          -29.9400135747       15.0889757610        3.4034908771  MEMB      60              0.0000000000
      7532        60  PMPE      C214          -32.0258721239       15.7824520845        3.3735899861  MEMB      60              0.0000000000
      7533        60  PMPE      H14R          -31.4407873626       16.6726477636        3.5600707057  MEMB      60              0.0000000000
      7534        60  PMPE      H14S          -32.9046401130       15.8176318057        4.0270772363  MEMB      60              0.0000000000
      7535        60  PMPE      C215          -32.5874970471       15.3937340570        2.0081008555  MEMB      60              0.0000000000
      7536        60  PMPE      H15R          -32.6059596057       14.2992506850        1.9584298354  MEMB      60              0.0000000000
      7537        60  PMPE      H15S          -31.8385362560       15.5833138306        1.2385968910  MEMB      60              0.0000000000
      7538        60  PMPE      C216          -33.9412039888       16.0011405995        1.5923782420  MEMB      60              0.0000000000
      7539        60  PMPE      H16R          -33.8862161183       17.1136633553        1.5870970693  MEMB      60              0.0000000000
      7540        60  PMPE      H16S          -34.2025260256       15.6460668234        0.5671033230  MEMB      60              0.0000000000
      7541        60  PMPE      H16T          -34.7380850378       15.7015569292        2.2971203450  MEMB      60              0.0000000000
      7542        60  PMPE      C33           -27.4041253778       19.1799831646       11.4493026407  MEMB      60              0.0000000000
      7543        60  PMPE      H3X           -28.4310290446       18.8332789416       11.5231935765  MEMB      60              0.0000000000
      7544        60  PMPE      H3Y           -26.5019281280       18.6202466390       11.4469445995  MEMB      60              0.0000000000
      7545        60  PMPE      C34           -27.3104233535       19.8313612926       10.0233004529  MEMB      60              0.0000000000
      7546        60  PMPE      H4X           -26.3207662917       20.3721643242        9.9734081901  MEMB      60              0.0000000000
      7547        60  PMPE      H4Y           -28.2292866130       20.5057032057        9.6346102324  MEMB      60              0.0000000000
      7548        60  PMPE      C35           -28.1157713568       19.4576073380        8.8733022082  MEMB      60              0.0000000000
      7549        60  PMPE      H5X           -29.1316015361       19.1360279282        9.1743576331  MEMB      60              0.0000000000
      7550        60  PMPE      H5Y           -27.5232872408       18.6459129785        8.7283022391  MEMB      60              0.0000000000
      7551        60  PMPE      C36           -28.0872886078       20.3617582319        7.6496700668  MEMB      60              0.0000000000
      7552        60  PMPE      H6X           -27.0599475742       20.7202036364        7.3559773057  MEMB      60              0.0000000000
      7553        60  PMPE      H6Y           -28.4291331437       21.2996935927        7.8858502741  MEMB      60              0.0000000000
      7554        60  PMPE      C37           -28.9860181810       19.8551424890        6.6372593685  MEMB      60              0.0000000000
      7555        60  PMPE      H7X           -29.5038376215       20.7016828854        6.1830959066  MEMB      60              0.0000000000
      7556        60  PMPE      H7Y           -29.9472655541       19.5212964060        6.9406963598  MEMB      60              0.0000000000
      7557        60  PMPE      C38           -28.0856714254       19.1073000039        5.6404884380  MEMB      60              0.0000000000
      7558        60  PMPE      H8X           -27.7403004637       18.1753997539        6.0224627729  MEMB      60              0.0000000000
      7559        60  PMPE      H8Y           -27.2784820958       19.6794085561        5.0550918572  MEMB      60              0.0000000000
      7560        60  PMPE      C39           -28.8578168311       18.5877620932        4.5822404435  MEMB      60              0.0000000000
      7561        60  PMPE      H9X           -29.3789069725       19.5523600902        4.6995674688  MEMB      60              0.0000000000
      7562        60  PMPE      H9Y           -29.8216813996       18.1294026111        4.5852339708  MEMB      60              0.0000000000
      7563        60  PMPE      C310          -27.9850426310       18.1400293417        3.3484568633  MEMB      60              0.0000000000
      7564        60  PMPE      H10X          -27.3445024189       17.4008495126        3.8113521156  MEMB      60              0.0000000000
      7565        60  PMPE      H10Y          -27.3042255768       18.9373292711        2.9298472591  MEMB      60              0.0000000000
      7566        60  PMPE      C311          -28.8026739191       17.4923381292        2.1988382846  MEMB      60              0.0000000000
      7567        60  PMPE      H11X          -29.0974364194       18.2126088282        1.4142382708  MEMB      60              0.0000000000
      7568        60  PMPE      H11Y          -29.6972442764       17.0510826806        2.6627306831  MEMB      60              0.0000000000
      7569        60  PMPE      C312          -28.1045016963       16.3856212400        1.4703108614  MEMB      60              0.0000000000
      7570        60  PMPE      H12X          -27.5433145060       15.6838576405        2.1336727261  MEMB      60              0.0000000000
      7571        60  PMPE      H12Y          -27.4800971906       16.7806799187        0.6261738871  MEMB      60              0.0000000000
      7572        60  PMPE      C313          -28.7508347189       15.6312240970        0.4745764676  MEMB      60              0.0000000000
      7573        60  PMPE      H13X          -29.1592843956       16.2410364465       -0.3692810094  MEMB      60              0.0000000000
      7574        60  PMPE      H13Y          -29.5620590886       15.0160855856        0.8847418495  MEMB      60              0.0000000000
      7575        60  PMPE      C314          -27.5582895601       14.7864272263        0.0923318635  MEMB      60              0.0000000000
      7576        60  PMPE      H14X          -26.9072776258       15.0718442031       -0.7385261458  MEMB      60              0.0000000000
      7577        60  PMPE      H14Y          -27.9321293824       14.1960206390       -0.4721611828  MEMB      60              0.0000000000
      7578        60  PMPE      C315          -27.4905717715       13.4228275323        0.6596021527  MEMB      60              0.0000000000
      7579        60  PMPE      H15X          -26.8546572509       13.6474769936        1.4626980971  MEMB      60              0.0000000000
      7580        60  PMPE      H15Y          -26.7118303064       12.9234100565        0.0405551511  MEMB      60              0.0000000000
      7581        60  PMPE      C316          -28.7757121647       12.6092004243        0.9838776425  MEMB      60              0.0000000000
      7582        60  PMPE      H16X          -29.3433841111       12.0366325662        0.2329561594  MEMB      60              0.0000000000
      7583        60  PMPE      H16Y          -29.1230205988       12.6093635464        2.0103529687  MEMB      60              0.0000000000
      7584        60  PMPE      H16Z          -28.4470496246       11.6953506727        1.2009206766  MEMB      60              0.0000000000
      7585        61  PMPE      N              37.2409577907       -4.7969836076       19.4867391236  MEMB      61              0.0000000000
      7586        61  PMPE      HN1            36.3865185877       -5.1242000417       20.0036386470  MEMB      61              0.0000000000
      7587        61  PMPE      HN2            37.2051267155       -5.3607602777       18.6008067135  MEMB      61              0.0000000000
      7588        61  PMPE      HN3            38.1066077823       -5.0248334323       20.0039053259  MEMB      61              0.0000000000
      7589        61  PMPE      C12            37.0875948784       -3.3945637770       19.0567917338  MEMB      61              0.0000000000
      7590        61  PMPE      H12A           37.9625692664       -3.2574804485       18.3850506972  MEMB      61              0.0000000000
      7591        61  PMPE      H12B           37.1759075538       -2.7960585563       19.9812746519  MEMB      61              0.0000000000
      7592        61  PMPE      C11            35.7450953953       -3.1086490918       18.3227565410  MEMB      61              0.0000000000
      7593        61  PMPE      H11A           35.6123814633       -3.7142501970       17.3996166930  MEMB      61              0.0000000000
      7594        61  PMPE      H11B           35.8303747647       -2.0478829194       18.0000777751  MEMB      61              0.0000000000
      7595        61  PMPE      P              33.3784757769       -2.2218805816       19.1027727301  MEMB      61              0.0000000000
      7596        61  PMPE      O13            33.9851351519       -0.9756977073       19.5678819700  MEMB      61              0.0000000000
      7597        61  PMPE      O14            32.1873550289       -2.7247729508       19.8094790069  MEMB      61              0.0000000000
      7598        61  PMPE      O11            32.9961023008       -2.1072781603       17.5681377274  MEMB      61              0.0000000000
      7599        61  PMPE      O12            34.5807578008       -3.3035232529       19.1376349774  MEMB      61              0.0000000000
      7600        61  PMPE      C1             32.7717421008       -3.3236970971       16.8630264991  MEMB      61              0.0000000000
      7601        61  PMPE      HA             31.9835627456       -3.8883739800       17.3487095123  MEMB      61              0.0000000000
      7602        61  PMPE      HB             33.6620951588       -3.9585661786       16.8167700618  MEMB      61              0.0000000000
      7603        61  PMPE      C2             32.3371096816       -3.0518899503       15.4444264277  MEMB      61              0.0000000000
      7604        61  PMPE      HS             32.2263847697       -4.0188250404       14.8802708996  MEMB      61              0.0000000000
      7605        61  PMPE      O21            33.0959343306       -2.1088050059       14.7493256663  MEMB      61              0.0000000000
      7606        61  PMPE      C21            34.2886041343       -2.5006557890       14.5805425312  MEMB      61              0.0000000000
      7607        61  PMPE      O22            34.7852686626       -3.5881983371       14.7418957945  MEMB      61              0.0000000000
      7608        61  PMPE      C22            35.0489467092       -1.4227481620       14.1803668074  MEMB      61              0.0000000000
      7609        61  PMPE      H2R            35.5637473702       -0.9204862541       14.9924649576  MEMB      61              0.0000000000
      7610        61  PMPE      H2S            34.2652789069       -0.6527293868       13.7597922713  MEMB      61              0.0000000000
      7611        61  PMPE      C3             31.0525788300       -2.4839074740       15.4746416335  MEMB      61              0.0000000000
      7612        61  PMPE      HX             30.8475950427       -1.6574654481       16.1743969440  MEMB      61              0.0000000000
      7613        61  PMPE      HY             30.4099083422       -3.0403884542       16.2275552122  MEMB      61              0.0000000000
      7614        61  PMPE      O31            30.6884882244       -2.1726361030       14.0584982747  MEMB      61              0.0000000000
      7615        61  PMPE      C31            30.3415332388       -3.0610953087       13.1003687210  MEMB      61              0.0000000000
      7616        61  PMPE      O32            30.3085928657       -4.2712316475       13.1339003875  MEMB      61              0.0000000000
      7617        61  PMPE      C32            29.8714061170       -2.3470365181       11.8960832412  MEMB      61              0.0000000000
      7618        61  PMPE      H2X            29.8767912589       -1.2734987393       12.1583564287  MEMB      61              0.0000000000
      7619        61  PMPE      H2Y            28.8276724931       -2.5983268229       11.5931697595  MEMB      61              0.0000000000
      7620        61  PMPE      C23            36.3171712286       -2.0576290185       13.3809321604  MEMB      61              0.0000000000
      7621        61  PMPE      H3R            37.1573991702       -2.1383606526       13.9844212342  MEMB      61              0.0000000000
      7622        61  PMPE      H3S            36.9029403620       -1.4822009542       12.6292675456  MEMB      61              0.0000000000
      7623        61  PMPE      C24            36.2444003019       -3.0460543750       12.2154595558  MEMB      61              0.0000000000
      7624        61  PMPE      H4R            35.2148663712       -2.9123041988       11.6964371816  MEMB      61              0.0000000000
      7625        61  PMPE      H4S            35.9540637603       -3.9469125137       12.4867034133  MEMB      61              0.0000000000
      7626        61  PMPE      C25            37.5742457417       -2.9858170862       11.1183242926  MEMB      61              0.0000000000
      7627        61  PMPE      H5R            38.3208167709       -3.5033539992       11.5679826011  MEMB      61              0.0000000000
      7628        61  PMPE      H5S            38.0745626177       -1.9352882785       11.0749357668  MEMB      61              0.0000000000
      7629        61  PMPE      C26            37.1907854611       -3.3251672954        9.5823037006  MEMB      61              0.0000000000
      7630        61  PMPE      H6R            36.4181100009       -2.6977927043        9.0330187017  MEMB      61              0.0000000000
      7631        61  PMPE      H6S            36.7771971944       -4.2978791318        9.5806031574  MEMB      61              0.0000000000
      7632        61  PMPE      C27            38.3708630443       -3.1998991258        8.6364012646  MEMB      61              0.0000000000
      7633        61  PMPE      H7R            39.0450574548       -3.9927230579        8.8713578447  MEMB      61              0.0000000000
      7634        61  PMPE      H7S            38.9610628997       -2.2904273375        8.8695754116  MEMB      61              0.0000000000
      7635        61  PMPE      C28            38.1691420514       -3.2978434419        7.1480675135  MEMB      61              0.0000000000
      7636        61  PMPE      H8R            39.1795343866       -3.3629278281        6.7620997987  MEMB      61              0.0000000000
      7637        61  PMPE      H8S            37.9028878435       -2.4155819688        6.8175558076  MEMB      61              0.0000000000
      7638        61  PMPE      C29            37.1232998850       -4.1848750898        6.6128729238  MEMB      61              0.0000000000
      7639        61  PMPE      H9R            36.1006593173       -3.9544407348        6.9306928778  MEMB      61              0.0000000000
      7640        61  PMPE      C217           37.6316017714       -5.5726122896        6.9009807724  MEMB      61              0.0000000000
      7641        61  PMPE      H17R           36.8642685087       -6.1604545944        7.3755953359  MEMB      61              0.0000000000
      7642        61  PMPE      H17S           38.6902158184       -5.6551824525        7.1095338631  MEMB      61              0.0000000000
      7643        61  PMPE      C210           37.3610733343       -5.1208259951        5.4640111266  MEMB      61              0.0000000000
      7644        61  PMPE      H10R           36.4713197659       -5.5784288932        4.9963186689  MEMB      61              0.0000000000
      7645        61  PMPE      C211           38.5082386513       -4.7238466027        4.5304011008  MEMB      61              0.0000000000
      7646        61  PMPE      H11R           38.6164766859       -5.5541472739        3.7970765700  MEMB      61              0.0000000000
      7647        61  PMPE      H11S           39.4673627941       -4.6375399151        5.0879258286  MEMB      61              0.0000000000
      7648        61  PMPE      C212           38.2521591517       -3.4224982478        3.7377065955  MEMB      61              0.0000000000
      7649        61  PMPE      H12R           39.2096148720       -2.8694027203        3.6717012033  MEMB      61              0.0000000000
      7650        61  PMPE      H12S           37.5800364735       -2.7095346428        4.2386052693  MEMB      61              0.0000000000
      7651        61  PMPE      C213           37.7164037930       -3.7326453357        2.3384925629  MEMB      61              0.0000000000
      7652        61  PMPE      H13R           36.6855293626       -4.1102340931        2.3830762946  MEMB      61              0.0000000000
      7653        61  PMPE      H13S           38.3043120508       -4.5625799612        1.8936344755  MEMB      61              0.0000000000
      7654        61  PMPE      C214           37.6315550917       -2.5123405203        1.4378010783  MEMB      61              0.0000000000
      7655        61  PMPE      H14R           38.4414851205       -1.7803067388        1.6160220735  MEMB      61              0.0000000000
      7656        61  PMPE      H14S           36.7016036377       -1.9886747849        1.6310995453  MEMB      61              0.0000000000
      7657        61  PMPE      C215           37.5996356383       -2.8910959030       -0.0280067729  MEMB      61              0.0000000000
      7658        61  PMPE      H15R           36.6467506404       -3.4241140527       -0.2626834737  MEMB      61              0.0000000000
      7659        61  PMPE      H15S           38.4958782880       -3.4639539709       -0.3530242691  MEMB      61              0.0000000000
      7660        61  PMPE      C216           37.7009486163       -1.6726831828       -0.8500323760  MEMB      61              0.0000000000
      7661        61  PMPE      H16R           38.5542567984       -1.0723910003       -0.5916131013  MEMB      61              0.0000000000
      7662        61  PMPE      H16S           37.7736076261       -1.8849033428       -1.9472061005  MEMB      61              0.0000000000
      7663        61  PMPE      H16T           36.8665499461       -0.9547852579       -0.6727685929  MEMB      61              0.0000000000
      7664        61  PMPE      C33            30.8962249758       -2.9559429516       11.0064270655  MEMB      61              0.0000000000
      7665        61  PMPE      H3X            30.6416769409       -2.6614604403        9.9966832096  MEMB      61              0.0000000000
      7666        61  PMPE      H3Y            30.8345039909       -4.0682268661       10.9599132158  MEMB      61              0.0000000000
      7667        61  PMPE      C34            32.3038259409       -2.4396235583       11.2704830138  MEMB      61              0.0000000000
      7668        61  PMPE      H4X            33.0482559443       -3.1701140563       10.8923587115  MEMB      61              0.0000000000
      7669        61  PMPE      H4Y            32.5293676921       -2.2867549427       12.3398795766  MEMB      61              0.0000000000
      7670        61  PMPE      C35            32.4265723016       -1.1065432754       10.5988946694  MEMB      61              0.0000000000
      7671        61  PMPE      H5X            32.9564716712       -0.4054671687       11.1790860233  MEMB      61              0.0000000000
      7672        61  PMPE      H5Y            31.5564384382       -0.4651878701       10.7488803243  MEMB      61              0.0000000000
      7673        61  PMPE      C36            32.9280174651       -1.2568332281        9.1947802549  MEMB      61              0.0000000000
      7674        61  PMPE      H6X            32.1446828979       -1.7307717875        8.5814755093  MEMB      61              0.0000000000
      7675        61  PMPE      H6Y            33.7981640463       -1.9252209468        9.0570616112  MEMB      61              0.0000000000
      7676        61  PMPE      C37            33.2702864081        0.0974444527        8.7465288201  MEMB      61              0.0000000000
      7677        61  PMPE      H7X            33.9548827989        0.7077851923        9.2889151031  MEMB      61              0.0000000000
      7678        61  PMPE      H7Y            32.3922566336        0.7412744248        8.5349562263  MEMB      61              0.0000000000
      7679        61  PMPE      C38            33.7987137340        0.0529511079        7.4922590235  MEMB      61              0.0000000000
      7680        61  PMPE      H8X            33.8867639421        1.1829908782        7.3891843595  MEMB      61              0.0000000000
      7681        61  PMPE      H8Y            32.9305311063       -0.3533121215        6.9289664469  MEMB      61              0.0000000000
      7682        61  PMPE      C39            35.1517170567       -0.5111767983        6.9627563107  MEMB      61              0.0000000000
      7683        61  PMPE      H9X            35.3007887193       -1.6023524218        7.1220901734  MEMB      61              0.0000000000
      7684        61  PMPE      H9Y            35.7202489621        0.1184374063        7.0926342402  MEMB      61              0.0000000000
      7685        61  PMPE      C310           36.1250661260       -0.0809778591        5.5878913747  MEMB      61              0.0000000000
      7686        61  PMPE      H10X           36.7990150320       -0.8153720244        5.2143421268  MEMB      61              0.0000000000
      7687        61  PMPE      H10Y           36.3738914578        0.9529927700        5.5568130909  MEMB      61              0.0000000000
      7688        61  PMPE      C311           36.0162709293       -0.7567952760        4.3442873722  MEMB      61              0.0000000000
      7689        61  PMPE      H11X           35.9944359874       -0.0881702417        3.4130803233  MEMB      61              0.0000000000
      7690        61  PMPE      H11Y           35.1471608758       -0.0315286285        3.8482093297  MEMB      61              0.0000000000
      7691        61  PMPE      C312           35.0161550803       -2.9614547702        4.6580284270  MEMB      61              0.0000000000
      7692        61  PMPE      H12X           34.7214939846       -3.1114413643        5.6479149032  MEMB      61              0.0000000000
      7693        61  PMPE      H12Y           35.8510050143       -3.0545846041        4.1608443569  MEMB      61              0.0000000000
      7694        61  PMPE      C313           33.0439722753       -3.0710331322        4.0246555262  MEMB      61              0.0000000000
      7695        61  PMPE      H13X           32.3385914853       -2.3656174664        4.1115446585  MEMB      61              0.0000000000
      7696        61  PMPE      H13Y           33.1659072828       -4.1534841638        3.7981763248  MEMB      61              0.0000000000
      7697        61  PMPE      C314           32.5350351782       -1.9121126853        1.7557657360  MEMB      61              0.0000000000
      7698        61  PMPE      H14X           33.4927086765       -2.0052377527        0.8058572544  MEMB      61              0.0000000000
      7699        61  PMPE      H14Y           33.0893914503       -1.0092295426        1.3617657966  MEMB      61              0.0000000000
      7700        61  PMPE      C315           31.4750623275       -2.2695138035        1.2967939732  MEMB      61              0.0000000000
      7701        61  PMPE      H15X           31.4948530399       -1.4314458886        0.6484827259  MEMB      61              0.0000000000
      7702        61  PMPE      H15Y           31.0269240008       -2.1714355568        2.3010604970  MEMB      61              0.0000000000
      7703        61  PMPE      C316           31.5981727255       -3.6109791268        0.7167772268  MEMB      61              0.0000000000
      7704        61  PMPE      H16X           30.5980136323       -3.6374003135        0.3302799456  MEMB      61              0.0000000000
      7705        61  PMPE      H16Y           31.6933999939       -4.3886577184        1.5042125827  MEMB      61              0.0000000000
      7706        61  PMPE      H16Z           32.4087332441       -3.7574008347       -0.0286105815  MEMB      61              0.0000000000
      7707        62  PYPG      C13            13.5894083198      -31.6575092845       21.4881456850  MEMB      62              0.0000000000
      7708        62  PYPG      H13A           14.6352296781      -31.4598558800       21.6916257823  MEMB      62              0.0000000000
      7709        62  PYPG      H13B           13.1892840887      -30.7568512179       20.9945819507  MEMB      62              0.0000000000
      7710        62  PYPG      OC3            12.9525433213      -31.8050363128       22.7649409650  MEMB      62              0.0000000000
      7711        62  PYPG      HO3            12.0187905571      -31.6651752875       22.6097614274  MEMB      62              0.0000000000
      7712        62  PYPG      C12            13.5281674613      -32.8814320635       20.5322626760  MEMB      62              0.0000000000
      7713        62  PYPG      H12A           12.4879567628      -32.9621617369       20.1531713553  MEMB      62              0.0000000000
      7714        62  PYPG      OC2            13.8587782749      -34.0832140882       21.2256220823  MEMB      62              0.0000000000
      7715        62  PYPG      HO2            13.9183637347      -34.7536560532       20.5344026678  MEMB      62              0.0000000000
      7716        62  PYPG      C11            14.4708276375      -32.7884351451       19.2962981641  MEMB      62              0.0000000000
      7717        62  PYPG      H11A           14.3636093155      -33.7981998919       18.8224691528  MEMB      62              0.0000000000
      7718        62  PYPG      H11B           15.5193475942      -32.6637106995       19.6126774223  MEMB      62              0.0000000000
      7719        62  PYPG      P              14.4964595861      -31.9278944743       16.8612752241  MEMB      62              0.0000000000
      7720        62  PYPG      O13            15.8944082127      -32.3548673863       16.6484894397  MEMB      62              0.0000000000
      7721        62  PYPG      O14            14.0024168515      -30.7481363301       16.1450678082  MEMB      62              0.0000000000
      7722        62  PYPG      O11            13.5314575186      -33.1433664213       16.6763114431  MEMB      62              0.0000000000
      7723        62  PYPG      O12            14.1671345246      -31.7054459069       18.4063631728  MEMB      62              0.0000000000
      7724        62  PYPG      C1             12.2953475476      -33.0807251637       15.9859796195  MEMB      62              0.0000000000
      7725        62  PYPG      HA             11.8712071055      -32.0542505141       15.9275806263  MEMB      62              0.0000000000
      7726        62  PYPG      HB             11.5910982458      -33.7119908948       16.5767914742  MEMB      62              0.0000000000
      7727        62  PYPG      C2             12.4227816683      -33.7564759600       14.6091849725  MEMB      62              0.0000000000
      7728        62  PYPG      HS             11.5124214128      -34.3809122778       14.5005417708  MEMB      62              0.0000000000
      7729        62  PYPG      O21            13.6763628201      -34.4591857513       14.5894145613  MEMB      62              0.0000000000
      7730        62  PYPG      C21            13.8360120146      -35.5379681264       13.9080080766  MEMB      62              0.0000000000
      7731        62  PYPG      O22            12.9806796678      -36.1513458123       13.2947262611  MEMB      62              0.0000000000
      7732        62  PYPG      C22            15.3348279132      -35.8336762963       13.8338204069  MEMB      62              0.0000000000
      7733        62  PYPG      H2R            15.8213280711      -35.9963777978       14.8058618776  MEMB      62              0.0000000000
      7734        62  PYPG      H2S            15.7618264714      -34.8758496287       13.4998869680  MEMB      62              0.0000000000
      7735        62  PYPG      C3             12.3715022109      -32.8594969348       13.4320212325  MEMB      62              0.0000000000
      7736        62  PYPG      HX             11.4946334490      -32.1332489477       13.5238391124  MEMB      62              0.0000000000
      7737        62  PYPG      HY             12.2776070038      -33.5691975599       12.5322580322  MEMB      62              0.0000000000
      7738        62  PYPG      O31            13.6264958537      -32.1884573232       13.3261945426  MEMB      62              0.0000000000
      7739        62  PYPG      C31            13.4727010392      -31.7247966177       12.2227732993  MEMB      62              0.0000000000
      7740        62  PYPG      O32            12.3052469425      -31.7115500001       11.6791017940  MEMB      62              0.0000000000
      7741        62  PYPG      C32            14.9974759216      -30.9565579597       11.7314424328  MEMB      62              0.0000000000
      7742        62  PYPG      H2X            15.0415820152      -29.3927696036       11.3833539427  MEMB      62              0.0000000000
      7743        62  PYPG      H2Y            15.4966044551      -31.2118925096       12.7947171302  MEMB      62              0.0000000000
      7744        62  PYPG      C23            15.5612807621      -36.9853898311       12.8520977059  MEMB      62              0.0000000000
      7745        62  PYPG      H3R            14.9718742982      -36.8349450062       11.9197861405  MEMB      62              0.0000000000
      7746        62  PYPG      H3S            15.3832625254      -38.0035842214       13.2014476542  MEMB      62              0.0000000000
      7747        62  PYPG      C24            16.9092339634      -37.1074412547       12.3269780045  MEMB      62              0.0000000000
      7748        62  PYPG      H4R            17.7357921030      -37.4540511844       12.9458855029  MEMB      62              0.0000000000
      7749        62  PYPG      H4S            17.4909947801      -36.2339041555       12.5356711977  MEMB      62              0.0000000000
      7750        62  PYPG      C25            16.8153133460      -37.5667050706       10.8072706440  MEMB      62              0.0000000000
      7751        62  PYPG      H5R            16.6917644709      -38.4299988284       11.1397541041  MEMB      62              0.0000000000
      7752        62  PYPG      H5S            17.7384772763      -38.1660621818       10.4540230680  MEMB      62              0.0000000000
      7753        62  PYPG      C26            16.3029398228      -36.6240123967        9.6712384164  MEMB      62              0.0000000000
      7754        62  PYPG      H6R            16.8955721840      -35.6744595249        9.4135845678  MEMB      62              0.0000000000
      7755        62  PYPG      H6S            15.4133204133      -36.1985233239       10.0763991147  MEMB      62              0.0000000000
      7756        62  PYPG      C27            16.4850462947      -37.2417640943        8.2958805611  MEMB      62              0.0000000000
      7757        62  PYPG      H7R            15.8230678004      -38.1076483166        8.3046065331  MEMB      62              0.0000000000
      7758        62  PYPG      H7S            17.5338176956      -37.6254297924        8.1675780467  MEMB      62              0.0000000000
      7759        62  PYPG      C28            16.1877308749      -36.2553704317        7.1724957401  MEMB      62              0.0000000000
      7760        62  PYPG      H8R            16.3402910443      -36.7636274747        6.1995475217  MEMB      62              0.0000000000
      7761        62  PYPG      H8S            16.9607089951      -35.4467410068        7.1658301999  MEMB      62              0.0000000000
      7762        62  PYPG      C29            14.7532615007      -35.8095321619        7.3762189137  MEMB      62              0.0000000000
      7763        62  PYPG      H9R            14.2361565441      -36.2130221106        8.2800740457  MEMB      62              0.0000000000
      7764        62  PYPG      C210           14.1199049867      -34.8741157923        6.6512933856  MEMB      62              0.0000000000
      7765        62  PYPG      H10R           13.0576839569      -34.7499412416        6.8098290973  MEMB      62              0.0000000000
      7766        62  PYPG      C211           14.6063769514      -34.0423665674        5.4958725551  MEMB      62              0.0000000000
      7767        62  PYPG      H11R           15.7041425537      -33.9125067051        5.5331876014  MEMB      62              0.0000000000
      7768        62  PYPG      H11S           14.1764015103      -33.0097550005        5.5185527225  MEMB      62              0.0000000000
      7769        62  PYPG      C212           14.3417015136      -34.7509227009        4.1637719186  MEMB      62              0.0000000000
      7770        62  PYPG      H12R           14.8055257043      -35.7551255327        4.1836198315  MEMB      62              0.0000000000
      7771        62  PYPG      H12S           14.8462866897      -34.2229362276        3.3324202927  MEMB      62              0.0000000000
      7772        62  PYPG      C213           12.8939060589      -34.9023457236        3.7621375834  MEMB      62              0.0000000000
      7773        62  PYPG      H13R           12.2843031797      -34.0545773274        4.1040982475  MEMB      62              0.0000000000
      7774        62  PYPG      H13S           12.4362296384      -35.7589064254        4.1742895680  MEMB      62              0.0000000000
      7775        62  PYPG      C214           12.7493478138      -35.3576503980        2.3347155022  MEMB      62              0.0000000000
      7776        62  PYPG      H14R           13.5741288429      -36.0670155296        2.0684788645  MEMB      62              0.0000000000
      7777        62  PYPG      H14S           11.8161807476      -35.9241712763        2.2033512914  MEMB      62              0.0000000000
      7778        62  PYPG      C215           12.7491578473      -34.1446629762        1.4909495087  MEMB      62              0.0000000000
      7779        62  PYPG      H15R           12.9523157814      -33.2516263625        2.1365560089  MEMB      62              0.0000000000
      7780        62  PYPG      H15S           11.8185813168      -33.9697131555        0.8971566992  MEMB      62              0.0000000000
      7781        62  PYPG      C216           13.9146458177      -34.2262444770        0.6213744110  MEMB      62              0.0000000000
      7782        62  PYPG      H16R           13.8165901217      -33.2140554525        0.2021599036  MEMB      62              0.0000000000
      7783        62  PYPG      H16S           13.9104445686      -35.0315278549       -0.1567448350  MEMB      62              0.0000000000
      7784        62  PYPG      H16T           14.9148652077      -34.2043336413        1.0675341126  MEMB      62              0.0000000000
      7785        62  PYPG      C33            15.6798408192      -30.6687974682       10.4763100189  MEMB      62              0.0000000000
      7786        62  PYPG      H3X            16.1756303267      -29.6725486018       10.2381055940  MEMB      62              0.0000000000
      7787        62  PYPG      H3Y            15.0169313675      -30.7548833676        9.7067458387  MEMB      62              0.0000000000
      7788        62  PYPG      C34            16.3643247236      -31.7244525979       10.6166815665  MEMB      62              0.0000000000
      7789        62  PYPG      H4X            15.6723472172      -32.5582493251       10.8781021236  MEMB      62              0.0000000000
      7790        62  PYPG      H4Y            16.9535707024      -31.5236546258       11.5157768517  MEMB      62              0.0000000000
      7791        62  PYPG      C35            17.1432471241      -31.9252280362        9.4764788831  MEMB      62              0.0000000000
      7792        62  PYPG      H5X            16.5930797436      -31.5437270256        8.6254894096  MEMB      62              0.0000000000
      7793        62  PYPG      H5Y            17.2887618604      -33.0138388796        9.4403375372  MEMB      62              0.0000000000
      7794        62  PYPG      C36            18.3540326382      -31.1343019729        9.5512594012  MEMB      62              0.0000000000
      7795        62  PYPG      H6X            18.8700998925      -31.5042712701       10.4861747701  MEMB      62              0.0000000000
      7796        62  PYPG      H6Y            18.3527226447      -30.0440569474        9.5487586834  MEMB      62              0.0000000000
      7797        62  PYPG      C37            19.0037601666      -31.5429674538        8.3106313972  MEMB      62              0.0000000000
      7798        62  PYPG      H7X            19.9039613538      -31.0201825457        8.2301871753  MEMB      62              0.0000000000
      7799        62  PYPG      H7Y            19.2807478027      -32.5702262464        8.5429957728  MEMB      62              0.0000000000
      7800        62  PYPG      C38            18.9350052251      -30.9654405808        6.9780515954  MEMB      62              0.0000000000
      7801        62  PYPG      H8X            19.6159405314      -31.2866531537        6.2136294918  MEMB      62              0.0000000000
      7802        62  PYPG      H8Y            19.4069895195      -30.0778961267        6.8669942079  MEMB      62              0.0000000000
      7803        62  PYPG      C39            17.8677132956      -31.3725003462        6.2475649021  MEMB      62              0.0000000000
      7804        62  PYPG      H9X            17.2370618806      -30.5775055477        6.6211229684  MEMB      62              0.0000000000
      7805        62  PYPG      H9Y            17.6546888697      -32.3678414285        6.6332767624  MEMB      62              0.0000000000
      7806        62  PYPG      C310           18.1746776468      -31.3130826724        4.7771325771  MEMB      62              0.0000000000
      7807        62  PYPG      H10X           19.2177528516      -31.1259611483        4.3641803497  MEMB      62              0.0000000000
      7808        62  PYPG      H10Y           18.0937399089      -30.3760994151        4.7704161008  MEMB      62              0.0000000000
      7809        62  PYPG      C311           17.2619415805      -32.1968507424        4.0569366674  MEMB      62              0.0000000000
      7810        62  PYPG      H11X           16.2958821884      -31.9122447685        4.4677839285  MEMB      62              0.0000000000
      7811        62  PYPG      H11Y           17.5065451456      -33.2382053778        4.2961462433  MEMB      62              0.0000000000
      7812        62  PYPG      C312           17.1555840510      -32.1853010262        2.6097983255  MEMB      62              0.0000000000
      7813        62  PYPG      H12X           16.2906884929      -32.6049525268        2.1350264374  MEMB      62              0.0000000000
      7814        62  PYPG      H12Y           17.2820202810      -31.2692067733        2.2026373787  MEMB      62              0.0000000000
      7815        62  PYPG      C313           18.2113357986      -32.8001228540        2.0482572549  MEMB      62              0.0000000000
      7816        62  PYPG      H13X           19.0950144983      -32.1909606431        2.5015154472  MEMB      62              0.0000000000
      7817        62  PYPG      H13Y           18.2313495368      -33.8936370528        2.3729975404  MEMB      62              0.0000000000
      7818        62  PYPG      C314           18.2384221718      -32.6386591579        0.5753415727  MEMB      62              0.0000000000
      7819        62  PYPG      H14X           18.9700604604      -32.0030531795        0.1798803970  MEMB      62              0.0000000000
      7820        62  PYPG      H14Y           18.9829669924      -33.1444272344        0.6949522523  MEMB      62              0.0000000000
      7821        62  PYPG      C315           17.7202020904      -33.7333817758       -0.2420670236  MEMB      62              0.0000000000
      7822        62  PYPG      H15X           17.6864271828      -34.6933922399        0.2899658556  MEMB      62              0.0000000000
      7823        62  PYPG      H15Y           16.7494828869      -33.3345709202       -0.2515523644  MEMB      62              0.0000000000
      7824        62  PYPG      C316           18.3274303932      -33.9783941015       -1.5777183342  MEMB      62              0.0000000000
      7825        62  PYPG      H16X           17.7073896923      -34.8086278612       -1.9405692703  MEMB      62              0.0000000000
      7826        62  PYPG      H16Y           19.1438529693      -34.5706456394       -1.5420246296  MEMB      62              0.0000000000
      7827        62  PYPG      H16Z           18.3544493519      -33.1605868526       -2.3230515971  MEMB      62              0.0000000000
      7828        63  PYPG      C13            28.9949322502      -15.9527663300       19.8202717067  MEMB      63              0.0000000000
      7829        63  PYPG      H13A           29.3716232745      -14.9904061761       20.1957975877  MEMB      63              0.0000000000
      7830        63  PYPG      H13B           29.2540263837      -15.9623789816       18.7401338941  MEMB      63              0.0000000000
      7831        63  PYPG      OC3            27.5942717669      -15.9284437557       20.0692858179  MEMB      63              0.0000000000
      7832        63  PYPG      HO3            27.4405382664      -15.0644026653       20.4635249038  MEMB      63              0.0000000000
      7833        63  PYPG      C12            29.6454067724      -17.1765425511       20.4956525645  MEMB      63              0.0000000000
      7834        63  PYPG      H12A           29.1870048054      -17.2841794971       21.5041623476  MEMB      63              0.0000000000
      7835        63  PYPG      OC2            31.0383583375      -16.9528373602       20.6812337592  MEMB      63              0.0000000000
      7836        63  PYPG      HO2            31.3755953865      -17.8227088835       20.9514368740  MEMB      63              0.0000000000
      7837        63  PYPG      C11            29.3816539149      -18.4584165710       19.6572824802  MEMB      63              0.0000000000
      7838        63  PYPG      H11A           28.2965409756      -18.4154787974       19.3863896586  MEMB      63              0.0000000000
      7839        63  PYPG      H11B           29.5194293623      -19.3863376690       20.2530126085  MEMB      63              0.0000000000
      7840        63  PYPG      P              30.8400700678      -19.7583719907       17.8096314355  MEMB      63              0.0000000000
      7841        63  PYPG      O13            32.1610669011      -20.0019019660       18.4304113512  MEMB      63              0.0000000000
      7842        63  PYPG      O14            30.7953284328      -19.5842639243       16.3393653770  MEMB      63              0.0000000000
      7843        63  PYPG      O11            29.8255566545      -20.8741071102       18.2033948261  MEMB      63              0.0000000000
      7844        63  PYPG      O12            30.1758466191      -18.4774894481       18.4696705349  MEMB      63              0.0000000000
      7845        63  PYPG      C1             28.4667394413      -20.6260198565       17.8805003392  MEMB      63              0.0000000000
      7846        63  PYPG      HA             28.1651177308      -19.9229743147       17.1128624576  MEMB      63              0.0000000000
      7847        63  PYPG      HB             27.8774327710      -20.6708430984       18.8313330801  MEMB      63              0.0000000000
      7848        63  PYPG      C2             27.9688255578      -21.6990047489       17.2627497706  MEMB      63              0.0000000000
      7849        63  PYPG      HS             27.8862910482      -22.2973187148       18.2332433519  MEMB      63              0.0000000000
      7850        63  PYPG      O21            28.8744093974      -22.1196046768       16.0931539399  MEMB      63              0.0000000000
      7851        63  PYPG      C21            30.1158809920      -22.8013928727       16.2583698425  MEMB      63              0.0000000000
      7852        63  PYPG      O22            30.6629402124      -23.1905120575       17.2553624028  MEMB      63              0.0000000000
      7853        63  PYPG      C22            30.7012168342      -23.2276892553       15.0049774400  MEMB      63              0.0000000000
      7854        63  PYPG      H2R            30.2801402342      -24.1434085681       15.0154294001  MEMB      63              0.0000000000
      7855        63  PYPG      H2S            31.6258612410      -23.7868925243       15.0031927509  MEMB      63              0.0000000000
      7856        63  PYPG      C3             26.4999959131      -21.5834693246       16.8578837700  MEMB      63              0.0000000000
      7857        63  PYPG      HX             25.7644006533      -21.7913274657       17.6418695128  MEMB      63              0.0000000000
      7858        63  PYPG      HY             26.1453869678      -22.5529894944       16.7797805166  MEMB      63              0.0000000000
      7859        63  PYPG      O31            26.1943693896      -20.6482012329       15.8593883045  MEMB      63              0.0000000000
      7860        63  PYPG      C31            26.3249841949      -20.6374641571       14.5782313381  MEMB      63              0.0000000000
      7861        63  PYPG      O32            25.9546771396      -21.3579315316       13.6793365643  MEMB      63              0.0000000000
      7862        63  PYPG      C32            26.8655660261      -19.4127766342       14.1771369080  MEMB      63              0.0000000000
      7863        63  PYPG      H2X            25.9405097324      -19.3590485177       13.5521049856  MEMB      63              0.0000000000
      7864        63  PYPG      H2Y            26.7794008579      -18.6854460550       14.9671040685  MEMB      63              0.0000000000
      7865        63  PYPG      C23            30.3045976102      -22.4801348207       13.7704283308  MEMB      63              0.0000000000
      7866        63  PYPG      H3R            30.4626535577      -21.4579891383       14.0986437314  MEMB      63              0.0000000000
      7867        63  PYPG      H3S            29.2332936544      -22.6014868653       13.4752725972  MEMB      63              0.0000000000
      7868        63  PYPG      C24            31.3225405978      -22.6336748239       12.6590911223  MEMB      63              0.0000000000
      7869        63  PYPG      H4R            32.2915697626      -23.1129744973       12.9608389365  MEMB      63              0.0000000000
      7870        63  PYPG      H4S            31.5192162593      -21.6634672694       12.2828694737  MEMB      63              0.0000000000
      7871        63  PYPG      C25            30.7562484032      -23.1881919455       11.4227621489  MEMB      63              0.0000000000
      7872        63  PYPG      H5R            30.3879981926      -23.8398173048       12.1172647557  MEMB      63              0.0000000000
      7873        63  PYPG      H5S            31.4865041188      -23.6179979590       10.7305340939  MEMB      63              0.0000000000
      7874        63  PYPG      C26            29.5141017313      -22.9372979334       10.7176235942  MEMB      63              0.0000000000
      7875        63  PYPG      H6R            28.9652347094      -22.2980313107       11.3652850696  MEMB      63              0.0000000000
      7876        63  PYPG      H6S            28.7873592444      -23.7631797609       10.4080370985  MEMB      63              0.0000000000
      7877        63  PYPG      C27            30.0268107829      -22.4532391571        9.4415871921  MEMB      63              0.0000000000
      7878        63  PYPG      H7R            30.2531320885      -23.2437013152        8.7348156639  MEMB      63              0.0000000000
      7879        63  PYPG      H7S            31.0188119802      -21.9450524175        9.3929759054  MEMB      63              0.0000000000
      7880        63  PYPG      C28            28.7770020982      -21.7918474697        9.0774627527  MEMB      63              0.0000000000
      7881        63  PYPG      H8R            29.3041237457      -20.8722200084        8.7477623927  MEMB      63              0.0000000000
      7882        63  PYPG      H8S            28.0733876116      -21.2535649758        9.6357188961  MEMB      63              0.0000000000
      7883        63  PYPG      C29            28.0506530919      -21.9925886374        7.9436600814  MEMB      63              0.0000000000
      7884        63  PYPG      H9R            27.2630472931      -22.7636141711        7.8405429688  MEMB      63              0.0000000000
      7885        63  PYPG      C210           28.9125498673      -22.1283467393        7.0473681865  MEMB      63              0.0000000000
      7886        63  PYPG      H10R           27.9957059376      -22.4384108216        6.1340921527  MEMB      63              0.0000000000
      7887        63  PYPG      C211           30.8394160235      -22.2386059688        6.4761713354  MEMB      63              0.0000000000
      7888        63  PYPG      H11R           31.7105879735      -22.6512425759        7.1899184754  MEMB      63              0.0000000000
      7889        63  PYPG      H11S           30.7954107916      -21.1885884262        6.3354751404  MEMB      63              0.0000000000
      7890        63  PYPG      C212           31.0770667375      -23.5101650104        3.7064355172  MEMB      63              0.0000000000
      7891        63  PYPG      H12R           30.2914499761      -24.1918262929        3.5310126341  MEMB      63              0.0000000000
      7892        63  PYPG      H12S           31.4329177885      -22.7720434475        4.3373135475  MEMB      63              0.0000000000
      7893        63  PYPG      C213           28.9199217588      -22.7246327549        2.6719552789  MEMB      63              0.0000000000
      7894        63  PYPG      H13R           27.9942941225      -23.0420132866        3.3135901384  MEMB      63              0.0000000000
      7895        63  PYPG      H13S           29.0685801747      -23.2063339800        1.9244145445  MEMB      63              0.0000000000
      7896        63  PYPG      C214           28.8101332974      -20.8806340575        2.5513707302  MEMB      63              0.0000000000
      7897        63  PYPG      H14R           28.5529353648      -20.1544751834        3.5015496558  MEMB      63              0.0000000000
      7898        63  PYPG      H14S           29.8201188037      -20.3760208805        2.1828857588  MEMB      63              0.0000000000
      7899        63  PYPG      C215           28.1065568789      -20.3912028416        1.5814595466  MEMB      63              0.0000000000
      7900        63  PYPG      H15R           28.4477670758      -21.1654267852        0.8854856231  MEMB      63              0.0000000000
      7901        63  PYPG      H15S           28.4765246438      -19.4168781751        1.4146415659  MEMB      63              0.0000000000
      7902        63  PYPG      C216           26.7433454413      -20.2535984201        1.9598771573  MEMB      63              0.0000000000
      7903        63  PYPG      H16R           26.2422786207      -20.0713223023        1.0251257617  MEMB      63              0.0000000000
      7904        63  PYPG      H16S           26.4707221089      -19.5447583626        2.7563069748  MEMB      63              0.0000000000
      7905        63  PYPG      H16T           26.4269550421      -21.2060412532        2.2162409570  MEMB      63              0.0000000000
      7906        63  PYPG      C33            28.1967677296      -19.4461073429       13.3484486835  MEMB      63              0.0000000000
      7907        63  PYPG      H3X            28.2054461758      -20.3147992268       12.6560706664  MEMB      63              0.0000000000
      7908        63  PYPG      H3Y            29.0640681950      -19.5019183556       14.0009461467  MEMB      63              0.0000000000
      7909        63  PYPG      C34            28.7341240451      -18.1345902731       12.7398520508  MEMB      63              0.0000000000
      7910        63  PYPG      H4X            28.4330267653      -17.2170448786       13.2577124382  MEMB      63              0.0000000000
      7911        63  PYPG      H4Y            28.1267355875      -17.7215088471       12.1310432602  MEMB      63              0.0000000000
      7912        63  PYPG      C35            29.6241488832      -18.2444527956       11.5083704895  MEMB      63              0.0000000000
      7913        63  PYPG      H5X            29.4948308684      -17.4373902929       10.7348568638  MEMB      63              0.0000000000
      7914        63  PYPG      H5Y            29.4363714203      -19.2167418868       10.9991789126  MEMB      63              0.0000000000
      7915        63  PYPG      C36            30.9463128050      -18.0149827317       12.0268094896  MEMB      63              0.0000000000
      7916        63  PYPG      H6X            31.0206258841      -18.6550442170       12.9391194269  MEMB      63              0.0000000000
      7917        63  PYPG      H6Y            30.9191327992      -16.9199492690       12.2930063802  MEMB      63              0.0000000000
      7918        63  PYPG      C37            31.9711749073      -18.4140963763       10.9878492676  MEMB      63              0.0000000000
      7919        63  PYPG      H7X            32.9177574307      -18.0067891196       11.3705095486  MEMB      63              0.0000000000
      7920        63  PYPG      H7Y            32.1227184151      -19.5135644130       10.8993878442  MEMB      63              0.0000000000
      7921        63  PYPG      C38            31.7208793356      -17.9439011082        9.5472884023  MEMB      63              0.0000000000
      7922        63  PYPG      H8X            31.4100451966      -16.8879734674        9.4896696453  MEMB      63              0.0000000000
      7923        63  PYPG      H8Y            30.9162606051      -18.5774929946        9.0985616585  MEMB      63              0.0000000000
      7924        63  PYPG      C39            33.0163164417      -18.0967344118        8.7612594287  MEMB      63              0.0000000000
      7925        63  PYPG      H9X            33.1586262425      -19.1907990733        8.7902602027  MEMB      63              0.0000000000
      7926        63  PYPG      H9Y            33.8605992737      -17.6003743553        9.3072493362  MEMB      63              0.0000000000
      7927        63  PYPG      C310           33.0045401869      -17.5154623919        7.3466247785  MEMB      63              0.0000000000
      7928        63  PYPG      H10X           33.2268182905      -16.4445327045        7.5264759349  MEMB      63              0.0000000000
      7929        63  PYPG      H10Y           32.0209193892      -17.6038764806        6.8440990674  MEMB      63              0.0000000000
      7930        63  PYPG      C311           33.8950632974      -18.1466209224        6.3049334509  MEMB      63              0.0000000000
      7931        63  PYPG      H11X           34.9667302885      -18.2601032926        6.5441296148  MEMB      63              0.0000000000
      7932        63  PYPG      H11Y           33.9422140902      -17.5079585996        5.4020263717  MEMB      63              0.0000000000
      7933        63  PYPG      C312           33.3256468533      -19.4485496632        5.8330063587  MEMB      63              0.0000000000
      7934        63  PYPG      H12X           33.2237476530      -20.3401230108        6.4427017100  MEMB      63              0.0000000000
      7935        63  PYPG      H12Y           32.6047508723      -19.3866466513        5.0575304383  MEMB      63              0.0000000000
      7936        63  PYPG      C313           34.2057218054      -19.7924456944        4.9115157910  MEMB      63              0.0000000000
      7937        63  PYPG      H13X           34.4388510116      -18.9332340490        4.3391520305  MEMB      63              0.0000000000
      7938        63  PYPG      H13Y           35.1592950977      -19.8692832159        5.5125372943  MEMB      63              0.0000000000
      7939        63  PYPG      C314           33.7533534439      -21.0868682851        4.0230030451  MEMB      63              0.0000000000
      7940        63  PYPG      H14X           33.2626058012      -21.9821150365        5.0598900712  MEMB      63              0.0000000000
      7941        63  PYPG      H14Y           33.1771646869      -21.0657964223        3.8359477881  MEMB      63              0.0000000000
      7942        63  PYPG      C315           34.8567301432      -22.1212350213        2.3254973391  MEMB      63              0.0000000000
      7943        63  PYPG      H15X           36.0237010644      -21.9480353183        2.1559831260  MEMB      63              0.0000000000
      7944        63  PYPG      H15Y           36.0747962264      -22.6256337206        2.4596629830  MEMB      63              0.0000000000
      7945        63  PYPG      C316           34.4866347037      -22.7494496983        1.4128920701  MEMB      63              0.0000000000
      7946        63  PYPG      H16X           33.8383645910      -21.8226687273        1.3916887448  MEMB      63              0.0000000000
      7947        63  PYPG      H16Y           34.2049323427      -23.5683572519        2.1020546543  MEMB      63              0.0000000000
      7948        63  PYPG      H16Z           35.4049104504      -22.8090600222        0.8077715062  MEMB      63              0.0000000000
      7949        64  QMPE      N             -32.3355778226       11.1170674332       20.6913718865  MEMB      64              0.0000000000
      7950        64  QMPE      HN1           -31.8865231879       10.1681627817       20.7795188370  MEMB      64              0.0000000000
      7951        64  QMPE      HN2           -31.6389513721       11.8773181886       20.8748838084  MEMB      64              0.0000000000
      7952        64  QMPE      HN3           -33.0993242045       11.2120399388       21.4000114912  MEMB      64              0.0000000000
      7953        64  QMPE      C12           -33.0138145699       11.1515433793       19.3281908170  MEMB      64              0.0000000000
      7954        64  QMPE      H12A          -32.3767396078       10.5871496569       18.6091370164  MEMB      64              0.0000000000
      7955        64  QMPE      H12B          -33.1148751746       12.2088901178       19.0220888648  MEMB      64              0.0000000000
      7956        64  QMPE      C11           -34.4504258407       10.5719004152       19.2879752187  MEMB      64              0.0000000000
      7957        64  QMPE      H11A          -34.8867733753       10.7764375621       18.2749153954  MEMB      64              0.0000000000
      7958        64  QMPE      H11B          -35.1560416658       11.0835222371       19.9744662373  MEMB      64              0.0000000000
      7959        64  QMPE      P             -34.7122320774        8.0606844608       18.5563429245  MEMB      64              0.0000000000
      7960        64  QMPE      O13           -36.1350217583        8.0636372162       18.1857887653  MEMB      64              0.0000000000
      7961        64  QMPE      O14           -34.0476937239        6.8441052533       19.0668751553  MEMB      64              0.0000000000
      7962        64  QMPE      O11           -33.9053671989        8.6179606971       17.2865097249  MEMB      64              0.0000000000
      7963        64  QMPE      O12           -34.4393264260        9.1944635356       19.6273847414  MEMB      64              0.0000000000
      7964        64  QMPE      C1            -33.0204804148        7.7017786298       16.6281867391  MEMB      64              0.0000000000
      7965        64  QMPE      HA            -33.2308770042        6.6261403109       16.8590374155  MEMB      64              0.0000000000
      7966        64  QMPE      HB            -32.0158780345        7.8873270043       17.0333949700  MEMB      64              0.0000000000
      7967        64  QMPE      C2            -33.0595838921        7.8078926803       15.0717412861  MEMB      64              0.0000000000
      7968        64  QMPE      HS            -32.3836641912        7.0060839761       14.6832908604  MEMB      64              0.0000000000
      7969        64  QMPE      O21           -32.6568281971        9.1047850472       14.5807847721  MEMB      64              0.0000000000
      7970        64  QMPE      C21           -31.4448534759        9.5260954642       14.8563469497  MEMB      64              0.0000000000
      7971        64  QMPE      O22           -30.5918823046        8.9776271016       15.5156278979  MEMB      64              0.0000000000
      7972        64  QMPE      C22           -31.2091581146       10.8605195328       14.1738733403  MEMB      64              0.0000000000
      7973        64  QMPE      H2R           -30.6177181731       11.4774101878       14.8830810965  MEMB      64              0.0000000000
      7974        64  QMPE      H2S           -32.1716573323       11.3584313734       14.1182044395  MEMB      64              0.0000000000
      7975        64  QMPE      C3            -34.5092194841        7.4965337598       14.5681746571  MEMB      64              0.0000000000
      7976        64  QMPE      HX            -35.1284163763        8.2224005924       15.1318782571  MEMB      64              0.0000000000
      7977        64  QMPE      HY            -34.8523896371        6.4815641918       14.8723062792  MEMB      64              0.0000000000
      7978        64  QMPE      O31           -34.7448518352        7.7272017547       13.1611152442  MEMB      64              0.0000000000
      7979        64  QMPE      C31           -34.2555810453        6.7713234336       12.3919214901  MEMB      64              0.0000000000
      7980        64  QMPE      O32           -33.6803428432        5.7911099363       12.7666483562  MEMB      64              0.0000000000
      7981        64  QMPE      C32           -34.5254574248        7.0376719410       10.9348304009  MEMB      64              0.0000000000
      7982        64  QMPE      H2X           -35.2762550747        7.8367029052       10.9508959694  MEMB      64              0.0000000000
      7983        64  QMPE      H2Y           -33.5696056550        7.2658367944       10.4031134336  MEMB      64              0.0000000000
      7984        64  QMPE      C23           -30.5783531648       10.5884491680       12.8009706024  MEMB      64              0.0000000000
      7985        64  QMPE      H3R           -29.9450869058        9.6568552706       12.9271602332  MEMB      64              0.0000000000
      7986        64  QMPE      H3S           -29.9768689177       11.4795456459       12.4997212827  MEMB      64              0.0000000000
      7987        64  QMPE      C24           -31.4380814055       10.2467857434       11.6027504620  MEMB      64              0.0000000000
      7988        64  QMPE      H4R           -31.9325585745        9.3026432729       11.8860616460  MEMB      64              0.0000000000
      7989        64  QMPE      H4S           -30.8380635513       10.0481194904       10.6788117172  MEMB      64              0.0000000000
      7990        64  QMPE      C25           -32.4827136956       11.2844958329       11.2706949611  MEMB      64              0.0000000000
      7991        64  QMPE      H5R           -32.0450129921       12.2981016903       11.2327528440  MEMB      64              0.0000000000
      7992        64  QMPE      H5S           -33.2450588604       11.2906524150       12.0794070481  MEMB      64              0.0000000000
      7993        64  QMPE      C26           -33.0557969850       10.9774339665        9.8976012931  MEMB      64              0.0000000000
      7994        64  QMPE      H6R           -34.1177131240       11.2537667007        9.8741379219  MEMB      64              0.0000000000
      7995        64  QMPE      H6S           -33.0909336223        9.8869021672        9.7254751134  MEMB      64              0.0000000000
      7996        64  QMPE      C27           -32.3072830678       11.6688371335        8.7592110067  MEMB      64              0.0000000000
      7997        64  QMPE      H7R           -32.5330328772       11.0932997038        7.8397014362  MEMB      64              0.0000000000
      7998        64  QMPE      H7S           -31.2052287182       11.6852491217        8.9315174124  MEMB      64              0.0000000000
      7999        64  QMPE      C28           -32.8120720271       13.0842309460        8.5324620364  MEMB      64              0.0000000000
      8000        64  QMPE      H8R           -32.3735944974       13.7202342612        9.2990516962  MEMB      64              0.0000000000
      8001        64  QMPE      H8S           -33.8894335824       13.1872160711        8.6238474350  MEMB      64              0.0000000000
      8002        64  QMPE      C29           -32.4043631647       13.6054419493        7.1998673982  MEMB      64              0.0000000000
      8003        64  QMPE      H9R           -31.3236246143       13.7551641531        7.2230467891  MEMB      64              0.0000000000
      8004        64  QMPE      C217          -33.4079404407       14.6012917082        6.4992604551  MEMB      64              0.0000000000
      8005        64  QMPE      H17R          -34.2464019739       14.8008404858        7.0726397554  MEMB      64              0.0000000000
      8006        64  QMPE      H17S          -33.0182556615       15.5468907995        6.1309701864  MEMB      64              0.0000000000
      8007        64  QMPE      C210          -33.0346481690       13.2783935451        5.8606841131  MEMB      64              0.0000000000
      8008        64  QMPE      H10R          -32.4397351019       13.2939130163        4.9716877693  MEMB      64              0.0000000000
      8009        64  QMPE      C211          -34.0684173640       12.2745603031        5.8041916366  MEMB      64              0.0000000000
      8010        64  QMPE      H11R          -33.8627028483       11.3247404621        6.2385435723  MEMB      64              0.0000000000
      8011        64  QMPE      H11S          -34.6537647853       12.7717580865        6.4745410750  MEMB      64              0.0000000000
      8012        64  QMPE      C212          -34.6512500354       12.0334710681        4.4627870900  MEMB      64              0.0000000000
      8013        64  QMPE      H12R          -34.9784977832       13.0411880164        4.1292631015  MEMB      64              0.0000000000
      8014        64  QMPE      H12S          -35.4583003153       11.2411462216        4.5608113164  MEMB      64              0.0000000000
      8015        64  QMPE      C213          -33.7637835317       11.6698241743        3.3404818661  MEMB      64              0.0000000000
      8016        64  QMPE      H13R          -33.1871086488       10.8301969704        3.7320810212  MEMB      64              0.0000000000
      8017        64  QMPE      H13S          -33.1066922206       12.5237003569        3.1052928411  MEMB      64              0.0000000000
      8018        64  QMPE      C214          -34.4985801294       11.1927296510        2.0877952159  MEMB      64              0.0000000000
      8019        64  QMPE      H14R          -34.8884309009       12.0651789998        1.5205753167  MEMB      64              0.0000000000
      8020        64  QMPE      H14S          -35.3303147839       10.5244594238        2.4092946214  MEMB      64              0.0000000000
      8021        64  QMPE      C215          -33.6130618828       10.4327788698        1.0894543467  MEMB      64              0.0000000000
      8022        64  QMPE      H15R          -34.1298953896       10.3126053246        0.1169084017  MEMB      64              0.0000000000
      8023        64  QMPE      H15S          -33.4655473189        9.3821352221        1.3951490672  MEMB      64              0.0000000000
      8024        64  QMPE      C216          -32.2680444123       11.0851323747        0.7891534236  MEMB      64              0.0000000000
      8025        64  QMPE      H16R          -31.6171913560       11.1307533051        1.6900345282  MEMB      64              0.0000000000
      8026        64  QMPE      H16S          -32.4384313515       12.1236801879        0.4288107453  MEMB      64              0.0000000000
      8027        64  QMPE      H16T          -31.7769482488       10.4747002022       -0.0049725529  MEMB      64              0.0000000000
      8028        64  QMPE      C33           -35.2109758669        5.9202614045       10.1546401804  MEMB      64              0.0000000000
      8029        64  QMPE      H3X           -36.2806501538        5.7784860423       10.4071283050  MEMB      64              0.0000000000
      8030        64  QMPE      H3Y           -34.6182144734        5.0457946922       10.2912481207  MEMB      64              0.0000000000
      8031        64  QMPE      C34           -35.0309025116        6.0425181077        8.6692874086  MEMB      64              0.0000000000
      8032        64  QMPE      H4X           -35.4157139623        5.1327062804        8.2098949160  MEMB      64              0.0000000000
      8033        64  QMPE      H4Y           -33.9350732641        6.0978626299        8.4783086572  MEMB      64              0.0000000000
      8034        64  QMPE      C35           -35.6930486500        7.2836563081        8.1315641888  MEMB      64              0.0000000000
      8035        64  QMPE      H5X           -35.0811951573        8.1042354609        8.5464972526  MEMB      64              0.0000000000
      8036        64  QMPE      H5Y           -36.7344278041        7.4492681695        8.4938237043  MEMB      64              0.0000000000
      8037        64  QMPE      C36           -35.7897296785        7.2600049323        6.6103282869  MEMB      64              0.0000000000
      8038        64  QMPE      H6X           -36.1414333601        8.2439445203        6.2289337571  MEMB      64              0.0000000000
      8039        64  QMPE      H6Y           -36.5747323600        6.4976784993        6.4109833264  MEMB      64              0.0000000000
      8040        64  QMPE      C37           -34.5434354604        6.8839240947        5.8159169469  MEMB      64              0.0000000000
      8041        64  QMPE      H7X           -34.2534667614        5.8132331710        5.9206253090  MEMB      64              0.0000000000
      8042        64  QMPE      H7Y           -34.7931409740        7.0428203020        4.7338318693  MEMB      64              0.0000000000
      8043        64  QMPE      C38           -33.3175794448        7.6942109174        6.1817741329  MEMB      64              0.0000000000
      8044        64  QMPE      H8X           -33.4845808953        8.7766066230        6.3300861905  MEMB      64              0.0000000000
      8045        64  QMPE      H8Y           -32.8315365111        7.3728764425        7.1240421335  MEMB      64              0.0000000000
      8046        64  QMPE      C39           -32.3638928317        7.4763147182        5.0740399758  MEMB      64              0.0000000000
      8047        64  QMPE      H9X           -32.6508637216        8.0412174616        4.1840514150  MEMB      64              0.0000000000
      8048        64  QMPE      H9Y           -32.3354588319        6.3906758005        4.7821184401  MEMB      64              0.0000000000
      8049        64  QMPE      C310          -31.0585293775        7.9558519725        5.5098855149  MEMB      64              0.0000000000
      8050        64  QMPE      H10X          -30.5506451042        7.6197959833        4.5621656799  MEMB      64              0.0000000000
      8051        64  QMPE      H10Y          -30.7476980845        7.3692646602        6.4250631049  MEMB      64              0.0000000000
      8052        64  QMPE      C311          -30.6231684966        9.4285829487        5.6927616407  MEMB      64              0.0000000000
      8053        64  QMPE      H11X          -31.1025397666        9.8858394165        6.5587703233  MEMB      64              0.0000000000
      8054        64  QMPE      H11Y          -30.9389457478        9.8878934303        4.7407075121  MEMB      64              0.0000000000
      8055        64  QMPE      C312          -29.1176440524        9.7610668368        5.8592384190  MEMB      64              0.0000000000
      8056        64  QMPE      H12X          -28.7545534233        9.8716150332        4.8289947038  MEMB      64              0.0000000000
      8057        64  QMPE      H12Y          -28.5558003676        8.9747498469        6.4060350094  MEMB      64              0.0000000000
      8058        64  QMPE      C313          -28.6061933308       11.0922871172        6.3729542879  MEMB      64              0.0000000000
      8059        64  QMPE      H13X          -28.9568122174       11.2642679384        7.4049106520  MEMB      64              0.0000000000
      8060        64  QMPE      H13Y          -27.4854572656       11.0403997495        6.4038337000  MEMB      64              0.0000000000
      8061        64  QMPE      C314          -29.0161131705       12.2489282771        5.5115484784  MEMB      64              0.0000000000
      8062        64  QMPE      H14X          -29.1166744873       13.1084533091        6.1969252960  MEMB      64              0.0000000000
      8063        64  QMPE      H14Y          -30.0411958337       12.0865387981        5.0949282509  MEMB      64              0.0000000000
      8064        64  QMPE      C315          -27.9696662437       12.7381480148        4.5325674505  MEMB      64              0.0000000000
      8065        64  QMPE      H15X          -28.3101764500       13.6619800028        3.9925172827  MEMB      64              0.0000000000
      8066        64  QMPE      H15Y          -27.0397487366       12.8854080700        5.1200383829  MEMB      64              0.0000000000
      8067        64  QMPE      H15Z          -27.6856760648       11.9574266130        3.8346651309  MEMB      64              0.0000000000
      8068        65  POPE      N             -36.2924728255      -13.3414548633       19.3716758401  MEMB      65              0.0000000000
      8069        65  POPE      HN1           -36.2394045967      -13.1604692217       20.3816363552  MEMB      65              0.0000000000
      8070        65  POPE      HN2           -37.1617502186      -13.8857292353       19.1527319678  MEMB      65              0.0000000000
      8071        65  POPE      HN3           -35.4660183840      -13.9172464102       19.1073296985  MEMB      65              0.0000000000
      8072        65  POPE      C12           -36.1802393984      -12.0297331370       18.6175560034  MEMB      65              0.0000000000
      8073        65  POPE      H12A          -37.1640874776      -11.5500383120       18.5443931236  MEMB      65              0.0000000000
      8074        65  POPE      H12B          -35.8692007606      -12.3452338647       17.6125828038  MEMB      65              0.0000000000
      8075        65  POPE      C11           -35.0668726567      -11.0524960554       19.0125358660  MEMB      65              0.0000000000
      8076        65  POPE      H11A          -35.3182399831      -10.4748397905       19.8476073532  MEMB      65              0.0000000000
      8077        65  POPE      H11B          -35.0077958399      -10.2352866184       18.2418829444  MEMB      65              0.0000000000
      8078        65  POPE      P             -32.5314476058      -10.8830316727       19.0155344180  MEMB      65              0.0000000000
      8079        65  POPE      O13           -31.3779120515      -11.7980031254       19.1124446602  MEMB      65              0.0000000000
      8080        65  POPE      O14           -32.5531394169       -9.7040198462       19.8909041934  MEMB      65              0.0000000000
      8081        65  POPE      O11           -32.8330107419      -10.4530770655       17.5533550296  MEMB      65              0.0000000000
      8082        65  POPE      O12           -33.8481916043      -11.7478744295       19.2939984903  MEMB      65              0.0000000000
      8083        65  POPE      C1            -32.0062799685       -9.4202985917       17.0108223672  MEMB      65              0.0000000000
      8084        65  POPE      HA            -30.9337175840       -9.6908710425       17.0972288472  MEMB      65              0.0000000000
      8085        65  POPE      HB            -32.1869106508       -8.4100137396       17.4726976434  MEMB      65              0.0000000000
      8086        65  POPE      C2            -32.2371884275       -9.3868466844       15.5020048383  MEMB      65              0.0000000000
      8087        65  POPE      HS            -31.6745388567       -8.5237607438       15.0811740424  MEMB      65              0.0000000000
      8088        65  POPE      O21           -33.6387598601       -9.1427312658       15.3072264027  MEMB      65              0.0000000000
      8089        65  POPE      C21           -33.9843019594       -9.0546109321       14.0395675521  MEMB      65              0.0000000000
      8090        65  POPE      O22           -33.2203019736       -9.0610799624       13.0915966122  MEMB      65              0.0000000000
      8091        65  POPE      C22           -35.4931267505       -8.9291880457       13.9069055206  MEMB      65              0.0000000000
      8092        65  POPE      H2R           -35.8265275679       -7.8721927249       13.9825881667  MEMB      65              0.0000000000
      8093        65  POPE      H2S           -35.9572370352       -9.5739388454       14.6844358349  MEMB      65              0.0000000000
      8094        65  POPE      C3            -31.7976047981      -10.7520146402       14.8687206773  MEMB      65              0.0000000000
      8095        65  POPE      HX            -30.7567748847      -11.0039692742       15.1516669646  MEMB      65              0.0000000000
      8096        65  POPE      HY            -31.8089548273      -10.7173858507       13.7645211484  MEMB      65              0.0000000000
      8097        65  POPE      O31           -32.7230047474      -11.7779610882       15.2700154701  MEMB      65              0.0000000000
      8098        65  POPE      C31           -32.2326673235      -12.9972677684       15.2385273577  MEMB      65              0.0000000000
      8099        65  POPE      O32           -31.0751595744      -13.2971276147       15.0051839553  MEMB      65              0.0000000000
      8100        65  POPE      C32           -33.2991780466      -14.0227919848       15.5140877396  MEMB      65              0.0000000000
      8101        65  POPE      H2X           -33.8113737098      -13.7024445138       16.4448862973  MEMB      65              0.0000000000
      8102        65  POPE      H2Y           -32.8152090279      -15.0295092939       15.6209319297  MEMB      65              0.0000000000
      8103        65  POPE      C23           -35.9220884685       -9.2914100800       12.4901151988  MEMB      65              0.0000000000
      8104        65  POPE      H3R           -35.3110922499       -8.7197211574       11.7467194225  MEMB      65              0.0000000000
      8105        65  POPE      H3S           -36.9692993004       -8.9549675287       12.3996944220  MEMB      65              0.0000000000
      8106        65  POPE      C24           -35.7646311897      -10.7744091208       12.2260405488  MEMB      65              0.0000000000
      8107        65  POPE      H4R           -35.2425403255      -11.1803120923       13.1126267094  MEMB      65              0.0000000000
      8108        65  POPE      H4S           -35.1164937974      -10.8168162287       11.3170379410  MEMB      65              0.0000000000
      8109        65  POPE      C25           -37.0531393692      -11.5499692479       11.9890539944  MEMB      65              0.0000000000
      8110        65  POPE      H5R           -37.5147563044      -10.9529688037       11.1619062206  MEMB      65              0.0000000000
      8111        65  POPE      H5S           -37.7619955406      -11.5189082930       12.8386386203  MEMB      65              0.0000000000
      8112        65  POPE      C26           -36.7663489513      -13.0212167399       11.6967035774  MEMB      65              0.0000000000
      8113        65  POPE      H6R           -36.9232312241      -13.7380021749       12.5566290131  MEMB      65              0.0000000000
      8114        65  POPE      H6S           -35.7521211995      -13.2135918011       11.3199857877  MEMB      65              0.0000000000
      8115        65  POPE      C27           -37.6137720383      -13.4532115777       10.5985356771  MEMB      65              0.0000000000
      8116        65  POPE      H7R           -38.6982885251      -13.1127421594       10.8101694179  MEMB      65              0.0000000000
      8117        65  POPE      H7S           -37.3797342631      -14.6048781431       10.6416825682  MEMB      65              0.0000000000
      8118        65  POPE      C28           -37.3824590669      -13.1812801757        9.1478193992  MEMB      65              0.0000000000
      8119        65  POPE      H8R           -37.8332499517      -14.0055573057        8.5385354554  MEMB      65              0.0000000000
      8120        65  POPE      H8S           -36.2837176649      -13.2877209163        9.1036648144  MEMB      65              0.0000000000
      8121        65  POPE      C29           -37.9806138703      -11.8723459325        8.7007184054  MEMB      65              0.0000000000
      8122        65  POPE      H91           -39.0600555087      -11.7085307377        8.8757789671  MEMB      65              0.0000000000
      8123        65  POPE      C210          -37.2963928108      -10.9015170350        8.0945041636  MEMB      65              0.0000000000
      8124        65  POPE      H101          -37.8394084663      -10.0120924710        7.7268760709  MEMB      65              0.0000000000
      8125        65  POPE      C211          -35.8279166034      -10.9387659316        7.7525749144  MEMB      65              0.0000000000
      8126        65  POPE      H11R          -35.3818251059      -11.9405366136        7.5816629702  MEMB      65              0.0000000000
      8127        65  POPE      H11S          -35.2669276103      -10.5296262072        8.6178428902  MEMB      65              0.0000000000
      8128        65  POPE      C212          -35.5906215203      -10.1784267009        6.4447657927  MEMB      65              0.0000000000
      8129        65  POPE      H12R          -34.5135169782      -10.1503289514        6.1694119814  MEMB      65              0.0000000000
      8130        65  POPE      H12S          -35.9667354384       -9.1426017322        6.5844155138  MEMB      65              0.0000000000
      8131        65  POPE      C213          -36.1754775785      -10.8181119809        5.1890490392  MEMB      65              0.0000000000
      8132        65  POPE      H13R          -37.2600976567      -10.9909883152        5.3109129133  MEMB      65              0.0000000000
      8133        65  POPE      H13S          -35.6958504092      -11.8156646449        5.0375973375  MEMB      65              0.0000000000
      8134        65  POPE      C214          -35.8842918222       -9.8939538910        4.0025398534  MEMB      65              0.0000000000
      8135        65  POPE      H14R          -34.8222836430       -9.5846036006        3.9269901514  MEMB      65              0.0000000000
      8136        65  POPE      H14S          -36.5967572548       -9.0359074863        3.9841085769  MEMB      65              0.0000000000
      8137        65  POPE      C215          -36.0346278519      -10.5672376592        2.7110367791  MEMB      65              0.0000000000
      8138        65  POPE      H15R          -37.0927673584      -10.5033363863        2.5655686967  MEMB      65              0.0000000000
      8139        65  POPE      H15S          -35.6760755412      -11.6118628449        2.7892005549  MEMB      65              0.0000000000
      8140        65  POPE      C216          -35.3693562306       -9.9236929405        1.5800041166  MEMB      65              0.0000000000
      8141        65  POPE      H16R          -34.2766024400      -10.0339824018        1.7678340232  MEMB      65              0.0000000000
      8142        65  POPE      H16S          -35.6613987539       -8.8737055859        1.3634080787  MEMB      65              0.0000000000
      8143        65  POPE      C217          -35.7663070382      -10.7413102744        0.4585703291  MEMB      65              0.0000000000
      8144        65  POPE      H17R          -35.4376732796      -11.8057989390        0.4319359118  MEMB      65              0.0000000000
      8145        65  POPE      H17S          -35.3553532629      -10.0038306858       -0.2231727296  MEMB      65              0.0000000000
      8146        65  POPE      C218          -36.9438732467      -10.6351905339       -0.2368183601  MEMB      65              0.0000000000
      8147        65  POPE      H18R          -37.7707311562      -10.6482576647        0.3511355005  MEMB      65              0.0000000000
      8148        65  POPE      H18S          -37.0532978881      -11.6356007562       -0.7397329562  MEMB      65              0.0000000000
      8149        65  POPE      H18T          -36.9896471690       -9.7186964452       -0.9107916545  MEMB      65              0.0000000000
      8150        65  POPE      C33           -34.2197484539      -14.0665091939       14.2900363902  MEMB      65              0.0000000000
      8151        65  POPE      H3X           -34.3467490629      -13.0845703506       13.7727209946  MEMB      65              0.0000000000
      8152        65  POPE      H3Y           -35.2195117672      -14.3794862104       14.6175292182  MEMB      65              0.0000000000
      8153        65  POPE      C34           -33.8338886612      -15.2024156775       13.3589600060  MEMB      65              0.0000000000
      8154        65  POPE      H4X           -34.6780443929      -15.3686404755       12.6504050152  MEMB      65              0.0000000000
      8155        65  POPE      H4Y           -33.7052293354      -16.1193480033       13.9828818910  MEMB      65              0.0000000000
      8156        65  POPE      C35           -32.5499830106      -14.8710182409       12.6269174976  MEMB      65              0.0000000000
      8157        65  POPE      H5X           -31.6560520451      -15.1310533198       13.2194047227  MEMB      65              0.0000000000
      8158        65  POPE      H5Y           -32.5458038751      -13.8110870817       12.3351032009  MEMB      65              0.0000000000
      8159        65  POPE      C36           -32.3569988988      -15.7041766141       11.4598482165  MEMB      65              0.0000000000
      8160        65  POPE      H6X           -32.1738348410      -16.6597402102       11.9996168705  MEMB      65              0.0000000000
      8161        65  POPE      H6Y           -31.3988804197      -15.6670595695       10.9224781754  MEMB      65              0.0000000000
      8162        65  POPE      C37           -33.5934844424      -15.6063760802       10.5402324468  MEMB      65              0.0000000000
      8163        65  POPE      H7X           -34.0202334220      -14.6635901054       10.3412759610  MEMB      65              0.0000000000
      8164        65  POPE      H7Y           -34.4015747932      -16.3218253632       10.7159142146  MEMB      65              0.0000000000
      8165        65  POPE      C38           -33.3847803154      -15.9634668634        9.1896892824  MEMB      65              0.0000000000
      8166        65  POPE      H8X           -32.5120590529      -16.6597629997        9.3817198317  MEMB      65              0.0000000000
      8167        65  POPE      H8Y           -32.5409003384      -15.4932635379        8.6582856157  MEMB      65              0.0000000000
      8168        65  POPE      C39           -34.7420982707      -16.4528067966        8.2144031484  MEMB      65              0.0000000000
      8169        65  POPE      H9X           -35.3198603261      -15.6147750119        8.0270011596  MEMB      65              0.0000000000
      8170        65  POPE      H9Y           -35.3817243547      -17.2364304097        8.5948218162  MEMB      65              0.0000000000
      8171        65  POPE      C310          -34.6862465835      -17.0678168111        6.6607318711  MEMB      65              0.0000000000
      8172        65  POPE      H10X          -35.4379566742      -17.4606274999        6.1684876287  MEMB      65              0.0000000000
      8173        65  POPE      H10Y          -34.3017491690      -18.1666316409        6.4553419820  MEMB      65              0.0000000000
      8174        65  POPE      C311          -33.9601323826      -16.2256519425        5.7176528996  MEMB      65              0.0000000000
      8175        65  POPE      H11X          -33.7663171820      -16.8538472529        4.9550815115  MEMB      65              0.0000000000
      8176        65  POPE      H11Y          -33.0691688001      -15.7035883174        6.0958227189  MEMB      65              0.0000000000
      8177        65  POPE      C312          -34.6084642593      -15.0768494609        5.4551044707  MEMB      65              0.0000000000
      8178        65  POPE      H12X          -34.5296450306      -14.5494880387        6.4267770118  MEMB      65              0.0000000000
      8179        65  POPE      H12Y          -35.6036889296      -15.4849952111        5.2909495970  MEMB      65              0.0000000000
      8180        65  POPE      C313          -33.8938547144      -14.3679559078        4.3512983082  MEMB      65              0.0000000000
      8181        65  POPE      H13X          -34.7246757919      -13.6988244020        4.0817404061  MEMB      65              0.0000000000
      8182        65  POPE      H13Y          -33.6157461827      -15.0537142361        3.5114450598  MEMB      65              0.0000000000
      8183        65  POPE      C314          -32.7669831193      -13.4465370727        4.8511050146  MEMB      65              0.0000000000
      8184        65  POPE      H14X          -32.1182518069      -13.9592406195        5.5916191431  MEMB      65              0.0000000000
      8185        65  POPE      H14Y          -33.2619299200      -12.6134631346        5.4044667706  MEMB      65              0.0000000000
      8186        65  POPE      C315          -31.7856776680      -12.9357406077        3.7781063405  MEMB      65              0.0000000000
      8187        65  POPE      H15X          -31.1485632761      -13.7799538050        3.4390642464  MEMB      65              0.0000000000
      8188        65  POPE      H15Y          -31.1250419375      -12.1805545860        4.2674809583  MEMB      65              0.0000000000
      8189        65  POPE      C316          -32.3865691807      -12.2851374511        2.5380225429  MEMB      65              0.0000000000
      8190        65  POPE      H16X          -31.6664599152      -12.1707116553        1.6955872519  MEMB      65              0.0000000000
      8191        65  POPE      H16Y          -32.7345589982      -11.2835747967        2.8466289583  MEMB      65              0.0000000000
      8192        65  POPE      H16Z          -33.2545297345      -12.8499390663        2.1554836032  MEMB      65              0.0000000000
      8193        66  OYPE      N             -25.5902214248       22.5767065534       21.0884339427  MEMB      66              0.0000000000
      8194        66  OYPE      HN1           -25.3785476892       22.9080970268       20.1212333381  MEMB      66              0.0000000000
      8195        66  OYPE      HN2           -24.8610327261       22.8547537318       21.7872626162  MEMB      66              0.0000000000
      8196        66  OYPE      HN3           -25.7519613853       21.5483034204       21.0792675629  MEMB      66              0.0000000000
      8197        66  OYPE      C12           -26.8458950823       23.3273258246       21.4028414548  MEMB      66              0.0000000000
      8198        66  OYPE      H12A          -26.4686773977       24.1867770517       21.9860033265  MEMB      66              0.0000000000
      8199        66  OYPE      H12B          -27.5482981613       22.7200996122       22.0058996888  MEMB      66              0.0000000000
      8200        66  OYPE      C11           -27.5163087010       23.7835167844       20.1039428748  MEMB      66              0.0000000000
      8201        66  OYPE      H11A          -26.7555690569       24.3613309327       19.5317208850  MEMB      66              0.0000000000
      8202        66  OYPE      H11B          -28.3670151242       24.4719347594       20.2785499967  MEMB      66              0.0000000000
      8203        66  OYPE      P             -28.2450819031       22.7178769743       17.8512376692  MEMB      66              0.0000000000
      8204        66  OYPE      O13           -29.3241765969       21.7943057630       17.5790191273  MEMB      66              0.0000000000
      8205        66  OYPE      O14           -26.9655732329       22.6291596272       17.1395712364  MEMB      66              0.0000000000
      8206        66  OYPE      O11           -28.9109495892       24.1041223578       17.6797806380  MEMB      66              0.0000000000
      8207        66  OYPE      O12           -28.0054783408       22.6559585477       19.4054760336  MEMB      66              0.0000000000
      8208        66  OYPE      C1            -30.2748615693       24.2633879226       18.0372836789  MEMB      66              0.0000000000
      8209        66  OYPE      HA            -30.3803711777       25.1379309777       18.7030747155  MEMB      66              0.0000000000
      8210        66  OYPE      HB            -30.6639858466       23.3945188564       18.6251505442  MEMB      66              0.0000000000
      8211        66  OYPE      C2            -31.1233652722       24.4596422612       16.7693245394  MEMB      66              0.0000000000
      8212        66  OYPE      HS            -32.1707215208       24.5948568824       17.0655300756  MEMB      66              0.0000000000
      8213        66  OYPE      O21           -30.8842221928       23.3326853679       15.9066855429  MEMB      66              0.0000000000
      8214        66  OYPE      C21           -31.8263508858       23.3031311754       15.0336843991  MEMB      66              0.0000000000
      8215        66  OYPE      O22           -32.9055492631       23.8486624477       15.2834350336  MEMB      66              0.0000000000
      8216        66  OYPE      C22           -31.2682296256       22.5067062084       13.8328114403  MEMB      66              0.0000000000
      8217        66  OYPE      H2R           -31.1284447942       21.4293022749       14.0817938941  MEMB      66              0.0000000000
      8218        66  OYPE      H2S           -30.4199340268       22.9569470341       13.3355446745  MEMB      66              0.0000000000
      8219        66  OYPE      C3            -30.8765823647       25.7764940320       16.0553114698  MEMB      66              0.0000000000
      8220        66  OYPE      HX            -31.0321688769       26.5015071382       16.8694052066  MEMB      66              0.0000000000
      8221        66  OYPE      HY            -31.6762585053       26.0278360295       15.3115203195  MEMB      66              0.0000000000
      8222        66  OYPE      O31           -29.5243890641       25.8623139052       15.6272528677  MEMB      66              0.0000000000
      8223        66  OYPE      C31           -29.3416462597       25.6454591670       14.3405859401  MEMB      66              0.0000000000
      8224        66  OYPE      O32           -30.2196877944       25.6506799879       13.4948973504  MEMB      66              0.0000000000
      8225        66  OYPE      C32           -27.9001267669       25.3120204638       14.1315031278  MEMB      66              0.0000000000
      8226        66  OYPE      H2X           -27.5103367928       25.7955867239       13.2168690860  MEMB      66              0.0000000000
      8227        66  OYPE      H2Y           -27.2788875754       25.5799793990       14.9950625705  MEMB      66              0.0000000000
      8228        66  OYPE      C23           -31.7836652372       22.6355629978       12.4231176118  MEMB      66              0.0000000000
      8229        66  OYPE      H3R           -32.6044091008       22.5117440059       12.7179144978  MEMB      66              0.0000000000
      8230        66  OYPE      H3S           -31.9403822277       21.6506020337       11.9798310501  MEMB      66              0.0000000000
      8231        66  OYPE      C24           -32.2574917344       23.9425631761       11.7280146127  MEMB      66              0.0000000000
      8232        66  OYPE      H4R           -31.2717425244       24.1960324901       11.3868779602  MEMB      66              0.0000000000
      8233        66  OYPE      H4S           -32.9140973493       24.6479559592       12.2816282599  MEMB      66              0.0000000000
      8234        66  OYPE      C25           -32.9478367181       23.8462424017       10.3781130721  MEMB      66              0.0000000000
      8235        66  OYPE      H5R           -34.0805506975       23.8758500024       10.4407670932  MEMB      66              0.0000000000
      8236        66  OYPE      H5S           -32.5572930693       22.8379372629       10.0455224556  MEMB      66              0.0000000000
      8237        66  OYPE      C26           -32.6523808664       24.8504476591        9.3752177595  MEMB      66              0.0000000000
      8238        66  OYPE      H6R           -31.6092284752       24.6680483997        9.1552146383  MEMB      66              0.0000000000
      8239        66  OYPE      H6S           -32.9059277458       25.7655668147        9.9486834064  MEMB      66              0.0000000000
      8240        66  OYPE      C27           -33.3956898203       24.8874633301        8.0804257267  MEMB      66              0.0000000000
      8241        66  OYPE      H7R           -33.2070748404       25.9232822031        7.7888861412  MEMB      66              0.0000000000
      8242        66  OYPE      H7S           -34.3919243766       24.5642187350        8.2985601973  MEMB      66              0.0000000000
      8243        66  OYPE      C28           -33.0080783773       24.0638467421        6.9217912425  MEMB      66              0.0000000000
      8244        66  OYPE      H8R           -33.0498956202       23.1302047523        7.3066195347  MEMB      66              0.0000000000
      8245        66  OYPE      H8S           -31.9521284991       23.9403085645        6.7547608251  MEMB      66              0.0000000000
      8246        66  OYPE      C29           -33.8094291066       23.7935631311        5.7368551163  MEMB      66              0.0000000000
      8247        66  OYPE      H9R           -34.9133966544       23.7341164884        5.6932981831  MEMB      66              0.0000000000
      8248        66  OYPE      C210          -33.1774499175       24.1880272761        4.7269880050  MEMB      66              0.0000000000
      8249        66  OYPE      H10R          -33.7380587075       23.9024769392        3.7645699851  MEMB      66              0.0000000000
      8250        66  OYPE      C211          -31.8022060089       24.9293164337        4.8110004931  MEMB      66              0.0000000000
      8251        66  OYPE      H11R          -31.3063987847       24.7170983296        3.9505968925  MEMB      66              0.0000000000
      8252        66  OYPE      H11S          -31.1031436216       24.1828608836        4.9681247826  MEMB      66              0.0000000000
      8253        66  OYPE      C212          -31.4609618653       26.5970859530        4.7964815242  MEMB      66              0.0000000000
      8254        66  OYPE      H12R          -31.9112648310       26.8473810541        5.6734500838  MEMB      66              0.0000000000
      8255        66  OYPE      H12S          -31.9836639137       27.4361915330        4.1043255108  MEMB      66              0.0000000000
      8256        66  OYPE      C213          -30.1632135537       27.0671166473        4.3293289681  MEMB      66              0.0000000000
      8257        66  OYPE      H13R          -29.6140053687       26.7264736787        5.2029149868  MEMB      66              0.0000000000
      8258        66  OYPE      H13S          -30.2340815607       28.1669684065        4.2424300688  MEMB      66              0.0000000000
      8259        66  OYPE      C214          -29.5061240443       26.5516743130        3.0646070212  MEMB      66              0.0000000000
      8260        66  OYPE      H14R          -29.4751043824       25.4458774788        3.0584895404  MEMB      66              0.0000000000
      8261        66  OYPE      H14S          -28.4900246774       26.9777739855        3.1370112516  MEMB      66              0.0000000000
      8262        66  OYPE      C215          -30.0006179925       26.9964431225        1.7253544108  MEMB      66              0.0000000000
      8263        66  OYPE      H15R          -30.0917573185       28.0692780193        1.6284637620  MEMB      66              0.0000000000
      8264        66  OYPE      H15S          -30.9724696552       26.7376984408        1.5459023654  MEMB      66              0.0000000000
      8265        66  OYPE      C216          -29.2510755446       26.3368708357        0.6257546759  MEMB      66              0.0000000000
      8266        66  OYPE      H16R          -29.1449514914       25.2795957407        0.5354515861  MEMB      66              0.0000000000
      8267        66  OYPE      H16S          -28.2416638796       26.6359800500        0.6264446751  MEMB      66              0.0000000000
      8268        66  OYPE      H16T          -29.7623287119       26.6033260517       -0.2418733886  MEMB      66              0.0000000000
      8269        66  OYPE      C33           -27.7836734314       23.8533095246       14.0085906963  MEMB      66              0.0000000000
      8270        66  OYPE      H3X           -28.4121834584       23.1926659227       14.6699827124  MEMB      66              0.0000000000
      8271        66  OYPE      H3Y           -26.7343573496       23.5813767447       14.3069925303  MEMB      66              0.0000000000
      8272        66  OYPE      C34           -27.9972166571       23.6169221332       12.5470845746  MEMB      66              0.0000000000
      8273        66  OYPE      H4X           -29.0084970315       23.8031726773       12.1490831558  MEMB      66              0.0000000000
      8274        66  OYPE      H4Y           -27.1428756021       23.8731734396       11.8977138901  MEMB      66              0.0000000000
      8275        66  OYPE      C35           -27.9825313754       22.3240050830       12.5275430527  MEMB      66              0.0000000000
      8276        66  OYPE      H5X           -28.6700624803       21.9006078647       13.2665888682  MEMB      66              0.0000000000
      8277        66  OYPE      H5Y           -27.0818559230       22.1162709171       13.1965571388  MEMB      66              0.0000000000
      8278        66  OYPE      C36           -28.3976385893       21.8799389436       11.1531437668  MEMB      66              0.0000000000
      8279        66  OYPE      H6X           -28.8871922098       20.8069533348       11.2236438871  MEMB      66              0.0000000000
      8280        66  OYPE      H6Y           -29.4187441237       21.7871551637       10.8107795883  MEMB      66              0.0000000000
      8281        66  OYPE      C37           -27.3529008338       22.3862799838        9.9392476584  MEMB      66              0.0000000000
      8282        66  OYPE      H7X           -26.3026996532       22.3229363432       10.2590287089  MEMB      66              0.0000000000
      8283        66  OYPE      H7Y           -27.0209390470       21.7794472741        9.0219229065  MEMB      66              0.0000000000
      8284        66  OYPE      C38           -27.9846560343       23.3641349684        9.0375658686  MEMB      66              0.0000000000
      8285        66  OYPE      H8X           -28.0142685539       24.0214856231        9.8869715999  MEMB      66              0.0000000000
      8286        66  OYPE      H8Y           -27.2038644320       23.5953376228        8.2936199773  MEMB      66              0.0000000000
      8287        66  OYPE      C39           -29.3562530585       23.2181289704        8.3959810792  MEMB      66              0.0000000000
      8288        66  OYPE      H9X           -30.1573383415       22.8191261780        9.0440559057  MEMB      66              0.0000000000
      8289        66  OYPE      C310          -29.5268525533       23.1298606505        7.0479916194  MEMB      66              0.0000000000
      8290        66  OYPE      H10X          -30.5159855808       22.7863948090        6.7156909466  MEMB      66              0.0000000000
      8291        66  OYPE      C311          -28.4149727838       23.1619367377        5.9802001004  MEMB      66              0.0000000000
      8292        66  OYPE      H11X          -28.4862078990       23.9955260722        5.2736573232  MEMB      66              0.0000000000
      8293        66  OYPE      H11Y          -27.3905564229       23.1536610598        6.3948386982  MEMB      66              0.0000000000
      8294        66  OYPE      C312          -28.1780048172       22.0528717948        4.9960184732  MEMB      66              0.0000000000
      8295        66  OYPE      H12X          -27.7780102242       21.3499630613        5.6534245298  MEMB      66              0.0000000000
      8296        66  OYPE      H12Y          -27.2125368555       21.9939460137        4.5460854943  MEMB      66              0.0000000000
      8297        66  OYPE      C313          -29.4136506879       21.8512228762        4.1856989147  MEMB      66              0.0000000000
      8298        66  OYPE      H13X          -30.3137097285       21.6081359448        4.8486532189  MEMB      66              0.0000000000
      8299        66  OYPE      H13Y          -29.6891431517       22.8299978684        3.8045164795  MEMB      66              0.0000000000
      8300        66  OYPE      C314          -29.3735523205       20.9405519783        3.0447983438  MEMB      66              0.0000000000
      8301        66  OYPE      H14X          -29.0701045956       19.9372986224        2.9393981143  MEMB      66              0.0000000000
      8302        66  OYPE      H14Y          -28.7534290609       20.7811748674        2.2019758604  MEMB      66              0.0000000000
      8303        66  OYPE      C315          -30.6529707274       20.6296430322        3.0615958639  MEMB      66              0.0000000000
      8304        66  OYPE      H15X          -31.5571086091       20.8744411030        3.7066070258  MEMB      66              0.0000000000
      8305        66  OYPE      H15Y          -30.5842978248       19.3883612596        3.3088783725  MEMB      66              0.0000000000
      8306        66  OYPE      C316          -30.8868826935       21.2924931000        1.5225294582  MEMB      66              0.0000000000
      8307        66  OYPE      H16X          -31.8364656772       21.0776366932        0.8940556904  MEMB      66              0.0000000000
      8308        66  OYPE      H16Y          -30.2923901540       20.8208585517        0.7025717690  MEMB      66              0.0000000000
      8309        66  OYPE      C317          -31.8062875317       22.3346469728        1.7011575947  MEMB      66              0.0000000000
      8310        66  OYPE      H17X          -30.8098761444       22.9072548058        1.8808531342  MEMB      66              0.0000000000
      8311        66  OYPE      H17Y          -32.3626907168       22.4287474470        2.5605292762  MEMB      66              0.0000000000
      8312        66  OYPE      C318          -32.9324063802       22.4910723973        0.5097246497  MEMB      66              0.0000000000
      8313        66  OYPE      H18X          -33.0147103788       23.4036927209        0.1787296706  MEMB      66              0.0000000000
      8314        66  OYPE      H18Y          -32.4965062759       22.1254737972       -0.4167313256  MEMB      66              0.0000000000
      8315        66  OYPE      H18Z          -33.9018519066       22.5115187123        0.3073409975  MEMB      66              0.0000000000
      8316        67  OYPE      N              -6.0057195282       35.5339023852       19.9886594262  MEMB      67              0.0000000000
      8317        67  OYPE      HN1            -5.7066331836       34.5632627561       19.9601904978  MEMB      67              0.0000000000
      8318        67  OYPE      HN2            -5.7078046630       36.2209400875       20.6855340927  MEMB      67              0.0000000000
      8319        67  OYPE      HN3            -7.0712133343       35.4371798856       20.0527663507  MEMB      67              0.0000000000
      8320        67  OYPE      C12            -5.6034531988       36.1714059388       18.6902833602  MEMB      67              0.0000000000
      8321        67  OYPE      H12A           -6.2094431595       37.1616945878       18.5330906853  MEMB      67              0.0000000000
      8322        67  OYPE      H12B           -5.8452217034       35.3126356477       17.9647166094  MEMB      67              0.0000000000
      8323        67  OYPE      C11            -4.3212400132       36.3994184994       18.2132187874  MEMB      67              0.0000000000
      8324        67  OYPE      H11A           -4.3532862126       36.8244442774       17.1804169693  MEMB      67              0.0000000000
      8325        67  OYPE      H11B           -3.8537979888       35.4016165902       18.1435221759  MEMB      67              0.0000000000
      8326        67  OYPE      P              -2.2966426317       37.3649669898       19.1591961806  MEMB      67              0.0000000000
      8327        67  OYPE      O13            -1.8130895406       36.1928269145       19.9105564131  MEMB      67              0.0000000000
      8328        67  OYPE      O14            -1.8299225347       38.6816925405       19.5937037495  MEMB      67              0.0000000000
      8329        67  OYPE      O11            -1.9789357752       37.1209474635       17.6340606787  MEMB      67              0.0000000000
      8330        67  OYPE      O12            -3.8573784961       37.3205873860       19.1479830100  MEMB      67              0.0000000000
      8331        67  OYPE      C1             -0.9894034781       37.9111996462       16.9827291314  MEMB      67              0.0000000000
      8332        67  OYPE      HA             -0.4914406199       37.2699881308       16.2294448528  MEMB      67              0.0000000000
      8333        67  OYPE      HB             -0.2100815018       38.2554026107       17.6864499918  MEMB      67              0.0000000000
      8334        67  OYPE      C2             -1.6009888766       39.1048102581       16.2293879425  MEMB      67              0.0000000000
      8335        67  OYPE      HS             -2.0206465356       39.7994921145       17.0051565394  MEMB      67              0.0000000000
      8336        67  OYPE      O21            -2.6056621648       38.5131885988       15.3692804418  MEMB      67              0.0000000000
      8337        67  OYPE      C21            -3.5229716829       39.3578228691       15.0203926409  MEMB      67              0.0000000000
      8338        67  OYPE      O22            -3.6004634123       40.4394263112       15.5157033433  MEMB      67              0.0000000000
      8339        67  OYPE      C22            -4.4137963552       38.7107011415       13.9838585667  MEMB      67              0.0000000000
      8340        67  OYPE      H2R            -5.3557412718       39.2673040416       13.7646544157  MEMB      67              0.0000000000
      8341        67  OYPE      H2S            -4.6858022366       37.6959260126       14.3967763703  MEMB      67              0.0000000000
      8342        67  OYPE      C3             -0.5468793189       39.8511014204       15.3433166570  MEMB      67              0.0000000000
      8343        67  OYPE      HX              0.0883108229       40.5668550470       15.9131777643  MEMB      67              0.0000000000
      8344        67  OYPE      HY             -1.1680586902       40.4000882248       14.6044800084  MEMB      67              0.0000000000
      8345        67  OYPE      O31             0.3282303882       38.9015185926       14.7083171891  MEMB      67              0.0000000000
      8346        67  OYPE      C31             0.2328124010       38.7068929079       13.4032183628  MEMB      67              0.0000000000
      8347        67  OYPE      O32            -0.1483684551       39.4823364271       12.5583038441  MEMB      67              0.0000000000
      8348        67  OYPE      C32             0.6827988915       37.3200070546       13.0685887861  MEMB      67              0.0000000000
      8349        67  OYPE      H2X             1.7658065718       37.2818804018       13.3420942441  MEMB      67              0.0000000000
      8350        67  OYPE      H2Y             0.0632146644       36.5421978423       13.5905708668  MEMB      67              0.0000000000
      8351        67  OYPE      C23            -3.6750004316       38.5408470678       12.6727817565  MEMB      67              0.0000000000
      8352        67  OYPE      H3R            -4.1779310877       37.6619084898       12.2208396233  MEMB      67              0.0000000000
      8353        67  OYPE      H3S            -2.5863386201       38.4001841246       12.8528058647  MEMB      67              0.0000000000
      8354        67  OYPE      C24            -3.8294850691       39.6996410635       11.7219798447  MEMB      67              0.0000000000
      8355        67  OYPE      H4R            -3.5526161728       40.6043401326       12.2774658914  MEMB      67              0.0000000000
      8356        67  OYPE      H4S            -4.9023918130       39.8349544376       11.4575026827  MEMB      67              0.0000000000
      8357        67  OYPE      C25            -2.9430431103       39.7013395775       10.4571217803  MEMB      67              0.0000000000
      8358        67  OYPE      H5R            -2.9514662474       38.8403243860        9.8000856783  MEMB      67              0.0000000000
      8359        67  OYPE      H5S            -1.8960877805       39.7847411561       10.7798652413  MEMB      67              0.0000000000
      8360        67  OYPE      C26            -3.2538314781       40.8246914355        9.5490928303  MEMB      67              0.0000000000
      8361        67  OYPE      H6R            -3.1272905037       41.5776529052       10.2885798664  MEMB      67              0.0000000000
      8362        67  OYPE      H6S            -4.1967883806       40.7679449686        8.9946167113  MEMB      67              0.0000000000
      8363        67  OYPE      C27            -2.2738162072       41.3993498900        8.7660236542  MEMB      67              0.0000000000
      8364        67  OYPE      H7R            -1.4125966511       41.4825595177        9.5430112999  MEMB      67              0.0000000000
      8365        67  OYPE      H7S            -2.5811362893       42.3777730632        8.2681187539  MEMB      67              0.0000000000
      8366        67  OYPE      C28            -2.2061689669       40.6272877865        7.5561215814  MEMB      67              0.0000000000
      8367        67  OYPE      H8R            -2.8928656038       40.6637625892        6.7809331612  MEMB      67              0.0000000000
      8368        67  OYPE      H8S            -1.6103198854       39.7726480614        7.9328347166  MEMB      67              0.0000000000
      8369        67  OYPE      C29            -1.2343470686       40.8521900891        6.7110442520  MEMB      67              0.0000000000
      8370        67  OYPE      H9R            -1.2027760840       41.8549135425        7.3000052465  MEMB      67              0.0000000000
      8371        67  OYPE      C210           -0.5905094616       40.9070889019        5.5618419346  MEMB      67              0.0000000000
      8372        67  OYPE      H10R            0.5021677892       41.3043510250        5.4017581038  MEMB      67              0.0000000000
      8373        67  OYPE      C211           -1.4163864801       40.4930980040        4.5879504603  MEMB      67              0.0000000000
      8374        67  OYPE      H11R           -1.2148773431       41.3660309621        4.1611125779  MEMB      67              0.0000000000
      8375        67  OYPE      H11S           -2.4524849622       40.4283455287        4.8563681593  MEMB      67              0.0000000000
      8376        67  OYPE      C212           -0.7081179200       39.5469983038        4.0401574477  MEMB      67              0.0000000000
      8377        67  OYPE      H12R           -1.2103266099       39.0058163299        4.7518216958  MEMB      67              0.0000000000
      8378        67  OYPE      H12S            0.4346337333       39.6637085345        4.1842569744  MEMB      67              0.0000000000
      8379        67  OYPE      C213           -1.2382664542       39.1843667131        2.8196903403  MEMB      67              0.0000000000
      8380        67  OYPE      H13R           -1.1131181746       39.8737609943        2.1504006298  MEMB      67              0.0000000000
      8381        67  OYPE      H13S           -2.2423685825       38.8170380785        2.8864602427  MEMB      67              0.0000000000
      8382        67  OYPE      C214           -0.4523110373       38.4287137948        2.1536945870  MEMB      67              0.0000000000
      8383        67  OYPE      H14R           -0.8392607200       37.8530792273        3.0906753419  MEMB      67              0.0000000000
      8384        67  OYPE      H14S            0.6612636112       38.4412392362        2.3369806930  MEMB      67              0.0000000000
      8385        67  OYPE      C215           -0.8711069930       37.9144496538        0.7393480771  MEMB      67              0.0000000000
      8386        67  OYPE      H15R            0.0847955699       37.9078447718       -0.1825859975  MEMB      67              0.0000000000
      8387        67  OYPE      H15S           -0.8910049527       38.6633815379        0.1154077306  MEMB      67              0.0000000000
      8388        67  OYPE      C216           -1.8360625621       36.6178084983        0.9217915153  MEMB      67              0.0000000000
      8389        67  OYPE      H16R           -2.6581872747       36.5959461256        1.5431810343  MEMB      67              0.0000000000
      8390        67  OYPE      H16S           -1.6212143378       35.5303552146        0.9240708025  MEMB      67              0.0000000000
      8391        67  OYPE      H16T           -1.9612370014       36.6363039987       -0.0183055662  MEMB      67              0.0000000000
      8392        67  OYPE      C33             0.8882111447       37.0245810756       11.6106054058  MEMB      67              0.0000000000
      8393        67  OYPE      H3X             1.6822125618       36.2861196454       11.5746100972  MEMB      67              0.0000000000
      8394        67  OYPE      H3Y             1.3260312733       37.8836827674       11.0899939789  MEMB      67              0.0000000000
      8395        67  OYPE      C34            -0.3474481872       36.5267608744       10.9067234374  MEMB      67              0.0000000000
      8396        67  OYPE      H4X            -0.7131372484       35.6136616583       11.4318189028  MEMB      67              0.0000000000
      8397        67  OYPE      H4Y            -1.0518207763       37.3874644319       10.9919798877  MEMB      67              0.0000000000
      8398        67  OYPE      C35            -0.0387280316       36.1382538557        9.4595655650  MEMB      67              0.0000000000
      8399        67  OYPE      H5X             0.8350782945       35.4499186233        9.4967909818  MEMB      67              0.0000000000
      8400        67  OYPE      H5Y             0.2603421299       37.0372693999        8.8888334997  MEMB      67              0.0000000000
      8401        67  OYPE      C36            -1.1623925415       35.4038302844        8.7103601118  MEMB      67              0.0000000000
      8402        67  OYPE      H6X            -0.8880796617       35.2280075357        7.6494379849  MEMB      67              0.0000000000
      8403        67  OYPE      H6Y            -1.3114812904       34.4230569926        9.2089977088  MEMB      67              0.0000000000
      8404        67  OYPE      C37            -2.5172664031       36.0966106196        8.6922799129  MEMB      67              0.0000000000
      8405        67  OYPE      H7X            -2.9151246075       36.1019625741        9.7263381304  MEMB      67              0.0000000000
      8406        67  OYPE      H7Y            -2.4962698072       37.1359298409        8.3094411666  MEMB      67              0.0000000000
      8407        67  OYPE      C38            -3.5777204203       35.3888858605        7.8691917460  MEMB      67              0.0000000000
      8408        67  OYPE      H8X            -3.7325132141       34.3525493740        8.2592963479  MEMB      67              0.0000000000
      8409        67  OYPE      H8Y            -4.4757048229       35.9785521479        8.0921348454  MEMB      67              0.0000000000
      8410        67  OYPE      C39            -3.4071014262       35.4304396471        6.3867475960  MEMB      67              0.0000000000
      8411        67  OYPE      H9X            -2.5577496838       34.8668000237        6.0191735934  MEMB      67              0.0000000000
      8412        67  OYPE      C310           -4.0510647198       36.2008515534        5.5198842133  MEMB      67              0.0000000000
      8413        67  OYPE      H10X           -3.9613732004       35.9864646714        4.4424420020  MEMB      67              0.0000000000
      8414        67  OYPE      C311           -5.0852557605       37.1823583667        5.8845900681  MEMB      67              0.0000000000
      8415        67  OYPE      H11X           -5.7970833083       36.7379898231        5.2984867135  MEMB      67              0.0000000000
      8416        67  OYPE      H11Y           -5.4081728524       37.2827805868        6.9280171435  MEMB      67              0.0000000000
      8417        67  OYPE      C312           -5.1039568742       38.5648530556        5.3964601699  MEMB      67              0.0000000000
      8418        67  OYPE      H12X           -4.1757944792       39.0855999724        5.4058081285  MEMB      67              0.0000000000
      8419        67  OYPE      H12Y           -5.9553308598       39.1852940123        5.7424944859  MEMB      67              0.0000000000
      8420        67  OYPE      C313           -5.2678679776       38.6226400979        4.0851071914  MEMB      67              0.0000000000
      8421        67  OYPE      H13X           -4.9756884171       37.6643933647        3.4859081121  MEMB      67              0.0000000000
      8422        67  OYPE      H13Y           -6.4525735539       38.6886537027        4.1485221844  MEMB      67              0.0000000000
      8423        67  OYPE      C314           -4.8110016689       39.9266375946        3.3930679602  MEMB      67              0.0000000000
      8424        67  OYPE      H14X           -3.7173384837       40.0456502430        3.1307121340  MEMB      67              0.0000000000
      8425        67  OYPE      H14Y           -5.5241588814       40.7002941585        3.5069269999  MEMB      67              0.0000000000
      8426        67  OYPE      C315           -5.2896589362       40.3128681115        2.0361696192  MEMB      67              0.0000000000
      8427        67  OYPE      H15X           -4.4736929064       38.9773616229        2.2233659695  MEMB      67              0.0000000000
      8428        67  OYPE      H15Y           -4.9884891024       41.1032832649        1.4831006893  MEMB      67              0.0000000000
      8429        67  OYPE      C316           -6.5303536414       40.1348336975        0.6132545832  MEMB      67              0.0000000000
      8430        67  OYPE      H16X           -7.1586759580       40.7490703218        1.1477003729  MEMB      67              0.0000000000
      8431        67  OYPE      H16Y           -7.3382646661       39.1308833695        0.3957314908  MEMB      67              0.0000000000
      8432        67  OYPE      C317           -6.7284244372       39.4588492123       -0.6963844813  MEMB      67              0.0000000000
      8433        67  OYPE      H17X           -7.1438828287       40.3525141729       -0.6822657896  MEMB      67              0.0000000000
      8434        67  OYPE      H17Y           -7.6396090690       39.2704643255       -1.1360642927  MEMB      67              0.0000000000
      8435        67  OYPE      C318           -6.0611337548       39.1104550953       -1.8424619797  MEMB      67              0.0000000000
      8436        67  OYPE      H18X           -5.3107886847       39.7907237386       -1.5514156150  MEMB      67              0.0000000000
      8437        67  OYPE      H18Y           -5.6465495663       38.2020143675       -1.9106753727  MEMB      67              0.0000000000
      8438        67  OYPE      H18Z           -6.0961775364       39.2900661633       -2.8597202166  MEMB      67              0.0000000000
      8439        68  PMPE      N             -17.6277614963      -29.9592137274       20.1034543472  MEMB      68              0.0000000000
      8440        68  PMPE      HN1           -17.2852331374      -29.7002590548       21.0538890258  MEMB      68              0.0000000000
      8441        68  PMPE      HN2           -17.5025908533      -30.9723159670       19.9026432354  MEMB      68              0.0000000000
      8442        68  PMPE      HN3           -17.1363443301      -29.4031455965       19.3726934354  MEMB      68              0.0000000000
      8443        68  PMPE      C12           -19.0754436393      -29.6230320580       19.9218380988  MEMB      68              0.0000000000
      8444        68  PMPE      H12A          -19.1545558632      -29.4486435496       18.8506989527  MEMB      68              0.0000000000
      8445        68  PMPE      H12B          -19.2462064634      -28.6850459937       20.5004884678  MEMB      68              0.0000000000
      8446        68  PMPE      C11           -20.0428714348      -30.7363283920       20.3688021641  MEMB      68              0.0000000000
      8447        68  PMPE      H11A          -21.0659723165      -30.3342284286       20.5664374104  MEMB      68              0.0000000000
      8448        68  PMPE      H11B          -19.5983874654      -31.0563659226       21.2754805977  MEMB      68              0.0000000000
      8449        68  PMPE      P             -21.0649080120      -31.9776624030       18.3199331704  MEMB      68              0.0000000000
      8450        68  PMPE      O13           -21.4951263048      -30.6070571083       18.0262301958  MEMB      68              0.0000000000
      8451        68  PMPE      O14           -22.1151254669      -33.0024611723       18.4850172815  MEMB      68              0.0000000000
      8452        68  PMPE      O11           -20.0485799343      -32.4193271106       17.2110844902  MEMB      68              0.0000000000
      8453        68  PMPE      O12           -20.0686732967      -31.9240748654       19.5974930316  MEMB      68              0.0000000000
      8454        68  PMPE      C1            -19.1324346675      -33.4960451748       17.4375586935  MEMB      68              0.0000000000
      8455        68  PMPE      HA            -19.5667062560      -34.3151132819       18.0863625894  MEMB      68              0.0000000000
      8456        68  PMPE      HB            -18.1467434443      -33.1237670255       17.7236738878  MEMB      68              0.0000000000
      8457        68  PMPE      C2            -18.8716935201      -34.2011664435       16.1569563871  MEMB      68              0.0000000000
      8458        68  PMPE      HS            -18.2902592247      -35.1616822015       16.3713760513  MEMB      68              0.0000000000
      8459        68  PMPE      O21           -18.2267502780      -33.3976273787       15.1637997904  MEMB      68              0.0000000000
      8460        68  PMPE      C21           -17.3222555311      -33.9703592219       14.4734556418  MEMB      68              0.0000000000
      8461        68  PMPE      O22           -16.7788938679      -35.0473299984       14.7125419475  MEMB      68              0.0000000000
      8462        68  PMPE      C22           -17.0476349863      -33.0866477742       13.2245693364  MEMB      68              0.0000000000
      8463        68  PMPE      H2R           -16.0215566953      -33.2544717977       13.3361604701  MEMB      68              0.0000000000
      8464        68  PMPE      H2S           -17.3071484094      -32.0527287570       13.2675226760  MEMB      68              0.0000000000
      8465        68  PMPE      C3            -20.3356671251      -34.4119268545       15.8305501780  MEMB      68              0.0000000000
      8466        68  PMPE      HX            -20.9270976991      -35.1388133063       16.3441194700  MEMB      68              0.0000000000
      8467        68  PMPE      HY            -20.3136733492      -35.1007454299       15.2862364787  MEMB      68              0.0000000000
      8468        68  PMPE      O31           -20.9511398652      -33.5800297118       14.9060648358  MEMB      68              0.0000000000
      8469        68  PMPE      C31           -22.0271706020      -33.9477477955       14.2721853405  MEMB      68              0.0000000000
      8470        68  PMPE      O32           -22.4081168369      -35.0548602624       13.9472593686  MEMB      68              0.0000000000
      8471        68  PMPE      C32           -22.7000080639      -32.6660642650       14.0842800320  MEMB      68              0.0000000000
      8472        68  PMPE      H2X           -22.0740128752      -31.8205198368       14.3538187207  MEMB      68              0.0000000000
      8473        68  PMPE      H2Y           -23.4079831477      -32.5754282035       14.8375431403  MEMB      68              0.0000000000
      8474        68  PMPE      C23           -17.4299183326      -33.3844442821       11.7973427294  MEMB      68              0.0000000000
      8475        68  PMPE      H3R           -18.5117459130      -33.3519759736       11.7090664723  MEMB      68              0.0000000000
      8476        68  PMPE      H3S           -16.7924269643      -34.2292641911       11.8309647062  MEMB      68              0.0000000000
      8477        68  PMPE      C24           -16.8480019691      -33.0337007754       10.5160573239  MEMB      68              0.0000000000
      8478        68  PMPE      H4R           -15.7239362226      -33.1031254911       10.7296416496  MEMB      68              0.0000000000
      8479        68  PMPE      H4S           -17.5253990057      -32.0714151538       10.4686484278  MEMB      68              0.0000000000
      8480        68  PMPE      C25           -16.9819535827      -33.5739485556        9.2353214337  MEMB      68              0.0000000000
      8481        68  PMPE      H5R           -18.0719248412      -33.4726401273        9.1987187341  MEMB      68              0.0000000000
      8482        68  PMPE      H5S           -16.4923651925      -34.5191362988        9.3223055311  MEMB      68              0.0000000000
      8483        68  PMPE      C26           -16.3314908099      -32.8101533724        8.1355854243  MEMB      68              0.0000000000
      8484        68  PMPE      H6R           -15.2391718801      -32.6769236723        8.1400032609  MEMB      68              0.0000000000
      8485        68  PMPE      H6S           -16.7550454065      -31.8798237673        8.2495556012  MEMB      68              0.0000000000
      8486        68  PMPE      C27           -16.9657360249      -32.9871537608        6.8112772829  MEMB      68              0.0000000000
      8487        68  PMPE      H7R           -18.0654446405      -32.8608637111        6.8569435673  MEMB      68              0.0000000000
      8488        68  PMPE      H7S           -16.6599419419      -34.0080531286        6.6298279140  MEMB      68              0.0000000000
      8489        68  PMPE      C28           -16.3478394984      -32.1672347015        5.7294008930  MEMB      68              0.0000000000
      8490        68  PMPE      H8R           -15.2690576717      -32.1280434818        6.0375406622  MEMB      68              0.0000000000
      8491        68  PMPE      H8S           -16.7674313136      -31.1329953811        5.6700375661  MEMB      68              0.0000000000
      8492        68  PMPE      C29           -16.5648760787      -32.9626458646        4.4322698079  MEMB      68              0.0000000000
      8493        68  PMPE      H9R           -17.5343651792      -33.2429427268        4.0441836769  MEMB      68              0.0000000000
      8494        68  PMPE      C217          -15.5101008779      -34.0438151668        4.2408337192  MEMB      68              0.0000000000
      8495        68  PMPE      H17R          -15.9203314774      -34.8497834577        3.7389560422  MEMB      68              0.0000000000
      8496        68  PMPE      H17S          -14.6413724276      -33.9968496596        4.8896973211  MEMB      68              0.0000000000
      8497        68  PMPE      C210          -15.6166873905      -32.8990014906        3.3663444358  MEMB      68              0.0000000000
      8498        68  PMPE      H10R          -15.9055042606      -32.9614953232        2.2879937852  MEMB      68              0.0000000000
      8499        68  PMPE      C211          -14.6645725727      -32.0385028017        3.8569424583  MEMB      68              0.0000000000
      8500        68  PMPE      H11R          -13.9160763334      -32.6902726214        3.3569228410  MEMB      68              0.0000000000
      8501        68  PMPE      H11S          -13.9456236574      -31.9880576646        4.6363707064  MEMB      68              0.0000000000
      8502        68  PMPE      C212          -15.0309829345      -30.5613156116        3.9094401105  MEMB      68              0.0000000000
      8503        68  PMPE      H12R          -14.3012355925      -29.7643626374        3.7542910248  MEMB      68              0.0000000000
      8504        68  PMPE      H12S          -15.8543441534      -30.0892288678        4.2760667025  MEMB      68              0.0000000000
      8505        68  PMPE      C213          -15.7293111713      -30.3126308275        2.8288489085  MEMB      68              0.0000000000
      8506        68  PMPE      H13R          -16.2459291581      -31.0928188234        2.1867255439  MEMB      68              0.0000000000
      8507        68  PMPE      H13S          -14.9843287552      -30.8527166198        2.2129853437  MEMB      68              0.0000000000
      8508        68  PMPE      C214          -16.1997316909      -27.9865819032        2.2883826442  MEMB      68              0.0000000000
      8509        68  PMPE      H14R          -15.8552586679      -27.3358953872        1.5835303320  MEMB      68              0.0000000000
      8510        68  PMPE      H14S          -14.7730837369      -27.2453129725        2.0953503704  MEMB      68              0.0000000000
      8511        68  PMPE      C215          -16.7233722231      -27.5853613441        2.2874516125  MEMB      68              0.0000000000
      8512        68  PMPE      H15R          -16.6020340175      -28.6484740556        2.8874164468  MEMB      68              0.0000000000
      8513        68  PMPE      H15S          -17.2437235661      -28.4241630062        1.6545950540  MEMB      68              0.0000000000
      8514        68  PMPE      C216          -16.4325420904      -25.8548906498        3.2469885549  MEMB      68              0.0000000000
      8515        68  PMPE      H16R          -16.9058052238      -25.7363105640        3.6111148262  MEMB      68              0.0000000000
      8516        68  PMPE      H16S          -15.2618822642      -25.4845613113        4.9546583490  MEMB      68              0.0000000000
      8517        68  PMPE      H16T          -16.4447329732      -25.4142068456        2.6510336774  MEMB      68              0.0000000000
      8518        68  PMPE      C33           -23.2185119027      -32.5479857239       12.6887305461  MEMB      68              0.0000000000
      8519        68  PMPE      H3X           -23.7290928993      -31.5548793575       12.7067819536  MEMB      68              0.0000000000
      8520        68  PMPE      H3Y           -23.9095066657      -33.3724126897       12.3844994117  MEMB      68              0.0000000000
      8521        68  PMPE      C34           -22.0067516879      -32.4852062051       11.7849445241  MEMB      68              0.0000000000
      8522        68  PMPE      H4X           -21.6620379378      -33.5098140602       11.5504559062  MEMB      68              0.0000000000
      8523        68  PMPE      H4Y           -21.1739386906      -31.9922936377       12.3387256709  MEMB      68              0.0000000000
      8524        68  PMPE      C35           -22.3685678664      -31.6637158760       10.5564896453  MEMB      68              0.0000000000
      8525        68  PMPE      H5X           -22.4684887808      -30.6181061785       10.9363558041  MEMB      68              0.0000000000
      8526        68  PMPE      H5Y           -23.3859324821      -31.9801221917       10.2572687344  MEMB      68              0.0000000000
      8527        68  PMPE      C36           -21.4214876397      -31.8084853937        9.3465310275  MEMB      68              0.0000000000
      8528        68  PMPE      H6X           -21.3813153343      -32.8447817240        8.9378606894  MEMB      68              0.0000000000
      8529        68  PMPE      H6Y           -20.4055313524      -31.7694890284        9.7649874214  MEMB      68              0.0000000000
      8530        68  PMPE      C37           -21.6450562307      -30.6879274591        8.2978978562  MEMB      68              0.0000000000
      8531        68  PMPE      H7X           -21.3988845039      -29.6823288396        8.7162259161  MEMB      68              0.0000000000
      8532        68  PMPE      H7Y           -22.7169070217      -30.5723912740        8.0032517167  MEMB      68              0.0000000000
      8533        68  PMPE      C38           -20.7971539244      -30.8000004290        7.0545171369  MEMB      68              0.0000000000
      8534        68  PMPE      H8X           -20.9482537919      -31.7437099199        6.4694644753  MEMB      68              0.0000000000
      8535        68  PMPE      H8Y           -19.7027765130      -30.7119650128        7.2362936330  MEMB      68              0.0000000000
      8536        68  PMPE      C39           -21.1433067589      -29.5970356127        6.2269084983  MEMB      68              0.0000000000
      8537        68  PMPE      H9X           -20.6241752022      -28.6301402853        6.5206435497  MEMB      68              0.0000000000
      8538        68  PMPE      H9Y           -22.1956894362      -29.5450660502        6.0172036369  MEMB      68              0.0000000000
      8539        68  PMPE      C310          -20.8512616535      -29.9410374023        4.9344675997  MEMB      68              0.0000000000
      8540        68  PMPE      H10X          -19.7583192863      -30.1883836911        5.4343283933  MEMB      68              0.0000000000
      8541        68  PMPE      H10Y          -20.8681639771      -29.0579887399        4.2779065239  MEMB      68              0.0000000000
      8542        68  PMPE      C311          -21.3621118206      -31.1180782330        3.9111342376  MEMB      68              0.0000000000
      8543        68  PMPE      H11X          -22.3245424546      -30.7384105340        3.7586067840  MEMB      68              0.0000000000
      8544        68  PMPE      H11Y          -21.1400300656      -32.0237278113        4.4417928405  MEMB      68              0.0000000000
      8545        68  PMPE      C312          -20.8657102063      -31.4834485990        2.3668516220  MEMB      68              0.0000000000
      8546        68  PMPE      H12X          -19.7799787861      -31.9447418032        2.3189300482  MEMB      68              0.0000000000
      8547        68  PMPE      H12Y          -20.7969167037      -30.4731824223        1.7840309254  MEMB      68              0.0000000000
      8548        68  PMPE      C313          -21.3361328996      -32.5070330480        1.6865930611  MEMB      68              0.0000000000
      8549        68  PMPE      H13X          -22.3994001938      -32.3325186539        1.7391529662  MEMB      68              0.0000000000
      8550        68  PMPE      H13Y          -20.9417734589      -33.4563934615        2.0584894135  MEMB      68              0.0000000000
      8551        68  PMPE      C314          -20.7050324591      -32.2628921114        0.4316188594  MEMB      68              0.0000000000
      8552        68  PMPE      H14X          -20.9708922135      -31.2858079922       -0.0260452160  MEMB      68              0.0000000000
      8553        68  PMPE      H14Y          -21.4303126224      -33.0432343390        0.0591915502  MEMB      68              0.0000000000
      8554        68  PMPE      C315          -19.1240430196      -32.4440712014        0.1925262067  MEMB      68              0.0000000000
      8555        68  PMPE      H15X          -18.7838381391      -33.4196732702        0.5590990861  MEMB      68              0.0000000000
      8556        68  PMPE      H15Y          -18.6667293564      -31.5381709016        0.5129594531  MEMB      68              0.0000000000
      8557        68  PMPE      C316          -18.4664286626      -32.2967695471       -1.1264984965  MEMB      68              0.0000000000
      8558        68  PMPE      H16X          -18.8944021718      -31.4749894035       -1.7505227544  MEMB      68              0.0000000000
      8559        68  PMPE      H16Y          -18.7701381556      -33.3033665282       -1.5302739611  MEMB      68              0.0000000000
      8560        68  PMPE      H16Z          -17.5665252070      -32.5668519573       -1.4911804507  MEMB      68              0.0000000000
      8561        69  PMPE      N              24.8184818476      -25.7571315052       20.1450434212  MEMB      69              0.0000000000
      8562        69  PMPE      HN1            25.4697705484      -24.9561607103       19.9955190288  MEMB      69              0.0000000000
      8563        69  PMPE      HN2            23.8669932513      -25.4701138346       19.8552667751  MEMB      69              0.0000000000
      8564        69  PMPE      HN3            24.8713883731      -25.9984977428       21.1596387702  MEMB      69              0.0000000000
      8565        69  PMPE      C12            25.1526728158      -26.9621304700       19.3043369518  MEMB      69              0.0000000000
      8566        69  PMPE      H12A           24.7005621011      -26.8462893372       18.2986428238  MEMB      69              0.0000000000
      8567        69  PMPE      H12B           24.6470185797      -27.8159938422       19.7916656162  MEMB      69              0.0000000000
      8568        69  PMPE      C11            26.6583446589      -27.1884169892       19.1693166391  MEMB      69              0.0000000000
      8569        69  PMPE      H11A           26.8341205352      -28.1151003651       18.5854886485  MEMB      69              0.0000000000
      8570        69  PMPE      H11B           27.1530303932      -27.3092688249       20.1558096390  MEMB      69              0.0000000000
      8571        69  PMPE      P              28.7925114243      -25.8504164400       18.7659648155  MEMB      69              0.0000000000
      8572        69  PMPE      O13            29.6644640780      -26.6759278850       17.9390081096  MEMB      69              0.0000000000
      8573        69  PMPE      O14            29.0287913142      -25.6340749830       20.1843237657  MEMB      69              0.0000000000
      8574        69  PMPE      O11            28.7051237173      -24.5511532209       18.1307370924  MEMB      69              0.0000000000
      8575        69  PMPE      O12            27.2339263972      -26.1311458500       18.4925626248  MEMB      69              0.0000000000
      8576        69  PMPE      C1             27.6523886725      -24.2455353123       17.3365670131  MEMB      69              0.0000000000
      8577        69  PMPE      HA             28.5812779269      -23.6857777602       17.5071679799  MEMB      69              0.0000000000
      8578        69  PMPE      HB             26.8314242453      -23.7775116340       17.8782587465  MEMB      69              0.0000000000
      8579        69  PMPE      C2             27.3265051973      -24.3973276495       15.8066438803  MEMB      69              0.0000000000
      8580        69  PMPE      HS             26.8548966563      -25.2990610344       15.9226852632  MEMB      69              0.0000000000
      8581        69  PMPE      O21            28.4093462958      -24.4168671229       15.0170520717  MEMB      69              0.0000000000
      8582        69  PMPE      C21            28.6177063212      -25.4766957915       14.2655986949  MEMB      69              0.0000000000
      8583        69  PMPE      O22            27.8183461091      -26.3785520497       14.2308995410  MEMB      69              0.0000000000
      8584        69  PMPE      C22            29.9577775096      -25.6097903185       13.4615545455  MEMB      69              0.0000000000
      8585        69  PMPE      H2R            30.6410939811      -26.2112400723       14.0181313042  MEMB      69              0.0000000000
      8586        69  PMPE      H2S            30.7548522272      -24.8636224260       13.4790225767  MEMB      69              0.0000000000
      8587        69  PMPE      C3             26.4342671390      -23.4787301718       14.9555022421  MEMB      69              0.0000000000
      8588        69  PMPE      HX             27.1575742249      -22.6230997924       14.9467292621  MEMB      69              0.0000000000
      8589        69  PMPE      HY             25.3941067660      -23.1650442283       15.3693391193  MEMB      69              0.0000000000
      8590        69  PMPE      O31            26.2789536810      -23.7734294421       13.6318177192  MEMB      69              0.0000000000
      8591        69  PMPE      C31            25.2541820199      -24.5145208635       13.5461827998  MEMB      69              0.0000000000
      8592        69  PMPE      O32            24.4682828860      -24.8467075270       14.4293014235  MEMB      69              0.0000000000
      8593        69  PMPE      C32            25.3297709015      -24.9077356391       12.1017865604  MEMB      69              0.0000000000
      8594        69  PMPE      H2X            26.1162953550      -24.3082568865       11.5885765768  MEMB      69              0.0000000000
      8595        69  PMPE      H2Y            24.3792666915      -24.6208965417       11.6480330549  MEMB      69              0.0000000000
      8596        69  PMPE      C23            29.7340235307      -25.8388752909       11.9904629780  MEMB      69              0.0000000000
      8597        69  PMPE      H3R            29.0213666872      -25.0064152053       11.7122053157  MEMB      69              0.0000000000
      8598        69  PMPE      H3S            29.1402516974      -26.6860634955       11.8758551314  MEMB      69              0.0000000000
      8599        69  PMPE      C24            31.1159050981      -25.7853758647       11.2448919438  MEMB      69              0.0000000000
      8600        69  PMPE      H4R            31.7564703961      -26.5577426515       11.4602607250  MEMB      69              0.0000000000
      8601        69  PMPE      H4S            31.8877586062      -25.0848021405       11.7590739298  MEMB      69              0.0000000000
      8602        69  PMPE      C25            30.8234000860      -25.5910762537        9.7418310178  MEMB      69              0.0000000000
      8603        69  PMPE      H5R            30.2037882224      -24.7486948734        9.6259857101  MEMB      69              0.0000000000
      8604        69  PMPE      H5S            30.0261902198      -26.2802555786        9.5256262301  MEMB      69              0.0000000000
      8605        69  PMPE      C26            32.0019781289      -25.5629118811        8.7832930229  MEMB      69              0.0000000000
      8606        69  PMPE      H6R            32.3273201552      -26.5894604347        8.6076595592  MEMB      69              0.0000000000
      8607        69  PMPE      H6S            32.8556963193      -25.0336655756        9.2413209936  MEMB      69              0.0000000000
      8608        69  PMPE      C27            31.6775026123      -25.0477562242        7.4144971045  MEMB      69              0.0000000000
      8609        69  PMPE      H7R            32.4999666732      -24.7867849661        6.7718475162  MEMB      69              0.0000000000
      8610        69  PMPE      H7S            30.9876706823      -24.2483063119        7.5014425472  MEMB      69              0.0000000000
      8611        69  PMPE      C28            30.8313010598      -25.8918098558        6.5312609366  MEMB      69              0.0000000000
      8612        69  PMPE      H8R            30.9112308519      -26.8802367475        6.9279333187  MEMB      69              0.0000000000
      8613        69  PMPE      H8S            31.2486117859      -25.7636506289        5.5054530816  MEMB      69              0.0000000000
      8614        69  PMPE      C29            29.3916546269      -25.5213512775        6.5745135387  MEMB      69              0.0000000000
      8615        69  PMPE      H9R            28.8574791007      -25.5796474793        7.5489121858  MEMB      69              0.0000000000
      8616        69  PMPE      C217           28.6714827188      -25.4563606927        5.2080020628  MEMB      69              0.0000000000
      8617        69  PMPE      H17R           27.6267840725      -25.6140433765        5.2045749593  MEMB      69              0.0000000000
      8618        69  PMPE      H17S           29.2636950631      -25.3780903711        4.3364451381  MEMB      69              0.0000000000
      8619        69  PMPE      C210           28.8376081075      -24.3237205578        5.9860815367  MEMB      69              0.0000000000
      8620        69  PMPE      H10R           27.9446177268      -24.1697274047        6.5778536568  MEMB      69              0.0000000000
      8621        69  PMPE      C211           29.4593547028      -23.3717063338        5.1210530486  MEMB      69              0.0000000000
      8622        69  PMPE      H11R           30.6788502581      -23.9288372994        5.5575731004  MEMB      69              0.0000000000
      8623        69  PMPE      H11S           29.8821986396      -22.1883917323        4.2176696948  MEMB      69              0.0000000000
      8624        69  PMPE      C212           29.5006523274      -21.6215013133        4.7220078491  MEMB      69              0.0000000000
      8625        69  PMPE      H12R           28.8005786288      -20.9826518948        5.1493832232  MEMB      69              0.0000000000
      8626        69  PMPE      H12S           28.4392434589      -21.9213436240        4.5983359108  MEMB      69              0.0000000000
      8627        69  PMPE      C213           30.8647292300      -20.6744162648        4.0320441362  MEMB      69              0.0000000000
      8628        69  PMPE      H13R           31.2392649399      -20.3218700920        4.8973617980  MEMB      69              0.0000000000
      8629        69  PMPE      H13S           30.3690194247      -19.7728596092        3.7979295859  MEMB      69              0.0000000000
      8630        69  PMPE      C214           31.6651189495      -21.4092905726        2.6458328079  MEMB      69              0.0000000000
      8631        69  PMPE      H14R           32.4293737738      -22.2696777685        2.9705564743  MEMB      69              0.0000000000
      8632        69  PMPE      H14S           32.2144998892      -20.5400798720        2.5704041359  MEMB      69              0.0000000000
      8633        69  PMPE      C215           31.2260414869      -22.2043426695        1.4646515292  MEMB      69              0.0000000000
      8634        69  PMPE      H15R           30.5401345086      -21.5734567129        1.0528303027  MEMB      69              0.0000000000
      8635        69  PMPE      H15S           30.7355986894      -23.1274325282        1.6568733623  MEMB      69              0.0000000000
      8636        69  PMPE      C216           31.9795469864      -23.1358613779        0.6646714740  MEMB      69              0.0000000000
      8637        69  PMPE      H16R           32.6109661625      -22.3587768385        0.2726107660  MEMB      69              0.0000000000
      8638        69  PMPE      H16S           32.4832093458      -23.8544082815        1.3699109229  MEMB      69              0.0000000000
      8639        69  PMPE      H16T           31.3817375200      -23.6413140240       -0.0837321684  MEMB      69              0.0000000000
      8640        69  PMPE      C33            25.5552324303      -26.4085567937       11.9324228085  MEMB      69              0.0000000000
      8641        69  PMPE      H3X            24.6774068014      -26.8631724971       12.2974993598  MEMB      69              0.0000000000
      8642        69  PMPE      H3Y            26.3277960405      -26.8289160085       12.5885829881  MEMB      69              0.0000000000
      8643        69  PMPE      C34            25.8171696145      -26.8742665486       10.5112471885  MEMB      69              0.0000000000
      8644        69  PMPE      H4X            26.3766964794      -26.0318296183       10.0535242850  MEMB      69              0.0000000000
      8645        69  PMPE      H4Y            24.8426609686      -26.9763862313        9.9695714307  MEMB      69              0.0000000000
      8646        69  PMPE      C35            26.6774825395      -28.1622051970       10.5454024044  MEMB      69              0.0000000000
      8647        69  PMPE      H5X            25.9992686495      -29.0200995103       10.7390242182  MEMB      69              0.0000000000
      8648        69  PMPE      H5Y            27.4271595389      -28.1321381089       11.3910468109  MEMB      69              0.0000000000
      8649        69  PMPE      C36            27.4828578652      -28.4790561743        9.2677127489  MEMB      69              0.0000000000
      8650        69  PMPE      H6X            28.2159413617      -29.2656682814        9.5634488396  MEMB      69              0.0000000000
      8651        69  PMPE      H6Y            28.0926231383      -27.5995433936        8.9763327436  MEMB      69              0.0000000000
      8652        69  PMPE      C37            26.7042347578      -29.0691549776        8.0581472802  MEMB      69              0.0000000000
      8653        69  PMPE      H7X            25.7724417228      -29.5747452344        8.3873937136  MEMB      69              0.0000000000
      8654        69  PMPE      H7Y            27.3314805817      -29.8794481108        7.6055594000  MEMB      69              0.0000000000
      8655        69  PMPE      C38            26.3229871473      -28.0310647437        6.9754833588  MEMB      69              0.0000000000
      8656        69  PMPE      H8X            26.7930963920      -28.2610771454        5.9959883220  MEMB      69              0.0000000000
      8657        69  PMPE      H8Y            26.7664213424      -27.0743170123        7.3106838392  MEMB      69              0.0000000000
      8658        69  PMPE      C39            24.7955880623      -27.8648859028        6.7905349050  MEMB      69              0.0000000000
      8659        69  PMPE      H9X            24.4015712725      -27.4963991993        7.7645450578  MEMB      69              0.0000000000
      8660        69  PMPE      H9Y            24.3485509658      -28.8743112835        6.6670171361  MEMB      69              0.0000000000
      8661        69  PMPE      C310           24.3128160866      -26.9121989065        5.6572173633  MEMB      69              0.0000000000
      8662        69  PMPE      H10X           23.1946472254      -26.9976016343        5.6453818824  MEMB      69              0.0000000000
      8663        69  PMPE      H10Y           24.6337346775      -27.2037046221        4.6235919774  MEMB      69              0.0000000000
      8664        69  PMPE      C311           24.7215826716      -25.4443229882        5.9181887004  MEMB      69              0.0000000000
      8665        69  PMPE      H11X           25.7856150446      -25.2942392604        6.1236073715  MEMB      69              0.0000000000
      8666        69  PMPE      H11Y           24.2109247664      -25.0654020584        6.8342273276  MEMB      69              0.0000000000
      8667        69  PMPE      C312           24.3727086663      -24.5371065861        4.7753631264  MEMB      69              0.0000000000
      8668        69  PMPE      H12X           23.3721915117      -24.5116876818        5.0655273413  MEMB      69              0.0000000000
      8669        69  PMPE      H12Y           24.3321198524      -24.9876241514        3.7601708299  MEMB      69              0.0000000000
      8670        69  PMPE      C313           25.0871429513      -23.2171782017        4.7306491266  MEMB      69              0.0000000000
      8671        69  PMPE      H13X           26.1255987525      -23.3959346303        5.0007450842  MEMB      69              0.0000000000
      8672        69  PMPE      H13Y           24.8817641466      -22.3685291009        5.4219321656  MEMB      69              0.0000000000
      8673        69  PMPE      C314           25.1387191275      -22.8147876981        3.3004389555  MEMB      69              0.0000000000
      8674        69  PMPE      H14X           25.5325582098      -23.6087764845        2.6388932799  MEMB      69              0.0000000000
      8675        69  PMPE      H14Y           25.8657943825      -22.0662817493        3.5258888468  MEMB      69              0.0000000000
      8676        69  PMPE      C315           23.9616927465      -22.1556303867        2.7427314215  MEMB      69              0.0000000000
      8677        69  PMPE      H15X           23.6291700521      -21.3057658838        3.3364869048  MEMB      69              0.0000000000
      8678        69  PMPE      H15Y           23.1652128083      -22.8766783027        2.6115906772  MEMB      69              0.0000000000
      8679        69  PMPE      C316           24.1597536907      -21.7365936105        1.3893278425  MEMB      69              0.0000000000
      8680        69  PMPE      H16X           23.2975509768      -21.4226576706        1.1532709015  MEMB      69              0.0000000000
      8681        69  PMPE      H16Y           24.2175105545      -22.5809609195        0.7197223320  MEMB      69              0.0000000000
      8682        69  PMPE      H16Z           24.5010310222      -20.7388747753        1.1753970844  MEMB      69              0.0000000000
      8683        70  OYPE      N               2.2879761877       38.4568085773       21.2813631621  MEMB      70              0.0000000000
      8684        70  OYPE      HN1             1.2854462505       38.3591009259       21.5367187539  MEMB      70              0.0000000000
      8685        70  OYPE      HN2             2.9386879126       38.4758118268       22.0964649003  MEMB      70              0.0000000000
      8686        70  OYPE      HN3             2.4321736909       39.3268019558       20.7338068693  MEMB      70              0.0000000000
      8687        70  OYPE      C12             2.6534221219       37.3381567096       20.3764663005  MEMB      70              0.0000000000
      8688        70  OYPE      H12A            1.8896145543       37.3054762395       19.5726223686  MEMB      70              0.0000000000
      8689        70  OYPE      H12B            2.6267826782       36.3667619599       20.9221836576  MEMB      70              0.0000000000
      8690        70  OYPE      C11             4.0898883111       37.5942387207       19.9519443995  MEMB      70              0.0000000000
      8691        70  OYPE      H11A            4.6425006589       37.6398426484       20.9332230059  MEMB      70              0.0000000000
      8692        70  OYPE      H11B            4.2993595289       38.5630368467       19.4511577007  MEMB      70              0.0000000000
      8693        70  OYPE      P               5.6820930938       36.6423872351       18.0615589355  MEMB      70              0.0000000000
      8694        70  OYPE      O13             6.1003120387       35.2858591807       17.6557950925  MEMB      70              0.0000000000
      8695        70  OYPE      O14             6.7236399471       37.4683755254       18.7114146734  MEMB      70              0.0000000000
      8696        70  OYPE      O11             5.0078152453       37.4111553924       16.8332358806  MEMB      70              0.0000000000
      8697        70  OYPE      O12             4.4766391322       36.5203606451       19.1053275854  MEMB      70              0.0000000000
      8698        70  OYPE      C1              3.6690737213       37.1710812151       16.4176631404  MEMB      70              0.0000000000
      8699        70  OYPE      HA              3.2133692978       38.1055427138       16.0335841095  MEMB      70              0.0000000000
      8700        70  OYPE      HB              3.0436815836       36.7894903349       17.2516044701  MEMB      70              0.0000000000
      8701        70  OYPE      C2              3.5822695736       36.1641226373       15.2720592434  MEMB      70              0.0000000000
      8702        70  OYPE      HS              4.1342270090       35.2858140717       15.6513338044  MEMB      70              0.0000000000
      8703        70  OYPE      O21             4.1628398134       36.7556476958       14.0966564199  MEMB      70              0.0000000000
      8704        70  OYPE      C21             4.5200278769       35.9393497827       13.1384846035  MEMB      70              0.0000000000
      8705        70  OYPE      O22             4.7461184318       34.7482109350       13.2250350416  MEMB      70              0.0000000000
      8706        70  OYPE      C22             4.9316010655       36.7924591463       11.9465267550  MEMB      70              0.0000000000
      8707        70  OYPE      H2R             5.6625881864       37.3195696907       12.4894099714  MEMB      70              0.0000000000
      8708        70  OYPE      H2S             4.3777784405       37.6852750355       11.7707376640  MEMB      70              0.0000000000
      8709        70  OYPE      C3              2.0846923243       35.8328388973       15.0822582045  MEMB      70              0.0000000000
      8710        70  OYPE      HX              1.5627763886       36.8018858252       15.0599076600  MEMB      70              0.0000000000
      8711        70  OYPE      HY              1.5462174577       35.5166399860       15.9574791843  MEMB      70              0.0000000000
      8712        70  OYPE      O31             1.8044567079       34.9853485872       13.9592670611  MEMB      70              0.0000000000
      8713        70  OYPE      C31             2.1192727046       33.7351473097       14.2418401884  MEMB      70              0.0000000000
      8714        70  OYPE      O32             2.3608384033       33.2877958250       15.3382691659  MEMB      70              0.0000000000
      8715        70  OYPE      C32             2.2113962120       33.0121326022       12.9646809210  MEMB      70              0.0000000000
      8716        70  OYPE      H2X             3.2062430345       32.5502187833       12.9499741792  MEMB      70              0.0000000000
      8717        70  OYPE      H2Y             1.3516696002       32.2976290056       12.9349037334  MEMB      70              0.0000000000
      8718        70  OYPE      C23             5.3176201318       36.0472309472       10.6468840625  MEMB      70              0.0000000000
      8719        70  OYPE      H3R             4.4066106670       35.5412262021       10.3629198912  MEMB      70              0.0000000000
      8720        70  OYPE      H3S             6.0521928809       35.3156586419       10.9055528425  MEMB      70              0.0000000000
      8721        70  OYPE      C24             5.9124219579       36.9228009491        9.4999560689  MEMB      70              0.0000000000
      8722        70  OYPE      H4R             7.0215806458       37.1314462884        9.4709830549  MEMB      70              0.0000000000
      8723        70  OYPE      H4S             5.4637992789       37.8894222904        9.5771806447  MEMB      70              0.0000000000
      8724        70  OYPE      C25             5.6414077284       36.3552434154        8.2150409551  MEMB      70              0.0000000000
      8725        70  OYPE      H5R             6.1780160621       35.4153957331        8.5333924450  MEMB      70              0.0000000000
      8726        70  OYPE      H5S             6.1884763497       36.7760899034        7.3377271028  MEMB      70              0.0000000000
      8727        70  OYPE      C26             4.1951984084       36.2634069464        7.7830170580  MEMB      70              0.0000000000
      8728        70  OYPE      H6R             3.5175140492       35.8266505103        8.5318151648  MEMB      70              0.0000000000
      8729        70  OYPE      H6S             3.9767202132       35.7117890624        6.8887583797  MEMB      70              0.0000000000
      8730        70  OYPE      C27             3.6190233923       37.5965723557        7.3986988977  MEMB      70              0.0000000000
      8731        70  OYPE      H7R             3.9882448305       38.0538281153        6.4530883712  MEMB      70              0.0000000000
      8732        70  OYPE      H7S             3.7413148360       38.2627829007        8.2758769794  MEMB      70              0.0000000000
      8733        70  OYPE      C28             2.2060076819       37.2642289437        7.1185355392  MEMB      70              0.0000000000
      8734        70  OYPE      H8R             1.8157427425       36.6859319461        7.9511733865  MEMB      70              0.0000000000
      8735        70  OYPE      H8S             2.1534686346       36.5835383942        6.2401158962  MEMB      70              0.0000000000
      8736        70  OYPE      C29             1.4147752411       38.4450845818        7.0073177390  MEMB      70              0.0000000000
      8737        70  OYPE      H9R             1.4565585647       39.3010788179        7.6632958671  MEMB      70              0.0000000000
      8738        70  OYPE      C210            0.5130080586       38.3176600198        6.1707963283  MEMB      70              0.0000000000
      8739        70  OYPE      H10R           -0.1326126805       39.0460448171        6.2515123066  MEMB      70              0.0000000000
      8740        70  OYPE      C211            0.0340103664       37.2750482109        5.2274678519  MEMB      70              0.0000000000
      8741        70  OYPE      H11R           -1.0864989270       37.3646552760        4.9836105907  MEMB      70              0.0000000000
      8742        70  OYPE      H11S            0.0279037594       36.3238972006        5.5364872891  MEMB      70              0.0000000000
      8743        70  OYPE      C212            0.9160225191       37.1108335859        3.9971791076  MEMB      70              0.0000000000
      8744        70  OYPE      H12R            1.8728317667       37.0170262010        3.6865190433  MEMB      70              0.0000000000
      8745        70  OYPE      H12S            1.1850141240       38.2064153390        3.9166531628  MEMB      70              0.0000000000
      8746        70  OYPE      C213            0.2758967711       36.1611272433        2.6813373327  MEMB      70              0.0000000000
      8747        70  OYPE      H13R           -0.9511660344       36.1966701941        2.7856616534  MEMB      70              0.0000000000
      8748        70  OYPE      H13S            0.1433338714       35.2714386239        3.0527737523  MEMB      70              0.0000000000
      8749        70  OYPE      C214            1.0002026963       36.5217097236        1.1381854671  MEMB      70              0.0000000000
      8750        70  OYPE      H14R            1.9363804197       36.5143377774        1.1657314160  MEMB      70              0.0000000000
      8751        70  OYPE      H14S            1.3087096082       37.8789379332        0.9270405559  MEMB      70              0.0000000000
      8752        70  OYPE      C215            0.3506016843       35.8505184905       -0.3657583085  MEMB      70              0.0000000000
      8753        70  OYPE      H15R            0.0341804252       36.5298919883       -1.2501249856  MEMB      70              0.0000000000
      8754        70  OYPE      H15S           -0.6396269237       36.0619238436       -0.8245410351  MEMB      70              0.0000000000
      8755        70  OYPE      C216           -0.0584431068       34.4789809363       -0.3322158949  MEMB      70              0.0000000000
      8756        70  OYPE      H16R           -0.3980788779       34.1691238389        0.6672852540  MEMB      70              0.0000000000
      8757        70  OYPE      H16S            0.9465285182       34.2389367272       -0.5795901968  MEMB      70              0.0000000000
      8758        70  OYPE      H16T           -0.8912493835       34.3164045518       -1.0470540420  MEMB      70              0.0000000000
      8759        70  OYPE      C33             2.0191705577       33.9811610296       11.7769435252  MEMB      70              0.0000000000
      8760        70  OYPE      H3X             2.7025854424       34.8269787253       11.8402368994  MEMB      70              0.0000000000
      8761        70  OYPE      H3Y             0.9412033610       34.1482588419       11.7742816270  MEMB      70              0.0000000000
      8762        70  OYPE      C34             2.3598852691       33.5996526888       10.4252527191  MEMB      70              0.0000000000
      8763        70  OYPE      H4X             2.8026987690       33.9832514486        9.5330553553  MEMB      70              0.0000000000
      8764        70  OYPE      H4Y             3.3001401613       33.0336396596       10.9167448885  MEMB      70              0.0000000000
      8765        70  OYPE      C35             1.1053567460       33.0052639222        9.5698400040  MEMB      70              0.0000000000
      8766        70  OYPE      H5X             0.1831163234       33.4337750104        9.6761297094  MEMB      70              0.0000000000
      8767        70  OYPE      H5Y             0.5554486173       32.2235100034       10.2451298108  MEMB      70              0.0000000000
      8768        70  OYPE      C36             1.4030951422       32.5109704937        7.9911488989  MEMB      70              0.0000000000
      8769        70  OYPE      H6X             2.3661341367       31.9268445781        7.8188447856  MEMB      70              0.0000000000
      8770        70  OYPE      H6Y             0.6087932016       31.7480595102        7.6291021072  MEMB      70              0.0000000000
      8771        70  OYPE      C37             1.4915226805       33.4758840023        7.0213648615  MEMB      70              0.0000000000
      8772        70  OYPE      H7X             0.5518859703       33.9437983813        7.2925460778  MEMB      70              0.0000000000
      8773        70  OYPE      H7Y             2.3509638931       34.0305794196        7.3501259226  MEMB      70              0.0000000000
      8774        70  OYPE      C38             1.4112376394       32.8315615538        5.6672076649  MEMB      70              0.0000000000
      8775        70  OYPE      H8X             0.3563436570       32.4235494546        5.6830601721  MEMB      70              0.0000000000
      8776        70  OYPE      H8Y             1.4863575494       33.7075346690        5.0083966374  MEMB      70              0.0000000000
      8777        70  OYPE      C39             2.3582537490       31.7120321901        5.2963806324  MEMB      70              0.0000000000
      8778        70  OYPE      H9X             2.4203858139       30.9265633256        6.0506369657  MEMB      70              0.0000000000
      8779        70  OYPE      C310            3.0483052183       31.5566067786        4.1487672463  MEMB      70              0.0000000000
      8780        70  OYPE      H10X            3.8994075450       30.8313656284        4.1501507126  MEMB      70              0.0000000000
      8781        70  OYPE      C311            3.0477743644       32.5616398364        2.9662330216  MEMB      70              0.0000000000
      8782        70  OYPE      H11X            2.4398999182       32.1156023630        2.1831539409  MEMB      70              0.0000000000
      8783        70  OYPE      H11Y            2.4689973441       33.4654401213        3.1895201327  MEMB      70              0.0000000000
      8784        70  OYPE      C312            4.5360884486       33.2191689850        2.4490675049  MEMB      70              0.0000000000
      8785        70  OYPE      H12X            4.3931165271       33.7926375805        1.5524871588  MEMB      70              0.0000000000
      8786        70  OYPE      H12Y            5.2269792816       32.2992821577        2.4170246779  MEMB      70              0.0000000000
      8787        70  OYPE      C313            5.0418747252       34.2627261171        3.1234661943  MEMB      70              0.0000000000
      8788        70  OYPE      H13X            4.8520204920       32.5750175181        4.3485789569  MEMB      70              0.0000000000
      8789        70  OYPE      H13Y            5.7545310535       33.9929677167        2.6526094925  MEMB      70              0.0000000000
      8790        70  OYPE      C314            4.6461583377       35.6008596044        3.6940967363  MEMB      70              0.0000000000
      8791        70  OYPE      H14X            5.4989509983       35.9301245923        4.4052678230  MEMB      70              0.0000000000
      8792        70  OYPE      H14Y            3.6569861275       35.4847604716        4.2354042033  MEMB      70              0.0000000000
      8793        70  OYPE      C315            4.9423819887       36.4282881618        2.6680546979  MEMB      70              0.0000000000
      8794        70  OYPE      H15X            4.3147917512       35.9603615816        1.8983721762  MEMB      70              0.0000000000
      8795        70  OYPE      H15Y            6.0280896206       36.4085379603        2.4597426322  MEMB      70              0.0000000000
      8796        70  OYPE      C316            4.6135657233       37.7482637076        3.1776569780  MEMB      70              0.0000000000
      8797        70  OYPE      H16X            4.8802413209       37.8691803991        4.2661860021  MEMB      70              0.0000000000
      8798        70  OYPE      H16Y            3.5229470760       37.7649574022        3.0883928022  MEMB      70              0.0000000000
      8799        70  OYPE      C317            5.2666359054       38.8388165350        2.3385841245  MEMB      70              0.0000000000
      8800        70  OYPE      H17X            6.3150475730       38.9388925454        2.6591407833  MEMB      70              0.0000000000
      8801        70  OYPE      H17Y            4.7886107902       39.7767356730        2.6680654447  MEMB      70              0.0000000000
      8802        70  OYPE      C318            5.2996511663       38.7399602792        0.7959697156  MEMB      70              0.0000000000
      8803        70  OYPE      H18X            5.7735612844       39.6420497271        0.3477037583  MEMB      70              0.0000000000
      8804        70  OYPE      H18Y            5.9430118592       37.9104938279        0.4334498543  MEMB      70              0.0000000000
      8805        70  OYPE      H18Z            4.2708218580       38.6281552715        0.3929151920  MEMB      70              0.0000000000
      8806        71  QMPE      N              38.9829594504        7.4947390062       18.0997735161  MEMB      71              0.0000000000
      8807        71  QMPE      HN1            39.7488594146        8.1817388706       17.8925309759  MEMB      71              0.0000000000
      8808        71  QMPE      HN2            38.8612245206        6.8252474168       17.3075888976  MEMB      71              0.0000000000
      8809        71  QMPE      HN3            38.0934750964        8.0015294964       18.1917943133  MEMB      71              0.0000000000
      8810        71  QMPE      C12            39.2480467876        6.7891005668       19.3980177273  MEMB      71              0.0000000000
      8811        71  QMPE      H12A           39.2010874548        7.5151491654       20.2073225359  MEMB      71              0.0000000000
      8812        71  QMPE      H12B           40.2343896268        6.2999103938       19.3546975775  MEMB      71              0.0000000000
      8813        71  QMPE      C11            38.2341323721        5.7326211843       19.7780690247  MEMB      71              0.0000000000
      8814        71  QMPE      H11A           37.3039294140        6.2185374398       20.0726051491  MEMB      71              0.0000000000
      8815        71  QMPE      H11B           38.7170534563        5.2474808612       20.6551235539  MEMB      71              0.0000000000
      8816        71  QMPE      P              37.2496423474        3.4624372020       19.0115749849  MEMB      71              0.0000000000
      8817        71  QMPE      O13            35.8290161881        3.8506837900       19.1957137866  MEMB      71              0.0000000000
      8818        71  QMPE      O14            37.9852997996        2.8615081553       20.1407885468  MEMB      71              0.0000000000
      8819        71  QMPE      O11            37.4619312588        2.6096003484       17.6999654303  MEMB      71              0.0000000000
      8820        71  QMPE      O12            38.0402677251        4.8290122534       18.7003897026  MEMB      71              0.0000000000
      8821        71  QMPE      C1             38.6550979894        2.5940047094       16.9267602272  MEMB      71              0.0000000000
      8822        71  QMPE      HA             39.1343155170        1.5838446916       16.9822194000  MEMB      71              0.0000000000
      8823        71  QMPE      HB             39.3841688659        3.3634467546       17.2693393975  MEMB      71              0.0000000000
      8824        71  QMPE      C2             38.2493663924        2.9116641473       15.4775350845  MEMB      71              0.0000000000
      8825        71  QMPE      HS             37.7320307693        3.8993953830       15.5707798337  MEMB      71              0.0000000000
      8826        71  QMPE      O21            37.4001640079        1.8282145502       15.0450535058  MEMB      71              0.0000000000
      8827        71  QMPE      C21            36.4024646567        2.2708081859       14.2927128993  MEMB      71              0.0000000000
      8828        71  QMPE      O22            36.2118007986        3.3898918398       13.9122385405  MEMB      71              0.0000000000
      8829        71  QMPE      C22            35.5090840750        1.2493268096       13.8289252356  MEMB      71              0.0000000000
      8830        71  QMPE      H2R            34.5355669942        1.5265700588       13.4372880245  MEMB      71              0.0000000000
      8831        71  QMPE      H2S            35.1476797469        0.7789239646       14.7423937808  MEMB      71              0.0000000000
      8832        71  QMPE      C3             39.4632542517        3.0642728507       14.5264688392  MEMB      71              0.0000000000
      8833        71  QMPE      HX             40.0241552363        2.1183560967       14.7234249180  MEMB      71              0.0000000000
      8834        71  QMPE      HY             40.0863984942        3.9235575749       14.8511664977  MEMB      71              0.0000000000
      8835        71  QMPE      O31            39.1229176822        3.1423406566       13.1221391631  MEMB      71              0.0000000000
      8836        71  QMPE      C31            38.9144499582        4.3439499948       12.5968175099  MEMB      71              0.0000000000
      8837        71  QMPE      O32            38.9283975881        5.4175239814       13.1685628958  MEMB      71              0.0000000000
      8838        71  QMPE      C32            38.5298323863        4.1881300133       11.1464957442  MEMB      71              0.0000000000
      8839        71  QMPE      H2X            38.9480521661        5.0142998059       10.5466190857  MEMB      71              0.0000000000
      8840        71  QMPE      H2Y            38.9701183112        3.2722734473       10.7103646139  MEMB      71              0.0000000000
      8841        71  QMPE      C23            36.2228953118        0.5327821991       12.7190787722  MEMB      71              0.0000000000
      8842        71  QMPE      H3R            37.1279359889        0.1041442158       13.3495217984  MEMB      71              0.0000000000
      8843        71  QMPE      H3S            36.7690767437        1.0700828676       11.9822969991  MEMB      71              0.0000000000
      8844        71  QMPE      C24            35.2293381958       -0.3456807085       11.7583788838  MEMB      71              0.0000000000
      8845        71  QMPE      H4R            34.5661535948        0.0725836680       11.1737215842  MEMB      71              0.0000000000
      8846        71  QMPE      H4S            34.5629205183       -1.2152970268       12.0971910563  MEMB      71              0.0000000000
      8847        71  QMPE      C25            35.6978767613       -0.9498775688       10.5579336843  MEMB      71              0.0000000000
      8848        71  QMPE      H5R            35.1732988808       -1.8545757051       10.1469167482  MEMB      71              0.0000000000
      8849        71  QMPE      H5S            36.1921142743       -1.5864477379       10.8073116277  MEMB      71              0.0000000000
      8850        71  QMPE      C26            36.9707878911       -0.5091608569        9.8716197173  MEMB      71              0.0000000000
      8851        71  QMPE      H6R            37.5549331216       -1.1857532389        9.2473414589  MEMB      71              0.0000000000
      8852        71  QMPE      H6S            37.7688182835       -0.1154638635       10.3775986707  MEMB      71              0.0000000000
      8853        71  QMPE      C27            36.4647612930        0.1601846826        8.9909342941  MEMB      71              0.0000000000
      8854        71  QMPE      H7R            35.6818658118        0.7922724258        9.2918032102  MEMB      71              0.0000000000
      8855        71  QMPE      H7S            35.9032892032       -0.8586710478        8.7446904900  MEMB      71              0.0000000000
      8856        71  QMPE      C28            37.4193543542        0.8466789887        7.9458343740  MEMB      71              0.0000000000
      8857        71  QMPE      H8R            37.9914798715        1.5022215607        8.4643765721  MEMB      71              0.0000000000
      8858        71  QMPE      H8S            36.8029008013        1.4981862475        7.2298733662  MEMB      71              0.0000000000
      8859        71  QMPE      C29            38.2154771420       -0.1247034753        7.1117505560  MEMB      71              0.0000000000
      8860        71  QMPE      H9R            37.8073170700       -0.8128444690        6.5631071570  MEMB      71              0.0000000000
      8861        71  QMPE      C217           39.5487246749       -0.5485549013        7.4492731451  MEMB      71              0.0000000000
      8862        71  QMPE      H17R           39.7478132043       -0.0548807481        8.3538037177  MEMB      71              0.0000000000
      8863        71  QMPE      H17S           39.8617891697       -1.5378778284        7.1579227294  MEMB      71              0.0000000000
      8864        71  QMPE      C210           39.2761818967        0.2963867373        6.2120712703  MEMB      71              0.0000000000
      8865        71  QMPE      H10R           39.5554304795       -0.3229035548        5.3296826353  MEMB      71              0.0000000000
      8866        71  QMPE      C211           39.8436552900        1.6567605875        6.3808000640  MEMB      71              0.0000000000
      8867        71  QMPE      H11R           40.0237568892        1.8708439266        7.4573732073  MEMB      71              0.0000000000
      8868        71  QMPE      H11S           40.8323750669        1.5582085091        5.8909055266  MEMB      71              0.0000000000
      8869        71  QMPE      C212           38.9797360521        2.7700565901        5.7502467515  MEMB      71              0.0000000000
      8870        71  QMPE      H12R           39.4530528526        3.7215198599        6.0788355415  MEMB      71              0.0000000000
      8871        71  QMPE      H12S           37.9699375775        2.8488209948        6.1993945383  MEMB      71              0.0000000000
      8872        71  QMPE      C213           38.8970757395        2.5853181236        4.2105548802  MEMB      71              0.0000000000
      8873        71  QMPE      H13R           38.5932534632        1.5453013249        3.9389898723  MEMB      71              0.0000000000
      8874        71  QMPE      H13S           39.9124619700        2.7325657584        3.8185359571  MEMB      71              0.0000000000
      8875        71  QMPE      C214           37.9925221553        3.5347669970        3.4124836282  MEMB      71              0.0000000000
      8876        71  QMPE      H14R           38.4134080600        4.5581355638        3.3438486600  MEMB      71              0.0000000000
      8877        71  QMPE      H14S           37.0229262717        3.6208258281        3.9335191296  MEMB      71              0.0000000000
      8878        71  QMPE      C215           37.6710128167        3.0216810789        1.9992674685  MEMB      71              0.0000000000
      8879        71  QMPE      H15R           36.8970020793        3.7353474400        1.6187932644  MEMB      71              0.0000000000
      8880        71  QMPE      H15S           37.2664561249        1.9928422458        2.0042017556  MEMB      71              0.0000000000
      8881        71  QMPE      C216           38.8489926976        2.9576223378        1.0505189905  MEMB      71              0.0000000000
      8882        71  QMPE      H16R           39.3045650809        3.9416246575        1.1806845568  MEMB      71              0.0000000000
      8883        71  QMPE      H16S           38.5042294317        2.9177498849        0.0050575685  MEMB      71              0.0000000000
      8884        71  QMPE      H16T           39.5546042293        2.1058876375        1.2396455623  MEMB      71              0.0000000000
      8885        71  QMPE      C33            36.9922793320        4.2855126945       11.1255392790  MEMB      71              0.0000000000
      8886        71  QMPE      H3X            36.6127892572        5.1635110332       11.7109852757  MEMB      71              0.0000000000
      8887        71  QMPE      H3Y            36.5509782967        3.3794823639       11.6004082128  MEMB      71              0.0000000000
      8888        71  QMPE      C34            36.4097457378        4.4027678317        9.7269946058  MEMB      71              0.0000000000
      8889        71  QMPE      H4X            35.3122985847        4.2267701849        9.8690144841  MEMB      71              0.0000000000
      8890        71  QMPE      H4Y            36.8028670216        3.5819484897        9.0948855816  MEMB      71              0.0000000000
      8891        71  QMPE      C35            36.6691135351        5.7543352051        9.0316220258  MEMB      71              0.0000000000
      8892        71  QMPE      H5X            37.7256059214        6.1158665740        9.0578769085  MEMB      71              0.0000000000
      8893        71  QMPE      H5Y            35.9922945478        6.4900442051        9.5266784485  MEMB      71              0.0000000000
      8894        71  QMPE      C36            36.1901333515        5.7375310215        7.6071276909  MEMB      71              0.0000000000
      8895        71  QMPE      H6X            36.7408739693        4.9875638171        6.9777551080  MEMB      71              0.0000000000
      8896        71  QMPE      H6Y            36.2666378794        6.7420817163        7.1287861104  MEMB      71              0.0000000000
      8897        71  QMPE      C37            34.7254134996        5.5028959220        7.5990679868  MEMB      71              0.0000000000
      8898        71  QMPE      H7X            34.2149762044        4.8534987598        8.3354135515  MEMB      71              0.0000000000
      8899        71  QMPE      H7Y            34.1487056970        6.4705235004        7.5990728436  MEMB      71              0.0000000000
      8900        71  QMPE      C38            34.5422004750        4.9309168105        6.2764530267  MEMB      71              0.0000000000
      8901        71  QMPE      H8X            33.5819141193        5.0580103168        6.4652600987  MEMB      71              0.0000000000
      8902        71  QMPE      H8Y            34.5809376055        5.6087461569        5.4271879302  MEMB      71              0.0000000000
      8903        71  QMPE      C39            34.6172328094        3.4463265057        5.9368624326  MEMB      71              0.0000000000
      8904        71  QMPE      H9X            34.0165154386        2.8176992968        6.5882097572  MEMB      71              0.0000000000
      8905        71  QMPE      H9Y            35.6384274251        3.2918186295        6.2164789686  MEMB      71              0.0000000000
      8906        71  QMPE      C310           34.2928835734        3.0349522918        4.4857505329  MEMB      71              0.0000000000
      8907        71  QMPE      H10X           34.6668991675        3.5911748798        3.6383734646  MEMB      71              0.0000000000
      8908        71  QMPE      H10Y           33.2294310445        2.9162262197        4.2483095173  MEMB      71              0.0000000000
      8909        71  QMPE      C311           34.6203299027        1.8535951435        4.2180696799  MEMB      71              0.0000000000
      8910        71  QMPE      H11X           35.7437432395        1.8216043944        4.2158802774  MEMB      71              0.0000000000
      8911        71  QMPE      H11Y           34.5222119564        1.5369331421        3.1590270917  MEMB      71              0.0000000000
      8912        71  QMPE      C312           33.7078165444        0.8195810972        5.0426374338  MEMB      71              0.0000000000
      8913        71  QMPE      H12X           32.7581385738        0.6217366265        5.3432968405  MEMB      71              0.0000000000
      8914        71  QMPE      H12Y           34.3842618247        1.0356449988        5.7367250752  MEMB      71              0.0000000000
      8915        71  QMPE      C313           33.6663450149       -0.8990621127        4.8334428560  MEMB      71              0.0000000000
      8916        71  QMPE      H13X           34.4520210079       -1.3498177665        5.4227233718  MEMB      71              0.0000000000
      8917        71  QMPE      H13Y           33.3686733967       -1.5987486671        5.6667305276  MEMB      71              0.0000000000
      8918        71  QMPE      C314           34.3934752707       -1.5631447699        2.9441817729  MEMB      71              0.0000000000
      8919        71  QMPE      H14X           35.3533842605       -1.5531945912        2.5977752629  MEMB      71              0.0000000000
      8920        71  QMPE      H14Y           34.2211830226       -0.6582283335        2.5031558341  MEMB      71              0.0000000000
      8921        71  QMPE      C315           34.5907342533       -3.1053583735        2.1995995748  MEMB      71              0.0000000000
      8922        71  QMPE      H15X           34.8608062167       -3.8709629537        2.7700041743  MEMB      71              0.0000000000
      8923        71  QMPE      H15Y           33.3832547979       -3.5796499526        2.2125073455  MEMB      71              0.0000000000
      8924        71  QMPE      H15Z           33.9373342606       -3.5205956416        1.6845172582  MEMB      71              0.0000000000
      8925        72  OYPE      N             -41.1690214735        3.4957316923       21.1171166840  MEMB      72              0.0000000000
      8926        72  OYPE      HN1           -41.9691289743        2.9201846887       21.4781701190  MEMB      72              0.0000000000
      8927        72  OYPE      HN2           -40.7573657656        4.0396644012       21.8963481766  MEMB      72              0.0000000000
      8928        72  OYPE      HN3           -41.5442894077        4.1288058053       20.3752040407  MEMB      72              0.0000000000
      8929        72  OYPE      C12           -40.0953649366        2.5429201967       20.6556916887  MEMB      72              0.0000000000
      8930        72  OYPE      H12A          -40.6022471519        1.6986382729       20.1625564993  MEMB      72              0.0000000000
      8931        72  OYPE      H12B          -39.6065375730        2.1304496661       21.5235958969  MEMB      72              0.0000000000
      8932        72  OYPE      C11           -38.9303694911        3.1388563480       19.8731590825  MEMB      72              0.0000000000
      8933        72  OYPE      H11A          -38.2261853285        3.6987443509       20.5390022875  MEMB      72              0.0000000000
      8934        72  OYPE      H11B          -39.3062596962        3.8406345569       19.0994957601  MEMB      72              0.0000000000
      8935        72  OYPE      P             -37.2081968631        2.4079656653       18.0799067749  MEMB      72              0.0000000000
      8936        72  OYPE      O13           -36.0177953603        1.5562223269       18.1631093690  MEMB      72              0.0000000000
      8937        72  OYPE      O14           -37.0413673614        3.8680699930       17.9860511687  MEMB      72              0.0000000000
      8938        72  OYPE      O11           -38.0595148502        1.9062349476       16.8440417946  MEMB      72              0.0000000000
      8939        72  OYPE      O12           -38.2401601816        2.0443412103       19.2796917504  MEMB      72              0.0000000000
      8940        72  OYPE      C1            -39.4206755954        2.1196910808       16.5354435562  MEMB      72              0.0000000000
      8941        72  OYPE      HA            -39.5576115191        2.1933403222       15.4371472890  MEMB      72              0.0000000000
      8942        72  OYPE      HB            -39.8040173766        3.0572473349       16.9864753490  MEMB      72              0.0000000000
      8943        72  OYPE      C2            -40.1620028971        0.9453567420       17.1474901217  MEMB      72              0.0000000000
      8944        72  OYPE      HS            -39.9800474243        0.9804074912       18.2042958362  MEMB      72              0.0000000000
      8945        72  OYPE      O21           -39.6224009796       -0.2324080468       16.4223079985  MEMB      72              0.0000000000
      8946        72  OYPE      C21           -40.1396757858       -1.3174202853       16.8509228898  MEMB      72              0.0000000000
      8947        72  OYPE      O22           -41.1564083098       -1.2449239195       17.5246528324  MEMB      72              0.0000000000
      8948        72  OYPE      C22           -39.3132678690       -2.5746362240       16.3390226380  MEMB      72              0.0000000000
      8949        72  OYPE      H2R           -39.9780386405       -3.3898830812       15.9844912365  MEMB      72              0.0000000000
      8950        72  OYPE      H2S           -38.6848273211       -3.0226679343       17.1362306745  MEMB      72              0.0000000000
      8951        72  OYPE      C3            -41.6722738620        1.1515095415       17.1068818513  MEMB      72              0.0000000000
      8952        72  OYPE      HX            -41.9873936158        2.0490761094       17.5844982508  MEMB      72              0.0000000000
      8953        72  OYPE      HY            -42.4009722841        0.4212408997       17.3748003303  MEMB      72              0.0000000000
      8954        72  OYPE      O31           -41.9054376803        1.3259254287       15.9278295145  MEMB      72              0.0000000000
      8955        72  OYPE      C31           -41.5848935362        0.1349797317       14.8744426991  MEMB      72              0.0000000000
      8956        72  OYPE      O32           -42.2384358022       -0.7175389581       14.6158519613  MEMB      72              0.0000000000
      8957        72  OYPE      C32           -41.4741337629        0.6492578722       12.9372363201  MEMB      72              0.0000000000
      8958        72  OYPE      H2X           -42.4098143512        0.4713413880       12.2923710919  MEMB      72              0.0000000000
      8959        72  OYPE      H2Y           -41.6880496568        1.8229487196       12.8478772646  MEMB      72              0.0000000000
      8960        72  OYPE      C23           -38.4741617462       -2.1877051456       15.1107147365  MEMB      72              0.0000000000
      8961        72  OYPE      H3R           -37.8889400640       -1.2619454615       15.3143314138  MEMB      72              0.0000000000
      8962        72  OYPE      H3S           -39.2103592554       -1.9707553722       14.3055885158  MEMB      72              0.0000000000
      8963        72  OYPE      C24           -37.4304940085       -3.1732274892       14.6171949326  MEMB      72              0.0000000000
      8964        72  OYPE      H4R           -37.8935616145       -4.1395031104       14.2845977138  MEMB      72              0.0000000000
      8965        72  OYPE      H4S           -36.7332435085       -3.3734211285       15.4605376964  MEMB      72              0.0000000000
      8966        72  OYPE      C25           -36.5549667065       -2.4726726601       13.5649848338  MEMB      72              0.0000000000
      8967        72  OYPE      H5R           -35.9374417416       -3.2886190194       13.1370354870  MEMB      72              0.0000000000
      8968        72  OYPE      H5S           -35.8811308933       -1.7025959418       14.0331372267  MEMB      72              0.0000000000
      8969        72  OYPE      C26           -37.3268291075       -1.7990806559       12.4312578866  MEMB      72              0.0000000000
      8970        72  OYPE      H6R           -36.5967197575       -1.2913502470       11.7641067380  MEMB      72              0.0000000000
      8971        72  OYPE      H6S           -38.0247078394       -1.0174197338       12.7910551033  MEMB      72              0.0000000000
      8972        72  OYPE      C27           -37.9995191180       -2.8356121170       11.5723772984  MEMB      72              0.0000000000
      8973        72  OYPE      H7R           -38.8609178335       -3.3282978515       12.0962795393  MEMB      72              0.0000000000
      8974        72  OYPE      H7S           -37.1589229615       -3.5308074768       11.2865336843  MEMB      72              0.0000000000
      8975        72  OYPE      C28           -38.4313370303       -2.2673071742       10.2430475801  MEMB      72              0.0000000000
      8976        72  OYPE      H8R           -38.5201163863       -3.2289987166        9.7152764697  MEMB      72              0.0000000000
      8977        72  OYPE      H8S           -37.6235341121       -1.8039299277        9.6857462154  MEMB      72              0.0000000000
      8978        72  OYPE      C29           -39.6121499867       -1.3269960323       10.2902364158  MEMB      72              0.0000000000
      8979        72  OYPE      H9R           -39.7876637564       -0.7186122171       11.1080982993  MEMB      72              0.0000000000
      8980        72  OYPE      C210          -40.6522179654       -1.3791076224        9.5806215956  MEMB      72              0.0000000000
      8981        72  OYPE      H10R          -41.6925761198       -1.2250847451        9.8462157547  MEMB      72              0.0000000000
      8982        72  OYPE      C211          -40.5327531093       -2.4691916381        8.7190496661  MEMB      72              0.0000000000
      8983        72  OYPE      H11R          -41.4342638162       -2.8965295915        8.5267231992  MEMB      72              0.0000000000
      8984        72  OYPE      H11S          -39.9913387879       -3.2754168800        8.9673498321  MEMB      72              0.0000000000
      8985        72  OYPE      C212          -40.4845431426       -2.3999572842        7.4460228521  MEMB      72              0.0000000000
      8986        72  OYPE      H12R          -40.8665690144       -1.4147296555        7.5031268758  MEMB      72              0.0000000000
      8987        72  OYPE      H12S          -41.1834566655       -3.1507909597        6.9519332420  MEMB      72              0.0000000000
      8988        72  OYPE      C213          -39.3750569127       -1.9769602860        6.7814330272  MEMB      72              0.0000000000
      8989        72  OYPE      H13R          -38.8173827391       -2.8466265956        6.9423253978  MEMB      72              0.0000000000
      8990        72  OYPE      H13S          -39.1528532454       -1.0727765924        7.3825892892  MEMB      72              0.0000000000
      8991        72  OYPE      C214          -39.3404326514       -1.5224715960        5.3545307350  MEMB      72              0.0000000000
      8992        72  OYPE      H14R          -38.3042566357       -1.4641193950        5.1023780996  MEMB      72              0.0000000000
      8993        72  OYPE      H14S          -39.4318081071       -0.4507566672        5.1591686938  MEMB      72              0.0000000000
      8994        72  OYPE      C215          -40.0053779726       -2.2305783310        4.2026348583  MEMB      72              0.0000000000
      8995        72  OYPE      H15R          -40.0424214295       -3.2995588803        4.0610730186  MEMB      72              0.0000000000
      8996        72  OYPE      H15S          -39.2751410465       -1.7589642471        3.5102981188  MEMB      72              0.0000000000
      8997        72  OYPE      C216          -41.3562351001       -2.1911957629        3.5915114113  MEMB      72              0.0000000000
      8998        72  OYPE      H16R          -41.7381091552       -1.2966442187        3.3422366254  MEMB      72              0.0000000000
      8999        72  OYPE      H16S          -41.8158896783       -2.7116038154        4.2476528801  MEMB      72              0.0000000000
      9000        72  OYPE      H16T          -41.8125540890       -2.8469898224        2.9249812299  MEMB      72              0.0000000000
      9001        72  OYPE      C33           -40.3787372868        1.5555859181       12.5915290317  MEMB      72              0.0000000000
      9002        72  OYPE      H3X           -40.1493943892        0.5241752956       12.4156501594  MEMB      72              0.0000000000
      9003        72  OYPE      H3Y           -40.0957196285        1.9865289857       13.5706419622  MEMB      72              0.0000000000
      9004        72  OYPE      C34           -40.2188695125        2.5240480821       11.3901413708  MEMB      72              0.0000000000
      9005        72  OYPE      H4X           -40.8040224608        2.2134521265       10.4656445833  MEMB      72              0.0000000000
      9006        72  OYPE      H4Y           -40.5399140815        3.5704636938       11.6836313856  MEMB      72              0.0000000000
      9007        72  OYPE      C35           -38.9039403261        2.2639392094       10.9531758130  MEMB      72              0.0000000000
      9008        72  OYPE      H5X           -38.8630342005        1.1538395184       10.8486156260  MEMB      72              0.0000000000
      9009        72  OYPE      H5Y           -38.3143235515        2.6316559575       11.8048675860  MEMB      72              0.0000000000
      9010        72  OYPE      C36           -38.5982808450        3.0362773598        9.7219412032  MEMB      72              0.0000000000
      9011        72  OYPE      H6X           -38.9866725223        4.0768450553        9.7748587519  MEMB      72              0.0000000000
      9012        72  OYPE      H6Y           -37.5111040648        3.0845645878        9.7553287014  MEMB      72              0.0000000000
      9013        72  OYPE      C37           -38.9730755086        2.3380039776        8.4319894120  MEMB      72              0.0000000000
      9014        72  OYPE      H7X           -38.6881972461        1.2627303794        8.4404279353  MEMB      72              0.0000000000
      9015        72  OYPE      H7Y           -40.0783317244        2.4114341573        8.3220310972  MEMB      72              0.0000000000
      9016        72  OYPE      C38           -38.4141548640        3.0664912293        7.1897168185  MEMB      72              0.0000000000
      9017        72  OYPE      H8X           -38.8404350466        2.5653114654        6.3060428370  MEMB      72              0.0000000000
      9018        72  OYPE      H8Y           -38.8156134173        4.0767153444        7.2245542720  MEMB      72              0.0000000000
      9019        72  OYPE      C39           -37.0353031260        3.3305217491        6.7565369623  MEMB      72              0.0000000000
      9020        72  OYPE      H9X           -36.4889988186        4.0494996295        7.3613233670  MEMB      72              0.0000000000
      9021        72  OYPE      C310          -36.4559523910        2.3889083996        6.0187176680  MEMB      72              0.0000000000
      9022        72  OYPE      H10X          -35.4329653245        2.0516587307        6.0417033102  MEMB      72              0.0000000000
      9023        72  OYPE      C311          -37.0291225491        1.0151306147        5.5628708256  MEMB      72              0.0000000000
      9024        72  OYPE      H11X          -37.0018755396       -0.0495712157        5.9840323344  MEMB      72              0.0000000000
      9025        72  OYPE      H11Y          -37.9728748949        0.7280281381        5.7535469271  MEMB      72              0.0000000000
      9026        72  OYPE      C312          -36.6693858415        0.8519046828        4.3563936909  MEMB      72              0.0000000000
      9027        72  OYPE      H12X          -36.6427820174       -0.2016626551        4.0857516469  MEMB      72              0.0000000000
      9028        72  OYPE      H12Y          -35.7417622497        0.7119463826        4.5145224293  MEMB      72              0.0000000000
      9029        72  OYPE      C313          -36.6245085229        2.2113233786        3.6705767191  MEMB      72              0.0000000000
      9030        72  OYPE      H13X          -37.6435917198        2.4301309740        3.9047743181  MEMB      72              0.0000000000
      9031        72  OYPE      H13Y          -35.8077147839        2.9236400095        3.9740715037  MEMB      72              0.0000000000
      9032        72  OYPE      C314          -36.5327064344        2.1461746525        2.3163269181  MEMB      72              0.0000000000
      9033        72  OYPE      H14X          -36.8933507419        1.0994351840        2.2865701068  MEMB      72              0.0000000000
      9034        72  OYPE      H14Y          -35.4783741056        2.2177406744        2.1848726759  MEMB      72              0.0000000000
      9035        72  OYPE      C315          -36.7412385315        3.1573689556        1.3339724528  MEMB      72              0.0000000000
      9036        72  OYPE      H15X          -36.6159217939        2.6812135241        0.2667991933  MEMB      72              0.0000000000
      9037        72  OYPE      H15Y          -35.9725504845        3.9496471964        1.5638626580  MEMB      72              0.0000000000
      9038        72  OYPE      C316          -38.0066742780        3.5318404815        1.3937418284  MEMB      72              0.0000000000
      9039        72  OYPE      H16X          -38.5024956511        3.4354098415        2.3161547547  MEMB      72              0.0000000000
      9040        72  OYPE      H16Y          -38.4440313004        2.9628179415        0.6126871022  MEMB      72              0.0000000000
      9041        72  OYPE      C317          -38.1086155248        4.6445699740        0.8072352688  MEMB      72              0.0000000000
      9042        72  OYPE      H17X          -39.0537286931        4.4325069115        0.1290746869  MEMB      72              0.0000000000
      9043        72  OYPE      H17Y          -37.2074337675        4.8092041804        0.2140028618  MEMB      72              0.0000000000
      9044        72  OYPE      C318          -38.1323204848        5.8341519166        1.6614769368  MEMB      72              0.0000000000
      9045        72  OYPE      H18X          -38.7598840810        6.6416322042        1.2392135384  MEMB      72              0.0000000000
      9046        72  OYPE      H18Y          -38.6656637684        5.3872316563        2.3999588583  MEMB      72              0.0000000000
      9047        72  OYPE      H18Z          -37.2919364913        6.3499167680        2.0334476758  MEMB      72              0.0000000000
      9048        73  PMPG      C13           -13.8891317439       37.4209518080       17.6186425302  MEMB      73              0.0000000000
      9049        73  PMPG      H13A          -13.2836879568       38.1860493171       17.1409659790  MEMB      73              0.0000000000
      9050        73  PMPG      H13B          -14.1224854045       36.6744211868       16.7440597076  MEMB      73              0.0000000000
      9051        73  PMPG      OC3           -14.9690765240       38.0789128138       18.3655070065  MEMB      73              0.0000000000
      9052        73  PMPG      HO3           -15.5865100332       37.3090467370       18.5091296356  MEMB      73              0.0000000000
      9053        73  PMPG      C12           -13.2170864222       36.7104874301       18.7200001126  MEMB      73              0.0000000000
      9054        73  PMPG      H12A          -13.8342076991       35.8397402406       19.0544380701  MEMB      73              0.0000000000
      9055        73  PMPG      OC2           -13.0852630541       37.6386254725       19.8184999548  MEMB      73              0.0000000000
      9056        73  PMPG      HO2           -12.4935674963       37.2194834006       20.4036764455  MEMB      73              0.0000000000
      9057        73  PMPG      C11           -11.8734371461       36.1999459885       18.3120851800  MEMB      73              0.0000000000
      9058        73  PMPG      H11A          -11.3868346552       36.9767897018       17.6504319088  MEMB      73              0.0000000000
      9059        73  PMPG      H11B          -11.9066960101       35.2799920135       17.7087266133  MEMB      73              0.0000000000
      9060        73  PMPG      P              -9.8757969603       36.5086054756       19.6950217699  MEMB      73              0.0000000000
      9061        73  PMPG      O13            -9.0405267858       35.8372292825       20.7370504468  MEMB      73              0.0000000000
      9062        73  PMPG      O14            -9.9004916860       37.9748802506       19.6255415333  MEMB      73              0.0000000000
      9063        73  PMPG      O11            -9.3565235916       35.9466108768       18.3005901271  MEMB      73              0.0000000000
      9064        73  PMPG      O12           -11.2339980332       35.8733543941       19.5473195433  MEMB      73              0.0000000000
      9065        73  PMPG      C1             -8.0556980758       35.6569013058       18.0503889908  MEMB      73              0.0000000000
      9066        73  PMPG      HA             -7.6536667268       34.5983567220       18.2279021249  MEMB      73              0.0000000000
      9067        73  PMPG      HB             -7.7003337227       36.2448371667       18.8880449685  MEMB      73              0.0000000000
      9068        73  PMPG      C2             -7.4612426912       36.3430766972       16.7378786229  MEMB      73              0.0000000000
      9069        73  PMPG      HS             -6.3820726973       36.6247705471       16.7169174271  MEMB      73              0.0000000000
      9070        73  PMPG      O21            -8.2145366534       37.5072425533       16.5178590164  MEMB      73              0.0000000000
      9071        73  PMPG      C21            -7.6679957706       38.4412036457       15.8002072344  MEMB      73              0.0000000000
      9072        73  PMPG      O22            -6.5596829342       38.4211579738       15.3409293818  MEMB      73              0.0000000000
      9073        73  PMPG      C22            -8.6367931099       39.5697084794       15.6030662669  MEMB      73              0.0000000000
      9074        73  PMPG      H2R            -8.2370710202       40.2980894207       14.8751258107  MEMB      73              0.0000000000
      9075        73  PMPG      H2S            -8.7752590816       40.0893310978       16.5657262666  MEMB      73              0.0000000000
      9076        73  PMPG      C3             -7.4821200191       35.3243158090       15.6357552877  MEMB      73              0.0000000000
      9077        73  PMPG      HX             -6.9251215889       34.4128356836       15.9993278752  MEMB      73              0.0000000000
      9078        73  PMPG      HY             -6.8936536354       35.7211786868       14.7811360404  MEMB      73              0.0000000000
      9079        73  PMPG      O31            -8.8422139882       35.0472836899       15.3747511358  MEMB      73              0.0000000000
      9080        73  PMPG      C31            -8.9866754767       34.2001619328       14.4017372354  MEMB      73              0.0000000000
      9081        73  PMPG      O32            -8.0953683553       33.7375290673       13.7119259508  MEMB      73              0.0000000000
      9082        73  PMPG      C32           -10.4507169434       33.9079386269       14.2296641136  MEMB      73              0.0000000000
      9083        73  PMPG      H2X           -10.6796055560       33.1211341620       14.9819274576  MEMB      73              0.0000000000
      9084        73  PMPG      H2Y           -10.4930808565       33.4693210390       13.2164564055  MEMB      73              0.0000000000
      9085        73  PMPG      C23            -9.9759974728       39.0666972007       15.0513355713  MEMB      73              0.0000000000
      9086        73  PMPG      H3R           -10.6893110267       39.9114780514       15.0905220038  MEMB      73              0.0000000000
      9087        73  PMPG      H3S           -10.3730874002       38.2357599228       15.6904508740  MEMB      73              0.0000000000
      9088        73  PMPG      C24            -9.8042190345       38.5973362784       13.5982307403  MEMB      73              0.0000000000
      9089        73  PMPG      H4R           -10.7623810258       38.2069419748       13.1739423771  MEMB      73              0.0000000000
      9090        73  PMPG      H4S            -9.1333530568       37.7260918382       13.7398449917  MEMB      73              0.0000000000
      9091        73  PMPG      C25            -9.1848581173       39.6070121230       12.5840183832  MEMB      73              0.0000000000
      9092        73  PMPG      H5R            -8.1468601952       39.9801259144       12.7510610501  MEMB      73              0.0000000000
      9093        73  PMPG      H5S            -9.8143505157       40.5147435067       12.5636955197  MEMB      73              0.0000000000
      9094        73  PMPG      C26            -9.1092642603       39.0648895936       11.1506158805  MEMB      73              0.0000000000
      9095        73  PMPG      H6R            -8.7321468731       39.8668503931       10.4654406708  MEMB      73              0.0000000000
      9096        73  PMPG      H6S           -10.1186668959       38.8004786417       10.8032759482  MEMB      73              0.0000000000
      9097        73  PMPG      C27            -8.2507425862       37.7977152526       11.0542441664  MEMB      73              0.0000000000
      9098        73  PMPG      H7R            -8.6388201518       36.9330201998       11.6390306243  MEMB      73              0.0000000000
      9099        73  PMPG      H7S            -7.2804502618       38.0495766408       11.5242148420  MEMB      73              0.0000000000
      9100        73  PMPG      C28            -8.0098386972       37.3199774518        9.6197710185  MEMB      73              0.0000000000
      9101        73  PMPG      H8R            -7.7154053686       38.1622347007        8.9711211467  MEMB      73              0.0000000000
      9102        73  PMPG      H8S            -8.9165695327       36.8808033867        9.1575357157  MEMB      73              0.0000000000
      9103        73  PMPG      C29            -6.8495453614       36.3532045988        9.6101447062  MEMB      73              0.0000000000
      9104        73  PMPG      H9R            -5.9175627519       36.6291410045       10.1448946141  MEMB      73              0.0000000000
      9105        73  PMPG      C217           -7.2634964243       34.9108009901        9.8090731161  MEMB      73              0.0000000000
      9106        73  PMPG      H17R           -6.5582047491       34.4880401778       10.5157550621  MEMB      73              0.0000000000
      9107        73  PMPG      H17S           -8.3367397136       34.8149853136        9.8629306553  MEMB      73              0.0000000000
      9108        73  PMPG      C210           -6.7245306205       35.3997043190        8.4546246789  MEMB      73              0.0000000000
      9109        73  PMPG      H10R           -5.8414129308       34.8098242513        8.2801405297  MEMB      73              0.0000000000
      9110        73  PMPG      C211           -7.7133601180       35.2233908510        7.3124665574  MEMB      73              0.0000000000
      9111        73  PMPG      H11R           -7.4199834024       34.3367228869        6.6821082060  MEMB      73              0.0000000000
      9112        73  PMPG      H11S           -8.7214988617       35.0784760770        7.6812071618  MEMB      73              0.0000000000
      9113        73  PMPG      C212           -7.8828659016       36.4003618972        6.4042049504  MEMB      73              0.0000000000
      9114        73  PMPG      H12R           -7.2417378017       36.0618212170        5.6490634528  MEMB      73              0.0000000000
      9115        73  PMPG      H12S           -7.7488533650       37.4219992640        6.7975091134  MEMB      73              0.0000000000
      9116        73  PMPG      C213           -8.9166637237       36.3094763276        5.3347351051  MEMB      73              0.0000000000
      9117        73  PMPG      H13R           -9.7839263503       36.5874086712        5.9112894856  MEMB      73              0.0000000000
      9118        73  PMPG      H13S           -8.9604268450       35.2734415486        4.9043605039  MEMB      73              0.0000000000
      9119        73  PMPG      C214           -8.6917768569       37.2648973999        4.2165993521  MEMB      73              0.0000000000
      9120        73  PMPG      H14R           -8.3842453431       38.3064119183        4.4984873581  MEMB      73              0.0000000000
      9121        73  PMPG      H14S           -9.6247865252       37.3884638231        3.6400851977  MEMB      73              0.0000000000
      9122        73  PMPG      C215           -7.7664902720       36.6067454527        3.3139179302  MEMB      73              0.0000000000
      9123        73  PMPG      H15R           -6.6696774386       36.7606257224        3.6099903755  MEMB      73              0.0000000000
      9124        73  PMPG      H15S           -8.2281932995       37.2263135546        2.4474330394  MEMB      73              0.0000000000
      9125        73  PMPG      C216           -7.7378294472       35.3615481458        2.5954119239  MEMB      73              0.0000000000
      9126        73  PMPG      H16R           -7.3432108380       34.6974671207        3.3100808538  MEMB      73              0.0000000000
      9127        73  PMPG      H16S           -6.9800802613       35.2049227549        1.7892256968  MEMB      73              0.0000000000
      9128        73  PMPG      H16T           -8.7570113025       35.2410426822        2.2201329105  MEMB      73              0.0000000000
      9129        73  PMPG      C33           -11.3157056189       35.1915558755       14.3458737698  MEMB      73              0.0000000000
      9130        73  PMPG      H3X           -10.7976716221       36.0693869423       13.8848372129  MEMB      73              0.0000000000
      9131        73  PMPG      H3Y           -11.4452697157       35.4444121562       15.4104859970  MEMB      73              0.0000000000
      9132        73  PMPG      C34           -12.6282355294       35.1272010867       13.5927015403  MEMB      73              0.0000000000
      9133        73  PMPG      H4X           -13.3073499393       35.9436537483       13.9346267044  MEMB      73              0.0000000000
      9134        73  PMPG      H4Y           -13.2159958238       34.2028671581       13.7570695484  MEMB      73              0.0000000000
      9135        73  PMPG      C35           -12.3050158301       35.3212413908       12.1246274811  MEMB      73              0.0000000000
      9136        73  PMPG      H5X           -12.3482561799       34.3231390966       11.6469856180  MEMB      73              0.0000000000
      9137        73  PMPG      H5Y           -11.2722386575       35.6860513121       11.8778784830  MEMB      73              0.0000000000
      9138        73  PMPG      C36           -13.3141558348       36.2688565405       11.5677748330  MEMB      73              0.0000000000
      9139        73  PMPG      H6X           -13.7867143128       37.0076699727       12.2627725693  MEMB      73              0.0000000000
      9140        73  PMPG      H6Y           -14.1645785462       35.6518112457       11.2379251659  MEMB      73              0.0000000000
      9141        73  PMPG      C37           -12.7282860168       37.0698057654       10.4407571310  MEMB      73              0.0000000000
      9142        73  PMPG      H7X           -12.0791636720       37.9035325194       10.7020638664  MEMB      73              0.0000000000
      9143        73  PMPG      H7Y           -13.6283428357       37.6310514738       10.2735592611  MEMB      73              0.0000000000
      9144        73  PMPG      C38           -12.0710981894       36.3114299022        9.2681710549  MEMB      73              0.0000000000
      9145        73  PMPG      H8X           -11.1592312440       35.8454190064        9.6584447801  MEMB      73              0.0000000000
      9146        73  PMPG      H8Y           -11.8467261229       37.0485909136        8.4596017461  MEMB      73              0.0000000000
      9147        73  PMPG      C39           -12.8303545288       35.1588057360        8.6554528824  MEMB      73              0.0000000000
      9148        73  PMPG      H9X           -13.7988820996       35.5009516453        8.7654603717  MEMB      73              0.0000000000
      9149        73  PMPG      H9Y           -13.2291217701       34.4027786832        9.3013666293  MEMB      73              0.0000000000
      9150        73  PMPG      C310          -12.3575006279       34.6805930021        7.2650397463  MEMB      73              0.0000000000
      9151        73  PMPG      H10X          -11.7055786149       33.8307589220        7.5253272911  MEMB      73              0.0000000000
      9152        73  PMPG      H10Y          -11.8282531664       35.4418057871        6.6517427861  MEMB      73              0.0000000000
      9153        73  PMPG      C311          -13.4294844586       34.1584903587        6.3247628251  MEMB      73              0.0000000000
      9154        73  PMPG      H11X          -14.0623518416       34.9939027892        5.9967542654  MEMB      73              0.0000000000
      9155        73  PMPG      H11Y          -14.0324755231       33.4723285671        6.9479792802  MEMB      73              0.0000000000
      9156        73  PMPG      C312          -12.9431499850       33.5510001464        5.0033291612  MEMB      73              0.0000000000
      9157        73  PMPG      H12X          -13.8952488620       33.3657712329        4.4858987716  MEMB      73              0.0000000000
      9158        73  PMPG      H12Y          -12.4413629866       32.5850894837        5.2028935747  MEMB      73              0.0000000000
      9159        73  PMPG      C313          -12.0359763377       34.4616734813        4.1463295766  MEMB      73              0.0000000000
      9160        73  PMPG      H13X          -11.0398812815       34.6031948385        4.6182702931  MEMB      73              0.0000000000
      9161        73  PMPG      H13Y          -12.4748412772       35.4799374607        4.0903309981  MEMB      73              0.0000000000
      9162        73  PMPG      C314          -11.7667547106       33.9990005066        2.7094596020  MEMB      73              0.0000000000
      9163        73  PMPG      H14X          -11.2892485594       34.8794999363        2.2196734656  MEMB      73              0.0000000000
      9164        73  PMPG      H14Y          -12.6748700073       33.7501746337        2.1138737169  MEMB      73              0.0000000000
      9165        73  PMPG      C315          -10.8904724204       32.7715561876        2.6302729489  MEMB      73              0.0000000000
      9166        73  PMPG      H15X          -11.1771884114       32.0267232234        3.4071120722  MEMB      73              0.0000000000
      9167        73  PMPG      H15Y           -9.8018556355       33.0067251069        2.7448465170  MEMB      73              0.0000000000
      9168        73  PMPG      C316          -11.0581777574       32.1584303823        1.2870357908  MEMB      73              0.0000000000
      9169        73  PMPG      H16X          -10.8140902627       32.8077669176        0.5039150837  MEMB      73              0.0000000000
      9170        73  PMPG      H16Y          -11.9443622368       31.5868604332        1.0439324087  MEMB      73              0.0000000000
      9171        73  PMPG      H16Z          -10.2500001804       31.5384504293        1.2164531257  MEMB      73              0.0000000000
      9172        74  QMPE      N               4.0549700935      -38.6396454738       18.8489476688  MEMB      74              0.0000000000
      9173        74  QMPE      HN1             4.7378508501      -37.8702985386       18.7943619143  MEMB      74              0.0000000000
      9174        74  QMPE      HN2             4.3517745240      -39.2563465678       19.6436711261  MEMB      74              0.0000000000
      9175        74  QMPE      HN3             3.9436809816      -39.2261875146       17.9900613097  MEMB      74              0.0000000000
      9176        74  QMPE      C12             2.6896526961      -38.0606663992       18.9340529504  MEMB      74              0.0000000000
      9177        74  QMPE      H12A            2.4424710691      -37.5999133883       17.9485894898  MEMB      74              0.0000000000
      9178        74  QMPE      H12B            2.7125889682      -37.2298111129       19.6663417145  MEMB      74              0.0000000000
      9179        74  QMPE      C11             1.8186054727      -39.2183191133       19.3719616535  MEMB      74              0.0000000000
      9180        74  QMPE      H11A            2.3164679930      -39.7324447041       20.2324057388  MEMB      74              0.0000000000
      9181        74  QMPE      H11B            1.7301316286      -40.0380775168       18.6191804711  MEMB      74              0.0000000000
      9182        74  QMPE      P              -0.7662912147      -38.9239127442       18.9484115721  MEMB      74              0.0000000000
      9183        74  QMPE      O13            -1.7142351371      -39.5641288506       19.8718180245  MEMB      74              0.0000000000
      9184        74  QMPE      O14            -0.4192023069      -39.6041938461       17.6843334003  MEMB      74              0.0000000000
      9185        74  QMPE      O11            -1.0981393900      -37.4149847601       18.7097735558  MEMB      74              0.0000000000
      9186        74  QMPE      O12             0.5761351842      -38.6663897673       19.7546998399  MEMB      74              0.0000000000
      9187        74  QMPE      C1             -0.2729793017      -36.5899692178       17.8916284635  MEMB      74              0.0000000000
      9188        74  QMPE      HA              0.4774999059      -37.1795507575       17.3021613350  MEMB      74              0.0000000000
      9189        74  QMPE      HB              0.2322288709      -35.8613670594       18.5624611270  MEMB      74              0.0000000000
      9190        74  QMPE      C2             -1.1471480898      -35.7998810334       16.8970845660  MEMB      74              0.0000000000
      9191        74  QMPE      HS             -1.6092338996      -34.9668691878       17.4834665512  MEMB      74              0.0000000000
      9192        74  QMPE      O21            -2.1400758302      -36.6637652953       16.3732782642  MEMB      74              0.0000000000
      9193        74  QMPE      C21            -3.1234753506      -35.9600945405       15.9572449219  MEMB      74              0.0000000000
      9194        74  QMPE      O22            -3.3211414359      -34.7903674092       16.1286224504  MEMB      74              0.0000000000
      9195        74  QMPE      C22            -3.9256216167      -36.8527951766       15.3020948992  MEMB      74              0.0000000000
      9196        74  QMPE      H2R            -4.2692079698      -37.6580160916       15.9669741263  MEMB      74              0.0000000000
      9197        74  QMPE      H2S            -3.2111206818      -37.2360429887       14.5056971175  MEMB      74              0.0000000000
      9198        74  QMPE      C3             -0.3432566433      -35.1665245981       15.7330161764  MEMB      74              0.0000000000
      9199        74  QMPE      HX              0.4079801527      -34.5468106372       16.2636334291  MEMB      74              0.0000000000
      9200        74  QMPE      HY             -1.0194869047      -34.4836614693       15.1533777421  MEMB      74              0.0000000000
      9201        74  QMPE      O31             0.3283323332      -36.1747372989       14.9299128636  MEMB      74              0.0000000000
      9202        74  QMPE      C31            -0.0536175318      -36.2259830408       13.6599325567  MEMB      74              0.0000000000
      9203        74  QMPE      O32            -0.8079082755      -35.4475600277       13.1160539557  MEMB      74              0.0000000000
      9204        74  QMPE      C32             0.7101474756      -37.3399958980       12.9561047854  MEMB      74              0.0000000000
      9205        74  QMPE      H2X             1.7570059545      -36.9869171318       12.8748853204  MEMB      74              0.0000000000
      9206        74  QMPE      H2Y             0.7111815809      -38.2301660784       13.6226926999  MEMB      74              0.0000000000
      9207        74  QMPE      C23            -5.1167154583      -36.3990015433       14.6914075522  MEMB      74              0.0000000000
      9208        74  QMPE      H3R            -5.9953531847      -35.9636029552       15.1717324048  MEMB      74              0.0000000000
      9209        74  QMPE      H3S            -5.6226081687      -37.4136147392       14.5119864478  MEMB      74              0.0000000000
      9210        74  QMPE      C24            -4.5430531452      -35.6494487200       13.4539061770  MEMB      74              0.0000000000
      9211        74  QMPE      H4R            -4.0119090051      -34.9811754366       13.7453030136  MEMB      74              0.0000000000
      9212        74  QMPE      H4S            -5.5675706768      -35.2595723835       13.1297836796  MEMB      74              0.0000000000
      9213        74  QMPE      C25            -3.4848213357      -36.1169202987       12.2481034250  MEMB      74              0.0000000000
      9214        74  QMPE      H5R            -3.7961958601      -36.8827966238       11.6403065906  MEMB      74              0.0000000000
      9215        74  QMPE      H5S            -2.6571280026      -36.5640994414       12.5847646571  MEMB      74              0.0000000000
      9216        74  QMPE      C26            -3.0870657828      -35.2626400488       11.2782336327  MEMB      74              0.0000000000
      9217        74  QMPE      H6R            -2.5635743932      -34.3642072068       11.4669285307  MEMB      74              0.0000000000
      9218        74  QMPE      H6S            -4.1393723022      -35.2759831017       10.9897894649  MEMB      74              0.0000000000
      9219        74  QMPE      C27            -2.7761801726      -35.3813044923       10.3381606694  MEMB      74              0.0000000000
      9220        74  QMPE      H7R            -3.3839386404      -36.8196620170       10.2022274524  MEMB      74              0.0000000000
      9221        74  QMPE      H7S            -1.6754959355      -35.4853269973       10.4701298790  MEMB      74              0.0000000000
      9222        74  QMPE      C28            -2.0588108035      -34.2390317092        9.3173557846  MEMB      74              0.0000000000
      9223        74  QMPE      H8R            -2.8927403507      -33.7791454190        8.7076460893  MEMB      74              0.0000000000
      9224        74  QMPE      H8S            -1.2603773370      -34.4916865761        8.5224884222  MEMB      74              0.0000000000
      9225        74  QMPE      C29            -1.0491834739      -33.4636182638        9.7497464522  MEMB      74              0.0000000000
      9226        74  QMPE      H9R            -0.4407515115      -33.8790748852       10.5388697627  MEMB      74              0.0000000000
      9227        74  QMPE      C217           -1.6387448622      -32.1123716571        9.6909945935  MEMB      74              0.0000000000
      9228        74  QMPE      H17R           -2.6111254179      -32.0879372609        9.2215477789  MEMB      74              0.0000000000
      9229        74  QMPE      H17S           -1.4361448671      -31.7113209118       10.6422121745  MEMB      74              0.0000000000
      9230        74  QMPE      C210           -0.5144364176      -32.5001182238        8.7637907929  MEMB      74              0.0000000000
      9231        74  QMPE      H10R            0.3983286431      -31.9965896896        9.0571504894  MEMB      74              0.0000000000
      9232        74  QMPE      C211           -0.9526334790      -32.4895334948        7.2990781078  MEMB      74              0.0000000000
      9233        74  QMPE      H11R           -1.9537016544      -32.9487359162        7.1109392303  MEMB      74              0.0000000000
      9234        74  QMPE      H11S           -1.0376283490      -31.4333826242        6.9995545898  MEMB      74              0.0000000000
      9235        74  QMPE      C212            0.1304044237      -33.2530541032        6.5314210466  MEMB      74              0.0000000000
      9236        74  QMPE      H12R            0.0602183304      -34.3297533504        6.7900694920  MEMB      74              0.0000000000
      9237        74  QMPE      H12S            1.1496610974      -32.8762228936        6.7352597553  MEMB      74              0.0000000000
      9238        74  QMPE      C213            0.1740751469      -33.1280863478        5.0537030486  MEMB      74              0.0000000000
      9239        74  QMPE      H13R            0.8357478487      -33.8626259233        4.6611589560  MEMB      74              0.0000000000
      9240        74  QMPE      H13S            0.3024822219      -32.1096072707        4.6794200700  MEMB      74              0.0000000000
      9241        74  QMPE      C214           -0.9042821444      -33.6348537254        4.3956587454  MEMB      74              0.0000000000
      9242        74  QMPE      H14R           -1.7146444857      -33.1230014945        5.0931134081  MEMB      74              0.0000000000
      9243        74  QMPE      H14S           -1.1440456213      -34.5644834711        4.5067183276  MEMB      74              0.0000000000
      9244        74  QMPE      C215           -0.8648384111      -33.8167702342        2.7295377265  MEMB      74              0.0000000000
      9245        74  QMPE      H15R           -1.7768309024      -34.4079803424        1.9749011584  MEMB      74              0.0000000000
      9246        74  QMPE      H15S           -0.5976599848      -34.7521354145        2.3632124921  MEMB      74              0.0000000000
      9247        74  QMPE      C216           -0.7021762304      -32.3659468989        2.2151354737  MEMB      74              0.0000000000
      9248        74  QMPE      H16R           -1.4005000214      -31.5778303085        2.7521218231  MEMB      74              0.0000000000
      9249        74  QMPE      H16S           -0.7391975001      -32.5187070854        1.0217716517  MEMB      74              0.0000000000
      9250        74  QMPE      H16T            0.0747147819      -31.9090702959        2.2937983434  MEMB      74              0.0000000000
      9251        74  QMPE      C33             0.0946171034      -37.6502055860       11.5720355487  MEMB      74              0.0000000000
      9252        74  QMPE      H3X             0.3955624975      -36.8900160362       10.8195493854  MEMB      74              0.0000000000
      9253        74  QMPE      H3Y            -1.0161181801      -37.6013213273       11.6754882268  MEMB      74              0.0000000000
      9254        74  QMPE      C34             0.5240282033      -39.0326746905       11.0533584734  MEMB      74              0.0000000000
      9255        74  QMPE      H4X             0.1305842808      -39.7478834255       11.8016703169  MEMB      74              0.0000000000
      9256        74  QMPE      H4Y             1.6359566205      -39.1133727123       11.1353545344  MEMB      74              0.0000000000
      9257        74  QMPE      C35             0.1973024429      -39.3408994575        9.5621250656  MEMB      74              0.0000000000
      9258        74  QMPE      H5X             0.6101633819      -40.3238808828        9.2530538395  MEMB      74              0.0000000000
      9259        74  QMPE      H5Y             0.6799617914      -38.5368677525        8.9650106694  MEMB      74              0.0000000000
      9260        74  QMPE      C36            -1.2446404512      -39.3895169070        9.0999515471  MEMB      74              0.0000000000
      9261        74  QMPE      H6X            -1.7950816069      -38.7605606104        9.7723531820  MEMB      74              0.0000000000
      9262        74  QMPE      H6Y            -1.7379491059      -40.3106065333        9.3636614336  MEMB      74              0.0000000000
      9263        74  QMPE      C37            -1.4564638518      -39.1570288104        7.5699707936  MEMB      74              0.0000000000
      9264        74  QMPE      H7X            -0.9743107298      -38.2130820904        7.2897310146  MEMB      74              0.0000000000
      9265        74  QMPE      H7Y            -1.0018865688      -39.9749859201        6.9977031911  MEMB      74              0.0000000000
      9266        74  QMPE      C38            -2.9450303913      -39.0232462843        7.2547944133  MEMB      74              0.0000000000
      9267        74  QMPE      H8X            -3.1389124752      -39.8528131068        7.8346980764  MEMB      74              0.0000000000
      9268        74  QMPE      H8Y            -3.6307575622      -38.3763484503        7.8428120970  MEMB      74              0.0000000000
      9269        74  QMPE      C39            -3.5562347237      -38.8016052801        5.8422201732  MEMB      74              0.0000000000
      9270        74  QMPE      H9X            -4.6039665167      -38.5261658118        5.9754348046  MEMB      74              0.0000000000
      9271        74  QMPE      H9Y            -3.3038674068      -39.5675459819        5.1278975910  MEMB      74              0.0000000000
      9272        74  QMPE      C310           -3.1134684984      -37.8415086224        4.8918459932  MEMB      74              0.0000000000
      9273        74  QMPE      H10X           -2.0416096429      -37.5614860589        5.1551996728  MEMB      74              0.0000000000
      9274        74  QMPE      H10Y           -3.0089158834      -37.2632745352        5.3947240596  MEMB      74              0.0000000000
      9275        74  QMPE      C311           -4.0608358251      -36.9278920775        4.0342391872  MEMB      74              0.0000000000
      9276        74  QMPE      H11X           -3.7165042610      -35.9848585460        3.6126484506  MEMB      74              0.0000000000
      9277        74  QMPE      H11Y           -5.0520874224      -36.5792242897        4.3475370893  MEMB      74              0.0000000000
      9278        74  QMPE      C312           -3.5848375365      -37.5293990796        2.8617874290  MEMB      74              0.0000000000
      9279        74  QMPE      H12X           -4.0837544860      -37.0262667920        2.0367437007  MEMB      74              0.0000000000
      9280        74  QMPE      H12Y           -3.9282562453      -38.4657390861        3.2160179289  MEMB      74              0.0000000000
      9281        74  QMPE      C313           -2.1240342860      -37.8961871049        2.7894377199  MEMB      74              0.0000000000
      9282        74  QMPE      H13X           -1.4495238933      -37.0223989051        2.9082239669  MEMB      74              0.0000000000
      9283        74  QMPE      H13Y           -1.7422665695      -38.6771218335        3.5124425519  MEMB      74              0.0000000000
      9284        74  QMPE      C314           -1.9823761662      -38.4608498639        1.4543184934  MEMB      74              0.0000000000
      9285        74  QMPE      H14X           -1.7835490621      -39.5933576308        1.4804622148  MEMB      74              0.0000000000
      9286        74  QMPE      H14Y           -1.0174109451      -37.8809654743        1.3132507629  MEMB      74              0.0000000000
      9287        74  QMPE      C315           -2.7710062434      -37.9079656205        0.1917753388  MEMB      74              0.0000000000
      9288        74  QMPE      H15X           -3.7767123250      -38.2669672360        0.2633691650  MEMB      74              0.0000000000
      9289        74  QMPE      H15Y           -2.4482703988      -36.8627905701        0.2438795031  MEMB      74              0.0000000000
      9290        74  QMPE      H15Z           -2.5348488294      -38.2200025587       -0.8905334614  MEMB      74              0.0000000000
      9291        75  PMPE      N             -25.5681831315       30.7092108339       20.8290293013  MEMB      75              0.0000000000
      9292        75  PMPE      HN1           -25.9415721590       30.8703118313       21.7830114341  MEMB      75              0.0000000000
      9293        75  PMPE      HN2           -25.0131729702       31.5354088384       20.4926295668  MEMB      75              0.0000000000
      9294        75  PMPE      HN3           -26.3546928870       30.6667080945       20.1515489098  MEMB      75              0.0000000000
      9295        75  PMPE      C12           -24.7304980796       29.4540659612       20.7151195254  MEMB      75              0.0000000000
      9296        75  PMPE      H12A          -25.3791254087       28.6289785296       21.0615976489  MEMB      75              0.0000000000
      9297        75  PMPE      H12B          -23.8091306572       29.5783055653       21.3484040439  MEMB      75              0.0000000000
      9298        75  PMPE      C11           -24.3393266567       29.1798891478       19.2615927945  MEMB      75              0.0000000000
      9299        75  PMPE      H11A          -25.1733239846       29.2912722645       18.5480436705  MEMB      75              0.0000000000
      9300        75  PMPE      H11B          -23.9684397599       28.1340105826       19.1090381224  MEMB      75              0.0000000000
      9301        75  PMPE      P             -23.3098196324       31.5007064705       18.2482567552  MEMB      75              0.0000000000
      9302        75  PMPE      O13           -21.9055153641       31.8898838426       18.3247872321  MEMB      75              0.0000000000
      9303        75  PMPE      O14           -24.3620829083       32.3446565247       18.8807719680  MEMB      75              0.0000000000
      9304        75  PMPE      O11           -23.7065301210       31.2031451458       16.7819805047  MEMB      75              0.0000000000
      9305        75  PMPE      O12           -23.3176625350       30.0712403878       18.9377312250  MEMB      75              0.0000000000
      9306        75  PMPE      C1            -22.9286784008       30.3921868817       15.9219435259  MEMB      75              0.0000000000
      9307        75  PMPE      HA            -22.6405429296       29.4504864089       16.4107892368  MEMB      75              0.0000000000
      9308        75  PMPE      HB            -21.9702272934       30.8750071418       15.6156639333  MEMB      75              0.0000000000
      9309        75  PMPE      C2            -23.8195842986       29.9603384173       14.7465702266  MEMB      75              0.0000000000
      9310        75  PMPE      HS            -23.2200115395       29.3407067223       14.0575372087  MEMB      75              0.0000000000
      9311        75  PMPE      O21           -24.3148164576       31.1002001190       14.0442038756  MEMB      75              0.0000000000
      9312        75  PMPE      C21           -23.4325453685       31.7853721929       13.3683106636  MEMB      75              0.0000000000
      9313        75  PMPE      O22           -22.2572713030       31.5007450201       13.2004925102  MEMB      75              0.0000000000
      9314        75  PMPE      C22           -24.1847011465       32.9712730618       12.7787924266  MEMB      75              0.0000000000
      9315        75  PMPE      H2R           -24.9505800150       33.2596190635       13.5317164086  MEMB      75              0.0000000000
      9316        75  PMPE      H2S           -24.6702906617       32.7182353924       11.8191919467  MEMB      75              0.0000000000
      9317        75  PMPE      C3            -25.0358242128       29.0819549026       15.2014166353  MEMB      75              0.0000000000
      9318        75  PMPE      HX            -25.6067186163       29.6767726451       15.9501299571  MEMB      75              0.0000000000
      9319        75  PMPE      HY            -24.7363547125       28.1330853303       15.6984464808  MEMB      75              0.0000000000
      9320        75  PMPE      O31           -25.8448389482       28.7065350606       14.0681056820  MEMB      75              0.0000000000
      9321        75  PMPE      C31           -26.7751654273       29.6163092460       13.7364347844  MEMB      75              0.0000000000
      9322        75  PMPE      O32           -27.0968932286       30.5772755313       14.3975034796  MEMB      75              0.0000000000
      9323        75  PMPE      C32           -27.4918197460       29.2629603950       12.4702000262  MEMB      75              0.0000000000
      9324        75  PMPE      H2X           -28.4294212239       28.8458068852       12.9001180421  MEMB      75              0.0000000000
      9325        75  PMPE      H2Y           -26.9252992265       28.5294499379       11.8568106989  MEMB      75              0.0000000000
      9326        75  PMPE      C23           -23.2875708604       34.1587292005       12.5363762729  MEMB      75              0.0000000000
      9327        75  PMPE      H3R           -22.5507025415       34.1937058648       13.3478508737  MEMB      75              0.0000000000
      9328        75  PMPE      H3S           -23.9536720848       35.0390744603       12.5910655762  MEMB      75              0.0000000000
      9329        75  PMPE      C24           -22.6866053956       34.2017233296       11.1430107407  MEMB      75              0.0000000000
      9330        75  PMPE      H4R           -23.4545515623       34.1208323628       10.3624423163  MEMB      75              0.0000000000
      9331        75  PMPE      H4S           -21.8399211255       33.4945561157       11.0243923910  MEMB      75              0.0000000000
      9332        75  PMPE      C25           -22.1323922883       35.5192370481       10.7465799763  MEMB      75              0.0000000000
      9333        75  PMPE      H5R           -21.2373154931       35.4751143027       11.3571413294  MEMB      75              0.0000000000
      9334        75  PMPE      H5S           -22.7998076544       36.3059216366       11.0203548616  MEMB      75              0.0000000000
      9335        75  PMPE      C26           -21.7805638215       35.7021633442        9.2968794579  MEMB      75              0.0000000000
      9336        75  PMPE      H6R           -21.1838937578       34.8415214717        8.9554767586  MEMB      75              0.0000000000
      9337        75  PMPE      H6S           -21.1501278471       36.6228421742        9.2525850275  MEMB      75              0.0000000000
      9338        75  PMPE      C27           -22.9636007516       35.8338287678        8.3374578796  MEMB      75              0.0000000000
      9339        75  PMPE      H7R           -23.3670083536       36.8480890391        8.5224741116  MEMB      75              0.0000000000
      9340        75  PMPE      H7S           -23.8086461123       35.1175843474        8.4954493207  MEMB      75              0.0000000000
      9341        75  PMPE      C28           -22.4701975695       35.6384308721        6.8917691416  MEMB      75              0.0000000000
      9342        75  PMPE      H8R           -21.5391188640       36.2203466622        6.7056967462  MEMB      75              0.0000000000
      9343        75  PMPE      H8S           -23.2603733036       35.9923074453        6.2040050369  MEMB      75              0.0000000000
      9344        75  PMPE      C29           -22.1947711504       34.1530785811        6.6436176330  MEMB      75              0.0000000000
      9345        75  PMPE      H9R           -22.6002507787       33.4348785488        7.3857449779  MEMB      75              0.0000000000
      9346        75  PMPE      C217          -20.7180182141       33.9353765570        6.2530207511  MEMB      75              0.0000000000
      9347        75  PMPE      H17R          -20.2965132712       33.1187544774        6.8170134819  MEMB      75              0.0000000000
      9348        75  PMPE      H17S          -20.1736870328       34.8383557696        6.0105742155  MEMB      75              0.0000000000
      9349        75  PMPE      C210          -21.8350726257       33.5898375905        5.2831828632  MEMB      75              0.0000000000
      9350        75  PMPE      H10R          -22.0222255960       32.5163296470        5.1455301747  MEMB      75              0.0000000000
      9351        75  PMPE      C211          -22.0174552985       34.4436538647        4.0431118548  MEMB      75              0.0000000000
      9352        75  PMPE      H11R          -21.3609299756       34.1009637078        3.2088934646  MEMB      75              0.0000000000
      9353        75  PMPE      H11S          -21.7583383272       35.4943386402        4.2570614598  MEMB      75              0.0000000000
      9354        75  PMPE      C212          -23.4645200892       34.4013979987        3.6233635858  MEMB      75              0.0000000000
      9355        75  PMPE      H12R          -24.0455623962       35.1048151566        4.2562584629  MEMB      75              0.0000000000
      9356        75  PMPE      H12S          -23.9334141795       33.4050082358        3.7766283038  MEMB      75              0.0000000000
      9357        75  PMPE      C213          -23.5566352031       34.7632994837        2.1807818675  MEMB      75              0.0000000000
      9358        75  PMPE      H13R          -22.9819524488       34.0977155685        1.5224564216  MEMB      75              0.0000000000
      9359        75  PMPE      H13S          -23.1593034765       35.7900356681        2.0316254064  MEMB      75              0.0000000000
      9360        75  PMPE      C214          -24.9760757025       34.6182574801        1.8938784387  MEMB      75              0.0000000000
      9361        75  PMPE      H14R          -25.0806391757       34.9821282434        0.8887367864  MEMB      75              0.0000000000
      9362        75  PMPE      H14S          -25.5256879941       35.0327546627        2.6977332243  MEMB      75              0.0000000000
      9363        75  PMPE      C215          -25.8553570978       33.4909094249        2.1219195338  MEMB      75              0.0000000000
      9364        75  PMPE      H15R          -26.9293858418       33.5519222447        1.8484590277  MEMB      75              0.0000000000
      9365        75  PMPE      H15S          -25.7930203497       32.8068569730        2.8983494699  MEMB      75              0.0000000000
      9366        75  PMPE      C216          -25.2386322049       32.7573242753        1.4415241191  MEMB      75              0.0000000000
      9367        75  PMPE      H16R          -25.0778580877       33.4471338049        0.4906172280  MEMB      75              0.0000000000
      9368        75  PMPE      H16S          -24.0945887400       32.5895831520        1.4919393037  MEMB      75              0.0000000000
      9369        75  PMPE      H16T          -25.9411928920       31.8622368352        1.2285023870  MEMB      75              0.0000000000
      9370        75  PMPE      C33           -27.8410570380       30.4937841465       11.6094437593  MEMB      75              0.0000000000
      9371        75  PMPE      H3X           -27.9969053503       31.4589246220       12.1433951567  MEMB      75              0.0000000000
      9372        75  PMPE      H3Y           -28.8341125258       30.2848738318       11.1545646598  MEMB      75              0.0000000000
      9373        75  PMPE      C34           -26.8133649786       30.6470092619       10.4938855579  MEMB      75              0.0000000000
      9374        75  PMPE      H4X           -26.6852560027       29.6626416015       10.0057831954  MEMB      75              0.0000000000
      9375        75  PMPE      H4Y           -25.7967785940       30.8182515281       10.9108164291  MEMB      75              0.0000000000
      9376        75  PMPE      C35           -27.2833561646       31.7287351125        9.5112528746  MEMB      75              0.0000000000
      9377        75  PMPE      H5X           -27.4894760964       32.6347362428       10.1056822455  MEMB      75              0.0000000000
      9378        75  PMPE      H5Y           -28.2612584909       31.4509669918        9.0376665599  MEMB      75              0.0000000000
      9379        75  PMPE      C36           -26.1898580162       32.1530656610        8.5237224481  MEMB      75              0.0000000000
      9380        75  PMPE      H6X           -25.2939531516       32.4311822824        9.1369640588  MEMB      75              0.0000000000
      9381        75  PMPE      H6Y           -26.5369137828       33.0397129647        7.9371556253  MEMB      75              0.0000000000
      9382        75  PMPE      C37           -25.9460990602       30.9857417704        7.5474109630  MEMB      75              0.0000000000
      9383        75  PMPE      H7X           -26.9835232929       30.7354497362        7.2295018811  MEMB      75              0.0000000000
      9384        75  PMPE      H7Y           -25.4952648334       30.1399099093        8.1011004728  MEMB      75              0.0000000000
      9385        75  PMPE      C38           -25.1280611903       31.2259926068        6.2601369039  MEMB      75              0.0000000000
      9386        75  PMPE      H8X           -24.1241300855       31.5954667363        6.5399969081  MEMB      75              0.0000000000
      9387        75  PMPE      H8Y           -25.7016889695       31.9871632649        5.6897941448  MEMB      75              0.0000000000
      9388        75  PMPE      C39           -24.8768764753       30.0312295633        5.2962225482  MEMB      75              0.0000000000
      9389        75  PMPE      H9X           -25.8640772266       29.6123349051        5.0197189442  MEMB      75              0.0000000000
      9390        75  PMPE      H9Y           -24.2537212657       29.2378943985        5.7732197735  MEMB      75              0.0000000000
      9391        75  PMPE      C310          -24.2105740136       30.4241235514        3.9528364993  MEMB      75              0.0000000000
      9392        75  PMPE      H10X          -23.4926689386       31.2439837621        4.1153575014  MEMB      75              0.0000000000
      9393        75  PMPE      H10Y          -24.9780125909       30.8413688447        3.2744003839  MEMB      75              0.0000000000
      9394        75  PMPE      C311          -23.4663035225       29.2573196181        3.2705681615  MEMB      75              0.0000000000
      9395        75  PMPE      H11X          -24.1916224492       28.4542726029        3.0296740471  MEMB      75              0.0000000000
      9396        75  PMPE      H11Y          -22.6995987388       28.8525544351        3.9705604191  MEMB      75              0.0000000000
      9397        75  PMPE      C312          -22.6255028744       29.5611051938        2.0166230361  MEMB      75              0.0000000000
      9398        75  PMPE      H12X          -23.2286127759       29.5537755651        1.0893342338  MEMB      75              0.0000000000
      9399        75  PMPE      H12Y          -21.9637242019       28.6811154667        1.9111597711  MEMB      75              0.0000000000
      9400        75  PMPE      C313          -21.6709628313       30.7432190075        2.2318336050  MEMB      75              0.0000000000
      9401        75  PMPE      H13X          -20.9849204302       30.4287940541        3.0541726876  MEMB      75              0.0000000000
      9402        75  PMPE      H13Y          -22.3009096951       31.6144981982        2.5129664985  MEMB      75              0.0000000000
      9403        75  PMPE      C314          -20.7051512696       31.0672509913        1.1021795661  MEMB      75              0.0000000000
      9404        75  PMPE      H14X          -20.4172505053       30.1183765830        0.6095901554  MEMB      75              0.0000000000
      9405        75  PMPE      H14Y          -19.7684231859       31.5485266324        1.4470013386  MEMB      75              0.0000000000
      9406        75  PMPE      C315          -21.2513762450       32.1264540438        0.2193195366  MEMB      75              0.0000000000
      9407        75  PMPE      H15X          -21.4757908393       33.0850115664        0.7224310462  MEMB      75              0.0000000000
      9408        75  PMPE      H15Y          -22.0865664862       31.7160325342       -0.2455729067  MEMB      75              0.0000000000
      9409        75  PMPE      C316          -20.4582652080       32.4138988503       -0.9345580125  MEMB      75              0.0000000000
      9410        75  PMPE      H16X          -20.7956238055       33.4112247607       -1.3232237059  MEMB      75              0.0000000000
      9411        75  PMPE      H16Y          -20.4651163647       31.7496275165       -1.8134391457  MEMB      75              0.0000000000
      9412        75  PMPE      H16Z          -19.4255923750       32.4498652521       -0.5723192958  MEMB      75              0.0000000000
      9413        76  QMPE      N              24.9979013667      -32.7228316135       19.5569991516  MEMB      76              0.0000000000
      9414        76  QMPE      HN1            24.9530610819      -33.4186022948       20.3342584779  MEMB      76              0.0000000000
      9415        76  QMPE      HN2            26.0141549949      -32.5917571885       19.3483832038  MEMB      76              0.0000000000
      9416        76  QMPE      HN3            24.5268884018      -31.8608425503       19.8931241112  MEMB      76              0.0000000000
      9417        76  QMPE      C12            24.2282028392      -33.1748975667       18.3302389349  MEMB      76              0.0000000000
      9418        76  QMPE      H12A           24.8189091123      -34.0327318084       17.9657211611  MEMB      76              0.0000000000
      9419        76  QMPE      H12B           24.2454312028      -32.3954030254       17.5492860289  MEMB      76              0.0000000000
      9420        76  QMPE      C11            22.7680809522      -33.5270417615       18.6523676438  MEMB      76              0.0000000000
      9421        76  QMPE      H11A           22.8499904420      -34.4014567535       19.2809472032  MEMB      76              0.0000000000
      9422        76  QMPE      H11B           22.1978109314      -33.9532962179       17.7877247107  MEMB      76              0.0000000000
      9423        76  QMPE      P              20.4996001209      -32.4560902009       19.1772352309  MEMB      76              0.0000000000
      9424        76  QMPE      O13            19.9528914737      -31.3266644271       19.9296488313  MEMB      76              0.0000000000
      9425        76  QMPE      O14            19.9434662540      -33.8162339782       19.3909486616  MEMB      76              0.0000000000
      9426        76  QMPE      O11            20.4637467756      -32.1098690583       17.6329150516  MEMB      76              0.0000000000
      9427        76  QMPE      O12            22.0947177913      -32.4744460782       19.3724093085  MEMB      76              0.0000000000
      9428        76  QMPE      C1             19.7587767019      -30.8605551825       17.3553809463  MEMB      76              0.0000000000
      9429        76  QMPE      HA             20.2436617301      -29.9692250462       17.8117373014  MEMB      76              0.0000000000
      9430        76  QMPE      HB             18.7448447366      -30.8587884190       17.8195701806  MEMB      76              0.0000000000
      9431        76  QMPE      C2             19.4006561643      -30.6481305439       15.8662479025  MEMB      76              0.0000000000
      9432        76  QMPE      HS             18.4801264553      -29.9977418901       15.8734241871  MEMB      76              0.0000000000
      9433        76  QMPE      O21            19.2144016360      -31.9592957422       15.3064142685  MEMB      76              0.0000000000
      9434        76  QMPE      C21            18.6203696837      -32.1180920939       14.1909219205  MEMB      76              0.0000000000
      9435        76  QMPE      O22            17.8685387329      -31.4841767265       13.6327439810  MEMB      76              0.0000000000
      9436        76  QMPE      C22            18.5759640347      -33.3155586249       13.3863917441  MEMB      76              0.0000000000
      9437        76  QMPE      H2R            18.3126515451      -33.9759972754       14.1706144880  MEMB      76              0.0000000000
      9438        76  QMPE      H2S            19.5033048809      -33.3697522123       12.8341154549  MEMB      76              0.0000000000
      9439        76  QMPE      C3             20.5034679541      -29.9809731806       15.0436912633  MEMB      76              0.0000000000
      9440        76  QMPE      HX             20.8353350931      -29.0283844896       15.4393353040  MEMB      76              0.0000000000
      9441        76  QMPE      HY             20.1073398804      -29.7737026210       14.0347727545  MEMB      76              0.0000000000
      9442        76  QMPE      O31            21.5446914737      -30.9080750131       14.8714012896  MEMB      76              0.0000000000
      9443        76  QMPE      C31            22.6276262704      -30.7698467686       15.4846775072  MEMB      76              0.0000000000
      9444        76  QMPE      O32            23.0430283709      -29.9115039401       16.2463172163  MEMB      76              0.0000000000
      9445        76  QMPE      C32            23.4425651622      -31.8182651396       14.8910247883  MEMB      76              0.0000000000
      9446        76  QMPE      H2X            24.3161929302      -31.3713783780       15.2958434015  MEMB      76              0.0000000000
      9447        76  QMPE      H2Y            23.2901929620      -32.8280824127       15.2845451754  MEMB      76              0.0000000000
      9448        76  QMPE      C23            17.4236106290      -33.4238194028       12.3801622418  MEMB      76              0.0000000000
      9449        76  QMPE      H3R            17.9482958697      -32.9390163031       11.5116864437  MEMB      76              0.0000000000
      9450        76  QMPE      H3S            16.4163933153      -33.0104392085       12.7018297938  MEMB      76              0.0000000000
      9451        76  QMPE      C24            17.2652122482      -34.4650810827       11.3660568104  MEMB      76              0.0000000000
      9452        76  QMPE      H4R            16.5552481185      -34.3188593841       10.5513902845  MEMB      76              0.0000000000
      9453        76  QMPE      H4S            16.4422530513      -34.9881741366       11.8189439046  MEMB      76              0.0000000000
      9454        76  QMPE      C25            18.7102363354      -35.0119436800       11.0396027105  MEMB      76              0.0000000000
      9455        76  QMPE      H5R            19.2969649045      -35.2519322667       11.9552912117  MEMB      76              0.0000000000
      9456        76  QMPE      H5S            19.2253268371      -34.4528802672       10.2910066508  MEMB      76              0.0000000000
      9457        76  QMPE      C26            18.9478000500      -36.2942085627       10.3345444791  MEMB      76              0.0000000000
      9458        76  QMPE      H6R            18.4462713491      -36.5666098404        9.4408485992  MEMB      76              0.0000000000
      9459        76  QMPE      H6S            18.7167398959      -36.8110733200       11.2345177467  MEMB      76              0.0000000000
      9460        76  QMPE      C27            19.9746836597      -37.3213954486       10.1046446098  MEMB      76              0.0000000000
      9461        76  QMPE      H7R            19.5457733048      -38.2900188001        9.6666335254  MEMB      76              0.0000000000
      9462        76  QMPE      H7S            20.4270708876      -37.5695311366       11.0584799592  MEMB      76              0.0000000000
      9463        76  QMPE      C28            20.7863484699      -36.5380955829        9.1669899649  MEMB      76              0.0000000000
      9464        76  QMPE      H8R            21.1366612096      -35.6475917330        9.7039399139  MEMB      76              0.0000000000
      9465        76  QMPE      H8S            20.2193262667      -36.2597977502        8.2675328934  MEMB      76              0.0000000000
      9466        76  QMPE      C29            22.0873297517      -37.0818811945        8.8913695405  MEMB      76              0.0000000000
      9467        76  QMPE      H9R            22.4394782372      -37.8899245104        9.5977007811  MEMB      76              0.0000000000
      9468        76  QMPE      C217           23.0745789967      -36.2139499060        8.2977642930  MEMB      76              0.0000000000
      9469        76  QMPE      H17R           22.6118218785      -35.3911802189        7.8609247382  MEMB      76              0.0000000000
      9470        76  QMPE      H17S           24.0833684105      -36.5998723251        8.4498170870  MEMB      76              0.0000000000
      9471        76  QMPE      C210           22.5742849838      -37.1239247306        7.3301593104  MEMB      76              0.0000000000
      9472        76  QMPE      H10R           23.4195814237      -37.8761605636        7.3355165913  MEMB      76              0.0000000000
      9473        76  QMPE      C211           21.3602313083      -37.0790892396        6.2586051680  MEMB      76              0.0000000000
      9474        76  QMPE      H11R           20.9280604205      -36.1569857761        6.1327572836  MEMB      76              0.0000000000
      9475        76  QMPE      H11S           21.8741429600      -37.1257132589        5.2459893609  MEMB      76              0.0000000000
      9476        76  QMPE      C212           20.0656737917      -38.0380106508        6.2781256355  MEMB      76              0.0000000000
      9477        76  QMPE      H12R           19.5706205736      -38.0502504150        7.2085672479  MEMB      76              0.0000000000
      9478        76  QMPE      H12S           20.2209530168      -39.1406424111        6.3598843174  MEMB      76              0.0000000000
      9479        76  QMPE      C213           19.1814585343      -37.8924764825        4.9594386736  MEMB      76              0.0000000000
      9480        76  QMPE      H13R           19.0267227489      -36.8670287066        5.0224312018  MEMB      76              0.0000000000
      9481        76  QMPE      H13S           18.3891944496      -38.6498236925        5.2456279657  MEMB      76              0.0000000000
      9482        76  QMPE      C214           19.8177749416      -37.9468529090        3.3384087127  MEMB      76              0.0000000000
      9483        76  QMPE      H14R           20.4246103530      -39.2034289759        2.7901137087  MEMB      76              0.0000000000
      9484        76  QMPE      H14S           20.7580493732      -37.3860636605        3.3862379982  MEMB      76              0.0000000000
      9485        76  QMPE      C215           18.6438740278      -37.8016910147        2.6766564912  MEMB      76              0.0000000000
      9486        76  QMPE      H15R           18.0973875190      -36.9305961675        2.6431610307  MEMB      76              0.0000000000
      9487        76  QMPE      H15S           17.6582181431      -38.5121295070        2.7674531611  MEMB      76              0.0000000000
      9488        76  QMPE      C216           19.7854532042      -38.3353590440        1.5637037851  MEMB      76              0.0000000000
      9489        76  QMPE      H16R           20.2599153150      -39.1384861060        1.1714398792  MEMB      76              0.0000000000
      9490        76  QMPE      H16S           20.3245901862      -37.4225469887        1.3909523779  MEMB      76              0.0000000000
      9491        76  QMPE      H16T           18.9410814307      -39.4440398363        0.1643589098  MEMB      76              0.0000000000
      9492        76  QMPE      C33            23.4632229483      -31.7283626089       13.3903720708  MEMB      76              0.0000000000
      9493        76  QMPE      H3X            24.5552557412      -31.6253996564       13.2279239875  MEMB      76              0.0000000000
      9494        76  QMPE      H3Y            23.2544435186      -30.7563395031       12.9537073053  MEMB      76              0.0000000000
      9495        76  QMPE      C34            22.6118516712      -32.8917596959       12.7752142934  MEMB      76              0.0000000000
      9496        76  QMPE      H4X            21.7303057214      -32.9574508684       13.4131617438  MEMB      76              0.0000000000
      9497        76  QMPE      H4Y            23.0698163803      -33.9027489211       12.8584277051  MEMB      76              0.0000000000
      9498        76  QMPE      C35            22.2606533441      -32.7308898538       11.3121476850  MEMB      76              0.0000000000
      9499        76  QMPE      H5X            21.6463889980      -33.5846823044       10.9259530594  MEMB      76              0.0000000000
      9500        76  QMPE      H5Y            23.1642805345      -32.7849972003       10.7143088076  MEMB      76              0.0000000000
      9501        76  QMPE      C36            21.7527415856      -31.3561031171       11.0506823865  MEMB      76              0.0000000000
      9502        76  QMPE      H6X            22.4772572957      -30.5514861863       10.8284974586  MEMB      76              0.0000000000
      9503        76  QMPE      H6Y            20.9643932678      -31.0665694060       11.7813999262  MEMB      76              0.0000000000
      9504        76  QMPE      C37            21.1763860235      -31.4450666568        9.7923342140  MEMB      76              0.0000000000
      9505        76  QMPE      H7X            20.4895803097      -32.3317105239        9.8659362377  MEMB      76              0.0000000000
      9506        76  QMPE      H7Y            20.5595268324      -30.5109938009        9.7668766674  MEMB      76              0.0000000000
      9507        76  QMPE      C38            22.0640569466      -31.5422714204        8.4914827203  MEMB      76              0.0000000000
      9508        76  QMPE      H8X            22.7022937833      -30.6569317445        8.4223996469  MEMB      76              0.0000000000
      9509        76  QMPE      H8Y            22.4930408680      -32.5210970751        8.6088581868  MEMB      76              0.0000000000
      9510        76  QMPE      C39            21.5852091568      -31.7291620060        7.0157973010  MEMB      76              0.0000000000
      9511        76  QMPE      H9X            22.1131597369      -31.4184712971        6.1400236571  MEMB      76              0.0000000000
      9512        76  QMPE      H9Y            21.1866904467      -30.6848165938        6.8481497829  MEMB      76              0.0000000000
      9513        76  QMPE      C310           20.7383579702      -33.0759939870        6.7090876241  MEMB      76              0.0000000000
      9514        76  QMPE      H10X           19.6758293636      -33.2537105951        7.0210142977  MEMB      76              0.0000000000
      9515        76  QMPE      H10Y           21.2373399706      -33.9158495072        7.0928257642  MEMB      76              0.0000000000
      9516        76  QMPE      C311           20.3052789437      -33.3487332013        5.2980433426  MEMB      76              0.0000000000
      9517        76  QMPE      H11X           19.7200239616      -32.6427014208        4.9747060019  MEMB      76              0.0000000000
      9518        76  QMPE      H11Y           19.4790267931      -34.0454794384        5.1791105150  MEMB      76              0.0000000000
      9519        76  QMPE      C312           21.4049038559      -33.3315818359        4.3530505160  MEMB      76              0.0000000000
      9520        76  QMPE      H12X           22.1203107797      -33.9631055416        4.8823781117  MEMB      76              0.0000000000
      9521        76  QMPE      H12Y           21.7852320589      -32.2947576793        4.2023687065  MEMB      76              0.0000000000
      9522        76  QMPE      C313           21.2033822309      -34.2410948982        3.1865554936  MEMB      76              0.0000000000
      9523        76  QMPE      H13X           22.1035935008      -34.5906787168        2.7363312100  MEMB      76              0.0000000000
      9524        76  QMPE      H13Y           20.5350808046      -35.1198920476        3.3599742797  MEMB      76              0.0000000000
      9525        76  QMPE      C314           20.8323193880      -33.5818326849        2.0077139902  MEMB      76              0.0000000000
      9526        76  QMPE      H14X           20.9310627236      -32.5112611554        2.0221143280  MEMB      76              0.0000000000
      9527        76  QMPE      H14Y           19.9986300663      -33.6410499294        2.6155691496  MEMB      76              0.0000000000
      9528        76  QMPE      C315           20.5334546702      -34.4356955745        0.8241877500  MEMB      76              0.0000000000
      9529        76  QMPE      H15X           19.5569942350      -35.0086406669        0.9126416480  MEMB      76              0.0000000000
      9530        76  QMPE      H15Y           20.1536488831      -33.9544109559       -0.2426257350  MEMB      76              0.0000000000
      9531        76  QMPE      H15Z           21.3154029546      -34.5976933865        0.1555275456  MEMB      76              0.0000000000
      9532        77  PYPG      C13            25.7339878618       29.0930158699       20.6330420011  MEMB      77              0.0000000000
      9533        77  PYPG      H13A           24.8485395573       28.4676557669       20.4341668589  MEMB      77              0.0000000000
      9534        77  PYPG      H13B           26.3630664696       29.0425760580       19.7137720441  MEMB      77              0.0000000000
      9535        77  PYPG      OC3            26.4466715338       28.5286233811       21.7453942939  MEMB      77              0.0000000000
      9536        77  PYPG      HO3            27.0996999518       27.9574264612       21.3557245536  MEMB      77              0.0000000000
      9537        77  PYPG      C12            25.1782528134       30.5367526459       20.8649248939  MEMB      77              0.0000000000
      9538        77  PYPG      H12A           26.0415645865       31.2086985500       21.0534943038  MEMB      77              0.0000000000
      9539        77  PYPG      OC2            24.2885395432       30.5914700760       21.9874265653  MEMB      77              0.0000000000
      9540        77  PYPG      HO2            23.9267643107       31.4802420143       21.9607308225  MEMB      77              0.0000000000
      9541        77  PYPG      C11            24.4484546433       31.0863100473       19.6182285056  MEMB      77              0.0000000000
      9542        77  PYPG      H11A           24.5628831266       32.1894754265       19.6395940652  MEMB      77              0.0000000000
      9543        77  PYPG      H11B           23.3625712127       30.8105923243       19.5819406740  MEMB      77              0.0000000000
      9544        77  PYPG      P              24.6880716282       31.0313728197       17.0651448531  MEMB      77              0.0000000000
      9545        77  PYPG      O13            24.0370162150       32.3702554909       17.0593828580  MEMB      77              0.0000000000
      9546        77  PYPG      O14            24.0522197909       29.7665196344       16.7451897583  MEMB      77              0.0000000000
      9547        77  PYPG      O11            25.9720233344       31.0619124061       16.2043708559  MEMB      77              0.0000000000
      9548        77  PYPG      O12            25.1553292452       30.6404462139       18.4849664325  MEMB      77              0.0000000000
      9549        77  PYPG      C1             26.9679209003       30.1106794523       16.5720536541  MEMB      77              0.0000000000
      9550        77  PYPG      HA             26.5505564669       29.1826772315       17.0328083714  MEMB      77              0.0000000000
      9551        77  PYPG      HB             27.6982257861       30.5903909246       17.2635969677  MEMB      77              0.0000000000
      9552        77  PYPG      C2             27.7617800091       29.6342138335       15.3490597322  MEMB      77              0.0000000000
      9553        77  PYPG      HS             28.5360021907       28.9695652596       15.8372442305  MEMB      77              0.0000000000
      9554        77  PYPG      O21            28.2871113201       30.8231904544       14.7208307047  MEMB      77              0.0000000000
      9555        77  PYPG      C21            29.3177339211       30.6443054367       14.0359591865  MEMB      77              0.0000000000
      9556        77  PYPG      O22            29.7511257034       29.5485968348       13.9756914222  MEMB      77              0.0000000000
      9557        77  PYPG      C22            29.6815186563       31.8376360247       13.1536178625  MEMB      77              0.0000000000
      9558        77  PYPG      H2R            30.7878528063       32.0193429147       12.9244428700  MEMB      77              0.0000000000
      9559        77  PYPG      H2S            29.3675223120       32.7232646914       13.4812867708  MEMB      77              0.0000000000
      9560        77  PYPG      C3             26.8943911043       28.9115066723       14.2692131471  MEMB      77              0.0000000000
      9561        77  PYPG      HX             26.3042714087       28.0745609708       14.6661067129  MEMB      77              0.0000000000
      9562        77  PYPG      HY             27.5589713073       28.5214828662       13.4705692597  MEMB      77              0.0000000000
      9563        77  PYPG      O31            25.9535338661       29.8343190177       13.7139923070  MEMB      77              0.0000000000
      9564        77  PYPG      C31            25.3427540442       29.5404761517       12.6094752533  MEMB      77              0.0000000000
      9565        77  PYPG      O32            25.5440984470       28.5818207856       11.8785150304  MEMB      77              0.0000000000
      9566        77  PYPG      C32            24.2810181622       30.5740973050       12.3810621440  MEMB      77              0.0000000000
      9567        77  PYPG      H2X            23.5984232220       30.5846531343       13.2506940516  MEMB      77              0.0000000000
      9568        77  PYPG      H2Y            24.6343897626       31.6223159937       12.3050830325  MEMB      77              0.0000000000
      9569        77  PYPG      C23            28.6858207915       32.2196614046       12.1672806283  MEMB      77              0.0000000000
      9570        77  PYPG      H3R            27.7348474375       32.2082245459       12.6678505667  MEMB      77              0.0000000000
      9571        77  PYPG      H3S            28.6357360969       31.4606910004       11.3925632381  MEMB      77              0.0000000000
      9572        77  PYPG      C24            29.0478586295       33.6118503869       11.6551611357  MEMB      77              0.0000000000
      9573        77  PYPG      H4R            30.1249848171       33.6513276119       11.4340123720  MEMB      77              0.0000000000
      9574        77  PYPG      H4S            29.0010669444       34.3237475532       12.4588753752  MEMB      77              0.0000000000
      9575        77  PYPG      C25            28.0136291595       33.8340273113       10.6187338843  MEMB      77              0.0000000000
      9576        77  PYPG      H5R            27.0831340549       34.0122611050       11.0868882709  MEMB      77              0.0000000000
      9577        77  PYPG      H5S            27.9335853164       32.9013709071       10.0196252547  MEMB      77              0.0000000000
      9578        77  PYPG      C26            28.0073675501       35.1403814292        9.8643506722  MEMB      77              0.0000000000
      9579        77  PYPG      H6R            28.9391888496       34.9886829099        9.5586407674  MEMB      77              0.0000000000
      9580        77  PYPG      H6S            28.1158219139       35.9231358551       10.5632445241  MEMB      77              0.0000000000
      9581        77  PYPG      C27            27.3813402812       35.4518501164        8.4704416013  MEMB      77              0.0000000000
      9582        77  PYPG      H7R            26.4458342117       35.7882779543        8.7892057952  MEMB      77              0.0000000000
      9583        77  PYPG      H7S            27.1390556868       34.5592133938        7.9078883471  MEMB      77              0.0000000000
      9584        77  PYPG      C28            28.0433589909       36.2930737958        7.3471267551  MEMB      77              0.0000000000
      9585        77  PYPG      H8R            28.7863542327       35.7361059553        6.8539602167  MEMB      77              0.0000000000
      9586        77  PYPG      H8S            28.5605348032       37.1585672724        7.7852609264  MEMB      77              0.0000000000
      9587        77  PYPG      C29            27.0616509004       36.5451659082        6.2394415975  MEMB      77              0.0000000000
      9588        77  PYPG      H9R            26.2099455812       37.0768167584        6.5870858717  MEMB      77              0.0000000000
      9589        77  PYPG      C210           27.1572097927       36.3020318045        4.9412353139  MEMB      77              0.0000000000
      9590        77  PYPG      H10R           26.3335855745       36.4734513222        4.2021001538  MEMB      77              0.0000000000
      9591        77  PYPG      C211           28.3915396688       35.6903211060        4.4581824584  MEMB      77              0.0000000000
      9592        77  PYPG      H11R           29.0527983187       35.1006685589        5.2054554596  MEMB      77              0.0000000000
      9593        77  PYPG      H11S           29.1356063738       36.0856911712        3.7985553691  MEMB      77              0.0000000000
      9594        77  PYPG      C212           27.5887369767       34.9981484328        3.5631190319  MEMB      77              0.0000000000
      9595        77  PYPG      H12R           26.7573183035       35.4127699265        2.8207048126  MEMB      77              0.0000000000
      9596        77  PYPG      H12S           26.7215407485       34.0509221071        3.4371120908  MEMB      77              0.0000000000
      9597        77  PYPG      C213           29.6283847360       34.1413361808        2.7308986242  MEMB      77              0.0000000000
      9598        77  PYPG      H13R           30.3189532356       33.9408389401        3.1906845114  MEMB      77              0.0000000000
      9599        77  PYPG      H13S           29.8977154863       34.8851885194        2.1252093617  MEMB      77              0.0000000000
      9600        77  PYPG      C214           29.1100513504       32.1528030265        1.8135073626  MEMB      77              0.0000000000
      9601        77  PYPG      H14R           29.8105335291       31.9108775724        1.2826171780  MEMB      77              0.0000000000
      9602        77  PYPG      H14S           28.7864347482       31.2127391618        2.3671613163  MEMB      77              0.0000000000
      9603        77  PYPG      C215           27.6786427648       31.6725061583        1.3211284167  MEMB      77              0.0000000000
      9604        77  PYPG      H15R           27.7655382753       32.3896205993        0.5675502184  MEMB      77              0.0000000000
      9605        77  PYPG      H15S           26.7365493727       31.9739831040        1.9039634785  MEMB      77              0.0000000000
      9606        77  PYPG      C216           27.6609219016       30.5411403189        0.3001761170  MEMB      77              0.0000000000
      9607        77  PYPG      H16R           28.4174342276       30.9487219947       -0.3625687178  MEMB      77              0.0000000000
      9608        77  PYPG      H16S           26.8097416525       30.3922477546       -0.4374141434  MEMB      77              0.0000000000
      9609        77  PYPG      H16T           27.7366313620       29.7355523758        0.9371575379  MEMB      77              0.0000000000
      9610        77  PYPG      C33            23.5273512700       30.0574850273       11.1734106794  MEMB      77              0.0000000000
      9611        77  PYPG      H3X            22.9082415496       29.1559815285       11.3796008810  MEMB      77              0.0000000000
      9612        77  PYPG      H3Y            24.0627617257       29.8966633889       10.2536690755  MEMB      77              0.0000000000
      9613        77  PYPG      C34            22.6998046660       31.0588987535       10.6883943338  MEMB      77              0.0000000000
      9614        77  PYPG      H4X            22.3424884125       31.1947748581       11.7831495825  MEMB      77              0.0000000000
      9615        77  PYPG      H4Y            21.9233768606       30.5752155310        9.9939678235  MEMB      77              0.0000000000
      9616        77  PYPG      C35            23.1774298647       32.4448437213       10.2939263915  MEMB      77              0.0000000000
      9617        77  PYPG      H5X            23.5650636164       32.9652493802       11.1297140095  MEMB      77              0.0000000000
      9618        77  PYPG      H5Y            22.4166244480       33.2557910131       10.3503742316  MEMB      77              0.0000000000
      9619        77  PYPG      C36            23.9483564094       32.4717510007        8.9964350836  MEMB      77              0.0000000000
      9620        77  PYPG      H6X            24.7708396977       31.8189582963        9.1999526492  MEMB      77              0.0000000000
      9621        77  PYPG      H6Y            24.1301105203       33.5585561103        8.8716922423  MEMB      77              0.0000000000
      9622        77  PYPG      C37            23.4298736051       31.7734257875        7.7360221244  MEMB      77              0.0000000000
      9623        77  PYPG      H7X            22.8097286922       30.8789691131        7.8845228224  MEMB      77              0.0000000000
      9624        77  PYPG      H7Y            22.7906101154       32.5009214662        7.5343075930  MEMB      77              0.0000000000
      9625        77  PYPG      C38            23.9200803436       32.0200065498        6.3525457170  MEMB      77              0.0000000000
      9626        77  PYPG      H8X            23.1489376426       31.6797033377        5.6248299340  MEMB      77              0.0000000000
      9627        77  PYPG      H8Y            24.7619287942       31.3505672176        6.4520175895  MEMB      77              0.0000000000
      9628        77  PYPG      C39            24.4966060361       33.3878761765        6.0760392573  MEMB      77              0.0000000000
      9629        77  PYPG      H9X            25.2297683448       33.3004018590        5.2878744413  MEMB      77              0.0000000000
      9630        77  PYPG      H9Y            24.9854653351       33.6941738561        7.0060817469  MEMB      77              0.0000000000
      9631        77  PYPG      C310           23.5606472965       34.4581124214        5.6391699484  MEMB      77              0.0000000000
      9632        77  PYPG      H10X           24.0259839004       35.4404311595        5.6540008789  MEMB      77              0.0000000000
      9633        77  PYPG      H10Y           22.7753292896       34.5981520849        6.3962424805  MEMB      77              0.0000000000
      9634        77  PYPG      C311           23.0578733579       34.1898172466        4.2655550652  MEMB      77              0.0000000000
      9635        77  PYPG      H11X           22.4417751771       35.1208921819        4.1451372725  MEMB      77              0.0000000000
      9636        77  PYPG      H11Y           22.5498979690       33.1708039125        4.3788051849  MEMB      77              0.0000000000
      9637        77  PYPG      C312           23.9080914135       33.9954709751        3.0719197980  MEMB      77              0.0000000000
      9638        77  PYPG      H12X           24.5910861468       34.8212394810        3.0103547258  MEMB      77              0.0000000000
      9639        77  PYPG      H12Y           24.3105175465       32.9829064648        3.1944944421  MEMB      77              0.0000000000
      9640        77  PYPG      C313           23.1795738490       34.1825636579        1.8076793192  MEMB      77              0.0000000000
      9641        77  PYPG      H13X           22.8791208552       33.1824578590        1.4627693505  MEMB      77              0.0000000000
      9642        77  PYPG      H13Y           22.4770544836       34.9945957279        1.8820174618  MEMB      77              0.0000000000
      9643        77  PYPG      C314           23.5485966975       33.9873019394        0.5044158590  MEMB      77              0.0000000000
      9644        77  PYPG      H14X           23.7412823134       34.7979005810       -0.1195869352  MEMB      77              0.0000000000
      9645        77  PYPG      H14Y           24.5574166467       33.9900459677        1.0210246540  MEMB      77              0.0000000000
      9646        77  PYPG      C315           22.9982972937       32.5853544083       -0.3386367815  MEMB      77              0.0000000000
      9647        77  PYPG      H15X           22.1253662646       33.1272376210       -0.5339795478  MEMB      77              0.0000000000
      9648        77  PYPG      H15Y           23.4595340201       32.5254837961       -1.3365682471  MEMB      77              0.0000000000
      9649        77  PYPG      C316           23.1864656575       30.9688599017        0.3596962705  MEMB      77              0.0000000000
      9650        77  PYPG      H16X           24.1583242496       30.5017135619        0.7176504591  MEMB      77              0.0000000000
      9651        77  PYPG      H16Y           23.2552172189       30.2512499397       -0.4379440209  MEMB      77              0.0000000000
      9652        77  PYPG      H16Z           22.8966757380       30.7835433295        1.3788467583  MEMB      77              0.0000000000
      9653        78  PMPG      C13            -8.4421774559      -39.5642612761       21.9151076840  MEMB      78              0.0000000000
      9654        78  PMPG      H13A           -7.7235599909      -39.6090224795       22.7626529487  MEMB      78              0.0000000000
      9655        78  PMPG      H13B           -9.2401594900      -38.9226468249       22.3276313942  MEMB      78              0.0000000000
      9656        78  PMPG      OC3            -9.0683643000      -40.8175247619       21.6491457145  MEMB      78              0.0000000000
      9657        78  PMPG      HO3            -9.9335853200      -40.5476964650       21.3196508128  MEMB      78              0.0000000000
      9658        78  PMPG      C12            -7.8096310307      -38.9961837751       20.6079121564  MEMB      78              0.0000000000
      9659        78  PMPG      H12A           -7.1987195374      -38.1090385814       20.8715197589  MEMB      78              0.0000000000
      9660        78  PMPG      OC2            -8.8300777469      -38.5327352771       19.7330053821  MEMB      78              0.0000000000
      9661        78  PMPG      HO2            -8.3653270951      -38.4369578805       18.8733195242  MEMB      78              0.0000000000
      9662        78  PMPG      C11            -6.8717702344      -39.9579630104       19.8255807064  MEMB      78              0.0000000000
      9663        78  PMPG      H11A           -7.4250553042      -40.8418537046       19.4435853603  MEMB      78              0.0000000000
      9664        78  PMPG      H11B           -6.1139418780      -40.3456642383       20.5515005227  MEMB      78              0.0000000000
      9665        78  PMPG      P              -6.7607258717      -39.3349458697       17.2514820949  MEMB      78              0.0000000000
      9666        78  PMPG      O13            -6.1549766376      -38.2853381335       16.4720519719  MEMB      78              0.0000000000
      9667        78  PMPG      O14            -8.2266494747      -39.2537848009       17.1998846407  MEMB      78              0.0000000000
      9668        78  PMPG      O11            -6.2238002673      -40.7411123325       16.8083754250  MEMB      78              0.0000000000
      9669        78  PMPG      O12            -6.2552205561      -39.2469144874       18.7496686914  MEMB      78              0.0000000000
      9670        78  PMPG      C1             -5.1587705704      -41.4217816069       17.4871449218  MEMB      78              0.0000000000
      9671        78  PMPG      HA             -5.5862320263      -42.0604659630       18.2924498447  MEMB      78              0.0000000000
      9672        78  PMPG      HB             -4.3869278132      -40.7303711644       17.9182167125  MEMB      78              0.0000000000
      9673        78  PMPG      C2             -4.4294902205      -42.3891633295       16.5306769406  MEMB      78              0.0000000000
      9674        78  PMPG      HS             -3.4704951112      -42.6887392049       17.0253994607  MEMB      78              0.0000000000
      9675        78  PMPG      O21            -4.1944787637      -41.7625453352       15.2697478691  MEMB      78              0.0000000000
      9676        78  PMPG      C21            -3.1396720808      -41.0104069025       15.1545643889  MEMB      78              0.0000000000
      9677        78  PMPG      O22            -2.2644171770      -40.8668683001       15.9754057070  MEMB      78              0.0000000000
      9678        78  PMPG      C22            -3.1885975702      -40.3894125595       13.7600584473  MEMB      78              0.0000000000
      9679        78  PMPG      H2R            -3.5705047157      -41.1214253305       13.0427613769  MEMB      78              0.0000000000
      9680        78  PMPG      H2S            -2.1953567837      -40.0452955044       13.4143204902  MEMB      78              0.0000000000
      9681        78  PMPG      C3             -5.2880105904      -43.6621400698       16.2657008805  MEMB      78              0.0000000000
      9682        78  PMPG      HX             -5.5927888525      -44.0866132857       17.2410347748  MEMB      78              0.0000000000
      9683        78  PMPG      HY             -4.6610798100      -44.4218119166       15.7766645903  MEMB      78              0.0000000000
      9684        78  PMPG      O31            -6.3962547181      -43.4308849662       15.4022370983  MEMB      78              0.0000000000
      9685        78  PMPG      C31            -7.5419024664      -43.5304618713       15.9664918828  MEMB      78              0.0000000000
      9686        78  PMPG      O32            -7.8544089529      -43.9209943864       17.0721846418  MEMB      78              0.0000000000
      9687        78  PMPG      C32            -8.5070867988      -43.2190239942       15.0190228420  MEMB      78              0.0000000000
      9688        78  PMPG      H2X            -9.4294044120      -43.3884986452       15.6749467264  MEMB      78              0.0000000000
      9689        78  PMPG      H2Y            -8.4257902699      -43.9427513887       14.1777373385  MEMB      78              0.0000000000
      9690        78  PMPG      C23            -4.2722840931      -39.3580014756       13.7918315677  MEMB      78              0.0000000000
      9691        78  PMPG      H3R            -3.9852456601      -38.8354736839       14.6226010515  MEMB      78              0.0000000000
      9692        78  PMPG      H3S            -5.2268789428      -39.6495094557       14.1578568815  MEMB      78              0.0000000000
      9693        78  PMPG      C24            -4.3763127553      -38.6061679939       12.5762562620  MEMB      78              0.0000000000
      9694        78  PMPG      H4R            -4.4350294213      -39.1238483637       11.6679035641  MEMB      78              0.0000000000
      9695        78  PMPG      H4S            -3.2771014762      -38.2944662539       12.5097605444  MEMB      78              0.0000000000
      9696        78  PMPG      C25            -5.5986441229      -37.6465966682       12.1342435408  MEMB      78              0.0000000000
      9697        78  PMPG      H5R            -5.5366654918      -36.5848903416       11.7377744629  MEMB      78              0.0000000000
      9698        78  PMPG      H5S            -5.7866409055      -37.1042555194       12.8509641344  MEMB      78              0.0000000000
      9699        78  PMPG      C26            -6.9121956921      -37.8542924563       12.0286678322  MEMB      78              0.0000000000
      9700        78  PMPG      H6R            -7.3553031755      -37.9245157677       13.0374846594  MEMB      78              0.0000000000
      9701        78  PMPG      H6S            -6.6689454916      -38.7798113862       11.5375435236  MEMB      78              0.0000000000
      9702        78  PMPG      C27            -7.4910956684      -36.6848974945       11.2285832205  MEMB      78              0.0000000000
      9703        78  PMPG      H7R            -7.1451712571      -36.7696065110       10.1790904478  MEMB      78              0.0000000000
      9704        78  PMPG      H7S            -7.1461717775      -35.6547673155       11.5362936308  MEMB      78              0.0000000000
      9705        78  PMPG      C28            -8.9943535597      -36.7641313248       11.3252794270  MEMB      78              0.0000000000
      9706        78  PMPG      H8R            -9.3549323863      -35.9790221450       10.6603243668  MEMB      78              0.0000000000
      9707        78  PMPG      H8S            -9.4252986784      -36.4834801415       12.3102883539  MEMB      78              0.0000000000
      9708        78  PMPG      C29            -9.5351836139      -38.1008047666       10.8126723860  MEMB      78              0.0000000000
      9709        78  PMPG      H9R            -9.4723105831      -38.9881440248       11.4490592852  MEMB      78              0.0000000000
      9710        78  PMPG      C217          -10.8194624984      -38.1101627144        9.9824661210  MEMB      78              0.0000000000
      9711        78  PMPG      H17R          -11.4456714806      -38.9586108530       10.2678738821  MEMB      78              0.0000000000
      9712        78  PMPG      H17S          -11.1938171134      -37.1202987111        9.7952968106  MEMB      78              0.0000000000
      9713        78  PMPG      C210           -9.4468127649      -38.3978807880        9.3408668473  MEMB      78              0.0000000000
      9714        78  PMPG      H10R           -9.2327443612      -39.4552470217        9.1136438462  MEMB      78              0.0000000000
      9715        78  PMPG      C211           -8.8498371120      -37.3591690169        8.3701402364  MEMB      78              0.0000000000
      9716        78  PMPG      H11R           -9.0946490374      -36.2952756071        8.5937491712  MEMB      78              0.0000000000
      9717        78  PMPG      H11S           -7.7331859026      -37.4562161012        8.3394660501  MEMB      78              0.0000000000
      9718        78  PMPG      C212           -9.4370515703      -37.6169621033        6.9777208628  MEMB      78              0.0000000000
      9719        78  PMPG      H12R          -10.5427193211      -37.7428840337        7.0679433596  MEMB      78              0.0000000000
      9720        78  PMPG      H12S           -8.9487184124      -38.5287232466        6.5652631323  MEMB      78              0.0000000000
      9721        78  PMPG      C213           -9.2248221796      -36.3950161298        6.0806540276  MEMB      78              0.0000000000
      9722        78  PMPG      H13R           -8.1431271991      -36.1985905226        6.0561900690  MEMB      78              0.0000000000
      9723        78  PMPG      H13S           -9.7407235822      -35.5377219168        6.5655818848  MEMB      78              0.0000000000
      9724        78  PMPG      C214           -9.7983628849      -36.4012426228        4.6578067460  MEMB      78              0.0000000000
      9725        78  PMPG      H14R          -10.7975839759      -36.8763874444        4.8133978728  MEMB      78              0.0000000000
      9726        78  PMPG      H14S           -9.1974786555      -37.0772462394        4.0026494032  MEMB      78              0.0000000000
      9727        78  PMPG      C215           -9.9435832410      -34.9359907824        4.1026616568  MEMB      78              0.0000000000
      9728        78  PMPG      H15R           -8.9836783968      -34.3732393064        3.9887842549  MEMB      78              0.0000000000
      9729        78  PMPG      H15S          -10.4719633051      -34.2917194726        4.8423336820  MEMB      78              0.0000000000
      9730        78  PMPG      C216          -10.6247530484      -34.7720077641        2.7322315514  MEMB      78              0.0000000000
      9731        78  PMPG      H16R          -11.0479742464      -33.7688107240        2.6185150618  MEMB      78              0.0000000000
      9732        78  PMPG      H16S          -11.4476687541      -35.4652189335        2.4890761874  MEMB      78              0.0000000000
      9733        78  PMPG      H16T           -9.8463029788      -34.8820835895        1.9548989859  MEMB      78              0.0000000000
      9734        78  PMPG      C33            -8.4878060293      -41.8013781462       14.3960635007  MEMB      78              0.0000000000
      9735        78  PMPG      H3X            -7.5035152135      -41.7106076228       13.9195296397  MEMB      78              0.0000000000
      9736        78  PMPG      H3Y            -8.6132096412      -41.1206674592       15.2541773935  MEMB      78              0.0000000000
      9737        78  PMPG      C34            -9.4736714549      -41.3178915545       13.2878947050  MEMB      78              0.0000000000
      9738        78  PMPG      H4X            -9.2727224190      -40.2533859706       13.0739695921  MEMB      78              0.0000000000
      9739        78  PMPG      H4Y           -10.5166370396      -41.4190194420       13.6730620970  MEMB      78              0.0000000000
      9740        78  PMPG      C35            -9.4133672068      -42.0696709803       11.9470976249  MEMB      78              0.0000000000
      9741        78  PMPG      H5X           -10.2911400761      -41.7631287490       11.3464905462  MEMB      78              0.0000000000
      9742        78  PMPG      H5Y            -9.4907921748      -43.1425154402       12.1345896288  MEMB      78              0.0000000000
      9743        78  PMPG      C36            -8.1748375547      -41.8185294903       11.1474296411  MEMB      78              0.0000000000
      9744        78  PMPG      H6X            -7.5384325912      -41.0612759478       11.6568445376  MEMB      78              0.0000000000
      9745        78  PMPG      H6Y            -8.4002175065      -41.4086711325       10.1464097952  MEMB      78              0.0000000000
      9746        78  PMPG      C37            -7.3670437511      -43.0169021896       10.8285388209  MEMB      78              0.0000000000
      9747        78  PMPG      H7X            -7.8057179089      -43.6117244797        9.9892010061  MEMB      78              0.0000000000
      9748        78  PMPG      H7Y            -7.2168950810      -43.7121325320       11.6756754586  MEMB      78              0.0000000000
      9749        78  PMPG      C38            -6.0739286692      -42.3164418889       10.4992595872  MEMB      78              0.0000000000
      9750        78  PMPG      H8X            -5.4956975970      -43.1001917552       10.6526274634  MEMB      78              0.0000000000
      9751        78  PMPG      H8Y            -5.4778890101      -41.8302847304       11.2305969232  MEMB      78              0.0000000000
      9752        78  PMPG      C39            -5.9852780926      -41.7406637457        9.0937636728  MEMB      78              0.0000000000
      9753        78  PMPG      H9X            -6.5211619416      -40.8329813716        9.3187421308  MEMB      78              0.0000000000
      9754        78  PMPG      H9Y            -6.4869487965      -42.3924632802        8.3269117430  MEMB      78              0.0000000000
      9755        78  PMPG      C310           -4.6418207773      -41.3237083793        8.5465145724  MEMB      78              0.0000000000
      9756        78  PMPG      H10X           -3.8074115755      -42.0164379948        8.4442854553  MEMB      78              0.0000000000
      9757        78  PMPG      H10Y           -4.1415013297      -40.6852945789        9.3103755940  MEMB      78              0.0000000000
      9758        78  PMPG      C311           -4.8672285540      -40.8817855254        7.0787094307  MEMB      78              0.0000000000
      9759        78  PMPG      H11X           -3.8876340621      -40.8505234118        6.5141532626  MEMB      78              0.0000000000
      9760        78  PMPG      H11Y           -5.4744052354      -39.9788720742        7.1517694030  MEMB      78              0.0000000000
      9761        78  PMPG      C312           -5.3992687805      -41.6544464852        5.9531936504  MEMB      78              0.0000000000
      9762        78  PMPG      H12X           -6.2503970445      -42.1782100663        6.3037095101  MEMB      78              0.0000000000
      9763        78  PMPG      H12Y           -4.6862411639      -42.3416748257        5.5913009354  MEMB      78              0.0000000000
      9764        78  PMPG      C313           -5.2958199446      -41.1570134821        4.5566094481  MEMB      78              0.0000000000
      9765        78  PMPG      H13X           -5.5508696568      -42.0907605901        3.9916946157  MEMB      78              0.0000000000
      9766        78  PMPG      H13Y           -4.2240040845      -40.9575108925        4.2761841414  MEMB      78              0.0000000000
      9767        78  PMPG      C314           -6.2272888763      -39.9965430875        4.3790526131  MEMB      78              0.0000000000
      9768        78  PMPG      H14X           -5.9137281279      -39.2188794011        5.0581946216  MEMB      78              0.0000000000
      9769        78  PMPG      H14Y           -7.2775249158      -40.1832302835        4.6537712599  MEMB      78              0.0000000000
      9770        78  PMPG      C315           -6.2106216265      -39.5015071823        2.9620295891  MEMB      78              0.0000000000
      9771        78  PMPG      H15X           -6.3300932756      -40.3489675178        2.2947799798  MEMB      78              0.0000000000
      9772        78  PMPG      H15Y           -5.2721572062      -39.2125979690        2.6534620059  MEMB      78              0.0000000000
      9773        78  PMPG      C316           -7.1459757574      -38.4015937017        2.5411704511  MEMB      78              0.0000000000
      9774        78  PMPG      H16X           -8.1571175828      -38.8052574950        2.7359517925  MEMB      78              0.0000000000
      9775        78  PMPG      H16Y           -7.0222091754      -38.2011005550        1.4521399875  MEMB      78              0.0000000000
      9776        78  PMPG      H16Z           -6.9439967346      -37.4490608935        3.0739523159  MEMB      78              0.0000000000
      9777        79  PMPG      C13            12.7054621114       39.8146109905       18.4832624243  MEMB      79              0.0000000000
      9778        79  PMPG      H13A           12.7013256097       40.9149567022       18.4672364182  MEMB      79              0.0000000000
      9779        79  PMPG      H13B           13.3220830218       39.5016480482       17.6154976003  MEMB      79              0.0000000000
      9780        79  PMPG      OC3            11.3575483957       39.3520941464       18.3002238952  MEMB      79              0.0000000000
      9781        79  PMPG      HO3            10.8256012930       39.5864188258       19.0626298076  MEMB      79              0.0000000000
      9782        79  PMPG      C12            13.4499071023       39.3615653576       19.7735152250  MEMB      79              0.0000000000
      9783        79  PMPG      H12A           12.8776758817       39.7456407093       20.6470905453  MEMB      79              0.0000000000
      9784        79  PMPG      OC2            14.7544629593       39.9401958583       19.8298666201  MEMB      79              0.0000000000
      9785        79  PMPG      HO2            15.1732059140       39.5112165190       20.5757488232  MEMB      79              0.0000000000
      9786        79  PMPG      C11            13.5738738472       37.8290657015       19.9351715490  MEMB      79              0.0000000000
      9787        79  PMPG      H11A           12.5703628194       37.5141622512       20.2966809535  MEMB      79              0.0000000000
      9788        79  PMPG      H11B           14.3402878857       37.5836059793       20.7112493746  MEMB      79              0.0000000000
      9789        79  PMPG      P              13.9947813777       35.5745503974       18.7836786495  MEMB      79              0.0000000000
      9790        79  PMPG      O13            13.6828348043       35.0927914830       20.1482212300  MEMB      79              0.0000000000
      9791        79  PMPG      O14            15.2567422832       35.1560445489       18.1482454973  MEMB      79              0.0000000000
      9792        79  PMPG      O11            12.7879391543       35.0828767201       17.8907232722  MEMB      79              0.0000000000
      9793        79  PMPG      O12            13.8904316418       37.1725120804       18.7046826905  MEMB      79              0.0000000000
      9794        79  PMPG      C1             11.5407958871       35.7117205148       17.6690569370  MEMB      79              0.0000000000
      9795        79  PMPG      HA             11.5826082012       36.8154270890       17.8337303551  MEMB      79              0.0000000000
      9796        79  PMPG      HB             10.7715084368       35.2846961464       18.3440688509  MEMB      79              0.0000000000
      9797        79  PMPG      C2             11.1206752513       35.5588793858       16.1929375649  MEMB      79              0.0000000000
      9798        79  PMPG      HS             10.9980579413       34.4781373616       15.9212161415  MEMB      79              0.0000000000
      9799        79  PMPG      O21            12.1336173684       36.2379937962       15.4472764852  MEMB      79              0.0000000000
      9800        79  PMPG      C21            12.7792099021       35.5789441512       14.5341619161  MEMB      79              0.0000000000
      9801        79  PMPG      O22            12.5491757570       34.4537172907       14.1283307083  MEMB      79              0.0000000000
      9802        79  PMPG      C22            13.8735893277       36.5005752005       14.0035127306  MEMB      79              0.0000000000
      9803        79  PMPG      H2R            14.3175496695       37.0178071407       14.8763590098  MEMB      79              0.0000000000
      9804        79  PMPG      H2S            13.4182051910       37.2675122046       13.3527305237  MEMB      79              0.0000000000
      9805        79  PMPG      C3              9.7701813263       36.2789452666       16.0206168900  MEMB      79              0.0000000000
      9806        79  PMPG      HX              9.9420691245       37.3380260743       16.3082174442  MEMB      79              0.0000000000
      9807        79  PMPG      HY              9.0485357899       35.8704516791       16.7597530553  MEMB      79              0.0000000000
      9808        79  PMPG      O31             9.2803093363       36.1408748826       14.6805709770  MEMB      79              0.0000000000
      9809        79  PMPG      C31             8.1398913129       36.7421573358       14.4579028625  MEMB      79              0.0000000000
      9810        79  PMPG      O32             7.5607974000       37.5303963056       15.1763808948  MEMB      79              0.0000000000
      9811        79  PMPG      C32             7.6714100982       36.2447100081       13.1191476554  MEMB      79              0.0000000000
      9812        79  PMPG      H2X             6.7067007722       35.8205785719       13.3499617389  MEMB      79              0.0000000000
      9813        79  PMPG      H2Y             8.1910230665       35.3643715221       12.7393276241  MEMB      79              0.0000000000
      9814        79  PMPG      C23            15.0251619737       35.7374035817       13.3241140935  MEMB      79              0.0000000000
      9815        79  PMPG      H3R            14.6762761658       35.2662022418       12.3800745928  MEMB      79              0.0000000000
      9816        79  PMPG      H3S            15.3196187881       34.9124287216       14.0201837008  MEMB      79              0.0000000000
      9817        79  PMPG      C24            16.2442544650       36.6496524646       13.0862550604  MEMB      79              0.0000000000
      9818        79  PMPG      H4R            17.1573400687       36.0326550972       12.9153917247  MEMB      79              0.0000000000
      9819        79  PMPG      H4S            16.4167117830       37.3114739399       13.9706002772  MEMB      79              0.0000000000
      9820        79  PMPG      C25            16.0999251268       37.6251206067       11.9116621261  MEMB      79              0.0000000000
      9821        79  PMPG      H5R            16.8622600956       38.4200331144       12.1059969361  MEMB      79              0.0000000000
      9822        79  PMPG      H5S            15.1288141254       38.1430932041       11.9253185540  MEMB      79              0.0000000000
      9823        79  PMPG      C26            16.2552283323       36.9425515613       10.5407057042  MEMB      79              0.0000000000
      9824        79  PMPG      H6R            15.6133160404       36.0418728597       10.4139120184  MEMB      79              0.0000000000
      9825        79  PMPG      H6S            17.2752636134       36.5234510317       10.5833592562  MEMB      79              0.0000000000
      9826        79  PMPG      C27            16.2229446168       37.9060947143        9.3296544643  MEMB      79              0.0000000000
      9827        79  PMPG      H7R            16.7445125403       37.4423689238        8.4658842887  MEMB      79              0.0000000000
      9828        79  PMPG      H7S            16.8581099548       38.7778181814        9.6124028981  MEMB      79              0.0000000000
      9829        79  PMPG      C28            14.8299407274       38.4421590307        8.8999293168  MEMB      79              0.0000000000
      9830        79  PMPG      H8R            14.8358468638       38.9378443067        7.9034976605  MEMB      79              0.0000000000
      9831        79  PMPG      H8S            14.6378965571       39.2754565306        9.5980638266  MEMB      79              0.0000000000
      9832        79  PMPG      C29            13.6417581393       37.4903559627        9.1409386070  MEMB      79              0.0000000000
      9833        79  PMPG      H9R            13.4226525619       37.2478745196       10.1900162176  MEMB      79              0.0000000000
      9834        79  PMPG      C217           12.4040541054       37.6604658175        8.2610547488  MEMB      79              0.0000000000
      9835        79  PMPG      H17R           11.4999177955       37.4866690386        8.8348063385  MEMB      79              0.0000000000
      9836        79  PMPG      H17S           12.5472676845       38.3898755438        7.4746237058  MEMB      79              0.0000000000
      9837        79  PMPG      C210           13.2648793022       36.4119113447        8.1658137329  MEMB      79              0.0000000000
      9838        79  PMPG      H10R           12.8414284471       35.5070143581        8.6560974689  MEMB      79              0.0000000000
      9839        79  PMPG      C211           14.2405252028       36.2862038398        7.0048421877  MEMB      79              0.0000000000
      9840        79  PMPG      H11R           14.6723130600       37.2383979482        6.6404228179  MEMB      79              0.0000000000
      9841        79  PMPG      H11S           15.1356147594       35.7620122696        7.3943565660  MEMB      79              0.0000000000
      9842        79  PMPG      C212           13.6070839749       35.7066377552        5.7261697450  MEMB      79              0.0000000000
      9843        79  PMPG      H12R           14.3509284377       35.9236225842        4.9250941521  MEMB      79              0.0000000000
      9844        79  PMPG      H12S           12.7085830017       36.2892719378        5.4235774762  MEMB      79              0.0000000000
      9845        79  PMPG      C213           13.1562665411       34.2411266170        5.8617777519  MEMB      79              0.0000000000
      9846        79  PMPG      H13R           12.5781835978       34.1601833902        6.8105888426  MEMB      79              0.0000000000
      9847        79  PMPG      H13S           14.0508100290       33.5870819201        5.9829323222  MEMB      79              0.0000000000
      9848        79  PMPG      C214           12.1556847744       33.7806997272        4.7687713828  MEMB      79              0.0000000000
      9849        79  PMPG      H14R           11.3952115297       34.5633999631        4.6261674210  MEMB      79              0.0000000000
      9850        79  PMPG      H14S           11.7665169361       32.7615206363        5.0246921743  MEMB      79              0.0000000000
      9851        79  PMPG      C215           12.7739958026       33.5853106452        3.4513686962  MEMB      79              0.0000000000
      9852        79  PMPG      H15R           13.5503555007       33.0096871311        3.9519708549  MEMB      79              0.0000000000
      9853        79  PMPG      H15S           13.2940763530       34.4800230309        3.1124508968  MEMB      79              0.0000000000
      9854        79  PMPG      C216           12.0041203227       32.7916418325        2.3770455209  MEMB      79              0.0000000000
      9855        79  PMPG      H16R           11.3199515037       33.5500837291        2.0769756965  MEMB      79              0.0000000000
      9856        79  PMPG      H16S           11.5481391189       31.9100320821        2.8014186297  MEMB      79              0.0000000000
      9857        79  PMPG      H16T           12.3325043615       32.4119120180        1.3697250209  MEMB      79              0.0000000000
      9858        79  PMPG      C33             7.7336589021       37.3309344037       12.0133459393  MEMB      79              0.0000000000
      9859        79  PMPG      H3X             7.1470129637       38.2566331925       12.2400458705  MEMB      79              0.0000000000
      9860        79  PMPG      H3Y             7.2791394035       36.8275502418       11.2146126284  MEMB      79              0.0000000000
      9861        79  PMPG      C34             9.0185992136       37.7850067295       11.5071306770  MEMB      79              0.0000000000
      9862        79  PMPG      H4X             9.6115402919       36.9474198835       11.1651192770  MEMB      79              0.0000000000
      9863        79  PMPG      H4Y             9.4706138553       38.0539470133       12.4592552931  MEMB      79              0.0000000000
      9864        79  PMPG      C35             8.9753298955       38.8574859800       10.4143017711  MEMB      79              0.0000000000
      9865        79  PMPG      H5X             7.9711544761       39.3425085507       10.3698390064  MEMB      79              0.0000000000
      9866        79  PMPG      H5Y             9.1978064426       38.3810398984        9.4263859702  MEMB      79              0.0000000000
      9867        79  PMPG      C36            10.0724401070       39.8969707828       10.6093500814  MEMB      79              0.0000000000
      9868        79  PMPG      H6X            11.0589434927       39.4145084390       10.5660760203  MEMB      79              0.0000000000
      9869        79  PMPG      H6Y             9.9602354897       40.3936336227       11.5989010820  MEMB      79              0.0000000000
      9870        79  PMPG      C37            10.0753663245       40.9111037553        9.5153828676  MEMB      79              0.0000000000
      9871        79  PMPG      H7X            10.9674681651       41.5906717888        9.5552840441  MEMB      79              0.0000000000
      9872        79  PMPG      H7Y             9.1302460449       41.4005813497        9.7671247798  MEMB      79              0.0000000000
      9873        79  PMPG      C38             9.9148864397       40.4132312281        8.1025113426  MEMB      79              0.0000000000
      9874        79  PMPG      H8X             8.8903792308       40.0189998967        7.8561484328  MEMB      79              0.0000000000
      9875        79  PMPG      H8Y            10.6913494995       39.6834753081        7.9146135529  MEMB      79              0.0000000000
      9876        79  PMPG      C39            10.2769123406       41.5434136489        7.2375965713  MEMB      79              0.0000000000
      9877        79  PMPG      H9X            11.0398251699       42.2916264510        7.3856346359  MEMB      79              0.0000000000
      9878        79  PMPG      H9Y             9.6599664917       42.2237535155        7.7475069118  MEMB      79              0.0000000000
      9879        79  PMPG      C310           10.0405377395       41.3077588527        5.7955430553  MEMB      79              0.0000000000
      9880        79  PMPG      H10X           10.1808040340       42.4440685356        5.5416369314  MEMB      79              0.0000000000
      9881        79  PMPG      H10Y            9.0688966029       41.1207600170        5.2810722538  MEMB      79              0.0000000000
      9882        79  PMPG      C311           10.9015675669       40.1242739230        5.3446620810  MEMB      79              0.0000000000
      9883        79  PMPG      H11X           10.6583623174       39.2101020940        5.6052393016  MEMB      79              0.0000000000
      9884        79  PMPG      H11Y           11.9205123164       40.4911086418        5.7820274510  MEMB      79              0.0000000000
      9885        79  PMPG      C312           11.2036261630       39.7265521429        3.6339864730  MEMB      79              0.0000000000
      9886        79  PMPG      H12X           10.3602606310       40.2506501302        3.0236038470  MEMB      79              0.0000000000
      9887        79  PMPG      H12Y           11.8909356334       39.2468239807        3.2801167818  MEMB      79              0.0000000000
      9888        79  PMPG      C313           13.1463820913       40.8997887691        3.2342110085  MEMB      79              0.0000000000
      9889        79  PMPG      H13X           13.1346396752       41.7113203634        4.1156434619  MEMB      79              0.0000000000
      9890        79  PMPG      H13Y           12.9503585838       41.4628403645        2.3827895841  MEMB      79              0.0000000000
      9891        79  PMPG      C314           14.3317811347       40.6759846010        3.6868579026  MEMB      79              0.0000000000
      9892        79  PMPG      H14X           14.0968259202       40.3593431694        4.7179915804  MEMB      79              0.0000000000
      9893        79  PMPG      H14Y           15.0506284473       41.4832703537        3.4419870145  MEMB      79              0.0000000000
      9894        79  PMPG      C315           14.7935637679       39.7467459170        2.8823317286  MEMB      79              0.0000000000
      9895        79  PMPG      H15X           14.0714344859       38.9314618276        2.9844149400  MEMB      79              0.0000000000
      9896        79  PMPG      H15Y           15.7429629168       39.6233830215        3.3808717729  MEMB      79              0.0000000000
      9897        79  PMPG      C316           15.1114449970       40.3325175530        1.5720518267  MEMB      79              0.0000000000
      9898        79  PMPG      H16X           14.4494339831       40.1472106968        0.8627512518  MEMB      79              0.0000000000
      9899        79  PMPG      H16Y           15.7067652588       39.6521672025        1.0288952395  MEMB      79              0.0000000000
      9900        79  PMPG      H16Z           15.2970720783       41.4011759308        1.4514749855  MEMB      79              0.0000000000
      9901        80  PMPE      N              28.4906409384       25.2947268260       21.4368963894  MEMB      80              0.0000000000
      9902        80  PMPE      HN1            27.5915352501       25.2510470251       20.9300502748  MEMB      80              0.0000000000
      9903        80  PMPE      HN2            28.4843696732       24.5940865412       22.2085788959  MEMB      80              0.0000000000
      9904        80  PMPE      HN3            28.6882980231       26.2526058173       21.8078944046  MEMB      80              0.0000000000
      9905        80  PMPE      C12            29.5399355373       24.8514385696       20.4612199860  MEMB      80              0.0000000000
      9906        80  PMPE      H12A           29.2448804284       23.8488346323       20.0757601413  MEMB      80              0.0000000000
      9907        80  PMPE      H12B           30.4477545632       24.8442089614       21.0803311904  MEMB      80              0.0000000000
      9908        80  PMPE      C11            29.6580807664       25.7697316722       19.2389338412  MEMB      80              0.0000000000
      9909        80  PMPE      H11A           30.0106588465       26.7739626766       19.5663823910  MEMB      80              0.0000000000
      9910        80  PMPE      H11B           28.6492600246       25.8696692212       18.7913642143  MEMB      80              0.0000000000
      9911        80  PMPE      P              32.0511754422       25.3488941372       18.2427742885  MEMB      80              0.0000000000
      9912        80  PMPE      O13            32.5863822666       24.4669967267       19.2970813132  MEMB      80              0.0000000000
      9913        80  PMPE      O14            32.4512555064       26.7617938760       18.3711321810  MEMB      80              0.0000000000
      9914        80  PMPE      O11            32.5047107902       24.8835490366       16.8195264419  MEMB      80              0.0000000000
      9915        80  PMPE      O12            30.4617066267       25.2169450652       18.2035152311  MEMB      80              0.0000000000
      9916        80  PMPE      C1             31.6547778627       24.9453858520       15.6675244926  MEMB      80              0.0000000000
      9917        80  PMPE      HA             32.0376165325       25.7423496250       15.0169187570  MEMB      80              0.0000000000
      9918        80  PMPE      HB             30.5769460214       25.1604068878       15.8687778248  MEMB      80              0.0000000000
      9919        80  PMPE      C2             31.8030726957       23.6760297336       14.8133557514  MEMB      80              0.0000000000
      9920        80  PMPE      HS             31.2382132948       22.8673930999       15.3402492116  MEMB      80              0.0000000000
      9921        80  PMPE      O21            33.1862606332       23.4264162419       14.7438475343  MEMB      80              0.0000000000
      9922        80  PMPE      C21            33.4833923229       22.2316867509       14.4857161079  MEMB      80              0.0000000000
      9923        80  PMPE      O22            32.7817829767       21.2415371293       14.4096349963  MEMB      80              0.0000000000
      9924        80  PMPE      C22            34.9063987138       22.3088841193       14.3791209539  MEMB      80              0.0000000000
      9925        80  PMPE      H2R            35.1327053598       22.0593489702       15.4496475605  MEMB      80              0.0000000000
      9926        80  PMPE      H2S            35.4786724685       23.2181805219       14.2925749000  MEMB      80              0.0000000000
      9927        80  PMPE      C3             31.2953717970       23.8207455496       13.3597933732  MEMB      80              0.0000000000
      9928        80  PMPE      HX             30.2774190033       24.2548420005       13.4753078721  MEMB      80              0.0000000000
      9929        80  PMPE      HY             31.2368261986       22.8088125846       12.8928379759  MEMB      80              0.0000000000
      9930        80  PMPE      O31            32.2284047257       24.6013168049       12.5875794301  MEMB      80              0.0000000000
      9931        80  PMPE      C31            31.7899637815       25.4151872740       11.6936004242  MEMB      80              0.0000000000
      9932        80  PMPE      O32            30.6330809764       25.7935591581       11.5496478192  MEMB      80              0.0000000000
      9933        80  PMPE      C32            33.0740020451       25.9719284149       11.0218342395  MEMB      80              0.0000000000
      9934        80  PMPE      H2X            33.2048201430       25.4308475995       10.1105930604  MEMB      80              0.0000000000
      9935        80  PMPE      H2Y            33.9608311614       26.0061584347       11.7009332521  MEMB      80              0.0000000000
      9936        80  PMPE      C23            35.2739070800       21.4409252353       13.2009969589  MEMB      80              0.0000000000
      9937        80  PMPE      H3R            35.4741192759       20.4534323363       13.3374039460  MEMB      80              0.0000000000
      9938        80  PMPE      H3S            36.2693369420       21.7199769231       13.1677767900  MEMB      80              0.0000000000
      9939        80  PMPE      C24            34.8720104730       21.4791652060       11.8432257077  MEMB      80              0.0000000000
      9940        80  PMPE      H4R            33.8628398023       21.1294586343       11.7147386689  MEMB      80              0.0000000000
      9941        80  PMPE      H4S            35.4475417330       20.5987384506       11.4523096680  MEMB      80              0.0000000000
      9942        80  PMPE      C25            35.2132081909       22.8752234044       11.3785341796  MEMB      80              0.0000000000
      9943        80  PMPE      H5R            36.3043821459       23.0929436984       11.5522654344  MEMB      80              0.0000000000
      9944        80  PMPE      H5S            34.6534681523       23.5626264238       12.0338996047  MEMB      80              0.0000000000
      9945        80  PMPE      C26            34.8831251480       23.1106013075        9.8959203051  MEMB      80              0.0000000000
      9946        80  PMPE      H6R            35.6612928265       22.7418820346        9.2426326668  MEMB      80              0.0000000000
      9947        80  PMPE      H6S            35.0469746344       24.1495978817        9.6469340523  MEMB      80              0.0000000000
      9948        80  PMPE      C27            33.6131880024       22.4769872605        9.3100004132  MEMB      80              0.0000000000
      9949        80  PMPE      H7R            32.7429493615       23.0592372710        9.6678398558  MEMB      80              0.0000000000
      9950        80  PMPE      H7S            33.5087793672       21.4030615836        9.6186592029  MEMB      80              0.0000000000
      9951        80  PMPE      C28            33.5906235139       22.5299731159        7.7633294146  MEMB      80              0.0000000000
      9952        80  PMPE      H8R            32.8927790401       21.7606734270        7.3911926318  MEMB      80              0.0000000000
      9953        80  PMPE      H8S            34.5756323964       22.3100679171        7.3121332935  MEMB      80              0.0000000000
      9954        80  PMPE      C29            33.1580990077       23.8949661245        7.2291844214  MEMB      80              0.0000000000
      9955        80  PMPE      H9R            33.7977151172       24.7221631666        7.4542662919  MEMB      80              0.0000000000
      9956        80  PMPE      C217           31.6609121965       24.0410966740        6.9540983962  MEMB      80              0.0000000000
      9957        80  PMPE      H17R           31.2721336247       25.0082917087        7.1770401378  MEMB      80              0.0000000000
      9958        80  PMPE      H17S           31.0972823389       23.1190920617        7.0678482691  MEMB      80              0.0000000000
      9959        80  PMPE      C210           32.6570055744       23.9881191338        5.8355806079  MEMB      80              0.0000000000
      9960        80  PMPE      H10R           32.8135528685       24.8908424114        5.2121526533  MEMB      80              0.0000000000
      9961        80  PMPE      C211           32.6235013690       22.6279474729        5.3371340645  MEMB      80              0.0000000000
      9962        80  PMPE      H11R           31.7924919403       22.4441565564        4.8631842092  MEMB      80              0.0000000000
      9963        80  PMPE      H11S           31.9405271736       21.9183450242        5.7358897772  MEMB      80              0.0000000000
      9964        80  PMPE      C212           33.7162284484       22.0951026506        4.6539736602  MEMB      80              0.0000000000
      9965        80  PMPE      H12R           33.4300102282       21.8041528502        3.6446221304  MEMB      80              0.0000000000
      9966        80  PMPE      H12S           34.2365801381       21.4468359947        5.3365698631  MEMB      80              0.0000000000
      9967        80  PMPE      C213           34.4124382786       23.1385333580        4.2182283786  MEMB      80              0.0000000000
      9968        80  PMPE      H13R           35.2041079630       23.2655677988        4.8301158581  MEMB      80              0.0000000000
      9969        80  PMPE      H13S           34.1200161187       23.8954902577        3.5725651381  MEMB      80              0.0000000000
      9970        80  PMPE      C214           34.7699307973       23.0427057737        3.1696058279  MEMB      80              0.0000000000
      9971        80  PMPE      H14R           34.3998158858       23.1885304014        1.9064124397  MEMB      80              0.0000000000
      9972        80  PMPE      H14S           35.7241612947       21.8894017520        4.9631148317  MEMB      80              0.0000000000
      9973        80  PMPE      C215           36.7725685629       24.3083889808        2.0850089356  MEMB      80              0.0000000000
      9974        80  PMPE      H15R           37.3116553340       23.8145415737        1.2904341386  MEMB      80              0.0000000000
      9975        80  PMPE      H15S           37.5166255045       24.4628345384        2.8638154700  MEMB      80              0.0000000000
      9976        80  PMPE      C216           36.8835415624       25.0852062219        1.2299155161  MEMB      80              0.0000000000
      9977        80  PMPE      H16R           37.6396218451       25.6490574356        0.8873734630  MEMB      80              0.0000000000
      9978        80  PMPE      H16S           36.0507246785       24.6004681346        0.6172489049  MEMB      80              0.0000000000
      9979        80  PMPE      H16T           36.6829006579       25.5561057271        2.0980185473  MEMB      80              0.0000000000
      9980        80  PMPE      C33            33.0362264678       27.3438485725       10.4441710755  MEMB      80              0.0000000000
      9981        80  PMPE      H3X            33.8578626668       28.0700747586       10.5794168334  MEMB      80              0.0000000000
      9982        80  PMPE      H3Y            32.8158743047       27.5716855053       11.3787571167  MEMB      80              0.0000000000
      9983        80  PMPE      C34            31.9010425879       27.5936404259        9.4500346190  MEMB      80              0.0000000000
      9984        80  PMPE      H4X            30.8856724259       27.2183346201        9.6017658039  MEMB      80              0.0000000000
      9985        80  PMPE      H4Y            32.3175995688       27.2488044955        8.5447902601  MEMB      80              0.0000000000
      9986        80  PMPE      C35            31.4750029045       28.9170940504        9.3238358691  MEMB      80              0.0000000000
      9987        80  PMPE      H5X            32.6421836022       29.1737244849        9.4867521872  MEMB      80              0.0000000000
      9988        80  PMPE      H5Y            31.7634914925       29.6691566224        9.8422429597  MEMB      80              0.0000000000
      9989        80  PMPE      C36            30.4475284452       29.3953980935        8.2795015920  MEMB      80              0.0000000000
      9990        80  PMPE      H6X            30.4470252335       30.5124134718        8.3716360529  MEMB      80              0.0000000000
      9991        80  PMPE      H6Y            29.4308073396       29.3109201416        8.5943951451  MEMB      80              0.0000000000
      9992        80  PMPE      C37            30.7609631909       28.6902900299        6.8837472102  MEMB      80              0.0000000000
      9993        80  PMPE      H7X            30.0026578035       29.1370926246        6.1939573464  MEMB      80              0.0000000000
      9994        80  PMPE      H7Y            30.6394496489       27.6755136471        7.1087573148  MEMB      80              0.0000000000
      9995        80  PMPE      C38            32.1505967194       28.6559267042        6.0284430108  MEMB      80              0.0000000000
      9996        80  PMPE      H8X            33.1012201837       28.5246227851        6.5333830241  MEMB      80              0.0000000000
      9997        80  PMPE      H8Y            32.7863481946       29.4453132681        6.1789730369  MEMB      80              0.0000000000
      9998        80  PMPE      C39            31.9827833746       29.1248718741        4.5889673775  MEMB      80              0.0000000000
      9999        80  PMPE      H9X            32.7227148171       29.7002939416        4.0595239660  MEMB      80              0.0000000000
     10000        80  PMPE      H9Y            31.3703604867       29.9301097871        4.2508100531  MEMB      80              0.0000000000
     10001        80  PMPE      C310           32.4063474837       28.0616343251        3.9355017931  MEMB      80              0.0000000000
     10002        80  PMPE      H10X           31.9563865262       27.2775821184        4.5765968042  MEMB      80              0.0000000000
     10003        80  PMPE      H10Y           33.4817200294       28.2157916528        3.9909258050  MEMB      80              0.0000000000
     10004        80  PMPE      C311           32.1146783236       27.9908363455        2.5730593257  MEMB      80              0.0000000000
     10005        80  PMPE      H11X           32.7804808619       28.5927854547        1.9346934329  MEMB      80              0.0000000000
     10006        80  PMPE      H11Y           31.1108329811       28.2962498736        2.6897782308  MEMB      80              0.0000000000
     10007        80  PMPE      C312           32.2604085487       26.9372861530        1.8614638213  MEMB      80              0.0000000000
     10008        80  PMPE      H12X           33.0919332127       27.0171353223        2.4130766807  MEMB      80              0.0000000000
     10009        80  PMPE      H12Y           32.6027420992       27.1016095983        0.8071621282  MEMB      80              0.0000000000
     10010        80  PMPE      C313           31.4088321760       25.9697268802        2.3627606926  MEMB      80              0.0000000000
     10011        80  PMPE      H13X           30.4545317294       25.9962625235        1.8599615029  MEMB      80              0.0000000000
     10012        80  PMPE      H13Y           31.3659832615       25.6247675234        3.3971674755  MEMB      80              0.0000000000
     10013        80  PMPE      C314           31.7571449357       25.0713282918        1.6620330509  MEMB      80              0.0000000000
     10014        80  PMPE      H14X           32.7453125892       24.3905856122        2.0875737903  MEMB      80              0.0000000000
     10015        80  PMPE      H14Y           32.4114311780       25.4677791972        0.6932595013  MEMB      80              0.0000000000
     10016        80  PMPE      C315           30.0615915875       23.7732523892        0.9761089099  MEMB      80              0.0000000000
     10017        80  PMPE      H15X           29.7480607165       23.6655995161        0.2286947738  MEMB      80              0.0000000000
     10018        80  PMPE      H15Y           29.4142860284       23.4618453961        1.8468542348  MEMB      80              0.0000000000
     10019        80  PMPE      C316           31.0354153219       21.3252261356        0.1386628498  MEMB      80              0.0000000000
     10020        80  PMPE      H16X           31.7127398023       21.6192685175       -0.4501132570  MEMB      80              0.0000000000
     10021        80  PMPE      H16Y           30.2631678420       20.7585188910        0.3317767082  MEMB      80              0.0000000000
     10022        80  PMPE      H16Z           31.7920299757       20.7601861707        1.0386620010  MEMB      80              0.0000000000
     10023        81  POPE      N             -38.9575163948       -2.6017705360       19.4942481348  MEMB      81              0.0000000000
     10024        81  POPE      HN1           -38.3970632270       -2.8505151708       18.6444851665  MEMB      81              0.0000000000
     10025        81  POPE      HN2           -38.9647240865       -1.5830046947       19.7182075297  MEMB      81              0.0000000000
     10026        81  POPE      HN3           -38.5814861477       -3.0833815567       20.2983584184  MEMB      81              0.0000000000
     10027        81  POPE      C12           -40.3131535239       -3.2099971094       19.2825769025  MEMB      81              0.0000000000
     10028        81  POPE      H12A          -40.6025600139       -2.6501772283       18.6093574534  MEMB      81              0.0000000000
     10029        81  POPE      H12B          -41.0957966175       -2.9859648303       19.9846400775  MEMB      81              0.0000000000
     10030        81  POPE      C11           -40.4543415081       -4.4372864736       18.4541767792  MEMB      81              0.0000000000
     10031        81  POPE      H11A          -39.8485880079       -4.5343061857       17.5301643996  MEMB      81              0.0000000000
     10032        81  POPE      H11B          -41.5187181936       -4.6056264712       18.1444075869  MEMB      81              0.0000000000
     10033        81  POPE      P             -39.8028372351       -6.7903992106       19.0668566081  MEMB      81              0.0000000000
     10034        81  POPE      O13           -39.9049358143       -7.6335620127       20.2809839201  MEMB      81              0.0000000000
     10035        81  POPE      O14           -38.5389635088       -6.8177122962       18.3177288067  MEMB      81              0.0000000000
     10036        81  POPE      O11           -41.0185673310       -7.0678703408       18.0847675700  MEMB      81              0.0000000000
     10037        81  POPE      O12           -40.0300676026       -5.2915762862       19.4581696765  MEMB      81              0.0000000000
     10038        81  POPE      C1            -42.0909701321       -7.8944706356       18.5521018683  MEMB      81              0.0000000000
     10039        81  POPE      HA            -42.7106357685       -7.3055981749       19.2506675594  MEMB      81              0.0000000000
     10040        81  POPE      HB            -41.7218416552       -8.7756470098       19.1110322594  MEMB      81              0.0000000000
     10041        81  POPE      C2            -43.0352157760       -8.3245504658       17.3923393640  MEMB      81              0.0000000000
     10042        81  POPE      HS            -43.7840964867       -9.0736442319       17.7684514473  MEMB      81              0.0000000000
     10043        81  POPE      O21           -42.3243522816       -8.7826075031       16.2568614266  MEMB      81              0.0000000000
     10044        81  POPE      C21           -41.5556191075       -9.8023467654       16.3373417476  MEMB      81              0.0000000000
     10045        81  POPE      O22           -41.4155164671      -10.5280682853       17.3164186940  MEMB      81              0.0000000000
     10046        81  POPE      C22           -40.9060165891      -10.0454733717       14.9708520083  MEMB      81              0.0000000000
     10047        81  POPE      H2R           -41.5106043260       -9.7167487211       14.1173328099  MEMB      81              0.0000000000
     10048        81  POPE      H2S           -40.8397728746      -11.1020896836       14.8614069927  MEMB      81              0.0000000000
     10049        81  POPE      C3            -43.8505272302       -7.1537204829       16.8714687033  MEMB      81              0.0000000000
     10050        81  POPE      HX            -44.2060576591       -6.7781881743       17.7939525682  MEMB      81              0.0000000000
     10051        81  POPE      HY            -44.6648473341       -7.4070830704       16.1810010994  MEMB      81              0.0000000000
     10052        81  POPE      O31           -43.0007349670       -6.1728125231       16.2863058852  MEMB      81              0.0000000000
     10053        81  POPE      C31           -43.6751646348       -5.1015594611       16.0299963637  MEMB      81              0.0000000000
     10054        81  POPE      O32           -44.8965445207       -5.0608469582       16.0813540797  MEMB      81              0.0000000000
     10055        81  POPE      C32           -42.6572208524       -3.9702771451       15.7152677495  MEMB      81              0.0000000000
     10056        81  POPE      H2X           -41.6637920925       -4.3755440257       15.4947005734  MEMB      81              0.0000000000
     10057        81  POPE      H2Y           -42.5390660903       -3.3242276046       16.6117878748  MEMB      81              0.0000000000
     10058        81  POPE      C23           -39.4810838212       -9.5091463135       14.8757976474  MEMB      81              0.0000000000
     10059        81  POPE      H3R           -39.0381352129       -9.9148894100       13.9487685458  MEMB      81              0.0000000000
     10060        81  POPE      H3S           -38.8940765007       -9.9242268441       15.7120886045  MEMB      81              0.0000000000
     10061        81  POPE      C24           -39.3914557969       -7.9966660108       14.9971971486  MEMB      81              0.0000000000
     10062        81  POPE      H4R           -38.3269976174       -7.6850325308       14.9376612393  MEMB      81              0.0000000000
     10063        81  POPE      H4S           -39.7362221492       -7.7409251808       16.0273501083  MEMB      81              0.0000000000
     10064        81  POPE      C25           -40.2475194836       -7.1973639699       14.0162652255  MEMB      81              0.0000000000
     10065        81  POPE      H5R           -40.3728216686       -6.2167353614       14.5483814439  MEMB      81              0.0000000000
     10066        81  POPE      H5S           -41.2819330789       -7.5986699882       13.9508390734  MEMB      81              0.0000000000
     10067        81  POPE      C26           -39.5960255047       -7.1011157429       12.6082368767  MEMB      81              0.0000000000
     10068        81  POPE      H6R           -38.4812186347       -7.0772940487       12.6774157907  MEMB      81              0.0000000000
     10069        81  POPE      H6S           -39.9898298685       -6.1746109249       12.1278909418  MEMB      81              0.0000000000
     10070        81  POPE      C27           -39.8273516545       -8.2826977715       11.6405980620  MEMB      81              0.0000000000
     10071        81  POPE      H7R           -40.9053145767       -8.5084301225       11.5786124801  MEMB      81              0.0000000000
     10072        81  POPE      H7S           -39.3929652398       -9.2047034148       12.0780381233  MEMB      81              0.0000000000
     10073        81  POPE      C28           -39.3005887250       -8.0187649252       10.2001590214  MEMB      81              0.0000000000
     10074        81  POPE      H8R           -39.6965114815       -7.0490359494        9.8311452968  MEMB      81              0.0000000000
     10075        81  POPE      H8S           -39.6628103061       -8.8627446791        9.5614873493  MEMB      81              0.0000000000
     10076        81  POPE      C29           -37.8050906614       -7.9999592507       10.1470676225  MEMB      81              0.0000000000
     10077        81  POPE      H91           -37.4035566894       -8.8451987832       10.6940179386  MEMB      81              0.0000000000
     10078        81  POPE      C210          -36.9552505559       -7.1760896408        9.4971007256  MEMB      81              0.0000000000
     10079        81  POPE      H101          -35.8775489289       -7.3938047509        9.5542029000  MEMB      81              0.0000000000
     10080        81  POPE      C211          -37.2944560595       -6.0024991049        8.6030611826  MEMB      81              0.0000000000
     10081        81  POPE      H11R          -37.1326853043       -5.0397274899        9.1525175542  MEMB      81              0.0000000000
     10082        81  POPE      H11S          -38.3486025119       -6.0936271248        8.2326660065  MEMB      81              0.0000000000
     10083        81  POPE      C212          -36.4412195064       -5.8649496516        7.3123362660  MEMB      81              0.0000000000
     10084        81  POPE      H12R          -36.4391696441       -6.8030848351        6.7327708090  MEMB      81              0.0000000000
     10085        81  POPE      H12S          -35.3658266374       -5.6694354942        7.5189329535  MEMB      81              0.0000000000
     10086        81  POPE      C213          -36.9919336015       -4.7999757341        6.3622751284  MEMB      81              0.0000000000
     10087        81  POPE      H13R          -36.1435441243       -4.3257511773        5.8105303215  MEMB      81              0.0000000000
     10088        81  POPE      H13S          -37.4881790803       -4.0192662228        6.9501184575  MEMB      81              0.0000000000
     10089        81  POPE      C214          -38.0887780446       -5.3081539052        5.4242745123  MEMB      81              0.0000000000
     10090        81  POPE      H14R          -39.0495907178       -5.3873850328        5.9985079094  MEMB      81              0.0000000000
     10091        81  POPE      H14S          -37.8742125391       -6.2798724477        4.9624055199  MEMB      81              0.0000000000
     10092        81  POPE      C215          -38.1427954004       -4.3662919834        4.2677942796  MEMB      81              0.0000000000
     10093        81  POPE      H15R          -37.2342913025       -3.8695346998        3.9471567817  MEMB      81              0.0000000000
     10094        81  POPE      H15S          -38.4285595341       -3.5178795598        4.8397105212  MEMB      81              0.0000000000
     10095        81  POPE      C216          -38.8957225855       -4.8980072137        3.0250487629  MEMB      81              0.0000000000
     10096        81  POPE      H16R          -39.9353972313       -5.2522718931        3.2164632066  MEMB      81              0.0000000000
     10097        81  POPE      H16S          -38.2670849738       -5.7641705990        2.7858053667  MEMB      81              0.0000000000
     10098        81  POPE      C217          -38.8714158947       -3.9185893073        1.8525191626  MEMB      81              0.0000000000
     10099        81  POPE      H17R          -38.9042936781       -4.4237820434        0.8925320233  MEMB      81              0.0000000000
     10100        81  POPE      H17S          -38.0354609761       -3.2119190762        2.0123798785  MEMB      81              0.0000000000
     10101        81  POPE      C218          -40.0872823674       -3.2300718926        1.4621399197  MEMB      81              0.0000000000
     10102        81  POPE      H18R          -40.9979792063       -3.7842165900        1.7512698911  MEMB      81              0.0000000000
     10103        81  POPE      H18S          -40.1447590589       -2.2789015030        0.9523682690  MEMB      81              0.0000000000
     10104        81  POPE      H18T          -39.9721909675       -2.4864750752        2.1100858400  MEMB      81              0.0000000000
     10105        81  POPE      C33           -43.0087535119       -3.1533101311       14.4726861667  MEMB      81              0.0000000000
     10106        81  POPE      H3X           -42.1772995046       -2.6072326144       14.1667703041  MEMB      81              0.0000000000
     10107        81  POPE      H3Y           -43.5523827939       -2.2794941076       14.7138741249  MEMB      81              0.0000000000
     10108        81  POPE      C34           -43.6386916548       -3.8434150982       13.3176783539  MEMB      81              0.0000000000
     10109        81  POPE      H4X           -44.5941338232       -4.3610488482       13.5150664821  MEMB      81              0.0000000000
     10110        81  POPE      H4Y           -42.8916590128       -4.5958158687       13.0889794642  MEMB      81              0.0000000000
     10111        81  POPE      C35           -43.9449957329       -2.9177884973       12.1833471259  MEMB      81              0.0000000000
     10112        81  POPE      H5X           -44.4525633871       -2.0635021498       12.6244972690  MEMB      81              0.0000000000
     10113        81  POPE      H5Y           -44.6419509000       -3.4120443730       11.5053796093  MEMB      81              0.0000000000
     10114        81  POPE      C36           -42.8039615257       -2.2813882698       11.5417145412  MEMB      81              0.0000000000
     10115        81  POPE      H6X           -42.2668285559       -1.6140622840       12.1767203324  MEMB      81              0.0000000000
     10116        81  POPE      H6Y           -43.1018074177       -1.4440007952       10.8633016831  MEMB      81              0.0000000000
     10117        81  POPE      C37           -41.8912595970       -3.4300556275       11.0695633855  MEMB      81              0.0000000000
     10118        81  POPE      H7X           -41.5017633684       -4.1404835012       11.7020580470  MEMB      81              0.0000000000
     10119        81  POPE      H7Y           -40.9330836865       -2.9990952467       11.0928214669  MEMB      81              0.0000000000
     10120        81  POPE      C38           -42.2499013723       -4.2412322503        9.8282809908  MEMB      81              0.0000000000
     10121        81  POPE      H8X           -42.5456352874       -3.1288697321        9.6854732325  MEMB      81              0.0000000000
     10122        81  POPE      H8Y           -43.1531543033       -4.6852641687        9.7136897041  MEMB      81              0.0000000000
     10123        81  POPE      C39           -41.1532852637       -5.0002505041        8.7783480505  MEMB      81              0.0000000000
     10124        81  POPE      H9X           -40.2788051954       -5.0461931787        9.4247805252  MEMB      81              0.0000000000
     10125        81  POPE      H9Y           -40.5344677809       -4.5623111473        7.8537719680  MEMB      81              0.0000000000
     10126        81  POPE      C310          -41.4562598379       -5.9504067204        7.7539811678  MEMB      81              0.0000000000
     10127        81  POPE      H10X          -41.6836052918       -6.6738707432        8.5095775935  MEMB      81              0.0000000000
     10128        81  POPE      H10Y          -40.5303886390       -6.2690599390        7.2409852286  MEMB      81              0.0000000000
     10129        81  POPE      C311          -42.3738834713       -5.5429727138        6.6441116890  MEMB      81              0.0000000000
     10130        81  POPE      H11X          -43.1980150050       -4.8963572424        6.8321973345  MEMB      81              0.0000000000
     10131        81  POPE      H11Y          -42.7509776817       -6.4839849170        6.2422874613  MEMB      81              0.0000000000
     10132        81  POPE      C312          -41.8865400010       -4.7638108711        5.4872967382  MEMB      81              0.0000000000
     10133        81  POPE      H12X          -41.2984808347       -5.3825408567        4.8360109713  MEMB      81              0.0000000000
     10134        81  POPE      H12Y          -41.0358820174       -4.1137256804        5.6139196889  MEMB      81              0.0000000000
     10135        81  POPE      C313          -43.1236668287       -4.2410346706        4.7050229234  MEMB      81              0.0000000000
     10136        81  POPE      H13X          -43.8843848066       -4.8613759846        4.4618747305  MEMB      81              0.0000000000
     10137        81  POPE      H13Y          -42.7100080731       -4.1453741374        3.7444183981  MEMB      81              0.0000000000
     10138        81  POPE      C314          -43.9164227551       -3.0038780027        5.0683284941  MEMB      81              0.0000000000
     10139        81  POPE      H14X          -43.2520374231       -3.0521859636        5.8389779601  MEMB      81              0.0000000000
     10140        81  POPE      H14Y          -44.3288289580       -3.2262126969        5.9991750009  MEMB      81              0.0000000000
     10141        81  POPE      C315          -43.9668002105       -1.4823741223        4.2932805884  MEMB      81              0.0000000000
     10142        81  POPE      H15X          -43.2073784930       -0.8364054926        3.9819185749  MEMB      81              0.0000000000
     10143        81  POPE      H15Y          -44.3510978078       -0.6934064371        5.0654531865  MEMB      81              0.0000000000
     10144        81  POPE      C316          -44.3591950983       -1.5824303594        3.0412750314  MEMB      81              0.0000000000
     10145        81  POPE      H16X          -44.9464889592       -0.7281841118        2.7902068570  MEMB      81              0.0000000000
     10146        81  POPE      H16Y          -44.9025504777       -2.3566325766        3.5275007165  MEMB      81              0.0000000000
     10147        81  POPE      H16Z          -44.1794526115       -2.3532917414        2.3884767711  MEMB      81              0.0000000000
     10148        82  PMPE      N              34.4727996401       16.4568793742       19.3140680989  MEMB      82              0.0000000000
     10149        82  PMPE      HN1            34.2609893921       17.2502502984       19.9729036943  MEMB      82              0.0000000000
     10150        82  PMPE      HN2            34.0190412264       16.7380849961       18.4147363281  MEMB      82              0.0000000000
     10151        82  PMPE      HN3            34.1178901643       15.5716493847       19.6851703175  MEMB      82              0.0000000000
     10152        82  PMPE      C12            35.9511274207       16.2653875242       19.1382490589  MEMB      82              0.0000000000
     10153        82  PMPE      H12A           36.1722108128       15.4751097854       18.3896719394  MEMB      82              0.0000000000
     10154        82  PMPE      H12B           36.4090332783       15.9438192265       20.0949421920  MEMB      82              0.0000000000
     10155        82  PMPE      C11            36.4915638337       17.5879382146       18.6539291427  MEMB      82              0.0000000000
     10156        82  PMPE      H11A           36.1222065028       17.7549890416       17.6101083469  MEMB      82              0.0000000000
     10157        82  PMPE      H11B           37.5914845566       17.5313861028       18.6504485334  MEMB      82              0.0000000000
     10158        82  PMPE      P              35.8502844936       20.1051739467       19.0465831114  MEMB      82              0.0000000000
     10159        82  PMPE      O13            36.9218365102       21.0290858582       19.4468130448  MEMB      82              0.0000000000
     10160        82  PMPE      O14            34.4772650511       20.3816225483       19.4656889488  MEMB      82              0.0000000000
     10161        82  PMPE      O11            35.8642890961       19.9113925517       17.4934730840  MEMB      82              0.0000000000
     10162        82  PMPE      O12            36.1357124539       18.6273812879       19.5442231847  MEMB      82              0.0000000000
     10163        82  PMPE      C1             36.7492033186       20.6938899165       16.7190059420  MEMB      82              0.0000000000
     10164        82  PMPE      HA             37.8030179890       20.6203742754       16.9598265296  MEMB      82              0.0000000000
     10165        82  PMPE      HB             36.4443302411       21.7747514881       16.8473179891  MEMB      82              0.0000000000
     10166        82  PMPE      C2             36.5940049876       20.2243673871       15.2799002982  MEMB      82              0.0000000000
     10167        82  PMPE      HS             35.6092826697       20.4333550252       15.1296695478  MEMB      82              0.0000000000
     10168        82  PMPE      O21            36.3900820068       18.8423924737       14.9854190146  MEMB      82              0.0000000000
     10169        82  PMPE      C21            35.3550753974       18.3455233889       14.1836059096  MEMB      82              0.0000000000
     10170        82  PMPE      O22            34.4195642612       18.8354256317       13.6156980510  MEMB      82              0.0000000000
     10171        82  PMPE      C22            35.4093014718       16.9010169309       14.1330907880  MEMB      82              0.0000000000
     10172        82  PMPE      H2R            34.7037166573       16.5791091990       13.3300120873  MEMB      82              0.0000000000
     10173        82  PMPE      H2S            35.0469859163       16.6125959026       15.1072942456  MEMB      82              0.0000000000
     10174        82  PMPE      C3             37.7976320371       20.7556806449       14.3277061448  MEMB      82              0.0000000000
     10175        82  PMPE      HX             38.6897513291       20.3280697671       14.6752569593  MEMB      82              0.0000000000
     10176        82  PMPE      HY             37.8109331987       21.9197970203       14.3708987177  MEMB      82              0.0000000000
     10177        82  PMPE      O31            37.6850193001       20.2618930848       12.9480917011  MEMB      82              0.0000000000
     10178        82  PMPE      C31            38.3891188177       20.8803958493       12.0388513211  MEMB      82              0.0000000000
     10179        82  PMPE      O32            39.2520149341       21.7095719418       12.2820045077  MEMB      82              0.0000000000
     10180        82  PMPE      C32            37.9875169378       20.2617629557       10.6880752206  MEMB      82              0.0000000000
     10181        82  PMPE      H2X            37.4038221943       19.3318247887       10.8178891302  MEMB      82              0.0000000000
     10182        82  PMPE      H2Y            38.9050711517       20.0505174982       10.1439381423  MEMB      82              0.0000000000
     10183        82  PMPE      C23            36.7734156427       16.3572495166       13.9882915368  MEMB      82              0.0000000000
     10184        82  PMPE      H3R            36.8614058323       15.3052216288       14.3351290801  MEMB      82              0.0000000000
     10185        82  PMPE      H3S            37.5389429285       16.9885854957       14.4790866406  MEMB      82              0.0000000000
     10186        82  PMPE      C24            37.0453294260       16.5155095111       12.5993979313  MEMB      82              0.0000000000
     10187        82  PMPE      H4R            38.1736256148       16.4090308693       12.7375654478  MEMB      82              0.0000000000
     10188        82  PMPE      H4S            37.0682571645       17.4682683528       12.0930831348  MEMB      82              0.0000000000
     10189        82  PMPE      C25            36.2125583456       15.6273919491       11.6408153863  MEMB      82              0.0000000000
     10190        82  PMPE      H5R            35.1494347797       15.5864793248       11.6735211115  MEMB      82              0.0000000000
     10191        82  PMPE      H5S            36.4455210191       14.5722602954       11.9718359103  MEMB      82              0.0000000000
     10192        82  PMPE      C26            36.3380178361       16.1226443847       10.1085706123  MEMB      82              0.0000000000
     10193        82  PMPE      H6R            35.8654849481       17.0527008406       10.1009050271  MEMB      82              0.0000000000
     10194        82  PMPE      H6S            35.5675839354       15.3487297370        9.7245792905  MEMB      82              0.0000000000
     10195        82  PMPE      C27            37.7472642321       16.4147316110        9.1584487582  MEMB      82              0.0000000000
     10196        82  PMPE      H7R            38.5514286219       15.6083702587        9.1147382712  MEMB      82              0.0000000000
     10197        82  PMPE      H7S            38.4892784679       17.0443852431        9.6203158568  MEMB      82              0.0000000000
     10198        82  PMPE      C28            37.6358610977       16.5255882221        7.6323745214  MEMB      82              0.0000000000
     10199        82  PMPE      H8R            38.6187317490       16.8401977061        7.2906424016  MEMB      82              0.0000000000
     10200        82  PMPE      H8S            36.7560392898       17.1703075334        7.6316744700  MEMB      82              0.0000000000
     10201        82  PMPE      C29            37.2397247640       15.3692705866        6.6787698294  MEMB      82              0.0000000000
     10202        82  PMPE      H9R            36.1986667446       14.8944683171        6.9596603361  MEMB      82              0.0000000000
     10203        82  PMPE      C217           38.6434886498       14.5133975313        6.0918730897  MEMB      82              0.0000000000
     10204        82  PMPE      H17R           38.4713485903       13.4805335909        5.9977661218  MEMB      82              0.0000000000
     10205        82  PMPE      H17S           39.3800576425       14.7293714928        6.8646587882  MEMB      82              0.0000000000
     10206        82  PMPE      C210           37.5916213109       15.0175426013        5.3446444753  MEMB      82              0.0000000000
     10207        82  PMPE      H10R           36.9301962557       14.2049086284        4.9299816043  MEMB      82              0.0000000000
     10208        82  PMPE      C211           38.3602201698       16.0195544312        4.6968465684  MEMB      82              0.0000000000
     10209        82  PMPE      H11R           38.8612199492       15.5527826483        3.8429885490  MEMB      82              0.0000000000
     10210        82  PMPE      H11S           39.1811628395       16.4084376603        5.3561809762  MEMB      82              0.0000000000
     10211        82  PMPE      C212           37.3757219553       17.1188826863        4.4365676703  MEMB      82              0.0000000000
     10212        82  PMPE      H12R           37.9201015949       17.8767248071        3.8515881029  MEMB      82              0.0000000000
     10213        82  PMPE      H12S           36.9680149228       17.5838266558        5.3396190580  MEMB      82              0.0000000000
     10214        82  PMPE      C213           36.1991274373       16.5962277473        3.6699144301  MEMB      82              0.0000000000
     10215        82  PMPE      H13R           35.6517480125       15.7355740707        4.0965982138  MEMB      82              0.0000000000
     10216        82  PMPE      H13S           36.8552447688       16.2225360894        2.8990564147  MEMB      82              0.0000000000
     10217        82  PMPE      C214           35.1246257805       17.5982229516        3.2573614418  MEMB      82              0.0000000000
     10218        82  PMPE      H14R           35.6030284173       18.4243696974        2.7132733894  MEMB      82              0.0000000000
     10219        82  PMPE      H14S           34.7849743824       18.0165335398        4.2215688810  MEMB      82              0.0000000000
     10220        82  PMPE      C215           33.8639877413       17.0974937955        2.5039843044  MEMB      82              0.0000000000
     10221        82  PMPE      H15R           33.0818702410       17.8805788577        2.5499111044  MEMB      82              0.0000000000
     10222        82  PMPE      H15S           33.4824089569       16.1515044721        2.9676574857  MEMB      82              0.0000000000
     10223        82  PMPE      C216           34.0071665420       17.0586648438        1.0032361590  MEMB      82              0.0000000000
     10224        82  PMPE      H16R           34.2706881194       16.0964306733        0.7367190877  MEMB      82              0.0000000000
     10225        82  PMPE      H16S           33.1493308526       16.9540806499        0.3639535584  MEMB      82              0.0000000000
     10226        82  PMPE      H16T           34.8522449899       17.6685322499        0.6190371163  MEMB      82              0.0000000000
     10227        82  PMPE      C33            37.1980982530       21.1539726486        9.7656668789  MEMB      82              0.0000000000
     10228        82  PMPE      H3X            37.5641356322       22.1856988714        9.7883363603  MEMB      82              0.0000000000
     10229        82  PMPE      H3Y            36.2415652943       21.2718048926       10.1175371327  MEMB      82              0.0000000000
     10230        82  PMPE      C34            36.6188154669       20.6438792235        8.4465483432  MEMB      82              0.0000000000
     10231        82  PMPE      H4X            35.6772603604       21.1784974634        8.2145657452  MEMB      82              0.0000000000
     10232        82  PMPE      H4Y            36.3053588287       19.5833421555        8.4793089234  MEMB      82              0.0000000000
     10233        82  PMPE      C35            37.6618048521       20.8316712933        7.3918189984  MEMB      82              0.0000000000
     10234        82  PMPE      H5X            37.4139884441       20.1409272897        6.5639987983  MEMB      82              0.0000000000
     10235        82  PMPE      H5Y            38.6273422823       20.4523766937        7.7916278731  MEMB      82              0.0000000000
     10236        82  PMPE      C36            37.8720884474       22.2566505041        6.8587505395  MEMB      82              0.0000000000
     10237        82  PMPE      H6X            38.0328939142       23.0616206667        7.5579069164  MEMB      82              0.0000000000
     10238        82  PMPE      H6Y            37.0112586402       22.6036547232        6.2679422509  MEMB      82              0.0000000000
     10239        82  PMPE      C37            39.1240837787       22.2515481640        6.1041231121  MEMB      82              0.0000000000
     10240        82  PMPE      H7X            39.9097978589       21.6867085243        6.4973640416  MEMB      82              0.0000000000
     10241        82  PMPE      H7Y            39.5015725453       23.2481904728        5.7624094769  MEMB      82              0.0000000000
     10242        82  PMPE      C38            38.7537957004       21.2955427906        5.0370787566  MEMB      82              0.0000000000
     10243        82  PMPE      H8X            38.6488652913       20.3066417899        4.9448256409  MEMB      82              0.0000000000
     10244        82  PMPE      H8Y            39.4561406653       21.3548622506        4.4024945893  MEMB      82              0.0000000000
     10245        82  PMPE      C39            37.5883553283       21.4803768971        4.2094167447  MEMB      82              0.0000000000
     10246        82  PMPE      H9X            38.1738244632       22.5235097566        4.4253245388  MEMB      82              0.0000000000
     10247        82  PMPE      H9Y            37.8692393975       22.5224499795        4.2557908385  MEMB      82              0.0000000000
     10248        82  PMPE      C310           37.6410448753       20.5525371817        2.2997226432  MEMB      82              0.0000000000
     10249        82  PMPE      H10X           37.4004043243       21.3659384343        2.2203840333  MEMB      82              0.0000000000
     10250        82  PMPE      H10Y           37.1421507310       20.0963051826        2.5889199968  MEMB      82              0.0000000000
     10251        82  PMPE      C311           38.1957871411       20.6831050099        1.0411125693  MEMB      82              0.0000000000
     10252        82  PMPE      H11X           39.3471745857       20.5775697891        1.5528809689  MEMB      82              0.0000000000
     10253        82  PMPE      H11Y           37.7622473287       21.6868454906        0.4477407892  MEMB      82              0.0000000000
     10254        82  PMPE      C312           38.0318098648       20.0270719932        0.0268703751  MEMB      82              0.0000000000
     10255        82  PMPE      H12X           38.5065854219       20.5129240722       -0.8391865430  MEMB      82              0.0000000000
     10256        82  PMPE      H12Y           36.9800553542       20.2291529270       -0.0701131185  MEMB      82              0.0000000000
     10257        82  PMPE      C313           38.6099029812       18.8414249419        0.6649803639  MEMB      82              0.0000000000
     10258        82  PMPE      H13X           38.1875493124       18.6505216598        1.6713767838  MEMB      82              0.0000000000
     10259        82  PMPE      H13Y           39.7104178080       18.8767964913        0.7541122040  MEMB      82              0.0000000000
     10260        82  PMPE      C314           38.1468250070       17.7697449481       -0.1262548290  MEMB      82              0.0000000000
     10261        82  PMPE      H14X           37.2128721121       18.1748700590       -0.5077055237  MEMB      82              0.0000000000
     10262        82  PMPE      H14Y           37.7339906010       16.9558533603        0.3373600609  MEMB      82              0.0000000000
     10263        82  PMPE      C315           39.2054400452       17.2872049296       -1.0332263377  MEMB      82              0.0000000000
     10264        82  PMPE      H15X           40.2034281391       17.0790900210       -0.6742066264  MEMB      82              0.0000000000
     10265        82  PMPE      H15Y           39.4382428243       18.2784010818       -1.5249995625  MEMB      82              0.0000000000
     10266        82  PMPE      C316           38.7622287389       16.1891777105       -2.0183617003  MEMB      82              0.0000000000
     10267        82  PMPE      H16X           38.2600158482       15.3922256354       -1.9929082917  MEMB      82              0.0000000000
     10268        82  PMPE      H16Y           39.5668625410       15.8823088852       -2.7346078952  MEMB      82              0.0000000000
     10269        82  PMPE      H16Z           37.8085518590       16.2048516631       -2.6042648747  MEMB      82              0.0000000000
     10270        83  PYPG      C13             7.6371444508      -38.6262730125       20.6799064849  MEMB      83              0.0000000000
     10271        83  PYPG      H13A            8.1935559609      -37.7692417155       21.1436117071  MEMB      83              0.0000000000
     10272        83  PYPG      H13B            7.4504590772      -38.3362957722       19.6339078563  MEMB      83              0.0000000000
     10273        83  PYPG      OC3             6.2942246062      -38.7813483478       21.1676463708  MEMB      83              0.0000000000
     10274        83  PYPG      HO3             5.8697221786      -37.9251858594       21.2323175358  MEMB      83              0.0000000000
     10275        83  PYPG      C12             8.4581427089      -39.9799442295       20.6745309616  MEMB      83              0.0000000000
     10276        83  PYPG      H12A            7.7806093720      -40.8054343526       20.3578074731  MEMB      83              0.0000000000
     10277        83  PYPG      OC2             8.9813902612      -40.3161429870       21.9692205076  MEMB      83              0.0000000000
     10278        83  PYPG      HO2             9.5523377757      -41.0760571419       21.7975433320  MEMB      83              0.0000000000
     10279        83  PYPG      C11             9.6378074906      -39.9578716932       19.6614969400  MEMB      83              0.0000000000
     10280        83  PYPG      H11A           10.2812170531      -40.8541267490       19.8072406586  MEMB      83              0.0000000000
     10281        83  PYPG      H11B           10.2723066564      -39.0901031087       19.9622872209  MEMB      83              0.0000000000
     10282        83  PYPG      P              10.3039003831      -39.6280313724       17.1570265143  MEMB      83              0.0000000000
     10283        83  PYPG      O13            10.4365761897      -40.7603582550       16.2150474632  MEMB      83              0.0000000000
     10284        83  PYPG      O14            11.5422105195      -39.2199959211       17.8376940587  MEMB      83              0.0000000000
     10285        83  PYPG      O11             9.6286930509      -38.4226991186       16.3724744711  MEMB      83              0.0000000000
     10286        83  PYPG      O12             9.1823879246      -39.8966030709       18.2884030294  MEMB      83              0.0000000000
     10287        83  PYPG      C1              8.2392145373      -38.4714399433       16.0247934414  MEMB      83              0.0000000000
     10288        83  PYPG      HA              8.0469090002      -37.6868096671       15.2549638684  MEMB      83              0.0000000000
     10289        83  PYPG      HB              7.6367813371      -38.3054453682       16.9477586503  MEMB      83              0.0000000000
     10290        83  PYPG      C2              7.7113259810      -39.7549700537       15.2986770110  MEMB      83              0.0000000000
     10291        83  PYPG      HS              7.8497842850      -40.5954702942       16.0265539061  MEMB      83              0.0000000000
     10292        83  PYPG      O21             8.4173152880      -39.9452292414       14.0338864101  MEMB      83              0.0000000000
     10293        83  PYPG      C21             8.2958302857      -41.1640696037       13.5770417264  MEMB      83              0.0000000000
     10294        83  PYPG      O22             7.8762651461      -42.0425844972       14.2247998834  MEMB      83              0.0000000000
     10295        83  PYPG      C22             8.7252833577      -41.4513496011       12.1607406799  MEMB      83              0.0000000000
     10296        83  PYPG      H2R             7.9613821098      -42.0918919638       11.6485113783  MEMB      83              0.0000000000
     10297        83  PYPG      H2S             9.6918827641      -41.9908383107       12.1716168406  MEMB      83              0.0000000000
     10298        83  PYPG      C3              6.1947538786      -39.5887385731       14.9856543057  MEMB      83              0.0000000000
     10299        83  PYPG      HX              5.6287660324      -39.3132647157       15.9032886004  MEMB      83              0.0000000000
     10300        83  PYPG      HY              5.7996451547      -40.5322148626       14.5653120521  MEMB      83              0.0000000000
     10301        83  PYPG      O31             6.0356673426      -38.5768889887       13.9987669497  MEMB      83              0.0000000000
     10302        83  PYPG      C31             4.8266766636      -38.1141157159       13.8648700162  MEMB      83              0.0000000000
     10303        83  PYPG      O32             3.8445256674      -38.4073694533       14.5202620267  MEMB      83              0.0000000000
     10304        83  PYPG      C32             4.8560692628      -37.1044970007       12.7975744978  MEMB      83              0.0000000000
     10305        83  PYPG      H2X             3.8746699130      -36.9144844695       12.3406126194  MEMB      83              0.0000000000
     10306        83  PYPG      H2Y             5.0998747586      -36.2100940433       13.3894061100  MEMB      83              0.0000000000
     10307        83  PYPG      C23             8.9464397942      -40.1299802707       11.4578836843  MEMB      83              0.0000000000
     10308        83  PYPG      H3R             9.7063767256      -39.5270463961       12.0090173945  MEMB      83              0.0000000000
     10309        83  PYPG      H3S             7.9629844790      -39.6233872612       11.5039804599  MEMB      83              0.0000000000
     10310        83  PYPG      C24             9.2279741606      -40.2831299414        9.9654514982  MEMB      83              0.0000000000
     10311        83  PYPG      H4R             8.2627115285      -40.6721948067        9.5698605404  MEMB      83              0.0000000000
     10312        83  PYPG      H4S             9.9966460085      -41.0571449928        9.8051365419  MEMB      83              0.0000000000
     10313        83  PYPG      C25             9.7012457031      -39.0253953198        9.2077348447  MEMB      83              0.0000000000
     10314        83  PYPG      H5R            10.7263350338      -38.7449780889        9.5341327994  MEMB      83              0.0000000000
     10315        83  PYPG      H5S             9.0631644528      -38.1625573759        9.4679742715  MEMB      83              0.0000000000
     10316        83  PYPG      C26             9.7590812445      -39.2318880942        7.6813833353  MEMB      83              0.0000000000
     10317        83  PYPG      H6R             8.8260919907      -39.7277194238        7.3253347961  MEMB      83              0.0000000000
     10318        83  PYPG      H6S            10.6386146377      -39.8881305660        7.4620789335  MEMB      83              0.0000000000
     10319        83  PYPG      C27             9.8134379851      -37.9418217048        6.8463187274  MEMB      83              0.0000000000
     10320        83  PYPG      H7R             8.8394453462      -37.4052665082        6.9310981693  MEMB      83              0.0000000000
     10321        83  PYPG      H7S             9.8343572855      -38.2753034740        5.7851696959  MEMB      83              0.0000000000
     10322        83  PYPG      C28            10.9495412261      -36.9945240810        7.2591218850  MEMB      83              0.0000000000
     10323        83  PYPG      H8R            11.8948211858      -37.5195358264        7.5478926681  MEMB      83              0.0000000000
     10324        83  PYPG      H8S            10.6841712181      -36.5023658071        8.1939581768  MEMB      83              0.0000000000
     10325        83  PYPG      C29            11.1705108926      -35.9026114529        6.2885947432  MEMB      83              0.0000000000
     10326        83  PYPG      H9R            12.0138791316      -36.1693808292        5.7102115864  MEMB      83              0.0000000000
     10327        83  PYPG      C210           10.6325034471      -34.6854568077        6.1313358967  MEMB      83              0.0000000000
     10328        83  PYPG      H10R           10.9230618339      -34.0469613698        5.2905558672  MEMB      83              0.0000000000
     10329        83  PYPG      C211            9.5690644758      -34.0862840881        6.9678736031  MEMB      83              0.0000000000
     10330        83  PYPG      H11R            9.8527747543      -33.0857224771        7.3418627373  MEMB      83              0.0000000000
     10331        83  PYPG      H11S            9.3661418124      -34.7358470197        7.8548323361  MEMB      83              0.0000000000
     10332        83  PYPG      C212            8.4116967144      -33.8082876216        6.0111981322  MEMB      83              0.0000000000
     10333        83  PYPG      H12R            8.6512299001      -33.1891501607        5.1156892025  MEMB      83              0.0000000000
     10334        83  PYPG      H12S            7.6990423702      -33.1452928435        6.5386601654  MEMB      83              0.0000000000
     10335        83  PYPG      C213            7.7864375744      -35.1232509545        5.5964357654  MEMB      83              0.0000000000
     10336        83  PYPG      H13R            7.2791834206      -35.6494335248        6.4267692887  MEMB      83              0.0000000000
     10337        83  PYPG      H13S            8.3215762898      -35.7680421386        4.9244581064  MEMB      83              0.0000000000
     10338        83  PYPG      C214            6.7907656464      -35.0299058791        4.6836947481  MEMB      83              0.0000000000
     10339        83  PYPG      H14R            6.2074321378      -35.9567760444        4.3766986432  MEMB      83              0.0000000000
     10340        83  PYPG      H14S            6.3923973075      -34.2371634914        5.3211596419  MEMB      83              0.0000000000
     10341        83  PYPG      C215            6.8497113722      -34.2272876379        3.6402435791  MEMB      83              0.0000000000
     10342        83  PYPG      H15R            6.9307945427      -33.0841929508        3.9152288927  MEMB      83              0.0000000000
     10343        83  PYPG      H15S            5.7989545740      -34.6324808977        3.3882041276  MEMB      83              0.0000000000
     10344        83  PYPG      C216            7.5513349197      -34.5243095453        2.4374751220  MEMB      83              0.0000000000
     10345        83  PYPG      H16R            8.4970205681      -34.1897492712        2.8185309215  MEMB      83              0.0000000000
     10346        83  PYPG      H16S            7.3151205799      -33.8747204945        1.5664311203  MEMB      83              0.0000000000
     10347        83  PYPG      H16T            7.4141285895      -35.5754817485        2.1831951002  MEMB      83              0.0000000000
     10348        83  PYPG      C33             5.9028950625      -37.3667924077       11.6801641168  MEMB      83              0.0000000000
     10349        83  PYPG      H3X             5.9252641809      -38.4466171133       11.4614934137  MEMB      83              0.0000000000
     10350        83  PYPG      H3Y             6.9070186070      -37.0282097108       12.0450553457  MEMB      83              0.0000000000
     10351        83  PYPG      C34             5.5248662491      -36.6394251182       10.3755455208  MEMB      83              0.0000000000
     10352        83  PYPG      H4X             5.9945967815      -35.6743418197       10.3767171296  MEMB      83              0.0000000000
     10353        83  PYPG      H4Y             4.4338764079      -36.5069377270       10.2501449921  MEMB      83              0.0000000000
     10354        83  PYPG      C35             6.3756060288      -36.8671145469        9.1770729816  MEMB      83              0.0000000000
     10355        83  PYPG      H5X             7.4064713796      -36.9557219604        9.5653690353  MEMB      83              0.0000000000
     10356        83  PYPG      H5Y             6.4437243482      -36.0162066356        8.4547759213  MEMB      83              0.0000000000
     10357        83  PYPG      C36             5.8195818301      -38.0313783953        8.4380298987  MEMB      83              0.0000000000
     10358        83  PYPG      H6X             5.5987585005      -38.8890794263        9.0946167737  MEMB      83              0.0000000000
     10359        83  PYPG      H6Y             6.6508809245      -38.3741544745        7.8074242501  MEMB      83              0.0000000000
     10360        83  PYPG      C37             4.6346187842      -37.5848343489        7.5859903956  MEMB      83              0.0000000000
     10361        83  PYPG      H7X             3.8826893095      -36.9892964712        8.1748177987  MEMB      83              0.0000000000
     10362        83  PYPG      H7Y             5.0934097747      -36.9248081667        6.8260015592  MEMB      83              0.0000000000
     10363        83  PYPG      C38             3.9363951629      -38.7153854705        6.8530010419  MEMB      83              0.0000000000
     10364        83  PYPG      H8X             3.0319256907      -38.2747479566        6.3792720719  MEMB      83              0.0000000000
     10365        83  PYPG      H8Y             3.6002654261      -39.4173510578        7.6513716776  MEMB      83              0.0000000000
     10366        83  PYPG      C39             4.8100329596      -39.5130164469        5.8437572276  MEMB      83              0.0000000000
     10367        83  PYPG      H9X             4.2014648928      -40.3592771794        5.4774354700  MEMB      83              0.0000000000
     10368        83  PYPG      H9Y             5.6315048532      -39.9945763550        6.4258405638  MEMB      83              0.0000000000
     10369        83  PYPG      C310            5.3526049419      -38.7366589810        4.6074314232  MEMB      83              0.0000000000
     10370        83  PYPG      H10X            6.0655768703      -37.9951786898        5.0251719639  MEMB      83              0.0000000000
     10371        83  PYPG      H10Y            4.5849067438      -38.1894544932        4.0146716108  MEMB      83              0.0000000000
     10372        83  PYPG      C311            6.1640704065      -39.5349073315        3.5634667406  MEMB      83              0.0000000000
     10373        83  PYPG      H11X            5.5398344524      -39.8594945781        2.6873835353  MEMB      83              0.0000000000
     10374        83  PYPG      H11Y            6.6229348016      -40.4101387596        4.0721565168  MEMB      83              0.0000000000
     10375        83  PYPG      C312            7.4142047473      -38.7372535432        3.1224469550  MEMB      83              0.0000000000
     10376        83  PYPG      H12X            7.1335550074      -37.7804728104        2.6463649775  MEMB      83              0.0000000000
     10377        83  PYPG      H12Y            7.9114464150      -38.4271683301        4.0676328782  MEMB      83              0.0000000000
     10378        83  PYPG      C313            8.4274891665      -39.5905359692        2.3090956167  MEMB      83              0.0000000000
     10379        83  PYPG      H13X            8.2286728995      -40.6372035878        2.6157369446  MEMB      83              0.0000000000
     10380        83  PYPG      H13Y            8.2444681061      -39.5409603575        1.2160329343  MEMB      83              0.0000000000
     10381        83  PYPG      C314            9.9382385119      -39.3848787919        2.5893175300  MEMB      83              0.0000000000
     10382        83  PYPG      H14X           10.1334041425      -39.5234930578        3.6710721727  MEMB      83              0.0000000000
     10383        83  PYPG      H14Y           10.5802768019      -40.1324500028        2.0617958621  MEMB      83              0.0000000000
     10384        83  PYPG      C315           10.4511689905      -38.0339078480        2.1334276298  MEMB      83              0.0000000000
     10385        83  PYPG      H15X            9.8540688919      -37.2491590984        2.6548782681  MEMB      83              0.0000000000
     10386        83  PYPG      H15Y           11.5255137607      -37.8965770137        2.4069767069  MEMB      83              0.0000000000
     10387        83  PYPG      C316           10.4668144822      -37.9112532903        0.6187962747  MEMB      83              0.0000000000
     10388        83  PYPG      H16X            9.4844663971      -37.9116381404        0.1394921163  MEMB      83              0.0000000000
     10389        83  PYPG      H16Y           11.0967872944      -38.7134453229        0.1745306471  MEMB      83              0.0000000000
     10390        83  PYPG      H16Z           10.9539247302      -36.9593006903        0.3650729937  MEMB      83              0.0000000000
     10391        84  PMPG      C13            39.0912628749       -9.9937533393       21.1642100213  MEMB      84              0.0000000000
     10392        84  PMPG      H13A           38.5580863833       -9.0232707367       21.1978447939  MEMB      84              0.0000000000
     10393        84  PMPG      H13B           38.8161552630      -10.6691189015       22.0110498359  MEMB      84              0.0000000000
     10394        84  PMPG      OC3            40.4976396407       -9.7450646000       21.2969233311  MEMB      84              0.0000000000
     10395        84  PMPG      HO3            40.9622866829      -10.3404540729       20.6850545658  MEMB      84              0.0000000000
     10396        84  PMPG      C12            38.6644326143      -10.6758102385       19.8551578429  MEMB      84              0.0000000000
     10397        84  PMPG      H12A           37.6062886659      -10.9769715655       19.8940696435  MEMB      84              0.0000000000
     10398        84  PMPG      OC2            39.3693147488      -11.8389224148       19.7929216643  MEMB      84              0.0000000000
     10399        84  PMPG      HO2            39.3220035888      -12.1349565419       18.8537452498  MEMB      84              0.0000000000
     10400        84  PMPG      C11            38.8685873132       -9.9334867826       18.5490372973  MEMB      84              0.0000000000
     10401        84  PMPG      H11A           38.0080891049       -9.2207271636       18.5021989579  MEMB      84              0.0000000000
     10402        84  PMPG      H11B           38.7828780868      -10.6468292271       17.7024614874  MEMB      84              0.0000000000
     10403        84  PMPG      P              41.4272100294       -9.9061658285       17.8454734459  MEMB      84              0.0000000000
     10404        84  PMPG      O13            42.6459743578       -9.3151965393       18.4278646956  MEMB      84              0.0000000000
     10405        84  PMPG      O14            41.2127360256       -9.8108871136       16.3886879948  MEMB      84              0.0000000000
     10406        84  PMPG      O11            41.3982130602      -11.4384779461       18.2468255799  MEMB      84              0.0000000000
     10407        84  PMPG      O12            40.1244449783       -9.2838684185       18.5273698566  MEMB      84              0.0000000000
     10408        84  PMPG      C1             42.3461265278      -11.9921072427       19.1675931682  MEMB      84              0.0000000000
     10409        84  PMPG      HA             42.0621519127      -11.8213960415       20.2288980368  MEMB      84              0.0000000000
     10410        84  PMPG      HB             43.3442202088      -11.5250282395       19.0301779978  MEMB      84              0.0000000000
     10411        84  PMPG      C2             42.4575559368      -13.4999172513       18.8832424388  MEMB      84              0.0000000000
     10412        84  PMPG      HS             43.3541841909      -13.8763121222       19.4382656505  MEMB      84              0.0000000000
     10413        84  PMPG      O21            42.5522209320      -13.7485962779       17.4731010723  MEMB      84              0.0000000000
     10414        84  PMPG      C21            43.5056063038      -13.2357626884       16.7578788246  MEMB      84              0.0000000000
     10415        84  PMPG      O22            44.4701478399      -12.5921880581       17.1585709074  MEMB      84              0.0000000000
     10416        84  PMPG      C22            43.2786149389      -13.6111822596       15.2689082115  MEMB      84              0.0000000000
     10417        84  PMPG      H2R            42.9251243893      -14.6559730307       15.1870764243  MEMB      84              0.0000000000
     10418        84  PMPG      H2S            44.1992874442      -13.4945544630       14.6649502117  MEMB      84              0.0000000000
     10419        84  PMPG      C3             41.2110580560      -14.3194266700       19.3386439085  MEMB      84              0.0000000000
     10420        84  PMPG      HX             41.1193229587      -14.2575850427       20.4467946383  MEMB      84              0.0000000000
     10421        84  PMPG      HY             41.4045176311      -15.3717070245       19.0206414700  MEMB      84              0.0000000000
     10422        84  PMPG      O31            39.9625237054      -13.8341598220       18.8028969546  MEMB      84              0.0000000000
     10423        84  PMPG      C31            39.5398965370      -14.1257309035       17.6268069629  MEMB      84              0.0000000000
     10424        84  PMPG      O32            40.0243928279      -14.9546944752       16.9164695125  MEMB      84              0.0000000000
     10425        84  PMPG      C32            38.2874460043      -13.3914466525       17.1166170408  MEMB      84              0.0000000000
     10426        84  PMPG      H2X            37.9386208217      -12.6136310295       17.7991563259  MEMB      84              0.0000000000
     10427        84  PMPG      H2Y            37.4417308764      -14.1083051669       17.0693849858  MEMB      84              0.0000000000
     10428        84  PMPG      C23            42.5576718415      -12.6073531681       14.4321024078  MEMB      84              0.0000000000
     10429        84  PMPG      H3R            43.1533635058      -11.6686039950       14.4435925873  MEMB      84              0.0000000000
     10430        84  PMPG      H3S            41.5882878709      -12.5298408904       14.9233304699  MEMB      84              0.0000000000
     10431        84  PMPG      C24            42.4271747907      -12.9569215426       12.9602366554  MEMB      84              0.0000000000
     10432        84  PMPG      H4R            43.4152514695      -13.1266951260       12.5701539178  MEMB      84              0.0000000000
     10433        84  PMPG      H4S            42.1542433597      -12.1340627184       12.3184541355  MEMB      84              0.0000000000
     10434        84  PMPG      C25            41.3644271038      -13.9797917434       12.6790212766  MEMB      84              0.0000000000
     10435        84  PMPG      H5R            40.4859636963      -13.9151654281       13.2832188641  MEMB      84              0.0000000000
     10436        84  PMPG      H5S            41.7467703204      -14.7847727441       13.2213878774  MEMB      84              0.0000000000
     10437        84  PMPG      C26            40.9270983721      -14.1181333491       11.2006547380  MEMB      84              0.0000000000
     10438        84  PMPG      H6R            41.7304492316      -14.5416935341       10.5588188639  MEMB      84              0.0000000000
     10439        84  PMPG      H6S            40.7537202271      -13.0926508873       10.8440395274  MEMB      84              0.0000000000
     10440        84  PMPG      C27            39.6240485626      -14.8986018157       10.9740700897  MEMB      84              0.0000000000
     10441        84  PMPG      H7R            38.8547899960      -14.4183795810       11.6204375043  MEMB      84              0.0000000000
     10442        84  PMPG      H7S            39.6925094464      -15.9549819211       11.2801904155  MEMB      84              0.0000000000
     10443        84  PMPG      C28            39.1652972086      -14.9284402911        9.4958861364  MEMB      84              0.0000000000
     10444        84  PMPG      H8R            38.1590363744      -15.4014422559        9.5012038589  MEMB      84              0.0000000000
     10445        84  PMPG      H8S            39.8683992665      -15.5115727331        8.8560130876  MEMB      84              0.0000000000
     10446        84  PMPG      C29            39.0091192553      -13.5278262770        8.9241708458  MEMB      84              0.0000000000
     10447        84  PMPG      H9R            38.6544395132      -12.7714102735        9.6342094073  MEMB      84              0.0000000000
     10448        84  PMPG      C217           40.0399251903      -13.1777712010        7.8525336009  MEMB      84              0.0000000000
     10449        84  PMPG      H17R           40.3249587932      -12.1387748448        7.7375972683  MEMB      84              0.0000000000
     10450        84  PMPG      H17S           40.5989395133      -14.0315704818        7.4861699728  MEMB      84              0.0000000000
     10451        84  PMPG      C210           38.5538616998      -13.2953842618        7.5047376490  MEMB      84              0.0000000000
     10452        84  PMPG      H10R           38.0859750821      -12.3195750506        7.2858212406  MEMB      84              0.0000000000
     10453        84  PMPG      C211           38.1366568599      -14.4801433041        6.6567854804  MEMB      84              0.0000000000
     10454        84  PMPG      H11R           39.0332581673      -15.1089032360        6.4821176097  MEMB      84              0.0000000000
     10455        84  PMPG      H11S           37.3876549136      -15.0882516597        7.2161742333  MEMB      84              0.0000000000
     10456        84  PMPG      C212           37.4723127272      -13.8938212290        5.3851862214  MEMB      84              0.0000000000
     10457        84  PMPG      H12R           38.0884682076      -13.1029602351        4.9177712754  MEMB      84              0.0000000000
     10458        84  PMPG      H12S           36.4874035836      -13.5063945304        5.6706295811  MEMB      84              0.0000000000
     10459        84  PMPG      C213           37.1994064470      -14.8430437831        4.2847531157  MEMB      84              0.0000000000
     10460        84  PMPG      H13R           36.7725313740      -15.7832955169        4.7818634201  MEMB      84              0.0000000000
     10461        84  PMPG      H13S           38.2665118106      -14.8829051807        3.8878910426  MEMB      84              0.0000000000
     10462        84  PMPG      C214           36.5331256676      -14.5136914672        3.0549222990  MEMB      84              0.0000000000
     10463        84  PMPG      H14R           35.6123004393      -14.1922518299        3.3743914830  MEMB      84              0.0000000000
     10464        84  PMPG      H14S           36.1613794589      -15.3381333050        2.4095763395  MEMB      84              0.0000000000
     10465        84  PMPG      C215           37.2614228660      -13.5210632272        2.2564931837  MEMB      84              0.0000000000
     10466        84  PMPG      H15R           38.3668699465      -13.8144663876        2.3358891743  MEMB      84              0.0000000000
     10467        84  PMPG      H15S           37.4893551934      -12.5444062119        2.6302312401  MEMB      84              0.0000000000
     10468        84  PMPG      C216           36.5319544991      -13.4144030717        0.8410996425  MEMB      84              0.0000000000
     10469        84  PMPG      H16R           35.5372570911      -13.2392953160        0.7492268262  MEMB      84              0.0000000000
     10470        84  PMPG      H16S           36.6591124807      -14.2013632655       -0.0273346740  MEMB      84              0.0000000000
     10471        84  PMPG      H16T           37.1057778478      -12.5410832468        0.5755020612  MEMB      84              0.0000000000
     10472        84  PMPG      C33            38.5391469628      -12.7537190228       15.7266322010  MEMB      84              0.0000000000
     10473        84  PMPG      H3X            38.6286619809      -13.4985200400       14.9004683999  MEMB      84              0.0000000000
     10474        84  PMPG      H3Y            39.5406872899      -12.2861219617       15.7124994266  MEMB      84              0.0000000000
     10475        84  PMPG      C34            37.4789707029      -11.6852692368       15.4619911642  MEMB      84              0.0000000000
     10476        84  PMPG      H4X            37.0669530212      -11.1960900983       16.3856598318  MEMB      84              0.0000000000
     10477        84  PMPG      H4Y            36.6751546683      -12.2641981515       14.9862281848  MEMB      84              0.0000000000
     10478        84  PMPG      C35            37.9080762987      -10.5828665379       14.4969304976  MEMB      84              0.0000000000
     10479        84  PMPG      H5X            38.8252393753      -10.0945922267       14.8891307248  MEMB      84              0.0000000000
     10480        84  PMPG      H5Y            37.1502742978       -9.8038496549       14.4208341688  MEMB      84              0.0000000000
     10481        84  PMPG      C36            38.0686892222      -10.9819790343       13.0343188219  MEMB      84              0.0000000000
     10482        84  PMPG      H6X            37.1457187696      -11.2640342951       12.4759149520  MEMB      84              0.0000000000
     10483        84  PMPG      H6Y            38.6653434288      -11.9066162079       13.0279393611  MEMB      84              0.0000000000
     10484        84  PMPG      C37            38.7484405090       -9.7866437059       12.3553459529  MEMB      84              0.0000000000
     10485        84  PMPG      H7X            39.6606459788       -9.5239574772       12.9378856173  MEMB      84              0.0000000000
     10486        84  PMPG      H7Y            38.0996526164       -8.8918309592       12.4218936312  MEMB      84              0.0000000000
     10487        84  PMPG      C38            39.1193922101       -9.9804762505       10.8946547189  MEMB      84              0.0000000000
     10488        84  PMPG      H8X            38.2906925194      -10.4625033604       10.3304817747  MEMB      84              0.0000000000
     10489        84  PMPG      H8Y            39.9930776665      -10.6686666122       10.8934207280  MEMB      84              0.0000000000
     10490        84  PMPG      C39            39.5003515140       -8.6604657807       10.2137683686  MEMB      84              0.0000000000
     10491        84  PMPG      H9X            40.4158507030       -8.2631809401       10.7119887857  MEMB      84              0.0000000000
     10492        84  PMPG      H9Y            38.7032757156       -7.8931262894       10.3453805869  MEMB      84              0.0000000000
     10493        84  PMPG      C310           39.9015676873       -8.9364733532        8.7636981974  MEMB      84              0.0000000000
     10494        84  PMPG      H10X           40.4644082836       -9.9013034301        8.8297429244  MEMB      84              0.0000000000
     10495        84  PMPG      H10Y           40.6262884609       -8.1489196479        8.4799299145  MEMB      84              0.0000000000
     10496        84  PMPG      C311           38.7229514679       -8.9756633342        7.7718502013  MEMB      84              0.0000000000
     10497        84  PMPG      H11X           38.0696890987       -8.0764673254        7.8885672521  MEMB      84              0.0000000000
     10498        84  PMPG      H11Y           38.1294181228       -9.8825130438        8.0176806617  MEMB      84              0.0000000000
     10499        84  PMPG      C312           39.1329639588       -9.0940516773        6.2989855774  MEMB      84              0.0000000000
     10500        84  PMPG      H12X           39.6762383820      -10.0543532421        6.1748951815  MEMB      84              0.0000000000
     10501        84  PMPG      H12Y           39.8162633573       -8.2613038068        6.0306321783  MEMB      84              0.0000000000
     10502        84  PMPG      C313           37.9213307139       -9.0840741979        5.3702502391  MEMB      84              0.0000000000
     10503        84  PMPG      H13X           37.3579001828       -8.1243460982        5.5220832125  MEMB      84              0.0000000000
     10504        84  PMPG      H13Y           37.3242217588      -10.0137533690        5.5554103099  MEMB      84              0.0000000000
     10505        84  PMPG      C314           38.2300169574       -9.0149851814        3.8845206370  MEMB      84              0.0000000000
     10506        84  PMPG      H14X           38.5928589711       -7.9735960362        3.6992841798  MEMB      84              0.0000000000
     10507        84  PMPG      H14Y           37.2346496427       -9.1697380816        3.3973869019  MEMB      84              0.0000000000
     10508        84  PMPG      C315           39.3113629632       -9.9573004810        3.3677428857  MEMB      84              0.0000000000
     10509        84  PMPG      H15X           39.1281688901      -11.0224892891        3.6046383943  MEMB      84              0.0000000000
     10510        84  PMPG      H15Y           40.2852959444       -9.6832430854        3.8388219518  MEMB      84              0.0000000000
     10511        84  PMPG      C316           39.3528516773       -9.9009253328        1.8757528104  MEMB      84              0.0000000000
     10512        84  PMPG      H16X           38.6142685992      -10.5454781261        1.4097398783  MEMB      84              0.0000000000
     10513        84  PMPG      H16Y           40.2530475085      -10.3667221214        1.4736746386  MEMB      84              0.0000000000
     10514        84  PMPG      H16Z           39.1189424203       -8.9030750668        1.4451217119  MEMB      84              0.0000000000
     10515        85  PYPG      C13           -34.6200007938      -19.1538410374       19.7161572690  MEMB      85              0.0000000000
     10516        85  PYPG      H13A          -34.1649222449      -18.6652326515       18.8258535580  MEMB      85              0.0000000000
     10517        85  PYPG      H13B          -35.4135662271      -18.4832072115       20.1048451037  MEMB      85              0.0000000000
     10518        85  PYPG      OC3           -33.6406257874      -19.3661897598       20.7366877237  MEMB      85              0.0000000000
     10519        85  PYPG      HO3           -34.0911208661      -19.5519544704       21.5691204551  MEMB      85              0.0000000000
     10520        85  PYPG      C12           -35.3430870186      -20.4689640070       19.3538367395  MEMB      85              0.0000000000
     10521        85  PYPG      H12A          -35.7922059453      -20.8412226263       20.2978325652  MEMB      85              0.0000000000
     10522        85  PYPG      OC2           -34.4294810629      -21.4387900090       18.8521379232  MEMB      85              0.0000000000
     10523        85  PYPG      HO2           -34.9764717779      -22.1528442506       18.5376092912  MEMB      85              0.0000000000
     10524        85  PYPG      C11           -36.4829339508      -20.3355647186       18.3188217562  MEMB      85              0.0000000000
     10525        85  PYPG      H11A          -37.1070486603      -21.2721318170       18.3558358132  MEMB      85              0.0000000000
     10526        85  PYPG      H11B          -35.9606759448      -20.2277556813       17.3442891416  MEMB      85              0.0000000000
     10527        85  PYPG      P             -38.8084989074      -19.1278871660       18.6545858661  MEMB      85              0.0000000000
     10528        85  PYPG      O13           -39.2043461295      -17.7216008510       18.6422361929  MEMB      85              0.0000000000
     10529        85  PYPG      O14           -39.1878077010      -19.8940181666       19.8803197537  MEMB      85              0.0000000000
     10530        85  PYPG      O11           -39.2751912608      -19.8298985706       17.2820194064  MEMB      85              0.0000000000
     10531        85  PYPG      O12           -37.2413793153      -19.1472931694       18.5130908728  MEMB      85              0.0000000000
     10532        85  PYPG      C1            -39.5058184910      -19.0613561172       16.0700268265  MEMB      85              0.0000000000
     10533        85  PYPG      HA            -38.9960539672      -18.0650418472       16.0355478980  MEMB      85              0.0000000000
     10534        85  PYPG      HB            -40.5767022056      -18.7660852163       16.0106388167  MEMB      85              0.0000000000
     10535        85  PYPG      C2            -39.0604821250      -19.8597886541       14.7962323102  MEMB      85              0.0000000000
     10536        85  PYPG      HS            -39.3105409337      -19.2505777544       13.8984014925  MEMB      85              0.0000000000
     10537        85  PYPG      O21           -39.7158537057      -21.1398134192       14.7187992371  MEMB      85              0.0000000000
     10538        85  PYPG      C21           -40.9480700802      -21.1615818005       14.2241119802  MEMB      85              0.0000000000
     10539        85  PYPG      O22           -41.5572615327      -20.2415655187       13.7341845149  MEMB      85              0.0000000000
     10540        85  PYPG      C22           -41.5149371098      -22.5258233792       14.2815307145  MEMB      85              0.0000000000
     10541        85  PYPG      H2R           -42.5653351584      -22.4588155642       13.9963556905  MEMB      85              0.0000000000
     10542        85  PYPG      H2S           -41.2978866215      -23.0982684917       15.2026474183  MEMB      85              0.0000000000
     10543        85  PYPG      C3            -37.5087995636      -20.0849989113       14.7721522415  MEMB      85              0.0000000000
     10544        85  PYPG      HX            -37.2192408762      -20.9567815335       15.4043986166  MEMB      85              0.0000000000
     10545        85  PYPG      HY            -36.9783835365      -19.2154677653       15.1950931337  MEMB      85              0.0000000000
     10546        85  PYPG      O31           -37.0011532293      -20.1289662488       13.4287440103  MEMB      85              0.0000000000
     10547        85  PYPG      C31           -36.7387625249      -21.3234623197       12.9278437488  MEMB      85              0.0000000000
     10548        85  PYPG      O32           -36.7748843915      -22.3517380929       13.5038947897  MEMB      85              0.0000000000
     10549        85  PYPG      C32           -36.1613432923      -21.3445566419       11.5579459264  MEMB      85              0.0000000000
     10550        85  PYPG      H2X           -35.1551112410      -20.9081639911       11.7082510419  MEMB      85              0.0000000000
     10551        85  PYPG      H2Y           -36.0017857704      -22.4107773801       11.2416557137  MEMB      85              0.0000000000
     10552        85  PYPG      C23           -40.9002875222      -23.1857311286       13.2084986748  MEMB      85              0.0000000000
     10553        85  PYPG      H3R           -41.2790552724      -24.2574530288       13.1493154969  MEMB      85              0.0000000000
     10554        85  PYPG      H3S           -39.8070783624      -23.1443765650       13.5686319159  MEMB      85              0.0000000000
     10555        85  PYPG      C24           -40.7652846618      -22.5073264671       11.8833570245  MEMB      85              0.0000000000
     10556        85  PYPG      H4R           -39.9827935118      -23.1273634381       11.6995254952  MEMB      85              0.0000000000
     10557        85  PYPG      H4S           -40.0887153593      -21.6523271562       11.8581541386  MEMB      85              0.0000000000
     10558        85  PYPG      C25           -41.9170402240      -22.4084591518       10.9030774836  MEMB      85              0.0000000000
     10559        85  PYPG      H5R           -42.6529970023      -21.9083109562       11.5503023909  MEMB      85              0.0000000000
     10560        85  PYPG      H5S           -42.4458942364      -23.3084439311       10.5190660967  MEMB      85              0.0000000000
     10561        85  PYPG      C26           -41.5208029695      -21.4996880411        9.7355769862  MEMB      85              0.0000000000
     10562        85  PYPG      H6R           -40.6271124296      -21.8624631417        9.2549213007  MEMB      85              0.0000000000
     10563        85  PYPG      H6S           -41.1436573277      -20.5303974693       10.1110668978  MEMB      85              0.0000000000
     10564        85  PYPG      C27           -42.6465027165      -21.3165827623        8.7302978507  MEMB      85              0.0000000000
     10565        85  PYPG      H7R           -42.4559641868      -20.5119803346        8.0822326079  MEMB      85              0.0000000000
     10566        85  PYPG      H7S           -43.6131296693      -21.0977816093        9.2090008363  MEMB      85              0.0000000000
     10567        85  PYPG      C28           -42.9156241562      -22.3909311440        7.6828708769  MEMB      85              0.0000000000
     10568        85  PYPG      H8R           -43.8876796707      -22.0903477729        7.2538808084  MEMB      85              0.0000000000
     10569        85  PYPG      H8S           -43.0804012107      -23.3571947169        8.1668202435  MEMB      85              0.0000000000
     10570        85  PYPG      C29           -41.9641002648      -22.5068987451        6.5332620678  MEMB      85              0.0000000000
     10571        85  PYPG      H9R           -41.2393138386      -23.3090561070        6.5777522452  MEMB      85              0.0000000000
     10572        85  PYPG      C210          -42.0010693642      -21.8769272740        5.3782345578  MEMB      85              0.0000000000
     10573        85  PYPG      H10R          -41.1923321150      -21.9877579368        4.6632509554  MEMB      85              0.0000000000
     10574        85  PYPG      C211          -43.0131914088      -20.9149209323        4.9889668909  MEMB      85              0.0000000000
     10575        85  PYPG      H11R          -43.7179710872      -20.8622017866        5.8147767992  MEMB      85              0.0000000000
     10576        85  PYPG      H11S          -43.5264994270      -21.1307856667        4.0399975267  MEMB      85              0.0000000000
     10577        85  PYPG      C212          -42.4112625739      -19.6049907083        4.7914660404  MEMB      85              0.0000000000
     10578        85  PYPG      H12R          -41.9613654568      -19.2794125323        5.7391050442  MEMB      85              0.0000000000
     10579        85  PYPG      H12S          -43.2822674223      -19.0282976854        4.4298019144  MEMB      85              0.0000000000
     10580        85  PYPG      C213          -41.3326364496      -19.2603626035        3.8430717997  MEMB      85              0.0000000000
     10581        85  PYPG      H13R          -40.4809191160      -19.7369130496        4.3545663210  MEMB      85              0.0000000000
     10582        85  PYPG      H13S          -41.1070396084      -18.1577606004        3.9034536133  MEMB      85              0.0000000000
     10583        85  PYPG      C214          -41.7044685085      -19.7282452755        2.4250089717  MEMB      85              0.0000000000
     10584        85  PYPG      H14R          -42.7435839431      -20.0478365037        2.2940425457  MEMB      85              0.0000000000
     10585        85  PYPG      H14S          -41.4873628999      -18.9018618511        1.7273208273  MEMB      85              0.0000000000
     10586        85  PYPG      C215          -41.0553605785      -20.9873299882        1.8843979991  MEMB      85              0.0000000000
     10587        85  PYPG      H15R          -41.2852073231      -21.9234604012        2.3820263088  MEMB      85              0.0000000000
     10588        85  PYPG      H15S          -40.1715085492      -20.6948507832        2.2311682673  MEMB      85              0.0000000000
     10589        85  PYPG      C216          -40.9895625688      -21.1786582474        0.3885761934  MEMB      85              0.0000000000
     10590        85  PYPG      H16R          -42.0237252257      -21.0783470756        0.0443643252  MEMB      85              0.0000000000
     10591        85  PYPG      H16S          -40.5617845450      -22.1525186165        0.0592861794  MEMB      85              0.0000000000
     10592        85  PYPG      H16T          -40.3697785124      -20.3919965369       -0.0769131892  MEMB      85              0.0000000000
     10593        85  PYPG      C33           -37.1157982981      -20.5493323143       10.6710048415  MEMB      85              0.0000000000
     10594        85  PYPG      H3X           -37.4081696660      -19.6245228732       11.2210528990  MEMB      85              0.0000000000
     10595        85  PYPG      H3Y           -38.0367519189      -21.0531459232       10.3547929708  MEMB      85              0.0000000000
     10596        85  PYPG      C34           -36.5674726368      -20.2660123155        9.3218272498  MEMB      85              0.0000000000
     10597        85  PYPG      H4X           -36.1690644809      -21.1190812906        8.7868665287  MEMB      85              0.0000000000
     10598        85  PYPG      H4Y           -35.7577761549      -19.8052234526        9.5731675854  MEMB      85              0.0000000000
     10599        85  PYPG      C35           -37.2077655454      -19.1498309499        8.5554116430  MEMB      85              0.0000000000
     10600        85  PYPG      H5X           -37.1682716598      -18.1846422393        9.1060769360  MEMB      85              0.0000000000
     10601        85  PYPG      H5Y           -38.1843713017      -19.4926078345        8.2636576193  MEMB      85              0.0000000000
     10602        85  PYPG      C36           -36.7067157911      -18.9230462909        7.2099385512  MEMB      85              0.0000000000
     10603        85  PYPG      H6X           -35.7232985358      -18.8827712960        7.3330746333  MEMB      85              0.0000000000
     10604        85  PYPG      H6Y           -36.9728967751      -18.0488413230        6.6565528814  MEMB      85              0.0000000000
     10605        85  PYPG      C37           -36.5729818219      -19.9703189733        6.3307462575  MEMB      85              0.0000000000
     10606        85  PYPG      H7X           -36.2898721649      -20.8577496956        6.9781747333  MEMB      85              0.0000000000
     10607        85  PYPG      H7Y           -37.6080839173      -20.1792438422        5.9343440482  MEMB      85              0.0000000000
     10608        85  PYPG      C38           -35.5401684348      -19.9601588257        5.1162262993  MEMB      85              0.0000000000
     10609        85  PYPG      H8X           -34.5320870228      -19.8914546153        5.4405691093  MEMB      85              0.0000000000
     10610        85  PYPG      H8Y           -35.9785436676      -19.2234433725        4.4088555177  MEMB      85              0.0000000000
     10611        85  PYPG      C39           -34.9622945978      -21.1776725016        4.2564735039  MEMB      85              0.0000000000
     10612        85  PYPG      H9X           -34.8749745294      -20.8744618675        3.2281259897  MEMB      85              0.0000000000
     10613        85  PYPG      H9Y           -35.8915010028      -21.2480303094        4.0781585439  MEMB      85              0.0000000000
     10614        85  PYPG      C310          -34.6721276297      -22.6819337091        4.7408862874  MEMB      85              0.0000000000
     10615        85  PYPG      H10X          -35.0275494303      -23.1948575032        5.7537737234  MEMB      85              0.0000000000
     10616        85  PYPG      H10Y          -33.7256340351      -22.6620621878        5.0010937484  MEMB      85              0.0000000000
     10617        85  PYPG      C311          -35.5629334414      -23.7829204427        4.1473742400  MEMB      85              0.0000000000
     10618        85  PYPG      H11X          -36.5562863394      -24.2244393222        4.0567095753  MEMB      85              0.0000000000
     10619        85  PYPG      H11Y          -35.1487871024      -24.4971059179        4.5718809572  MEMB      85              0.0000000000
     10620        85  PYPG      C312          -35.6605939304      -23.8127308785        2.9603774109  MEMB      85              0.0000000000
     10621        85  PYPG      H12X          -36.2921112911      -23.2683915340        2.3977561047  MEMB      85              0.0000000000
     10622        85  PYPG      H12Y          -34.9593563640      -23.1908066806        2.8525063370  MEMB      85              0.0000000000
     10623        85  PYPG      C313          -36.0678949743      -25.1107198205        2.3122462396  MEMB      85              0.0000000000
     10624        85  PYPG      H13X          -35.5666884682      -25.1900337499        1.5800297703  MEMB      85              0.0000000000
     10625        85  PYPG      H13Y          -35.2757378338      -25.6516050761        2.1483434935  MEMB      85              0.0000000000
     10626        85  PYPG      C314          -36.2713635237      -26.4827311409        2.1826106193  MEMB      85              0.0000000000
     10627        85  PYPG      H14X          -36.1130175574      -26.6586567004        3.2444747093  MEMB      85              0.0000000000
     10628        85  PYPG      H14Y          -37.0678143657      -25.5892213590        1.8998647752  MEMB      85              0.0000000000
     10629        85  PYPG      C315          -36.7114857924      -27.4270200278        0.9818921580  MEMB      85              0.0000000000
     10630        85  PYPG      H15X          -36.2759896499      -27.1172852781        0.1409441010  MEMB      85              0.0000000000
     10631        85  PYPG      H15Y          -36.2444976028      -28.1909428451        0.4006138707  MEMB      85              0.0000000000
     10632        85  PYPG      C316          -37.9703016867      -28.1720588438        0.9093351577  MEMB      85              0.0000000000
     10633        85  PYPG      H16X          -38.7685793651      -27.4418486383        0.7865657967  MEMB      85              0.0000000000
     10634        85  PYPG      H16Y          -37.9974315032      -28.7481334097        1.8948209180  MEMB      85              0.0000000000
     10635        85  PYPG      H16Z          -38.0821235092      -28.9125669096        0.1865214889  MEMB      85              0.0000000000
     10636        86  PMPE      N             -15.6100277576      -41.5095887809       18.5056053035  MEMB      86              0.0000000000
     10637        86  PMPE      HN1           -16.3132323189      -41.3948334807       17.7466454547  MEMB      86              0.0000000000
     10638        86  PMPE      HN2           -15.0790368972      -42.3747564166       18.3076805349  MEMB      86              0.0000000000
     10639        86  PMPE      HN3           -16.1633852141      -41.5654834740       19.3914991324  MEMB      86              0.0000000000
     10640        86  PMPE      C12           -14.6026338691      -40.3705158197       18.5483707396  MEMB      86              0.0000000000
     10641        86  PMPE      H12A          -14.3620319077      -40.0302367112       17.5126541201  MEMB      86              0.0000000000
     10642        86  PMPE      H12B          -13.7010618579      -40.7659763386       19.0558294827  MEMB      86              0.0000000000
     10643        86  PMPE      C11           -15.0815471823      -39.1926379398       19.3829852930  MEMB      86              0.0000000000
     10644        86  PMPE      H11A          -14.3140771720      -38.3821113821       19.3068527776  MEMB      86              0.0000000000
     10645        86  PMPE      H11B          -15.2069099118      -39.5054135479       20.4477610761  MEMB      86              0.0000000000
     10646        86  PMPE      P             -16.8575880231      -37.2974397478       19.1795939226  MEMB      86              0.0000000000
     10647        86  PMPE      O13           -16.0602960782      -36.2587653604       18.5002776824  MEMB      86              0.0000000000
     10648        86  PMPE      O14           -17.0732034865      -37.2050076221       20.6438480662  MEMB      86              0.0000000000
     10649        86  PMPE      O11           -18.2380676593      -37.4316847086       18.3958864497  MEMB      86              0.0000000000
     10650        86  PMPE      O12           -16.3082916308      -38.7566000041       18.8473681829  MEMB      86              0.0000000000
     10651        86  PMPE      C1            -19.4130077627      -38.0894576410       18.8687930673  MEMB      86              0.0000000000
     10652        86  PMPE      HA            -20.0749615918      -37.3902272653       19.4400701151  MEMB      86              0.0000000000
     10653        86  PMPE      HB            -19.0967058494      -38.9101998387       19.5222173637  MEMB      86              0.0000000000
     10654        86  PMPE      C2            -20.2725927748      -38.8349602931       17.7923425215  MEMB      86              0.0000000000
     10655        86  PMPE      HS            -21.0130403855      -39.4650195029       18.3507596534  MEMB      86              0.0000000000
     10656        86  PMPE      O21           -19.4209886427      -39.5895384697       16.8904197303  MEMB      86              0.0000000000
     10657        86  PMPE      C21           -20.0211473919      -40.5836575352       16.2318527358  MEMB      86              0.0000000000
     10658        86  PMPE      O22           -21.1006777874      -41.0551640943       16.5116378533  MEMB      86              0.0000000000
     10659        86  PMPE      C22           -19.2262912215      -40.9868679520       14.9701831603  MEMB      86              0.0000000000
     10660        86  PMPE      H2R           -18.3923303543      -41.6609371170       15.2409866196  MEMB      86              0.0000000000
     10661        86  PMPE      H2S           -18.7767899523      -40.0942258659       14.4738531951  MEMB      86              0.0000000000
     10662        86  PMPE      C3            -21.1295834569      -37.8397717772       17.0077354514  MEMB      86              0.0000000000
     10663        86  PMPE      HX            -21.6094924853      -37.1952415599       17.7895745200  MEMB      86              0.0000000000
     10664        86  PMPE      HY            -21.9115777502      -38.4280703129       16.4767401068  MEMB      86              0.0000000000
     10665        86  PMPE      O31           -20.2632771176      -37.0849205472       16.1331525671  MEMB      86              0.0000000000
     10666        86  PMPE      C31           -20.3862630866      -37.2587531032       14.7744061246  MEMB      86              0.0000000000
     10667        86  PMPE      O32           -21.1184008880      -38.0772653673       14.2858647243  MEMB      86              0.0000000000
     10668        86  PMPE      C32           -19.5795708546      -36.2548067444       13.8578604716  MEMB      86              0.0000000000
     10669        86  PMPE      H2X           -18.7869745699      -35.8861606604       14.5358754731  MEMB      86              0.0000000000
     10670        86  PMPE      H2Y           -20.2505066119      -35.3849622071       13.5066365185  MEMB      86              0.0000000000
     10671        86  PMPE      C23           -20.2365836341      -41.7059133269       14.0175462175  MEMB      86              0.0000000000
     10672        86  PMPE      H3R           -21.1573137852      -41.0904574515       13.8844187178  MEMB      86              0.0000000000
     10673        86  PMPE      H3S           -20.6765200545      -42.6168533269       14.4895153101  MEMB      86              0.0000000000
     10674        86  PMPE      C24           -19.7000962200      -42.0776333629       12.6147302864  MEMB      86              0.0000000000
     10675        86  PMPE      H4R           -20.2871412419      -42.9613656346       12.2888771211  MEMB      86              0.0000000000
     10676        86  PMPE      H4S           -18.6245572359      -42.3370924741       12.6322845993  MEMB      86              0.0000000000
     10677        86  PMPE      C25           -19.8830170511      -40.9686882630       11.5795174390  MEMB      86              0.0000000000
     10678        86  PMPE      H5R           -19.2417665998      -40.1147558096       11.8920470702  MEMB      86              0.0000000000
     10679        86  PMPE      H5S           -20.9392473900      -40.6284030442       11.6308079288  MEMB      86              0.0000000000
     10680        86  PMPE      C26           -19.5599154595      -41.2376055334       10.0936170853  MEMB      86              0.0000000000
     10681        86  PMPE      H6R           -19.5752297774      -40.1956945435        9.7117490003  MEMB      86              0.0000000000
     10682        86  PMPE      H6S           -20.3882241756      -41.7141370327        9.5276382463  MEMB      86              0.0000000000
     10683        86  PMPE      C27           -18.2272896216      -41.9146887606        9.7500081456  MEMB      86              0.0000000000
     10684        86  PMPE      H7R           -18.4287499142      -42.9920598781        9.6748786441  MEMB      86              0.0000000000
     10685        86  PMPE      H7S           -17.4382750459      -41.8108876417       10.5154885742  MEMB      86              0.0000000000
     10686        86  PMPE      C28           -17.6603645452      -41.4465327390        8.4140929173  MEMB      86              0.0000000000
     10687        86  PMPE      H8R           -17.2407402157      -42.3437116152        7.9725149087  MEMB      86              0.0000000000
     10688        86  PMPE      H8S           -16.9706904764      -40.5666483330        8.5301598119  MEMB      86              0.0000000000
     10689        86  PMPE      C29           -18.7475936984      -41.1024901925        7.4468126824  MEMB      86              0.0000000000
     10690        86  PMPE      H9R           -19.2365542686      -40.1315023543        7.5407702963  MEMB      86              0.0000000000
     10691        86  PMPE      C217          -19.4129343846      -42.1630668078        6.5688732602  MEMB      86              0.0000000000
     10692        86  PMPE      H17R          -20.4319314724      -41.8495296542        6.3465843824  MEMB      86              0.0000000000
     10693        86  PMPE      H17S          -19.0762719341      -43.1912886814        6.4510097856  MEMB      86              0.0000000000
     10694        86  PMPE      C210          -18.3756078186      -41.1213237567        6.0205750996  MEMB      86              0.0000000000
     10695        86  PMPE      H10R          -18.8769505317      -40.4722096942        5.3134025196  MEMB      86              0.0000000000
     10696        86  PMPE      C211          -17.0324837479      -41.4993746016        5.5089629747  MEMB      86              0.0000000000
     10697        86  PMPE      H11R          -17.0991970460      -42.6594631962        5.7944354536  MEMB      86              0.0000000000
     10698        86  PMPE      H11S          -16.0710427426      -41.1703994136        5.9498743310  MEMB      86              0.0000000000
     10699        86  PMPE      C212          -16.8129641969      -40.7678453427        3.9284860809  MEMB      86              0.0000000000
     10700        86  PMPE      H12R          -17.1260356121      -40.0313800113        3.5906669965  MEMB      86              0.0000000000
     10701        86  PMPE      H12S          -17.7445862408      -40.9662061340        3.0322510001  MEMB      86              0.0000000000
     10702        86  PMPE      C213          -15.6881477081      -41.3587583766        3.1530621026  MEMB      86              0.0000000000
     10703        86  PMPE      H13R          -15.6981622008      -42.1048121226        4.1425978427  MEMB      86              0.0000000000
     10704        86  PMPE      H13S          -15.1059654387      -41.0558713410        2.6296327988  MEMB      86              0.0000000000
     10705        86  PMPE      C214          -15.2734616012      -42.7633453570        0.2478964219  MEMB      86              0.0000000000
     10706        86  PMPE      H14R          -15.8414168327      -42.6003465469        0.7271344919  MEMB      86              0.0000000000
     10707        86  PMPE      H14S          -16.8874710514      -44.5465810468        2.7318906968  MEMB      86              0.0000000000
     10708        86  PMPE      C215          -14.0201973782      -43.7881874199        0.8939797948  MEMB      86              0.0000000000
     10709        86  PMPE      H15R          -14.3902809450      -44.5627990977        0.2719212682  MEMB      86              0.0000000000
     10710        86  PMPE      H15S          -13.4602121650      -44.4226901059        1.7405953356  MEMB      86              0.0000000000
     10711        86  PMPE      C216          -13.4933751454      -42.5347008027        0.3760591804  MEMB      86              0.0000000000
     10712        86  PMPE      H16R          -12.5989191599      -42.9576591025       -0.0439250535  MEMB      86              0.0000000000
     10713        86  PMPE      H16S          -13.9505713258      -41.6988749128       -0.2919379326  MEMB      86              0.0000000000
     10714        86  PMPE      H16T          -13.2771362418      -41.8167265450        1.2000671887  MEMB      86              0.0000000000
     10715        86  PMPE      C33           -19.0873257573      -36.7494697479       12.6854271783  MEMB      86              0.0000000000
     10716        86  PMPE      H3X           -19.9631281844      -36.8094463210       12.0597017180  MEMB      86              0.0000000000
     10717        86  PMPE      H3Y           -18.6231326452      -37.6185575640       13.0648480401  MEMB      86              0.0000000000
     10718        86  PMPE      C34           -18.1509897584      -35.8813473824       12.1205104740  MEMB      86              0.0000000000
     10719        86  PMPE      H4X           -17.6892777969      -35.4013942273       12.9066410634  MEMB      86              0.0000000000
     10720        86  PMPE      H4Y           -18.7842553949      -35.1096001728       11.6945781898  MEMB      86              0.0000000000
     10721        86  PMPE      C35           -17.0222281316      -36.3203826294       11.1937447818  MEMB      86              0.0000000000
     10722        86  PMPE      H5X           -16.4579026503      -37.1170176990       11.6744037068  MEMB      86              0.0000000000
     10723        86  PMPE      H5Y           -16.2120837940      -35.5852609388       10.9034783598  MEMB      86              0.0000000000
     10724        86  PMPE      C36           -17.6485606712      -36.6094872745        9.8746605320  MEMB      86              0.0000000000
     10725        86  PMPE      H6X           -18.1720721471      -35.7407466386        9.4224342947  MEMB      86              0.0000000000
     10726        86  PMPE      H6Y           -18.3653867405      -37.3975794101       10.1044208312  MEMB      86              0.0000000000
     10727        86  PMPE      C37           -16.6095941722      -37.1099818204        8.9061162610  MEMB      86              0.0000000000
     10728        86  PMPE      H7X           -16.1966772483      -37.9873006288        9.4677016570  MEMB      86              0.0000000000
     10729        86  PMPE      H7Y           -15.8861206585      -36.2647614302        8.8054712257  MEMB      86              0.0000000000
     10730        86  PMPE      C38           -17.1705598074      -37.5801781045        7.5534819145  MEMB      86              0.0000000000
     10731        86  PMPE      H8X           -17.8370228623      -38.4396893878        7.7579734003  MEMB      86              0.0000000000
     10732        86  PMPE      H8Y           -16.3475867807      -37.9741870576        6.9244224021  MEMB      86              0.0000000000
     10733        86  PMPE      C39           -17.9387040611      -36.5512296174        6.7150675216  MEMB      86              0.0000000000
     10734        86  PMPE      H9X           -17.3515174026      -35.6428197730        6.6512132959  MEMB      86              0.0000000000
     10735        86  PMPE      H9Y           -18.8554163327      -36.2343643297        7.2672163654  MEMB      86              0.0000000000
     10736        86  PMPE      C310          -18.2401956179      -37.0657693047        5.2768388767  MEMB      86              0.0000000000
     10737        86  PMPE      H10X          -19.0228505904      -36.3901390185        4.8614433032  MEMB      86              0.0000000000
     10738        86  PMPE      H10Y          -18.6079338169      -38.1023041417        5.3305062660  MEMB      86              0.0000000000
     10739        86  PMPE      C311          -17.1008728162      -37.1601720243        4.2327037961  MEMB      86              0.0000000000
     10740        86  PMPE      H11X          -16.3610142824      -37.9743798922        4.3709629730  MEMB      86              0.0000000000
     10741        86  PMPE      H11Y          -16.5503057180      -36.2816934129        4.4675508642  MEMB      86              0.0000000000
     10742        86  PMPE      C312          -17.5988013544      -37.2192888868        2.7689680234  MEMB      86              0.0000000000
     10743        86  PMPE      H12X          -18.3236793919      -36.4120271921        2.5305338397  MEMB      86              0.0000000000
     10744        86  PMPE      H12Y          -18.1575066136      -38.1685533144        2.6616171937  MEMB      86              0.0000000000
     10745        86  PMPE      C313          -16.5201017781      -37.0999942638        1.6771738828  MEMB      86              0.0000000000
     10746        86  PMPE      H13X          -15.6957603397      -36.4657129528        2.0386967480  MEMB      86              0.0000000000
     10747        86  PMPE      H13Y          -16.9844859223      -36.5791639349        0.8030219172  MEMB      86              0.0000000000
     10748        86  PMPE      C314          -15.8783036289      -38.4157599504        1.2563754378  MEMB      86              0.0000000000
     10749        86  PMPE      H14X          -16.6993171240      -39.1266111028        1.0463095631  MEMB      86              0.0000000000
     10750        86  PMPE      H14Y          -15.2301631130      -38.8127202985        2.0564927342  MEMB      86              0.0000000000
     10751        86  PMPE      C315          -15.0862708880      -38.2826757668       -0.0033358761  MEMB      86              0.0000000000
     10752        86  PMPE      H15X          -15.8740249450      -37.9073762325       -0.7053323272  MEMB      86              0.0000000000
     10753        86  PMPE      H15Y          -14.8024489702      -39.3069710143       -0.3775179955  MEMB      86              0.0000000000
     10754        86  PMPE      C316          -13.8679816717      -37.3280807580        0.0277848084  MEMB      86              0.0000000000
     10755        86  PMPE      H16X          -13.1194369262      -37.5666577978        0.8115953647  MEMB      86              0.0000000000
     10756        86  PMPE      H16Y          -14.1688282536      -36.2816905448        0.2129759634  MEMB      86              0.0000000000
     10757        86  PMPE      H16Z          -13.3665595781      -37.3354205843       -0.9645282094  MEMB      86              0.0000000000
     10758        87  PMPE      N              36.5878081358      -19.7279211093       18.4194218492  MEMB      87              0.0000000000
     10759        87  PMPE      HN1            37.3433928570      -20.4449365462       18.6468976700  MEMB      87              0.0000000000
     10760        87  PMPE      HN2            35.7088859593      -20.2973851985       18.4067943417  MEMB      87              0.0000000000
     10761        87  PMPE      HN3            36.8858824228      -19.3249287147       17.5184108619  MEMB      87              0.0000000000
     10762        87  PMPE      C12            36.6313726202      -18.8350521968       19.5755356489  MEMB      87              0.0000000000
     10763        87  PMPE      H12A           35.8987787767      -19.3048681345       20.2570182978  MEMB      87              0.0000000000
     10764        87  PMPE      H12B           36.2285755709      -17.8509769259       19.3001347960  MEMB      87              0.0000000000
     10765        87  PMPE      C11            38.0058216337      -18.7030755683       20.2688113738  MEMB      87              0.0000000000
     10766        87  PMPE      H11A           38.2734705750      -19.6031959366       20.8537681836  MEMB      87              0.0000000000
     10767        87  PMPE      H11B           37.7903316093      -17.9213162675       21.0040460525  MEMB      87              0.0000000000
     10768        87  PMPE      P              40.2631508939      -19.0404410878       18.8096185140  MEMB      87              0.0000000000
     10769        87  PMPE      O13            40.1447550890      -20.4559381098       19.0856422092  MEMB      87              0.0000000000
     10770        87  PMPE      O14            41.5299801091      -18.3840315593       19.0592890749  MEMB      87              0.0000000000
     10771        87  PMPE      O11            39.7389638488      -18.8441465398       17.3390344531  MEMB      87              0.0000000000
     10772        87  PMPE      O12            39.0925806069      -18.2228536429       19.5054471332  MEMB      87              0.0000000000
     10773        87  PMPE      C1             39.3348197158      -17.5729536101       16.8851465704  MEMB      87              0.0000000000
     10774        87  PMPE      HA             40.1682802492      -16.9417838433       17.1702390655  MEMB      87              0.0000000000
     10775        87  PMPE      HB             38.4439013932      -17.1480279462       17.3915821821  MEMB      87              0.0000000000
     10776        87  PMPE      C2             39.1994031346      -17.5987800781       15.3707569604  MEMB      87              0.0000000000
     10777        87  PMPE      HS             38.8949991692      -16.6296208693       14.9210196109  MEMB      87              0.0000000000
     10778        87  PMPE      O21            38.2891424202      -18.6355480068       14.9414415833  MEMB      87              0.0000000000
     10779        87  PMPE      C21            37.0546954299      -18.4225688743       14.9456173485  MEMB      87              0.0000000000
     10780        87  PMPE      O22            36.4777823351      -17.4856933796       15.4700786657  MEMB      87              0.0000000000
     10781        87  PMPE      C22            36.3388113558      -19.5653886582       14.2495453184  MEMB      87              0.0000000000
     10782        87  PMPE      H2R            35.4098310166      -19.6438118886       14.8401261020  MEMB      87              0.0000000000
     10783        87  PMPE      H2S            36.8722842965      -20.5254149386       14.3396125387  MEMB      87              0.0000000000
     10784        87  PMPE      C3             40.5414016319      -17.9165529263       14.8091878930  MEMB      87              0.0000000000
     10785        87  PMPE      HX             41.3987939351      -18.1018917802       15.5153395102  MEMB      87              0.0000000000
     10786        87  PMPE      HY             40.8327216413      -16.8789772387       14.4011336193  MEMB      87              0.0000000000
     10787        87  PMPE      O31            40.1695549058      -19.0907515989       13.9041105941  MEMB      87              0.0000000000
     10788        87  PMPE      C31            40.8820907415      -18.9861359070       12.9911495540  MEMB      87              0.0000000000
     10789        87  PMPE      O32            41.8730902721      -18.3973448472       13.2226836814  MEMB      87              0.0000000000
     10790        87  PMPE      C32            40.6540187996      -19.9680027441       11.8719580984  MEMB      87              0.0000000000
     10791        87  PMPE      H2X            39.6593685125      -19.8547064186       11.5078189961  MEMB      87              0.0000000000
     10792        87  PMPE      H2Y            41.1388518123      -20.8744703114       12.1718722382  MEMB      87              0.0000000000
     10793        87  PMPE      C23            36.0071592642      -19.2861921525       12.7705159467  MEMB      87              0.0000000000
     10794        87  PMPE      H3R            35.9799905175      -18.2231529153       12.4640117985  MEMB      87              0.0000000000
     10795        87  PMPE      H3S            34.9909745086      -19.6819949218       12.5724522316  MEMB      87              0.0000000000
     10796        87  PMPE      C24            37.0294708182      -19.9330655859       11.8785095039  MEMB      87              0.0000000000
     10797        87  PMPE      H4R            36.8887578276      -20.9183636007       11.6864570293  MEMB      87              0.0000000000
     10798        87  PMPE      H4S            37.9931490376      -20.0497077221       12.3247292460  MEMB      87              0.0000000000
     10799        87  PMPE      C25            37.0241546941      -19.6040413930       10.4249031102  MEMB      87              0.0000000000
     10800        87  PMPE      H5R            37.8151522076      -20.2593904345        9.9359959500  MEMB      87              0.0000000000
     10801        87  PMPE      H5S            37.2666700008      -18.6053911638       10.2149848584  MEMB      87              0.0000000000
     10802        87  PMPE      C26            35.6437274522      -19.6315385706        9.8227359665  MEMB      87              0.0000000000
     10803        87  PMPE      H6R            34.6214839706      -19.6237282292       10.1540170578  MEMB      87              0.0000000000
     10804        87  PMPE      H6S            35.5041313988      -20.5143013002       10.5376316025  MEMB      87              0.0000000000
     10805        87  PMPE      C27            35.8225639179      -19.6558249667        8.2205631347  MEMB      87              0.0000000000
     10806        87  PMPE      H7R            36.2159308946      -18.6846251311        7.9911971549  MEMB      87              0.0000000000
     10807        87  PMPE      H7S            34.8134791002      -19.6096858901        7.8448392787  MEMB      87              0.0000000000
     10808        87  PMPE      C28            36.8148584530      -20.5045576561        7.2592918979  MEMB      87              0.0000000000
     10809        87  PMPE      H8R            37.8105629801      -20.3937386830        7.4500697374  MEMB      87              0.0000000000
     10810        87  PMPE      H8S            36.7373554268      -20.3077619200        6.2139577909  MEMB      87              0.0000000000
     10811        87  PMPE      C29            36.8594479275      -21.9308608383        7.2053237903  MEMB      87              0.0000000000
     10812        87  PMPE      H9R            36.0637020322      -22.1108422298        7.2710248331  MEMB      87              0.0000000000
     10813        87  PMPE      C217           37.5078826616      -22.6667431658        7.9049600972  MEMB      87              0.0000000000
     10814        87  PMPE      H17R           36.5243376980      -23.4977073345        8.1215242624  MEMB      87              0.0000000000
     10815        87  PMPE      H17S           38.1955061325      -22.0763501391        8.5331969202  MEMB      87              0.0000000000
     10816        87  PMPE      C210           37.5985510121      -23.3334094997        6.8789261464  MEMB      87              0.0000000000
     10817        87  PMPE      H10R           37.0051930946      -24.3428716707        6.8045878336  MEMB      87              0.0000000000
     10818        87  PMPE      C211           38.5809821538      -22.9805489820        6.0664508547  MEMB      87              0.0000000000
     10819        87  PMPE      H11R           39.1793573380      -23.8206930636        6.0025863689  MEMB      87              0.0000000000
     10820        87  PMPE      H11S           39.0298971269      -22.0645174477        6.4881483707  MEMB      87              0.0000000000
     10821        87  PMPE      C212           38.1433608296      -22.7196664140        4.7382751332  MEMB      87              0.0000000000
     10822        87  PMPE      H12R           37.7895842933      -21.7460795843        5.2099681661  MEMB      87              0.0000000000
     10823        87  PMPE      H12S           37.3616035464      -23.4202728325        4.3309001980  MEMB      87              0.0000000000
     10824        87  PMPE      C213           39.0051604254      -22.1144853171        3.7180335960  MEMB      87              0.0000000000
     10825        87  PMPE      H13R           39.7511511924      -22.8699382550        3.8627257426  MEMB      87              0.0000000000
     10826        87  PMPE      H13S           39.3348173302      -21.1123120265        4.0222526496  MEMB      87              0.0000000000
     10827        87  PMPE      C214           38.4759222346      -21.9211675558        2.3027550431  MEMB      87              0.0000000000
     10828        87  PMPE      H14R           37.9340989368      -20.9737613843        2.1985406387  MEMB      87              0.0000000000
     10829        87  PMPE      H14S           37.8798539779      -22.7924411761        1.9586407105  MEMB      87              0.0000000000
     10830        87  PMPE      C215           39.5159609556      -21.8655070919        1.2821455863  MEMB      87              0.0000000000
     10831        87  PMPE      H15R           39.1551070831      -21.8656465863        0.2684157807  MEMB      87              0.0000000000
     10832        87  PMPE      H15S           39.7346509108      -22.9347812493        1.4056398004  MEMB      87              0.0000000000
     10833        87  PMPE      C216           40.5944801149      -20.7557895029        1.3782525378  MEMB      87              0.0000000000
     10834        87  PMPE      H16R           40.8960413283      -20.4964746235        0.3549771356  MEMB      87              0.0000000000
     10835        87  PMPE      H16S           40.1510326018      -19.9213493246        1.9064832211  MEMB      87              0.0000000000
     10836        87  PMPE      H16T           41.5493021344      -20.9443875145        1.9176960268  MEMB      87              0.0000000000
     10837        87  PMPE      C33            41.4120594916      -20.0987458584       10.6657176319  MEMB      87              0.0000000000
     10838        87  PMPE      H3X            42.4156437269      -19.6947939810       10.8541315615  MEMB      87              0.0000000000
     10839        87  PMPE      H3Y            41.0282507045      -19.1448937115       10.6638178804  MEMB      87              0.0000000000
     10840        87  PMPE      C34            40.8701352289      -20.8293564457        9.3605844448  MEMB      87              0.0000000000
     10841        87  PMPE      H4X            39.8760674325      -20.6531125497        9.2471574218  MEMB      87              0.0000000000
     10842        87  PMPE      H4Y            41.4265434334      -21.6773158067        9.5221702645  MEMB      87              0.0000000000
     10843        87  PMPE      C35            40.6965688917      -20.3276250522        7.9578261122  MEMB      87              0.0000000000
     10844        87  PMPE      H5X            40.7444351314      -21.0449191026        7.1925546030  MEMB      87              0.0000000000
     10845        87  PMPE      H5Y            41.6787471478      -20.5471408192        8.0608569605  MEMB      87              0.0000000000
     10846        87  PMPE      C36            40.3946733813      -18.2086291203        6.8916574301  MEMB      87              0.0000000000
     10847        87  PMPE      H6X            40.9332246138      -17.1622508414        7.3579946874  MEMB      87              0.0000000000
     10848        87  PMPE      H6Y            39.8794026997      -18.6767487631        7.4009127626  MEMB      87              0.0000000000
     10849        87  PMPE      C37            41.4820011605      -18.1193952751        5.2969162413  MEMB      87              0.0000000000
     10850        87  PMPE      H7X            41.9538502451      -19.1860500618        4.9495334776  MEMB      87              0.0000000000
     10851        87  PMPE      H7Y            42.4710212799      -17.6275308271        5.2624469444  MEMB      87              0.0000000000
     10852        87  PMPE      C38            40.5652365307      -18.2949122574        4.4820934542  MEMB      87              0.0000000000
     10853        87  PMPE      H8X            40.0125996748      -19.2423534272        4.6611020911  MEMB      87              0.0000000000
     10854        87  PMPE      H8Y            41.1539487948      -18.3544861762        3.5661650561  MEMB      87              0.0000000000
     10855        87  PMPE      C39            39.9338806510      -17.0855962744        4.9998491419  MEMB      87              0.0000000000
     10856        87  PMPE      H9X            40.6334267245      -16.2118336077        4.9907071681  MEMB      87              0.0000000000
     10857        87  PMPE      H9Y            39.2724808991      -16.9849006653        5.9511052250  MEMB      87              0.0000000000
     10858        87  PMPE      C310           38.8523449630      -17.0255406770        4.1277683729  MEMB      87              0.0000000000
     10859        87  PMPE      H10X           38.4484910904      -16.3288878806        4.8057659903  MEMB      87              0.0000000000
     10860        87  PMPE      H10Y           38.0593485428      -17.7379411349        4.2433847797  MEMB      87              0.0000000000
     10861        87  PMPE      C311           39.2836730573      -16.5799331421        2.7577358360  MEMB      87              0.0000000000
     10862        87  PMPE      H11X           40.0714967020      -17.2333969752        2.4707669567  MEMB      87              0.0000000000
     10863        87  PMPE      H11Y           39.6812849091      -15.5181720406        2.7662245137  MEMB      87              0.0000000000
     10864        87  PMPE      C312           38.2604779619      -16.7747666582        1.6873755346  MEMB      87              0.0000000000
     10865        87  PMPE      H12X           38.5586611807      -16.5771115278        0.7158715817  MEMB      87              0.0000000000
     10866        87  PMPE      H12Y           37.6116326074      -16.0757976197        1.9833026941  MEMB      87              0.0000000000
     10867        87  PMPE      C313           37.5119852086      -17.9100560927        1.3350486629  MEMB      87              0.0000000000
     10868        87  PMPE      H13X           37.5190618983      -17.9593107896        2.3320530917  MEMB      87              0.0000000000
     10869        87  PMPE      H13Y           38.1561793400      -18.6898101538        1.0287418616  MEMB      87              0.0000000000
     10870        87  PMPE      C314           36.2402435379      -17.7749447451        0.5369999473  MEMB      87              0.0000000000
     10871        87  PMPE      H14X           36.5176411544      -17.3204212526       -0.3844026841  MEMB      87              0.0000000000
     10872        87  PMPE      H14Y           35.4343207331      -17.1760869870        1.0329556454  MEMB      87              0.0000000000
     10873        87  PMPE      C315           35.8971220707      -19.1694580554        0.0520193582  MEMB      87              0.0000000000
     10874        87  PMPE      H15X           35.5287512616      -18.9589078984        1.0318312710  MEMB      87              0.0000000000
     10875        87  PMPE      H15Y           36.5568922533      -19.9817475467       -0.0324739291  MEMB      87              0.0000000000
     10876        87  PMPE      C316           34.7327110489      -19.8954193428       -0.3090991446  MEMB      87              0.0000000000
     10877        87  PMPE      H16X           34.1126216738      -19.2477723234        0.1441607970  MEMB      87              0.0000000000
     10878        87  PMPE      H16Y           34.2101008837      -20.7896104947       -0.1876896100  MEMB      87              0.0000000000
     10879        87  PMPE      H16Z           34.7380730720      -19.8190910362       -1.3404941826  MEMB      87              0.0000000000
     10880        88  PYPG      C13           -36.7727778319       16.8050044179       18.9124789830  MEMB      88              0.0000000000
     10881        88  PYPG      H13A          -36.9514258745       16.7837243406       17.8212398133  MEMB      88              0.0000000000
     10882        88  PYPG      H13B          -37.2006558995       17.7693272613       19.2272725860  MEMB      88              0.0000000000
     10883        88  PYPG      OC3           -35.3828414739       16.8843125862       19.2089798783  MEMB      88              0.0000000000
     10884        88  PYPG      HO3           -35.0633510423       16.0055711258       19.0157750466  MEMB      88              0.0000000000
     10885        88  PYPG      C12           -37.4736962914       15.5672671820       19.5615740769  MEMB      88              0.0000000000
     10886        88  PYPG      H12A          -37.4741098370       15.6858428071       20.6673956771  MEMB      88              0.0000000000
     10887        88  PYPG      OC2           -36.7974613303       14.3316600481       19.2686651054  MEMB      88              0.0000000000
     10888        88  PYPG      HO2           -37.3945641451       13.6361426058       19.5801126610  MEMB      88              0.0000000000
     10889        88  PYPG      C11           -38.9497156066       15.4380094447       19.1183210682  MEMB      88              0.0000000000
     10890        88  PYPG      H11A          -39.3019738099       14.4729413676       19.5346124995  MEMB      88              0.0000000000
     10891        88  PYPG      H11B          -39.0313479097       15.4032454810       18.0061509420  MEMB      88              0.0000000000
     10892        88  PYPG      P             -41.0199727877       16.9715364666       18.7881486275  MEMB      88              0.0000000000
     10893        88  PYPG      O13           -40.5550724475       17.7736631419       17.6473711773  MEMB      88              0.0000000000
     10894        88  PYPG      O14           -42.0434012946       17.5920886049       19.6499494078  MEMB      88              0.0000000000
     10895        88  PYPG      O11           -41.5565386104       15.6328989202       18.1806784439  MEMB      88              0.0000000000
     10896        88  PYPG      O12           -39.7650654302       16.4793797684       19.6502366085  MEMB      88              0.0000000000
     10897        88  PYPG      C1            -42.2635532524       14.6729555631       18.9582204774  MEMB      88              0.0000000000
     10898        88  PYPG      HA            -43.1711410068       15.1232954562       19.4181793518  MEMB      88              0.0000000000
     10899        88  PYPG      HB            -41.6055745922       14.2727713155       19.7438369069  MEMB      88              0.0000000000
     10900        88  PYPG      C2            -42.5601061550       13.3846933155       18.1784856946  MEMB      88              0.0000000000
     10901        88  PYPG      HS            -42.4999958495       12.5314105396       18.8905977339  MEMB      88              0.0000000000
     10902        88  PYPG      O21           -41.6168459946       13.2526878337       17.1289533221  MEMB      88              0.0000000000
     10903        88  PYPG      C21           -40.4750946572       12.7450206024       17.4589832573  MEMB      88              0.0000000000
     10904        88  PYPG      O22           -40.1443614650       12.2051825840       18.5101921223  MEMB      88              0.0000000000
     10905        88  PYPG      C22           -39.5527658545       12.7710662726       16.2886517033  MEMB      88              0.0000000000
     10906        88  PYPG      H2R           -38.5467614101       12.8571891987       16.7433658342  MEMB      88              0.0000000000
     10907        88  PYPG      H2S           -39.7568762007       13.6449662845       15.6470101434  MEMB      88              0.0000000000
     10908        88  PYPG      C3            -43.9024257943       13.2858250400       17.5420543529  MEMB      88              0.0000000000
     10909        88  PYPG      HX            -44.6823307721       13.5669992040       18.2450418203  MEMB      88              0.0000000000
     10910        88  PYPG      HY            -44.3495442370       12.3977969717       17.5616996319  MEMB      88              0.0000000000
     10911        88  PYPG      O31           -44.0651207249       13.9641916597       16.3055550216  MEMB      88              0.0000000000
     10912        88  PYPG      C31           -43.7588888240       13.5768446103       15.2270697758  MEMB      88              0.0000000000
     10913        88  PYPG      O32           -42.9865596037       12.6695590552       15.0321818683  MEMB      88              0.0000000000
     10914        88  PYPG      C32           -44.1583839621       14.5232124030       14.2041299017  MEMB      88              0.0000000000
     10915        88  PYPG      H2X           -44.9101528093       14.3233717648       13.4440007924  MEMB      88              0.0000000000
     10916        88  PYPG      H2Y           -44.5374163647       15.4133960719       14.7893471649  MEMB      88              0.0000000000
     10917        88  PYPG      C23           -39.8580081870       11.5733027387       15.4299816939  MEMB      88              0.0000000000
     10918        88  PYPG      H3R           -40.9094271092       11.6870725665       15.0372913317  MEMB      88              0.0000000000
     10919        88  PYPG      H3S           -39.8690097203       10.5649301650       15.9315184127  MEMB      88              0.0000000000
     10920        88  PYPG      C24           -38.7850665692       11.4807959149       14.3209490923  MEMB      88              0.0000000000
     10921        88  PYPG      H4R           -37.9171892912       10.8889720219       14.6352934375  MEMB      88              0.0000000000
     10922        88  PYPG      H4S           -38.5650248647       12.3299316576       13.6874388588  MEMB      88              0.0000000000
     10923        88  PYPG      C25           -39.2119591654       10.7843372239       13.1549521201  MEMB      88              0.0000000000
     10924        88  PYPG      H5R           -39.8026852374       10.3136026913       13.9395955848  MEMB      88              0.0000000000
     10925        88  PYPG      H5S           -38.7046710558        9.8776885638       12.7356890455  MEMB      88              0.0000000000
     10926        88  PYPG      C26           -40.1557482403       11.5454138211       12.1377336173  MEMB      88              0.0000000000
     10927        88  PYPG      H6R           -39.3872738237       12.0219549377       11.5216079702  MEMB      88              0.0000000000
     10928        88  PYPG      H6S           -41.0074267390       12.1243234550       12.4645836229  MEMB      88              0.0000000000
     10929        88  PYPG      C27           -40.9898657289       10.7216466901       11.2185109744  MEMB      88              0.0000000000
     10930        88  PYPG      H7R           -41.7092272940        9.9636682709       11.3730796311  MEMB      88              0.0000000000
     10931        88  PYPG      H7S           -40.0433440937        9.9958273514       11.4154354684  MEMB      88              0.0000000000
     10932        88  PYPG      C28           -42.1082941239       11.0948459986       10.1275350388  MEMB      88              0.0000000000
     10933        88  PYPG      H8R           -41.4110424083       11.9309273154        9.7247302045  MEMB      88              0.0000000000
     10934        88  PYPG      H8S           -42.8129046465       11.5526923551       10.6904928934  MEMB      88              0.0000000000
     10935        88  PYPG      C29           -42.9081127220       10.0638313782        9.1387807292  MEMB      88              0.0000000000
     10936        88  PYPG      H9R           -42.4751749144        9.0082635924        9.0756717666  MEMB      88              0.0000000000
     10937        88  PYPG      C210          -43.3068333163       10.5646329209        7.9278881695  MEMB      88              0.0000000000
     10938        88  PYPG      H10R          -42.8900408383        9.8757490096        7.1275286866  MEMB      88              0.0000000000
     10939        88  PYPG      C211          -43.0964638216       12.1041265695        7.5412921273  MEMB      88              0.0000000000
     10940        88  PYPG      H11R          -42.2245806418       12.6732418517        7.9978762777  MEMB      88              0.0000000000
     10941        88  PYPG      H11S          -44.0396236328       12.4795156058        7.8074569121  MEMB      88              0.0000000000
     10942        88  PYPG      C212          -42.7718522925       12.9498502354        6.1303895462  MEMB      88              0.0000000000
     10943        88  PYPG      H12R          -43.2846171239       13.5034985056        5.4765932428  MEMB      88              0.0000000000
     10944        88  PYPG      H12S          -43.5228263974       12.3467688835        5.7435920309  MEMB      88              0.0000000000
     10945        88  PYPG      C213          -41.3400738541       13.1435650916        5.1668747936  MEMB      88              0.0000000000
     10946        88  PYPG      H13R          -40.8436344411       12.1267456264        4.5603131978  MEMB      88              0.0000000000
     10947        88  PYPG      H13S          -40.7561822014       13.2547590129        6.1719466574  MEMB      88              0.0000000000
     10948        88  PYPG      C214          -40.8776745816       12.7369825779        3.6588610629  MEMB      88              0.0000000000
     10949        88  PYPG      H14R          -41.2555776632       13.7368244767        3.6526459100  MEMB      88              0.0000000000
     10950        88  PYPG      H14S          -39.7400198278       12.6464453012        3.4692401058  MEMB      88              0.0000000000
     10951        88  PYPG      C215          -41.3752934430       11.4839023460        2.6674652008  MEMB      88              0.0000000000
     10952        88  PYPG      H15R          -41.2395615842       11.8735880633        1.7383405379  MEMB      88              0.0000000000
     10953        88  PYPG      H15S          -42.5147035066       11.2843447784        2.6248998803  MEMB      88              0.0000000000
     10954        88  PYPG      C216          -40.7124631654        9.9727089993        2.9045050369  MEMB      88              0.0000000000
     10955        88  PYPG      H16R          -39.6624674138        9.9683798023        3.0801964329  MEMB      88              0.0000000000
     10956        88  PYPG      H16S          -41.3737787305        9.3301521981        2.3325995956  MEMB      88              0.0000000000
     10957        88  PYPG      H16T          -40.8620615909        9.3800123301        3.9256860459  MEMB      88              0.0000000000
     10958        88  PYPG      C33           -42.7947642562       14.7054185951       13.4879236861  MEMB      88              0.0000000000
     10959        88  PYPG      H3X           -42.9488571240       15.1756377782       12.5650761446  MEMB      88              0.0000000000
     10960        88  PYPG      H3Y           -42.4636728917       13.9773383005       12.7992413306  MEMB      88              0.0000000000
     10961        88  PYPG      C34           -41.8212743832       15.6838814252       14.2333538223  MEMB      88              0.0000000000
     10962        88  PYPG      H4X           -41.8664944083       15.2753871540       15.2074674747  MEMB      88              0.0000000000
     10963        88  PYPG      H4Y           -42.0774513524       16.6792820985       14.5519124023  MEMB      88              0.0000000000
     10964        88  PYPG      C35           -40.5138078271       16.0418331075       13.6282643354  MEMB      88              0.0000000000
     10965        88  PYPG      H5X           -40.0383886270       15.0741318234       13.5440968761  MEMB      88              0.0000000000
     10966        88  PYPG      H5Y           -40.0320084482       16.6547332730       14.4174806845  MEMB      88              0.0000000000
     10967        88  PYPG      C36           -40.4503429615       16.7375475157       12.2875237951  MEMB      88              0.0000000000
     10968        88  PYPG      H6X           -41.1410522040       17.6183700520       12.3272109887  MEMB      88              0.0000000000
     10969        88  PYPG      H6Y           -40.7999731165       16.0399024701       11.4967574444  MEMB      88              0.0000000000
     10970        88  PYPG      C37           -39.0433946475       17.1495046810       11.9177742464  MEMB      88              0.0000000000
     10971        88  PYPG      H7X           -39.0768156574       17.9824723721       11.1848958027  MEMB      88              0.0000000000
     10972        88  PYPG      H7Y           -38.6386155976       17.4993359174       12.8923340430  MEMB      88              0.0000000000
     10973        88  PYPG      C38           -38.1339300035       15.9920170914       11.5073729656  MEMB      88              0.0000000000
     10974        88  PYPG      H8X           -38.1527245001       15.3130058897       12.3963714275  MEMB      88              0.0000000000
     10975        88  PYPG      H8Y           -37.1047797248       16.3970389898       11.3629062452  MEMB      88              0.0000000000
     10976        88  PYPG      C39           -38.5539985236       15.2067118873       10.2588833304  MEMB      88              0.0000000000
     10977        88  PYPG      H9X           -38.4997218917       15.8837574258        9.3816219307  MEMB      88              0.0000000000
     10978        88  PYPG      H9Y           -39.6124687086       14.9129060893       10.3702227322  MEMB      88              0.0000000000
     10979        88  PYPG      C310          -37.6523688176       13.9717840755       10.1614119576  MEMB      88              0.0000000000
     10980        88  PYPG      H10X          -37.7475523168       13.4502106038       11.1424652114  MEMB      88              0.0000000000
     10981        88  PYPG      H10Y          -36.6309423585       14.3885969203       10.0335667164  MEMB      88              0.0000000000
     10982        88  PYPG      C311          -37.9445950433       12.9500035818        9.0763500330  MEMB      88              0.0000000000
     10983        88  PYPG      H11X          -38.9443520554       12.5376262621        9.2956063169  MEMB      88              0.0000000000
     10984        88  PYPG      H11Y          -37.3035410514       12.0483125275        9.1791417726  MEMB      88              0.0000000000
     10985        88  PYPG      C312          -37.8723987138       13.5480991210        7.6794865088  MEMB      88              0.0000000000
     10986        88  PYPG      H12X          -38.4882824451       12.9343247571        7.0065253745  MEMB      88              0.0000000000
     10987        88  PYPG      H12Y          -38.1891034189       14.6094523782        7.6310677911  MEMB      88              0.0000000000
     10988        88  PYPG      C313          -36.5663136250       13.3784717042        7.0389528357  MEMB      88              0.0000000000
     10989        88  PYPG      H13X          -35.7267440048       13.8520448238        7.6063812282  MEMB      88              0.0000000000
     10990        88  PYPG      H13Y          -36.3363271195       12.2720837973        6.9109432115  MEMB      88              0.0000000000
     10991        88  PYPG      C314          -36.4838073473       14.0552115970        5.6599603562  MEMB      88              0.0000000000
     10992        88  PYPG      H14X          -37.0020751661       15.0037844502        5.8171049035  MEMB      88              0.0000000000
     10993        88  PYPG      H14Y          -35.4279555986       14.3479918934        5.3921696400  MEMB      88              0.0000000000
     10994        88  PYPG      C315          -37.1636871285       13.2809401708        4.5017074874  MEMB      88              0.0000000000
     10995        88  PYPG      H15X          -36.7588567605       12.3749543051        4.0570331860  MEMB      88              0.0000000000
     10996        88  PYPG      H15Y          -38.0947688202       12.8417534403        4.7712069404  MEMB      88              0.0000000000
     10997        88  PYPG      C316          -37.2010400416       14.1231486731        3.2607243054  MEMB      88              0.0000000000
     10998        88  PYPG      H16X          -36.1800546779       14.5318457960        3.0881397736  MEMB      88              0.0000000000
     10999        88  PYPG      H16Y          -37.9857985534       14.8686501224        3.4580966122  MEMB      88              0.0000000000
     11000        88  PYPG      H16Z          -37.4576527837       13.5650536430        2.3418055391  MEMB      88              0.0000000000
     11001        89  PMPG      C13           -28.9097215219      -30.2163491667       21.4536019395  MEMB      89              0.0000000000
     11002        89  PMPG      H13A          -29.3766518448      -31.2196913862       21.4584922557  MEMB      89              0.0000000000
     11003        89  PMPG      H13B          -28.3513567511      -30.1591918789       22.4126078608  MEMB      89              0.0000000000
     11004        89  PMPG      OC3           -30.0604490827      -29.3567904563       21.5151946838  MEMB      89              0.0000000000
     11005        89  PMPG      HO3           -29.7967257989      -28.4452585627       21.6650514623  MEMB      89              0.0000000000
     11006        89  PMPG      C12           -27.9093327552      -29.9885170027       20.2361250934  MEMB      89              0.0000000000
     11007        89  PMPG      H12A          -26.9676216017      -30.5593660576       20.4277656136  MEMB      89              0.0000000000
     11008        89  PMPG      OC2           -27.5501764493      -28.6083387800       20.0761650032  MEMB      89              0.0000000000
     11009        89  PMPG      HO2           -27.0953704659      -28.5965341117       19.2202396187  MEMB      89              0.0000000000
     11010        89  PMPG      C11           -28.4149743198      -30.4798377787       18.8745384324  MEMB      89              0.0000000000
     11011        89  PMPG      H11A          -27.6725443919      -30.2503157288       18.0654611351  MEMB      89              0.0000000000
     11012        89  PMPG      H11B          -29.3282100182      -29.8759147889       18.6885257921  MEMB      89              0.0000000000
     11013        89  PMPG      P             -28.7470042513      -32.5450768724       17.5130652430  MEMB      89              0.0000000000
     11014        89  PMPG      O13           -30.0315525794      -32.2554608497       16.8771477209  MEMB      89              0.0000000000
     11015        89  PMPG      O14           -28.1968178366      -33.8559200735       17.6532534025  MEMB      89              0.0000000000
     11016        89  PMPG      O11           -27.5728618344      -32.0333508324       16.6940947502  MEMB      89              0.0000000000
     11017        89  PMPG      O12           -28.6866772845      -31.8769980068       18.9400941330  MEMB      89              0.0000000000
     11018        89  PMPG      C1            -26.2807372705      -32.5628338122       17.0904980675  MEMB      89              0.0000000000
     11019        89  PMPG      HA            -26.2056692874      -33.6810250792       17.3090730501  MEMB      89              0.0000000000
     11020        89  PMPG      HB            -25.8710679837      -31.9613244660       17.9178191360  MEMB      89              0.0000000000
     11021        89  PMPG      C2            -25.3373995456      -32.4034422519       15.9540963533  MEMB      89              0.0000000000
     11022        89  PMPG      HS            -24.2910863901      -32.4092972449       16.3789572688  MEMB      89              0.0000000000
     11023        89  PMPG      O21           -25.6009529741      -31.2318804872       15.1624781877  MEMB      89              0.0000000000
     11024        89  PMPG      C21           -25.3580739164      -30.0777764828       15.7068464436  MEMB      89              0.0000000000
     11025        89  PMPG      O22           -24.7406447829      -29.9028779051       16.7475166725  MEMB      89              0.0000000000
     11026        89  PMPG      C22           -25.9231524145      -29.0114005626       14.7166239440  MEMB      89              0.0000000000
     11027        89  PMPG      H2R           -25.3301933870      -29.0366248592       13.7830259446  MEMB      89              0.0000000000
     11028        89  PMPG      H2S           -25.7121397009      -27.9917020222       15.0980667009  MEMB      89              0.0000000000
     11029        89  PMPG      C3            -25.4832006655      -33.6257377451       15.0055770096  MEMB      89              0.0000000000
     11030        89  PMPG      HX            -25.3353209265      -34.5676199552       15.5626761378  MEMB      89              0.0000000000
     11031        89  PMPG      HY            -24.7538794412      -33.6533182825       14.2044115207  MEMB      89              0.0000000000
     11032        89  PMPG      O31           -26.7786661053      -33.6319642794       14.4423296826  MEMB      89              0.0000000000
     11033        89  PMPG      C31           -26.9756552567      -33.3868828942       13.1806292058  MEMB      89              0.0000000000
     11034        89  PMPG      O32           -26.1408747700      -33.2153236651       12.3157671740  MEMB      89              0.0000000000
     11035        89  PMPG      C32           -28.4601847257      -33.3505770031       12.8929684004  MEMB      89              0.0000000000
     11036        89  PMPG      H2X           -28.9700213418      -32.8051766748       13.7201738943  MEMB      89              0.0000000000
     11037        89  PMPG      H2Y           -28.8111123011      -34.4038961445       12.8624791294  MEMB      89              0.0000000000
     11038        89  PMPG      C23           -27.3918233377      -29.4015278251       14.3469396958  MEMB      89              0.0000000000
     11039        89  PMPG      H3R           -27.9709621761      -29.5885271207       15.2779087986  MEMB      89              0.0000000000
     11040        89  PMPG      H3S           -27.3776075217      -30.3643370324       13.7593135430  MEMB      89              0.0000000000
     11041        89  PMPG      C24           -28.2358809976      -28.3797194362       13.5733082118  MEMB      89              0.0000000000
     11042        89  PMPG      H4R           -28.3514938031      -27.4099533779       14.1044083356  MEMB      89              0.0000000000
     11043        89  PMPG      H4S           -29.2279200629      -28.8483091562       13.3459323443  MEMB      89              0.0000000000
     11044        89  PMPG      C25           -27.6544615313      -28.0751520674       12.2201941485  MEMB      89              0.0000000000
     11045        89  PMPG      H5R           -27.5198909397      -29.0827338356       11.7654346465  MEMB      89              0.0000000000
     11046        89  PMPG      H5S           -26.6632300654      -27.6063218236       12.3791501306  MEMB      89              0.0000000000
     11047        89  PMPG      C26           -28.5518938259      -27.1883982484       11.3473258424  MEMB      89              0.0000000000
     11048        89  PMPG      H6R           -28.5619780329      -26.1281186944       11.6828566248  MEMB      89              0.0000000000
     11049        89  PMPG      H6S           -29.5930324998      -27.5327322049       11.4317236233  MEMB      89              0.0000000000
     11050        89  PMPG      C27           -28.0375254182      -27.2043235089        9.9175226856  MEMB      89              0.0000000000
     11051        89  PMPG      H7R           -26.9376720054      -27.0468833248       10.0609848360  MEMB      89              0.0000000000
     11052        89  PMPG      H7S           -28.4423294852      -26.3564834181        9.3239730043  MEMB      89              0.0000000000
     11053        89  PMPG      C28           -28.2906939220      -28.4996291226        9.1513617601  MEMB      89              0.0000000000
     11054        89  PMPG      H8R           -29.3729624733      -28.6990977110        9.0012041550  MEMB      89              0.0000000000
     11055        89  PMPG      H8S           -27.9102030101      -29.3715602277        9.7194905732  MEMB      89              0.0000000000
     11056        89  PMPG      C29           -27.5123725467      -28.3992640226        7.8537043856  MEMB      89              0.0000000000
     11057        89  PMPG      H9R           -26.4152795712      -28.4366857306        7.9251369851  MEMB      89              0.0000000000
     11058        89  PMPG      C217          -28.0842036008      -29.2234788369        6.7350598163  MEMB      89              0.0000000000
     11059        89  PMPG      H17R          -27.3265775115      -29.6532657241        6.1089804989  MEMB      89              0.0000000000
     11060        89  PMPG      H17S          -29.0260902398      -29.6815437610        7.0125784903  MEMB      89              0.0000000000
     11061        89  PMPG      C210          -28.0759108241      -27.6881160907        6.6494383675  MEMB      89              0.0000000000
     11062        89  PMPG      H10R          -27.3607639241      -27.2928895879        5.8949761489  MEMB      89              0.0000000000
     11063        89  PMPG      C211          -29.5129685812      -27.1954448678        6.5785649742  MEMB      89              0.0000000000
     11064        89  PMPG      H11R          -30.1155982982      -27.6402043102        7.3957891054  MEMB      89              0.0000000000
     11065        89  PMPG      H11S          -29.5435673567      -26.0894778848        6.6779121292  MEMB      89              0.0000000000
     11066        89  PMPG      C212          -30.1253478479      -27.5273366707        5.2228193057  MEMB      89              0.0000000000
     11067        89  PMPG      H12R          -31.0314758619      -26.9415814576        5.0384130159  MEMB      89              0.0000000000
     11068        89  PMPG      H12S          -30.4039773493      -28.5860306195        5.0983215520  MEMB      89              0.0000000000
     11069        89  PMPG      C213          -29.2202045179      -27.3103920090        4.0804149514  MEMB      89              0.0000000000
     11070        89  PMPG      H13R          -28.1919754521      -27.6993394754        4.1700477148  MEMB      89              0.0000000000
     11071        89  PMPG      H13S          -29.1986514034      -26.2796433484        4.0843579591  MEMB      89              0.0000000000
     11072        89  PMPG      C214          -29.9204897917      -27.8810976841        2.9409827169  MEMB      89              0.0000000000
     11073        89  PMPG      H14R          -30.8400025957      -27.3267859379        2.6636514982  MEMB      89              0.0000000000
     11074        89  PMPG      H14S          -30.1538199647      -28.9534447376        2.9474682029  MEMB      89              0.0000000000
     11075        89  PMPG      C215          -29.0299202565      -28.4392979364        2.0001352931  MEMB      89              0.0000000000
     11076        89  PMPG      H15R          -27.9100943495      -28.4541179377        1.9457687388  MEMB      89              0.0000000000
     11077        89  PMPG      H15S          -28.2251736612      -27.3635446344        1.8220306030  MEMB      89              0.0000000000
     11078        89  PMPG      C216          -30.0329827054      -29.3324859455        0.0789608064  MEMB      89              0.0000000000
     11079        89  PMPG      H16R          -30.7430568286      -28.5494377228       -0.6027143841  MEMB      89              0.0000000000
     11080        89  PMPG      H16S          -30.3782732485      -29.7651875983        0.7202261026  MEMB      89              0.0000000000
     11081        89  PMPG      H16T          -29.2462789481      -29.2406494136       -0.7822937312  MEMB      89              0.0000000000
     11082        89  PMPG      C33           -28.6388523155      -32.6342176406       11.5311230310  MEMB      89              0.0000000000
     11083        89  PMPG      H3X           -28.1095105668      -33.1946153632       10.7229996958  MEMB      89              0.0000000000
     11084        89  PMPG      H3Y           -28.2200218441      -31.6016266854       11.5991796831  MEMB      89              0.0000000000
     11085        89  PMPG      C34           -30.0834039695      -32.4651161812       11.0381286385  MEMB      89              0.0000000000
     11086        89  PMPG      H4X           -30.6511546245      -31.8566291871       11.7743211591  MEMB      89              0.0000000000
     11087        89  PMPG      H4Y           -30.5747607391      -33.4467264019       10.9242852943  MEMB      89              0.0000000000
     11088        89  PMPG      C35           -30.1705289556      -31.8760189473        9.6280507578  MEMB      89              0.0000000000
     11089        89  PMPG      H5X           -29.4220641718      -32.3807776135        8.9688113857  MEMB      89              0.0000000000
     11090        89  PMPG      H5Y           -29.9273327805      -30.7964598710        9.6493361238  MEMB      89              0.0000000000
     11091        89  PMPG      C36           -31.5141120340      -31.9980305691        8.9157260544  MEMB      89              0.0000000000
     11092        89  PMPG      H6X           -32.1811082399      -31.1792369163        9.2738452574  MEMB      89              0.0000000000
     11093        89  PMPG      H6Y           -32.0761049495      -32.9342082818        9.1279757238  MEMB      89              0.0000000000
     11094        89  PMPG      C37           -31.1567184907      -31.8968385989        7.4315439168  MEMB      89              0.0000000000
     11095        89  PMPG      H7X           -30.5750705884      -31.0270751020        7.1175669418  MEMB      89              0.0000000000
     11096        89  PMPG      H7Y           -31.9796995129      -31.6673261835        6.9120072322  MEMB      89              0.0000000000
     11097        89  PMPG      C38           -30.7581721804      -33.1817055199        6.7225107501  MEMB      89              0.0000000000
     11098        89  PMPG      H8X           -31.5240792533      -33.9609614836        6.8833037830  MEMB      89              0.0000000000
     11099        89  PMPG      H8Y           -29.8064922479      -33.5145112821        7.1579199818  MEMB      89              0.0000000000
     11100        89  PMPG      C39           -30.6684815219      -33.0697043984        5.2154531221  MEMB      89              0.0000000000
     11101        89  PMPG      H9X           -31.6803027549      -32.9021500985        4.7893485385  MEMB      89              0.0000000000
     11102        89  PMPG      H9Y           -30.2678895123      -34.0107722154        4.7720705179  MEMB      89              0.0000000000
     11103        89  PMPG      C310          -29.7052008448      -32.0208715088        4.7997670084  MEMB      89              0.0000000000
     11104        89  PMPG      H10X          -28.6955566964      -32.3651742579        5.1351005485  MEMB      89              0.0000000000
     11105        89  PMPG      H10Y          -29.9672428618      -31.0024255067        5.0896922209  MEMB      89              0.0000000000
     11106        89  PMPG      C311          -29.8078572328      -31.8716094319        3.3912650176  MEMB      89              0.0000000000
     11107        89  PMPG      H11X          -30.5787076862      -31.4097413102        2.7893891875  MEMB      89              0.0000000000
     11108        89  PMPG      H11Y          -30.1032002482      -32.9558431569        3.0666191778  MEMB      89              0.0000000000
     11109        89  PMPG      C312          -28.5081831616      -31.0882098996        2.9000206913  MEMB      89              0.0000000000
     11110        89  PMPG      H12X          -28.1330545477      -30.1794080136        3.0328502230  MEMB      89              0.0000000000
     11111        89  PMPG      H12Y          -28.7580052551      -30.7925972903        1.6630984089  MEMB      89              0.0000000000
     11112        89  PMPG      C313          -27.0145985234      -31.8459820884        3.3653773846  MEMB      89              0.0000000000
     11113        89  PMPG      H13X          -27.1408160501      -33.0627679752        3.1651949024  MEMB      89              0.0000000000
     11114        89  PMPG      H13Y          -26.9467156320      -32.3881574921        4.2390779206  MEMB      89              0.0000000000
     11115        89  PMPG      C314          -25.4693934622      -31.2373137435        2.5894419174  MEMB      89              0.0000000000
     11116        89  PMPG      H14X          -25.2617451887      -31.3966270481        1.2173682372  MEMB      89              0.0000000000
     11117        89  PMPG      H14Y          -24.6308541993      -31.9085042750        3.1423152390  MEMB      89              0.0000000000
     11118        89  PMPG      C315          -25.2450554710      -29.9689938358        2.3960736377  MEMB      89              0.0000000000
     11119        89  PMPG      H15X          -25.4488993185      -30.1302176225        3.4774950960  MEMB      89              0.0000000000
     11120        89  PMPG      H15Y          -25.9852006180      -29.6544074415        1.6274742765  MEMB      89              0.0000000000
     11121        89  PMPG      C316          -23.8855209545      -29.9320455824        1.8066022497  MEMB      89              0.0000000000
     11122        89  PMPG      H16X          -23.2278114895      -30.6477227311        2.2862768537  MEMB      89              0.0000000000
     11123        89  PMPG      H16Y          -23.6554141474      -28.8941217184        2.0157321791  MEMB      89              0.0000000000
     11124        89  PMPG      H16Z          -23.8418220667      -30.2031482189        0.7250299148  MEMB      89              0.0000000000
     11125        90  PMPE      N             -32.8685947699       22.9996423054       18.2484774976  MEMB      90              0.0000000000
     11126        90  PMPE      HN1           -32.5585712294       24.0094761629       18.1942669510  MEMB      90              0.0000000000
     11127        90  PMPE      HN2           -31.9948348701       22.4764841663       17.9927076470  MEMB      90              0.0000000000
     11128        90  PMPE      HN3           -33.6004450060       22.9107375571       17.5218412101  MEMB      90              0.0000000000
     11129        90  PMPE      C12           -33.2238719195       22.7791083045       19.6262084400  MEMB      90              0.0000000000
     11130        90  PMPE      H12A          -32.4603371936       23.2745659604       20.2590493997  MEMB      90              0.0000000000
     11131        90  PMPE      H12B          -33.1570486027       21.6895128195       19.7423263803  MEMB      90              0.0000000000
     11132        90  PMPE      C11           -34.6010716421       23.3504296762       19.9086736870  MEMB      90              0.0000000000
     11133        90  PMPE      H11A          -34.4703222260       24.3566283411       20.3744328406  MEMB      90              0.0000000000
     11134        90  PMPE      H11B          -35.0159040122       22.6636319779       20.6788299183  MEMB      90              0.0000000000
     11135        90  PMPE      P             -36.9267924894       23.8848891350       18.9387794506  MEMB      90              0.0000000000
     11136        90  PMPE      O13           -36.9012739225       25.1142158194       19.7510711167  MEMB      90              0.0000000000
     11137        90  PMPE      O14           -37.6438898396       22.7203672067       19.4717730792  MEMB      90              0.0000000000
     11138        90  PMPE      O11           -37.4526643925       24.2499280208       17.4818281615  MEMB      90              0.0000000000
     11139        90  PMPE      O12           -35.4282794029       23.4065901771       18.7322972509  MEMB      90              0.0000000000
     11140        90  PMPE      C1            -36.8126794652       25.3648898182       16.8438452455  MEMB      90              0.0000000000
     11141        90  PMPE      HA            -35.7532028747       25.5048947107       17.1703107930  MEMB      90              0.0000000000
     11142        90  PMPE      HB            -37.3721454538       26.3153968344       17.0608454739  MEMB      90              0.0000000000
     11143        90  PMPE      C2            -36.7390105874       25.1661277159       15.3070285252  MEMB      90              0.0000000000
     11144        90  PMPE      HS            -37.7603604553       24.9813374638       14.9166949178  MEMB      90              0.0000000000
     11145        90  PMPE      O21           -35.8139223460       24.1072042463       14.9226536936  MEMB      90              0.0000000000
     11146        90  PMPE      C21           -36.3220750105       23.0159934187       14.3016946912  MEMB      90              0.0000000000
     11147        90  PMPE      O22           -37.3813989260       22.9626728770       13.7212345566  MEMB      90              0.0000000000
     11148        90  PMPE      C22           -35.4029778216       21.8185062863       14.4345707896  MEMB      90              0.0000000000
     11149        90  PMPE      H2R           -35.7215164379       20.8347825651       14.0495086957  MEMB      90              0.0000000000
     11150        90  PMPE      H2S           -34.8869790762       21.7807567541       15.3999844845  MEMB      90              0.0000000000
     11151        90  PMPE      C3            -36.2673280835       26.4596127785       14.6710421377  MEMB      90              0.0000000000
     11152        90  PMPE      HX            -35.2534371065       26.6949012602       15.0695208790  MEMB      90              0.0000000000
     11153        90  PMPE      HY            -36.8989031174       27.3874442143       14.8575559905  MEMB      90              0.0000000000
     11154        90  PMPE      O31           -36.0423538388       26.1768076395       13.2753803614  MEMB      90              0.0000000000
     11155        90  PMPE      C31           -37.1516497623       25.8710593811       12.6335590153  MEMB      90              0.0000000000
     11156        90  PMPE      O32           -38.2546441031       26.2778409805       13.0150158417  MEMB      90              0.0000000000
     11157        90  PMPE      C32           -36.6801425184       25.6483941827       11.1491120514  MEMB      90              0.0000000000
     11158        90  PMPE      H2X           -36.2977211535       24.7703391772       10.8026699442  MEMB      90              0.0000000000
     11159        90  PMPE      H2Y           -35.7687453626       26.4552597867       10.9425256506  MEMB      90              0.0000000000
     11160        90  PMPE      C23           -34.3222212753       22.0575390860       13.6153099938  MEMB      90              0.0000000000
     11161        90  PMPE      H3R           -33.4273438716       21.3574393641       13.8672486006  MEMB      90              0.0000000000
     11162        90  PMPE      H3S           -33.9652226327       23.1042698715       13.7679352532  MEMB      90              0.0000000000
     11163        90  PMPE      C24           -34.6268067489       22.2026740649       12.0920351140  MEMB      90              0.0000000000
     11164        90  PMPE      H4R           -33.7657600932       22.1919479151       11.4165953661  MEMB      90              0.0000000000
     11165        90  PMPE      H4S           -35.0548088373       23.1649019319       11.8144697280  MEMB      90              0.0000000000
     11166        90  PMPE      C25           -34.7822023377       20.9648243781       11.3791705494  MEMB      90              0.0000000000
     11167        90  PMPE      H5R           -35.6659275876       20.6248900011       11.9098214082  MEMB      90              0.0000000000
     11168        90  PMPE      H5S           -33.8766204030       20.3101931166       11.4927171383  MEMB      90              0.0000000000
     11169        90  PMPE      C26           -35.1445344136       21.1553896951        9.9382314370  MEMB      90              0.0000000000
     11170        90  PMPE      H6R           -35.9675946767       21.8891763364        9.8160939298  MEMB      90              0.0000000000
     11171        90  PMPE      H6S           -35.3812948024       20.1228981033        9.6520468881  MEMB      90              0.0000000000
     11172        90  PMPE      C27           -34.1283978362       21.5866998322        8.9463585622  MEMB      90              0.0000000000
     11173        90  PMPE      H7R           -33.1408349476       21.1125051388        9.1159551187  MEMB      90              0.0000000000
     11174        90  PMPE      H7S           -34.1011513899       22.6622067023        9.0100675891  MEMB      90              0.0000000000
     11175        90  PMPE      C28           -34.6458926664       21.5184194740        7.5415964632  MEMB      90              0.0000000000
     11176        90  PMPE      H8R           -33.8288334216       21.6785417326        6.8586784446  MEMB      90              0.0000000000
     11177        90  PMPE      H8S           -35.4151773806       22.3170939133        7.3572384346  MEMB      90              0.0000000000
     11178        90  PMPE      C29           -34.9599310458       20.1286113692        7.1525911561  MEMB      90              0.0000000000
     11179        90  PMPE      H9R           -35.9028567589       19.7477510931        7.5117366704  MEMB      90              0.0000000000
     11180        90  PMPE      C217          -33.7822923483       19.2307099818        6.7457780091  MEMB      90              0.0000000000
     11181        90  PMPE      H17R          -33.9418828773       18.2212902683        7.1184365108  MEMB      90              0.0000000000
     11182        90  PMPE      H17S          -32.8439980600       19.7563486358        6.5973933535  MEMB      90              0.0000000000
     11183        90  PMPE      C210          -34.8081457524       19.7056588301        5.7353814302  MEMB      90              0.0000000000
     11184        90  PMPE      H10R          -35.4507840412       18.9064077862        5.3496796278  MEMB      90              0.0000000000
     11185        90  PMPE      C211          -34.3831042351       20.6899361071        4.6973876993  MEMB      90              0.0000000000
     11186        90  PMPE      H11R          -33.7508064500       20.0607493740        4.3018046526  MEMB      90              0.0000000000
     11187        90  PMPE      H11S          -33.6163394022       21.4292944507        4.9045127229  MEMB      90              0.0000000000
     11188        90  PMPE      C212          -35.4821889711       20.8834283877        3.6727373700  MEMB      90              0.0000000000
     11189        90  PMPE      H12R          -36.1003506165       19.9514722236        3.6836234330  MEMB      90              0.0000000000
     11190        90  PMPE      H12S          -35.0662915485       21.0586135576        2.6534509066  MEMB      90              0.0000000000
     11191        90  PMPE      C213          -36.3782414194       21.9862354373        4.1765414545  MEMB      90              0.0000000000
     11192        90  PMPE      H13R          -36.0965575793       22.9158718958        3.6360877031  MEMB      90              0.0000000000
     11193        90  PMPE      H13S          -36.1109967518       22.0712985739        5.2388513021  MEMB      90              0.0000000000
     11194        90  PMPE      C214          -37.8189885148       21.6195195992        4.0847087584  MEMB      90              0.0000000000
     11195        90  PMPE      H14R          -38.5032457329       22.1457589153        4.8458266443  MEMB      90              0.0000000000
     11196        90  PMPE      H14S          -38.0563748072       20.5794377571        4.1263938918  MEMB      90              0.0000000000
     11197        90  PMPE      C215          -38.1618473312       21.8183878443        2.6516732976  MEMB      90              0.0000000000
     11198        90  PMPE      H15R          -39.1646185904       21.2712064432        2.5952015522  MEMB      90              0.0000000000
     11199        90  PMPE      H15S          -37.7174408066       21.7736440021        1.7206483064  MEMB      90              0.0000000000
     11200        90  PMPE      C216          -38.1083716452       23.1227496831        2.8314934114  MEMB      90              0.0000000000
     11201        90  PMPE      H16R          -37.7298888003       24.1791169148        2.8736486668  MEMB      90              0.0000000000
     11202        90  PMPE      H16S          -37.9008930725       23.9746956406        2.2370911443  MEMB      90              0.0000000000
     11203        90  PMPE      H16T          -39.0511712646       22.8559300947        3.2905678764  MEMB      90              0.0000000000
     11204        90  PMPE      C33           -38.0591821306       25.6320290588       10.0595804570  MEMB      90              0.0000000000
     11205        90  PMPE      H3X           -38.9422182327       26.4800431245        9.7348271532  MEMB      90              0.0000000000
     11206        90  PMPE      H3Y           -38.9170697038       25.4021586186       10.5658801832  MEMB      90              0.0000000000
     11207        90  PMPE      C34           -37.6225102262       25.2155663198        8.8179396573  MEMB      90              0.0000000000
     11208        90  PMPE      H4X           -38.7205136407       25.2870723198        8.2768455805  MEMB      90              0.0000000000
     11209        90  PMPE      H4Y           -37.7923796473       24.2993637822        8.5334571237  MEMB      90              0.0000000000
     11210        90  PMPE      C35           -36.1850908598       25.9008171762        8.0699730710  MEMB      90              0.0000000000
     11211        90  PMPE      H5X           -36.1623595721       25.2528306996        7.1599193297  MEMB      90              0.0000000000
     11212        90  PMPE      H5Y           -35.5332285670       25.7109070289        8.8256602989  MEMB      90              0.0000000000
     11213        90  PMPE      C36           -35.6974125604       27.4584897477        7.5883707125  MEMB      90              0.0000000000
     11214        90  PMPE      H6X           -36.1050395698       28.3429127729        7.7811558805  MEMB      90              0.0000000000
     11215        90  PMPE      H6Y           -36.3401216822       28.2370325843        6.9568715197  MEMB      90              0.0000000000
     11216        90  PMPE      C37           -34.6604382128       27.8823197222        6.7823828366  MEMB      90              0.0000000000
     11217        90  PMPE      H7X           -34.0763946847       27.8349099545        7.7101407402  MEMB      90              0.0000000000
     11218        90  PMPE      H7Y           -34.8334960635       28.9253368892        6.3805627986  MEMB      90              0.0000000000
     11219        90  PMPE      C38           -34.2521000060       26.9945247243        5.7207560469  MEMB      90              0.0000000000
     11220        90  PMPE      H8X           -33.8851902287       26.0939767441        6.1128302809  MEMB      90              0.0000000000
     11221        90  PMPE      H8Y           -33.4366847434       27.6510047885        5.5014554208  MEMB      90              0.0000000000
     11222        90  PMPE      C39           -34.8790797949       26.9423878931        4.3637475491  MEMB      90              0.0000000000
     11223        90  PMPE      H9X           -34.9366971998       27.8964168588        3.8970049916  MEMB      90              0.0000000000
     11224        90  PMPE      H9Y           -35.8140068573       26.4700137287        4.4984074075  MEMB      90              0.0000000000
     11225        90  PMPE      C310          -34.4112570131       26.0346753127        3.2944400111  MEMB      90              0.0000000000
     11226        90  PMPE      H10X          -34.8160706431       25.8998152589        2.3438353542  MEMB      90              0.0000000000
     11227        90  PMPE      H10Y          -34.8894242630       25.1730212701        3.7611386211  MEMB      90              0.0000000000
     11228        90  PMPE      C311          -33.1331563790       26.1430292811        2.5624783120  MEMB      90              0.0000000000
     11229        90  PMPE      H11X          -32.5253880997       26.0599502571        3.2028995022  MEMB      90              0.0000000000
     11230        90  PMPE      H11Y          -32.7222869082       27.0740571501        2.3025060849  MEMB      90              0.0000000000
     11231        90  PMPE      C312          -32.2752658353       25.0161763385        2.1461765181  MEMB      90              0.0000000000
     11232        90  PMPE      H12X          -32.5364978013       24.1425491018        2.5997181322  MEMB      90              0.0000000000
     11233        90  PMPE      H12Y          -31.1579638110       25.0412432174        2.2516365810  MEMB      90              0.0000000000
     11234        90  PMPE      C313          -32.3261804665       25.1092940395        0.9678576222  MEMB      90              0.0000000000
     11235        90  PMPE      H13X          -32.3032950925       26.1269152534        0.5885141402  MEMB      90              0.0000000000
     11236        90  PMPE      H13Y          -33.5091381622       24.8881650163        0.9384874145  MEMB      90              0.0000000000
     11237        90  PMPE      C314          -31.0756248157       24.2470791824        0.1284089652  MEMB      90              0.0000000000
     11238        90  PMPE      H14X          -30.8136528591       23.1173098432        0.0323035910  MEMB      90              0.0000000000
     11239        90  PMPE      H14Y          -30.3525038449       24.1805259014        0.7397025795  MEMB      90              0.0000000000
     11240        90  PMPE      C315          -31.1336780881       23.8612754599       -1.1905388856  MEMB      90              0.0000000000
     11241        90  PMPE      H15X          -30.9708657134       24.9381138695       -1.4442539998  MEMB      90              0.0000000000
     11242        90  PMPE      H15Y          -32.1352162969       23.4233294235       -1.4608016127  MEMB      90              0.0000000000
     11243        90  PMPE      C316          -30.4306755255       22.8176812492       -1.9245947654  MEMB      90              0.0000000000
     11244        90  PMPE      H16X          -30.9860006225       21.8378662294       -1.6691849092  MEMB      90              0.0000000000
     11245        90  PMPE      H16Y          -29.6701762875       23.0849962041       -1.7026582951  MEMB      90              0.0000000000
     11246        90  PMPE      H16Z          -30.2248182106       23.0786934317       -3.4842863322  MEMB      90              0.0000000000
     11247        91  OYPE      N              38.5340932718       12.7158405391       16.4892562850  MEMB      91              0.0000000000
     11248        91  OYPE      HN1            38.7163254969       12.5688346515       15.4669321365  MEMB      91              0.0000000000
     11249        91  OYPE      HN2            37.7770485146       12.0565309882       16.7475308449  MEMB      91              0.0000000000
     11250        91  OYPE      HN3            38.2249999348       13.6973892394       16.6880378373  MEMB      91              0.0000000000
     11251        91  OYPE      C12            39.7640078278       12.4363947758       17.3413503364  MEMB      91              0.0000000000
     11252        91  OYPE      H12A           40.5132504723       13.2124509784       17.0894765655  MEMB      91              0.0000000000
     11253        91  OYPE      H12B           40.1271621231       11.4269306044       17.0569003754  MEMB      91              0.0000000000
     11254        91  OYPE      C11            39.4655577944       12.4596322001       18.8645680930  MEMB      91              0.0000000000
     11255        91  OYPE      H11A           39.3361930436       11.4223606432       19.2377614270  MEMB      91              0.0000000000
     11256        91  OYPE      H11B           38.5150978077       13.0162758342       19.0267677350  MEMB      91              0.0000000000
     11257        91  OYPE      P              41.9588573554       12.5793656694       19.9449057680  MEMB      91              0.0000000000
     11258        91  OYPE      O13            41.9364507918       11.9034836241       21.2616570351  MEMB      91              0.0000000000
     11259        91  OYPE      O14            42.9055976111       13.6816408962       19.6650792660  MEMB      91              0.0000000000
     11260        91  OYPE      O11            42.1833850699       11.4364391500       18.8301597451  MEMB      91              0.0000000000
     11261        91  OYPE      O12            40.4625360079       13.1088123056       19.6356585446  MEMB      91              0.0000000000
     11262        91  OYPE      C1             43.5125679975       11.2198795476       18.2960189159  MEMB      91              0.0000000000
     11263        91  OYPE      HA             43.8524416195       10.1763512287       18.4927448780  MEMB      91              0.0000000000
     11264        91  OYPE      HB             44.2412891245       11.9118815674       18.7767416469  MEMB      91              0.0000000000
     11265        91  OYPE      C2             43.6837733633       11.4811373732       16.7661411692  MEMB      91              0.0000000000
     11266        91  OYPE      HS             44.7847229459       11.5494217336       16.5452846318  MEMB      91              0.0000000000
     11267        91  OYPE      O21            42.9343811602       12.7035937106       16.4507873846  MEMB      91              0.0000000000
     11268        91  OYPE      C21            43.1310021309       13.1484625247       15.2333832435  MEMB      91              0.0000000000
     11269        91  OYPE      O22            43.8652292213       12.5635399436       14.5048445323  MEMB      91              0.0000000000
     11270        91  OYPE      C22            42.3032770425       14.4009852291       14.9300583496  MEMB      91              0.0000000000
     11271        91  OYPE      H2R            42.8805946222       15.3381981878       15.0537672408  MEMB      91              0.0000000000
     11272        91  OYPE      H2S            41.4914543857       14.4039117268       15.6757621588  MEMB      91              0.0000000000
     11273        91  OYPE      C3             43.2192268002       10.2419749778       15.9117878691  MEMB      91              0.0000000000
     11274        91  OYPE      HX             43.7087930182        9.3316089407       16.3256836400  MEMB      91              0.0000000000
     11275        91  OYPE      HY             43.6500466821       10.3917797766       14.9030654845  MEMB      91              0.0000000000
     11276        91  OYPE      O31            41.7818160123       10.0928950956       15.8221105218  MEMB      91              0.0000000000
     11277        91  OYPE      C31            41.3572106523        8.9501624575       15.2570770393  MEMB      91              0.0000000000
     11278        91  OYPE      O32            42.0517848458        8.0781747365       14.7926335625  MEMB      91              0.0000000000
     11279        91  OYPE      C32            39.8180871587        8.9064413245       15.3078301064  MEMB      91              0.0000000000
     11280        91  OYPE      H2X            39.4191511694        7.9514682468       14.8956340318  MEMB      91              0.0000000000
     11281        91  OYPE      H2Y            39.4840882080        8.9940807917       16.3441302146  MEMB      91              0.0000000000
     11282        91  OYPE      C23            41.7677040335       14.4902668926       13.4942817476  MEMB      91              0.0000000000
     11283        91  OYPE      H3R            41.1642219167       13.5974233048       13.2471606633  MEMB      91              0.0000000000
     11284        91  OYPE      H3S            42.6367499100       14.5296852551       12.7964562637  MEMB      91              0.0000000000
     11285        91  OYPE      C24            40.9438900551       15.7740600508       13.3860858189  MEMB      91              0.0000000000
     11286        91  OYPE      H4R            41.5575468509       16.5851316859       13.8265578428  MEMB      91              0.0000000000
     11287        91  OYPE      H4S            40.0360602141       15.6841967935       14.0253908206  MEMB      91              0.0000000000
     11288        91  OYPE      C25            40.6361248133       16.2680095822       11.9722647615  MEMB      91              0.0000000000
     11289        91  OYPE      H5R            41.5575025168       16.6044730416       11.4388078827  MEMB      91              0.0000000000
     11290        91  OYPE      H5S            40.0008567083       17.1752883406       12.0547960929  MEMB      91              0.0000000000
     11291        91  OYPE      C26            40.0414930533       15.2068648325       11.0490298364  MEMB      91              0.0000000000
     11292        91  OYPE      H6R            40.5535823200       14.2733609528       11.1521817203  MEMB      91              0.0000000000
     11293        91  OYPE      H6S            40.1106172821       15.6374350583       10.0385617408  MEMB      91              0.0000000000
     11294        91  OYPE      C27            38.6409538142       14.7946135956       11.2266695824  MEMB      91              0.0000000000
     11295        91  OYPE      H7R            38.3851081178       15.8628366505       11.0840938296  MEMB      91              0.0000000000
     11296        91  OYPE      H7S            38.3277607783       14.5472277140       12.2535086836  MEMB      91              0.0000000000
     11297        91  OYPE      C28            37.8006873166       13.7996626098       10.3079918649  MEMB      91              0.0000000000
     11298        91  OYPE      H8R            36.7399320243       13.6200169479       10.5250847024  MEMB      91              0.0000000000
     11299        91  OYPE      H8S            38.2453931974       12.8922588056       10.4547611672  MEMB      91              0.0000000000
     11300        91  OYPE      C29            37.2052006717       13.7722924674        9.0162666928  MEMB      91              0.0000000000
     11301        91  OYPE      H9R            36.6776365112       14.6503090135        8.6276015542  MEMB      91              0.0000000000
     11302        91  OYPE      C210           37.8042635581       13.2281216247        8.1148332556  MEMB      91              0.0000000000
     11303        91  OYPE      H10R           37.1721715063       13.3702055422        7.2233714616  MEMB      91              0.0000000000
     11304        91  OYPE      C211           39.1193971716       12.5105427271        7.9140482447  MEMB      91              0.0000000000
     11305        91  OYPE      H11R           39.4961470412       12.3707528021        8.8911887810  MEMB      91              0.0000000000
     11306        91  OYPE      H11S           40.0100592630       12.9498705146        7.3192591973  MEMB      91              0.0000000000
     11307        91  OYPE      C212           38.6271185860       11.2698566249        7.1226011250  MEMB      91              0.0000000000
     11308        91  OYPE      H12R           37.7077568817       10.9440940973        7.6509008372  MEMB      91              0.0000000000
     11309        91  OYPE      H12S           39.4337898465       10.5283095937        7.2294115914  MEMB      91              0.0000000000
     11310        91  OYPE      C213           38.1742509539       11.3053177074        5.6174304668  MEMB      91              0.0000000000
     11311        91  OYPE      H13R           38.7757997611       12.0459334777        5.0377172430  MEMB      91              0.0000000000
     11312        91  OYPE      H13S           37.1043372300       11.6359502603        5.5910075892  MEMB      91              0.0000000000
     11313        91  OYPE      C214           38.3286070319        9.9621541202        4.9282104715  MEMB      91              0.0000000000
     11314        91  OYPE      H14R           37.9536685323        9.2279389067        5.6285995252  MEMB      91              0.0000000000
     11315        91  OYPE      H14S           39.4128665311        9.7795464182        4.7868107845  MEMB      91              0.0000000000
     11316        91  OYPE      C215           37.5375487215        9.8476806808        3.6764675414  MEMB      91              0.0000000000
     11317        91  OYPE      H15R           36.4388802417        9.8193865436        3.8084154130  MEMB      91              0.0000000000
     11318        91  OYPE      H15S           37.6734765584        8.9114771281        3.0779033094  MEMB      91              0.0000000000
     11319        91  OYPE      C216           37.9648017686       11.0604257418        2.9288614320  MEMB      91              0.0000000000
     11320        91  OYPE      H16R           37.2611256427       10.8866447245        2.0692322238  MEMB      91              0.0000000000
     11321        91  OYPE      H16S           39.0184852510       11.0686966079        2.5288826724  MEMB      91              0.0000000000
     11322        91  OYPE      H16T           37.7252640658       12.0797057097        3.0596269988  MEMB      91              0.0000000000
     11323        91  OYPE      C33            39.2232492394       10.0593825836       14.4999332098  MEMB      91              0.0000000000
     11324        91  OYPE      H3X            39.7777615898       11.0093992357       14.6728405651  MEMB      91              0.0000000000
     11325        91  OYPE      H3Y            38.1628731860       10.1918192550       14.7793225558  MEMB      91              0.0000000000
     11326        91  OYPE      C34            39.2723149466        9.7285073780       13.0198252080  MEMB      91              0.0000000000
     11327        91  OYPE      H4X            39.2595739860        8.6220213965       12.8743904585  MEMB      91              0.0000000000
     11328        91  OYPE      H4Y            38.3830267131       10.1837603617       12.5177285929  MEMB      91              0.0000000000
     11329        91  OYPE      C35            40.5877944861       10.2800004139       12.4894572482  MEMB      91              0.0000000000
     11330        91  OYPE      H5X            41.4454115493        9.7534229215       12.9715663592  MEMB      91              0.0000000000
     11331        91  OYPE      H5Y            40.6594356948       11.3379920937       12.8027644587  MEMB      91              0.0000000000
     11332        91  OYPE      C36            40.7226137057       10.2747822737       10.9784237068  MEMB      91              0.0000000000
     11333        91  OYPE      H6X            40.9553485234        9.2401049382       10.6290151172  MEMB      91              0.0000000000
     11334        91  OYPE      H6Y            39.8703677303       10.7124498174       10.4480526387  MEMB      91              0.0000000000
     11335        91  OYPE      C37            41.8146590298       11.1531331641       10.5219205637  MEMB      91              0.0000000000
     11336        91  OYPE      H7X            41.7644590763       11.3792916244        9.4381802436  MEMB      91              0.0000000000
     11337        91  OYPE      H7Y            41.8786171347       12.1423714388       11.0470092790  MEMB      91              0.0000000000
     11338        91  OYPE      C38            42.9527351708       10.3468989499       10.8136068229  MEMB      91              0.0000000000
     11339        91  OYPE      H8X            43.0778377224       10.5607180160       11.9468101277  MEMB      91              0.0000000000
     11340        91  OYPE      H8Y            43.1297926972        9.2584353586       10.8250471438  MEMB      91              0.0000000000
     11341        91  OYPE      C39            43.9018193155       10.9506336348        9.7877935260  MEMB      91              0.0000000000
     11342        91  OYPE      H9X            44.2666590023       12.0677281333        9.7514397206  MEMB      91              0.0000000000
     11343        91  OYPE      C310           44.3430936721       10.7110741764        8.8696461972  MEMB      91              0.0000000000
     11344        91  OYPE      H10X           45.5465320108       10.5324787058        8.8315371883  MEMB      91              0.0000000000
     11345        91  OYPE      C311           43.8256706073        9.7037694567        8.5849201711  MEMB      91              0.0000000000
     11346        91  OYPE      H11X           45.2049603117        9.0621388037        8.5975786899  MEMB      91              0.0000000000
     11347        91  OYPE      H11Y           43.0352696167        9.0948084951        9.0521494232  MEMB      91              0.0000000000
     11348        91  OYPE      C312           43.3594182810        9.7566916894        6.2754372511  MEMB      91              0.0000000000
     11349        91  OYPE      H12X           43.4917073657        9.0412167770        5.4243248462  MEMB      91              0.0000000000
     11350        91  OYPE      H12Y           44.9969546132        9.1116712746        5.7802191355  MEMB      91              0.0000000000
     11351        91  OYPE      C313           42.7677435008       10.9655889082        6.5636106272  MEMB      91              0.0000000000
     11352        91  OYPE      H13X           42.0656054726       10.6561946809        7.3844236370  MEMB      91              0.0000000000
     11353        91  OYPE      H13Y           43.4178104455       11.6821025463        7.1012135984  MEMB      91              0.0000000000
     11354        91  OYPE      C314           42.5654439879       11.2754297614        5.1506786138  MEMB      91              0.0000000000
     11355        91  OYPE      H14X           41.7129861863       11.8074649239        5.4084880899  MEMB      91              0.0000000000
     11356        91  OYPE      H14Y           42.4171221222       10.3647892172        4.5132826297  MEMB      91              0.0000000000
     11357        91  OYPE      C315           43.5453990609       12.2440257933        4.4168383465  MEMB      91              0.0000000000
     11358        91  OYPE      H15X           44.3723191018       12.7114373447        5.0660282808  MEMB      91              0.0000000000
     11359        91  OYPE      H15Y           43.1849640254       13.1549984966        4.1340664573  MEMB      91              0.0000000000
     11360        91  OYPE      C316           44.1065038418       11.5073588443        3.2401470750  MEMB      91              0.0000000000
     11361        91  OYPE      H16X           44.3532291358       10.4165295880        3.3681723608  MEMB      91              0.0000000000
     11362        91  OYPE      H16Y           44.9689541668       12.0750737143        2.7733002307  MEMB      91              0.0000000000
     11363        91  OYPE      C317           43.1182181744       11.3370809982        2.3778451939  MEMB      91              0.0000000000
     11364        91  OYPE      H17X           42.2174046143       10.7847685155        2.6795326427  MEMB      91              0.0000000000
     11365        91  OYPE      H17Y           43.2612851173       10.5599151480        1.7243127036  MEMB      91              0.0000000000
     11366        91  OYPE      C318           43.2729686768       12.6019191157        1.5464511598  MEMB      91              0.0000000000
     11367        91  OYPE      H18X           44.1704017146       12.5080612603        0.8507333783  MEMB      91              0.0000000000
     11368        91  OYPE      H18Y           42.3914268798       12.8260386997        0.8685088108  MEMB      91              0.0000000000
     11369        91  OYPE      H18Z           42.8902037776       13.4106730881        2.0141035017  MEMB      91              0.0000000000
     11370        92  PYPG      C13            42.6210863398       -4.4415442278       19.1106568836  MEMB      92              0.0000000000
     11371        92  PYPG      H13A           43.0887237779       -4.2973642678       18.1103541522  MEMB      92              0.0000000000
     11372        92  PYPG      H13B           43.4008386818       -4.3188012972       19.8780106470  MEMB      92              0.0000000000
     11373        92  PYPG      OC3            42.1423466265       -5.7687857649       19.2977561977  MEMB      92              0.0000000000
     11374        92  PYPG      HO3            41.8100842603       -5.8379145150       20.1973779567  MEMB      92              0.0000000000
     11375        92  PYPG      C12            41.4943739434       -3.3953041257       19.2671341235  MEMB      92              0.0000000000
     11376        92  PYPG      H12A           41.2735311961       -3.3233348052       20.3567978858  MEMB      92              0.0000000000
     11377        92  PYPG      OC2            40.3001801596       -3.8174819323       18.6002783939  MEMB      92              0.0000000000
     11378        92  PYPG      HO2            39.7393138417       -3.0529189357       18.6317956068  MEMB      92              0.0000000000
     11379        92  PYPG      C11            41.9020198126       -1.9819660010       18.7782376974  MEMB      92              0.0000000000
     11380        92  PYPG      H11A           41.0587315709       -1.2862507404       18.9757500090  MEMB      92              0.0000000000
     11381        92  PYPG      H11B           42.0558782693       -1.9428101160       17.6740583874  MEMB      92              0.0000000000
     11382        92  PYPG      P              43.8312235797       -0.2346399336       19.0483009116  MEMB      92              0.0000000000
     11383        92  PYPG      O13            45.0453050220       -0.0209934697       19.8633868516  MEMB      92              0.0000000000
     11384        92  PYPG      O14            42.8880094570        0.8923622762       18.9757304756  MEMB      92              0.0000000000
     11385        92  PYPG      O11            44.2374774515       -0.6167963358       17.5673242866  MEMB      92              0.0000000000
     11386        92  PYPG      O12            43.0653980813       -1.5591073452       19.4968292002  MEMB      92              0.0000000000
     11387        92  PYPG      C1             45.2534211558       -1.5962288796       17.3571638969  MEMB      92              0.0000000000
     11388        92  PYPG      HA             45.0026580426       -2.2092922894       16.4655002363  MEMB      92              0.0000000000
     11389        92  PYPG      HB             45.3737235544       -2.3239300724       18.1889438949  MEMB      92              0.0000000000
     11390        92  PYPG      C2             46.6200018678       -0.9787724812       17.1239649455  MEMB      92              0.0000000000
     11391        92  PYPG      HS             46.8506090884       -0.2216656076       17.9175634641  MEMB      92              0.0000000000
     11392        92  PYPG      O21            46.5604547814       -0.5662354257       15.7021684374  MEMB      92              0.0000000000
     11393        92  PYPG      C21            47.4293514330        0.3259567852       15.3419343554  MEMB      92              0.0000000000
     11394        92  PYPG      O22            47.9599094257        1.0091933388       16.1558371729  MEMB      92              0.0000000000
     11395        92  PYPG      C22            47.6882471297        0.2499908373       13.8565613983  MEMB      92              0.0000000000
     11396        92  PYPG      H2R            47.0979647230        0.8836380723       13.1905506295  MEMB      92              0.0000000000
     11397        92  PYPG      H2S            47.6449038689       -0.8033977941       13.5350636508  MEMB      92              0.0000000000
     11398        92  PYPG      C3             47.6145433542       -2.1496949933       17.3932591408  MEMB      92              0.0000000000
     11399        92  PYPG      HX             47.5039900801       -2.6906975097       18.2399621127  MEMB      92              0.0000000000
     11400        92  PYPG      HY             48.7004773214       -1.6862879806       17.4782463365  MEMB      92              0.0000000000
     11401        92  PYPG      O31            47.2448165384       -3.3678876426       16.6054070268  MEMB      92              0.0000000000
     11402        92  PYPG      C31            47.8293314469       -3.0796261411       15.6213745413  MEMB      92              0.0000000000
     11403        92  PYPG      O32            48.4669404805       -2.0716335664       15.5949361815  MEMB      92              0.0000000000
     11404        92  PYPG      C32            47.5099962521       -3.9027651010       14.5368754833  MEMB      92              0.0000000000
     11405        92  PYPG      H2X            48.0471568547       -3.7952787962       13.4884111948  MEMB      92              0.0000000000
     11406        92  PYPG      H2Y            47.8181916676       -4.8518942615       15.1792800070  MEMB      92              0.0000000000
     11407        92  PYPG      C23            49.0427043799        0.7444869335       13.6814177217  MEMB      92              0.0000000000
     11408        92  PYPG      H3R            49.8188356733        0.5075365727       14.3876717524  MEMB      92              0.0000000000
     11409        92  PYPG      H3S            49.4967651851        1.5248168750       13.9427122469  MEMB      92              0.0000000000
     11410        92  PYPG      C24            49.7294450287        0.5674226465       12.5185777223  MEMB      92              0.0000000000
     11411        92  PYPG      H4R            50.3407661001        1.2749971742       12.2891423368  MEMB      92              0.0000000000
     11412        92  PYPG      H4S            48.6287517580        0.9294996393       11.9414671221  MEMB      92              0.0000000000
     11413        92  PYPG      C25            50.6899021536       -1.3714962653       11.6017441042  MEMB      92              0.0000000000
     11414        92  PYPG      H5R            49.1294000342       -2.5742215774       12.1762305199  MEMB      92              0.0000000000
     11415        92  PYPG      H5S            51.2378617381       -1.8488172099       11.9176077736  MEMB      92              0.0000000000
     11416        92  PYPG      C26            50.5786871556       -1.8441659549        9.9121766586  MEMB      92              0.0000000000
     11417        92  PYPG      H6R            50.0112379867       -2.5268928303        9.4740834040  MEMB      92              0.0000000000
     11418        92  PYPG      H6S            51.4536383003       -1.2912505448        9.6184513047  MEMB      92              0.0000000000
     11419        92  PYPG      C27            48.6099819981       -1.3389572140        9.0510834946  MEMB      92              0.0000000000
     11420        92  PYPG      H7R            48.0020550545        0.1033150528        9.7786614074  MEMB      92              0.0000000000
     11421        92  PYPG      H7S            47.6989461977       -1.3322032681        9.3962455423  MEMB      92              0.0000000000
     11422        92  PYPG      C28            48.6386597773       -1.2663197578        7.5518109469  MEMB      92              0.0000000000
     11423        92  PYPG      H8R            49.3080003734       -0.7544617214        7.2447258107  MEMB      92              0.0000000000
     11424        92  PYPG      H8S            48.1136011007       -0.4252351251        6.9805727009  MEMB      92              0.0000000000
     11425        92  PYPG      C29            49.1768697672       -2.4507273211        7.1642717228  MEMB      92              0.0000000000
     11426        92  PYPG      H9R            50.2237961705       -2.7428938769        7.1657825671  MEMB      92              0.0000000000
     11427        92  PYPG      C210           48.2264171602       -3.1044757680        6.7869897391  MEMB      92              0.0000000000
     11428        92  PYPG      H10R           48.4430382957       -4.1042612111        6.5851801774  MEMB      92              0.0000000000
     11429        92  PYPG      C211           46.8511434692       -2.5876894169        6.7906551256  MEMB      92              0.0000000000
     11430        92  PYPG      H11R           46.6289058859       -1.5477850948        7.1350877188  MEMB      92              0.0000000000
     11431        92  PYPG      H11S           46.4727445397       -3.2682015474        7.5461722936  MEMB      92              0.0000000000
     11432        92  PYPG      C212           46.2149068580       -2.7259103396        5.4199004704  MEMB      92              0.0000000000
     11433        92  PYPG      H12R           45.1348994838       -2.5275718747        5.5865774993  MEMB      92              0.0000000000
     11434        92  PYPG      H12S           46.4154204279       -3.7512662146        5.0216606904  MEMB      92              0.0000000000
     11435        92  PYPG      C213           46.6512601792       -1.7042290584        4.3613547158  MEMB      92              0.0000000000
     11436        92  PYPG      H13R           47.7211649379       -1.8814018038        4.1781603425  MEMB      92              0.0000000000
     11437        92  PYPG      H13S           46.5545723513       -0.6563669858        4.7189110182  MEMB      92              0.0000000000
     11438        92  PYPG      C214           45.9129866217       -1.8847646822        3.0301695096  MEMB      92              0.0000000000
     11439        92  PYPG      H14R           46.1691726038       -2.8790306418        2.6115437725  MEMB      92              0.0000000000
     11440        92  PYPG      H14S           44.8324617152       -1.9126897819        3.2649295677  MEMB      92              0.0000000000
     11441        92  PYPG      C215           46.2599434066       -0.7841636879        2.0145222786  MEMB      92              0.0000000000
     11442        92  PYPG      H15R           47.2426286102       -1.0615162764        1.5732533403  MEMB      92              0.0000000000
     11443        92  PYPG      H15S           46.4330757172        0.1681814063        2.5496206724  MEMB      92              0.0000000000
     11444        92  PYPG      C216           45.2373436665       -0.5926055943        0.8979994602  MEMB      92              0.0000000000
     11445        92  PYPG      H16R           44.2464133768       -0.2135138444        1.2349769408  MEMB      92              0.0000000000
     11446        92  PYPG      H16S           45.0672824637       -1.5866043318        0.4518498595  MEMB      92              0.0000000000
     11447        92  PYPG      H16T           45.6548471029        0.0324021746        0.0816665808  MEMB      92              0.0000000000
     11448        92  PYPG      C33            46.1231620092       -3.9569682785       13.9334965267  MEMB      92              0.0000000000
     11449        92  PYPG      H3X            45.5864000556       -4.1483454741       14.8380265298  MEMB      92              0.0000000000
     11450        92  PYPG      H3Y            45.8281802844       -4.8074772793       13.2605357051  MEMB      92              0.0000000000
     11451        92  PYPG      C34            45.9819525496       -2.8169542725       13.0097692817  MEMB      92              0.0000000000
     11452        92  PYPG      H4X            46.8769181050       -2.8237881802       12.3298518814  MEMB      92              0.0000000000
     11453        92  PYPG      H4Y            45.9542226088       -1.9816236635       13.7353665054  MEMB      92              0.0000000000
     11454        92  PYPG      C35            44.7664213059       -2.8405540811       12.1053610352  MEMB      92              0.0000000000
     11455        92  PYPG      H5X            43.8417959728       -3.0211264081       12.6953448968  MEMB      92              0.0000000000
     11456        92  PYPG      H5Y            44.8129734195       -3.6903127974       11.3930594318  MEMB      92              0.0000000000
     11457        92  PYPG      C36            44.7659657003       -1.4887448321       11.3712950615  MEMB      92              0.0000000000
     11458        92  PYPG      H6X            45.8047736928       -1.2811049223       10.9972741918  MEMB      92              0.0000000000
     11459        92  PYPG      H6Y            44.4870894110       -0.7176160415       12.1257104186  MEMB      92              0.0000000000
     11460        92  PYPG      C37            43.7804094612       -1.3588455863       10.2036853659  MEMB      92              0.0000000000
     11461        92  PYPG      H7X            44.0949018456       -2.0299375759        9.3836439128  MEMB      92              0.0000000000
     11462        92  PYPG      H7Y            42.7621470774       -1.7009590178       10.4855812075  MEMB      92              0.0000000000
     11463        92  PYPG      C38            43.7263144075        0.0352323863        9.5363199309  MEMB      92              0.0000000000
     11464        92  PYPG      H8X            43.3715290233        0.8037238228       10.2459903197  MEMB      92              0.0000000000
     11465        92  PYPG      H8Y            42.9798761500       -0.0790257727        8.7214094293  MEMB      92              0.0000000000
     11466        92  PYPG      C39            45.1071501938        0.4971714966        9.0317518272  MEMB      92              0.0000000000
     11467        92  PYPG      H9X            45.5478342419       -0.2543183363        8.3699937121  MEMB      92              0.0000000000
     11468        92  PYPG      H9Y            45.7192984601        0.5537514048        9.9601608233  MEMB      92              0.0000000000
     11469        92  PYPG      C310           45.2450184451        1.8360052360        8.3048939245  MEMB      92              0.0000000000
     11470        92  PYPG      H10X           46.2998697720        2.1828692070        8.3634019180  MEMB      92              0.0000000000
     11471        92  PYPG      H10Y           44.7637550251        2.4557656868        9.0011938359  MEMB      92              0.0000000000
     11472        92  PYPG      C311           44.6265482748        1.9632449262        6.8805566285  MEMB      92              0.0000000000
     11473        92  PYPG      H11X           43.5463756860        1.8343609713        6.8275558232  MEMB      92              0.0000000000
     11474        92  PYPG      H11Y           45.1977112779        1.2172435540        6.2679978087  MEMB      92              0.0000000000
     11475        92  PYPG      C312           44.6683060049        3.4142816341        6.3457621002  MEMB      92              0.0000000000
     11476        92  PYPG      H12X           44.6529905989        4.2654247651        6.9066260480  MEMB      92              0.0000000000
     11477        92  PYPG      H12Y           45.5491980312        3.1465567878        6.0488716127  MEMB      92              0.0000000000
     11478        92  PYPG      C313           44.3807083145        4.1663123035        5.1319911937  MEMB      92              0.0000000000
     11479        92  PYPG      H13X           44.7777019796        5.4651573492        5.1636905809  MEMB      92              0.0000000000
     11480        92  PYPG      H13Y           44.5125657238        3.1363174661        4.5301873396  MEMB      92              0.0000000000
     11481        92  PYPG      C314           43.1640288008        3.4858891122        4.7412671458  MEMB      92              0.0000000000
     11482        92  PYPG      H14X           42.5902992835        2.8342880010        5.3701297838  MEMB      92              0.0000000000
     11483        92  PYPG      H14Y           42.9671225608        4.5197667053        5.1213671728  MEMB      92              0.0000000000
     11484        92  PYPG      C315           42.8317580743        3.0547367730        3.2331501073  MEMB      92              0.0000000000
     11485        92  PYPG      H15X           41.6415666542        3.2261387817        3.1950075766  MEMB      92              0.0000000000
     11486        92  PYPG      H15Y           43.5076483726        3.7831279288        2.6421597704  MEMB      92              0.0000000000
     11487        92  PYPG      C316           42.7157563122        1.8124252720        2.5948733721  MEMB      92              0.0000000000
     11488        92  PYPG      H16X           42.1422098510        1.2221974858        3.3095746187  MEMB      92              0.0000000000
     11489        92  PYPG      H16Y           43.7602966315        1.5485505365        2.4511624334  MEMB      92              0.0000000000
     11490        92  PYPG      H16Z           42.0924895681        1.9815072033        1.6780397331  MEMB      92              0.0000000000
     11491        93  PMPE      N             -19.4143648371       38.7390528868       22.0909472488  MEMB      93              0.0000000000
     11492        93  PMPE      HN1           -20.0046128001       39.4483629041       21.6174206989  MEMB      93              0.0000000000
     11493        93  PMPE      HN2           -19.9685809921       37.9415241627       22.4618136116  MEMB      93              0.0000000000
     11494        93  PMPE      HN3           -18.8978660682       39.1998555650       22.8614290935  MEMB      93              0.0000000000
     11495        93  PMPE      C12           -18.4619390405       38.2158191468       21.0613736888  MEMB      93              0.0000000000
     11496        93  PMPE      H12A          -18.3258587912       37.1503171919       21.3536565709  MEMB      93              0.0000000000
     11497        93  PMPE      H12B          -17.4934416711       38.7370515248       21.2055966090  MEMB      93              0.0000000000
     11498        93  PMPE      C11           -18.9749665217       38.5172751380       19.6287126011  MEMB      93              0.0000000000
     11499        93  PMPE      H11A          -18.1337105839       38.2478265126       18.9307812288  MEMB      93              0.0000000000
     11500        93  PMPE      H11B          -19.2238399181       39.5901302319       19.4515051727  MEMB      93              0.0000000000
     11501        93  PMPE      P             -20.7041248427       37.7756385865       17.8400075305  MEMB      93              0.0000000000
     11502        93  PMPE      O13           -21.1219660759       39.1401809942       17.4233836313  MEMB      93              0.0000000000
     11503        93  PMPE      O14           -21.6242227656       36.6379194906       17.8006389510  MEMB      93              0.0000000000
     11504        93  PMPE      O11           -19.4439133647       37.3551774115       17.0338414194  MEMB      93              0.0000000000
     11505        93  PMPE      O12           -20.1768182702       37.8157491787       19.3535512488  MEMB      93              0.0000000000
     11506        93  PMPE      C1            -18.9326593439       36.0494519312       17.2917320209  MEMB      93              0.0000000000
     11507        93  PMPE      HA            -19.7137881372       35.2413449297       17.2770278597  MEMB      93              0.0000000000
     11508        93  PMPE      HB            -18.3945735001       36.0542615677       18.2677502764  MEMB      93              0.0000000000
     11509        93  PMPE      C2            -17.9494804759       35.7124959965       16.1629800354  MEMB      93              0.0000000000
     11510        93  PMPE      HS            -17.2671011325       34.9058568440       16.5866411956  MEMB      93              0.0000000000
     11511        93  PMPE      O21           -17.2915260680       36.8878059185       15.6250599676  MEMB      93              0.0000000000
     11512        93  PMPE      C21           -16.4539973761       37.1930018892       16.4413748139  MEMB      93              0.0000000000
     11513        93  PMPE      O22           -16.1287787876       36.3554966929       17.3224712683  MEMB      93              0.0000000000
     11514        93  PMPE      C22           -15.9656683105       38.6925951360       16.0930912547  MEMB      93              0.0000000000
     11515        93  PMPE      H2R           -14.8738420320       38.7576126754       15.8539094626  MEMB      93              0.0000000000
     11516        93  PMPE      H2S           -16.1735563758       39.3754178724       16.9709158191  MEMB      93              0.0000000000
     11517        93  PMPE      C3            -18.6265732515       35.1207165227       14.9627353422  MEMB      93              0.0000000000
     11518        93  PMPE      HX            -19.2551073254       34.2661851139       15.2596977114  MEMB      93              0.0000000000
     11519        93  PMPE      HY            -17.8309833350       34.7326550720       14.3093871019  MEMB      93              0.0000000000
     11520        93  PMPE      O31           -19.2927038869       36.1428774672       14.2092298236  MEMB      93              0.0000000000
     11521        93  PMPE      C31           -20.5805038576       36.0258808474       14.1097250103  MEMB      93              0.0000000000
     11522        93  PMPE      O32           -21.2692386648       35.1900210350       14.6640466949  MEMB      93              0.0000000000
     11523        93  PMPE      C32           -21.0343657000       37.1062630561       13.1422152597  MEMB      93              0.0000000000
     11524        93  PMPE      H2X           -20.7711424196       36.9697468676       12.1025755791  MEMB      93              0.0000000000
     11525        93  PMPE      H2Y           -20.4296597056       37.9804390577       13.3471774810  MEMB      93              0.0000000000
     11526        93  PMPE      C23           -16.6735597893       39.3108373762       14.9127312027  MEMB      93              0.0000000000
     11527        93  PMPE      H3R           -16.5253012718       40.4068150269       15.0279490445  MEMB      93              0.0000000000
     11528        93  PMPE      H3S           -17.7633621490       39.0954169565       14.9360267686  MEMB      93              0.0000000000
     11529        93  PMPE      C24           -16.0423206842       38.8968429417       13.5830099318  MEMB      93              0.0000000000
     11530        93  PMPE      H4R           -16.1864989267       37.8321733554       13.3470138841  MEMB      93              0.0000000000
     11531        93  PMPE      H4S           -14.9395554177       39.0516201018       13.6715240091  MEMB      93              0.0000000000
     11532        93  PMPE      C25           -16.7199926216       39.6291194395       12.4253583865  MEMB      93              0.0000000000
     11533        93  PMPE      H5R           -16.1441002496       40.5088464241       12.2816616134  MEMB      93              0.0000000000
     11534        93  PMPE      H5S           -17.7740715934       39.9088534053       12.6507278641  MEMB      93              0.0000000000
     11535        93  PMPE      C26           -16.5444430641       39.0820623347       11.0169977323  MEMB      93              0.0000000000
     11536        93  PMPE      H6R           -15.4706339123       39.2364720410       10.7193174587  MEMB      93              0.0000000000
     11537        93  PMPE      H6S           -17.1797622092       39.6967874311       10.3389980988  MEMB      93              0.0000000000
     11538        93  PMPE      C27           -17.1089772229       37.6796388943       10.8417130211  MEMB      93              0.0000000000
     11539        93  PMPE      H7R           -18.2039093314       37.6950382826       11.0610336763  MEMB      93              0.0000000000
     11540        93  PMPE      H7S           -16.6403898564       36.9860239981       11.5661416734  MEMB      93              0.0000000000
     11541        93  PMPE      C28           -16.9214372972       37.1764336883        9.4026869562  MEMB      93              0.0000000000
     11542        93  PMPE      H8R           -17.3009861422       37.9149761094        8.6885117333  MEMB      93              0.0000000000
     11543        93  PMPE      H8S           -17.4480680684       36.2040814972        9.2676345981  MEMB      93              0.0000000000
     11544        93  PMPE      C29           -15.4729860054       36.9770611829        9.0883835905  MEMB      93              0.0000000000
     11545        93  PMPE      H9R           -15.0197989361       36.3970760988        9.8536612673  MEMB      93              0.0000000000
     11546        93  PMPE      C217          -14.6413422008       38.0751956879        8.3693402033  MEMB      93              0.0000000000
     11547        93  PMPE      H17R          -13.5716569666       38.1311674168        8.5164655443  MEMB      93              0.0000000000
     11548        93  PMPE      H17S          -15.1651749585       38.9304524376        8.0917084338  MEMB      93              0.0000000000
     11549        93  PMPE      C210          -15.0247444231       36.8073573834        7.6575428333  MEMB      93              0.0000000000
     11550        93  PMPE      H10R          -14.1465796663       36.3576904436        7.2414650518  MEMB      93              0.0000000000
     11551        93  PMPE      C211          -15.8758235151       36.8736450202        6.5122187152  MEMB      93              0.0000000000
     11552        93  PMPE      H11R          -15.2167458743       37.1710790093        5.6657723656  MEMB      93              0.0000000000
     11553        93  PMPE      H11S          -16.5159475267       37.7134697269        6.7055357280  MEMB      93              0.0000000000
     11554        93  PMPE      C212          -16.5777812735       35.5436895470        6.2367673778  MEMB      93              0.0000000000
     11555        93  PMPE      H12R          -17.1707690025       35.1578567068        7.0883840843  MEMB      93              0.0000000000
     11556        93  PMPE      H12S          -15.8673476024       34.7264937313        6.0131234519  MEMB      93              0.0000000000
     11557        93  PMPE      C213          -17.4384857817       35.6725677898        4.9924284430  MEMB      93              0.0000000000
     11558        93  PMPE      H13R          -18.0681453560       36.5924049341        5.0147483162  MEMB      93              0.0000000000
     11559        93  PMPE      H13S          -18.1048989451       34.7835022109        4.9773179996  MEMB      93              0.0000000000
     11560        93  PMPE      C214          -16.5662980450       35.6431764964        3.7333498564  MEMB      93              0.0000000000
     11561        93  PMPE      H14R          -15.9975062583       34.6952829545        3.7345751008  MEMB      93              0.0000000000
     11562        93  PMPE      H14S          -15.8164188174       36.4620575641        3.7373581497  MEMB      93              0.0000000000
     11563        93  PMPE      C215          -17.4156182378       35.7227907511        2.4680909078  MEMB      93              0.0000000000
     11564        93  PMPE      H15R          -18.3157099092       36.3463545569        2.6685148430  MEMB      93              0.0000000000
     11565        93  PMPE      H15S          -17.6902120276       34.6783527518        2.2177747540  MEMB      93              0.0000000000
     11566        93  PMPE      C216          -16.6842956212       36.2402075993        1.2487280441  MEMB      93              0.0000000000
     11567        93  PMPE      H16R          -16.3579738472       37.2775680899        1.4511054394  MEMB      93              0.0000000000
     11568        93  PMPE      H16S          -15.8280122051       35.5449426927        1.0936686107  MEMB      93              0.0000000000
     11569        93  PMPE      H16T          -17.3116488328       36.2715526530        0.3314005660  MEMB      93              0.0000000000
     11570        93  PMPE      C33           -22.5117615112       37.3422178686       13.2442809299  MEMB      93              0.0000000000
     11571        93  PMPE      H3X           -22.7718420543       37.5976013315       14.2580741119  MEMB      93              0.0000000000
     11572        93  PMPE      H3Y           -22.9882156562       36.3933408785       13.1389524436  MEMB      93              0.0000000000
     11573        93  PMPE      C34           -23.1009821993       38.3076075519       12.2222289286  MEMB      93              0.0000000000
     11574        93  PMPE      H4X           -24.0765717412       38.4672129170       12.5192306859  MEMB      93              0.0000000000
     11575        93  PMPE      H4Y           -23.2932529358       37.9624193460       11.2151945823  MEMB      93              0.0000000000
     11576        93  PMPE      C35           -22.6504608806       39.7474297778       12.2488054966  MEMB      93              0.0000000000
     11577        93  PMPE      H5X           -21.5551688244       39.6880075449       12.2807303393  MEMB      93              0.0000000000
     11578        93  PMPE      H5Y           -23.0503530240       40.1450338301       13.2193964444  MEMB      93              0.0000000000
     11579        93  PMPE      C36           -23.0846836036       40.5982751140       11.0320426207  MEMB      93              0.0000000000
     11580        93  PMPE      H6X           -22.7719987813       41.6425652932       11.0622767542  MEMB      93              0.0000000000
     11581        93  PMPE      H6Y           -24.1379639596       40.5750507103       10.9135899304  MEMB      93              0.0000000000
     11582        93  PMPE      C37           -22.8412708530       40.0801943781        9.6206618194  MEMB      93              0.0000000000
     11583        93  PMPE      H7X           -23.2248821084       40.8088201545        8.8672739597  MEMB      93              0.0000000000
     11584        93  PMPE      H7Y           -23.4942667444       39.1994731515        9.4455669867  MEMB      93              0.0000000000
     11585        93  PMPE      C38           -21.3822284057       39.7096435657        9.3956596884  MEMB      93              0.0000000000
     11586        93  PMPE      H8X           -21.2499590594       38.6550371722        9.6644034036  MEMB      93              0.0000000000
     11587        93  PMPE      H8Y           -20.6716056871       40.2020676633       10.0836262458  MEMB      93              0.0000000000
     11588        93  PMPE      C39           -20.8943375400       39.9680440105        7.9771147715  MEMB      93              0.0000000000
     11589        93  PMPE      H9X           -20.3026690494       40.8994250024        8.0116007546  MEMB      93              0.0000000000
     11590        93  PMPE      H9Y           -21.7698313912       40.1837279842        7.3367053375  MEMB      93              0.0000000000
     11591        93  PMPE      C310          -20.0421064562       38.8547464293        7.3620956282  MEMB      93              0.0000000000
     11592        93  PMPE      H10X          -20.5944076869       37.8880300677        7.4230769506  MEMB      93              0.0000000000
     11593        93  PMPE      H10Y          -19.1275983189       38.7167244921        7.9769686968  MEMB      93              0.0000000000
     11594        93  PMPE      C311          -19.7553571571       39.1563930784        5.8740452774  MEMB      93              0.0000000000
     11595        93  PMPE      H11X          -20.6468158987       39.6115585869        5.4054869571  MEMB      93              0.0000000000
     11596        93  PMPE      H11Y          -19.6402334436       38.1726100748        5.3761464027  MEMB      93              0.0000000000
     11597        93  PMPE      C312          -18.4995986926       39.9877345348        5.5724948971  MEMB      93              0.0000000000
     11598        93  PMPE      H12X          -17.8393357708       39.8037938803        6.4404920316  MEMB      93              0.0000000000
     11599        93  PMPE      H12Y          -18.6235423174       41.0830811464        5.6190337843  MEMB      93              0.0000000000
     11600        93  PMPE      C313          -17.8582495093       39.6141437177        4.2215382185  MEMB      93              0.0000000000
     11601        93  PMPE      H13X          -17.9915683231       38.5163046016        4.0602674407  MEMB      93              0.0000000000
     11602        93  PMPE      H13Y          -16.7786297561       39.8408014430        4.3529541943  MEMB      93              0.0000000000
     11603        93  PMPE      C314          -18.3573608701       40.4720641301        3.0414604504  MEMB      93              0.0000000000
     11604        93  PMPE      H14X          -17.7593920734       41.4165564690        2.9918335993  MEMB      93              0.0000000000
     11605        93  PMPE      H14Y          -19.4117516898       40.7863655457        3.2379974597  MEMB      93              0.0000000000
     11606        93  PMPE      C315          -18.1495972956       39.8320200052        1.6713286646  MEMB      93              0.0000000000
     11607        93  PMPE      H15X          -18.6966344862       38.8842826244        1.4974019477  MEMB      93              0.0000000000
     11608        93  PMPE      H15Y          -17.0764272518       39.5382190822        1.5569216455  MEMB      93              0.0000000000
     11609        93  PMPE      C316          -18.5966585104       40.8093577431        0.6210272237  MEMB      93              0.0000000000
     11610        93  PMPE      H16X          -19.4476458280       41.4197692322        0.7509672190  MEMB      93              0.0000000000
     11611        93  PMPE      H16Y          -18.7020947261       40.3249066350       -0.3200486061  MEMB      93              0.0000000000
     11612        93  PMPE      H16Z          -18.0044134890       41.6988242222        0.5505861128  MEMB      93              0.0000000000
     11613        94  PMPE      N              35.1097332081      -27.6753856840       17.4420509948  MEMB      94              0.0000000000
     11614        94  PMPE      HN1            35.1664297263      -27.9870137168       16.4523840381  MEMB      94              0.0000000000
     11615        94  PMPE      HN2            36.0570586657      -27.7570168681       17.8755191992  MEMB      94              0.0000000000
     11616        94  PMPE      HN3            34.4498898973      -28.3018205011       17.9497428840  MEMB      94              0.0000000000
     11617        94  PMPE      C12            34.6179330593      -26.2493986453       17.5499258482  MEMB      94              0.0000000000
     11618        94  PMPE      H12A           33.7736575454      -26.2614830637       18.2753734849  MEMB      94              0.0000000000
     11619        94  PMPE      H12B           34.2312098343      -25.9802894644       16.5456363815  MEMB      94              0.0000000000
     11620        94  PMPE      C11            35.6916704486      -25.2447136489       18.0349377441  MEMB      94              0.0000000000
     11621        94  PMPE      H11A           35.2482141518      -24.2250075312       17.9902980760  MEMB      94              0.0000000000
     11622        94  PMPE      H11B           36.5681953777      -25.2183840753       17.3518415344  MEMB      94              0.0000000000
     11623        94  PMPE      P              37.2043598924      -26.1880500406       20.0293183847  MEMB      94              0.0000000000
     11624        94  PMPE      O13            37.4707789223      -27.3745838040       19.2223472427  MEMB      94              0.0000000000
     11625        94  PMPE      O14            37.4724437598      -26.1198360662       21.4308839536  MEMB      94              0.0000000000
     11626        94  PMPE      O11            38.2132452285      -25.1921760013       19.8115811553  MEMB      94              0.0000000000
     11627        94  PMPE      O12            36.0123394483      -25.4427050211       19.4030297946  MEMB      94              0.0000000000
     11628        94  PMPE      C1             39.1560133160      -24.1966111851       20.2615757817  MEMB      94              0.0000000000
     11629        94  PMPE      HA             39.9012613021      -24.7535630048       20.8516468900  MEMB      94              0.0000000000
     11630        94  PMPE      HB             38.4825563647      -23.6138195666       20.7628143335  MEMB      94              0.0000000000
     11631        94  PMPE      C2             39.9400702785      -23.1577451438       19.1593271274  MEMB      94              0.0000000000
     11632        94  PMPE      HS             40.3662335448      -22.3974700815       19.8594164418  MEMB      94              0.0000000000
     11633        94  PMPE      O21            39.1977746498      -22.7523345470       18.0241481769  MEMB      94              0.0000000000
     11634        94  PMPE      C21            38.1384931064      -22.1422862190       18.1866461728  MEMB      94              0.0000000000
     11635        94  PMPE      O22            37.7413205157      -21.7478570069       19.2827390006  MEMB      94              0.0000000000
     11636        94  PMPE      C22            37.4356211659      -21.8518932722       16.7893909869  MEMB      94              0.0000000000
     11637        94  PMPE      H2R            37.6239946246      -20.7891227175       16.5378655377  MEMB      94              0.0000000000
     11638        94  PMPE      H2S            36.3347691288      -21.9755754701       16.7953351718  MEMB      94              0.0000000000
     11639        94  PMPE      C3             41.2084403291      -23.6562051862       18.3442011540  MEMB      94              0.0000000000
     11640        94  PMPE      HX             41.8435296848      -23.3984561612       19.1738961047  MEMB      94              0.0000000000
     11641        94  PMPE      HY             41.7354593071      -23.3609054462       17.7907050294  MEMB      94              0.0000000000
     11642        94  PMPE      O31            41.6081273763      -24.8021607733       17.2701773946  MEMB      94              0.0000000000
     11643        94  PMPE      C31            40.7408221907      -24.9385346652       16.1669967604  MEMB      94              0.0000000000
     11644        94  PMPE      O32            40.2153278794      -23.8982688993       16.0043204042  MEMB      94              0.0000000000
     11645        94  PMPE      C32            40.3054292012      -26.4174210319       15.8607674215  MEMB      94              0.0000000000
     11646        94  PMPE      H2X            39.7739482714      -26.9198900762       16.6486347455  MEMB      94              0.0000000000
     11647        94  PMPE      H2Y            41.0739869271      -27.2400229275       15.8382205376  MEMB      94              0.0000000000
     11648        94  PMPE      C23            37.9468717136      -22.6666154529       15.5960711746  MEMB      94              0.0000000000
     11649        94  PMPE      H3R            38.2976744392      -23.5766051383       16.0647137623  MEMB      94              0.0000000000
     11650        94  PMPE      H3S            38.8039819841      -22.1511607970       15.0818221473  MEMB      94              0.0000000000
     11651        94  PMPE      C24            36.9028198732      -23.0948504406       14.5602864002  MEMB      94              0.0000000000
     11652        94  PMPE      H4R            36.1961386763      -22.2511354280       14.4853629743  MEMB      94              0.0000000000
     11653        94  PMPE      H4S            36.2503856014      -23.9441174676       14.8220355252  MEMB      94              0.0000000000
     11654        94  PMPE      C25            37.5705850950      -23.4947892994       13.2507026582  MEMB      94              0.0000000000
     11655        94  PMPE      H5R            37.5616789129      -24.5809294171       13.0966730431  MEMB      94              0.0000000000
     11656        94  PMPE      H5S            38.6013041021      -23.0589666217       13.1930414199  MEMB      94              0.0000000000
     11657        94  PMPE      C26            36.8435641332      -23.0661496173       12.0738610105  MEMB      94              0.0000000000
     11658        94  PMPE      H6R            36.3146151620      -22.2494254064       12.4929949499  MEMB      94              0.0000000000
     11659        94  PMPE      H6S            35.8620786140      -23.4747091277       11.7775689712  MEMB      94              0.0000000000
     11660        94  PMPE      C27            37.8044459015      -23.0896106049       10.9708885486  MEMB      94              0.0000000000
     11661        94  PMPE      H7R            38.2129816887      -24.1421527794       10.8839967984  MEMB      94              0.0000000000
     11662        94  PMPE      H7S            38.5354130898      -22.3433000393       10.5989991144  MEMB      94              0.0000000000
     11663        94  PMPE      C28            36.8233094542      -23.3344782178       10.0770711764  MEMB      94              0.0000000000
     11664        94  PMPE      H8R            36.2876383694      -24.1450411543        9.9573955089  MEMB      94              0.0000000000
     11665        94  PMPE      H8S            37.5782388036      -24.0245788294        9.3553780183  MEMB      94              0.0000000000
     11666        94  PMPE      C29            35.6150183156      -22.2695222229        9.4639371492  MEMB      94              0.0000000000
     11667        94  PMPE      H9R            36.3561151626      -21.5275289342        9.3202215392  MEMB      94              0.0000000000
     11668        94  PMPE      C217           34.1833218457      -22.3644148125        9.6015575619  MEMB      94              0.0000000000
     11669        94  PMPE      H17R           33.7755921677      -21.4471755430        9.9520527364  MEMB      94              0.0000000000
     11670        94  PMPE      H17S           33.9618273639      -23.3867310530        9.4906536731  MEMB      94              0.0000000000
     11671        94  PMPE      C210           34.3592961473      -22.2244390775        8.1955209086  MEMB      94              0.0000000000
     11672        94  PMPE      H10R           34.3042072029      -21.2878503173        7.6145076823  MEMB      94              0.0000000000
     11673        94  PMPE      C211           34.4587443814      -23.4325527530        7.0583522648  MEMB      94              0.0000000000
     11674        94  PMPE      H11R           33.5063446745      -23.4479885958        6.7764421998  MEMB      94              0.0000000000
     11675        94  PMPE      H11S           34.9739436905      -24.3477641645        7.3253060095  MEMB      94              0.0000000000
     11676        94  PMPE      C212           35.3155087840      -23.4270033481        5.7227765697  MEMB      94              0.0000000000
     11677        94  PMPE      H12R           35.5488379552      -24.2113646677        5.0910329044  MEMB      94              0.0000000000
     11678        94  PMPE      H12S           36.1322189026      -22.7294643444        5.5810147496  MEMB      94              0.0000000000
     11679        94  PMPE      C213           35.2082144885      -22.4744415566        4.9761757793  MEMB      94              0.0000000000
     11680        94  PMPE      H13R           34.8182167429      -21.6448784542        5.7936932327  MEMB      94              0.0000000000
     11681        94  PMPE      H13S           34.1533428573      -23.0784859910        4.1852303651  MEMB      94              0.0000000000
     11682        94  PMPE      C214           36.0667552669      -21.3385077390        4.1726781436  MEMB      94              0.0000000000
     11683        94  PMPE      H14R           35.7071548497      -22.5777773389        4.0086566824  MEMB      94              0.0000000000
     11684        94  PMPE      H14S           36.9213168979      -21.2329542545        3.7954308645  MEMB      94              0.0000000000
     11685        94  PMPE      C215           35.6691149753      -20.0296923104        2.8775961816  MEMB      94              0.0000000000
     11686        94  PMPE      H15R           34.5351037789      -19.7643935358        2.4664856879  MEMB      94              0.0000000000
     11687        94  PMPE      H15S           36.0773703690      -20.3276617423        1.8570174616  MEMB      94              0.0000000000
     11688        94  PMPE      C216           36.4229171842      -19.2298455453        3.4847498813  MEMB      94              0.0000000000
     11689        94  PMPE      H16R           36.4291835549      -19.1333822068        4.5168406001  MEMB      94              0.0000000000
     11690        94  PMPE      H16S           37.4361513538      -19.5547053465        3.2604007832  MEMB      94              0.0000000000
     11691        94  PMPE      H16T           35.9608782159      -18.3023065268        3.1130613446  MEMB      94              0.0000000000
     11692        94  PMPE      C33            39.6756809032      -26.0823662163       14.5571572549  MEMB      94              0.0000000000
     11693        94  PMPE      H3X            40.3707701102      -25.8791093944       13.7306538159  MEMB      94              0.0000000000
     11694        94  PMPE      H3Y            38.8247074839      -25.4082082549       14.6315524204  MEMB      94              0.0000000000
     11695        94  PMPE      C34            38.8541496528      -27.1159892646       14.2461747283  MEMB      94              0.0000000000
     11696        94  PMPE      H4X            37.9672885389      -27.0913938512       14.8038891927  MEMB      94              0.0000000000
     11697        94  PMPE      H4Y            39.5546338119      -27.9107758313       14.7672916950  MEMB      94              0.0000000000
     11698        94  PMPE      C35            37.8710590488      -27.3050603287       13.0111732296  MEMB      94              0.0000000000
     11699        94  PMPE      H5X            38.6898335591      -27.1180583189       12.2404348644  MEMB      94              0.0000000000
     11700        94  PMPE      H5Y            37.2455862014      -26.4753220454       12.9785919950  MEMB      94              0.0000000000
     11701        94  PMPE      C36            36.7648460192      -28.6446657986       12.8408566021  MEMB      94              0.0000000000
     11702        94  PMPE      H6X            36.2059944136      -28.6940861323       13.7227439926  MEMB      94              0.0000000000
     11703        94  PMPE      H6Y            37.0683682514      -29.7835324289       12.9966421785  MEMB      94              0.0000000000
     11704        94  PMPE      C37            36.2052446233      -28.9866102593       11.4563121989  MEMB      94              0.0000000000
     11705        94  PMPE      H7X            35.8863444819      -30.0412848190       11.5325055317  MEMB      94              0.0000000000
     11706        94  PMPE      H7Y            36.8915987061      -29.0616056062       10.5564272110  MEMB      94              0.0000000000
     11707        94  PMPE      C38            35.3285613903      -27.8415446498       11.2695901022  MEMB      94              0.0000000000
     11708        94  PMPE      H8X            35.8731137418      -26.8987106390       11.4835794464  MEMB      94              0.0000000000
     11709        94  PMPE      H8Y            34.5476319471      -27.9123805317       12.0492414408  MEMB      94              0.0000000000
     11710        94  PMPE      C39            34.7172169250      -27.9560981502        9.9152893981  MEMB      94              0.0000000000
     11711        94  PMPE      H9X            33.7108247679      -27.5169434773        9.9087467642  MEMB      94              0.0000000000
     11712        94  PMPE      H9Y            34.5271683998      -29.0443688124        9.7749833233  MEMB      94              0.0000000000
     11713        94  PMPE      C310           35.3466344405      -27.2303715717        8.7177843407  MEMB      94              0.0000000000
     11714        94  PMPE      H10X           35.2702838490      -26.1255170284        8.7715431807  MEMB      94              0.0000000000
     11715        94  PMPE      H10Y           34.6293856699      -27.6019807413        7.9603989180  MEMB      94              0.0000000000
     11716        94  PMPE      C311           36.7770341020      -27.5418498724        8.3536637015  MEMB      94              0.0000000000
     11717        94  PMPE      H11X           36.8669148371      -28.6577024114        8.4082017373  MEMB      94              0.0000000000
     11718        94  PMPE      H11Y           37.4116576352      -27.0977825998        9.1813449665  MEMB      94              0.0000000000
     11719        94  PMPE      C312           37.2644311582      -27.1151163838        6.9399840068  MEMB      94              0.0000000000
     11720        94  PMPE      H12X           38.1081513190      -27.7722222584        6.6265665398  MEMB      94              0.0000000000
     11721        94  PMPE      H12Y           37.6448251835      -26.0761381577        6.9459409117  MEMB      94              0.0000000000
     11722        94  PMPE      C313           36.2612990721      -27.1972304804        5.7651255031  MEMB      94              0.0000000000
     11723        94  PMPE      H13X           35.5154720999      -26.3876254649        5.8582724169  MEMB      94              0.0000000000
     11724        94  PMPE      H13Y           35.6713590570      -28.1387350492        5.7283113348  MEMB      94              0.0000000000
     11725        94  PMPE      C314           36.9398238930      -27.0201958625        4.3956124992  MEMB      94              0.0000000000
     11726        94  PMPE      H14X           37.8439957965      -27.6633030256        4.3146338944  MEMB      94              0.0000000000
     11727        94  PMPE      H14Y           37.2942788803      -25.9890816944        4.2097444889  MEMB      94              0.0000000000
     11728        94  PMPE      C315           36.0024552012      -27.2861798468        3.2213859202  MEMB      94              0.0000000000
     11729        94  PMPE      H15X           35.4071174242      -28.2077825370        3.4291620328  MEMB      94              0.0000000000
     11730        94  PMPE      H15Y           36.7251407530      -27.5116471397        2.4095459235  MEMB      94              0.0000000000
     11731        94  PMPE      C316           35.1231479650      -26.0788791155        2.8302541366  MEMB      94              0.0000000000
     11732        94  PMPE      H16X           35.7101353298      -25.1942067109        2.4866203922  MEMB      94              0.0000000000
     11733        94  PMPE      H16Y           34.4868156020      -25.7986404167        3.7081935501  MEMB      94              0.0000000000
     11734        94  PMPE      H16Z           34.4993391945      -26.3244726364        1.9454432799  MEMB      94              0.0000000000
     11735        95  PMPE      N             -42.8186000886        7.5724216130       21.6952461620  MEMB      95              0.0000000000
     11736        95  PMPE      HN1           -41.9251281545        7.6817890337       21.1534997689  MEMB      95              0.0000000000
     11737        95  PMPE      HN2           -42.5463899734        7.6314619717       22.6875226369  MEMB      95              0.0000000000
     11738        95  PMPE      HN3           -43.2024007712        6.6236775793       21.5620872955  MEMB      95              0.0000000000
     11739        95  PMPE      C12           -43.7069708344        8.7703052330       21.3753318559  MEMB      95              0.0000000000
     11740        95  PMPE      H12A          -43.2076843545        9.6596743428       21.8306031606  MEMB      95              0.0000000000
     11741        95  PMPE      H12B          -44.7292207723        8.6371329668       21.7801867071  MEMB      95              0.0000000000
     11742        95  PMPE      C11           -43.8674844059        8.9869704840       19.8821649370  MEMB      95              0.0000000000
     11743        95  PMPE      H11A          -44.5578533846        9.8615636121       19.7442012506  MEMB      95              0.0000000000
     11744        95  PMPE      H11B          -44.4089716999        8.1052745849       19.4490838948  MEMB      95              0.0000000000
     11745        95  PMPE      P             -42.4034814432        9.4660783042       17.7804518108  MEMB      95              0.0000000000
     11746        95  PMPE      O13           -41.5710350689        8.4468544694       17.1682770317  MEMB      95              0.0000000000
     11747        95  PMPE      O14           -41.9893191022       10.7872539106       17.5232846162  MEMB      95              0.0000000000
     11748        95  PMPE      O11           -43.8750517163        9.3221680496       17.3173257044  MEMB      95              0.0000000000
     11749        95  PMPE      O12           -42.5510132884        9.2023299956       19.3506279023  MEMB      95              0.0000000000
     11750        95  PMPE      C1            -44.6708021193       10.3567062839       16.8122838428  MEMB      95              0.0000000000
     11751        95  PMPE      HA            -43.9878277722       11.1528600680       16.4954350269  MEMB      95              0.0000000000
     11752        95  PMPE      HB            -45.4951709917       10.5839216896       17.5428765263  MEMB      95              0.0000000000
     11753        95  PMPE      C2            -45.2228191749       10.1191164954       15.4081081340  MEMB      95              0.0000000000
     11754        95  PMPE      HS            -46.1363557314       10.7424089067       15.2694012936  MEMB      95              0.0000000000
     11755        95  PMPE      O21           -45.4798045793        8.7876767122       15.1237322820  MEMB      95              0.0000000000
     11756        95  PMPE      C21           -46.1936248677        8.1469701530       15.9531269321  MEMB      95              0.0000000000
     11757        95  PMPE      O22           -46.9367945036        8.6008195808       16.8119124861  MEMB      95              0.0000000000
     11758        95  PMPE      C22           -46.0675561183        6.6653178134       15.5780702197  MEMB      95              0.0000000000
     11759        95  PMPE      H2R           -46.7236808781        6.0417936098       16.2149346138  MEMB      95              0.0000000000
     11760        95  PMPE      H2S           -45.0202223712        6.3913239602       15.8186455993  MEMB      95              0.0000000000
     11761        95  PMPE      C3            -44.3187413370       10.4683026148       14.3003508945  MEMB      95              0.0000000000
     11762        95  PMPE      HX            -44.2907963880       11.5048067129       14.1693321877  MEMB      95              0.0000000000
     11763        95  PMPE      HY            -44.7976639313       10.4625626406       13.3113675127  MEMB      95              0.0000000000
     11764        95  PMPE      O31           -43.0790826053        9.7214114205       14.4074110038  MEMB      95              0.0000000000
     11765        95  PMPE      C31           -42.4818778629       10.0111038500       13.4141301032  MEMB      95              0.0000000000
     11766        95  PMPE      O32           -42.8752359244       10.9534987855       12.6997623132  MEMB      95              0.0000000000
     11767        95  PMPE      C32           -41.3443487471        8.8831308978       13.3525285171  MEMB      95              0.0000000000
     11768        95  PMPE      H2X           -40.8027941074        8.8171216794       14.3126218836  MEMB      95              0.0000000000
     11769        95  PMPE      H2Y           -40.6884206952        9.3628157186       12.8318850531  MEMB      95              0.0000000000
     11770        95  PMPE      C23           -46.2963749032        6.4823964792       14.0475920495  MEMB      95              0.0000000000
     11771        95  PMPE      H3R           -47.0144835969        7.2559036905       13.6985678576  MEMB      95              0.0000000000
     11772        95  PMPE      H3S           -46.8436746140        5.5385508415       13.8754034829  MEMB      95              0.0000000000
     11773        95  PMPE      C24           -44.9547580242        6.5343068658       13.2547472082  MEMB      95              0.0000000000
     11774        95  PMPE      H4R           -44.2255594316        5.8490895238       13.7555271087  MEMB      95              0.0000000000
     11775        95  PMPE      H4S           -44.5435167061        7.5686503520       13.3017270299  MEMB      95              0.0000000000
     11776        95  PMPE      C25           -44.9959012073        6.0959497751       11.7876835516  MEMB      95              0.0000000000
     11777        95  PMPE      H5R           -45.4337536110        5.0827994504       11.7425754916  MEMB      95              0.0000000000
     11778        95  PMPE      H5S           -43.9870018731        6.0363198713       11.3207802339  MEMB      95              0.0000000000
     11779        95  PMPE      C26           -45.8477635650        6.8868017642       10.8437853367  MEMB      95              0.0000000000
     11780        95  PMPE      H6R           -45.3130737610        7.8393644846       10.6103787311  MEMB      95              0.0000000000
     11781        95  PMPE      H6S           -46.8117637452        7.1604550546       11.3362502241  MEMB      95              0.0000000000
     11782        95  PMPE      C27           -45.9891740995        5.9777195766        9.5901601179  MEMB      95              0.0000000000
     11783        95  PMPE      H7R           -46.9078944024        6.1700898748        9.1043127692  MEMB      95              0.0000000000
     11784        95  PMPE      H7S           -46.1724379920        4.9510399136        9.8014207345  MEMB      95              0.0000000000
     11785        95  PMPE      C28           -44.9534100865        6.2409226497        8.4622333021  MEMB      95              0.0000000000
     11786        95  PMPE      H8R           -44.0020257192        5.9577491301        8.9136994848  MEMB      95              0.0000000000
     11787        95  PMPE      H8S           -44.8548991098        7.3176696906        8.1795404809  MEMB      95              0.0000000000
     11788        95  PMPE      C29           -45.2284925742        5.4748444786        7.1654300465  MEMB      95              0.0000000000
     11789        95  PMPE      H9R           -46.2850196222        5.3264583502        6.8318896495  MEMB      95              0.0000000000
     11790        95  PMPE      C217          -44.2638210691        4.2200513619        6.9934665878  MEMB      95              0.0000000000
     11791        95  PMPE      H17R          -44.8426494302        3.4197757293        6.5138627195  MEMB      95              0.0000000000
     11792        95  PMPE      H17S          -43.8575567316        4.0705197418        7.9948920979  MEMB      95              0.0000000000
     11793        95  PMPE      C210          -44.1566971108        5.3825730340        6.1675581709  MEMB      95              0.0000000000
     11794        95  PMPE      H10R          -44.4682367864        5.0206750826        5.1804874379  MEMB      95              0.0000000000
     11795        95  PMPE      C211          -42.7988244665        5.9287825232        6.4562400884  MEMB      95              0.0000000000
     11796        95  PMPE      H11R          -42.2014105811        5.3205362694        7.1740560205  MEMB      95              0.0000000000
     11797        95  PMPE      H11S          -42.9686950036        6.9329147416        6.8807307958  MEMB      95              0.0000000000
     11798        95  PMPE      C212          -42.0950659361        6.0962982744        5.1333132426  MEMB      95              0.0000000000
     11799        95  PMPE      H12R          -41.3424537480        6.8801362419        5.1041124558  MEMB      95              0.0000000000
     11800        95  PMPE      H12S          -42.8716295636        6.4033598362        4.4045419590  MEMB      95              0.0000000000
     11801        95  PMPE      C213          -41.1975535220        4.9734990628        4.7535970566  MEMB      95              0.0000000000
     11802        95  PMPE      H13R          -41.7966959250        4.4115955012        4.2974070068  MEMB      95              0.0000000000
     11803        95  PMPE      H13S          -40.8584558427        4.2180890970        5.4416034233  MEMB      95              0.0000000000
     11804        95  PMPE      C214          -40.3623374009        5.1045648042        3.5744652165  MEMB      95              0.0000000000
     11805        95  PMPE      H14R          -40.0597843068        4.0811116535        3.2008444883  MEMB      95              0.0000000000
     11806        95  PMPE      H14S          -39.4962755993        5.6307513095        4.0472562111  MEMB      95              0.0000000000
     11807        95  PMPE      C215          -40.9384887919        5.8520039056        2.3587548214  MEMB      95              0.0000000000
     11808        95  PMPE      H15R          -40.3055421375        6.0543956150        1.5633620651  MEMB      95              0.0000000000
     11809        95  PMPE      H15S          -41.1431321109        6.9045003356        2.5289613314  MEMB      95              0.0000000000
     11810        95  PMPE      C216          -41.7784922194        5.0244714077        1.4420184098  MEMB      95              0.0000000000
     11811        95  PMPE      H16R          -42.2748980573        5.6967960571        0.7136367305  MEMB      95              0.0000000000
     11812        95  PMPE      H16S          -41.2008762604        4.1836630057        0.9605981205  MEMB      95              0.0000000000
     11813        95  PMPE      H16T          -42.4966781481        4.6480629053        2.1534066221  MEMB      95              0.0000000000
     11814        95  PMPE      C33           -40.7607158675        7.9484602858       12.2010221452  MEMB      95              0.0000000000
     11815        95  PMPE      H3X           -41.3705804272        7.1953588490       12.6752715693  MEMB      95              0.0000000000
     11816        95  PMPE      H3Y           -39.6553223388        7.8068987441       12.3114489933  MEMB      95              0.0000000000
     11817        95  PMPE      C34           -41.0045201562        8.1430456371       10.6133852843  MEMB      95              0.0000000000
     11818        95  PMPE      H4X           -42.1491707616        8.3082336048       10.6708662541  MEMB      95              0.0000000000
     11819        95  PMPE      H4Y           -40.8096976247        7.1658148201       10.3124950521  MEMB      95              0.0000000000
     11820        95  PMPE      C35           -39.9832906223        9.1827837775        9.5887502340  MEMB      95              0.0000000000
     11821        95  PMPE      H5X           -39.0341890042        8.9281624698        9.7604680640  MEMB      95              0.0000000000
     11822        95  PMPE      H5Y           -39.5049001947       10.3484045183        9.8458949600  MEMB      95              0.0000000000
     11823        95  PMPE      C36           -40.4529714970        9.7994090265        8.4345093378  MEMB      95              0.0000000000
     11824        95  PMPE      H6X           -40.9861821761       10.7694889959        8.4032018541  MEMB      95              0.0000000000
     11825        95  PMPE      H6Y           -40.9315688082        8.8755201751        8.1198669084  MEMB      95              0.0000000000
     11826        95  PMPE      C37           -39.6139642613       10.4601616270        7.6314117168  MEMB      95              0.0000000000
     11827        95  PMPE      H7X           -38.8738591295        9.7355224711        7.7664461246  MEMB      95              0.0000000000
     11828        95  PMPE      H7Y           -39.4966219568       11.5536851005        7.8554884942  MEMB      95              0.0000000000
     11829        95  PMPE      C38           -40.1463373142       10.1085629353        6.3530869263  MEMB      95              0.0000000000
     11830        95  PMPE      H8X           -40.9015079024        9.3617572601        6.1646229356  MEMB      95              0.0000000000
     11831        95  PMPE      H8Y           -39.4392577565       10.3095125222        5.5689502630  MEMB      95              0.0000000000
     11832        95  PMPE      C39           -40.9465875333       10.9925476821        6.1302305526  MEMB      95              0.0000000000
     11833        95  PMPE      H9X           -39.7987406737       11.8731929537        5.8155241330  MEMB      95              0.0000000000
     11834        95  PMPE      H9Y           -41.2026738595       11.6048235577        6.8854168428  MEMB      95              0.0000000000
     11835        95  PMPE      C310          -42.4019143327       10.7913058232        5.0068854294  MEMB      95              0.0000000000
     11836        95  PMPE      H10X          -41.8919503097       10.5642504960        4.4499217883  MEMB      95              0.0000000000
     11837        95  PMPE      H10Y          -42.8211119347       11.7452006243        4.2901904888  MEMB      95              0.0000000000
     11838        95  PMPE      C311          -43.7136667488       10.2119566049        4.9977926290  MEMB      95              0.0000000000
     11839        95  PMPE      H11X          -44.4618599284       10.8779355223        5.4947012204  MEMB      95              0.0000000000
     11840        95  PMPE      H11Y          -43.3434978751        9.4066527435        5.5190080174  MEMB      95              0.0000000000
     11841        95  PMPE      C312          -44.2022058688        9.7513282668        3.7497588286  MEMB      95              0.0000000000
     11842        95  PMPE      H12X          -43.6695380568        9.3026391847        2.9752812927  MEMB      95              0.0000000000
     11843        95  PMPE      H12Y          -44.2255366233       10.7725189112        3.3267104393  MEMB      95              0.0000000000
     11844        95  PMPE      C313          -45.3490101405        8.8153626191        4.0759178763  MEMB      95              0.0000000000
     11845        95  PMPE      H13X          -45.9324238770        9.4081970501        4.8704793263  MEMB      95              0.0000000000
     11846        95  PMPE      H13Y          -45.0492382135        7.9930047032        4.6503708008  MEMB      95              0.0000000000
     11847        95  PMPE      C314          -46.1663397584        8.4008524823        2.7143260941  MEMB      95              0.0000000000
     11848        95  PMPE      H14X          -47.0545306534        7.8758277157        3.0716271991  MEMB      95              0.0000000000
     11849        95  PMPE      H14Y          -45.4395414770        8.0106384930        2.0533366883  MEMB      95              0.0000000000
     11850        95  PMPE      C315          -47.0850293233        9.3213351191        1.7600617617  MEMB      95              0.0000000000
     11851        95  PMPE      H15X          -47.7791042653        9.1368391464        1.0387158563  MEMB      95              0.0000000000
     11852        95  PMPE      H15Y          -46.4654542128       10.0250188470        1.1053812908  MEMB      95              0.0000000000
     11853        95  PMPE      C316          -48.3899255398        9.9098210194        2.5054973278  MEMB      95              0.0000000000
     11854        95  PMPE      H16X          -49.0024062015       10.2271404786        3.0980756261  MEMB      95              0.0000000000
     11855        95  PMPE      H16Y          -48.0923946621       11.0751454069        1.8611059719  MEMB      95              0.0000000000
     11856        95  PMPE      H16Z          -48.1000594253        9.5521745020        4.1209657737  MEMB      95              0.0000000000
     11857        96  PMPE      N              19.2999020741      -38.8959738448       21.3831548564  MEMB      96              0.0000000000
     11858        96  PMPE      HN1            18.4413407179      -39.0944210298       21.9375958598  MEMB      96              0.0000000000
     11859        96  PMPE      HN2            19.7457103903      -39.7791334946       21.0449284851  MEMB      96              0.0000000000
     11860        96  PMPE      HN3            19.9925076549      -38.4155331644       21.9714587428  MEMB      96              0.0000000000
     11861        96  PMPE      C12            19.0451241507      -38.0236693554       20.1730603748  MEMB      96              0.0000000000
     11862        96  PMPE      H12A           19.9825837462      -37.9765692353       19.5837059158  MEMB      96              0.0000000000
     11863        96  PMPE      H12B           18.7922346528      -37.0078254441       20.5202653563  MEMB      96              0.0000000000
     11864        96  PMPE      C11            17.9476833538      -38.6265303568       19.3108248960  MEMB      96              0.0000000000
     11865        96  PMPE      H11A           17.7161296311      -37.9766900965       18.4333036543  MEMB      96              0.0000000000
     11866        96  PMPE      H11B           17.0223200233      -38.6303179976       19.9167154796  MEMB      96              0.0000000000
     11867        96  PMPE      P              17.2806172805      -40.9475516599       18.2846315808  MEMB      96              0.0000000000
     11868        96  PMPE      O13            15.9414253344      -40.6530642243       18.8137757382  MEMB      96              0.0000000000
     11869        96  PMPE      O14            17.8704398382      -42.2976169441       18.4108372397  MEMB      96              0.0000000000
     11870        96  PMPE      O11            17.3575524227      -40.4898817243       16.7669650395  MEMB      96              0.0000000000
     11871        96  PMPE      O12            18.3361012218      -39.9514413539       18.9557285669  MEMB      96              0.0000000000
     11872        96  PMPE      C1             18.5925084380      -40.1947448856       16.1478887839  MEMB      96              0.0000000000
     11873        96  PMPE      HA             19.4039222932      -40.3823617036       16.8704291620  MEMB      96              0.0000000000
     11874        96  PMPE      HB             18.6268595077      -39.1138814297       15.9109183771  MEMB      96              0.0000000000
     11875        96  PMPE      C2             18.7727522404      -41.0258291125       14.8388689104  MEMB      96              0.0000000000
     11876        96  PMPE      HS             19.5628608884      -40.5499574214       14.2334359484  MEMB      96              0.0000000000
     11877        96  PMPE      O21            17.5430440579      -41.0221816829       14.1093947595  MEMB      96              0.0000000000
     11878        96  PMPE      C21            17.4841917897      -41.0027668897       12.7910055107  MEMB      96              0.0000000000
     11879        96  PMPE      O22            18.4135800015      -41.0696364398       12.0113145824  MEMB      96              0.0000000000
     11880        96  PMPE      C22            16.0096739149      -40.8521572938       12.3993051267  MEMB      96              0.0000000000
     11881        96  PMPE      H2R            15.6155038563      -39.9627454021       12.9521408801  MEMB      96              0.0000000000
     11882        96  PMPE      H2S            15.4881637580      -41.8056345154       12.6408421416  MEMB      96              0.0000000000
     11883        96  PMPE      C3             19.2033891138      -42.4761340508       15.2010763781  MEMB      96              0.0000000000
     11884        96  PMPE      HX             18.4333460070      -42.9504896396       15.8208298771  MEMB      96              0.0000000000
     11885        96  PMPE      HY             20.0746075030      -42.4642533738       15.8473545676  MEMB      96              0.0000000000
     11886        96  PMPE      O31            19.3084607558      -43.2869510871       14.0368864005  MEMB      96              0.0000000000
     11887        96  PMPE      C31            20.4155081516      -43.7673682802       13.5679903954  MEMB      96              0.0000000000
     11888        96  PMPE      O32            21.5207796789      -43.6811060297       13.9309953625  MEMB      96              0.0000000000
     11889        96  PMPE      C32            20.3787719875      -44.5341853233       12.3299777384  MEMB      96              0.0000000000
     11890        96  PMPE      H2X            19.4114166810      -44.4102420904       11.8761155570  MEMB      96              0.0000000000
     11891        96  PMPE      H2Y            20.5929377422      -45.5778252400       12.6300813492  MEMB      96              0.0000000000
     11892        96  PMPE      C23            15.7674582971      -40.5785396645       10.9121977929  MEMB      96              0.0000000000
     11893        96  PMPE      H3R            16.3996422068      -39.8743354391       10.4951361063  MEMB      96              0.0000000000
     11894        96  PMPE      H3S            14.7422651685      -40.2414443298       10.7290705946  MEMB      96              0.0000000000
     11895        96  PMPE      C24            16.2129718016      -41.5640741251        9.8682179892  MEMB      96              0.0000000000
     11896        96  PMPE      H4R            17.3161168623      -41.4393967733        9.7480289134  MEMB      96              0.0000000000
     11897        96  PMPE      H4S            15.7751028768      -41.2260808478        8.9009797853  MEMB      96              0.0000000000
     11898        96  PMPE      C25            15.6736785548      -42.9262130887       10.2355479518  MEMB      96              0.0000000000
     11899        96  PMPE      H5R            14.6286533977      -42.7107306223       10.5755728035  MEMB      96              0.0000000000
     11900        96  PMPE      H5S            16.1756520494      -43.3537048372       11.1223203057  MEMB      96              0.0000000000
     11901        96  PMPE      C26            15.5628908632      -43.9103089229        9.0632456723  MEMB      96              0.0000000000
     11902        96  PMPE      H6R            15.1341551630      -43.3561915319        8.1977739638  MEMB      96              0.0000000000
     11903        96  PMPE      H6S            14.8748381980      -44.7158203198        9.4056264685  MEMB      96              0.0000000000
     11904        96  PMPE      C27            16.8247830676      -44.6712332654        8.6398978737  MEMB      96              0.0000000000
     11905        96  PMPE      H7R            16.8666345105      -45.6309792247        9.1883793878  MEMB      96              0.0000000000
     11906        96  PMPE      H7S            17.7107984916      -44.1220021355        8.9886983058  MEMB      96              0.0000000000
     11907        96  PMPE      C28            16.8909745667      -45.0020703081        7.1403880394  MEMB      96              0.0000000000
     11908        96  PMPE      H8R            16.4397440107      -44.1483242219        6.5875436938  MEMB      96              0.0000000000
     11909        96  PMPE      H8S            16.2491398295      -45.9093613780        6.9783706831  MEMB      96              0.0000000000
     11910        96  PMPE      C29            18.3475724611      -45.3007187676        6.7260048877  MEMB      96              0.0000000000
     11911        96  PMPE      H9R            18.9030980225      -46.0218433847        7.3416955467  MEMB      96              0.0000000000
     11912        96  PMPE      C217           19.2340053406      -44.2457150347        6.0430620187  MEMB      96              0.0000000000
     11913        96  PMPE      H17R           20.3006618311      -44.3904228822        6.1525697777  MEMB      96              0.0000000000
     11914        96  PMPE      H17S           18.7483852837      -43.2854136815        5.9101773294  MEMB      96              0.0000000000
     11915        96  PMPE      C210           18.6230877477      -45.3976033117        5.2521823192  MEMB      96              0.0000000000
     11916        96  PMPE      H10R           19.2902169617      -46.2073955022        4.8966617967  MEMB      96              0.0000000000
     11917        96  PMPE      C211           17.6311942112      -44.9027920996        4.2344777525  MEMB      96              0.0000000000
     11918        96  PMPE      H11R           18.1948680197      -45.0194877109        3.2922995180  MEMB      96              0.0000000000
     11919        96  PMPE      H11S           17.3818875516      -43.8344300885        4.3799053989  MEMB      96              0.0000000000
     11920        96  PMPE      C212           16.3412545513      -45.7013700194        4.1395796023  MEMB      96              0.0000000000
     11921        96  PMPE      H12R           15.6352361763      -45.5070774829        4.9567315909  MEMB      96              0.0000000000
     11922        96  PMPE      H12S           16.5673026793      -46.7866636166        4.0840969933  MEMB      96              0.0000000000
     11923        96  PMPE      C213           15.5917827839      -45.4165342199        2.9288105323  MEMB      96              0.0000000000
     11924        96  PMPE      H13R           14.9648698562      -44.4606783304        2.9404245052  MEMB      96              0.0000000000
     11925        96  PMPE      H13S           14.8852491404      -46.3128208682        2.9267718978  MEMB      96              0.0000000000
     11926        96  PMPE      C214           16.5616916271      -45.4580204798        1.7583291138  MEMB      96              0.0000000000
     11927        96  PMPE      H14R           16.8828039025      -46.4811113913        1.4687488331  MEMB      96              0.0000000000
     11928        96  PMPE      H14S           17.2989092982      -44.6671208428        1.6215554677  MEMB      96              0.0000000000
     11929        96  PMPE      C215           15.9732928359      -44.8165944481        0.7784001596  MEMB      96              0.0000000000
     11930        96  PMPE      H15R           16.6707449583      -44.8949010242       -0.0928643892  MEMB      96              0.0000000000
     11931        96  PMPE      H15S           16.1251555226      -43.9174974118        0.2983380003  MEMB      96              0.0000000000
     11932        96  PMPE      C216           14.7414199934      -45.4833455494        0.9894670947  MEMB      96              0.0000000000
     11933        96  PMPE      H16R           15.0057680049      -46.6679046302        0.8335950964  MEMB      96              0.0000000000
     11934        96  PMPE      H16S           13.7341827183      -45.0874246696        0.9163397967  MEMB      96              0.0000000000
     11935        96  PMPE      H16T           13.7298628496      -45.1931404701        0.4651883316  MEMB      96              0.0000000000
     11936        96  PMPE      C33            21.5191753023      -44.1028552998       11.3740860883  MEMB      96              0.0000000000
     11937        96  PMPE      H3X            21.5675749662      -44.8941371083       10.5858762697  MEMB      96              0.0000000000
     11938        96  PMPE      H3Y            22.5136591303      -44.0174842634       11.8866570355  MEMB      96              0.0000000000
     11939        96  PMPE      C34            21.1872851145      -42.8055861819       10.6520905765  MEMB      96              0.0000000000
     11940        96  PMPE      H4X            21.2905340209      -41.9189437039       11.2672541800  MEMB      96              0.0000000000
     11941        96  PMPE      H4Y            20.1020234565      -42.6917464681       10.5222498536  MEMB      96              0.0000000000
     11942        96  PMPE      C35            21.9598581180      -42.7032451091        9.3408441222  MEMB      96              0.0000000000
     11943        96  PMPE      H5X            21.6787785061      -43.6363963988        8.8155893980  MEMB      96              0.0000000000
     11944        96  PMPE      H5Y            23.0719390291      -42.6852864779        9.4182124269  MEMB      96              0.0000000000
     11945        96  PMPE      C36            21.4872519460      -41.5367564892        8.5360625606  MEMB      96              0.0000000000
     11946        96  PMPE      H6X            20.4152846336      -41.3313827393        8.7495584831  MEMB      96              0.0000000000
     11947        96  PMPE      H6Y            21.4348006147      -41.7828497100        7.4591366568  MEMB      96              0.0000000000
     11948        96  PMPE      C37            22.3853016597      -40.3709284611        8.6789404700  MEMB      96              0.0000000000
     11949        96  PMPE      H7X            23.3936473021      -40.3255013879        8.2386916562  MEMB      96              0.0000000000
     11950        96  PMPE      H7Y            22.4044549424      -39.8830133671        9.6815322500  MEMB      96              0.0000000000
     11951        96  PMPE      C38            21.7742761944      -39.6322252765        7.6824865945  MEMB      96              0.0000000000
     11952        96  PMPE      H8X            22.0954749074      -38.9011119712        8.1293056257  MEMB      96              0.0000000000
     11953        96  PMPE      H8Y            20.7730498491      -39.2651076273        8.0530897377  MEMB      96              0.0000000000
     11954        96  PMPE      C39            22.5028823866      -39.5597327475        6.2597741904  MEMB      96              0.0000000000
     11955        96  PMPE      H9X            23.5015652179      -39.1975315185        6.0994826507  MEMB      96              0.0000000000
     11956        96  PMPE      H9Y            22.3386477119      -38.8070825778        5.5422662955  MEMB      96              0.0000000000
     11957        96  PMPE      C310           22.2818743882      -40.5849853690        5.3324660554  MEMB      96              0.0000000000
     11958        96  PMPE      H10X           22.6326269852      -41.3561926356        5.9258187337  MEMB      96              0.0000000000
     11959        96  PMPE      H10Y           22.9357290642      -40.3390882688        4.4715941171  MEMB      96              0.0000000000
     11960        96  PMPE      C311           20.9323650201      -40.9132586480        5.0044069555  MEMB      96              0.0000000000
     11961        96  PMPE      H11X           20.1048254299      -40.9717775175        5.7205826530  MEMB      96              0.0000000000
     11962        96  PMPE      H11Y           20.8075731538      -41.5939927575        4.1848271421  MEMB      96              0.0000000000
     11963        96  PMPE      C312           20.5990562298      -39.9967224525        4.4487442796  MEMB      96              0.0000000000
     11964        96  PMPE      H12X           21.5717220435      -39.3422893514        3.8267660667  MEMB      96              0.0000000000
     11965        96  PMPE      H12Y           20.9486864666      -38.9856582708        4.6211082940  MEMB      96              0.0000000000
     11966        96  PMPE      C313           19.0181592421      -40.4480316729        3.7891479960  MEMB      96              0.0000000000
     11967        96  PMPE      H13X           18.8024325781      -39.7584710390        3.2085686385  MEMB      96              0.0000000000
     11968        96  PMPE      H13Y           18.0468125691      -39.9425158060        4.0584349975  MEMB      96              0.0000000000
     11969        96  PMPE      C314           18.9336633968      -40.9401400705        2.2620103938  MEMB      96              0.0000000000
     11970        96  PMPE      H14X           19.4856341369      -41.7470797494        2.6199521989  MEMB      96              0.0000000000
     11971        96  PMPE      H14Y           19.7090012543      -40.7363499488        1.5003855615  MEMB      96              0.0000000000
     11972        96  PMPE      C315           17.5845635253      -40.8673555758        1.4847989102  MEMB      96              0.0000000000
     11973        96  PMPE      H15X           17.7542429218      -41.1341424601        0.4193094371  MEMB      96              0.0000000000
     11974        96  PMPE      H15Y           16.9922208275      -39.9115683187        1.3766829376  MEMB      96              0.0000000000
     11975        96  PMPE      C316           16.4372026331      -41.2807949117        2.2419286684  MEMB      96              0.0000000000
     11976        96  PMPE      H16X           16.8635992208      -42.0475825373        2.8725408456  MEMB      96              0.0000000000
     11977        96  PMPE      H16Y           15.7367361807      -41.6765068806        1.5095427507  MEMB      96              0.0000000000
     11978        96  PMPE      H16Z           16.0250944751      -40.4286001484        2.8555174735  MEMB      96              0.0000000000
     11979        97  QMPE      N              20.2120988312       35.6766156025       18.1676978893  MEMB      97              0.0000000000
     11980        97  QMPE      HN1            19.7917440815       36.2415517668       18.9295595486  MEMB      97              0.0000000000
     11981        97  QMPE      HN2            19.5513592075       35.0130244601       17.6961663463  MEMB      97              0.0000000000
     11982        97  QMPE      HN3            21.0050558276       35.1750084656       18.6066889649  MEMB      97              0.0000000000
     11983        97  QMPE      C12            20.8036056970       36.6778337709       17.2450880893  MEMB      97              0.0000000000
     11984        97  QMPE      H12A           20.0312471529       37.0565868216       16.5489703198  MEMB      97              0.0000000000
     11985        97  QMPE      H12B           21.6019411404       36.1544500578       16.6867128130  MEMB      97              0.0000000000
     11986        97  QMPE      C11            21.2707823115       37.8672969814       18.0705561842  MEMB      97              0.0000000000
     11987        97  QMPE      H11A           20.4046346638       38.2667514158       18.6462195209  MEMB      97              0.0000000000
     11988        97  QMPE      H11B           21.6145914610       38.6178195243       17.3066006806  MEMB      97              0.0000000000
     11989        97  QMPE      P              23.0184863944       38.6360252026       19.7992958916  MEMB      97              0.0000000000
     11990        97  QMPE      O13            24.0549807749       38.0546468048       20.6730378757  MEMB      97              0.0000000000
     11991        97  QMPE      O14            21.9966858041       39.5191368127       20.4129936174  MEMB      97              0.0000000000
     11992        97  QMPE      O11            23.6708208296       39.3937970519       18.6011067057  MEMB      97              0.0000000000
     11993        97  QMPE      O12            22.2584873688       37.4638154450       19.0117711076  MEMB      97              0.0000000000
     11994        97  QMPE      C1             24.7710041585       39.1173896008       17.7545035175  MEMB      97              0.0000000000
     11995        97  QMPE      HA             24.4429250304       38.4448989676       16.9317616468  MEMB      97              0.0000000000
     11996        97  QMPE      HB             25.6078997732       38.5831525816       18.2597244406  MEMB      97              0.0000000000
     11997        97  QMPE      C2             25.2647728482       40.4855051635       17.2210649424  MEMB      97              0.0000000000
     11998        97  QMPE      HS             25.8890630742       40.9423702788       18.0177935233  MEMB      97              0.0000000000
     11999        97  QMPE      O21            24.1282559948       41.2980124778       16.9647622040  MEMB      97              0.0000000000
     12000        97  QMPE      C21            24.0492440842       42.5914554382       16.9087324748  MEMB      97              0.0000000000
     12001        97  QMPE      O22            24.7622733787       43.4850372849       17.1702287458  MEMB      97              0.0000000000
     12002        97  QMPE      C22            22.8255701807       43.2311792794       16.5870626817  MEMB      97              0.0000000000
     12003        97  QMPE      H2R            22.6279872659       43.9235161818       17.4553546098  MEMB      97              0.0000000000
     12004        97  QMPE      H2S            22.1860616044       42.3945359772       16.4006376574  MEMB      97              0.0000000000
     12005        97  QMPE      C3             26.0677464599       40.3127974512       15.9397777916  MEMB      97              0.0000000000
     12006        97  QMPE      HX             26.8871114729       39.6205632275       16.1678728114  MEMB      97              0.0000000000
     12007        97  QMPE      HY             26.5576032058       41.2109140810       15.7788118049  MEMB      97              0.0000000000
     12008        97  QMPE      O31            25.2599602909       39.8262767499       14.8554206737  MEMB      97              0.0000000000
     12009        97  QMPE      C31            24.6477373507       40.6558896160       14.0274408114  MEMB      97              0.0000000000
     12010        97  QMPE      O32            24.8819196605       41.8102534880       13.8507839697  MEMB      97              0.0000000000
     12011        97  QMPE      C32            23.6148061798       40.0301909902       13.1306440503  MEMB      97              0.0000000000
     12012        97  QMPE      H2X            22.7225958938       40.6958197949       13.1571142605  MEMB      97              0.0000000000
     12013        97  QMPE      H2Y            24.0570480520       40.1418557282       12.1180920443  MEMB      97              0.0000000000
     12014        97  QMPE      C23            22.9961888327       44.1290569318       15.3585697705  MEMB      97              0.0000000000
     12015        97  QMPE      H3R            23.5246012107       43.5276560913       14.6178084420  MEMB      97              0.0000000000
     12016        97  QMPE      H3S            23.4968372259       45.0971614547       15.6200834123  MEMB      97              0.0000000000
     12017        97  QMPE      C24            21.7237058964       44.3863477899       14.6338081686  MEMB      97              0.0000000000
     12018        97  QMPE      H4R            21.1708943822       44.9710376281       15.3506476528  MEMB      97              0.0000000000
     12019        97  QMPE      H4S            21.2065833070       43.5275415897       14.1866021325  MEMB      97              0.0000000000
     12020        97  QMPE      C25            21.7208989310       45.4339862523       13.6472357319  MEMB      97              0.0000000000
     12021        97  QMPE      H5R            22.3107147602       46.2206854126       14.1671901492  MEMB      97              0.0000000000
     12022        97  QMPE      H5S            20.6829206247       45.7435916766       13.4240539123  MEMB      97              0.0000000000
     12023        97  QMPE      C26            22.2315464593       45.1056289131       12.3488305459  MEMB      97              0.0000000000
     12024        97  QMPE      H6R            23.1231193175       45.1530088624       12.3976152369  MEMB      97              0.0000000000
     12025        97  QMPE      H6S            22.1335190111       45.6999109768       11.5686477564  MEMB      97              0.0000000000
     12026        97  QMPE      C27            22.1374986962       43.9031981371       11.5654560918  MEMB      97              0.0000000000
     12027        97  QMPE      H7R            21.2023292314       44.0887252377       11.0243253962  MEMB      97              0.0000000000
     12028        97  QMPE      H7S            22.1214427713       43.1370651728       12.3141306461  MEMB      97              0.0000000000
     12029        97  QMPE      C28            23.3076227711       43.6075224959       10.6397467815  MEMB      97              0.0000000000
     12030        97  QMPE      H8R            22.9686613602       42.6533205775       10.1834664564  MEMB      97              0.0000000000
     12031        97  QMPE      H8S            24.2355833430       43.4806179067       11.2389293370  MEMB      97              0.0000000000
     12032        97  QMPE      C29            23.4748496214       44.6841710931        9.6406217730  MEMB      97              0.0000000000
     12033        97  QMPE      H9R            23.9330229356       45.6656871435        9.8637508549  MEMB      97              0.0000000000
     12034        97  QMPE      C217           22.5732469246       44.5083859690        8.3781671229  MEMB      97              0.0000000000
     12035        97  QMPE      H17R           22.2090919347       43.5324342497        8.1615695769  MEMB      97              0.0000000000
     12036        97  QMPE      H17S           22.4378471169       45.4204709477        7.8294658425  MEMB      97              0.0000000000
     12037        97  QMPE      C210           23.8592273330       44.2486501965        8.4273299173  MEMB      97              0.0000000000
     12038        97  QMPE      H10R           24.2929946508       45.2880535195        7.9317710379  MEMB      97              0.0000000000
     12039        97  QMPE      C211           24.2290230945       42.5373322607        8.3167959500  MEMB      97              0.0000000000
     12040        97  QMPE      H11R           25.0244832115       42.4827806733        9.0737084615  MEMB      97              0.0000000000
     12041        97  QMPE      H11S           23.5343812672       41.8766758887        8.2927492038  MEMB      97              0.0000000000
     12042        97  QMPE      C212           25.0443147637       41.7567235292        6.9486933427  MEMB      97              0.0000000000
     12043        97  QMPE      H12R           23.8635388183       42.2911401383        6.3603439580  MEMB      97              0.0000000000
     12044        97  QMPE      H12S           24.8959357476       41.0118004226        6.3954455228  MEMB      97              0.0000000000
     12045        97  QMPE      C213           27.3752659071       43.1862498588        5.8595133306  MEMB      97              0.0000000000
     12046        97  QMPE      H13R           27.5598939305       42.3244429784        6.1582146338  MEMB      97              0.0000000000
     12047        97  QMPE      H13S           27.6499137896       44.2501474859        6.3157156998  MEMB      97              0.0000000000
     12048        97  QMPE      C214           26.6988984170       44.3355019754        4.4279571178  MEMB      97              0.0000000000
     12049        97  QMPE      H14R           25.6133792333       43.7855567626        3.9223227813  MEMB      97              0.0000000000
     12050        97  QMPE      H14S           27.2042558452       43.7013943357        4.8395562831  MEMB      97              0.0000000000
     12051        97  QMPE      C215           26.1516463167       45.4878289780        4.4983560724  MEMB      97              0.0000000000
     12052        97  QMPE      H15R           26.8627439947       45.8676964870        5.1898140547  MEMB      97              0.0000000000
     12053        97  QMPE      H15S           25.1023839875       45.5388634142        4.6686934578  MEMB      97              0.0000000000
     12054        97  QMPE      C216           25.6636393527       45.6518704757        3.1994672501  MEMB      97              0.0000000000
     12055        97  QMPE      H16R           25.7108938800       46.7203259288        3.0641239144  MEMB      97              0.0000000000
     12056        97  QMPE      H16S           25.4161995295       44.9470002810        2.3942827125  MEMB      97              0.0000000000
     12057        97  QMPE      H16T           26.5263645413       45.1529260871        2.8301362531  MEMB      97              0.0000000000
     12058        97  QMPE      C33            23.2597558410       38.5677740335       13.4284261534  MEMB      97              0.0000000000
     12059        97  QMPE      H3X            23.0999294797       38.4402207445       14.5224908200  MEMB      97              0.0000000000
     12060        97  QMPE      H3Y            24.1463543607       37.9420327633       13.1579767832  MEMB      97              0.0000000000
     12061        97  QMPE      C34            22.0433653154       38.0956999117       12.5905056747  MEMB      97              0.0000000000
     12062        97  QMPE      H4X            21.8090731604       37.0369319775       12.8314898650  MEMB      97              0.0000000000
     12063        97  QMPE      H4Y            22.3783781952       38.0854079065       11.5375255189  MEMB      97              0.0000000000
     12064        97  QMPE      C35            20.6955747480       38.8260459504       12.8424448374  MEMB      97              0.0000000000
     12065        97  QMPE      H5X            20.8133739288       39.2400046879       13.8580185664  MEMB      97              0.0000000000
     12066        97  QMPE      H5Y            19.9125018769       38.0453740359       12.9864096798  MEMB      97              0.0000000000
     12067        97  QMPE      C36            20.2635375642       39.9955524508       11.9001325727  MEMB      97              0.0000000000
     12068        97  QMPE      H6X            21.1399158714       40.5786744813       11.5665158276  MEMB      97              0.0000000000
     12069        97  QMPE      H6Y            19.5782544793       40.6897146816       12.4589793256  MEMB      97              0.0000000000
     12070        97  QMPE      C37            19.5022446350       39.5607596509       10.6420881943  MEMB      97              0.0000000000
     12071        97  QMPE      H7X            18.8329372285       38.7789879981       11.0554549285  MEMB      97              0.0000000000
     12072        97  QMPE      H7Y            18.9176311752       40.3729540340       10.1570321886  MEMB      97              0.0000000000
     12073        97  QMPE      C38            20.3014893341       38.8318915890        9.5648155715  MEMB      97              0.0000000000
     12074        97  QMPE      H8X            20.7608107374       38.0042763220       10.1384821619  MEMB      97              0.0000000000
     12075        97  QMPE      H8Y            19.5704045648       38.3944911127        8.8435234078  MEMB      97              0.0000000000
     12076        97  QMPE      C39            21.4340069417       39.6236097935        8.8825303929  MEMB      97              0.0000000000
     12077        97  QMPE      H9X            22.1451133919       39.9365598158        9.6753399999  MEMB      97              0.0000000000
     12078        97  QMPE      H9Y            21.0890454167       40.5849093714        8.4445491513  MEMB      97              0.0000000000
     12079        97  QMPE      C310           22.2260376898       38.7910174100        7.8354370481  MEMB      97              0.0000000000
     12080        97  QMPE      H10X           22.6179216224       37.8677160305        8.3373912814  MEMB      97              0.0000000000
     12081        97  QMPE      H10Y           23.0954760194       39.3884616472        7.4770065843  MEMB      97              0.0000000000
     12082        97  QMPE      C311           21.4336769767       38.4387759647        6.5554249606  MEMB      97              0.0000000000
     12083        97  QMPE      H11X           20.7586651942       37.6189994616        6.8105490194  MEMB      97              0.0000000000
     12084        97  QMPE      H11Y           22.0802792360       38.0917723454        5.7143435605  MEMB      97              0.0000000000
     12085        97  QMPE      C312           20.5438213407       39.5635168755        6.0074423432  MEMB      97              0.0000000000
     12086        97  QMPE      H12X           19.8272403414       39.8839023780        6.7932283655  MEMB      97              0.0000000000
     12087        97  QMPE      H12Y           19.9626233742       39.1520429590        5.1422957033  MEMB      97              0.0000000000
     12088        97  QMPE      C313           21.3840165186       40.7591560252        5.5437980762  MEMB      97              0.0000000000
     12089        97  QMPE      H13X           22.0269655860       41.1655290441        6.3526715176  MEMB      97              0.0000000000
     12090        97  QMPE      H13Y           22.0771120589       40.3376284142        4.7920357108  MEMB      97              0.0000000000
     12091        97  QMPE      C314           20.5766294880       41.8942507164        4.9068224188  MEMB      97              0.0000000000
     12092        97  QMPE      H14X           20.9925572868       42.8880326713        5.2015710170  MEMB      97              0.0000000000
     12093        97  QMPE      H14Y           19.5273962645       41.8036138312        5.2616718545  MEMB      97              0.0000000000
     12094        97  QMPE      C315           20.5345535430       41.7815307726        3.3903033775  MEMB      97              0.0000000000
     12095        97  QMPE      H15X           19.8407607953       40.9605370174        3.1327344339  MEMB      97              0.0000000000
     12096        97  QMPE      H15Y           20.2092906628       42.7324557500        2.9020912552  MEMB      97              0.0000000000
     12097        97  QMPE      H15Z           21.5118066660       41.4218212341        3.0136671254  MEMB      97              0.0000000000
     12098        98  PMPG      C13           -32.0553513069       31.1901054129       21.5308557826  MEMB      98              0.0000000000
     12099        98  PMPG      H13A          -32.1922036589       32.2889085337       21.4136300527  MEMB      98              0.0000000000
     12100        98  PMPG      H13B          -32.6360386027       30.9184843541       22.3992246136  MEMB      98              0.0000000000
     12101        98  PMPG      OC3           -30.6933478883       30.8314186006       21.8140301276  MEMB      98              0.0000000000
     12102        98  PMPG      HO3           -30.7392982341       29.9661860364       22.2603600146  MEMB      98              0.0000000000
     12103        98  PMPG      C12           -32.6774364431       30.3982767906       20.3547838381  MEMB      98              0.0000000000
     12104        98  PMPG      H12A          -33.7632763090       30.6429890281       20.2759361471  MEMB      98              0.0000000000
     12105        98  PMPG      OC2           -32.5546590485       28.9980467642       20.5635727878  MEMB      98              0.0000000000
     12106        98  PMPG      HO2           -32.8251476365       28.5972787239       19.7336754010  MEMB      98              0.0000000000
     12107        98  PMPG      C11           -32.0379339217       30.7529994700       19.0238213206  MEMB      98              0.0000000000
     12108        98  PMPG      H11A          -32.4392638662       30.0249461752       18.2789612622  MEMB      98              0.0000000000
     12109        98  PMPG      H11B          -30.9450855549       30.5864035598       19.0681320884  MEMB      98              0.0000000000
     12110        98  PMPG      P             -32.2479180626       32.6948566565       17.2760163553  MEMB      98              0.0000000000
     12111        98  PMPG      O13           -31.6881955995       31.6626857595       16.3810699259  MEMB      98              0.0000000000
     12112        98  PMPG      O14           -31.5981921697       34.0198165970       17.3437546761  MEMB      98              0.0000000000
     12113        98  PMPG      O11           -33.7516005674       32.8945422776       16.9702683834  MEMB      98              0.0000000000
     12114        98  PMPG      O12           -32.3138404700       32.1277169738       18.7503977859  MEMB      98              0.0000000000
     12115        98  PMPG      C1            -34.6211559267       33.1448210729       18.0625851223  MEMB      98              0.0000000000
     12116        98  PMPG      HA            -34.2803380374       33.9769829028       18.7365362343  MEMB      98              0.0000000000
     12117        98  PMPG      HB            -34.8623885571       32.2309079508       18.6344909194  MEMB      98              0.0000000000
     12118        98  PMPG      C2            -35.9251385041       33.4700796379       17.4428433358  MEMB      98              0.0000000000
     12119        98  PMPG      HS            -36.7226347257       33.4209383075       18.2359519227  MEMB      98              0.0000000000
     12120        98  PMPG      O21           -36.2208630158       32.8012156705       16.2470964124  MEMB      98              0.0000000000
     12121        98  PMPG      C21           -36.2625195072       31.5625979878       16.3888339593  MEMB      98              0.0000000000
     12122        98  PMPG      O22           -36.2058672817       30.8795204374       17.3979482607  MEMB      98              0.0000000000
     12123        98  PMPG      C22           -36.4952964578       31.0077996160       15.0768182454  MEMB      98              0.0000000000
     12124        98  PMPG      H2R           -36.4448525981       31.7849937330       14.2693368309  MEMB      98              0.0000000000
     12125        98  PMPG      H2S           -37.5459856487       30.6724496110       15.2205086873  MEMB      98              0.0000000000
     12126        98  PMPG      C3            -35.9077753750       34.7990333434       17.0876820246  MEMB      98              0.0000000000
     12127        98  PMPG      HX            -35.6515396889       35.2969576515       18.1325850631  MEMB      98              0.0000000000
     12128        98  PMPG      HY            -36.9500219105       35.0144195708       16.6102629742  MEMB      98              0.0000000000
     12129        98  PMPG      O31           -34.9458575468       35.3688382726       16.2111607528  MEMB      98              0.0000000000
     12130        98  PMPG      C31           -35.1357319810       35.2045869764       15.0014237089  MEMB      98              0.0000000000
     12131        98  PMPG      O32           -36.0758042873       34.7978179187       14.3242455672  MEMB      98              0.0000000000
     12132        98  PMPG      C32           -33.7660954960       35.4387602799       14.5566685177  MEMB      98              0.0000000000
     12133        98  PMPG      H2X           -32.9344389418       35.8019706251       15.1297003570  MEMB      98              0.0000000000
     12134        98  PMPG      H2Y           -34.0773537143       36.5068160306       14.4875903138  MEMB      98              0.0000000000
     12135        98  PMPG      C23           -35.5243829256       29.8672714074       14.7322848742  MEMB      98              0.0000000000
     12136        98  PMPG      H3R           -35.6565094830       29.1118959618       15.5165014492  MEMB      98              0.0000000000
     12137        98  PMPG      H3S           -34.4889599125       30.1283754609       14.6394739621  MEMB      98              0.0000000000
     12138        98  PMPG      C24           -35.5320249177       29.1970810891       13.4170259670  MEMB      98              0.0000000000
     12139        98  PMPG      H4R           -36.5158386023       29.2269625123       13.3420499126  MEMB      98              0.0000000000
     12140        98  PMPG      H4S           -35.5603672903       28.1698956482       13.5167526682  MEMB      98              0.0000000000
     12141        98  PMPG      C25           -34.7073103393       29.5521299966       12.1924443156  MEMB      98              0.0000000000
     12142        98  PMPG      H5R           -34.8602322154       28.8775427057       11.3146695923  MEMB      98              0.0000000000
     12143        98  PMPG      H5S           -33.7058233624       29.2720521785       12.4738737640  MEMB      98              0.0000000000
     12144        98  PMPG      C26           -34.7943916032       31.0091639265       11.7895966303  MEMB      98              0.0000000000
     12145        98  PMPG      H6R           -33.9844373548       31.2201502558       11.0642004515  MEMB      98              0.0000000000
     12146        98  PMPG      H6S           -34.6814730630       31.6128597397       12.7156452231  MEMB      98              0.0000000000
     12147        98  PMPG      C27           -36.0319289199       31.4842239791       11.0748653908  MEMB      98              0.0000000000
     12148        98  PMPG      H7R           -36.9112298950       31.3476897676       11.6273619524  MEMB      98              0.0000000000
     12149        98  PMPG      H7S           -36.2370353435       30.9319363811       10.1577371945  MEMB      98              0.0000000000
     12150        98  PMPG      C28           -35.9907410221       32.9650196360       10.8552316286  MEMB      98              0.0000000000
     12151        98  PMPG      H8R           -35.0223282086       33.2312365602       10.3773938308  MEMB      98              0.0000000000
     12152        98  PMPG      H8S           -36.0518969355       33.4067120885       11.8755702251  MEMB      98              0.0000000000
     12153        98  PMPG      C29           -37.2447352494       33.3809463633       10.1067618812  MEMB      98              0.0000000000
     12154        98  PMPG      H9R           -38.1896417042       33.4429958490       10.6281952204  MEMB      98              0.0000000000
     12155        98  PMPG      C217          -37.0903986056       34.5072399753        9.1487769803  MEMB      98              0.0000000000
     12156        98  PMPG      H17R          -37.9429045268       35.1563703618        9.0225830055  MEMB      98              0.0000000000
     12157        98  PMPG      H17S          -36.0586858591       34.7701091676        9.0084666344  MEMB      98              0.0000000000
     12158        98  PMPG      C210          -37.4365489629       33.1014532880        8.6414453596  MEMB      98              0.0000000000
     12159        98  PMPG      H10R          -38.4709352746       33.0003751353        8.3027513068  MEMB      98              0.0000000000
     12160        98  PMPG      C211          -36.3829589255       32.4531741600        7.7520511867  MEMB      98              0.0000000000
     12161        98  PMPG      H11R          -35.4068438004       32.7669940837        8.1081510291  MEMB      98              0.0000000000
     12162        98  PMPG      H11S          -36.2457070592       31.4025794961        7.8976897210  MEMB      98              0.0000000000
     12163        98  PMPG      C212          -36.5707642126       32.6544929207        6.1821612926  MEMB      98              0.0000000000
     12164        98  PMPG      H12R          -36.9698683630       33.7216063895        6.0538909989  MEMB      98              0.0000000000
     12165        98  PMPG      H12S          -37.3584764996       32.1991971285        5.6925202446  MEMB      98              0.0000000000
     12166        98  PMPG      C213          -35.2042124517       32.4788584104        5.3426173026  MEMB      98              0.0000000000
     12167        98  PMPG      H13R          -34.8620090685       31.4720389655        5.4701701398  MEMB      98              0.0000000000
     12168        98  PMPG      H13S          -34.2848868133       32.9591094623        5.7109451723  MEMB      98              0.0000000000
     12169        98  PMPG      C214          -35.2878435235       32.8906194602        3.8474292033  MEMB      98              0.0000000000
     12170        98  PMPG      H14R          -36.3612812824       32.7096862599        3.6379823984  MEMB      98              0.0000000000
     12171        98  PMPG      H14S          -34.5861596254       32.3121383234        3.2809417059  MEMB      98              0.0000000000
     12172        98  PMPG      C215          -34.8146887262       34.2326692943        3.2274211708  MEMB      98              0.0000000000
     12173        98  PMPG      H15R          -34.0513491767       34.9935864397        3.6235885681  MEMB      98              0.0000000000
     12174        98  PMPG      H15S          -35.8034816682       34.5628064416        3.3214599242  MEMB      98              0.0000000000
     12175        98  PMPG      C216          -34.6136783356       34.5309236071        1.9487563057  MEMB      98              0.0000000000
     12176        98  PMPG      H16R          -33.6967058418       34.0746403080        1.7709307754  MEMB      98              0.0000000000
     12177        98  PMPG      H16S          -34.3358645337       35.6151083649        1.7789768380  MEMB      98              0.0000000000
     12178        98  PMPG      H16T          -35.5544761510       34.1973846287        1.4620820208  MEMB      98              0.0000000000
     12179        98  PMPG      C33           -33.4530515574       34.3355143143       13.4810028811  MEMB      98              0.0000000000
     12180        98  PMPG      H3X           -34.3280897399       34.2141684428       12.7696332352  MEMB      98              0.0000000000
     12181        98  PMPG      H3Y           -33.1121504876       33.4583877193       13.9858301641  MEMB      98              0.0000000000
     12182        98  PMPG      C34           -32.2293262031       34.4084361024       12.5964715483  MEMB      98              0.0000000000
     12183        98  PMPG      H4X           -31.3319148488       34.8706869441       12.9826603077  MEMB      98              0.0000000000
     12184        98  PMPG      H4Y           -32.8485797595       35.1076962833       12.2672289914  MEMB      98              0.0000000000
     12185        98  PMPG      C35           -32.0227262851       33.5377957821       11.3908052304  MEMB      98              0.0000000000
     12186        98  PMPG      H5X           -32.8654175346       32.8678725733       11.3753109347  MEMB      98              0.0000000000
     12187        98  PMPG      H5Y           -31.0005119148       33.1997552090       11.3898892287  MEMB      98              0.0000000000
     12188        98  PMPG      C36           -32.0015995012       33.9149354558       10.0079297177  MEMB      98              0.0000000000
     12189        98  PMPG      H6X           -31.1314797620       34.5100811161        9.6442855788  MEMB      98              0.0000000000
     12190        98  PMPG      H6Y           -32.9449337007       34.3662383238       10.0527149125  MEMB      98              0.0000000000
     12191        98  PMPG      C37           -32.3887393314       33.0166385816        8.8998385513  MEMB      98              0.0000000000
     12192        98  PMPG      H7X           -32.3306338968       33.6634301472        8.0268105511  MEMB      98              0.0000000000
     12193        98  PMPG      H7Y           -33.3808286323       32.5442379535        9.0267281995  MEMB      98              0.0000000000
     12194        98  PMPG      C38           -31.2972936779       32.1145551815        8.6286511856  MEMB      98              0.0000000000
     12195        98  PMPG      H8X           -31.0037912760       31.7325495585        9.6171696205  MEMB      98              0.0000000000
     12196        98  PMPG      H8Y           -30.4149207961       32.6904614913        8.2848962849  MEMB      98              0.0000000000
     12197        98  PMPG      C39           -31.6910654477       30.9855767389        7.6849078861  MEMB      98              0.0000000000
     12198        98  PMPG      H9X           -32.5888005919       30.4325311366        8.0482553007  MEMB      98              0.0000000000
     12199        98  PMPG      H9Y           -30.8143396188       30.3136203182        7.7968796146  MEMB      98              0.0000000000
     12200        98  PMPG      C310          -31.8040855353       31.3761724701        6.1926854621  MEMB      98              0.0000000000
     12201        98  PMPG      H10X          -32.6373633872       32.0766172074        6.0231979897  MEMB      98              0.0000000000
     12202        98  PMPG      H10Y          -32.0490219279       30.4905801693        5.5634755776  MEMB      98              0.0000000000
     12203        98  PMPG      C311          -30.4926622938       32.0304732035        5.7027365536  MEMB      98              0.0000000000
     12204        98  PMPG      H11X          -29.6478332204       31.4464502865        6.1343744285  MEMB      98              0.0000000000
     12205        98  PMPG      H11Y          -30.4356188130       33.0556795324        6.1291430367  MEMB      98              0.0000000000
     12206        98  PMPG      C312          -30.3242801663       32.1395232162        4.1772117175  MEMB      98              0.0000000000
     12207        98  PMPG      H12X          -30.3829300172       31.1126706564        3.7627551778  MEMB      98              0.0000000000
     12208        98  PMPG      H12Y          -29.3100459591       32.5302731622        3.9059930269  MEMB      98              0.0000000000
     12209        98  PMPG      C313          -31.4454990651       32.9921440042        3.5413238598  MEMB      98              0.0000000000
     12210        98  PMPG      H13X          -31.3568229822       34.0311012253        3.8728603891  MEMB      98              0.0000000000
     12211        98  PMPG      H13Y          -32.4251983733       32.5780292578        3.7235419195  MEMB      98              0.0000000000
     12212        98  PMPG      C314          -31.3840038066       33.1437057727        2.1204365263  MEMB      98              0.0000000000
     12213        98  PMPG      H14X          -32.2372896376       33.1698575432        1.3364502597  MEMB      98              0.0000000000
     12214        98  PMPG      H14Y          -31.3932539683       32.0217261744        2.0070239560  MEMB      98              0.0000000000
     12215        98  PMPG      C315          -29.9586211200       33.9770216961        2.1069134282  MEMB      98              0.0000000000
     12216        98  PMPG      H15X          -30.7370375310       33.9658020576        1.4365854510  MEMB      98              0.0000000000
     12217        98  PMPG      H15Y          -28.9108357525       33.4823935639        1.8638302734  MEMB      98              0.0000000000
     12218        98  PMPG      C316          -29.6403572162       35.3371109285        1.7008901624  MEMB      98              0.0000000000
     12219        98  PMPG      H16X          -30.5276833580       35.9105948425        1.5955131986  MEMB      98              0.0000000000
     12220        98  PMPG      H16Y          -28.8178473763       35.6301263649        1.0156145661  MEMB      98              0.0000000000
     12221        98  PMPG      H16Z          -29.2080591654       35.0819952753        2.6708079776  MEMB      98              0.0000000000
     12222        99  PMPE      N             -41.8325778176      -10.8031580445       20.4020012609  MEMB      99              0.0000000000
     12223        99  PMPE      HN1           -40.9435456511      -11.1071409966       19.9436899496  MEMB      99              0.0000000000
     12224        99  PMPE      HN2           -42.3882406424      -10.2123903680       19.7451354940  MEMB      99              0.0000000000
     12225        99  PMPE      HN3           -41.6159883920      -10.2579486951       21.2547325339  MEMB      99              0.0000000000
     12226        99  PMPE      C12           -42.6134869633      -12.0215482017       20.7446308229  MEMB      99              0.0000000000
     12227        99  PMPE      H12A          -43.2766391255      -11.8162524915       21.5812891069  MEMB      99              0.0000000000
     12228        99  PMPE      H12B          -41.8594650018      -12.8002501549       20.9844456224  MEMB      99              0.0000000000
     12229        99  PMPE      C11           -43.5385939706      -12.4967983084       19.6445287280  MEMB      99              0.0000000000
     12230        99  PMPE      H11A          -44.2910395038      -11.7653801900       19.2874017823  MEMB      99              0.0000000000
     12231        99  PMPE      H11B          -44.1429272472      -13.3294323890       20.0600182331  MEMB      99              0.0000000000
     12232        99  PMPE      P             -42.3983130215      -14.4022033498       18.2476126903  MEMB      99              0.0000000000
     12233        99  PMPE      O13           -43.6035808775      -15.0230435027       17.6820773880  MEMB      99              0.0000000000
     12234        99  PMPE      O14           -41.8000300674      -14.9606374939       19.4659632996  MEMB      99              0.0000000000
     12235        99  PMPE      O11           -41.2184680608      -14.2629768088       17.1895426387  MEMB      99              0.0000000000
     12236        99  PMPE      O12           -42.7278641531      -12.8888387053       18.5672746051  MEMB      99              0.0000000000
     12237        99  PMPE      C1            -41.1181289064      -13.1311136366       16.3327884180  MEMB      99              0.0000000000
     12238        99  PMPE      HA            -40.3166072632      -12.4433351130       16.6863040276  MEMB      99              0.0000000000
     12239        99  PMPE      HB            -42.0581955010      -12.5233835110       16.3713898923  MEMB      99              0.0000000000
     12240        99  PMPE      C2            -40.8927766563      -13.5574226298       14.8409448268  MEMB      99              0.0000000000
     12241        99  PMPE      HS            -40.9357817772      -12.6901946637       14.1716464206  MEMB      99              0.0000000000
     12242        99  PMPE      O21           -41.9175867120      -14.4554797283       14.4607088181  MEMB      99              0.0000000000
     12243        99  PMPE      C21           -43.1273374458      -13.9830636335       14.4579621816  MEMB      99              0.0000000000
     12244        99  PMPE      O22           -43.4610035797      -12.8070924407       14.3558930449  MEMB      99              0.0000000000
     12245        99  PMPE      C22           -44.0396016659      -15.1334318360       14.4364184619  MEMB      99              0.0000000000
     12246        99  PMPE      H2R           -44.8610233221      -15.0332894182       15.1934150198  MEMB      99              0.0000000000
     12247        99  PMPE      H2S           -43.6121536291      -16.1574802798       14.3434819552  MEMB      99              0.0000000000
     12248        99  PMPE      C3            -39.5128741273      -14.2157736590       14.5098320083  MEMB      99              0.0000000000
     12249        99  PMPE      HX            -39.5259717556      -15.2301426040       14.9561206198  MEMB      99              0.0000000000
     12250        99  PMPE      HY            -38.7092819253      -13.6141106648       14.9828801066  MEMB      99              0.0000000000
     12251        99  PMPE      O31           -39.2098184047      -14.2730299588       13.0893394245  MEMB      99              0.0000000000
     12252        99  PMPE      C31           -39.7121546079      -15.3450046511       12.4474296991  MEMB      99              0.0000000000
     12253        99  PMPE      O32           -40.2761797122      -16.2880429387       12.9222405437  MEMB      99              0.0000000000
     12254        99  PMPE      C32           -39.8003239801      -15.2273271719       10.9787427714  MEMB      99              0.0000000000
     12255        99  PMPE      H2X           -39.0799920963      -14.8494960864       10.4763192341  MEMB      99              0.0000000000
     12256        99  PMPE      H2Y           -40.4030531838      -14.3937673552       10.6765123940  MEMB      99              0.0000000000
     12257        99  PMPE      C23           -44.6775851452      -14.8863275745       13.1948760586  MEMB      99              0.0000000000
     12258        99  PMPE      H3R           -45.1319549954      -13.8633367654       13.1243905648  MEMB      99              0.0000000000
     12259        99  PMPE      H3S           -45.3634167131      -15.7041239666       13.5268319514  MEMB      99              0.0000000000
     12260        99  PMPE      C24           -44.0058840493      -15.3312403396       11.9356175998  MEMB      99              0.0000000000
     12261        99  PMPE      H4R           -44.0212347426      -16.4853139029       11.9417554198  MEMB      99              0.0000000000
     12262        99  PMPE      H4S           -43.0502511473      -14.9133924908       11.8984191891  MEMB      99              0.0000000000
     12263        99  PMPE      C25           -44.3229410693      -14.5965190558       10.6525759360  MEMB      99              0.0000000000
     12264        99  PMPE      H5R           -45.0093992046      -15.3974388785       11.0680455429  MEMB      99              0.0000000000
     12265        99  PMPE      H5S           -43.9541119987      -14.8239503571        9.6344824348  MEMB      99              0.0000000000
     12266        99  PMPE      C26           -45.0521918624      -13.3481526945       10.1916135344  MEMB      99              0.0000000000
     12267        99  PMPE      H6R           -45.7649247423      -12.8491032512       10.8563461137  MEMB      99              0.0000000000
     12268        99  PMPE      H6S           -45.6537616944      -13.4201994783        9.2614066864  MEMB      99              0.0000000000
     12269        99  PMPE      C27           -44.0690389925      -12.3953310623       10.1443350716  MEMB      99              0.0000000000
     12270        99  PMPE      H7R           -43.4703177325      -12.4626515385       11.0286686729  MEMB      99              0.0000000000
     12271        99  PMPE      H7S           -44.6986390820      -11.5317369153        9.8986423293  MEMB      99              0.0000000000
     12272        99  PMPE      C28           -43.2228895284      -12.5694800804        9.0945189612  MEMB      99              0.0000000000
     12273        99  PMPE      H8R           -44.0896891460      -12.1956475565        8.4072754689  MEMB      99              0.0000000000
     12274        99  PMPE      H8S           -42.7506138414      -13.6289745592        9.0413694500  MEMB      99              0.0000000000
     12275        99  PMPE      C29           -42.2127484511      -11.6676915202        8.6373528557  MEMB      99              0.0000000000
     12276        99  PMPE      H9R           -41.5328654452      -11.5606681083        9.4373097967  MEMB      99              0.0000000000
     12277        99  PMPE      C217          -42.8055903166      -10.5545511579        7.7750704397  MEMB      99              0.0000000000
     12278        99  PMPE      H17R          -42.4344099580       -9.5743642094        8.0071711938  MEMB      99              0.0000000000
     12279        99  PMPE      H17S          -43.7308180281      -10.7973777908        7.2467884375  MEMB      99              0.0000000000
     12280        99  PMPE      C210          -41.6197411236      -11.3820357874        7.2677074642  MEMB      99              0.0000000000
     12281        99  PMPE      H10R          -40.6970452365      -10.8332874951        7.2610516994  MEMB      99              0.0000000000
     12282        99  PMPE      C211          -41.7458467211      -12.2294087360        6.0546359664  MEMB      99              0.0000000000
     12283        99  PMPE      H11R          -41.7736707513      -11.8269943215        5.0456993042  MEMB      99              0.0000000000
     12284        99  PMPE      H11S          -42.8156630849      -12.1857347559        6.1698289430  MEMB      99              0.0000000000
     12285        99  PMPE      C212          -40.8642344673      -13.5538453507        6.0388989193  MEMB      99              0.0000000000
     12286        99  PMPE      H12R          -41.1670872754      -14.3353091996        5.2637256345  MEMB      99              0.0000000000
     12287        99  PMPE      H12S          -41.0746932393      -14.0657797896        7.0115209251  MEMB      99              0.0000000000
     12288        99  PMPE      C213          -39.4036932718      -13.3727437047        5.8096147624  MEMB      99              0.0000000000
     12289        99  PMPE      H13R          -38.9389205544      -14.1010203813        6.5013647346  MEMB      99              0.0000000000
     12290        99  PMPE      H13S          -39.1384919969      -12.3670800813        6.1662006469  MEMB      99              0.0000000000
     12291        99  PMPE      C214          -38.8642254164      -13.6087010300        4.3863924655  MEMB      99              0.0000000000
     12292        99  PMPE      H14R          -39.3761614775      -14.4472467288        3.8482731116  MEMB      99              0.0000000000
     12293        99  PMPE      H14S          -37.7807610498      -13.8538555804        4.5172234400  MEMB      99              0.0000000000
     12294        99  PMPE      C215          -38.9405425544      -12.3420197566        3.5262088356  MEMB      99              0.0000000000
     12295        99  PMPE      H15R          -38.5274401061      -11.4348108312        4.0069910022  MEMB      99              0.0000000000
     12296        99  PMPE      H15S          -40.0013894163      -12.1100821195        3.3220422807  MEMB      99              0.0000000000
     12297        99  PMPE      C216          -38.2626952189      -12.4044283515        2.1849675041  MEMB      99              0.0000000000
     12298        99  PMPE      H16R          -38.4111576772      -11.3795395977        1.7842887104  MEMB      99              0.0000000000
     12299        99  PMPE      H16S          -37.1704889822      -12.6370565920        2.2741109763  MEMB      99              0.0000000000
     12300        99  PMPE      H16T          -38.7805787654      -13.0212939025        1.4703017252  MEMB      99              0.0000000000
     12301        99  PMPE      C33           -39.6512219915      -16.4129338385       10.0554276150  MEMB      99              0.0000000000
     12302        99  PMPE      H3X           -39.0385638648      -17.2201616665       10.5123674102  MEMB      99              0.0000000000
     12303        99  PMPE      H3Y           -39.2189270312      -16.0352806677        9.0747464105  MEMB      99              0.0000000000
     12304        99  PMPE      C34           -41.0344874927      -16.8653596972        9.7462399021  MEMB      99              0.0000000000
     12305        99  PMPE      H4X           -41.6297833725      -15.9916992256        9.4020223813  MEMB      99              0.0000000000
     12306        99  PMPE      H4Y           -41.4918018264      -17.2104065529       10.6944519213  MEMB      99              0.0000000000
     12307        99  PMPE      C35           -40.9746127608      -17.9442495389        8.6845340690  MEMB      99              0.0000000000
     12308        99  PMPE      H5X           -40.5602208551      -18.8423251839        9.1598982129  MEMB      99              0.0000000000
     12309        99  PMPE      H5Y           -40.3806503885      -17.5571687913        7.8245349530  MEMB      99              0.0000000000
     12310        99  PMPE      C36           -42.2908016224      -18.2735317646        8.1473708746  MEMB      99              0.0000000000
     12311        99  PMPE      H6X           -42.9594375108      -18.5736789655        8.9989319905  MEMB      99              0.0000000000
     12312        99  PMPE      H6Y           -42.3607813302      -18.9676559742        7.3670998088  MEMB      99              0.0000000000
     12313        99  PMPE      C37           -42.7057830501      -17.1418453860        7.3485446764  MEMB      99              0.0000000000
     12314        99  PMPE      H7X           -42.0072596528      -16.3866611513        7.3513866773  MEMB      99              0.0000000000
     12315        99  PMPE      H7Y           -43.1056626326      -16.6996355102        8.2648767348  MEMB      99              0.0000000000
     12316        99  PMPE      C38           -43.3576520814      -17.0160497770        5.8794854468  MEMB      99              0.0000000000
     12317        99  PMPE      H8X           -44.2840785512      -17.4805873533        5.5599147148  MEMB      99              0.0000000000
     12318        99  PMPE      H8Y           -43.0352659237      -17.7910136843        5.5522942206  MEMB      99              0.0000000000
     12319        99  PMPE      C39           -44.4109176855      -16.2047524868        5.2117786331  MEMB      99              0.0000000000
     12320        99  PMPE      H9X           -44.7251686947      -16.3717965158        4.3143909492  MEMB      99              0.0000000000
     12321        99  PMPE      H9Y           -43.3472609454      -15.8391044831        5.2581969417  MEMB      99              0.0000000000
     12322        99  PMPE      C310          -45.8920002107      -15.3529742125        5.4106595530  MEMB      99              0.0000000000
     12323        99  PMPE      H10X          -45.9901533859      -14.7077641029        6.2854086804  MEMB      99              0.0000000000
     12324        99  PMPE      H10Y          -46.6019523197      -16.0581336565        5.4590433818  MEMB      99              0.0000000000
     12325        99  PMPE      C311          -46.3903263003      -13.9973517095        5.1762567338  MEMB      99              0.0000000000
     12326        99  PMPE      H11X          -45.7905796283      -13.1154740941        5.3259575471  MEMB      99              0.0000000000
     12327        99  PMPE      H11Y          -47.1998123281      -13.6868506500        5.8302460038  MEMB      99              0.0000000000
     12328        99  PMPE      C312          -46.6277168918      -14.3409954281        3.7888642977  MEMB      99              0.0000000000
     12329        99  PMPE      H12X          -47.0437876234      -15.4117640603        3.6347336263  MEMB      99              0.0000000000
     12330        99  PMPE      H12Y          -45.9655534250      -14.3599127654        3.2017787547  MEMB      99              0.0000000000
     12331        99  PMPE      C313          -47.1560728215      -13.2547865301        3.1356642546  MEMB      99              0.0000000000
     12332        99  PMPE      H13X          -48.0364548857      -12.9667176887        3.6185123858  MEMB      99              0.0000000000
     12333        99  PMPE      H13Y          -47.3102590969      -13.6517745647        2.1747749322  MEMB      99              0.0000000000
     12334        99  PMPE      C314          -46.6341475754      -12.0279765220        2.7924523368  MEMB      99              0.0000000000
     12335        99  PMPE      H14X          -45.6929636428      -11.9190888346        3.2378023889  MEMB      99              0.0000000000
     12336        99  PMPE      H14Y          -47.3641109690      -11.2467798448        3.1199602444  MEMB      99              0.0000000000
     12337        99  PMPE      C315          -46.4985997176      -11.9521285810        1.3279279466  MEMB      99              0.0000000000
     12338        99  PMPE      H15X          -46.3020640908      -10.9908436281        1.5775635295  MEMB      99              0.0000000000
     12339        99  PMPE      H15Y          -47.4524306546      -12.0248184043        0.8008053099  MEMB      99              0.0000000000
     12340        99  PMPE      C316          -45.2035644022      -12.2861632365        0.6647905484  MEMB      99              0.0000000000
     12341        99  PMPE      H16X          -45.1560314777      -12.4631637357       -0.4183523674  MEMB      99              0.0000000000
     12342        99  PMPE      H16Y          -45.4248074299      -13.1826542484        0.9226677933  MEMB      99              0.0000000000
     12343        99  PMPE      H16Z          -44.3075489802      -12.3970332017        1.2881903451  MEMB      99              0.0000000000
     12344       100  OYPE      N               1.6541109636       45.7870330358       17.4913050848  MEMB      100             0.0000000000
     12345       100  OYPE      HN1             2.0125937669       46.5656451855       18.0971158188  MEMB      100             0.0000000000
     12346       100  OYPE      HN2             2.0544981136       45.9291595393       16.5419969573  MEMB      100             0.0000000000
     12347       100  OYPE      HN3             0.6210942695       45.9095165451       17.4872387084  MEMB      100             0.0000000000
     12348       100  OYPE      C12             1.9117666506       44.4759502180       18.1654090362  MEMB      100             0.0000000000
     12349       100  OYPE      H12A            3.0108767475       44.4441359405       18.2466930751  MEMB      100             0.0000000000
     12350       100  OYPE      H12B            1.5302350503       43.6127294704       17.5641138765  MEMB      100             0.0000000000
     12351       100  OYPE      C11             1.2536369770       44.4803196704       19.5552108763  MEMB      100             0.0000000000
     12352       100  OYPE      H11A            1.8002884089       45.1247356289       20.2529957147  MEMB      100             0.0000000000
     12353       100  OYPE      H11B            1.2890837282       43.4665180872       20.0095855283  MEMB      100             0.0000000000
     12354       100  OYPE      P              -1.2953543935       43.9741963678       19.3497254858  MEMB      100             0.0000000000
     12355       100  OYPE      O13            -1.6764447874       43.5405452764       20.7047343839  MEMB      100             0.0000000000
     12356       100  OYPE      O14            -0.8478416089       42.9612269158       18.3762867506  MEMB      100             0.0000000000
     12357       100  OYPE      O11            -2.4156434220       44.9118656442       18.7790534563  MEMB      100             0.0000000000
     12358       100  OYPE      O12            -0.0745544359       44.9906305229       19.4953152460  MEMB      100             0.0000000000
     12359       100  OYPE      C1             -2.4033648242       45.7130764218       17.6151284175  MEMB      100             0.0000000000
     12360       100  OYPE      HA             -1.4921732813       45.5286962116       17.0050213634  MEMB      100             0.0000000000
     12361       100  OYPE      HB             -2.4722745125       46.7725041276       17.9493115468  MEMB      100             0.0000000000
     12362       100  OYPE      C2             -3.6613968680       45.5075173941       16.6983466195  MEMB      100             0.0000000000
     12363       100  OYPE      HS             -4.5367322193       45.8693411889       17.2870946524  MEMB      100             0.0000000000
     12364       100  OYPE      O21            -3.8019899716       44.1244097493       16.3409505174  MEMB      100             0.0000000000
     12365       100  OYPE      C21            -5.0058607043       43.8941766765       15.8550335236  MEMB      100             0.0000000000
     12366       100  OYPE      O22            -5.8613917762       44.7221745114       15.8760281883  MEMB      100             0.0000000000
     12367       100  OYPE      C22            -5.0988382525       42.5132594493       15.2816977898  MEMB      100             0.0000000000
     12368       100  OYPE      H2R            -5.6855154715       41.8150726921       15.8831040655  MEMB      100             0.0000000000
     12369       100  OYPE      H2S            -4.0568274279       42.3404148043       15.3367424327  MEMB      100             0.0000000000
     12370       100  OYPE      C3             -3.5664250157       46.3352526785       15.3912450832  MEMB      100             0.0000000000
     12371       100  OYPE      HX             -3.3537823344       47.3800170376       15.6826290903  MEMB      100             0.0000000000
     12372       100  OYPE      HY             -4.5663882000       46.3423145941       14.8773958049  MEMB      100             0.0000000000
     12373       100  OYPE      O31            -2.4849456725       45.7542267418       14.6038023810  MEMB      100             0.0000000000
     12374       100  OYPE      C31            -2.5310683610       46.0577393424       13.3176925673  MEMB      100             0.0000000000
     12375       100  OYPE      O32            -3.3619039796       46.7862085508       12.8400241307  MEMB      100             0.0000000000
     12376       100  OYPE      C32            -1.4478167325       45.3127201151       12.5223593543  MEMB      100             0.0000000000
     12377       100  OYPE      H2X            -0.4710354695       45.8182451629       12.6118543546  MEMB      100             0.0000000000
     12378       100  OYPE      H2Y            -1.3129181630       44.3384651146       13.0471641310  MEMB      100             0.0000000000
     12379       100  OYPE      C23            -5.0732302963       42.0801776856       13.8068939325  MEMB      100             0.0000000000
     12380       100  OYPE      H3R            -5.4789494987       42.9400377554       13.6556426181  MEMB      100             0.0000000000
     12381       100  OYPE      H3S            -5.7605504029       41.2810249287       13.5496494565  MEMB      100             0.0000000000
     12382       100  OYPE      C24            -4.3916321653       42.7538055014       12.6671454574  MEMB      100             0.0000000000
     12383       100  OYPE      H4R            -3.4888849088       42.2700346959       13.0084542210  MEMB      100             0.0000000000
     12384       100  OYPE      H4S            -4.1365194196       43.7641358747       12.6929251786  MEMB      100             0.0000000000
     12385       100  OYPE      C25            -4.8078565270       42.4719096421       11.2501793591  MEMB      100             0.0000000000
     12386       100  OYPE      H5R            -4.8785175675       41.5081403006       11.0042044323  MEMB      100             0.0000000000
     12387       100  OYPE      H5S            -3.8888811039       43.0003288605       10.8974540384  MEMB      100             0.0000000000
     12388       100  OYPE      C26            -5.2315872806       42.6358238928        9.8077436852  MEMB      100             0.0000000000
     12389       100  OYPE      H6R            -3.9635929486       43.2373202494        9.3193831329  MEMB      100             0.0000000000
     12390       100  OYPE      H6S            -6.4146822014       42.3604598581       10.5033841825  MEMB      100             0.0000000000
     12391       100  OYPE      C27            -6.0763692256       43.2064188144        8.8181158406  MEMB      100             0.0000000000
     12392       100  OYPE      H7R            -7.1832104371       43.3824021853        8.7495923662  MEMB      100             0.0000000000
     12393       100  OYPE      H7S            -5.6524858335       42.2185903027        8.5712427795  MEMB      100             0.0000000000
     12394       100  OYPE      C28            -5.2281969044       44.2323090135        8.2391529235  MEMB      100             0.0000000000
     12395       100  OYPE      H8R            -4.4321905540       44.7279240746        8.7009345794  MEMB      100             0.0000000000
     12396       100  OYPE      H8S            -5.8445293562       44.8781283518        8.7444511481  MEMB      100             0.0000000000
     12397       100  OYPE      C29            -4.8673352304       44.4056912581        6.9135264899  MEMB      100             0.0000000000
     12398       100  OYPE      H9R            -5.5095169805       43.7222742740        6.3929276544  MEMB      100             0.0000000000
     12399       100  OYPE      C210           -4.1318368344       45.4260149158        6.4488870427  MEMB      100             0.0000000000
     12400       100  OYPE      H10R           -4.1629560668       45.4357203279        5.3988364651  MEMB      100             0.0000000000
     12401       100  OYPE      C211           -3.4716974164       46.6819717611        7.1033393844  MEMB      100             0.0000000000
     12402       100  OYPE      H11R           -3.5061454356       46.7716597861        8.1938123458  MEMB      100             0.0000000000
     12403       100  OYPE      H11S           -4.0289418780       47.6372525306        6.8198781931  MEMB      100             0.0000000000
     12404       100  OYPE      C212           -2.1097274654       46.9910339929        6.6658776530  MEMB      100             0.0000000000
     12405       100  OYPE      H12R           -1.5717254109       46.0512493114        6.8099470315  MEMB      100             0.0000000000
     12406       100  OYPE      H12S           -1.6210596864       47.7337774304        7.3183235608  MEMB      100             0.0000000000
     12407       100  OYPE      C213           -2.1356116224       47.4680183821        5.2265676407  MEMB      100             0.0000000000
     12408       100  OYPE      H13R           -2.4189586881       48.4454735628        5.0354825055  MEMB      100             0.0000000000
     12409       100  OYPE      H13S           -2.9672265747       47.0775538419        4.6424749197  MEMB      100             0.0000000000
     12410       100  OYPE      C214           -0.8016681358       47.4219118020        4.5672197237  MEMB      100             0.0000000000
     12411       100  OYPE      H14R           -0.0459613784       47.4703068633        5.3708316412  MEMB      100             0.0000000000
     12412       100  OYPE      H14S           -0.5657324130       48.2680381012        3.8919669003  MEMB      100             0.0000000000
     12413       100  OYPE      C215           -0.8739309879       46.2142839123        3.6806627135  MEMB      100             0.0000000000
     12414       100  OYPE      H15R           -1.6406684308       46.3848506527        2.8924063911  MEMB      100             0.0000000000
     12415       100  OYPE      H15S           -1.1867277865       45.3454104873        4.2987491495  MEMB      100             0.0000000000
     12416       100  OYPE      C216            0.4045596909       45.8984040618        2.9603280670  MEMB      100             0.0000000000
     12417       100  OYPE      H16R            0.7364902776       46.7529941026        2.3284285047  MEMB      100             0.0000000000
     12418       100  OYPE      H16S            0.2244664216       44.9956590360        2.3383208071  MEMB      100             0.0000000000
     12419       100  OYPE      H16T            1.1417141228       45.6079140513        3.7372200284  MEMB      100             0.0000000000
     12420       100  OYPE      C33            -1.7287828981       45.2413228154       10.9828795937  MEMB      100             0.0000000000
     12421       100  OYPE      H3X            -1.8642094447       46.2248045015       10.4801746532  MEMB      100             0.0000000000
     12422       100  OYPE      H3Y            -2.6655546734       44.7124269547       10.8058469907  MEMB      100             0.0000000000
     12423       100  OYPE      C34            -0.6142060426       44.4698815714       10.2979769989  MEMB      100             0.0000000000
     12424       100  OYPE      H4X             0.2254518650       45.1133798745       10.0891829893  MEMB      100             0.0000000000
     12425       100  OYPE      H4Y            -0.3396687639       43.6541724539       11.0112282038  MEMB      100             0.0000000000
     12426       100  OYPE      C35            -0.8281103895       43.7486156445        9.0122968877  MEMB      100             0.0000000000
     12427       100  OYPE      H5X            -1.1750171539       44.3291507195        8.1420967929  MEMB      100             0.0000000000
     12428       100  OYPE      H5Y            -1.6785770919       43.3168244347        9.5198440578  MEMB      100             0.0000000000
     12429       100  OYPE      C36             0.3858229295       42.8048194396        8.8502050059  MEMB      100             0.0000000000
     12430       100  OYPE      H6X             1.0786201382       43.4112622620        8.2852085973  MEMB      100             0.0000000000
     12431       100  OYPE      H6Y             0.5210546576       42.0999302067        9.6803677949  MEMB      100             0.0000000000
     12432       100  OYPE      C37             0.6616398560       42.0059297620        7.6518580243  MEMB      100             0.0000000000
     12433       100  OYPE      H7X             0.9837231217       40.9937262990        7.2274823731  MEMB      100             0.0000000000
     12434       100  OYPE      H7Y             0.0585226523       41.0286048936        8.3914549606  MEMB      100             0.0000000000
     12435       100  OYPE      C38            -0.5568388110       43.2516975221        6.1121521536  MEMB      100             0.0000000000
     12436       100  OYPE      H8X            -1.6117551538       42.7401169842        5.4080664523  MEMB      100             0.0000000000
     12437       100  OYPE      H8Y            -1.7120611037       43.0705190878        6.1375361086  MEMB      100             0.0000000000
     12438       100  OYPE      C39             0.4330515047       43.4794356519        4.9917268896  MEMB      100             0.0000000000
     12439       100  OYPE      H9X             1.0801917706       43.7739306752        5.7797938671  MEMB      100             0.0000000000
     12440       100  OYPE      C310            0.8916298084       42.9309437766        3.7997711399  MEMB      100             0.0000000000
     12441       100  OYPE      H10X            1.8370886922       43.2192480946        3.4473530453  MEMB      100             0.0000000000
     12442       100  OYPE      C311            0.6822162648       41.7982977331        2.8585820312  MEMB      100             0.0000000000
     12443       100  OYPE      H11X            1.3889303269       40.9852770468        2.5722561305  MEMB      100             0.0000000000
     12444       100  OYPE      H11Y            0.4017168369       41.1409891237        3.3962695373  MEMB      100             0.0000000000
     12445       100  OYPE      C312           -0.5100478513       42.0269043429        1.9897463671  MEMB      100             0.0000000000
     12446       100  OYPE      H12X           -0.4217104707       41.1737327107        1.3172102396  MEMB      100             0.0000000000
     12447       100  OYPE      H12Y           -0.1049539455       42.8821626158        1.5252794071  MEMB      100             0.0000000000
     12448       100  OYPE      C313           -1.9336797237       42.3384166935        2.5239297853  MEMB      100             0.0000000000
     12449       100  OYPE      H13X           -2.5114707275       41.4755046771        2.9967927983  MEMB      100             0.0000000000
     12450       100  OYPE      H13Y           -1.9001401983       43.1890348014        3.2259781176  MEMB      100             0.0000000000
     12451       100  OYPE      C314           -2.9666548833       42.2552499787        1.6562728470  MEMB      100             0.0000000000
     12452       100  OYPE      H14X           -2.8993910353       43.2140549669        1.3663005185  MEMB      100             0.0000000000
     12453       100  OYPE      H14Y           -3.9160169470       42.1674894370        2.2048436181  MEMB      100             0.0000000000
     12454       100  OYPE      C315           -2.6139521579       41.6015113076        0.4476304089  MEMB      100             0.0000000000
     12455       100  OYPE      H15X           -2.1453080879       40.7008638445        0.8784274788  MEMB      100             0.0000000000
     12456       100  OYPE      H15Y           -1.8608217364       41.8016778612       -0.2475798688  MEMB      100             0.0000000000
     12457       100  OYPE      C316           -3.8369898125       41.5444672949       -0.3995005294  MEMB      100             0.0000000000
     12458       100  OYPE      H16X           -4.7856747905       41.0510563262       -0.2522095642  MEMB      100             0.0000000000
     12459       100  OYPE      H16Y           -3.7079271163       40.8157525556       -1.0809358305  MEMB      100             0.0000000000
     12460       100  OYPE      C317           -3.9463634442       42.4962066285       -1.0648248972  MEMB      100             0.0000000000
     12461       100  OYPE      H17X           -4.6615884033       43.0336862453       -0.9231502955  MEMB      100             0.0000000000
     12462       100  OYPE      H17Y           -4.7184419748       42.6375926328       -1.5135196097  MEMB      100             0.0000000000
     12463       100  OYPE      C318           -3.2629020106       42.9375959389       -1.8801489217  MEMB      100             0.0000000000
     12464       100  OYPE      H18X           -2.9011407565       41.9174690568       -2.2053308458  MEMB      100             0.0000000000
     12465       100  OYPE      H18Y           -3.9382494730       43.4869613267       -2.7120293976  MEMB      100             0.0000000000
     12466       100  OYPE      H18Z           -2.4733768130       43.3751425568       -1.4486240035  MEMB      100             0.0000000000
     12467       101  PMPE      N              33.2899292667      -34.4872923065       18.0981295425  MEMB      101             0.0000000000
     12468       101  PMPE      HN1            33.1714093791      -33.5465488656       17.6535490145  MEMB      101             0.0000000000
     12469       101  PMPE      HN2            33.4880609145      -34.3206967935       19.1008044650  MEMB      101             0.0000000000
     12470       101  PMPE      HN3            34.0517888353      -35.0508689939       17.6668234630  MEMB      101             0.0000000000
     12471       101  PMPE      C12            31.9704949520      -35.1925544490       18.0835782344  MEMB      101             0.0000000000
     12472       101  PMPE      H12A           32.1492473515      -36.2521623819       18.3173836534  MEMB      101             0.0000000000
     12473       101  PMPE      H12B           31.5459982136      -35.1543116589       17.0628939327  MEMB      101             0.0000000000
     12474       101  PMPE      C11            31.0509551809      -34.5182718823       19.1005751607  MEMB      101             0.0000000000
     12475       101  PMPE      H11A           31.5269076880      -34.4288736643       20.1106265892  MEMB      101             0.0000000000
     12476       101  PMPE      H11B           30.1093172701      -35.1097958215       19.1667706213  MEMB      101             0.0000000000
     12477       101  PMPE      P              29.9686800273      -32.1311255407       19.4242185175  MEMB      101             0.0000000000
     12478       101  PMPE      O13            30.8109841531      -30.9237298589       19.5628298350  MEMB      101             0.0000000000
     12479       101  PMPE      O14            29.4448406479      -32.7442596876       20.6585772258  MEMB      101             0.0000000000
     12480       101  PMPE      O11            28.7483173706      -31.8664933952       18.4266228176  MEMB      101             0.0000000000
     12481       101  PMPE      O12            30.7610639422      -33.2326942304       18.5964663069  MEMB      101             0.0000000000
     12482       101  PMPE      C1             29.1071207879      -31.0359166842       17.2975343416  MEMB      101             0.0000000000
     12483       101  PMPE      HA             30.1068771863      -31.3186041044       16.8792432465  MEMB      101             0.0000000000
     12484       101  PMPE      HB             29.1256450827      -29.9649401840       17.5901045317  MEMB      101             0.0000000000
     12485       101  PMPE      C2             28.0942559363      -31.1195032529       16.1455420219  MEMB      101             0.0000000000
     12486       101  PMPE      HS             27.1394712155      -30.6834354654       16.5615251430  MEMB      101             0.0000000000
     12487       101  PMPE      O21            28.0570281869      -32.5390321867       15.8172919389  MEMB      101             0.0000000000
     12488       101  PMPE      C21            26.9670174859      -32.9691165611       15.2656545171  MEMB      101             0.0000000000
     12489       101  PMPE      O22            25.9813412658      -32.3346505839       15.2398284855  MEMB      101             0.0000000000
     12490       101  PMPE      C22            26.9722042482      -34.3521278876       14.6949668797  MEMB      101             0.0000000000
     12491       101  PMPE      H2R            27.2340616367      -35.0451067245       15.5185031604  MEMB      101             0.0000000000
     12492       101  PMPE      H2S            27.7746032001      -34.2743445009       13.9494751141  MEMB      101             0.0000000000
     12493       101  PMPE      C3             28.5825550227      -30.2740813591       14.9145582397  MEMB      101             0.0000000000
     12494       101  PMPE      HX             28.7047446561      -29.1885145493       15.1556345642  MEMB      101             0.0000000000
     12495       101  PMPE      HY             27.7786609740      -30.3067097908       14.1411341179  MEMB      101             0.0000000000
     12496       101  PMPE      O31            29.8884959853      -30.7263489228       14.4580130101  MEMB      101             0.0000000000
     12497       101  PMPE      C31            29.9437483993      -31.4520971056       13.3490188537  MEMB      101             0.0000000000
     12498       101  PMPE      O32            28.9925811034      -31.9716946332       12.7951469740  MEMB      101             0.0000000000
     12499       101  PMPE      C32            31.3873068439      -31.4740334386       12.7610305957  MEMB      101             0.0000000000
     12500       101  PMPE      H2X            32.0226306968      -32.1269891164       13.3848576908  MEMB      101             0.0000000000
     12501       101  PMPE      H2Y            31.8158362892      -30.4469410478       12.8231216683  MEMB      101             0.0000000000
     12502       101  PMPE      C23            25.6732125249      -34.7531403445       13.9275240669  MEMB      101             0.0000000000
     12503       101  PMPE      H3R            24.7570259039      -34.2734456631       14.3497651753  MEMB      101             0.0000000000
     12504       101  PMPE      H3S            25.5984623531      -35.8518399514       14.1002547955  MEMB      101             0.0000000000
     12505       101  PMPE      C24            25.7311134237      -34.5426696926       12.3822795087  MEMB      101             0.0000000000
     12506       101  PMPE      H4R            24.9185948290      -35.1445214396       11.9238104408  MEMB      101             0.0000000000
     12507       101  PMPE      H4S            26.6653994157      -34.8561964232       11.9183914753  MEMB      101             0.0000000000
     12508       101  PMPE      C25            25.6863455293      -33.1192917224       11.8753932743  MEMB      101             0.0000000000
     12509       101  PMPE      H5R            26.4146836014      -32.4515914393       12.3545792011  MEMB      101             0.0000000000
     12510       101  PMPE      H5S            24.7052755046      -32.9814859087       12.1389140581  MEMB      101             0.0000000000
     12511       101  PMPE      C26            25.4588302388      -32.8065196559       10.4234648682  MEMB      101             0.0000000000
     12512       101  PMPE      H6R            24.9341342807      -31.8163494765       10.2853089159  MEMB      101             0.0000000000
     12513       101  PMPE      H6S            24.7985129592      -33.6132161783       10.0327219606  MEMB      101             0.0000000000
     12514       101  PMPE      C27            26.8014525515      -32.8245888551        9.7803620415  MEMB      101             0.0000000000
     12515       101  PMPE      H7R            27.1930351931      -33.8466714040        9.9692441780  MEMB      101             0.0000000000
     12516       101  PMPE      H7S            27.4405020445      -32.0785197696       10.3083028222  MEMB      101             0.0000000000
     12517       101  PMPE      C28            26.6898645890      -32.5567640899        8.2875171606  MEMB      101             0.0000000000
     12518       101  PMPE      H8R            26.1891487061      -31.5811495350        8.1455242350  MEMB      101             0.0000000000
     12519       101  PMPE      H8S            26.0455515586      -33.3304403696        7.8457187725  MEMB      101             0.0000000000
     12520       101  PMPE      C29            28.0161147566      -32.5784293841        7.5533787681  MEMB      101             0.0000000000
     12521       101  PMPE      H9R            28.7988799205      -31.9430469294        7.9926015776  MEMB      101             0.0000000000
     12522       101  PMPE      C217           27.8749214966      -32.6212114546        6.0231448233  MEMB      101             0.0000000000
     12523       101  PMPE      H17R           28.6392244642      -32.1425294764        5.4322451439  MEMB      101             0.0000000000
     12524       101  PMPE      H17S           26.8853717129      -32.8092680787        5.6334083513  MEMB      101             0.0000000000
     12525       101  PMPE      C210           28.4482770477      -33.8058686608        6.7932653647  MEMB      101             0.0000000000
     12526       101  PMPE      H10R           29.5443780741      -33.9582731287        6.7743428380  MEMB      101             0.0000000000
     12527       101  PMPE      C211           27.6385717228      -35.0675493435        6.9744160910  MEMB      101             0.0000000000
     12528       101  PMPE      H11R           26.7038028585      -35.1556698411        6.3723123921  MEMB      101             0.0000000000
     12529       101  PMPE      H11S           27.4534718244      -35.2027864499        8.0681858467  MEMB      101             0.0000000000
     12530       101  PMPE      C212           28.6536342141      -36.1222768180        6.6171734362  MEMB      101             0.0000000000
     12531       101  PMPE      H12R           28.3703857811      -37.0623908867        7.0062165454  MEMB      101             0.0000000000
     12532       101  PMPE      H12S           29.4925359390      -35.9867052004        7.3035712960  MEMB      101             0.0000000000
     12533       101  PMPE      C213           29.1754439877      -36.1162205552        5.1830595657  MEMB      101             0.0000000000
     12534       101  PMPE      H13R           30.0692299247      -36.7606930680        5.1744686184  MEMB      101             0.0000000000
     12535       101  PMPE      H13S           29.3846224945      -35.1060478824        4.8016357429  MEMB      101             0.0000000000
     12536       101  PMPE      C214           28.2615732219      -36.7465381381        4.2180705365  MEMB      101             0.0000000000
     12537       101  PMPE      H14R           27.4019859802      -36.0319515893        4.0719676562  MEMB      101             0.0000000000
     12538       101  PMPE      H14S           28.0648679174      -37.6550295537        4.7933093726  MEMB      101             0.0000000000
     12539       101  PMPE      C215           28.7871515827      -37.1861208863        2.8848908370  MEMB      101             0.0000000000
     12540       101  PMPE      H15R           28.9037222916      -36.2112606587        2.4224947934  MEMB      101             0.0000000000
     12541       101  PMPE      H15S           28.1821504750      -37.7452136705        2.1931004037  MEMB      101             0.0000000000
     12542       101  PMPE      C216           30.0078258619      -38.0597686819        2.8319399644  MEMB      101             0.0000000000
     12543       101  PMPE      H16R           30.0850240274      -38.5355626530        1.8303152289  MEMB      101             0.0000000000
     12544       101  PMPE      H16S           30.9048060775      -37.4426031269        2.8960123726  MEMB      101             0.0000000000
     12545       101  PMPE      H16T           29.9865759407      -38.8499364876        3.6144235519  MEMB      101             0.0000000000
     12546       101  PMPE      C33            31.4343550840      -31.9940620855       11.2733346297  MEMB      101             0.0000000000
     12547       101  PMPE      H3X            30.8456204070      -31.2617275554       10.6860277195  MEMB      101             0.0000000000
     12548       101  PMPE      H3Y            30.8686955072      -32.9399083869       11.1204192304  MEMB      101             0.0000000000
     12549       101  PMPE      C34            32.8617704583      -32.1026627365       10.6436600307  MEMB      101             0.0000000000
     12550       101  PMPE      H4X            33.4887675649      -32.8703946273       11.1448894918  MEMB      101             0.0000000000
     12551       101  PMPE      H4Y            33.3662727449      -31.1482352922       10.8933424272  MEMB      101             0.0000000000
     12552       101  PMPE      C35            32.9026435998      -32.1854230704        9.0817289941  MEMB      101             0.0000000000
     12553       101  PMPE      H5X            33.3493084736      -31.2539006649        8.6579348487  MEMB      101             0.0000000000
     12554       101  PMPE      H5Y            31.8486658694      -32.2220135042        8.7444585257  MEMB      101             0.0000000000
     12555       101  PMPE      C36            33.6810572392      -33.3502744729        8.4217834783  MEMB      101             0.0000000000
     12556       101  PMPE      H6X            33.0868963933      -34.2908092592        8.4694554982  MEMB      101             0.0000000000
     12557       101  PMPE      H6Y            34.5879920355      -33.5225331471        9.0298488779  MEMB      101             0.0000000000
     12558       101  PMPE      C37            34.2392330802      -33.0636540433        6.9961173380  MEMB      101             0.0000000000
     12559       101  PMPE      H7X            34.7051704464      -33.9290097088        6.5898545673  MEMB      101             0.0000000000
     12560       101  PMPE      H7Y            35.1495300527      -32.4462432127        7.0393373278  MEMB      101             0.0000000000
     12561       101  PMPE      C38            33.2124807469      -32.5631884632        5.9700362990  MEMB      101             0.0000000000
     12562       101  PMPE      H8X            32.8356571349      -31.6179651205        6.3868300563  MEMB      101             0.0000000000
     12563       101  PMPE      H8Y            32.3589372200      -33.2739367732        5.9051226209  MEMB      101             0.0000000000
     12564       101  PMPE      C39            33.7133291046      -32.2964230742        4.5354010652  MEMB      101             0.0000000000
     12565       101  PMPE      H9X            34.4870557139      -33.0749400003        4.3494714060  MEMB      101             0.0000000000
     12566       101  PMPE      H9Y            34.2025018568      -31.3051736265        4.4577546500  MEMB      101             0.0000000000
     12567       101  PMPE      C310           32.5689001251      -32.3218698233        3.5035362034  MEMB      101             0.0000000000
     12568       101  PMPE      H10X           31.7848513622      -31.5475112753        3.7015386818  MEMB      101             0.0000000000
     12569       101  PMPE      H10Y           32.0271153409      -33.2650201489        3.7078343830  MEMB      101             0.0000000000
     12570       101  PMPE      C311           33.0433868064      -32.2882777753        2.0304588136  MEMB      101             0.0000000000
     12571       101  PMPE      H11X           34.1154764570      -32.5259273057        1.8727393796  MEMB      101             0.0000000000
     12572       101  PMPE      H11Y           33.0006918237      -31.2219630737        1.7170054787  MEMB      101             0.0000000000
     12573       101  PMPE      C312           32.1818927339      -33.2247833713        1.1633564045  MEMB      101             0.0000000000
     12574       101  PMPE      H12X           31.1266319297      -32.9901833409        1.4251730942  MEMB      101             0.0000000000
     12575       101  PMPE      H12Y           32.3327105395      -34.3145363679        1.3139132452  MEMB      101             0.0000000000
     12576       101  PMPE      C313           32.4473949594      -33.1525849093       -0.3357190106  MEMB      101             0.0000000000
     12577       101  PMPE      H13X           33.4944300096      -33.3355535788       -0.5522384938  MEMB      101             0.0000000000
     12578       101  PMPE      H13Y           32.4255858372      -32.0975806508       -0.5953020584  MEMB      101             0.0000000000
     12579       101  PMPE      C314           31.6738122005      -34.2342519745       -1.1520219243  MEMB      101             0.0000000000
     12580       101  PMPE      H14X           32.1692500004      -35.1397848104       -1.0736090095  MEMB      101             0.0000000000
     12581       101  PMPE      H14Y           31.6822409965      -34.0682990996       -2.2857439224  MEMB      101             0.0000000000
     12582       101  PMPE      C315           30.3199655124      -34.5600895078       -0.6090563411  MEMB      101             0.0000000000
     12583       101  PMPE      H15X           30.1358708378      -34.6062860076        0.4824340827  MEMB      101             0.0000000000
     12584       101  PMPE      H15Y           29.6520942217      -35.2089445743       -1.2066786107  MEMB      101             0.0000000000
     12585       101  PMPE      C316           29.9086339223      -33.4575614555       -0.8929309769  MEMB      101             0.0000000000
     12586       101  PMPE      H16X           30.0400350286      -32.6899717387       -0.2730820660  MEMB      101             0.0000000000
     12587       101  PMPE      H16Y           28.7203670431      -33.5149458642       -0.5804277907  MEMB      101             0.0000000000
     12588       101  PMPE      H16Z           30.6311436291      -32.8677804738       -1.8596644092  MEMB      101             0.0000000000
     12589       102  PMPE      N              -8.9532414664       43.3444407258       21.1713567159  MEMB      102             0.0000000000
     12590       102  PMPE      HN1            -9.5574332152       43.4775224775       20.3261796804  MEMB      102             0.0000000000
     12591       102  PMPE      HN2            -9.4746698642       42.6858586938       21.7884331872  MEMB      102             0.0000000000
     12592       102  PMPE      HN3            -8.8165640503       44.2134899692       21.7095853106  MEMB      102             0.0000000000
     12593       102  PMPE      C12            -7.5768311345       42.8609188469       20.7055176661  MEMB      102             0.0000000000
     12594       102  PMPE      H12A           -7.6698864142       41.7813099523       20.5112416713  MEMB      102             0.0000000000
     12595       102  PMPE      H12B           -6.8461145133       42.9941811269       21.5234520395  MEMB      102             0.0000000000
     12596       102  PMPE      C11            -7.1067614969       43.3625967192       19.3149460541  MEMB      102             0.0000000000
     12597       102  PMPE      H11A           -7.7477546736       42.8338909154       18.5846356393  MEMB      102             0.0000000000
     12598       102  PMPE      H11B           -6.1325686850       42.9604346005       18.9810759007  MEMB      102             0.0000000000
     12599       102  PMPE      P              -8.0483922278       45.4964686055       18.1459628286  MEMB      102             0.0000000000
     12600       102  PMPE      O13            -7.2803581750       46.3559819623       17.2490190115  MEMB      102             0.0000000000
     12601       102  PMPE      O14            -9.1373752104       46.1361850434       18.9275274143  MEMB      102             0.0000000000
     12602       102  PMPE      O11            -8.6440833940       44.2454820346       17.3881014001  MEMB      102             0.0000000000
     12603       102  PMPE      O12            -7.0790324120       44.7819685954       19.1821339974  MEMB      102             0.0000000000
     12604       102  PMPE      C1             -9.2699195147       44.3557122363       16.1344585686  MEMB      102             0.0000000000
     12605       102  PMPE      HA             -9.4084092293       45.4328405742       15.8454330222  MEMB      102             0.0000000000
     12606       102  PMPE      HB            -10.1761031868       43.7942663313       16.2926585727  MEMB      102             0.0000000000
     12607       102  PMPE      C2             -8.8190408387       43.4928222808       14.9711115682  MEMB      102             0.0000000000
     12608       102  PMPE      HS             -8.5283109502       42.5355009633       15.4934177410  MEMB      102             0.0000000000
     12609       102  PMPE      O21            -7.7239537165       44.1851693100       14.7010352137  MEMB      102             0.0000000000
     12610       102  PMPE      C21            -7.3666228478       43.6620029928       13.8305225741  MEMB      102             0.0000000000
     12611       102  PMPE      O22            -7.4921630205       42.4528484470       13.4682003782  MEMB      102             0.0000000000
     12612       102  PMPE      C22            -6.5516713460       44.6534727729       13.0842269217  MEMB      102             0.0000000000
     12613       102  PMPE      H2R            -5.4954675560       44.7575958139       13.2479190386  MEMB      102             0.0000000000
     12614       102  PMPE      H2S            -6.4463141996       45.7219045359       13.0207306698  MEMB      102             0.0000000000
     12615       102  PMPE      C3             -9.7701792247       43.3390214901       13.5358602378  MEMB      102             0.0000000000
     12616       102  PMPE      HX            -10.6569878900       43.0019350628       14.0965351256  MEMB      102             0.0000000000
     12617       102  PMPE      HY             -9.3619773502       42.6034654310       12.8484611422  MEMB      102             0.0000000000
     12618       102  PMPE      O31            -9.7611972813       44.2218691540       12.3109251115  MEMB      102             0.0000000000
     12619       102  PMPE      C31           -10.9264945505       44.5691998151       12.0832530721  MEMB      102             0.0000000000
     12620       102  PMPE      O32           -11.7440945183       43.7469703743       11.6700971566  MEMB      102             0.0000000000
     12621       102  PMPE      C32           -11.0646300470       46.0793571079       12.1430202140  MEMB      102             0.0000000000
     12622       102  PMPE      H2X           -11.0537689537       46.8889099430       12.8670111425  MEMB      102             0.0000000000
     12623       102  PMPE      H2Y           -12.2243714827       45.9425927571       12.3792391706  MEMB      102             0.0000000000
     12624       102  PMPE      C23            -7.2522101531       44.9731713553       12.0744025032  MEMB      102             0.0000000000
     12625       102  PMPE      H3R            -7.9266880830       44.7539474291       11.4076634134  MEMB      102             0.0000000000
     12626       102  PMPE      H3S            -7.4710473119       43.8603454428       11.7821217777  MEMB      102             0.0000000000
     12627       102  PMPE      C24            -5.7372626609       45.1546570943       11.1450417850  MEMB      102             0.0000000000
     12628       102  PMPE      H4R            -5.3870822988       44.6108315030       10.4130799321  MEMB      102             0.0000000000
     12629       102  PMPE      H4S            -4.6863140604       44.6759317893       10.9860091477  MEMB      102             0.0000000000
     12630       102  PMPE      C25            -4.9734510326       46.2651591231       10.3182474031  MEMB      102             0.0000000000
     12631       102  PMPE      H5R            -4.0009433294       46.0602684310        9.7469209273  MEMB      102             0.0000000000
     12632       102  PMPE      H5S            -4.4651005117       46.6259611244       11.1404370565  MEMB      102             0.0000000000
     12633       102  PMPE      C26            -5.9591160555       46.9798794695        9.4314153650  MEMB      102             0.0000000000
     12634       102  PMPE      H6R            -5.7479504736       48.0307882166        9.4987583193  MEMB      102             0.0000000000
     12635       102  PMPE      H6S            -6.8622645912       46.5545960022        9.8954548653  MEMB      102             0.0000000000
     12636       102  PMPE      C27            -6.3302117166       46.7163553704        7.9166714712  MEMB      102             0.0000000000
     12637       102  PMPE      H7R            -6.7348809558       45.7604095933        7.5736234811  MEMB      102             0.0000000000
     12638       102  PMPE      H7S            -5.5461025216       46.9243996963        7.3300803419  MEMB      102             0.0000000000
     12639       102  PMPE      C28            -7.2947868167       47.2796930840        7.0796555875  MEMB      102             0.0000000000
     12640       102  PMPE      H8R            -8.2821312487       47.0111801612        7.3653767401  MEMB      102             0.0000000000
     12641       102  PMPE      H8S            -7.1147325879       47.0063210379        6.0351981326  MEMB      102             0.0000000000
     12642       102  PMPE      C29            -6.9538222875       48.4967750587        7.4319710469  MEMB      102             0.0000000000
     12643       102  PMPE      H9R            -5.8174692915       48.8062952904        7.3818024412  MEMB      102             0.0000000000
     12644       102  PMPE      C217           -7.7077674553       48.8164891467        8.5829071934  MEMB      102             0.0000000000
     12645       102  PMPE      H17R           -7.2685321020       49.5009572189        8.9928599426  MEMB      102             0.0000000000
     12646       102  PMPE      H17S           -8.5790441066       48.6109535395        8.9553319671  MEMB      102             0.0000000000
     12647       102  PMPE      C210           -8.1952900093       49.3893686024        7.4086189368  MEMB      102             0.0000000000
     12648       102  PMPE      H10R           -8.0313522311       50.3903361070        7.3964480360  MEMB      102             0.0000000000
     12649       102  PMPE      C211           -9.3916545197       49.1503416736        6.5723142090  MEMB      102             0.0000000000
     12650       102  PMPE      H11R           -9.8748312369       50.1291021829        6.4883725403  MEMB      102             0.0000000000
     12651       102  PMPE      H11S           -9.8233046034       48.3811259541        7.1445710604  MEMB      102             0.0000000000
     12652       102  PMPE      C212           -9.3610139677       48.7915419199        5.1285973983  MEMB      102             0.0000000000
     12653       102  PMPE      H12R          -10.3671595097       48.7614776109        4.8944189844  MEMB      102             0.0000000000
     12654       102  PMPE      H12S           -8.8801378299       47.8524797168        4.8940356700  MEMB      102             0.0000000000
     12655       102  PMPE      C213           -9.2106735473       49.7163479326        3.8808711200  MEMB      102             0.0000000000
     12656       102  PMPE      H13R           -8.6341295714       50.0578199332        4.4113998763  MEMB      102             0.0000000000
     12657       102  PMPE      H13S           -9.4010384544       50.7992918780        3.8957604728  MEMB      102             0.0000000000
     12658       102  PMPE      C214           -8.4633192982       48.7626215702        2.1563424213  MEMB      102             0.0000000000
     12659       102  PMPE      H14R           -8.1445349161       49.3797929266        1.5774137381  MEMB      102             0.0000000000
     12660       102  PMPE      H14S           -9.0717812853       49.3996493106        1.9956760845  MEMB      102             0.0000000000
     12661       102  PMPE      C215           -7.8507051111       47.5243559218        2.3882831218  MEMB      102             0.0000000000
     12662       102  PMPE      H15R           -8.4350636372       46.9727878365        3.1009841726  MEMB      102             0.0000000000
     12663       102  PMPE      H15S           -6.8763283070       47.6999963347        2.8557411935  MEMB      102             0.0000000000
     12664       102  PMPE      C216           -7.8938985276       47.0564008411        1.0113396161  MEMB      102             0.0000000000
     12665       102  PMPE      H16R           -8.9702333208       47.1664460342        0.6838922240  MEMB      102             0.0000000000
     12666       102  PMPE      H16S           -7.2061783897       47.6960899403        0.4040440781  MEMB      102             0.0000000000
     12667       102  PMPE      H16T           -7.5651089128       46.0285603668        1.0894592478  MEMB      102             0.0000000000
     12668       102  PMPE      C33           -10.3741392049       46.6373965135       10.6944650942  MEMB      102             0.0000000000
     12669       102  PMPE      H3X            -9.4491302567       46.2129183364       10.5045286487  MEMB      102             0.0000000000
     12670       102  PMPE      H3Y           -10.4281025626       47.7208974164       10.5199317238  MEMB      102             0.0000000000
     12671       102  PMPE      C34           -10.9539314130       46.3025370044        9.3854330240  MEMB      102             0.0000000000
     12672       102  PMPE      H4X           -11.6876702808       47.3776522245        9.1508019891  MEMB      102             0.0000000000
     12673       102  PMPE      H4Y           -11.6339891809       45.4149643649        9.8981575570  MEMB      102             0.0000000000
     12674       102  PMPE      C35           -10.3905653027       45.7808332067        7.9791349266  MEMB      102             0.0000000000
     12675       102  PMPE      H5X           -10.1124284664       46.5321959499        7.2913631979  MEMB      102             0.0000000000
     12676       102  PMPE      H5Y           -11.2560347985       45.8413952422        7.4703558511  MEMB      102             0.0000000000
     12677       102  PMPE      C36            -9.6472504604       44.4696874317        7.6082179122  MEMB      102             0.0000000000
     12678       102  PMPE      H6X            -9.9147007166       43.3965538184        7.7789370790  MEMB      102             0.0000000000
     12679       102  PMPE      H6Y            -9.0128215427       44.7493643183        8.4075552046  MEMB      102             0.0000000000
     12680       102  PMPE      C37            -9.2939332363       44.0934699577        6.2311698372  MEMB      102             0.0000000000
     12681       102  PMPE      H7X            -8.4720835930       43.4922336473        6.5240696407  MEMB      102             0.0000000000
     12682       102  PMPE      H7Y            -9.0591568008       45.1261188836        5.9512327926  MEMB      102             0.0000000000
     12683       102  PMPE      C38           -10.3502961226       43.2574625822        5.3160813494  MEMB      102             0.0000000000
     12684       102  PMPE      H8X           -10.9799806163       44.0275024156        4.4877232239  MEMB      102             0.0000000000
     12685       102  PMPE      H8Y           -11.0798150574       42.6651588399        5.9723491814  MEMB      102             0.0000000000
     12686       102  PMPE      C39            -9.9271079085       42.8602500977        4.1474206268  MEMB      102             0.0000000000
     12687       102  PMPE      H9X            -9.2404541213       42.1700843872        4.5955973886  MEMB      102             0.0000000000
     12688       102  PMPE      H9Y            -9.4495998674       43.7929194078        3.7212046788  MEMB      102             0.0000000000
     12689       102  PMPE      C310          -11.0785129514       42.1768484493        3.4581680345  MEMB      102             0.0000000000
     12690       102  PMPE      H10X          -11.8624521304       42.8839923037        3.1773035750  MEMB      102             0.0000000000
     12691       102  PMPE      H10Y          -11.6428050596       41.5172161512        4.1557347351  MEMB      102             0.0000000000
     12692       102  PMPE      C311          -10.5145760375       41.3827124680        2.2903126837  MEMB      102             0.0000000000
     12693       102  PMPE      H11X          -11.3515551069       40.9392598548        1.7349310910  MEMB      102             0.0000000000
     12694       102  PMPE      H11Y           -9.9755842261       40.5028881977        2.6903327426  MEMB      102             0.0000000000
     12695       102  PMPE      C312           -9.6100146689       42.1867000731        1.3248802755  MEMB      102             0.0000000000
     12696       102  PMPE      H12X           -9.0996046407       41.5756706320        0.5498105063  MEMB      102             0.0000000000
     12697       102  PMPE      H12Y           -8.8276510057       42.7176115329        1.8985434810  MEMB      102             0.0000000000
     12698       102  PMPE      C313          -10.3555794563       43.2777617554        0.5698386737  MEMB      102             0.0000000000
     12699       102  PMPE      H13X          -10.8356231499       43.9249408838        1.3236020434  MEMB      102             0.0000000000
     12700       102  PMPE      H13Y          -11.1150050106       42.8127179307       -0.0836791953  MEMB      102             0.0000000000
     12701       102  PMPE      C314           -9.5029463413       44.2454637707       -0.2235201044  MEMB      102             0.0000000000
     12702       102  PMPE      H14X           -8.5262615205       44.2676508739        0.3074627625  MEMB      102             0.0000000000
     12703       102  PMPE      H14Y           -9.9130425826       45.2480475119       -0.2780107065  MEMB      102             0.0000000000
     12704       102  PMPE      C315           -9.3676452803       43.8067462612       -1.6332511112  MEMB      102             0.0000000000
     12705       102  PMPE      H15X          -10.0273502532       43.4228491908       -2.3592164499  MEMB      102             0.0000000000
     12706       102  PMPE      H15Y           -9.0615757392       42.9768890214       -1.1296807341  MEMB      102             0.0000000000
     12707       102  PMPE      C316           -8.3954384679       44.4397325150       -2.3203839893  MEMB      102             0.0000000000
     12708       102  PMPE      H16X           -7.5893248391       44.3531306400       -1.5798329413  MEMB      102             0.0000000000
     12709       102  PMPE      H16Y           -8.7098186211       45.4988797314       -2.4649877670  MEMB      102             0.0000000000
     12710       102  PMPE      H16Z           -7.8717346141       44.0801263668       -3.2160898611  MEMB      102             0.0000000000
     12711       103  PMPG      C13           -23.7946061471      -38.7575080978       21.0455524757  MEMB      103             0.0000000000
     12712       103  PMPG      H13A          -23.9865900041      -38.9112249891       22.1215530610  MEMB      103             0.0000000000
     12713       103  PMPG      H13B          -24.4639819273      -39.4855830629       20.5470421612  MEMB      103             0.0000000000
     12714       103  PMPG      OC3           -22.4154955946      -39.0910896647       20.8832524133  MEMB      103             0.0000000000
     12715       103  PMPG      HO3           -22.3350092249      -39.5058345801       20.0186363180  MEMB      103             0.0000000000
     12716       103  PMPG      C12           -24.1570682142      -37.3103844866       20.5632119988  MEMB      103             0.0000000000
     12717       103  PMPG      H12A          -23.3816804090      -36.6155901346       20.9554333120  MEMB      103             0.0000000000
     12718       103  PMPG      OC2           -25.4076441504      -36.9136390998       21.1280668870  MEMB      103             0.0000000000
     12719       103  PMPG      HO2           -25.6199466211      -36.1013922845       20.6419412687  MEMB      103             0.0000000000
     12720       103  PMPG      C11           -24.2408823514      -37.0958050376       19.0157018846  MEMB      103             0.0000000000
     12721       103  PMPG      H11A          -23.2991677600      -37.4175152075       18.5480279872  MEMB      103             0.0000000000
     12722       103  PMPG      H11B          -24.3282253882      -36.0009410738       18.7952679478  MEMB      103             0.0000000000
     12723       103  PMPG      P             -25.2846375896      -39.0176670156       17.4741699638  MEMB      103             0.0000000000
     12724       103  PMPG      O13           -25.1198632639      -40.2642559060       18.2391618459  MEMB      103             0.0000000000
     12725       103  PMPG      O14           -24.2882735543      -38.7155411254       16.4305101674  MEMB      103             0.0000000000
     12726       103  PMPG      O11           -26.7296435830      -39.0757778191       16.8717533569  MEMB      103             0.0000000000
     12727       103  PMPG      O12           -25.3677834976      -37.7717368804       18.4557040658  MEMB      103             0.0000000000
     12728       103  PMPG      C1            -27.8123063356      -39.2790899062       17.7944780514  MEMB      103             0.0000000000
     12729       103  PMPG      HA            -28.2283536096      -38.3230751162       18.2692571659  MEMB      103             0.0000000000
     12730       103  PMPG      HB            -27.6180906441      -39.9932030644       18.5819064379  MEMB      103             0.0000000000
     12731       103  PMPG      C2            -28.9207603569      -39.9913950891       17.0888472627  MEMB      103             0.0000000000
     12732       103  PMPG      HS            -29.6609784428      -40.3921108445       17.7708209682  MEMB      103             0.0000000000
     12733       103  PMPG      O21           -28.8030959095      -40.8560265272       15.9670090471  MEMB      103             0.0000000000
     12734       103  PMPG      C21           -27.9991344878      -41.7407097110       16.3353266167  MEMB      103             0.0000000000
     12735       103  PMPG      O22           -27.8622040623      -42.0880186400       17.4953158410  MEMB      103             0.0000000000
     12736       103  PMPG      C22           -27.2148005343      -42.2473422243       15.1403966043  MEMB      103             0.0000000000
     12737       103  PMPG      H2R           -27.4983500335      -41.6945249567       14.2240479266  MEMB      103             0.0000000000
     12738       103  PMPG      H2S           -27.4198475278      -43.3208111222       15.0290506975  MEMB      103             0.0000000000
     12739       103  PMPG      C3            -29.4722891463      -38.9891514154       16.6667041503  MEMB      103             0.0000000000
     12740       103  PMPG      HX            -30.1535321307      -38.5012709520       17.4968820252  MEMB      103             0.0000000000
     12741       103  PMPG      HY            -30.3444791683      -39.6740050724       15.9967868016  MEMB      103             0.0000000000
     12742       103  PMPG      O31           -28.5619358020      -37.9596907899       15.8462270055  MEMB      103             0.0000000000
     12743       103  PMPG      C31           -28.3372070766      -38.1226815335       14.4569121506  MEMB      103             0.0000000000
     12744       103  PMPG      O32           -28.7288678867      -39.0786881023       13.8114847342  MEMB      103             0.0000000000
     12745       103  PMPG      C32           -27.7323796456      -36.9731519686       13.8136118887  MEMB      103             0.0000000000
     12746       103  PMPG      H2X           -27.5458133374      -36.2359464961       14.6229160454  MEMB      103             0.0000000000
     12747       103  PMPG      H2Y           -28.3448744878      -36.6686474315       12.9178491614  MEMB      103             0.0000000000
     12748       103  PMPG      C23           -25.6876190259      -42.2544347021       15.3848559428  MEMB      103             0.0000000000
     12749       103  PMPG      H3R           -25.5012435461      -42.7724241088       16.3496728791  MEMB      103             0.0000000000
     12750       103  PMPG      H3S           -25.3396130757      -41.2174776219       15.5595075628  MEMB      103             0.0000000000
     12751       103  PMPG      C24           -24.8283345235      -43.0208858283       14.3450867025  MEMB      103             0.0000000000
     12752       103  PMPG      H4R           -24.9422163244      -44.1312346148       14.4711087727  MEMB      103             0.0000000000
     12753       103  PMPG      H4S           -23.7671180007      -42.7460696823       14.5577783895  MEMB      103             0.0000000000
     12754       103  PMPG      C25           -25.1298111074      -42.7304490886       12.8646487514  MEMB      103             0.0000000000
     12755       103  PMPG      H5R           -26.2127556972      -42.8907403806       12.7125311869  MEMB      103             0.0000000000
     12756       103  PMPG      H5S           -24.5421919256      -43.4319781473       12.2379479896  MEMB      103             0.0000000000
     12757       103  PMPG      C26           -24.8367013540      -41.3081422526       12.4065727624  MEMB      103             0.0000000000
     12758       103  PMPG      H6R           -23.7838965626      -41.0616686983       12.6465743212  MEMB      103             0.0000000000
     12759       103  PMPG      H6S           -25.4720319077      -40.6862184837       13.0856779369  MEMB      103             0.0000000000
     12760       103  PMPG      C27           -25.1033560103      -40.9717412151       10.9038648766  MEMB      103             0.0000000000
     12761       103  PMPG      H7R           -25.0209235650      -39.8606776741       10.8639950852  MEMB      103             0.0000000000
     12762       103  PMPG      H7S           -26.1446370466      -41.2341641483       10.6099951786  MEMB      103             0.0000000000
     12763       103  PMPG      C28           -24.0982695985      -41.4657991375        9.8114295709  MEMB      103             0.0000000000
     12764       103  PMPG      H8R           -24.3051897826      -42.5276320136        9.5306379465  MEMB      103             0.0000000000
     12765       103  PMPG      H8S           -23.0440561011      -41.3983271794       10.1609940390  MEMB      103             0.0000000000
     12766       103  PMPG      C29           -24.1667495032      -40.6099194693        8.5179584454  MEMB      103             0.0000000000
     12767       103  PMPG      H9R           -23.5479585287      -39.6987405995        8.4263553254  MEMB      103             0.0000000000
     12768       103  PMPG      C217          -23.9940519706      -41.4221342017        7.2456533561  MEMB      103             0.0000000000
     12769       103  PMPG      H17R          -23.6496987951      -40.9323835086        6.3529923468  MEMB      103             0.0000000000
     12770       103  PMPG      H17S          -23.8424888055      -42.4691211723        7.4612154019  MEMB      103             0.0000000000
     12771       103  PMPG      C210          -25.3448326532      -40.7667131319        7.5798684718  MEMB      103             0.0000000000
     12772       103  PMPG      H10R          -25.5941501905      -39.8672309727        6.9771075079  MEMB      103             0.0000000000
     12773       103  PMPG      C211          -26.4568034705      -41.7658099351        7.9122713270  MEMB      103             0.0000000000
     12774       103  PMPG      H11R          -25.9872044597      -42.5633514661        8.5113831891  MEMB      103             0.0000000000
     12775       103  PMPG      H11S          -27.2604364898      -41.2952244339        8.5265824711  MEMB      103             0.0000000000
     12776       103  PMPG      C212          -27.0826980867      -42.4850177843        6.6969006457  MEMB      103             0.0000000000
     12777       103  PMPG      H12R          -27.5167543428      -41.7382341730        6.0028892323  MEMB      103             0.0000000000
     12778       103  PMPG      H12S          -27.9117097801      -43.1349665352        7.0569984486  MEMB      103             0.0000000000
     12779       103  PMPG      C213          -26.0741304088      -43.3573056847        5.9258659417  MEMB      103             0.0000000000
     12780       103  PMPG      H13R          -25.4629872821      -43.9171364058        6.6684298195  MEMB      103             0.0000000000
     12781       103  PMPG      H13S          -25.3968276441      -42.6463931134        5.4196109512  MEMB      103             0.0000000000
     12782       103  PMPG      C214          -26.7232550094      -44.3736474055        4.9630029515  MEMB      103             0.0000000000
     12783       103  PMPG      H14R          -27.5144680375      -43.9256111220        4.3367193137  MEMB      103             0.0000000000
     12784       103  PMPG      H14S          -27.2171914886      -45.0974076176        5.6472371157  MEMB      103             0.0000000000
     12785       103  PMPG      C215          -25.7991178011      -45.2078429747        4.0627391491  MEMB      103             0.0000000000
     12786       103  PMPG      H15R          -26.3797668691      -46.0808068795        3.6943606337  MEMB      103             0.0000000000
     12787       103  PMPG      H15S          -25.0459348747      -45.5828116355        4.7586105340  MEMB      103             0.0000000000
     12788       103  PMPG      C216          -25.0898401342      -44.4762689458        2.9241609610  MEMB      103             0.0000000000
     12789       103  PMPG      H16R          -24.3914752789      -45.1542754916        2.3826782007  MEMB      103             0.0000000000
     12790       103  PMPG      H16S          -24.4963582180      -43.6742137380        3.4090205728  MEMB      103             0.0000000000
     12791       103  PMPG      H16T          -25.7439480129      -43.9984757953        2.1759245523  MEMB      103             0.0000000000
     12792       103  PMPG      C33           -26.4800506122      -37.6757062249       13.3858114221  MEMB      103             0.0000000000
     12793       103  PMPG      H3X           -26.7743877347      -38.4089769690       12.5946921905  MEMB      103             0.0000000000
     12794       103  PMPG      H3Y           -25.9813422356      -38.2466266497       14.2263033191  MEMB      103             0.0000000000
     12795       103  PMPG      C34           -25.5076771484      -36.7422428448       12.7032812553  MEMB      103             0.0000000000
     12796       103  PMPG      H4X           -24.6160647949      -37.3918651944       12.5740854452  MEMB      103             0.0000000000
     12797       103  PMPG      H4Y           -25.1936301102      -35.8883007132       13.3391859469  MEMB      103             0.0000000000
     12798       103  PMPG      C35           -25.9990186542      -36.3063277567       11.3017144182  MEMB      103             0.0000000000
     12799       103  PMPG      H5X           -26.9230820084      -35.6933838381       11.3198805744  MEMB      103             0.0000000000
     12800       103  PMPG      H5Y           -26.2643949362      -37.2471163490       10.7650083442  MEMB      103             0.0000000000
     12801       103  PMPG      C36           -24.9251027357      -35.5649266885       10.4793376720  MEMB      103             0.0000000000
     12802       103  PMPG      H6X           -24.1260308313      -36.3209124058       10.3519083157  MEMB      103             0.0000000000
     12803       103  PMPG      H6Y           -24.4935541931      -34.7092647917       11.0454785212  MEMB      103             0.0000000000
     12804       103  PMPG      C37           -25.4198649547      -35.1142586614        9.0759197327  MEMB      103             0.0000000000
     12805       103  PMPG      H7X           -26.2905028416      -34.4528368521        9.2542926187  MEMB      103             0.0000000000
     12806       103  PMPG      H7Y           -25.8014110231      -36.0172890016        8.5659902368  MEMB      103             0.0000000000
     12807       103  PMPG      C38           -24.3532483396      -34.4530055276        8.1726212326  MEMB      103             0.0000000000
     12808       103  PMPG      H8X           -24.0882506382      -33.5298010895        8.7456456363  MEMB      103             0.0000000000
     12809       103  PMPG      H8Y           -24.6992661756      -34.1072686834        7.1658432398  MEMB      103             0.0000000000
     12810       103  PMPG      C39           -23.1403370060      -35.3988605418        7.9769015813  MEMB      103             0.0000000000
     12811       103  PMPG      H9X           -22.7730223660      -35.6335909502        8.9953537502  MEMB      103             0.0000000000
     12812       103  PMPG      H9Y           -22.3808866635      -34.8692051083        7.3711949777  MEMB      103             0.0000000000
     12813       103  PMPG      C310          -23.3631804182      -36.7242905066        7.2356430473  MEMB      103             0.0000000000
     12814       103  PMPG      H10X          -24.2729466566      -37.1983360655        7.6619004505  MEMB      103             0.0000000000
     12815       103  PMPG      H10Y          -22.4965441665      -37.4437896084        7.2507520979  MEMB      103             0.0000000000
     12816       103  PMPG      C311          -23.5835502034      -36.4640074307        5.7641536806  MEMB      103             0.0000000000
     12817       103  PMPG      H11X          -22.7435556909      -35.8703263671        5.3353842368  MEMB      103             0.0000000000
     12818       103  PMPG      H11Y          -24.5212190248      -35.9075601909        5.6134821313  MEMB      103             0.0000000000
     12819       103  PMPG      C312          -23.7701933332      -37.7674313174        5.0317035646  MEMB      103             0.0000000000
     12820       103  PMPG      H12X          -24.5744354046      -38.3754641138        5.5070413362  MEMB      103             0.0000000000
     12821       103  PMPG      H12Y          -22.8466918126      -38.3428434334        5.1662994682  MEMB      103             0.0000000000
     12822       103  PMPG      C313          -23.9575004871      -37.5200015243        3.5561354882  MEMB      103             0.0000000000
     12823       103  PMPG      H13X          -22.9672385883      -37.4506750032        3.0435512884  MEMB      103             0.0000000000
     12824       103  PMPG      H13Y          -24.4653613540      -36.5406849709        3.4011038726  MEMB      103             0.0000000000
     12825       103  PMPG      C314          -24.9146753704      -38.5264434190        2.9667785915  MEMB      103             0.0000000000
     12826       103  PMPG      H14X          -25.1053032985      -38.0643259204        2.0108634078  MEMB      103             0.0000000000
     12827       103  PMPG      H14Y          -25.9383155782      -38.3912851257        3.2849349346  MEMB      103             0.0000000000
     12828       103  PMPG      C315          -24.5040097583      -40.0250823976        3.0161552899  MEMB      103             0.0000000000
     12829       103  PMPG      H15X          -25.2758137681      -40.5823234655        2.4331335056  MEMB      103             0.0000000000
     12830       103  PMPG      H15Y          -24.4964055452      -40.3891504842        4.0515439421  MEMB      103             0.0000000000
     12831       103  PMPG      C316          -23.1205665370      -40.4599329352        2.5455219723  MEMB      103             0.0000000000
     12832       103  PMPG      H16X          -22.3237840379      -39.7289163090        2.7187532641  MEMB      103             0.0000000000
     12833       103  PMPG      H16Y          -23.1646860102      -40.4337203610        1.4961259500  MEMB      103             0.0000000000
     12834       103  PMPG      H16Z          -22.8610986996      -41.4877685185        2.7890492342  MEMB      103             0.0000000000
     12835       104  PMPE      N               6.9529411634       44.8552251195       17.8771149841  MEMB      104             0.0000000000
     12836       104  PMPE      HN1             6.6469052225       45.5393526842       18.6062105556  MEMB      104             0.0000000000
     12837       104  PMPE      HN2             7.9100316788       45.1265365366       17.5402785123  MEMB      104             0.0000000000
     12838       104  PMPE      HN3             6.3230406920       44.8103872149       17.0472745646  MEMB      104             0.0000000000
     12839       104  PMPE      C12             7.1502903819       43.5212946003       18.5555294092  MEMB      104             0.0000000000
     12840       104  PMPE      H12A            7.1715884884       42.7101684141       17.8016978494  MEMB      104             0.0000000000
     12841       104  PMPE      H12B            6.2807546832       43.3553993101       19.2029494725  MEMB      104             0.0000000000
     12842       104  PMPE      C11             8.4130078240       43.4897517821       19.4134606177  MEMB      104             0.0000000000
     12843       104  PMPE      H11A            8.7295093510       42.4410395355       19.5620031717  MEMB      104             0.0000000000
     12844       104  PMPE      H11B            8.2258948391       43.9566687678       20.4143682157  MEMB      104             0.0000000000
     12845       104  PMPE      P              10.3191881773       45.1808422361       19.4164626526  MEMB      104             0.0000000000
     12846       104  PMPE      O13            11.1664173167       44.6641207057       20.4757900359  MEMB      104             0.0000000000
     12847       104  PMPE      O14             9.5202394795       46.3983457605       19.7040819167  MEMB      104             0.0000000000
     12848       104  PMPE      O11            11.0894854512       45.2825575545       18.1846302741  MEMB      104             0.0000000000
     12849       104  PMPE      O12             9.4374269990       44.1089100096       18.7079382697  MEMB      104             0.0000000000
     12850       104  PMPE      C1             11.7723244214       44.6400247917       17.1457242308  MEMB      104             0.0000000000
     12851       104  PMPE      HA             11.8472809862       43.6769891784       17.5127734244  MEMB      104             0.0000000000
     12852       104  PMPE      HB             12.7802842323       45.2019192104       17.0375377756  MEMB      104             0.0000000000
     12853       104  PMPE      C2             11.3145217786       44.5743209177       15.6681615703  MEMB      104             0.0000000000
     12854       104  PMPE      HS             12.2999636441       44.3149857403       15.0751093806  MEMB      104             0.0000000000
     12855       104  PMPE      O21            10.4709884724       45.7252034917       15.1517029281  MEMB      104             0.0000000000
     12856       104  PMPE      C21            11.1446464218       46.5192105812       15.1440345619  MEMB      104             0.0000000000
     12857       104  PMPE      O22            12.3611407718       46.1945292228       15.3563987228  MEMB      104             0.0000000000
     12858       104  PMPE      C22            10.4807867637       48.2167908341       15.0289220687  MEMB      104             0.0000000000
     12859       104  PMPE      H2R            11.0649444907       49.1897394672       15.3683810837  MEMB      104             0.0000000000
     12860       104  PMPE      H2S             9.8693545506       48.7296615289       15.6710877114  MEMB      104             0.0000000000
     12861       104  PMPE      C3             10.4967856953       43.4943732466       15.4909679268  MEMB      104             0.0000000000
     12862       104  PMPE      HX              9.6635878959       43.7188459712       16.1917619560  MEMB      104             0.0000000000
     12863       104  PMPE      HY             11.0670809573       42.6065412686       15.8030563179  MEMB      104             0.0000000000
     12864       104  PMPE      O31            10.1993663680       43.5350091626       14.0959991353  MEMB      104             0.0000000000
     12865       104  PMPE      C31             9.0841757229       44.1964870815       13.7853327443  MEMB      104             0.0000000000
     12866       104  PMPE      O32             8.3177871854       44.7280763785       14.5790130107  MEMB      104             0.0000000000
     12867       104  PMPE      C32             8.9532881213       44.2760347705       12.2828500958  MEMB      104             0.0000000000
     12868       104  PMPE      H2X             9.9206735451       44.0935311341       11.7710958886  MEMB      104             0.0000000000
     12869       104  PMPE      H2Y             8.6063858122       45.3137000897       12.0811798943  MEMB      104             0.0000000000
     12870       104  PMPE      C23             9.8639418082       48.2495744851       13.8635312773  MEMB      104             0.0000000000
     12871       104  PMPE      H3R             9.1150521848       48.8805374941       14.1802040676  MEMB      104             0.0000000000
     12872       104  PMPE      H3S             9.3885361220       47.3185341325       13.7981759093  MEMB      104             0.0000000000
     12873       104  PMPE      C24            10.5643573736       48.7422345089       12.6440355310  MEMB      104             0.0000000000
     12874       104  PMPE      H4R            10.9792007739       47.7712445940       12.5685912970  MEMB      104             0.0000000000
     12875       104  PMPE      H4S            11.3249272686       49.5981368101       12.7307324688  MEMB      104             0.0000000000
     12876       104  PMPE      C25            10.0000160061       48.4972632244       11.3192806463  MEMB      104             0.0000000000
     12877       104  PMPE      H5R             9.4480431924       47.5754026897       11.3452378691  MEMB      104             0.0000000000
     12878       104  PMPE      H5S            10.7469321246       48.4376745663       10.5588620171  MEMB      104             0.0000000000
     12879       104  PMPE      C26             9.3684117863       49.6044131473       10.7983493306  MEMB      104             0.0000000000
     12880       104  PMPE      H6R             9.7811384318       50.4898502425       11.3056553774  MEMB      104             0.0000000000
     12881       104  PMPE      H6S             8.2731996648       49.5208105407       10.9876294873  MEMB      104             0.0000000000
     12882       104  PMPE      C27             9.9688852620       50.1294568315        9.7197560975  MEMB      104             0.0000000000
     12883       104  PMPE      H7R            10.7487594282       50.8795654207        9.7506495026  MEMB      104             0.0000000000
     12884       104  PMPE      H7S             9.0636080201       50.4630733872        9.3490531942  MEMB      104             0.0000000000
     12885       104  PMPE      C28             9.6817923824       49.6059443244        8.5461807751  MEMB      104             0.0000000000
     12886       104  PMPE      H8R            10.2265593871       49.0106517385        8.4823144028  MEMB      104             0.0000000000
     12887       104  PMPE      H8S            10.0858540523       50.2077861442        7.6968941909  MEMB      104             0.0000000000
     12888       104  PMPE      C29             8.5158116968       48.5927401550        8.6199937702  MEMB      104             0.0000000000
     12889       104  PMPE      H9R             7.7460647960       49.2466294487        9.0715508543  MEMB      104             0.0000000000
     12890       104  PMPE      C217            8.1094634145       47.1901812603        8.5883229063  MEMB      104             0.0000000000
     12891       104  PMPE      H17R            7.0815670934       47.0870397826        8.7445718670  MEMB      104             0.0000000000
     12892       104  PMPE      H17S            8.8285790375       46.5265868968        8.7876309543  MEMB      104             0.0000000000
     12893       104  PMPE      C210            8.2592149938       47.5906405809        7.2174631086  MEMB      104             0.0000000000
     12894       104  PMPE      H10R            7.3137253522       47.5592510801        6.5896325678  MEMB      104             0.0000000000
     12895       104  PMPE      C211            9.2943707262       47.1428569223        6.2313871382  MEMB      104             0.0000000000
     12896       104  PMPE      H11R            9.3927869850       46.1467671685        5.9724587041  MEMB      104             0.0000000000
     12897       104  PMPE      H11S            9.7786191868       47.1965708848        7.0750961042  MEMB      104             0.0000000000
     12898       104  PMPE      C212            9.6713615248       47.8848707776        4.9549236725  MEMB      104             0.0000000000
     12899       104  PMPE      H12R            9.9630477359       48.9035131886        5.1956793570  MEMB      104             0.0000000000
     12900       104  PMPE      H12S            8.7014837110       47.8638627392        4.4250327697  MEMB      104             0.0000000000
     12901       104  PMPE      C213           10.7970921428       47.6378250179        4.2023258037  MEMB      104             0.0000000000
     12902       104  PMPE      H13R           10.8786292861       46.5857368896        4.4348123440  MEMB      104             0.0000000000
     12903       104  PMPE      H13S           11.5571320633       48.3545877617        4.5549067021  MEMB      104             0.0000000000
     12904       104  PMPE      C214           10.5935218518       47.5279462237        2.7413365704  MEMB      104             0.0000000000
     12905       104  PMPE      H14R           10.0720078165       46.5637062862        2.6603876496  MEMB      104             0.0000000000
     12906       104  PMPE      H14S           11.5498884222       47.4710404962        2.2174603580  MEMB      104             0.0000000000
     12907       104  PMPE      C215            9.8925723730       48.6681661771        2.1294424223  MEMB      104             0.0000000000
     12908       104  PMPE      H15R           10.6353732046       49.5109420318        2.2246517555  MEMB      104             0.0000000000
     12909       104  PMPE      H15S            8.9467992959       48.7988626159        2.7028024783  MEMB      104             0.0000000000
     12910       104  PMPE      C216            9.4134761313       48.6018558989        0.7558893926  MEMB      104             0.0000000000
     12911       104  PMPE      H16R            8.5554755058       47.9088775427        0.7835870935  MEMB      104             0.0000000000
     12912       104  PMPE      H16S            9.0182957671       49.5731911231        0.3830413921  MEMB      104             0.0000000000
     12913       104  PMPE      H16T           10.2996846982       48.2339558672        0.2188847849  MEMB      104             0.0000000000
     12914       104  PMPE      C33             7.8540878382       43.3544618733       11.7541265353  MEMB      104             0.0000000000
     12915       104  PMPE      H3X             6.9226739982       43.5820105338       12.3277100660  MEMB      104             0.0000000000
     12916       104  PMPE      H3Y             8.0814957320       42.2750990125       11.8802029756  MEMB      104             0.0000000000
     12917       104  PMPE      C34             7.4649201483       43.7145790002       10.3205213317  MEMB      104             0.0000000000
     12918       104  PMPE      H4X             7.0262341748       44.7329044233       10.4286868775  MEMB      104             0.0000000000
     12919       104  PMPE      H4Y             6.6732394828       43.0019515536        9.9898100329  MEMB      104             0.0000000000
     12920       104  PMPE      C35             8.5704644005       43.8092461473        9.2681712267  MEMB      104             0.0000000000
     12921       104  PMPE      H5X             9.2226999839       43.0186734173        9.2504071469  MEMB      104             0.0000000000
     12922       104  PMPE      H5Y             9.3738833368       44.5340025733        9.4386342958  MEMB      104             0.0000000000
     12923       104  PMPE      C36             8.0849365335       43.9669486216        7.8233905235  MEMB      104             0.0000000000
     12924       104  PMPE      H6X             8.9072460675       44.5551849006        7.3390258713  MEMB      104             0.0000000000
     12925       104  PMPE      H6Y             7.1802942661       44.5629743491        7.8980788021  MEMB      104             0.0000000000
     12926       104  PMPE      C37             7.6373637173       42.7017235411        7.0393107111  MEMB      104             0.0000000000
     12927       104  PMPE      H7X             7.5526238776       41.7494385498        7.5942802652  MEMB      104             0.0000000000
     12928       104  PMPE      H7Y             8.4455701445       42.4531583148        6.4828337962  MEMB      104             0.0000000000
     12929       104  PMPE      C38             7.2478753593       42.8069579173        5.5881042499  MEMB      104             0.0000000000
     12930       104  PMPE      H8X             6.2108550801       42.9802351235        5.7729784971  MEMB      104             0.0000000000
     12931       104  PMPE      H8Y             7.3275019606       41.8698701799        4.9807585709  MEMB      104             0.0000000000
     12932       104  PMPE      C39             7.9820260276       43.8992544479        4.8057796452  MEMB      104             0.0000000000
     12933       104  PMPE      H9X             9.0691107495       43.9849458464        5.0592331338  MEMB      104             0.0000000000
     12934       104  PMPE      H9Y             7.5199038134       44.8700320592        5.0463451826  MEMB      104             0.0000000000
     12935       104  PMPE      C310            7.7482417824       43.6818756155        3.3091037843  MEMB      104             0.0000000000
     12936       104  PMPE      H10X            7.7073594189       42.5867587496        3.0920440327  MEMB      104             0.0000000000
     12937       104  PMPE      H10Y            8.5787654671       44.1609685560        2.7468739044  MEMB      104             0.0000000000
     12938       104  PMPE      C311            6.3993230714       44.2707293438        2.8383444516  MEMB      104             0.0000000000
     12939       104  PMPE      H11X            6.4228043387       45.3801752361        2.8137627086  MEMB      104             0.0000000000
     12940       104  PMPE      H11Y            5.6330960800       43.9755992349        3.5869373885  MEMB      104             0.0000000000
     12941       104  PMPE      C312            5.8828788089       43.7446767620        1.4867252217  MEMB      104             0.0000000000
     12942       104  PMPE      H12X            4.8441576534       44.0588295507        1.2877776102  MEMB      104             0.0000000000
     12943       104  PMPE      H12Y            5.8251062879       42.6416585721        1.5328501269  MEMB      104             0.0000000000
     12944       104  PMPE      C313            6.7474487127       44.0671999889        0.2835524092  MEMB      104             0.0000000000
     12945       104  PMPE      H13X            6.3154982673       43.6299952843       -0.6374075357  MEMB      104             0.0000000000
     12946       104  PMPE      H13Y            7.6454773916       43.4986096071        0.5573144301  MEMB      104             0.0000000000
     12947       104  PMPE      C314            7.0916947598       45.5568907404        0.0901144249  MEMB      104             0.0000000000
     12948       104  PMPE      H14X            7.8653949924       45.7552774472        0.8605563522  MEMB      104             0.0000000000
     12949       104  PMPE      H14Y            6.1724081437       46.0809579089        0.4086178568  MEMB      104             0.0000000000
     12950       104  PMPE      C315            7.6728084880       46.1213765054       -1.2622402208  MEMB      104             0.0000000000
     12951       104  PMPE      H15X            8.7955489527       46.0797085731       -1.2757233716  MEMB      104             0.0000000000
     12952       104  PMPE      H15Y            7.4197525708       47.1980140917       -1.2359391604  MEMB      104             0.0000000000
     12953       104  PMPE      C316            7.1624707652       45.5468414775       -2.5994331499  MEMB      104             0.0000000000
     12954       104  PMPE      H16X            7.5551042983       46.1641785841       -3.4411329143  MEMB      104             0.0000000000
     12955       104  PMPE      H16Y            6.0591065391       45.5968556683       -2.5651727974  MEMB      104             0.0000000000
     12956       104  PMPE      H16Z            7.4379077217       44.4957762508       -2.8268588978  MEMB      104             0.0000000000
     12957       105  PMPE      N             -45.9429966496        3.9593179263       18.3722901518  MEMB      105             0.0000000000
     12958       105  PMPE      HN1           -45.2442828035        3.8991690618       17.5959062918  MEMB      105             0.0000000000
     12959       105  PMPE      HN2           -46.8875467850        3.9647446508       17.9438278285  MEMB      105             0.0000000000
     12960       105  PMPE      HN3           -45.8501511398        4.8524669522       18.8974897818  MEMB      105             0.0000000000
     12961       105  PMPE      C12           -45.7391759415        2.7757352761       19.3015532854  MEMB      105             0.0000000000
     12962       105  PMPE      H12A          -46.4053759515        2.8675720209       20.1878413123  MEMB      105             0.0000000000
     12963       105  PMPE      H12B          -44.6728576056        2.7832645139       19.6150782809  MEMB      105             0.0000000000
     12964       105  PMPE      C11           -46.0112638159        1.4297686986       18.6135357776  MEMB      105             0.0000000000
     12965       105  PMPE      H11A          -45.5090694914        1.4197199176       17.6328011772  MEMB      105             0.0000000000
     12966       105  PMPE      H11B          -47.0964457975        1.3440582881       18.3629281735  MEMB      105             0.0000000000
     12967       105  PMPE      P             -46.0003818554       -1.1516717725       19.2379714271  MEMB      105             0.0000000000
     12968       105  PMPE      O13           -47.4618379868       -1.1705090973       19.3966180891  MEMB      105             0.0000000000
     12969       105  PMPE      O14           -45.1926269426       -2.0849402026       20.0485203529  MEMB      105             0.0000000000
     12970       105  PMPE      O11           -45.7189545998       -1.3423940805       17.7494709523  MEMB      105             0.0000000000
     12971       105  PMPE      O12           -45.4965127293        0.3613260746       19.4293215466  MEMB      105             0.0000000000
     12972       105  PMPE      C1            -46.0154916167       -2.5251520774       17.0617979996  MEMB      105             0.0000000000
     12973       105  PMPE      HA            -47.0904323873       -2.5910800669       17.0092192824  MEMB      105             0.0000000000
     12974       105  PMPE      HB            -45.4817221644       -3.4116289279       17.5273738042  MEMB      105             0.0000000000
     12975       105  PMPE      C2            -45.5977458114       -2.4315972019       15.6150408411  MEMB      105             0.0000000000
     12976       105  PMPE      HS            -44.7645615805       -3.0583772726       15.6822122675  MEMB      105             0.0000000000
     12977       105  PMPE      O21           -45.3762083820       -1.0775167022       15.1694175118  MEMB      105             0.0000000000
     12978       105  PMPE      C21           -44.4196791057       -0.4845455715       15.8114602483  MEMB      105             0.0000000000
     12979       105  PMPE      O22           -43.6291106020       -1.0713963490       16.5628511788  MEMB      105             0.0000000000
     12980       105  PMPE      C22           -44.3738684267        0.9792858348       15.1754093471  MEMB      105             0.0000000000
     12981       105  PMPE      H2R           -43.9566353054        1.6744715176       15.8747253138  MEMB      105             0.0000000000
     12982       105  PMPE      H2S           -45.2923971761        1.2329627786       14.6682270245  MEMB      105             0.0000000000
     12983       105  PMPE      C3            -46.4692919717       -3.0940376809       14.5244235250  MEMB      105             0.0000000000
     12984       105  PMPE      HX            -47.4646316545       -2.9066914358       14.8552277259  MEMB      105             0.0000000000
     12985       105  PMPE      HY            -46.2725411025       -4.1908015261       14.5156358622  MEMB      105             0.0000000000
     12986       105  PMPE      O31           -46.2801740134       -2.6563215971       13.1737084046  MEMB      105             0.0000000000
     12987       105  PMPE      C31           -46.9438307039       -1.6295508652       12.7002946814  MEMB      105             0.0000000000
     12988       105  PMPE      O32           -47.9818132604       -1.2301061485       13.1923435183  MEMB      105             0.0000000000
     12989       105  PMPE      C32           -46.2749459123       -0.9511550759       11.4592191200  MEMB      105             0.0000000000
     12990       105  PMPE      H2X           -45.2615687781       -1.2474909222       11.2787526166  MEMB      105             0.0000000000
     12991       105  PMPE      H2Y           -46.3240863292        0.1210038500       11.4635076924  MEMB      105             0.0000000000
     12992       105  PMPE      C23           -43.5630128182        1.3393189975       13.9672212010  MEMB      105             0.0000000000
     12993       105  PMPE      H3R           -43.7808729967        0.2473997586       13.3995591490  MEMB      105             0.0000000000
     12994       105  PMPE      H3S           -42.3698906568        1.8858492797       14.2842132366  MEMB      105             0.0000000000
     12995       105  PMPE      C24           -43.8306853683        2.4336675291       12.9849258583  MEMB      105             0.0000000000
     12996       105  PMPE      H4R           -43.3469170230        3.2185984688       13.6071608429  MEMB      105             0.0000000000
     12997       105  PMPE      H4S           -44.8446457119        2.5536355696       12.7657337914  MEMB      105             0.0000000000
     12998       105  PMPE      C25           -43.2062840223        2.6184330947       11.5318678270  MEMB      105             0.0000000000
     12999       105  PMPE      H5R           -42.2833146521        2.3598185674       11.3924271707  MEMB      105             0.0000000000
     13000       105  PMPE      H5S           -42.5358538908        3.4964269651       11.4826948525  MEMB      105             0.0000000000
     13001       105  PMPE      C26           -43.3339395628        1.5096891104       10.4732974529  MEMB      105             0.0000000000
     13002       105  PMPE      H6R           -43.6116690329        0.4927966938       10.8456659813  MEMB      105             0.0000000000
     13003       105  PMPE      H6S           -42.4798160846        1.4336807561        9.7461410920  MEMB      105             0.0000000000
     13004       105  PMPE      C27           -44.4485260375        2.2421147601        9.9535695929  MEMB      105             0.0000000000
     13005       105  PMPE      H7R           -44.0897348519        3.3001306313        9.8168120363  MEMB      105             0.0000000000
     13006       105  PMPE      H7S           -45.2341660401        2.2360627377       10.7420735849  MEMB      105             0.0000000000
     13007       105  PMPE      C28           -44.9554451258        1.7296983415        8.6697547756  MEMB      105             0.0000000000
     13008       105  PMPE      H8R           -45.5096604523        0.8092277723        8.7927397781  MEMB      105             0.0000000000
     13009       105  PMPE      H8S           -44.0832371649        1.5844940314        7.9818405753  MEMB      105             0.0000000000
     13010       105  PMPE      C29           -45.9650167707        2.7646627079        8.2475489393  MEMB      105             0.0000000000
     13011       105  PMPE      H9R           -45.7523254679        3.7621439673        8.4334640081  MEMB      105             0.0000000000
     13012       105  PMPE      C217          -47.3013338657        2.8363540480        8.8364538196  MEMB      105             0.0000000000
     13013       105  PMPE      H17R          -47.5449097319        3.8931705362        9.0075279588  MEMB      105             0.0000000000
     13014       105  PMPE      H17S          -47.1158044931        2.0872453047        9.5735298492  MEMB      105             0.0000000000
     13015       105  PMPE      C210          -47.0861533816        2.5870697596        7.3366098764  MEMB      105             0.0000000000
     13016       105  PMPE      H10R          -47.4835547731        3.4457076466        6.7525109869  MEMB      105             0.0000000000
     13017       105  PMPE      C211          -47.4185893591        1.2229202237        6.8801683496  MEMB      105             0.0000000000
     13018       105  PMPE      H11R          -48.3991087765        1.3413556719        6.3690256053  MEMB      105             0.0000000000
     13019       105  PMPE      H11S          -47.5430860579        0.5431451900        7.7451791263  MEMB      105             0.0000000000
     13020       105  PMPE      C212          -46.4246852174        0.6789277614        5.8749572681  MEMB      105             0.0000000000
     13021       105  PMPE      H12R          -45.3697787459        0.5888029597        6.2195982776  MEMB      105             0.0000000000
     13022       105  PMPE      H12S          -46.4469474017        1.3764333066        5.0279762101  MEMB      105             0.0000000000
     13023       105  PMPE      C213          -47.0088946591       -0.6569405273        5.5532378466  MEMB      105             0.0000000000
     13024       105  PMPE      H13R          -48.0079137477       -0.7160208773        5.1780816939  MEMB      105             0.0000000000
     13025       105  PMPE      H13S          -46.6759077187       -1.2610760098        6.3608791549  MEMB      105             0.0000000000
     13026       105  PMPE      C214          -46.6047703466       -1.3410882454        4.3985480738  MEMB      105             0.0000000000
     13027       105  PMPE      H14R          -45.8134085853       -1.7478759273        5.0353719883  MEMB      105             0.0000000000
     13028       105  PMPE      H14S          -46.4217560346       -0.4979625252        3.7122456863  MEMB      105             0.0000000000
     13029       105  PMPE      C215          -46.9378451698       -2.7834294410        3.7679207115  MEMB      105             0.0000000000
     13030       105  PMPE      H15R          -47.9108836948       -2.4227740296        3.6175413315  MEMB      105             0.0000000000
     13031       105  PMPE      H15S          -46.5902511360       -3.4870416972        4.5743554955  MEMB      105             0.0000000000
     13032       105  PMPE      C216          -46.4049884497       -3.3446191048        2.3378708330  MEMB      105             0.0000000000
     13033       105  PMPE      H16R          -46.9547533249       -4.2230784706        2.0525897922  MEMB      105             0.0000000000
     13034       105  PMPE      H16S          -46.3808009141       -2.4988407970        1.5948369567  MEMB      105             0.0000000000
     13035       105  PMPE      H16T          -45.3328464319       -3.7382444353        2.3395331941  MEMB      105             0.0000000000
     13036       105  PMPE      C33           -46.7647924466       -1.2065634741       10.0996799754  MEMB      105             0.0000000000
     13037       105  PMPE      H3X           -46.7964595213       -0.6053628215        9.2173233607  MEMB      105             0.0000000000
     13038       105  PMPE      H3Y           -47.8732837895       -1.4801456221       10.2434786078  MEMB      105             0.0000000000
     13039       105  PMPE      C34           -45.7304223059       -2.1850076925        9.4714131920  MEMB      105             0.0000000000
     13040       105  PMPE      H4X           -46.0707837726       -2.4700911076        8.3427256513  MEMB      105             0.0000000000
     13041       105  PMPE      H4Y           -45.8466190874       -3.0845941678       10.2696562230  MEMB      105             0.0000000000
     13042       105  PMPE      C35           -44.4271381221       -2.1390235700        8.9058604892  MEMB      105             0.0000000000
     13043       105  PMPE      H5X           -43.8933177125       -3.1101772513        8.6646390521  MEMB      105             0.0000000000
     13044       105  PMPE      H5Y           -44.1076716345       -2.1739563018        9.7907857719  MEMB      105             0.0000000000
     13045       105  PMPE      C36           -44.3474229321       -1.5225209945        7.6467399101  MEMB      105             0.0000000000
     13046       105  PMPE      H6X           -44.6842218691       -0.5927091598        7.8027236438  MEMB      105             0.0000000000
     13047       105  PMPE      H6Y           -45.0083464068       -1.9531112900        6.9185917572  MEMB      105             0.0000000000
     13048       105  PMPE      C37           -43.0045059181       -1.5505193393        7.4150280681  MEMB      105             0.0000000000
     13049       105  PMPE      H7X           -42.8193835721       -2.6748781644        7.4607561539  MEMB      105             0.0000000000
     13050       105  PMPE      H7Y           -42.5558751603       -1.0485258609        8.2457422863  MEMB      105             0.0000000000
     13051       105  PMPE      C38           -42.2814511025       -1.1561971438        6.1353252154  MEMB      105             0.0000000000
     13052       105  PMPE      H8X           -42.3458943960       -1.5864384497        5.4041499308  MEMB      105             0.0000000000
     13053       105  PMPE      H8Y           -41.6753127530       -2.0500813479        5.8064691686  MEMB      105             0.0000000000
     13054       105  PMPE      C39           -41.5481994739       -0.0887981226        5.7005596772  MEMB      105             0.0000000000
     13055       105  PMPE      H9X           -41.1417012818       -0.2977796617        4.7043790835  MEMB      105             0.0000000000
     13056       105  PMPE      H9Y           -40.7764040649        0.0300424615        6.4358782861  MEMB      105             0.0000000000
     13057       105  PMPE      C310          -42.4389973874        0.8738797084        5.4770505492  MEMB      105             0.0000000000
     13058       105  PMPE      H10X          -42.9056514755        0.9179394929        6.4470294243  MEMB      105             0.0000000000
     13059       105  PMPE      H10Y          -43.2198073529        0.6775790902        4.7974101130  MEMB      105             0.0000000000
     13060       105  PMPE      C311          -41.8019517284        1.9476677743        4.7683406039  MEMB      105             0.0000000000
     13061       105  PMPE      H11X          -41.2169830346        1.7004844650        3.8627565139  MEMB      105             0.0000000000
     13062       105  PMPE      H11Y          -41.0679866033        2.3269073406        5.5078663164  MEMB      105             0.0000000000
     13063       105  PMPE      C312          -43.0132548601        2.7166094786        4.2751214609  MEMB      105             0.0000000000
     13064       105  PMPE      H12X          -42.7011837034        3.3599536121        3.4368057237  MEMB      105             0.0000000000
     13065       105  PMPE      H12Y          -43.3915863092        3.3510701442        5.0734826535  MEMB      105             0.0000000000
     13066       105  PMPE      C313          -43.8923573623        2.2504360276        3.1759803001  MEMB      105             0.0000000000
     13067       105  PMPE      H13X          -44.2750558484        1.2616774216        3.3951686994  MEMB      105             0.0000000000
     13068       105  PMPE      H13Y          -43.2530163939        2.1198669927        2.2625696379  MEMB      105             0.0000000000
     13069       105  PMPE      C314          -45.0248282774        3.2709248028        2.9863452653  MEMB      105             0.0000000000
     13070       105  PMPE      H14X          -44.6770199592        4.3268588241        2.9493607067  MEMB      105             0.0000000000
     13071       105  PMPE      H14Y          -45.6754581423        3.1784342466        3.8812679684  MEMB      105             0.0000000000
     13072       105  PMPE      C315          -45.8659823065        2.8931822332        1.7765964862  MEMB      105             0.0000000000
     13073       105  PMPE      H15X          -46.2916582647        1.9175518879        2.1032494486  MEMB      105             0.0000000000
     13074       105  PMPE      H15Y          -45.1545564834        2.7045205999        0.9384558587  MEMB      105             0.0000000000
     13075       105  PMPE      C316          -47.0161777763        3.8253906689        1.3419696140  MEMB      105             0.0000000000
     13076       105  PMPE      H16X          -47.6559339496        3.2978342086        0.6103590683  MEMB      105             0.0000000000
     13077       105  PMPE      H16Y          -46.6627829143        4.6775797393        0.7255483998  MEMB      105             0.0000000000
     13078       105  PMPE      H16Z          -47.6670288107        4.1570250198        2.1910981020  MEMB      105             0.0000000000
     13079       106  PMPG      C13            43.7058437575        7.3193266080       19.1602700641  MEMB      106             0.0000000000
     13080       106  PMPG      H13A           42.8628327599        7.7260412489       19.7527173049  MEMB      106             0.0000000000
     13081       106  PMPG      H13B           44.5744273092        7.9232548764       19.4680865406  MEMB      106             0.0000000000
     13082       106  PMPG      OC3            43.4934551917        7.5385921015       17.7735600448  MEMB      106             0.0000000000
     13083       106  PMPG      HO3            44.1921754886        7.0342603444       17.3288356535  MEMB      106             0.0000000000
     13084       106  PMPG      C12            43.9051175264        5.8152088953       19.4776412205  MEMB      106             0.0000000000
     13085       106  PMPG      H12A           42.9752469968        5.2728286814       19.1954642358  MEMB      106             0.0000000000
     13086       106  PMPG      OC2            44.0936359602        5.6607188684       20.8876363150  MEMB      106             0.0000000000
     13087       106  PMPG      HO2            44.3854621879        4.7395251287       20.9632069932  MEMB      106             0.0000000000
     13088       106  PMPG      C11            45.0969693780        5.1687762547       18.7272698101  MEMB      106             0.0000000000
     13089       106  PMPG      H11A           44.9932585021        5.1882058070       17.6167642355  MEMB      106             0.0000000000
     13090       106  PMPG      H11B           45.1134166027        4.0776644257       18.9732330476  MEMB      106             0.0000000000
     13091       106  PMPG      P              47.6809505056        5.1737682403       18.8714970574  MEMB      106             0.0000000000
     13092       106  PMPG      O13            47.7286614871        3.8863473794       19.5718923131  MEMB      106             0.0000000000
     13093       106  PMPG      O14            48.7355560457        6.1774163379       19.2411616831  MEMB      106             0.0000000000
     13094       106  PMPG      O11            47.5305988849        5.0158172350       17.3115503418  MEMB      106             0.0000000000
     13095       106  PMPG      O12            46.2888858128        5.8498799912       19.1335370177  MEMB      106             0.0000000000
     13096       106  PMPG      C1             47.3603705703        6.1649531755       16.4636524035  MEMB      106             0.0000000000
     13097       106  PMPG      HA             48.1733704199        6.9121542595       16.6129081623  MEMB      106             0.0000000000
     13098       106  PMPG      HB             46.4670585698        6.7152438090       16.7646433874  MEMB      106             0.0000000000
     13099       106  PMPG      C2             47.2997713057        5.8295521572       14.9275886453  MEMB      106             0.0000000000
     13100       106  PMPG      HS             47.1250799053        6.7864555042       14.3922107825  MEMB      106             0.0000000000
     13101       106  PMPG      O21            46.3784547288        4.8408243373       14.5158234393  MEMB      106             0.0000000000
     13102       106  PMPG      C21            45.1116969730        4.9762136559       14.6506989207  MEMB      106             0.0000000000
     13103       106  PMPG      O22            44.4916664070        5.9275649828       15.0963040203  MEMB      106             0.0000000000
     13104       106  PMPG      C22            44.4295763897        3.6746835152       14.2074180425  MEMB      106             0.0000000000
     13105       106  PMPG      H2R            43.8046911953        3.4428072020       15.0958172669  MEMB      106             0.0000000000
     13106       106  PMPG      H2S            45.1839006102        2.8693141813       14.0957940653  MEMB      106             0.0000000000
     13107       106  PMPG      C3             48.5993176207        5.3022209241       14.3601115155  MEMB      106             0.0000000000
     13108       106  PMPG      HX             49.1557988377        4.5826812088       14.9105192492  MEMB      106             0.0000000000
     13109       106  PMPG      HY             49.1742580652        6.1339234540       14.3031153401  MEMB      106             0.0000000000
     13110       106  PMPG      O31            48.6662068546        5.0366304871       12.9922439632  MEMB      106             0.0000000000
     13111       106  PMPG      C31            48.6171543294        3.7768872119       12.8502432818  MEMB      106             0.0000000000
     13112       106  PMPG      O32            48.3697727751        3.0714971168       13.7463840965  MEMB      106             0.0000000000
     13113       106  PMPG      C32            48.7140403171        3.4110758143       11.4645992035  MEMB      106             0.0000000000
     13114       106  PMPG      H2X            47.7134828556        3.5340926616       11.0762878716  MEMB      106             0.0000000000
     13115       106  PMPG      H2Y            49.0124820107        2.4613718950       11.2939314442  MEMB      106             0.0000000000
     13116       106  PMPG      C23            43.4697695622        3.8030005996       12.9873539561  MEMB      106             0.0000000000
     13117       106  PMPG      H3R            42.7953902047        4.6733951040       13.1392512969  MEMB      106             0.0000000000
     13118       106  PMPG      H3S            42.8909537492        2.8565701051       12.8423870877  MEMB      106             0.0000000000
     13119       106  PMPG      C24            44.1842403436        3.9762521752       11.6620739732  MEMB      106             0.0000000000
     13120       106  PMPG      H4R            44.9832365684        3.2057070303       11.7534528035  MEMB      106             0.0000000000
     13121       106  PMPG      H4S            44.6272859775        4.9914084633       11.6045867141  MEMB      106             0.0000000000
     13122       106  PMPG      C25            43.3083152021        3.7845666502       10.4231154266  MEMB      106             0.0000000000
     13123       106  PMPG      H5R            42.2795569147        4.2045298723       10.4889210975  MEMB      106             0.0000000000
     13124       106  PMPG      H5S            43.1834529566        2.6923278106       10.3057505967  MEMB      106             0.0000000000
     13125       106  PMPG      C26            43.9803722078        4.4266499866        9.2210099836  MEMB      106             0.0000000000
     13126       106  PMPG      H6R            43.6384640767        3.8000167874        8.3639089312  MEMB      106             0.0000000000
     13127       106  PMPG      H6S            45.1086638659        4.3567641722        9.2560526433  MEMB      106             0.0000000000
     13128       106  PMPG      C27            43.5154509415        5.7653626606        8.9915751642  MEMB      106             0.0000000000
     13129       106  PMPG      H7R            43.3818302107        6.2878831845        9.9709193552  MEMB      106             0.0000000000
     13130       106  PMPG      H7S            42.5092086631        5.6796892621        8.5232534078  MEMB      106             0.0000000000
     13131       106  PMPG      C28            44.5933362356        6.4049648234        8.2439887086  MEMB      106             0.0000000000
     13132       106  PMPG      H8R            44.8320352214        6.0770056145        7.2362545223  MEMB      106             0.0000000000
     13133       106  PMPG      H8S            45.4785800794        6.7632895428        8.8286878257  MEMB      106             0.0000000000
     13134       106  PMPG      C29            43.9387567473        7.4051405203        8.3407252562  MEMB      106             0.0000000000
     13135       106  PMPG      H9R            44.3514840381        7.8737533201        9.5025249909  MEMB      106             0.0000000000
     13136       106  PMPG      C217           44.3981186329        7.9663253781        7.1548106701  MEMB      106             0.0000000000
     13137       106  PMPG      H17R           44.9823141589        9.5675436795        7.1625717970  MEMB      106             0.0000000000
     13138       106  PMPG      H17S           44.7243399582        7.5502631870        6.1902737850  MEMB      106             0.0000000000
     13139       106  PMPG      C210           42.6659051590        7.7992728284        7.4341054291  MEMB      106             0.0000000000
     13140       106  PMPG      H10R           41.8582322091        8.7232285414        7.4991844802  MEMB      106             0.0000000000
     13141       106  PMPG      C211           42.1322763802        7.1183612849        6.2292632601  MEMB      106             0.0000000000
     13142       106  PMPG      H11R           42.8341351777        6.2935023328        6.2078140564  MEMB      106             0.0000000000
     13143       106  PMPG      H11S           41.0713175706        7.0809154247        6.5662199497  MEMB      106             0.0000000000
     13144       106  PMPG      C212           41.9919517209        7.6001907464        4.7721580473  MEMB      106             0.0000000000
     13145       106  PMPG      H12R           42.9402884472        7.4745207086        4.2036097307  MEMB      106             0.0000000000
     13146       106  PMPG      H12S           41.8177052833        8.6611958610        4.6815004351  MEMB      106             0.0000000000
     13147       106  PMPG      C213           40.7553127460        6.9594193682        4.2334045161  MEMB      106             0.0000000000
     13148       106  PMPG      H13R           40.5438597040        7.3164355251        3.2042019246  MEMB      106             0.0000000000
     13149       106  PMPG      H13S           39.8922009045        7.1030401927        4.8846014880  MEMB      106             0.0000000000
     13150       106  PMPG      C214           40.9507477078        5.5332388350        4.1838972824  MEMB      106             0.0000000000
     13151       106  PMPG      H14R           40.0640111424        4.9997341054        3.8942791374  MEMB      106             0.0000000000
     13152       106  PMPG      H14S           41.2387835287        5.0144952251        5.1489432826  MEMB      106             0.0000000000
     13153       106  PMPG      C215           41.9917211421        5.6226282249        3.1088772472  MEMB      106             0.0000000000
     13154       106  PMPG      H15R           42.1053390591        4.8893723321        3.6395787651  MEMB      106             0.0000000000
     13155       106  PMPG      H15S           43.0786136967        5.7241030744        3.2702189123  MEMB      106             0.0000000000
     13156       106  PMPG      C216           41.7070833723        5.0773588068        1.8247940999  MEMB      106             0.0000000000
     13157       106  PMPG      H16R           42.6411349174        4.6127900016        1.3495145894  MEMB      106             0.0000000000
     13158       106  PMPG      H16S           41.5696956804        6.0009642067        1.3110478047  MEMB      106             0.0000000000
     13159       106  PMPG      H16T           40.9825172838        4.2606821401        1.6033001819  MEMB      106             0.0000000000
     13160       106  PMPG      C33            49.7677640769        4.2219103515       10.7771598699  MEMB      106             0.0000000000
     13161       106  PMPG      H3X            50.7594436094        4.1420702318       11.1926922881  MEMB      106             0.0000000000
     13162       106  PMPG      H3Y            49.7940136486        5.2086718172       11.0640842379  MEMB      106             0.0000000000
     13163       106  PMPG      C34            49.8365571785        4.0256604252        9.3004710082  MEMB      106             0.0000000000
     13164       106  PMPG      H4X            50.1044506286        3.0503544566        9.4230065431  MEMB      106             0.0000000000
     13165       106  PMPG      H4Y            50.7563693357        4.3624753412        8.8843436184  MEMB      106             0.0000000000
     13166       106  PMPG      C35            48.5889567285        4.2048612293        8.4570108155  MEMB      106             0.0000000000
     13167       106  PMPG      H5X            48.5437415959        5.2791128518        8.3420236499  MEMB      106             0.0000000000
     13168       106  PMPG      H5Y            47.6938555109        3.8851439434        9.0188126154  MEMB      106             0.0000000000
     13169       106  PMPG      C36            48.5789943697        3.7091526274        7.0091333628  MEMB      106             0.0000000000
     13170       106  PMPG      H6X            48.5461123413        2.6396255058        6.8552789962  MEMB      106             0.0000000000
     13171       106  PMPG      H6Y            49.3185719548        4.1810383403        6.3842524470  MEMB      106             0.0000000000
     13172       106  PMPG      C37            47.3721026175        4.0622642213        6.2994093229  MEMB      106             0.0000000000
     13173       106  PMPG      H7X            47.0492846686        5.0988957507        6.2544427382  MEMB      106             0.0000000000
     13174       106  PMPG      H7Y            46.7295525562        3.7522943349        7.2161769052  MEMB      106             0.0000000000
     13175       106  PMPG      C38            47.2505295875        3.2291653137        4.8538829273  MEMB      106             0.0000000000
     13176       106  PMPG      H8X            46.9639677380        2.1795309120        5.0295296682  MEMB      106             0.0000000000
     13177       106  PMPG      H8Y            48.1852337313        3.2786167252        4.3758980471  MEMB      106             0.0000000000
     13178       106  PMPG      C39            46.3578062281        3.5363835381        3.6426279144  MEMB      106             0.0000000000
     13179       106  PMPG      H9X            45.7424152552        2.3309975554        3.6249072449  MEMB      106             0.0000000000
     13180       106  PMPG      H9Y            45.6659647857        3.3910186853        2.8672326777  MEMB      106             0.0000000000
     13181       106  PMPG      C310           46.2638108779        5.2203923333        3.5789829822  MEMB      106             0.0000000000
     13182       106  PMPG      H10X           46.6214868794        5.8356193016        4.4968729345  MEMB      106             0.0000000000
     13183       106  PMPG      H10Y           45.3479952179        5.8690366129        3.2948537282  MEMB      106             0.0000000000
     13184       106  PMPG      C311           47.3436163558        5.5342240598        2.6395619796  MEMB      106             0.0000000000
     13185       106  PMPG      H11X           47.4339307615        4.6577780539        2.0198421003  MEMB      106             0.0000000000
     13186       106  PMPG      H11Y           48.2588780931        5.6030222256        3.2497025379  MEMB      106             0.0000000000
     13187       106  PMPG      C312           47.0626364799        6.6310442864        1.7396645283  MEMB      106             0.0000000000
     13188       106  PMPG      H12X           47.8925411445        7.1773740930        1.1730027738  MEMB      106             0.0000000000
     13189       106  PMPG      H12Y           46.6547223473        7.3808191711        2.4167337299  MEMB      106             0.0000000000
     13190       106  PMPG      C313           45.9443298123        6.2253917861        0.8453697994  MEMB      106             0.0000000000
     13191       106  PMPG      H13X           44.9343462200        6.1765394177        1.2595080050  MEMB      106             0.0000000000
     13192       106  PMPG      H13Y           46.2798763618        5.4539274459        0.1983791406  MEMB      106             0.0000000000
     13193       106  PMPG      C314           45.8789732771        7.0037160709       -0.2246426743  MEMB      106             0.0000000000
     13194       106  PMPG      H14X           46.7490715171        7.4074959790       -0.5522648269  MEMB      106             0.0000000000
     13195       106  PMPG      H14Y           46.0355830566        7.6721638712        0.6166033432  MEMB      106             0.0000000000
     13196       106  PMPG      C315           44.6689660879        6.9932047136       -1.1577471974  MEMB      106             0.0000000000
     13197       106  PMPG      H15X           45.1987638518        7.4274070656       -1.8973773444  MEMB      106             0.0000000000
     13198       106  PMPG      H15Y           43.5742253373        7.4385049332       -1.0659358783  MEMB      106             0.0000000000
     13199       106  PMPG      C316           44.6490818234        5.9346412298       -1.7299117502  MEMB      106             0.0000000000
     13200       106  PMPG      H16X           44.4471016893        5.3831600153       -0.7926271845  MEMB      106             0.0000000000
     13201       106  PMPG      H16Y           45.4984121273        5.6146300981       -2.3078073782  MEMB      106             0.0000000000
     13202       106  PMPG      H16Z           43.7397578235        5.8333731080       -2.1767715488  MEMB      106             0.0000000000
     13203       107  QMPE      N              -3.1064162015      -43.2352457334       20.5426832282  MEMB      107             0.0000000000
     13204       107  QMPE      HN1            -2.1034464324      -43.2094775732       20.7986361910  MEMB      107             0.0000000000
     13205       107  QMPE      HN2            -3.1863518204      -42.7088906555       19.6447489588  MEMB      107             0.0000000000
     13206       107  QMPE      HN3            -3.7280665914      -42.8442034536       21.2885656037  MEMB      107             0.0000000000
     13207       107  QMPE      C12            -3.5353103501      -44.6588787410       20.4148935581  MEMB      107             0.0000000000
     13208       107  QMPE      H12A           -4.5445445909      -44.6840981936       19.9514898951  MEMB      107             0.0000000000
     13209       107  QMPE      H12B           -3.6066269548      -45.1015298009       21.4235493081  MEMB      107             0.0000000000
     13210       107  QMPE      C11            -2.5169641637      -45.4289570548       19.6073588934  MEMB      107             0.0000000000
     13211       107  QMPE      H11A           -1.4690878282      -45.3995464196       19.9740563831  MEMB      107             0.0000000000
     13212       107  QMPE      H11B           -2.5173069226      -44.9225747957       18.6210026058  MEMB      107             0.0000000000
     13213       107  QMPE      P              -3.7610035138      -47.2385126881       18.2885274335  MEMB      107             0.0000000000
     13214       107  QMPE      O13            -4.6618290745      -46.2460163682       17.7292025997  MEMB      107             0.0000000000
     13215       107  QMPE      O14            -4.3268680789      -48.4452587213       18.8266101334  MEMB      107             0.0000000000
     13216       107  QMPE      O11            -2.6573583256      -47.4562247001       17.2521185635  MEMB      107             0.0000000000
     13217       107  QMPE      O12            -2.9514841378      -46.7612059058       19.5488861287  MEMB      107             0.0000000000
     13218       107  QMPE      C1             -1.4710184679      -48.1117301473       17.4060741141  MEMB      107             0.0000000000
     13219       107  QMPE      HA             -1.5674164407      -48.9134573633       18.1010549068  MEMB      107             0.0000000000
     13220       107  QMPE      HB             -0.7070589079      -47.6796933182       18.0323175604  MEMB      107             0.0000000000
     13221       107  QMPE      C2             -0.9648737376      -48.3509053719       15.9920170328  MEMB      107             0.0000000000
     13222       107  QMPE      HS              0.1414386281      -48.5826523353       16.2467216527  MEMB      107             0.0000000000
     13223       107  QMPE      O21            -0.7554906397      -47.2488916037       15.2117471476  MEMB      107             0.0000000000
     13224       107  QMPE      C21             0.2585238488      -46.5252034235       15.6196581126  MEMB      107             0.0000000000
     13225       107  QMPE      O22             1.0928968227      -46.7703270705       16.4838340200  MEMB      107             0.0000000000
     13226       107  QMPE      C22             0.0529743441      -45.2365847926       14.9940038928  MEMB      107             0.0000000000
     13227       107  QMPE      H2R            -0.3400626207      -44.6671111338       15.8584039255  MEMB      107             0.0000000000
     13228       107  QMPE      H2S            -0.7971272296      -45.2975824145       14.2751002146  MEMB      107             0.0000000000
     13229       107  QMPE      C3             -1.9158008766      -49.4080013466       14.9908346280  MEMB      107             0.0000000000
     13230       107  QMPE      HX             -1.9674297253      -50.4500458465       15.3630840950  MEMB      107             0.0000000000
     13231       107  QMPE      HY             -1.3628168411      -49.7849320905       14.0551825410  MEMB      107             0.0000000000
     13232       107  QMPE      O31            -3.2172437679      -49.1483922838       14.7295688956  MEMB      107             0.0000000000
     13233       107  QMPE      C31            -3.1784708051      -48.4565501041       13.6499801648  MEMB      107             0.0000000000
     13234       107  QMPE      O32            -2.3236056998      -48.4121418799       12.7832886037  MEMB      107             0.0000000000
     13235       107  QMPE      C32            -4.4204576795      -47.7091966977       13.7050179012  MEMB      107             0.0000000000
     13236       107  QMPE      H2X            -5.1693595175      -48.4290874933       13.7365734733  MEMB      107             0.0000000000
     13237       107  QMPE      H2Y            -4.5166426631      -47.1539058031       14.6458183573  MEMB      107             0.0000000000
     13238       107  QMPE      C23             1.4203159363      -44.6938888196       14.5285413986  MEMB      107             0.0000000000
     13239       107  QMPE      H3R             1.8317160606      -45.1677097005       13.6073495536  MEMB      107             0.0000000000
     13240       107  QMPE      H3S             2.1975400212      -44.8495048532       15.3130260912  MEMB      107             0.0000000000
     13241       107  QMPE      C24             1.4164605019      -43.1924018320       14.3123588844  MEMB      107             0.0000000000
     13242       107  QMPE      H4R             2.3833460606      -42.9322515807       13.8491037720  MEMB      107             0.0000000000
     13243       107  QMPE      H4S             1.4418172241      -42.6398932071       15.2781911864  MEMB      107             0.0000000000
     13244       107  QMPE      C25             0.2676896353      -42.7631754859       13.4039434446  MEMB      107             0.0000000000
     13245       107  QMPE      H5R             0.1539185816      -41.6610439142       13.4578152195  MEMB      107             0.0000000000
     13246       107  QMPE      H5S            -0.6664966971      -43.2572053039       13.7409053909  MEMB      107             0.0000000000
     13247       107  QMPE      C26             0.4691165689      -43.1483080388       11.9446413981  MEMB      107             0.0000000000
     13248       107  QMPE      H6R             0.6613559265      -44.2469407810       11.9364230492  MEMB      107             0.0000000000
     13249       107  QMPE      H6S             1.3216469745      -42.5325423363       11.5652038424  MEMB      107             0.0000000000
     13250       107  QMPE      C27            -0.7889451374      -42.9087389392       11.1230964891  MEMB      107             0.0000000000
     13251       107  QMPE      H7R            -1.1962623767      -41.9151527417       11.3709734270  MEMB      107             0.0000000000
     13252       107  QMPE      H7S            -1.5816196153      -43.6263524619       11.4225467330  MEMB      107             0.0000000000
     13253       107  QMPE      C28            -0.6349412025      -43.0123751185        9.6146437421  MEMB      107             0.0000000000
     13254       107  QMPE      H8R             0.0741469955      -42.2944080449        9.1670026572  MEMB      107             0.0000000000
     13255       107  QMPE      H8S            -1.6290126848      -42.7276722677        9.2347811872  MEMB      107             0.0000000000
     13256       107  QMPE      C29            -0.2930616671      -44.4084209449        9.2243093177  MEMB      107             0.0000000000
     13257       107  QMPE      H9R            -0.9100357846      -45.2636499129        9.5251811316  MEMB      107             0.0000000000
     13258       107  QMPE      C217            1.1399205967      -44.6220189705        9.3076906679  MEMB      107             0.0000000000
     13259       107  QMPE      H17R            1.9145263339      -43.8852293337        9.2300051700  MEMB      107             0.0000000000
     13260       107  QMPE      H17S            1.3657332995      -45.6406291788        9.6983554965  MEMB      107             0.0000000000
     13261       107  QMPE      C210            0.3712256594      -44.5779014160        7.9237229887  MEMB      107             0.0000000000
     13262       107  QMPE      H10R            0.0045982934      -45.4953021970        7.3881115251  MEMB      107             0.0000000000
     13263       107  QMPE      C211            0.4646766549      -43.3174268549        7.1547610511  MEMB      107             0.0000000000
     13264       107  QMPE      H11R           -0.5396983745      -42.9132472124        6.9914166504  MEMB      107             0.0000000000
     13265       107  QMPE      H11S            1.2168271596      -42.5841171720        7.4732493002  MEMB      107             0.0000000000
     13266       107  QMPE      C212            0.7849737699      -43.5191003227        5.8334893757  MEMB      107             0.0000000000
     13267       107  QMPE      H12R            0.5435265930      -42.6765243549        5.2293339027  MEMB      107             0.0000000000
     13268       107  QMPE      H12S           -0.0897710056      -44.1475372004        5.4404303465  MEMB      107             0.0000000000
     13269       107  QMPE      C213            2.3815782375      -43.7847702044        5.6166886626  MEMB      107             0.0000000000
     13270       107  QMPE      H13R            2.2761211470      -44.6176481602        6.3993363183  MEMB      107             0.0000000000
     13271       107  QMPE      H13S            3.2006834979      -43.3084056563        5.9691802050  MEMB      107             0.0000000000
     13272       107  QMPE      C214            3.3165013596      -44.2288577408        3.9276897485  MEMB      107             0.0000000000
     13273       107  QMPE      H14R            4.3323690739      -44.3783394637        4.0347220259  MEMB      107             0.0000000000
     13274       107  QMPE      H14S            3.2791534742      -43.3791000465        3.6196274666  MEMB      107             0.0000000000
     13275       107  QMPE      C215            2.5504549314      -45.7525251990        2.6111033116  MEMB      107             0.0000000000
     13276       107  QMPE      H15R            1.2464072883      -45.7102119826        2.3873912287  MEMB      107             0.0000000000
     13277       107  QMPE      H15S            2.5555573043      -46.8246974299        3.0822155078  MEMB      107             0.0000000000
     13278       107  QMPE      C216            2.6931614841      -46.2000530449        1.4628333391  MEMB      107             0.0000000000
     13279       107  QMPE      H16R            3.7216969770      -46.0685191050        1.5287975301  MEMB      107             0.0000000000
     13280       107  QMPE      H16S            2.3065966820      -45.5943533005        0.7547480916  MEMB      107             0.0000000000
     13281       107  QMPE      H16T            2.0952147519      -47.1120574888        1.3499156395  MEMB      107             0.0000000000
     13282       107  QMPE      C33            -4.6874416276      -46.9103276140       12.4705875357  MEMB      107             0.0000000000
     13283       107  QMPE      H3X            -5.7646451887      -46.6759461110       12.4633467171  MEMB      107             0.0000000000
     13284       107  QMPE      H3Y            -4.4548982940      -47.4707999845       11.5334694858  MEMB      107             0.0000000000
     13285       107  QMPE      C34            -3.9394377856      -45.6044522799       12.5806778201  MEMB      107             0.0000000000
     13286       107  QMPE      H4X            -2.8989313567      -45.7810173502       12.2956922768  MEMB      107             0.0000000000
     13287       107  QMPE      H4Y            -3.9594463929      -45.1605434336       13.5999227726  MEMB      107             0.0000000000
     13288       107  QMPE      C35            -4.3974251304      -44.6285599476       11.5757980838  MEMB      107             0.0000000000
     13289       107  QMPE      H5X            -3.8326992893      -43.6544366503       11.6286777675  MEMB      107             0.0000000000
     13290       107  QMPE      H5Y            -5.4476159166      -44.3907271462       11.9022633450  MEMB      107             0.0000000000
     13291       107  QMPE      C36            -4.4203959659      -45.1579355244       10.0825854290  MEMB      107             0.0000000000
     13292       107  QMPE      H6X            -5.0846773863      -46.0013381443        9.9991891289  MEMB      107             0.0000000000
     13293       107  QMPE      H6Y            -3.4389979661      -45.4235308663        9.7011274762  MEMB      107             0.0000000000
     13294       107  QMPE      C37            -4.8877998572      -44.2398963816        8.9906452043  MEMB      107             0.0000000000
     13295       107  QMPE      H7X            -5.9907445586      -44.1187911454        9.1667421209  MEMB      107             0.0000000000
     13296       107  QMPE      H7Y            -4.2694339895      -43.4055759400        9.3508625941  MEMB      107             0.0000000000
     13297       107  QMPE      C38            -5.1292924833      -44.5315705420        7.6014516441  MEMB      107             0.0000000000
     13298       107  QMPE      H8X            -5.0133330197      -45.5971400700        7.6321799845  MEMB      107             0.0000000000
     13299       107  QMPE      H8Y            -6.1709492337      -44.2221580558        7.2735370258  MEMB      107             0.0000000000
     13300       107  QMPE      C39            -4.0087599749      -44.0394455618        6.8067332351  MEMB      107             0.0000000000
     13301       107  QMPE      H9X            -3.0108684702      -44.1633950440        7.1846966614  MEMB      107             0.0000000000
     13302       107  QMPE      H9Y            -3.9824237750      -43.0107570895        7.0177005109  MEMB      107             0.0000000000
     13303       107  QMPE      C310           -4.1740488703      -44.4654624038        5.3591921960  MEMB      107             0.0000000000
     13304       107  QMPE      H10X           -5.2208591443      -44.2220892724        4.9843875133  MEMB      107             0.0000000000
     13305       107  QMPE      H10Y           -4.0167283081      -45.5488967887        5.3931242724  MEMB      107             0.0000000000
     13306       107  QMPE      C311           -3.1920253172      -43.7655734903        4.4021917664  MEMB      107             0.0000000000
     13307       107  QMPE      H11X           -2.1350024779      -43.6556481797        4.7063130325  MEMB      107             0.0000000000
     13308       107  QMPE      H11Y           -3.4562939200      -42.7154979192        4.2980306999  MEMB      107             0.0000000000
     13309       107  QMPE      C312           -3.3140913423      -44.4016364376        3.0333433758  MEMB      107             0.0000000000
     13310       107  QMPE      H12X           -4.3219070987      -44.2203744188        2.6057097196  MEMB      107             0.0000000000
     13311       107  QMPE      H12Y           -3.1818778975      -45.4797521207        3.2074907050  MEMB      107             0.0000000000
     13312       107  QMPE      C313           -2.2236662301      -43.9532299230        2.0967910360  MEMB      107             0.0000000000
     13313       107  QMPE      H13X           -2.4702356636      -42.9125719708        1.8380482022  MEMB      107             0.0000000000
     13314       107  QMPE      H13Y           -1.3757467527      -43.8997224617        2.6920196162  MEMB      107             0.0000000000
     13315       107  QMPE      C314           -1.8532112598      -44.9151584981        0.9771367093  MEMB      107             0.0000000000
     13316       107  QMPE      H14X           -1.7881439422      -45.9717733343        1.2926638310  MEMB      107             0.0000000000
     13317       107  QMPE      H14Y           -0.8635438146      -44.6424647669        0.5630661219  MEMB      107             0.0000000000
     13318       107  QMPE      C315           -2.9100755048      -44.8454532526       -0.0229102442  MEMB      107             0.0000000000
     13319       107  QMPE      H15X           -3.2218992521      -43.7642615447       -0.0518647490  MEMB      107             0.0000000000
     13320       107  QMPE      H15Y           -2.6399237917      -45.1948946267       -1.0662447774  MEMB      107             0.0000000000
     13321       107  QMPE      H15Z           -3.8260929979      -45.3477522130        0.3205560964  MEMB      107             0.0000000000
     13322       108  PMPE      N               4.6785619067      -48.7963141915       20.7659672034  MEMB      108             0.0000000000
     13323       108  PMPE      HN1             4.3260489513      -47.8648567792       21.1053510039  MEMB      108             0.0000000000
     13324       108  PMPE      HN2             3.8778600580      -49.4212006085       20.5943455076  MEMB      108             0.0000000000
     13325       108  PMPE      HN3             5.3525947716      -49.2346108696       21.4244810588  MEMB      108             0.0000000000
     13326       108  PMPE      C12             5.2221508957      -48.6147031635       19.3772344412  MEMB      108             0.0000000000
     13327       108  PMPE      H12A            5.3464451991      -49.6237634828       18.9338869820  MEMB      108             0.0000000000
     13328       108  PMPE      H12B            6.1668531388      -48.0761695185       19.4781854094  MEMB      108             0.0000000000
     13329       108  PMPE      C11             4.2824056309      -47.7397336808       18.5574569381  MEMB      108             0.0000000000
     13330       108  PMPE      H11A            3.2636203095      -48.1692411267       18.6469627633  MEMB      108             0.0000000000
     13331       108  PMPE      H11B            4.4966338937      -47.6755930953       17.4706498972  MEMB      108             0.0000000000
     13332       108  PMPE      P               5.0632799777      -45.1674761654       18.6572742536  MEMB      108             0.0000000000
     13333       108  PMPE      O13             5.5885341638      -44.5295345809       19.8854186346  MEMB      108             0.0000000000
     13334       108  PMPE      O14             4.1509780174      -44.3827990731       17.8042291248  MEMB      108             0.0000000000
     13335       108  PMPE      O11             6.2821022089      -45.8010955571       17.8361918210  MEMB      108             0.0000000000
     13336       108  PMPE      O12             4.2643856214      -46.4539359457       19.1218436858  MEMB      108             0.0000000000
     13337       108  PMPE      C1              7.6461140086      -45.4228525821       18.0605684000  MEMB      108             0.0000000000
     13338       108  PMPE      HA              8.2394347697      -46.3558866368       17.9956996808  MEMB      108             0.0000000000
     13339       108  PMPE      HB              7.8749722460      -45.0576889133       19.0914759682  MEMB      108             0.0000000000
     13340       108  PMPE      C2              8.2260134305      -44.4311007832       16.9907933911  MEMB      108             0.0000000000
     13341       108  PMPE      HS              8.4411348554      -43.4374726588       17.4390950166  MEMB      108             0.0000000000
     13342       108  PMPE      O21             7.4333699797      -44.3827881021       15.7885710783  MEMB      108             0.0000000000
     13343       108  PMPE      C21             6.5677588283      -43.4379724120       15.7057943061  MEMB      108             0.0000000000
     13344       108  PMPE      O22             6.5418974719      -42.4602347042       16.4462997681  MEMB      108             0.0000000000
     13345       108  PMPE      C22             5.8042689112      -43.5328907130       14.3241827304  MEMB      108             0.0000000000
     13346       108  PMPE      H2R             5.3699013763      -42.5226713009       14.0953375198  MEMB      108             0.0000000000
     13347       108  PMPE      H2S             5.0307057291      -44.2590043040       14.5157377010  MEMB      108             0.0000000000
     13348       108  PMPE      C3              9.6434389597      -44.8554232535       16.6408084527  MEMB      108             0.0000000000
     13349       108  PMPE      HX             10.2494026812      -44.8112009041       17.5430364104  MEMB      108             0.0000000000
     13350       108  PMPE      HY             10.0963702086      -44.2006017222       15.8761871577  MEMB      108             0.0000000000
     13351       108  PMPE      O31             9.7174719980      -46.1812406714       16.2974698492  MEMB      108             0.0000000000
     13352       108  PMPE      C31             9.2824269286      -46.3524681697       15.0991089255  MEMB      108             0.0000000000
     13353       108  PMPE      O32             8.7540426565      -45.6001461441       14.3455624471  MEMB      108             0.0000000000
     13354       108  PMPE      C32             9.4958247726      -47.7115432361       14.8210920667  MEMB      108             0.0000000000
     13355       108  PMPE      H2X             8.8352771659      -47.8413931015       15.7077719276  MEMB      108             0.0000000000
     13356       108  PMPE      H2Y            10.3224595000      -48.0734513418       15.2959697557  MEMB      108             0.0000000000
     13357       108  PMPE      C23             6.6051345857      -44.1154460372       13.1075106810  MEMB      108             0.0000000000
     13358       108  PMPE      H3R             6.9532250127      -45.1359453853       13.3145796613  MEMB      108             0.0000000000
     13359       108  PMPE      H3S             7.5267202964      -43.5772421041       12.8254122934  MEMB      108             0.0000000000
     13360       108  PMPE      C24             5.8334931779      -44.0643697209       11.8154899677  MEMB      108             0.0000000000
     13361       108  PMPE      H4R             6.5392846836      -44.4268795435       11.0402036691  MEMB      108             0.0000000000
     13362       108  PMPE      H4S             5.6518743497      -42.9900436180       11.5914630560  MEMB      108             0.0000000000
     13363       108  PMPE      C25             4.5088962540      -44.8233931763       11.8414710755  MEMB      108             0.0000000000
     13364       108  PMPE      H5R             3.8391239616      -44.3486011625       12.5955088662  MEMB      108             0.0000000000
     13365       108  PMPE      H5S             4.5958084232      -45.8870749450       12.1661615691  MEMB      108             0.0000000000
     13366       108  PMPE      C26             3.7936419337      -44.7550067903       10.4914697336  MEMB      108             0.0000000000
     13367       108  PMPE      H6R             3.6039013525      -43.7097032580       10.1602251174  MEMB      108             0.0000000000
     13368       108  PMPE      H6S             2.8445056412      -45.2581523764       10.7251815229  MEMB      108             0.0000000000
     13369       108  PMPE      C27             4.5011244720      -45.4610168588        9.3304313923  MEMB      108             0.0000000000
     13370       108  PMPE      H7R             4.6516484063      -46.4829695246        9.7060360969  MEMB      108             0.0000000000
     13371       108  PMPE      H7S             5.4383503088      -44.8771387759        9.1905757489  MEMB      108             0.0000000000
     13372       108  PMPE      C28             3.8645671062      -45.4851846625        7.9439066172  MEMB      108             0.0000000000
     13373       108  PMPE      H8R             4.5464513596      -45.8480831343        7.1623131941  MEMB      108             0.0000000000
     13374       108  PMPE      H8S             3.6901477724      -44.4172667173        7.7214915872  MEMB      108             0.0000000000
     13375       108  PMPE      C29             2.5899756338      -46.2826222017        7.7899986946  MEMB      108             0.0000000000
     13376       108  PMPE      H9R             1.6806496199      -46.2194827035        8.0801131052  MEMB      108             0.0000000000
     13377       108  PMPE      C217            2.4922153836      -47.5177175362        7.5549391841  MEMB      108             0.0000000000
     13378       108  PMPE      H17R            1.7433542691      -48.0606805422        8.2163426218  MEMB      108             0.0000000000
     13379       108  PMPE      H17S            3.5382099768      -47.6955252390        7.2437029479  MEMB      108             0.0000000000
     13380       108  PMPE      C210            2.0191040176      -46.8633032151        6.5081117810  MEMB      108             0.0000000000
     13381       108  PMPE      H10R            0.9476914360      -47.0903025607        6.4073634198  MEMB      108             0.0000000000
     13382       108  PMPE      C211            2.9496254964      -47.2522910680        5.4910582705  MEMB      108             0.0000000000
     13383       108  PMPE      H11R            2.5610832114      -47.9160911876        4.7728125251  MEMB      108             0.0000000000
     13384       108  PMPE      H11S            4.0755344969      -47.1777127716        5.6349326624  MEMB      108             0.0000000000
     13385       108  PMPE      C212            2.9489497651      -46.1960831803        5.0326593546  MEMB      108             0.0000000000
     13386       108  PMPE      H12R            3.8466957143      -46.2257481454        4.1803222437  MEMB      108             0.0000000000
     13387       108  PMPE      H12S            3.6572816875      -45.4555398741        5.5728886056  MEMB      108             0.0000000000
     13388       108  PMPE      C213            1.2676011654      -45.6312362028        4.4680734296  MEMB      108             0.0000000000
     13389       108  PMPE      H13R            0.4950916027      -45.6372465533        4.9143414065  MEMB      108             0.0000000000
     13390       108  PMPE      H13S            0.9226867472      -46.6077077895        3.8966470448  MEMB      108             0.0000000000
     13391       108  PMPE      C214            1.0720116428      -43.9018073356        3.3222246174  MEMB      108             0.0000000000
     13392       108  PMPE      H14R            1.4914643504      -42.9850339963        3.7991804236  MEMB      108             0.0000000000
     13393       108  PMPE      H14S            0.2036717008      -43.7361073364        3.0491565266  MEMB      108             0.0000000000
     13394       108  PMPE      C215            2.0798185845      -43.4331097518        1.9514219423  MEMB      108             0.0000000000
     13395       108  PMPE      H15R            1.7842044300      -44.1471842501        1.4068025015  MEMB      108             0.0000000000
     13396       108  PMPE      H15S            3.2544715448      -43.5352696198        1.8604107398  MEMB      108             0.0000000000
     13397       108  PMPE      C216            1.8421702453      -42.5510020730        1.1452033371  MEMB      108             0.0000000000
     13398       108  PMPE      H16R            2.0758265366      -41.7823516398        1.8089140822  MEMB      108             0.0000000000
     13399       108  PMPE      H16S            2.4170534768      -42.4591805629        0.2075791490  MEMB      108             0.0000000000
     13400       108  PMPE      H16T            0.7594111815      -42.5299889870        1.0853269113  MEMB      108             0.0000000000
     13401       108  PMPE      C33             9.4183084853      -48.6261751911       13.4191541148  MEMB      108             0.0000000000
     13402       108  PMPE      H3X             9.9117137242      -49.6418665341       13.3244538927  MEMB      108             0.0000000000
     13403       108  PMPE      H3Y            10.1260235251      -48.3125456118       12.7730375855  MEMB      108             0.0000000000
     13404       108  PMPE      C34             8.0932070412      -48.4640077703       12.7103190686  MEMB      108             0.0000000000
     13405       108  PMPE      H4X             7.5280112403      -47.5622834819       12.7463331981  MEMB      108             0.0000000000
     13406       108  PMPE      H4Y             7.4801610120      -48.9602284650       13.2778555381  MEMB      108             0.0000000000
     13407       108  PMPE      C35             7.8794714101      -49.1941324127       11.5296815504  MEMB      108             0.0000000000
     13408       108  PMPE      H5X             7.0141365675      -49.5061742332       11.4429074944  MEMB      108             0.0000000000
     13409       108  PMPE      H5Y             8.5002525540      -50.1115120247       11.3886561930  MEMB      108             0.0000000000
     13410       108  PMPE      C36             7.4368150905      -48.3593480799       10.4066765706  MEMB      108             0.0000000000
     13411       108  PMPE      H6X             8.0004745794      -47.4944519051       10.3306111277  MEMB      108             0.0000000000
     13412       108  PMPE      H6Y             6.5521150304      -47.8225844280       10.6658401688  MEMB      108             0.0000000000
     13413       108  PMPE      C37             7.6848190997      -48.9569643208        9.0921569013  MEMB      108             0.0000000000
     13414       108  PMPE      H7X             7.1630647140      -49.6016860487        9.7743514177  MEMB      108             0.0000000000
     13415       108  PMPE      H7Y             8.0539254410      -49.9473531908        8.6562806774  MEMB      108             0.0000000000
     13416       108  PMPE      C38             6.9520318359      -48.1151340242        8.0537231459  MEMB      108             0.0000000000
     13417       108  PMPE      H8X             5.8810724744      -47.8226276098        8.0732400974  MEMB      108             0.0000000000
     13418       108  PMPE      H8Y             7.2289136731      -48.8386632882        7.3611168743  MEMB      108             0.0000000000
     13419       108  PMPE      C39             7.6974444951      -47.1069312614        7.3982118665  MEMB      108             0.0000000000
     13420       108  PMPE      H9X             8.6664954297      -47.5992038471        7.2906738772  MEMB      108             0.0000000000
     13421       108  PMPE      H9Y             7.5980109904      -46.4084173186        8.2345299253  MEMB      108             0.0000000000
     13422       108  PMPE      C310            7.1855090743      -46.5054338651        6.1075721143  MEMB      108             0.0000000000
     13423       108  PMPE      H10X            7.7554729005      -45.5661139934        6.0079456075  MEMB      108             0.0000000000
     13424       108  PMPE      H10Y            6.0791255506      -46.4031059491        6.0943702389  MEMB      108             0.0000000000
     13425       108  PMPE      C311            7.5098369789      -47.1964302024        4.8382650018  MEMB      108             0.0000000000
     13426       108  PMPE      H11X            6.9866528369      -48.1371870916        5.0449780514  MEMB      108             0.0000000000
     13427       108  PMPE      H11Y            8.5842007224      -47.2296543648        4.5521897688  MEMB      108             0.0000000000
     13428       108  PMPE      C312            6.7217412183      -46.6719032926        3.6718840417  MEMB      108             0.0000000000
     13429       108  PMPE      H12X            7.0068448531      -45.6989483323        3.2951735610  MEMB      108             0.0000000000
     13430       108  PMPE      H12Y            5.7170166551      -46.9805137862        3.8562048672  MEMB      108             0.0000000000
     13431       108  PMPE      C313            6.7695224752      -47.4200382175        2.4450635160  MEMB      108             0.0000000000
     13432       108  PMPE      H13X            6.3839618576      -48.4799032931        2.6687817843  MEMB      108             0.0000000000
     13433       108  PMPE      H13Y            7.9361259946      -47.1355537924        2.4615890803  MEMB      108             0.0000000000
     13434       108  PMPE      C314            6.0751984606      -47.3206126747        1.1084213233  MEMB      108             0.0000000000
     13435       108  PMPE      H14X            6.2734601701      -47.8715205921        0.1453743125  MEMB      108             0.0000000000
     13436       108  PMPE      H14Y            6.4440314943      -46.4570751393        0.6409395065  MEMB      108             0.0000000000
     13437       108  PMPE      C315            4.8715223710      -48.1434698424        1.1853809388  MEMB      108             0.0000000000
     13438       108  PMPE      H15X            4.4272145127      -47.5676130724        1.9374837502  MEMB      108             0.0000000000
     13439       108  PMPE      H15Y            4.9418039800      -49.1247442175        1.6906059013  MEMB      108             0.0000000000
     13440       108  PMPE      C316            4.1895020407      -48.1919680945       -0.1050604728  MEMB      108             0.0000000000
     13441       108  PMPE      H16X            3.1423978529      -48.4899215860        0.0896019523  MEMB      108             0.0000000000
     13442       108  PMPE      H16Y            4.7310528996      -48.9044936472       -0.7736950299  MEMB      108             0.0000000000
     13443       108  PMPE      H16Z            4.1446489041      -47.2162481580       -0.6436484364  MEMB      108             0.0000000000
     13444       109  PMPE      N             -11.7061439466      -43.6223375176       20.7202500071  MEMB      109             0.0000000000
     13445       109  PMPE      HN1           -11.1789985110      -42.8908879922       20.2172593950  MEMB      109             0.0000000000
     13446       109  PMPE      HN2           -12.5595600346      -43.8686160482       20.1884110664  MEMB      109             0.0000000000
     13447       109  PMPE      HN3           -11.9077308714      -43.3432102217       21.7049228742  MEMB      109             0.0000000000
     13448       109  PMPE      C12           -10.8227289512      -44.8155919699       20.6779845456  MEMB      109             0.0000000000
     13449       109  PMPE      H12A          -10.9429862484      -45.3305290218       21.6094676122  MEMB      109             0.0000000000
     13450       109  PMPE      H12B           -9.7945742024      -44.4852644711       20.6724585250  MEMB      109             0.0000000000
     13451       109  PMPE      C11           -11.1081087872      -45.6907120280       19.4731497611  MEMB      109             0.0000000000
     13452       109  PMPE      H11A          -10.5231711732      -46.6086214953       19.7104839687  MEMB      109             0.0000000000
     13453       109  PMPE      H11B          -10.7286330986      -45.2598881970       18.5116084354  MEMB      109             0.0000000000
     13454       109  PMPE      P             -13.0457453312      -46.8948611090       18.2307421793  MEMB      109             0.0000000000
     13455       109  PMPE      O13           -14.2531106946      -47.6022007308       18.7036363716  MEMB      109             0.0000000000
     13456       109  PMPE      O14           -11.8884712691      -47.6500089843       17.6991931376  MEMB      109             0.0000000000
     13457       109  PMPE      O11           -13.4754415691      -45.8506763995       17.1289822229  MEMB      109             0.0000000000
     13458       109  PMPE      O12           -12.5162935249      -45.9412287150       19.4114496219  MEMB      109             0.0000000000
     13459       109  PMPE      C1            -13.9957056492      -44.5747595053       17.4049429026  MEMB      109             0.0000000000
     13460       109  PMPE      HA            -13.5454808720      -44.1675776202       18.3214887210  MEMB      109             0.0000000000
     13461       109  PMPE      HB            -15.0822503014      -44.6897541579       17.5834664805  MEMB      109             0.0000000000
     13462       109  PMPE      C2            -13.7201332803      -43.5554261431       16.2652258350  MEMB      109             0.0000000000
     13463       109  PMPE      HS            -13.9727514245      -42.5584688039       16.6769222426  MEMB      109             0.0000000000
     13464       109  PMPE      O21           -14.6005076430      -43.8719514099       15.1820981201  MEMB      109             0.0000000000
     13465       109  PMPE      C21           -14.6402410493      -42.9973141460       14.1874439510  MEMB      109             0.0000000000
     13466       109  PMPE      O22           -14.2431424185      -41.8477959626       14.2543010573  MEMB      109             0.0000000000
     13467       109  PMPE      C22           -15.3759553564      -43.6216444179       13.0113254637  MEMB      109             0.0000000000
     13468       109  PMPE      H2R           -16.3120776265      -43.0419517224       12.8784819081  MEMB      109             0.0000000000
     13469       109  PMPE      H2S           -15.6232689085      -44.6795198700       13.2613335151  MEMB      109             0.0000000000
     13470       109  PMPE      C3            -12.2577933840      -43.5199741364       15.7692777173  MEMB      109             0.0000000000
     13471       109  PMPE      HX            -11.5502212681      -43.6185337002       16.6311740402  MEMB      109             0.0000000000
     13472       109  PMPE      HY            -12.1014612813      -42.5113019019       15.2945591091  MEMB      109             0.0000000000
     13473       109  PMPE      O31           -12.1246219732      -44.6454031987       14.8714966331  MEMB      109             0.0000000000
     13474       109  PMPE      C31           -11.0879288995      -44.5319216638       14.1224746620  MEMB      109             0.0000000000
     13475       109  PMPE      O32           -10.5755977746      -43.5340609726       13.8689870840  MEMB      109             0.0000000000
     13476       109  PMPE      C32           -10.6855751512      -45.5907489361       13.3417046044  MEMB      109             0.0000000000
     13477       109  PMPE      H2X           -11.3976250182      -45.6261268421       12.4772796756  MEMB      109             0.0000000000
     13478       109  PMPE      H2Y           -10.9460860561      -46.3235904123       14.1448813627  MEMB      109             0.0000000000
     13479       109  PMPE      C23           -14.5849776862      -43.3768707598       11.7199852393  MEMB      109             0.0000000000
     13480       109  PMPE      H3R           -13.5735862838      -43.8349056221       11.7430387456  MEMB      109             0.0000000000
     13481       109  PMPE      H3S           -14.5054844992      -42.2635957456       11.5941826301  MEMB      109             0.0000000000
     13482       109  PMPE      C24           -15.2659170343      -43.8400126866       10.4555696270  MEMB      109             0.0000000000
     13483       109  PMPE      H4R           -16.1362160541      -43.1697317521       10.3341107086  MEMB      109             0.0000000000
     13484       109  PMPE      H4S           -15.6497839018      -44.8822051928       10.5689515798  MEMB      109             0.0000000000
     13485       109  PMPE      C25           -14.3160521988      -43.6116378508        9.2779455469  MEMB      109             0.0000000000
     13486       109  PMPE      H5R           -13.5411453943      -44.3929695451        9.2068438680  MEMB      109             0.0000000000
     13487       109  PMPE      H5S           -13.8355784692      -42.6110253034        9.4019097552  MEMB      109             0.0000000000
     13488       109  PMPE      C26           -15.0091237947      -43.5970971962        7.9604345557  MEMB      109             0.0000000000
     13489       109  PMPE      H6R           -15.5861922033      -42.7200105760        7.9893060428  MEMB      109             0.0000000000
     13490       109  PMPE      H6S           -15.6412861092      -44.4273275406        7.8718831796  MEMB      109             0.0000000000
     13491       109  PMPE      C27           -14.1038419239      -43.5964487198        6.8065342308  MEMB      109             0.0000000000
     13492       109  PMPE      H7R           -13.4609384729      -44.4622308218        6.8128307519  MEMB      109             0.0000000000
     13493       109  PMPE      H7S           -13.5540883382      -42.6417750477        6.6950578735  MEMB      109             0.0000000000
     13494       109  PMPE      C28           -14.6806074352      -43.7410702523        5.6296875181  MEMB      109             0.0000000000
     13495       109  PMPE      H8R           -15.4327485037      -43.0522690441        5.6498795102  MEMB      109             0.0000000000
     13496       109  PMPE      H8S           -15.3995219777      -44.5996140916        5.3439451790  MEMB      109             0.0000000000
     13497       109  PMPE      C29           -13.5970099859      -43.1326297061        4.6496389217  MEMB      109             0.0000000000
     13498       109  PMPE      H9R           -12.8876307270      -43.8786474160        4.3339632062  MEMB      109             0.0000000000
     13499       109  PMPE      C217          -13.4076220259      -41.6158937619        4.1967610858  MEMB      109             0.0000000000
     13500       109  PMPE      H17R          -13.1858415044      -41.2454651443        3.1601195618  MEMB      109             0.0000000000
     13501       109  PMPE      H17S          -14.1644346395      -40.8915053194        4.5834865235  MEMB      109             0.0000000000
     13502       109  PMPE      C210          -14.0943094571      -42.7774913529        3.4649495774  MEMB      109             0.0000000000
     13503       109  PMPE      H10R          -13.3427299587      -42.9738629590        2.7374326177  MEMB      109             0.0000000000
     13504       109  PMPE      C211          -17.4266274863      -42.8718536212        3.2903788077  MEMB      109             0.0000000000
     13505       109  PMPE      H11R          -16.9236630332      -42.1131474939        2.0565855470  MEMB      109             0.0000000000
     13506       109  PMPE      H11S          -17.0483794209      -43.3799551596        4.1946798043  MEMB      109             0.0000000000
     13507       109  PMPE      C212          -16.7958331344      -44.4967000927        1.0600200209  MEMB      109             0.0000000000
     13508       109  PMPE      H12R          -16.3933049830      -45.5009545554        1.6731844867  MEMB      109             0.0000000000
     13509       109  PMPE      H12S          -16.1153647362      -44.4690068467        0.5227407200  MEMB      109             0.0000000000
     13510       109  PMPE      C213          -17.7147349806      -44.6158899420        0.9246155396  MEMB      109             0.0000000000
     13511       109  PMPE      H13R          -17.6604887682      -43.7226238440        1.0781769533  MEMB      109             0.0000000000
     13512       109  PMPE      H13S          -17.8998805476      -43.8081118649        1.8436705801  MEMB      109             0.0000000000
     13513       109  PMPE      C214          -18.6403837945      -45.7677093193        0.4002921970  MEMB      109             0.0000000000
     13514       109  PMPE      H14R          -18.2767698850      -46.7792763695        0.5532332261  MEMB      109             0.0000000000
     13515       109  PMPE      H14S          -18.0327906659      -45.5603995927       -0.1800137757  MEMB      109             0.0000000000
     13516       109  PMPE      C215          -20.0960177786      -45.6172021695        0.0400069983  MEMB      109             0.0000000000
     13517       109  PMPE      H15R          -20.4234992117      -46.4041792349       -0.2596989809  MEMB      109             0.0000000000
     13518       109  PMPE      H15S          -19.9739505248      -44.7512469569       -0.4992774178  MEMB      109             0.0000000000
     13519       109  PMPE      C216          -21.1612804859      -45.7835929396        1.0404848194  MEMB      109             0.0000000000
     13520       109  PMPE      H16R          -21.9834718484      -46.2736554137        0.9828136077  MEMB      109             0.0000000000
     13521       109  PMPE      H16S          -20.4224069663      -46.3583932585        1.7576748254  MEMB      109             0.0000000000
     13522       109  PMPE      H16T          -21.5709021151      -44.8303077839        1.4256633634  MEMB      109             0.0000000000
     13523       109  PMPE      C33            -9.1593529152      -45.7182885158       12.9879443870  MEMB      109             0.0000000000
     13524       109  PMPE      H3X            -8.7860566104      -45.9445026229       13.9867547419  MEMB      109             0.0000000000
     13525       109  PMPE      H3Y            -8.7929634894      -44.8151702931       12.5270932563  MEMB      109             0.0000000000
     13526       109  PMPE      C34            -8.4556646423      -46.7049105210       12.1121446077  MEMB      109             0.0000000000
     13527       109  PMPE      H4X            -8.3723971267      -47.8061708707       12.4329952225  MEMB      109             0.0000000000
     13528       109  PMPE      H4Y            -7.4660972058      -46.5761064069       11.7499881064  MEMB      109             0.0000000000
     13529       109  PMPE      C35            -9.0829590674      -46.6193733366       10.9172240132  MEMB      109             0.0000000000
     13530       109  PMPE      H5X            -9.7848308910      -47.2669691393       11.3541647181  MEMB      109             0.0000000000
     13531       109  PMPE      H5Y            -8.1651460689      -47.2205217812       10.3889954081  MEMB      109             0.0000000000
     13532       109  PMPE      C36           -10.1049408371      -45.6578647734       10.1735190806  MEMB      109             0.0000000000
     13533       109  PMPE      H6X            -9.2020102170      -45.0595680120        9.9777372906  MEMB      109             0.0000000000
     13534       109  PMPE      H6Y           -10.7083782669      -45.2593553696       10.8762036337  MEMB      109             0.0000000000
     13535       109  PMPE      C37           -11.1836467643      -45.9560575961        8.9366118929  MEMB      109             0.0000000000
     13536       109  PMPE      H7X           -11.2099790463      -45.1489968222        8.2626512991  MEMB      109             0.0000000000
     13537       109  PMPE      H7Y           -12.0867605231      -46.5613588850        9.1176389778  MEMB      109             0.0000000000
     13538       109  PMPE      C38           -11.0379517008      -46.7512125777        7.7800734072  MEMB      109             0.0000000000
     13539       109  PMPE      H8X           -11.2080458263      -48.0202546477        8.0262848383  MEMB      109             0.0000000000
     13540       109  PMPE      H8Y            -9.6058281376      -45.8130462547        7.4682222069  MEMB      109             0.0000000000
     13541       109  PMPE      C39           -11.6560792824      -47.2605367870        6.2290395849  MEMB      109             0.0000000000
     13542       109  PMPE      H9X           -12.6182987379      -47.4495339678        6.5829584279  MEMB      109             0.0000000000
     13543       109  PMPE      H9Y           -11.1243854582      -48.2395998688        5.8175897860  MEMB      109             0.0000000000
     13544       109  PMPE      C310          -11.1723674767      -46.1206146374        5.2366989160  MEMB      109             0.0000000000
     13545       109  PMPE      H10X          -10.0205145409      -45.9895710250        5.0786289082  MEMB      109             0.0000000000
     13546       109  PMPE      H10Y          -11.4216557072      -45.2292963161        5.8373627260  MEMB      109             0.0000000000
     13547       109  PMPE      C311          -11.6695366624      -46.1328427731        3.8772768958  MEMB      109             0.0000000000
     13548       109  PMPE      H11X          -11.3208341887      -45.1246902184        3.5817321555  MEMB      109             0.0000000000
     13549       109  PMPE      H11Y          -12.7554716742      -46.1675359340        3.9739962666  MEMB      109             0.0000000000
     13550       109  PMPE      C312          -11.1856511104      -47.2984340038        3.0352459326  MEMB      109             0.0000000000
     13551       109  PMPE      H12X          -11.5994997431      -48.2458147738        3.4464968126  MEMB      109             0.0000000000
     13552       109  PMPE      H12Y          -10.0920919764      -47.4201167368        3.1088097606  MEMB      109             0.0000000000
     13553       109  PMPE      C313          -11.5182153734      -47.1285135826        1.5494218053  MEMB      109             0.0000000000
     13554       109  PMPE      H13X          -11.0955171012      -47.9571164992        0.9350127427  MEMB      109             0.0000000000
     13555       109  PMPE      H13Y          -11.1025386449      -46.1408653478        1.2168583417  MEMB      109             0.0000000000
     13556       109  PMPE      C314          -13.0027678875      -47.2469356326        1.2548927684  MEMB      109             0.0000000000
     13557       109  PMPE      H14X          -13.1464245363      -46.9560276713        0.1850117899  MEMB      109             0.0000000000
     13558       109  PMPE      H14Y          -13.5397805619      -46.5293546485        1.8624989436  MEMB      109             0.0000000000
     13559       109  PMPE      C315          -13.5934448019      -48.6632124264        1.4989136019  MEMB      109             0.0000000000
     13560       109  PMPE      H15X          -13.2980968415      -49.1440310968        2.4158352648  MEMB      109             0.0000000000
     13561       109  PMPE      H15Y          -13.3236877303      -49.3077863806        0.6018816142  MEMB      109             0.0000000000
     13562       109  PMPE      C316          -15.0834832401      -48.8121607990        1.8567800310  MEMB      109             0.0000000000
     13563       109  PMPE      H16X          -16.0162645396      -48.6642929263        1.3477219242  MEMB      109             0.0000000000
     13564       109  PMPE      H16Y          -15.6536310210      -48.0462236130        2.3238699701  MEMB      109             0.0000000000
     13565       109  PMPE      H16Z          -15.5011530822      -49.7053085173        1.3280572057  MEMB      109             0.0000000000
     13566       110  PMPE      N             -29.0338271604       35.2522934654       20.7654900828  MEMB      110             0.0000000000
     13567       110  PMPE      HN1           -29.9066129109       34.7737716816       21.0926562238  MEMB      110             0.0000000000
     13568       110  PMPE      HN2           -28.4896460716       34.6042925342       20.1583120398  MEMB      110             0.0000000000
     13569       110  PMPE      HN3           -28.4479744360       35.5752682697       21.5640328541  MEMB      110             0.0000000000
     13570       110  PMPE      C12           -29.5139823578       36.4286257625       19.9703892962  MEMB      110             0.0000000000
     13571       110  PMPE      H12A          -30.3376304550       36.9076128121       20.5406937988  MEMB      110             0.0000000000
     13572       110  PMPE      H12B          -29.9096849539       35.9911932467       19.0252914132  MEMB      110             0.0000000000
     13573       110  PMPE      C11           -28.3909242459       37.3940047417       19.5684526113  MEMB      110             0.0000000000
     13574       110  PMPE      H11A          -27.7537797827       36.7703214307       18.8991970241  MEMB      110             0.0000000000
     13575       110  PMPE      H11B          -27.7433152868       37.7522914284       20.4042487576  MEMB      110             0.0000000000
     13576       110  PMPE      P             -28.0602780784       39.6501468555       18.2604790447  MEMB      110             0.0000000000
     13577       110  PMPE      O13           -28.7494503234       40.9438256361       18.4801173547  MEMB      110             0.0000000000
     13578       110  PMPE      O14           -27.7107800858       39.2779528502       16.8794016847  MEMB      110             0.0000000000
     13579       110  PMPE      O11           -26.8147947160       39.5121594767       19.2071353103  MEMB      110             0.0000000000
     13580       110  PMPE      O12           -28.9638580890       38.4897205151       18.8521461195  MEMB      110             0.0000000000
     13581       110  PMPE      C1            -25.8845936802       40.5653340002       19.4050342152  MEMB      110             0.0000000000
     13582       110  PMPE      HA            -25.4540802529       40.3896096046       20.4135258007  MEMB      110             0.0000000000
     13583       110  PMPE      HB            -26.3849866008       41.5618659102       19.4129705780  MEMB      110             0.0000000000
     13584       110  PMPE      C2            -24.7878756504       40.5667821910       18.3070746628  MEMB      110             0.0000000000
     13585       110  PMPE      HS            -23.9952398501       41.3139523411       18.6083060784  MEMB      110             0.0000000000
     13586       110  PMPE      O21           -25.2881401544       40.8458299746       17.0065136836  MEMB      110             0.0000000000
     13587       110  PMPE      C21           -25.6486078876       41.9933658895       16.7870667596  MEMB      110             0.0000000000
     13588       110  PMPE      O22           -25.3703828805       42.8869098754       17.5267276235  MEMB      110             0.0000000000
     13589       110  PMPE      C22           -26.4856596971       42.1026471126       15.5641433285  MEMB      110             0.0000000000
     13590       110  PMPE      H2R           -26.8136396257       43.0501808897       15.6664811620  MEMB      110             0.0000000000
     13591       110  PMPE      H2S           -27.4661302273       41.6825678799       15.6696882912  MEMB      110             0.0000000000
     13592       110  PMPE      C3            -24.1318586338       39.1970136409       18.1181049258  MEMB      110             0.0000000000
     13593       110  PMPE      HX            -23.8736808582       38.8351940892       19.1225087835  MEMB      110             0.0000000000
     13594       110  PMPE      HY            -23.2586054043       39.3793057668       17.4688960060  MEMB      110             0.0000000000
     13595       110  PMPE      O31           -25.0072616594       38.2167708151       17.5121825804  MEMB      110             0.0000000000
     13596       110  PMPE      C31           -24.4376796768       37.4394386085       16.6255741326  MEMB      110             0.0000000000
     13597       110  PMPE      O32           -23.3022343766       37.5349093554       16.2297606934  MEMB      110             0.0000000000
     13598       110  PMPE      C32           -25.4086164188       36.4229964264       16.0646418774  MEMB      110             0.0000000000
     13599       110  PMPE      H2X           -26.4706835572       36.6300259833       16.2218027136  MEMB      110             0.0000000000
     13600       110  PMPE      H2Y           -25.2022754339       35.4945343614       16.6118351677  MEMB      110             0.0000000000
     13601       110  PMPE      C23           -25.8352418624       41.7399395053       14.2657252229  MEMB      110             0.0000000000
     13602       110  PMPE      H3R           -25.5976884889       40.6985419911       14.2898897164  MEMB      110             0.0000000000
     13603       110  PMPE      H3S           -24.8180110043       42.0425138535       14.2227438750  MEMB      110             0.0000000000
     13604       110  PMPE      C24           -26.5477141122       42.1580595210       13.0093056129  MEMB      110             0.0000000000
     13605       110  PMPE      H4R           -26.1084974048       43.1160483792       12.7202766828  MEMB      110             0.0000000000
     13606       110  PMPE      H4S           -27.6321702260       42.2255867716       13.1767625285  MEMB      110             0.0000000000
     13607       110  PMPE      C25           -26.2133671497       41.2493390766       11.8755749681  MEMB      110             0.0000000000
     13608       110  PMPE      H5R           -26.2559531227       40.2089517233       12.2027861278  MEMB      110             0.0000000000
     13609       110  PMPE      H5S           -25.3083195385       41.6419323402       11.4834026182  MEMB      110             0.0000000000
     13610       110  PMPE      C26           -27.0027636949       41.3770010781       10.7004737697  MEMB      110             0.0000000000
     13611       110  PMPE      H6R           -27.8270020776       41.1521815537       11.2988445956  MEMB      110             0.0000000000
     13612       110  PMPE      H6S           -27.0721352622       40.5400601726        9.9992335602  MEMB      110             0.0000000000
     13613       110  PMPE      C27           -26.8082700227       42.7458300281       10.0213477823  MEMB      110             0.0000000000
     13614       110  PMPE      H7R           -25.8733636684       42.6444022258        9.5104980081  MEMB      110             0.0000000000
     13615       110  PMPE      H7S           -27.0962815732       43.5373336818       10.6321188728  MEMB      110             0.0000000000
     13616       110  PMPE      C28           -27.6776090701       43.5461929684        8.8383888413  MEMB      110             0.0000000000
     13617       110  PMPE      H8R           -27.1274771135       42.3404253616        7.6991850459  MEMB      110             0.0000000000
     13618       110  PMPE      H8S           -27.6576845744       44.3815089786        8.4798623030  MEMB      110             0.0000000000
     13619       110  PMPE      C29           -30.2347142759       43.3339799010        8.4424263998  MEMB      110             0.0000000000
     13620       110  PMPE      H9R           -30.4008203433       44.3029957079        9.1201910145  MEMB      110             0.0000000000
     13621       110  PMPE      C217          -31.0354358536       41.5101219297        8.7564888123  MEMB      110             0.0000000000
     13622       110  PMPE      H17R          -31.2345151645       41.3399517393        9.7528224284  MEMB      110             0.0000000000
     13623       110  PMPE      H17S          -30.4021178918       40.5421200618        8.6281574150  MEMB      110             0.0000000000
     13624       110  PMPE      C210          -31.2900702557       42.6181704109        7.8226271235  MEMB      110             0.0000000000
     13625       110  PMPE      H10R          -31.9002601411       43.3619016179        8.1928908554  MEMB      110             0.0000000000
     13626       110  PMPE      C211          -30.8771407741       42.7272030124        6.4795418297  MEMB      110             0.0000000000
     13627       110  PMPE      H11R          -30.1725656381       41.8930689057        6.7705141676  MEMB      110             0.0000000000
     13628       110  PMPE      H11S          -30.3801681472       43.6748976449        5.8468250512  MEMB      110             0.0000000000
     13629       110  PMPE      C212          -31.7402541561       42.4438566612        5.7692419482  MEMB      110             0.0000000000
     13630       110  PMPE      H12R          -32.3211798670       43.3170699632        5.7683709626  MEMB      110             0.0000000000
     13631       110  PMPE      H12S          -32.1271230248       41.5205714846        6.2833298673  MEMB      110             0.0000000000
     13632       110  PMPE      C213          -31.1832563592       42.5636486922        4.4605997999  MEMB      110             0.0000000000
     13633       110  PMPE      H13R          -32.2421485123       42.3348802732        4.0808419519  MEMB      110             0.0000000000
     13634       110  PMPE      H13S          -30.2879768649       41.9644572618        4.0171613978  MEMB      110             0.0000000000
     13635       110  PMPE      C214          -30.2665264221       43.2280178766        3.6281828383  MEMB      110             0.0000000000
     13636       110  PMPE      H14R          -29.2090600434       43.3717761236        3.9150478324  MEMB      110             0.0000000000
     13637       110  PMPE      H14S          -30.9265663660       44.0474214217        3.6691584027  MEMB      110             0.0000000000
     13638       110  PMPE      C215          -30.0963843374       42.7637766404        2.1698431486  MEMB      110             0.0000000000
     13639       110  PMPE      H15R          -30.9915600835       42.8080573632        1.5055256039  MEMB      110             0.0000000000
     13640       110  PMPE      H15S          -29.5095108529       41.8371665058        2.2407993491  MEMB      110             0.0000000000
     13641       110  PMPE      C216          -29.1485328364       42.9690404024        1.2265864843  MEMB      110             0.0000000000
     13642       110  PMPE      H16R          -29.2027203653       43.2405063544        0.0955430923  MEMB      110             0.0000000000
     13643       110  PMPE      H16S          -29.3638979070       43.9647854074        1.1778372734  MEMB      110             0.0000000000
     13644       110  PMPE      H16T          -28.2555557355       43.1364269483        1.8472305039  MEMB      110             0.0000000000
     13645       110  PMPE      C33           -25.1809733304       36.3547788582       14.5676885471  MEMB      110             0.0000000000
     13646       110  PMPE      H3X           -25.6911484831       35.4798638259       14.1459137918  MEMB      110             0.0000000000
     13647       110  PMPE      H3Y           -24.1099601780       36.1114479002       14.5065899563  MEMB      110             0.0000000000
     13648       110  PMPE      C34           -25.6882050604       37.6403828640       13.9003177190  MEMB      110             0.0000000000
     13649       110  PMPE      H4X           -25.5058546781       37.6309646452       12.8321799899  MEMB      110             0.0000000000
     13650       110  PMPE      H4Y           -25.2298372461       38.5829009372       14.3043345050  MEMB      110             0.0000000000
     13651       110  PMPE      C35           -27.1723850549       37.7750658428       13.6039593545  MEMB      110             0.0000000000
     13652       110  PMPE      H5X           -27.3760960618       38.8591803923       13.7211665089  MEMB      110             0.0000000000
     13653       110  PMPE      H5Y           -27.8313229850       37.2070362985       14.2719012385  MEMB      110             0.0000000000
     13654       110  PMPE      C36           -27.6199130882       37.4292868779       12.1763128571  MEMB      110             0.0000000000
     13655       110  PMPE      H6X           -27.5575117391       36.3173267736       12.0376201216  MEMB      110             0.0000000000
     13656       110  PMPE      H6Y           -27.0034533877       37.9576637607       11.4096173671  MEMB      110             0.0000000000
     13657       110  PMPE      C37           -29.0307435717       37.9779875486       11.9853781607  MEMB      110             0.0000000000
     13658       110  PMPE      H7X           -29.0872799431       39.0917996103       11.9883472719  MEMB      110             0.0000000000
     13659       110  PMPE      H7Y           -29.7252399857       37.6505264012       12.7986003463  MEMB      110             0.0000000000
     13660       110  PMPE      C38           -29.6582605388       37.4935690337       10.6919627645  MEMB      110             0.0000000000
     13661       110  PMPE      H8X           -30.5529653706       38.1073589724       10.6515593362  MEMB      110             0.0000000000
     13662       110  PMPE      H8Y           -29.8811274359       36.4200960010       10.8301887045  MEMB      110             0.0000000000
     13663       110  PMPE      C39           -28.9750848136       37.7441494070        9.3539683493  MEMB      110             0.0000000000
     13664       110  PMPE      H9X           -27.8879005904       37.6132951178        9.5366747487  MEMB      110             0.0000000000
     13665       110  PMPE      H9Y           -29.1463399381       38.8172588921        9.1320426390  MEMB      110             0.0000000000
     13666       110  PMPE      C310          -29.4992649474       36.8959164908        8.1561269869  MEMB      110             0.0000000000
     13667       110  PMPE      H10X          -30.5498073596       37.0692027283        7.8304114657  MEMB      110             0.0000000000
     13668       110  PMPE      H10Y          -29.4152991449       35.8141249462        8.3701165010  MEMB      110             0.0000000000
     13669       110  PMPE      C311          -28.7497935781       37.2128821850        6.8759697349  MEMB      110             0.0000000000
     13670       110  PMPE      H11X          -27.6796256695       36.9627014841        7.0217926580  MEMB      110             0.0000000000
     13671       110  PMPE      H11Y          -28.8593367081       38.3177516736        6.7870392351  MEMB      110             0.0000000000
     13672       110  PMPE      C312          -29.3006982618       36.4401179265        5.6746814783  MEMB      110             0.0000000000
     13673       110  PMPE      H12X          -30.4222115877       36.4289843934        5.6485369822  MEMB      110             0.0000000000
     13674       110  PMPE      H12Y          -29.0081617103       35.3695281563        5.7322329305  MEMB      110             0.0000000000
     13675       110  PMPE      C313          -28.8078594485       37.0243736283        4.3640712649  MEMB      110             0.0000000000
     13676       110  PMPE      H13X          -29.4982631896       37.8130570828        4.0672287146  MEMB      110             0.0000000000
     13677       110  PMPE      H13Y          -29.0843033565       36.3823682397        3.6371537619  MEMB      110             0.0000000000
     13678       110  PMPE      C314          -27.3544270707       37.4442830094        4.1765231170  MEMB      110             0.0000000000
     13679       110  PMPE      H14X          -26.5619513926       36.7570067861        4.5351474926  MEMB      110             0.0000000000
     13680       110  PMPE      H14Y          -27.2368788301       38.4388186078        4.6011562163  MEMB      110             0.0000000000
     13681       110  PMPE      C315          -27.0526383722       37.8081075394        2.8082277874  MEMB      110             0.0000000000
     13682       110  PMPE      H15X          -26.0779874572       38.3374135110        2.6582358761  MEMB      110             0.0000000000
     13683       110  PMPE      H15Y          -27.8828252668       38.3670883165        2.3308584948  MEMB      110             0.0000000000
     13684       110  PMPE      C316          -26.8827483332       36.6262809352        2.1794628501  MEMB      110             0.0000000000
     13685       110  PMPE      H16X          -27.3866712597       35.6454118404        2.1599074311  MEMB      110             0.0000000000
     13686       110  PMPE      H16Y          -25.8493582129       36.5657362793        1.8162574083  MEMB      110             0.0000000000
     13687       110  PMPE      H16Z          -27.2555338880       37.0896476833        1.3470714880  MEMB      110             0.0000000000
     13688       111  QMPE      N              36.6024754658       26.7915281298       18.2602308283  MEMB      111             0.0000000000
     13689       111  QMPE      HN1            36.8648029406       26.5504113153       17.2817508873  MEMB      111             0.0000000000
     13690       111  QMPE      HN2            37.1683989391       26.1771394897       18.8811133479  MEMB      111             0.0000000000
     13691       111  QMPE      HN3            35.5928473275       26.5803341004       18.4268830639  MEMB      111             0.0000000000
     13692       111  QMPE      C12            36.9007169635       28.2707210686       18.4547500050  MEMB      111             0.0000000000
     13693       111  QMPE      H12A           35.9225443500       28.7909386093       18.4536203313  MEMB      111             0.0000000000
     13694       111  QMPE      H12B           37.5404559792       28.6122683358       17.6139932286  MEMB      111             0.0000000000
     13695       111  QMPE      C11            37.6038921708       28.5838408765       19.7858164380  MEMB      111             0.0000000000
     13696       111  QMPE      H11A           36.8757927124       28.3112210329       20.5765928947  MEMB      111             0.0000000000
     13697       111  QMPE      H11B           37.8287791015       29.6670381431       19.9447475231  MEMB      111             0.0000000000
     13698       111  QMPE      P              40.1187980651       28.1006573595       19.1092680386  MEMB      111             0.0000000000
     13699       111  QMPE      O13            41.2517536931       28.2375127998       20.0315020702  MEMB      111             0.0000000000
     13700       111  QMPE      O14            39.8700382755       29.1525638832       18.1092272029  MEMB      111             0.0000000000
     13701       111  QMPE      O11            40.2224769730       26.7231046617       18.3570420690  MEMB      111             0.0000000000
     13702       111  QMPE      O12            38.7758908461       27.8043921385       19.9525684533  MEMB      111             0.0000000000
     13703       111  QMPE      C1             39.9206688919       26.5413225620       16.9868532054  MEMB      111             0.0000000000
     13704       111  QMPE      HA             39.1816374692       27.2919431160       16.6435704285  MEMB      111             0.0000000000
     13705       111  QMPE      HB             39.3926649058       25.5757203749       16.9125031579  MEMB      111             0.0000000000
     13706       111  QMPE      C2             41.2041609299       26.5572086162       16.0944754835  MEMB      111             0.0000000000
     13707       111  QMPE      HS             41.8268256587       25.6797568538       16.3733828395  MEMB      111             0.0000000000
     13708       111  QMPE      O21            41.8804938480       27.8289230586       16.2704148295  MEMB      111             0.0000000000
     13709       111  QMPE      C21            43.0737302071       27.7581693528       16.8153513856  MEMB      111             0.0000000000
     13710       111  QMPE      O22            43.5548846563       26.7544798432       17.2957747883  MEMB      111             0.0000000000
     13711       111  QMPE      C22            43.8408710066       29.0282707938       16.4670294627  MEMB      111             0.0000000000
     13712       111  QMPE      H2R            43.6805133916       29.7304873215       17.3085182366  MEMB      111             0.0000000000
     13713       111  QMPE      H2S            43.4341977024       29.5857376358       15.6355242984  MEMB      111             0.0000000000
     13714       111  QMPE      C3             40.8677706548       26.3286622855       14.5921074849  MEMB      111             0.0000000000
     13715       111  QMPE      HX             40.4352431900       25.3319208320       14.3849521516  MEMB      111             0.0000000000
     13716       111  QMPE      HY             41.7932796555       26.2783622603       13.9666125439  MEMB      111             0.0000000000
     13717       111  QMPE      O31            39.9033865719       27.3163546153       14.2104093008  MEMB      111             0.0000000000
     13718       111  QMPE      C31            40.4166190958       28.2161925997       13.3742862356  MEMB      111             0.0000000000
     13719       111  QMPE      O32            41.5057069539       28.1661340317       12.8494347941  MEMB      111             0.0000000000
     13720       111  QMPE      C32            39.4188465848       29.2733864633       13.1137218954  MEMB      111             0.0000000000
     13721       111  QMPE      H2X            38.9866951952       29.1757958214       12.1046086800  MEMB      111             0.0000000000
     13722       111  QMPE      H2Y            38.6376205505       29.0036139850       13.7846746173  MEMB      111             0.0000000000
     13723       111  QMPE      C23            45.3314008620       28.7725887500       16.1657897820  MEMB      111             0.0000000000
     13724       111  QMPE      H3R            45.9354866561       28.1926147134       16.8493892016  MEMB      111             0.0000000000
     13725       111  QMPE      H3S            45.8792245075       29.6890337965       16.1389672040  MEMB      111             0.0000000000
     13726       111  QMPE      C24            45.6543609184       28.0617993228       14.9745983380  MEMB      111             0.0000000000
     13727       111  QMPE      H4R            45.3444078967       27.1323982058       15.2688213734  MEMB      111             0.0000000000
     13728       111  QMPE      H4S            46.7230847608       27.8979709882       14.9907696464  MEMB      111             0.0000000000
     13729       111  QMPE      C25            45.0078511279       28.5029812695       13.6672408584  MEMB      111             0.0000000000
     13730       111  QMPE      H5R            45.2372474740       29.5300326682       13.5376150808  MEMB      111             0.0000000000
     13731       111  QMPE      H5S            43.9438853689       28.2735178770       13.7917233373  MEMB      111             0.0000000000
     13732       111  QMPE      C26            45.2066904537       27.7634871249       12.2924566480  MEMB      111             0.0000000000
     13733       111  QMPE      H6R            44.3750447621       26.4061577676       12.2257785929  MEMB      111             0.0000000000
     13734       111  QMPE      H6S            46.4556154241       27.9169164958       12.4674052654  MEMB      111             0.0000000000
     13735       111  QMPE      C27            44.8276622010       28.2298953958       11.0933900388  MEMB      111             0.0000000000
     13736       111  QMPE      H7R            45.4974683745       29.0253582936       10.9177608402  MEMB      111             0.0000000000
     13737       111  QMPE      H7S            43.8438914096       28.5000906190       11.4193265128  MEMB      111             0.0000000000
     13738       111  QMPE      C28            44.8708355462       27.4054200588        9.8516162312  MEMB      111             0.0000000000
     13739       111  QMPE      H8R            44.0676319024       26.6697581855       10.2358915928  MEMB      111             0.0000000000
     13740       111  QMPE      H8S            45.9427612027       26.9920880564        9.6919079634  MEMB      111             0.0000000000
     13741       111  QMPE      C29            44.1619347969       27.7004668099        8.6942301781  MEMB      111             0.0000000000
     13742       111  QMPE      H9R            44.5738187160       28.5339190671        8.2331702873  MEMB      111             0.0000000000
     13743       111  QMPE      C217           42.6566161979       27.5829399145        9.1282153165  MEMB      111             0.0000000000
     13744       111  QMPE      H17R           42.3462717924       26.9541113144        9.9639394133  MEMB      111             0.0000000000
     13745       111  QMPE      H17S           42.2955343265       28.5450622886        9.0752477771  MEMB      111             0.0000000000
     13746       111  QMPE      C210           43.1594326245       26.9869363694        7.8779406844  MEMB      111             0.0000000000
     13747       111  QMPE      H10R           42.9623962839       27.3385514369        6.9215997156  MEMB      111             0.0000000000
     13748       111  QMPE      C211           43.3200463480       25.7097431577        7.6943007227  MEMB      111             0.0000000000
     13749       111  QMPE      H11R           43.6925112451       25.6382444891        8.6923097339  MEMB      111             0.0000000000
     13750       111  QMPE      H11S           42.4992806309       25.0523212195        7.3591576661  MEMB      111             0.0000000000
     13751       111  QMPE      C212           44.5022740297       25.2708592090        7.0987868699  MEMB      111             0.0000000000
     13752       111  QMPE      H12R           45.1296567181       25.1513343458        8.0834574587  MEMB      111             0.0000000000
     13753       111  QMPE      H12S           45.2220761592       26.1280978563        6.8927481421  MEMB      111             0.0000000000
     13754       111  QMPE      C213           44.2684794666       23.7671762450        5.9098018212  MEMB      111             0.0000000000
     13755       111  QMPE      H13R           44.1964916449       22.8225640014        6.4598244571  MEMB      111             0.0000000000
     13756       111  QMPE      H13S           45.1727811601       23.2922166840        5.0436394064  MEMB      111             0.0000000000
     13757       111  QMPE      C214           43.6646500325       24.2794212713        4.9342302282  MEMB      111             0.0000000000
     13758       111  QMPE      H14R           44.0389325929       25.3862368638        5.1060386635  MEMB      111             0.0000000000
     13759       111  QMPE      H14S           42.6946774277       24.4390163935        5.2356024322  MEMB      111             0.0000000000
     13760       111  QMPE      C215           43.8184691343       23.3781927384        3.5717011765  MEMB      111             0.0000000000
     13761       111  QMPE      H15R           43.2163151219       24.0098669785        2.9234823728  MEMB      111             0.0000000000
     13762       111  QMPE      H15S           43.6274534019       22.3587525258        3.8311747896  MEMB      111             0.0000000000
     13763       111  QMPE      C216           45.0372092021       22.8850390413        2.7274472144  MEMB      111             0.0000000000
     13764       111  QMPE      H16R           45.6271535213       23.6765142254        2.0499131988  MEMB      111             0.0000000000
     13765       111  QMPE      H16S           45.2862744936       22.6071930599        1.7809630084  MEMB      111             0.0000000000
     13766       111  QMPE      H16T           45.6475057289       22.3382946816        3.5061409389  MEMB      111             0.0000000000
     13767       111  QMPE      C33            39.9337272785       30.6516735468       13.2994293982  MEMB      111             0.0000000000
     13768       111  QMPE      H3X            40.5234078979       30.7531040735       14.2531795808  MEMB      111             0.0000000000
     13769       111  QMPE      H3Y            39.1399668042       31.4027735091       13.4954972050  MEMB      111             0.0000000000
     13770       111  QMPE      C34            40.6560135290       30.9298441788       11.9677307785  MEMB      111             0.0000000000
     13771       111  QMPE      H4X            41.7732421743       30.8111505982       12.0365569515  MEMB      111             0.0000000000
     13772       111  QMPE      H4Y            40.3478069067       31.9756778644       11.7790554683  MEMB      111             0.0000000000
     13773       111  QMPE      C35            40.1174905698       30.9134181256       10.6245058679  MEMB      111             0.0000000000
     13774       111  QMPE      H5X            39.0603325377       31.2678093944       10.6881616187  MEMB      111             0.0000000000
     13775       111  QMPE      H5Y            40.3254403621       29.8652335808       10.4354155303  MEMB      111             0.0000000000
     13776       111  QMPE      C36            40.9086986487       31.8147700859        9.6766288002  MEMB      111             0.0000000000
     13777       111  QMPE      H6X            41.9852313876       31.8572530491        9.9087596581  MEMB      111             0.0000000000
     13778       111  QMPE      H6Y            40.6886044021       32.8453894933        9.7741579795  MEMB      111             0.0000000000
     13779       111  QMPE      C37            40.5538077839       31.5278102295        8.2439442500  MEMB      111             0.0000000000
     13780       111  QMPE      H7X            41.1078974209       32.1986338466        7.5592855879  MEMB      111             0.0000000000
     13781       111  QMPE      H7Y            40.8903915296       30.4899095863        8.0915395699  MEMB      111             0.0000000000
     13782       111  QMPE      C38            39.0678707194       31.6362566950        7.8929627613  MEMB      111             0.0000000000
     13783       111  QMPE      H8X            38.4135847250       31.2193329647        8.6829820475  MEMB      111             0.0000000000
     13784       111  QMPE      H8Y            38.8055357914       32.7058698925        7.8204886932  MEMB      111             0.0000000000
     13785       111  QMPE      C39            38.7816982791       30.9610373580        6.5516281979  MEMB      111             0.0000000000
     13786       111  QMPE      H9X            39.5846382250       31.1360176243        5.8142110972  MEMB      111             0.0000000000
     13787       111  QMPE      H9Y            37.8329548021       31.3425035576        6.1230583345  MEMB      111             0.0000000000
     13788       111  QMPE      C310           38.6764156445       29.4695958641        6.6642987803  MEMB      111             0.0000000000
     13789       111  QMPE      H10X           37.8029098629       29.3289028334        7.2485559789  MEMB      111             0.0000000000
     13790       111  QMPE      H10Y           39.5002592128       29.0213467532        7.2258175952  MEMB      111             0.0000000000
     13791       111  QMPE      C311           38.4302415648       28.7920623063        5.3343552984  MEMB      111             0.0000000000
     13792       111  QMPE      H11X           37.6249158839       29.3325616032        4.7940265955  MEMB      111             0.0000000000
     13793       111  QMPE      H11Y           38.2290190151       27.7293784156        5.5063302583  MEMB      111             0.0000000000
     13794       111  QMPE      C312           39.5169820703       28.4255786492        4.4052629490  MEMB      111             0.0000000000
     13795       111  QMPE      H12X           39.8752747880       29.3968858624        4.0799733613  MEMB      111             0.0000000000
     13796       111  QMPE      H12Y           39.0749170059       27.9050455261        3.5272689639  MEMB      111             0.0000000000
     13797       111  QMPE      C313           40.6218892455       27.6305290063        5.0834473491  MEMB      111             0.0000000000
     13798       111  QMPE      H13X           40.8238362250       28.2007554654        6.0096464993  MEMB      111             0.0000000000
     13799       111  QMPE      H13Y           40.3116042460       26.6082716241        5.3871301721  MEMB      111             0.0000000000
     13800       111  QMPE      C314           41.8756719825       27.4729442012        4.2283439091  MEMB      111             0.0000000000
     13801       111  QMPE      H14X           42.6028903000       26.9185164400        4.8575015854  MEMB      111             0.0000000000
     13802       111  QMPE      H14Y           42.3135892545       28.4713313326        4.0141116719  MEMB      111             0.0000000000
     13803       111  QMPE      C315           41.5843136484       26.7689098170        2.9016132110  MEMB      111             0.0000000000
     13804       111  QMPE      H15X           41.1599352772       25.7539878132        3.0674787055  MEMB      111             0.0000000000
     13805       111  QMPE      H15Y           40.8032821510       27.3536130800        2.3808797101  MEMB      111             0.0000000000
     13806       111  QMPE      H15Z           42.4675534029       26.7438074959        2.2230044479  MEMB      111             0.0000000000
     13807       112  PMPE      N              25.3614845384      -37.9906409709       16.9729033283  MEMB      112             0.0000000000
     13808       112  PMPE      HN1            24.5694286205      -38.5218167078       16.5362739341  MEMB      112             0.0000000000
     13809       112  PMPE      HN2            25.1713490566      -37.9830714423       17.9952260832  MEMB      112             0.0000000000
     13810       112  PMPE      HN3            25.3938978492      -37.0082593287       16.6526956621  MEMB      112             0.0000000000
     13811       112  PMPE      C12            26.7307355596      -38.6222147052       16.8162088120  MEMB      112             0.0000000000
     13812       112  PMPE      H12A           27.5143765042      -37.8902221993       17.1013422701  MEMB      112             0.0000000000
     13813       112  PMPE      H12B           26.9042494235      -38.8789898587       15.7525430018  MEMB      112             0.0000000000
     13814       112  PMPE      C11            26.8313427426      -39.8656162014       17.7061441172  MEMB      112             0.0000000000
     13815       112  PMPE      H11A           27.8490490348      -40.2952181934       17.5278107779  MEMB      112             0.0000000000
     13816       112  PMPE      H11B           26.0820243437      -40.5873144659       17.2877714827  MEMB      112             0.0000000000
     13817       112  PMPE      P              26.5269133883      -40.7372005847       20.1970640716  MEMB      112             0.0000000000
     13818       112  PMPE      O13            25.4755780220      -40.4211575428       21.2018141845  MEMB      112             0.0000000000
     13819       112  PMPE      O14            27.9257430846      -40.9259675896       20.6431167310  MEMB      112             0.0000000000
     13820       112  PMPE      O11            26.0584310158      -41.9761871934       19.3175609359  MEMB      112             0.0000000000
     13821       112  PMPE      O12            26.5975540675      -39.5379860182       19.0958533728  MEMB      112             0.0000000000
     13822       112  PMPE      C1             24.6835112141      -42.3256394977       19.2156596258  MEMB      112             0.0000000000
     13823       112  PMPE      HA             24.0502700317      -41.4523899007       18.9421820888  MEMB      112             0.0000000000
     13824       112  PMPE      HB             24.3203239968      -42.7502581883       20.1673219481  MEMB      112             0.0000000000
     13825       112  PMPE      C2             24.4522182888      -43.4715327292       18.2123063016  MEMB      112             0.0000000000
     13826       112  PMPE      HS             24.8272965622      -44.4051407798       18.6850382943  MEMB      112             0.0000000000
     13827       112  PMPE      O21            25.0667722298      -43.2040220186       16.9320291118  MEMB      112             0.0000000000
     13828       112  PMPE      C21            26.2108355957      -43.7882875794       16.7911857948  MEMB      112             0.0000000000
     13829       112  PMPE      O22            26.7178887629      -44.4421095123       17.6814643549  MEMB      112             0.0000000000
     13830       112  PMPE      C22            26.7562743937      -43.3812114096       15.3744927191  MEMB      112             0.0000000000
     13831       112  PMPE      H2R            27.0193903710      -42.3224506268       15.3813460714  MEMB      112             0.0000000000
     13832       112  PMPE      H2S            25.8931554716      -43.4337108425       14.6915386293  MEMB      112             0.0000000000
     13833       112  PMPE      C3             22.9395294940      -43.6748438760       17.9851869321  MEMB      112             0.0000000000
     13834       112  PMPE      HX             22.4346023986      -43.8916233541       18.9399962413  MEMB      112             0.0000000000
     13835       112  PMPE      HY             22.9105786307      -44.5740635320       17.3095855609  MEMB      112             0.0000000000
     13836       112  PMPE      O31            22.2601204717      -42.4849963281       17.5017928593  MEMB      112             0.0000000000
     13837       112  PMPE      C31            22.3648147679      -42.4370863522       16.2009660730  MEMB      112             0.0000000000
     13838       112  PMPE      O32            22.9775732205      -43.2780531510       15.5829661133  MEMB      112             0.0000000000
     13839       112  PMPE      C32            21.8915254389      -41.0374779442       15.7205353287  MEMB      112             0.0000000000
     13840       112  PMPE      H2X            22.5423071876      -40.3119639556       16.2003216612  MEMB      112             0.0000000000
     13841       112  PMPE      H2Y            20.9202235019      -40.8337342898       16.1226508639  MEMB      112             0.0000000000
     13842       112  PMPE      C23            27.9933146633      -44.0982768753       14.7983250356  MEMB      112             0.0000000000
     13843       112  PMPE      H3R            27.8660750998      -45.0720489495       14.9208028115  MEMB      112             0.0000000000
     13844       112  PMPE      H3S            28.8948125878      -44.1394211940       15.3710189642  MEMB      112             0.0000000000
     13845       112  PMPE      C24            28.1587023880      -44.4293724718       13.3340035058  MEMB      112             0.0000000000
     13846       112  PMPE      H4R            27.1608365262      -44.4411616986       12.8314889988  MEMB      112             0.0000000000
     13847       112  PMPE      H4S            28.6580597279      -45.4412124393       13.2392053572  MEMB      112             0.0000000000
     13848       112  PMPE      C25            28.9673762456      -43.3576899511       12.7430641534  MEMB      112             0.0000000000
     13849       112  PMPE      H5R            29.8869636255      -43.1416045909       13.3213687824  MEMB      112             0.0000000000
     13850       112  PMPE      H5S            28.3448707546      -42.4403656444       12.8034298334  MEMB      112             0.0000000000
     13851       112  PMPE      C26            29.2401791296      -43.6120426484       11.2800527525  MEMB      112             0.0000000000
     13852       112  PMPE      H6R            29.9746400146      -44.4309528539       11.0863179628  MEMB      112             0.0000000000
     13853       112  PMPE      H6S            29.6722602375      -42.6692377066       10.9100358542  MEMB      112             0.0000000000
     13854       112  PMPE      C27            27.9658029607      -43.8475561448       10.4644220083  MEMB      112             0.0000000000
     13855       112  PMPE      H7R            27.0486929481      -43.3830694551       10.8862360437  MEMB      112             0.0000000000
     13856       112  PMPE      H7S            27.8403657315      -44.9334355223       10.5130341018  MEMB      112             0.0000000000
     13857       112  PMPE      C28            28.1609762848      -43.3516242882        9.0267213292  MEMB      112             0.0000000000
     13858       112  PMPE      H8R            28.9566386132      -43.9684993286        8.5734061960  MEMB      112             0.0000000000
     13859       112  PMPE      H8S            28.5030583258      -42.3073363434        9.0944335655  MEMB      112             0.0000000000
     13860       112  PMPE      C29            26.9405928669      -43.2143735028        8.1370129068  MEMB      112             0.0000000000
     13861       112  PMPE      H9R            25.9877243160      -42.9036128550        8.6390819083  MEMB      112             0.0000000000
     13862       112  PMPE      C217           26.9074650620      -44.3924529720        7.1184721504  MEMB      112             0.0000000000
     13863       112  PMPE      H17R           26.0543674068      -44.7674169046        7.1108592646  MEMB      112             0.0000000000
     13864       112  PMPE      H17S           27.4853199147      -45.2365537876        7.3678847859  MEMB      112             0.0000000000
     13865       112  PMPE      C210           26.9758294120      -43.1229546141        6.6665383595  MEMB      112             0.0000000000
     13866       112  PMPE      H10R           26.0431139258      -42.6551522703        6.3350810274  MEMB      112             0.0000000000
     13867       112  PMPE      C211           28.2233868908      -43.2971037913        5.9821082807  MEMB      112             0.0000000000
     13868       112  PMPE      H11R           28.0011633812      -43.5325828080        4.9224716062  MEMB      112             0.0000000000
     13869       112  PMPE      H11S           28.8552862192      -44.1537112437        6.3519806592  MEMB      112             0.0000000000
     13870       112  PMPE      C212           29.0078304745      -42.0790057641        6.3942503260  MEMB      112             0.0000000000
     13871       112  PMPE      H12R           29.6527116255      -42.3153334892        7.2694032630  MEMB      112             0.0000000000
     13872       112  PMPE      H12S           28.3289388502      -41.2758995835        6.7468982436  MEMB      112             0.0000000000
     13873       112  PMPE      C213           29.8304313710      -41.5387136082        5.2808898148  MEMB      112             0.0000000000
     13874       112  PMPE      H13R           30.5397195681      -40.7853988722        5.6570746751  MEMB      112             0.0000000000
     13875       112  PMPE      H13S           29.1642761579      -41.0853179686        4.5126045689  MEMB      112             0.0000000000
     13876       112  PMPE      C214           30.6452873256      -42.6300635019        4.6209725710  MEMB      112             0.0000000000
     13877       112  PMPE      H14R           29.9837152018      -43.3364824971        4.5922963605  MEMB      112             0.0000000000
     13878       112  PMPE      H14S           31.3485691592      -43.3418548030        5.0536221431  MEMB      112             0.0000000000
     13879       112  PMPE      C215           31.2342396693      -42.2946944870        3.4004555932  MEMB      112             0.0000000000
     13880       112  PMPE      H15R           32.2543301802      -42.7113469184        2.8463100457  MEMB      112             0.0000000000
     13881       112  PMPE      H15S           31.3845518897      -41.5739594346        4.0588662915  MEMB      112             0.0000000000
     13882       112  PMPE      C216           30.3923288167      -41.9769960913        2.5486168171  MEMB      112             0.0000000000
     13883       112  PMPE      H16R           31.1038025283      -42.4635836462        1.8119924324  MEMB      112             0.0000000000
     13884       112  PMPE      H16S           29.5578363344      -42.7534174067        2.6791365070  MEMB      112             0.0000000000
     13885       112  PMPE      H16T           30.3830813407      -41.1213128805        1.9140080167  MEMB      112             0.0000000000
     13886       112  PMPE      C33            21.9054797653      -40.7005520972       14.2106521491  MEMB      112             0.0000000000
     13887       112  PMPE      H3X            21.4982768793      -39.6594183638       14.1984591427  MEMB      112             0.0000000000
     13888       112  PMPE      H3Y            21.2228847195      -41.3070227713       13.5721076709  MEMB      112             0.0000000000
     13889       112  PMPE      C34            23.3216105437      -40.8037303178       13.6312515499  MEMB      112             0.0000000000
     13890       112  PMPE      H4X            23.8249069351      -41.6922770776       14.0693061092  MEMB      112             0.0000000000
     13891       112  PMPE      H4Y            23.9367694361      -39.9371863666       13.8897326499  MEMB      112             0.0000000000
     13892       112  PMPE      C35            23.4968338422      -40.8816403867       12.1187652381  MEMB      112             0.0000000000
     13893       112  PMPE      H5X            23.1793221787      -39.9965382611       11.5539790293  MEMB      112             0.0000000000
     13894       112  PMPE      H5Y            22.9342794999      -41.6997608369       11.7330020317  MEMB      112             0.0000000000
     13895       112  PMPE      C36            24.8874599671      -41.3094743310       11.6534652798  MEMB      112             0.0000000000
     13896       112  PMPE      H6X            24.6958870092      -41.5626404268       10.5878562410  MEMB      112             0.0000000000
     13897       112  PMPE      H6Y            25.1776223460      -42.2348705297       12.2048376381  MEMB      112             0.0000000000
     13898       112  PMPE      C37            26.0068411672      -40.2530219186       11.7289046539  MEMB      112             0.0000000000
     13899       112  PMPE      H7X            26.9795554248      -40.6545282093       11.3647552775  MEMB      112             0.0000000000
     13900       112  PMPE      H7Y            26.1136293624      -39.9877212687       12.7941906294  MEMB      112             0.0000000000
     13901       112  PMPE      C38            25.7430431639      -38.9017243265       11.0647332945  MEMB      112             0.0000000000
     13902       112  PMPE      H8X            26.5896641453      -38.2006365601       11.2492154838  MEMB      112             0.0000000000
     13903       112  PMPE      H8Y            24.8886621238      -38.4597552190       11.6275506286  MEMB      112             0.0000000000
     13904       112  PMPE      C39            25.3395561697      -39.0271929865        9.5956469802  MEMB      112             0.0000000000
     13905       112  PMPE      H9X            24.9911857598      -38.0439841955        9.2614624993  MEMB      112             0.0000000000
     13906       112  PMPE      H9Y            24.5128615395      -39.7551602086        9.5716431161  MEMB      112             0.0000000000
     13907       112  PMPE      C310           26.3363175087      -39.5670228157        8.5736611727  MEMB      112             0.0000000000
     13908       112  PMPE      H10X           26.3606562060      -40.6670618636        8.7593550043  MEMB      112             0.0000000000
     13909       112  PMPE      H10Y           27.3677019186      -39.2034525325        8.6902951395  MEMB      112             0.0000000000
     13910       112  PMPE      C311           25.8264118988      -39.3545713899        7.1439008032  MEMB      112             0.0000000000
     13911       112  PMPE      H11X           24.7878620112      -39.5362388180        7.1624455391  MEMB      112             0.0000000000
     13912       112  PMPE      H11Y           26.2214111333      -40.2118001262        6.5829414115  MEMB      112             0.0000000000
     13913       112  PMPE      C312           26.1487463859      -38.0638312342        6.4134713908  MEMB      112             0.0000000000
     13914       112  PMPE      H12X           27.2147065732      -38.1683399462        6.4563124354  MEMB      112             0.0000000000
     13915       112  PMPE      H12Y           25.8196674332      -37.0893265362        6.8279446509  MEMB      112             0.0000000000
     13916       112  PMPE      C313           25.8016503405      -38.0192006799        4.9324448658  MEMB      112             0.0000000000
     13917       112  PMPE      H13X           26.1151169954      -37.1045299083        4.5239381052  MEMB      112             0.0000000000
     13918       112  PMPE      H13Y           24.7918398935      -37.7364897365        4.7301688241  MEMB      112             0.0000000000
     13919       112  PMPE      C314           26.4536638048      -39.0716855370        4.0281904178  MEMB      112             0.0000000000
     13920       112  PMPE      H14X           25.9087184917      -39.9599457255        4.2835744295  MEMB      112             0.0000000000
     13921       112  PMPE      H14Y           27.5419140915      -39.2899065185        4.2164393583  MEMB      112             0.0000000000
     13922       112  PMPE      C315           26.2585273291      -38.8339451554        2.5435339949  MEMB      112             0.0000000000
     13923       112  PMPE      H15X           26.4310225976      -37.7616070514        2.2824082167  MEMB      112             0.0000000000
     13924       112  PMPE      H15Y           25.2051189692      -38.9254847423        2.3136003808  MEMB      112             0.0000000000
     13925       112  PMPE      C316           27.0375512034      -39.8940608426        1.7452063595  MEMB      112             0.0000000000
     13926       112  PMPE      H16X           26.7530699744      -39.8402412429        0.6806634206  MEMB      112             0.0000000000
     13927       112  PMPE      H16Y           26.6809852548      -40.8866949482        2.0884074976  MEMB      112             0.0000000000
     13928       112  PMPE      H16Z           28.1525612323      -39.8318872491        1.8832673341  MEMB      112             0.0000000000
     13929       113  PMPE      N             -17.5312481006       47.8566221787       19.6233878902  MEMB      113             0.0000000000
     13930       113  PMPE      HN1           -17.1987756357       48.7439211799       19.2059782897  MEMB      113             0.0000000000
     13931       113  PMPE      HN2           -17.9562618025       47.2654274481       18.8816391405  MEMB      113             0.0000000000
     13932       113  PMPE      HN3           -18.2121746921       48.0368786298       20.3930979136  MEMB      113             0.0000000000
     13933       113  PMPE      C12           -16.3065727992       47.1841387527       20.1630229552  MEMB      113             0.0000000000
     13934       113  PMPE      H12A          -16.0196698018       47.7687773277       21.0490303755  MEMB      113             0.0000000000
     13935       113  PMPE      H12B          -15.5582784333       47.2836289048       19.3549313732  MEMB      113             0.0000000000
     13936       113  PMPE      C11           -16.4408871996       45.6717481707       20.4500677775  MEMB      113             0.0000000000
     13937       113  PMPE      H11A          -17.0982257308       45.4604378059       21.3158586631  MEMB      113             0.0000000000
     13938       113  PMPE      H11B          -15.4754676252       45.2892867361       20.8349024617  MEMB      113             0.0000000000
     13939       113  PMPE      P             -15.8854973964       44.1532849005       18.3119979554  MEMB      113             0.0000000000
     13940       113  PMPE      O13           -16.5965899840       43.5177109049       17.1883335410  MEMB      113             0.0000000000
     13941       113  PMPE      O14           -15.0506272538       43.3129067615       19.1963463806  MEMB      113             0.0000000000
     13942       113  PMPE      O11           -14.9836415474       45.3326224523       17.7490439685  MEMB      113             0.0000000000
     13943       113  PMPE      O12           -16.9018836262       44.9561427815       19.2871701154  MEMB      113             0.0000000000
     13944       113  PMPE      C1            -13.7303358665       45.6723530465       18.3342763466  MEMB      113             0.0000000000
     13945       113  PMPE      HA            -13.2705098938       44.8634901919       18.9495935408  MEMB      113             0.0000000000
     13946       113  PMPE      HB            -13.8410194433       46.5647158467       18.9671596777  MEMB      113             0.0000000000
     13947       113  PMPE      C2            -12.6777821472       46.1116372281       17.3188395365  MEMB      113             0.0000000000
     13948       113  PMPE      HS            -11.9603484782       46.7437155905       17.8948923158  MEMB      113             0.0000000000
     13949       113  PMPE      O21           -13.1614650128       46.7994590887       16.1673685316  MEMB      113             0.0000000000
     13950       113  PMPE      C21           -13.7725796040       47.9429043233       16.3620211743  MEMB      113             0.0000000000
     13951       113  PMPE      O22           -13.8008295553       48.5710495957       17.4117528536  MEMB      113             0.0000000000
     13952       113  PMPE      C22           -14.4467979883       48.3574055290       15.0711174406  MEMB      113             0.0000000000
     13953       113  PMPE      H2R           -15.1161238963       49.2261089472       15.2318917439  MEMB      113             0.0000000000
     13954       113  PMPE      H2S           -15.0420905375       47.5075037927       14.6755807303  MEMB      113             0.0000000000
     13955       113  PMPE      C3            -11.9439284276       44.9079343596       16.8184590091  MEMB      113             0.0000000000
     13956       113  PMPE      HX            -11.3629923845       44.4198851140       17.6380921597  MEMB      113             0.0000000000
     13957       113  PMPE      HY            -11.2531820674       45.3646685165       16.0763006856  MEMB      113             0.0000000000
     13958       113  PMPE      O31           -12.6851418953       43.8167419783       16.2616644308  MEMB      113             0.0000000000
     13959       113  PMPE      C31           -12.9625967978       43.8865264779       14.9892663535  MEMB      113             0.0000000000
     13960       113  PMPE      O32           -12.5226854450       44.6707156116       14.1882565849  MEMB      113             0.0000000000
     13961       113  PMPE      C32           -13.9854420431       42.9007101699       14.5471710721  MEMB      113             0.0000000000
     13962       113  PMPE      H2X           -14.5473301426       42.6484067168       15.4624702926  MEMB      113             0.0000000000
     13963       113  PMPE      H2Y           -13.4777310853       42.0288499763       14.0888346875  MEMB      113             0.0000000000
     13964       113  PMPE      C23           -13.3641039152       48.8319836891       14.1362526708  MEMB      113             0.0000000000
     13965       113  PMPE      H3R           -12.3373628809       48.7978938997       14.4674529705  MEMB      113             0.0000000000
     13966       113  PMPE      H3S           -13.3963195314       49.9154492692       14.1546056709  MEMB      113             0.0000000000
     13967       113  PMPE      C24           -13.4427889078       48.1770753102       12.7998088022  MEMB      113             0.0000000000
     13968       113  PMPE      H4R           -14.4403993456       48.3298599699       12.3033830883  MEMB      113             0.0000000000
     13969       113  PMPE      H4S           -13.4027761858       47.1328753337       13.0261601868  MEMB      113             0.0000000000
     13970       113  PMPE      C25           -12.3164270304       48.6949812813       11.9784272467  MEMB      113             0.0000000000
     13971       113  PMPE      H5R           -11.3326087896       48.6146484811       12.3585811596  MEMB      113             0.0000000000
     13972       113  PMPE      H5S           -12.1864592675       49.7541928329       11.7771294635  MEMB      113             0.0000000000
     13973       113  PMPE      C26           -12.6055991826       48.2163643552       10.6793694393  MEMB      113             0.0000000000
     13974       113  PMPE      H6R           -11.8392148257       48.8121990716        9.9899730947  MEMB      113             0.0000000000
     13975       113  PMPE      H6S           -13.5079108038       48.2683730377       10.0331849188  MEMB      113             0.0000000000
     13976       113  PMPE      C27           -13.3443338200       46.8070407425       10.2380074348  MEMB      113             0.0000000000
     13977       113  PMPE      H7R           -13.4681641721       45.9835119330       10.8435286793  MEMB      113             0.0000000000
     13978       113  PMPE      H7S           -12.5459500322       46.5289273589       10.7907201621  MEMB      113             0.0000000000
     13979       113  PMPE      C28           -13.1175877998       46.1940678428        8.4588503197  MEMB      113             0.0000000000
     13980       113  PMPE      H8R           -12.0470647935       47.2013709001        7.6601921108  MEMB      113             0.0000000000
     13981       113  PMPE      H8S           -13.3421256269       46.6519394271        7.7050905748  MEMB      113             0.0000000000
     13982       113  PMPE      C29           -12.9174276421       44.4710842969        8.4562025835  MEMB      113             0.0000000000
     13983       113  PMPE      H9R           -13.2171969690       43.9831805784        9.3742292920  MEMB      113             0.0000000000
     13984       113  PMPE      C217          -11.6524070264       43.5741470808        8.9427669514  MEMB      113             0.0000000000
     13985       113  PMPE      H17R          -11.2031407549       42.6365896010        9.0551725861  MEMB      113             0.0000000000
     13986       113  PMPE      H17S          -10.7089246311       43.9677335611        9.4213003704  MEMB      113             0.0000000000
     13987       113  PMPE      C210          -12.2476163909       43.7797642379        7.4130043837  MEMB      113             0.0000000000
     13988       113  PMPE      H10R          -12.7398957130       42.8733262681        7.1622818540  MEMB      113             0.0000000000
     13989       113  PMPE      C211          -12.1563104227       44.7484085947        6.0798177548  MEMB      113             0.0000000000
     13990       113  PMPE      H11R          -11.1840897267       44.9955252670        5.8852764497  MEMB      113             0.0000000000
     13991       113  PMPE      H11S          -11.2128438770       45.4809149628        5.8265231587  MEMB      113             0.0000000000
     13992       113  PMPE      C212          -13.0374654115       45.5146779156        5.3884918996  MEMB      113             0.0000000000
     13993       113  PMPE      H12R          -13.3045962913       46.3567815756        5.9978309525  MEMB      113             0.0000000000
     13994       113  PMPE      H12S          -13.7096311069       44.6923612432        5.2010010808  MEMB      113             0.0000000000
     13995       113  PMPE      C213          -12.5640079615       46.0433937834        4.0672042723  MEMB      113             0.0000000000
     13996       113  PMPE      H13R          -13.4444408547       46.6302973551        3.7602395016  MEMB      113             0.0000000000
     13997       113  PMPE      H13S          -12.3899554528       45.2482660613        3.3326298681  MEMB      113             0.0000000000
     13998       113  PMPE      C214          -11.3952385344       46.9157322832        4.0361016037  MEMB      113             0.0000000000
     13999       113  PMPE      H14R          -10.4252184733       46.4774359077        4.4046869068  MEMB      113             0.0000000000
     14000       113  PMPE      H14S          -11.7326412368       47.7555475531        4.6858824857  MEMB      113             0.0000000000
     14001       113  PMPE      C215          -11.3965609105       47.3538327114        2.6296641941  MEMB      113             0.0000000000
     14002       113  PMPE      H15R          -12.1942726988       48.0101511100        2.4024496538  MEMB      113             0.0000000000
     14003       113  PMPE      H15S          -11.0281756696       46.7268189647        1.8011499274  MEMB      113             0.0000000000
     14004       113  PMPE      C216          -10.8262605501       48.4295201450        2.5041777604  MEMB      113             0.0000000000
     14005       113  PMPE      H16R          -10.9096373987       49.4946979911        2.8036842145  MEMB      113             0.0000000000
     14006       113  PMPE      H16S           -9.9912751172       47.9899343939        3.1537707433  MEMB      113             0.0000000000
     14007       113  PMPE      H16T          -10.5578365314       48.7909944045        1.4171647743  MEMB      113             0.0000000000
     14008       113  PMPE      C33           -14.8977742279       43.6077155699       13.5119110816  MEMB      113             0.0000000000
     14009       113  PMPE      H3X           -14.3568592943       43.7625214241       12.5477089547  MEMB      113             0.0000000000
     14010       113  PMPE      H3Y           -15.1899608757       44.6071181918       13.8795551900  MEMB      113             0.0000000000
     14011       113  PMPE      C34           -16.2427904387       42.9198217428       13.3364189464  MEMB      113             0.0000000000
     14012       113  PMPE      H4X           -16.7913196938       42.7777310327       14.2800732145  MEMB      113             0.0000000000
     14013       113  PMPE      H4Y           -15.9593018275       41.9373232065       13.1290010759  MEMB      113             0.0000000000
     14014       113  PMPE      C35           -17.1418107784       43.4829865987       12.2367872566  MEMB      113             0.0000000000
     14015       113  PMPE      H5X           -18.1659609816       43.0302511145       12.2687191331  MEMB      113             0.0000000000
     14016       113  PMPE      H5Y           -16.6356472901       43.2794080127       11.2602082569  MEMB      113             0.0000000000
     14017       113  PMPE      C36           -17.3759466180       44.9987616646       12.3460794401  MEMB      113             0.0000000000
     14018       113  PMPE      H6X           -16.4462764853       45.5404073991       12.2007568666  MEMB      113             0.0000000000
     14019       113  PMPE      H6Y           -17.7813811024       45.2693024759       13.3456939884  MEMB      113             0.0000000000
     14020       113  PMPE      C37           -18.2533697869       45.5069862767       11.2114704799  MEMB      113             0.0000000000
     14021       113  PMPE      H7X           -18.8840079955       44.7549072987       11.3631830450  MEMB      113             0.0000000000
     14022       113  PMPE      H7Y           -18.0361045015       45.1340042613       10.2121161723  MEMB      113             0.0000000000
     14023       113  PMPE      C38           -18.8045974523       46.9224737329       11.2649943082  MEMB      113             0.0000000000
     14024       113  PMPE      H8X           -19.1858426047       47.1689749235       12.2880279482  MEMB      113             0.0000000000
     14025       113  PMPE      H8Y           -19.6578535020       47.1248492542       10.5724739563  MEMB      113             0.0000000000
     14026       113  PMPE      C39           -17.6462232582       47.8800791542       10.9575786804  MEMB      113             0.0000000000
     14027       113  PMPE      H9X           -16.8976431952       47.7210280584       11.7735575376  MEMB      113             0.0000000000
     14028       113  PMPE      H9Y           -18.0708593614       48.8973058269       11.0063368351  MEMB      113             0.0000000000
     14029       113  PMPE      C310          -16.7806597822       47.7359509642        9.6763861643  MEMB      113             0.0000000000
     14030       113  PMPE      H10X          -16.3700047390       46.6998974923        9.6733290799  MEMB      113             0.0000000000
     14031       113  PMPE      H10Y          -15.9662079927       48.4815551565        9.7874943845  MEMB      113             0.0000000000
     14032       113  PMPE      C311          -17.4754407631       47.8565472677        8.3148301875  MEMB      113             0.0000000000
     14033       113  PMPE      H11X          -18.1431656406       48.7340377071        8.2506286452  MEMB      113             0.0000000000
     14034       113  PMPE      H11Y          -18.0641317495       46.9191654525        8.3346105243  MEMB      113             0.0000000000
     14035       113  PMPE      C312          -16.5866731183       47.8176333954        7.0503070680  MEMB      113             0.0000000000
     14036       113  PMPE      H12X          -15.9597113382       46.9047491708        7.0501307456  MEMB      113             0.0000000000
     14037       113  PMPE      H12Y          -15.9278944011       48.7107515688        7.0074735771  MEMB      113             0.0000000000
     14038       113  PMPE      C313          -17.3767477930       47.8018591683        5.7341557334  MEMB      113             0.0000000000
     14039       113  PMPE      H13X          -18.0372578558       48.6773892414        5.6960242377  MEMB      113             0.0000000000
     14040       113  PMPE      H13Y          -18.0680303069       46.9533920054        5.6452432614  MEMB      113             0.0000000000
     14041       113  PMPE      C314          -16.5514302067       47.8599147078        4.4634672351  MEMB      113             0.0000000000
     14042       113  PMPE      H14X          -17.1925558899       47.5758157630        3.6213661635  MEMB      113             0.0000000000
     14043       113  PMPE      H14Y          -15.5406054890       47.3705968584        4.4797207415  MEMB      113             0.0000000000
     14044       113  PMPE      C315          -16.3201553612       49.2305731060        4.1176201401  MEMB      113             0.0000000000
     14045       113  PMPE      H15X          -15.8799505206       49.5121501743        5.1384918564  MEMB      113             0.0000000000
     14046       113  PMPE      H15Y          -17.0309500964       50.0421646047        3.9059925675  MEMB      113             0.0000000000
     14047       113  PMPE      C316          -15.5352597906       49.3738181136        2.8727195330  MEMB      113             0.0000000000
     14048       113  PMPE      H16X          -15.4274986799       50.5432031844        2.7702337197  MEMB      113             0.0000000000
     14049       113  PMPE      H16Y          -15.7498141866       49.2923314297        1.8287865303  MEMB      113             0.0000000000
     14050       113  PMPE      H16Z          -14.5258732908       48.8599062398        2.8738613366  MEMB      113             0.0000000000
     14051       114  PVCL2     C3            -36.8232548984      -31.0338661547       19.1394075280  MEMB      114             0.0000000000
     14052       114  PVCL2     HG31          -35.8136331071      -31.4180934849       19.3655303534  MEMB      114             0.0000000000
     14053       114  PVCL2     HG32          -36.8494710608      -31.2103876401       18.0449255004  MEMB      114             0.0000000000
     14054       114  PVCL2     P3            -36.4217170385      -28.5464132944       18.5592863127  MEMB      114             0.0000000000
     14055       114  PVCL2     OP33          -36.1980224794      -27.2907115102       19.3099704989  MEMB      114             0.0000000000
     14056       114  PVCL2     OP34          -37.3034022701      -28.5048239382       17.3814835970  MEMB      114             0.0000000000
     14057       114  PVCL2     OP31          -36.9163052477      -29.6620808253       19.5426043172  MEMB      114             0.0000000000
     14058       114  PVCL2     OP32          -35.0258461082      -29.0810987061       18.0536061328  MEMB      114             0.0000000000
     14059       114  PVCL2     C31           -33.9544821932      -29.1765610295       19.0055484433  MEMB      114             0.0000000000
     14060       114  PVCL2     H31J          -33.8581724504      -28.1980202423       19.5071266919  MEMB      114             0.0000000000
     14061       114  PVCL2     H31K          -34.0759924745      -30.0267686645       19.7370470376  MEMB      114             0.0000000000
     14062       114  PVCL2     C2            -37.9083490334      -31.8836165009       19.8271457915  MEMB      114             0.0000000000
     14063       114  PVCL2     HG22          -37.8805839612      -32.8816812031       19.3309685851  MEMB      114             0.0000000000
     14064       114  PVCL2     OG12          -37.5234403584      -32.0329140891       21.1922587860  MEMB      114             0.0000000000
     14065       114  PVCL2     HO12          -37.4613985332      -31.0898965412       21.3978524842  MEMB      114             0.0000000000
     14066       114  PVCL2     C1            -39.3625938658      -31.2880061872       19.7161451081  MEMB      114             0.0000000000
     14067       114  PVCL2     HG11          -40.0354873429      -31.9496269112       20.2289430039  MEMB      114             0.0000000000
     14068       114  PVCL2     HG12          -39.6468540050      -31.2366780326       18.6496970157  MEMB      114             0.0000000000
     14069       114  PVCL2     P1            -41.0599677392      -29.5383695349       20.7714778586  MEMB      114             0.0000000000
     14070       114  PVCL2     OP13          -41.8068576024      -30.6064159831       21.4733885815  MEMB      114             0.0000000000
     14071       114  PVCL2     OP14          -40.9226753562      -28.2480459649       21.4814439458  MEMB      114             0.0000000000
     14072       114  PVCL2     OP11          -39.5941322793      -30.0301689347       20.3330619796  MEMB      114             0.0000000000
     14073       114  PVCL2     OP12          -41.8445963428      -29.2439471471       19.4372199230  MEMB      114             0.0000000000
     14074       114  PVCL2     C11           -41.5453067211      -28.1766086420       18.5581834705  MEMB      114             0.0000000000
     14075       114  PVCL2     H11J          -40.5123393665      -27.7560282344       18.6848284122  MEMB      114             0.0000000000
     14076       114  PVCL2     H11K          -42.1995047699      -27.3410903414       18.8703084863  MEMB      114             0.0000000000
     14077       114  PVCL2     C12           -41.8143912942      -28.6905640662       17.1019574294  MEMB      114             0.0000000000
     14078       114  PVCL2     H12J          -42.8881622372      -29.0129948214       17.0292854239  MEMB      114             0.0000000000
     14079       114  PVCL2     O12           -40.8922461566      -29.7557668653       16.7679851914  MEMB      114             0.0000000000
     14080       114  PVCL2     CA1           -41.3758426376      -30.8219699181       16.1574375279  MEMB      114             0.0000000000
     14081       114  PVCL2     OA1           -42.5472108609      -31.0807325005       15.9618142033  MEMB      114             0.0000000000
     14082       114  PVCL2     CA2           -40.2243413038      -31.6973157572       15.6501393078  MEMB      114             0.0000000000
     14083       114  PVCL2     H2A           -39.3573067706      -31.4959131030       16.3168872242  MEMB      114             0.0000000000
     14084       114  PVCL2     H2B           -39.9713768627      -31.3860071751       14.6057719016  MEMB      114             0.0000000000
     14085       114  PVCL2     C13           -41.5954509946      -27.5703245539       16.0536850717  MEMB      114             0.0000000000
     14086       114  PVCL2     H13J          -42.4886777693      -26.9174825121       15.9924697711  MEMB      114             0.0000000000
     14087       114  PVCL2     H13K          -41.5167929820      -28.0497428504       15.0534715419  MEMB      114             0.0000000000
     14088       114  PVCL2     O13           -40.4502800919      -26.7515868768       16.3662474961  MEMB      114             0.0000000000
     14089       114  PVCL2     CB1           -39.2800757941      -27.1483617201       15.8250627323  MEMB      114             0.0000000000
     14090       114  PVCL2     OB1           -39.1570160780      -28.0959640312       15.0727194516  MEMB      114             0.0000000000
     14091       114  PVCL2     CB2           -38.2439863660      -26.0793424983       16.1257099703  MEMB      114             0.0000000000
     14092       114  PVCL2     H2D           -37.2477699507      -26.3818783558       15.7374179726  MEMB      114             0.0000000000
     14093       114  PVCL2     H2E           -38.1969456504      -25.9358072462       17.2242342634  MEMB      114             0.0000000000
     14094       114  PVCL2     C32           -32.6033462665      -29.3841922143       18.2804592427  MEMB      114             0.0000000000
     14095       114  PVCL2     H32J          -31.7080573243      -29.2617902747       18.9193654312  MEMB      114             0.0000000000
     14096       114  PVCL2     O32           -32.5225783059      -28.6369747569       17.0929725918  MEMB      114             0.0000000000
     14097       114  PVCL2     CC1           -32.1606084854      -27.4325625017       17.1755179435  MEMB      114             0.0000000000
     14098       114  PVCL2     OC1           -31.7474370081      -26.8279453233       18.1575967089  MEMB      114             0.0000000000
     14099       114  PVCL2     CC2           -32.3995147752      -26.8123016509       15.7918595793  MEMB      114             0.0000000000
     14100       114  PVCL2     H2R           -32.0290738900      -25.7701912269       15.8578257185  MEMB      114             0.0000000000
     14101       114  PVCL2     H2S           -33.5016896097      -26.7811363573       15.6321484092  MEMB      114             0.0000000000
     14102       114  PVCL2     C33           -32.4526374398      -30.7556017618       17.8466324683  MEMB      114             0.0000000000
     14103       114  PVCL2     H33J          -31.6329412891      -30.9420923390       17.1827102833  MEMB      114             0.0000000000
     14104       114  PVCL2     H33K          -32.2655900443      -31.3082431355       18.8144169127  MEMB      114             0.0000000000
     14105       114  PVCL2     O33           -33.6485949312      -30.9994832289       17.1250869718  MEMB      114             0.0000000000
     14106       114  PVCL2     CD1           -33.7594761138      -30.7168451154       15.7658366626  MEMB      114             0.0000000000
     14107       114  PVCL2     OD1           -32.8382583032      -30.7695107602       14.9746436448  MEMB      114             0.0000000000
     14108       114  PVCL2     CD2           -35.2341169525      -30.6409839491       15.2878465912  MEMB      114             0.0000000000
     14109       114  PVCL2     H2X           -35.9441614438      -30.4165328736       16.0476372074  MEMB      114             0.0000000000
     14110       114  PVCL2     H2Y           -35.9147069492      -31.4378810166       15.3673086193  MEMB      114             0.0000000000
     14111       114  PVCL2     CA3           -40.7286981934      -33.1630672267       15.6345892346  MEMB      114             0.0000000000
     14112       114  PVCL2     H3A           -41.5470361103      -33.2333286904       14.8756298077  MEMB      114             0.0000000000
     14113       114  PVCL2     H3B           -41.1116047893      -33.4949042754       16.6272727681  MEMB      114             0.0000000000
     14114       114  PVCL2     CA4           -39.6961674252      -34.1725927271       15.2583613503  MEMB      114             0.0000000000
     14115       114  PVCL2     H4A           -40.0940620727      -35.2037943484       15.3780055326  MEMB      114             0.0000000000
     14116       114  PVCL2     H4B           -38.8253564163      -34.0751021308       15.9538622801  MEMB      114             0.0000000000
     14117       114  PVCL2     CA5           -39.2583288517      -33.9265194872       13.8614730710  MEMB      114             0.0000000000
     14118       114  PVCL2     H5A           -38.4132215074      -34.5507680682       14.1021250726  MEMB      114             0.0000000000
     14119       114  PVCL2     H5B           -38.9069068044      -32.8871173367       13.6683114122  MEMB      114             0.0000000000
     14120       114  PVCL2     CA6           -40.1346155007      -34.5391067308       12.7516196903  MEMB      114             0.0000000000
     14121       114  PVCL2     H6A           -41.1414348874      -34.2391793821       12.9893382808  MEMB      114             0.0000000000
     14122       114  PVCL2     H6B           -39.9944293893      -35.6410221991       12.7705708497  MEMB      114             0.0000000000
     14123       114  PVCL2     CA7           -40.0708775443      -34.0733290841       11.3137502718  MEMB      114             0.0000000000
     14124       114  PVCL2     H7A           -40.2890057769      -33.0280467756       11.1006293183  MEMB      114             0.0000000000
     14125       114  PVCL2     H7B           -40.3053623270      -34.7183470895       10.4507591301  MEMB      114             0.0000000000
     14126       114  PVCL2     CA8           -38.8672992853      -34.2569574090       11.0348489118  MEMB      114             0.0000000000
     14127       114  PVCL2     H8A           -38.3721885431      -35.1377990834       11.6494022449  MEMB      114             0.0000000000
     14128       114  PVCL2     H8B           -38.3075397685      -33.4167983319       11.9849215752  MEMB      114             0.0000000000
     14129       114  PVCL2     CA9           -38.1353899017      -33.8038028323        9.1233746272  MEMB      114             0.0000000000
     14130       114  PVCL2     H9A           -38.7058603515      -32.9496717372        8.9878822743  MEMB      114             0.0000000000
     14131       114  PVCL2     H9B           -38.2496874441      -34.6909923257        8.5832253906  MEMB      114             0.0000000000
     14132       114  PVCL2     CA10          -36.3908391890      -33.0559958645        8.7966804340  MEMB      114             0.0000000000
     14133       114  PVCL2     H10A          -35.5496386893      -33.3487665064        8.2998937274  MEMB      114             0.0000000000
     14134       114  PVCL2     H10B          -35.4368151780      -33.6054116150        9.3824468564  MEMB      114             0.0000000000
     14135       114  PVCL2     CA11          -36.1425157556      -31.7122631340        9.2554596333  MEMB      114             0.0000000000
     14136       114  PVCL2     H11A          -36.4552298928      -31.4784430849       10.2991999568  MEMB      114             0.0000000000
     14137       114  PVCL2     CA12          -35.6355910282      -30.9542978238        8.3646834754  MEMB      114             0.0000000000
     14138       114  PVCL2     H12A          -35.4362844758      -29.9760569434        8.6943398153  MEMB      114             0.0000000000
     14139       114  PVCL2     CA13          -35.2947803408      -31.3717694411        6.9565529341  MEMB      114             0.0000000000
     14140       114  PVCL2     H13A          -36.1263573960      -31.2231374078        6.2650669494  MEMB      114             0.0000000000
     14141       114  PVCL2     H13B          -34.9313662015      -32.4339867949        6.8525726176  MEMB      114             0.0000000000
     14142       114  PVCL2     CA14          -34.2156800664      -30.4721930268        6.4027447719  MEMB      114             0.0000000000
     14143       114  PVCL2     H14A          -33.4344312554      -30.9707360763        6.7960553139  MEMB      114             0.0000000000
     14144       114  PVCL2     H14B          -34.0652723130      -29.4716460299        6.8081181215  MEMB      114             0.0000000000
     14145       114  PVCL2     CA15          -33.9053183323      -30.5586787060        4.9349950076  MEMB      114             0.0000000000
     14146       114  PVCL2     H15A          -33.8352050312      -31.6374998058        4.6508652744  MEMB      114             0.0000000000
     14147       114  PVCL2     H15B          -32.8966187420      -30.0982515282        4.8106414789  MEMB      114             0.0000000000
     14148       114  PVCL2     CA16          -34.9181031242      -29.8045626711        4.1214009875  MEMB      114             0.0000000000
     14149       114  PVCL2     H16A          -34.9382308049      -28.7027414452        4.3033768392  MEMB      114             0.0000000000
     14150       114  PVCL2     H16B          -35.9449285024      -30.1007308727        4.4170294929  MEMB      114             0.0000000000
     14151       114  PVCL2     CA17          -34.5957527075      -30.0579062815        2.6847759402  MEMB      114             0.0000000000
     14152       114  PVCL2     H17A          -34.4261021400      -31.0810068845        2.3738858009  MEMB      114             0.0000000000
     14153       114  PVCL2     H17B          -33.7792789425      -29.3873249331        2.4064570354  MEMB      114             0.0000000000
     14154       114  PVCL2     CA18          -35.5987929976      -29.5214764683        1.9498774476  MEMB      114             0.0000000000
     14155       114  PVCL2     H18A          -35.2837549386      -29.5870733794        0.8294481611  MEMB      114             0.0000000000
     14156       114  PVCL2     H18B          -35.6080476453      -28.4880968799        2.5570722678  MEMB      114             0.0000000000
     14157       114  PVCL2     H18C          -36.5993143460      -29.9483452613        1.6900054345  MEMB      114             0.0000000000
     14158       114  PVCL2     CB3           -38.6053384017      -24.7539447800       15.5133139110  MEMB      114             0.0000000000
     14159       114  PVCL2     H3D           -38.0684832095      -24.0183625293       16.1866622087  MEMB      114             0.0000000000
     14160       114  PVCL2     H3E           -39.6811662237      -24.5083424338       15.5158622362  MEMB      114             0.0000000000
     14161       114  PVCL2     CB4           -38.0601959339      -24.7142361556       14.0944308785  MEMB      114             0.0000000000
     14162       114  PVCL2     H4D           -37.1297074460      -25.2574371657       13.9290295016  MEMB      114             0.0000000000
     14163       114  PVCL2     H4E           -38.0604876607      -23.6674039846       14.0951543947  MEMB      114             0.0000000000
     14164       114  PVCL2     CB5           -38.7726260593      -25.0809727560       12.8100468602  MEMB      114             0.0000000000
     14165       114  PVCL2     H5D           -39.6785232211      -24.7531023498       12.6262201087  MEMB      114             0.0000000000
     14166       114  PVCL2     H5E           -39.2772418203      -26.0003899027       12.9487418128  MEMB      114             0.0000000000
     14167       114  PVCL2     CB6           -38.2477138163      -24.5164468488       11.4620090710  MEMB      114             0.0000000000
     14168       114  PVCL2     H6D           -37.4744649320      -25.2325840353       11.2603373618  MEMB      114             0.0000000000
     14169       114  PVCL2     H6E           -37.7851584480      -23.5289398148       11.6405323222  MEMB      114             0.0000000000
     14170       114  PVCL2     CB7           -39.1776904263      -24.3668776132       10.1824231708  MEMB      114             0.0000000000
     14171       114  PVCL2     H7D           -39.8830070307      -23.5327326072       10.0331349379  MEMB      114             0.0000000000
     14172       114  PVCL2     H7E           -39.9173064983      -25.1503525606       10.1028181159  MEMB      114             0.0000000000
     14173       114  PVCL2     CB8           -38.4904922260      -23.7507217925        9.0207002546  MEMB      114             0.0000000000
     14174       114  PVCL2     H8D           -37.8026811688      -24.5521276841        8.7982549243  MEMB      114             0.0000000000
     14175       114  PVCL2     H8E           -37.9650376554      -22.8056807258        9.2840449299  MEMB      114             0.0000000000
     14176       114  PVCL2     CB9           -39.3567891695      -23.4542047845        7.8275597791  MEMB      114             0.0000000000
     14177       114  PVCL2     H9D           -40.3357601563      -23.1077386355        8.0910962991  MEMB      114             0.0000000000
     14178       114  PVCL2     H9E           -39.5675127542      -24.3808543065        7.2701922931  MEMB      114             0.0000000000
     14179       114  PVCL2     CB10          -38.7169891854      -22.4414699643        6.9622003388  MEMB      114             0.0000000000
     14180       114  PVCL2     H10D          -38.4241987701      -21.5122057569        7.4975438431  MEMB      114             0.0000000000
     14181       114  PVCL2     H10E          -39.4100511592      -22.1205385012        6.1474292714  MEMB      114             0.0000000000
     14182       114  PVCL2     CB11          -37.5704060742      -23.1817305606        6.4528035290  MEMB      114             0.0000000000
     14183       114  PVCL2     H11D          -37.7168014131      -24.0448336601        5.8188886415  MEMB      114             0.0000000000
     14184       114  PVCL2     H11E          -36.7422295573      -23.3164323611        7.2273422848  MEMB      114             0.0000000000
     14185       114  PVCL2     CB12          -37.4144865977      -22.3374277609        5.3352648608  MEMB      114             0.0000000000
     14186       114  PVCL2     H12D          -36.5178823857      -22.4096165604        5.3996129010  MEMB      114             0.0000000000
     14187       114  PVCL2     H12E          -36.6942190845      -21.7803791895        5.5468141541  MEMB      114             0.0000000000
     14188       114  PVCL2     CB13          -37.8538838176      -22.2064470701        3.8642112827  MEMB      114             0.0000000000
     14189       114  PVCL2     H13D          -38.6253333606      -21.6234914003        4.2780551269  MEMB      114             0.0000000000
     14190       114  PVCL2     H13E          -37.9449472309      -23.2253235060        3.5331674689  MEMB      114             0.0000000000
     14191       114  PVCL2     CB14          -37.3102151419      -21.2348439250        2.6661466438  MEMB      114             0.0000000000
     14192       114  PVCL2     H14D          -36.3260884848      -21.4492137429        2.2910102304  MEMB      114             0.0000000000
     14193       114  PVCL2     H14E          -37.1715999033      -20.2027443994        3.0777607781  MEMB      114             0.0000000000
     14194       114  PVCL2     CB15          -38.0173777467      -21.4284522333        1.5064063145  MEMB      114             0.0000000000
     14195       114  PVCL2     H15D          -38.5902386491      -20.8612427051        2.1079517088  MEMB      114             0.0000000000
     14196       114  PVCL2     H15E          -38.2673911887      -22.4888755310        1.5135544229  MEMB      114             0.0000000000
     14197       114  PVCL2     CB16          -37.7166443647      -20.6711296708        0.2841913422  MEMB      114             0.0000000000
     14198       114  PVCL2     H16D          -38.4761088566      -21.0298278452       -0.4171382991  MEMB      114             0.0000000000
     14199       114  PVCL2     H16E          -36.7646331970      -21.0047096503       -0.0292665870  MEMB      114             0.0000000000
     14200       114  PVCL2     H16F          -37.6544697418      -19.5662540954        0.3177439504  MEMB      114             0.0000000000
     14201       114  PVCL2     CC3           -31.7764880327      -27.6614300819       14.6461607024  MEMB      114             0.0000000000
     14202       114  PVCL2     H3R           -32.4124494591      -28.5731194721       14.5482756635  MEMB      114             0.0000000000
     14203       114  PVCL2     H3S           -30.7774446477      -28.0371307612       14.9672929276  MEMB      114             0.0000000000
     14204       114  PVCL2     CC4           -31.6758951398      -26.8937770387       13.3035912893  MEMB      114             0.0000000000
     14205       114  PVCL2     H4R           -31.1698577606      -27.5079272632       12.5448372989  MEMB      114             0.0000000000
     14206       114  PVCL2     H4S           -31.0067190831      -26.0180683762       13.4302643529  MEMB      114             0.0000000000
     14207       114  PVCL2     CC5           -33.0513855193      -26.4600512988       12.7577522634  MEMB      114             0.0000000000
     14208       114  PVCL2     H5R           -33.5078051029      -25.8736120712       13.5869205834  MEMB      114             0.0000000000
     14209       114  PVCL2     H5S           -33.6964759885      -27.3618862211       12.6447871188  MEMB      114             0.0000000000
     14210       114  PVCL2     CC6           -33.0732798905      -25.4911972472       11.5427305089  MEMB      114             0.0000000000
     14211       114  PVCL2     H6R           -32.4452160467      -25.6937817559       10.6459212053  MEMB      114             0.0000000000
     14212       114  PVCL2     H6S           -32.7823722971      -24.4925160448       11.9431283896  MEMB      114             0.0000000000
     14213       114  PVCL2     CC7           -34.4768858007      -25.2821595805       10.9903462127  MEMB      114             0.0000000000
     14214       114  PVCL2     H7R           -34.3948896235      -24.5418314416       10.1604840513  MEMB      114             0.0000000000
     14215       114  PVCL2     H7S           -35.0537964202      -24.8701817768       11.8629033846  MEMB      114             0.0000000000
     14216       114  PVCL2     CC8           -35.0480341138      -26.5112162560       10.2734464866  MEMB      114             0.0000000000
     14217       114  PVCL2     H8R           -35.9855512863      -26.1951045434        9.7702105992  MEMB      114             0.0000000000
     14218       114  PVCL2     H8S           -35.2888505558      -27.3080480098       11.0069948975  MEMB      114             0.0000000000
     14219       114  PVCL2     CC9           -34.1646049137      -27.1453710020        9.1735597548  MEMB      114             0.0000000000
     14220       114  PVCL2     H9R           -34.7692398711      -28.0263711017        8.8360879145  MEMB      114             0.0000000000
     14221       114  PVCL2     H9S           -33.1977117239      -27.4938569065        9.6054081258  MEMB      114             0.0000000000
     14222       114  PVCL2     CC10          -33.8132487219      -26.2768949858        7.9522358386  MEMB      114             0.0000000000
     14223       114  PVCL2     H10R          -32.9831606675      -26.8082536768        7.4278092212  MEMB      114             0.0000000000
     14224       114  PVCL2     H10S          -33.4880838800      -25.2506415640        8.1828762218  MEMB      114             0.0000000000
     14225       114  PVCL2     CC11          -34.9840833605      -26.1863741658        7.0604637771  MEMB      114             0.0000000000
     14226       114  PVCL2     H11R          -35.9558402828      -26.0337866415        7.5383061153  MEMB      114             0.0000000000
     14227       114  PVCL2     CC12          -34.8216452224      -26.2065216816        5.7586436844  MEMB      114             0.0000000000
     14228       114  PVCL2     H12R          -35.6997416020      -26.0535716228        5.0756186586  MEMB      114             0.0000000000
     14229       114  PVCL2     CC13          -33.4848404327      -26.2863305664        5.0432863013  MEMB      114             0.0000000000
     14230       114  PVCL2     H13R          -33.5157105338      -27.0657635513        4.2785585653  MEMB      114             0.0000000000
     14231       114  PVCL2     H13S          -32.6973184528      -26.6465125192        5.6067359970  MEMB      114             0.0000000000
     14232       114  PVCL2     CC14          -32.7463503618      -25.1285413808        4.4636034433  MEMB      114             0.0000000000
     14233       114  PVCL2     H14R          -31.8658140082      -25.1817416702        3.7824667235  MEMB      114             0.0000000000
     14234       114  PVCL2     H14S          -32.8541447302      -24.1455822715        4.9550760776  MEMB      114             0.0000000000
     14235       114  PVCL2     CC15          -33.3488971414      -25.2039103961        3.3105338194  MEMB      114             0.0000000000
     14236       114  PVCL2     H15R          -33.1792581614      -24.0539958992        3.2544408533  MEMB      114             0.0000000000
     14237       114  PVCL2     H15S          -34.2742330347      -25.3951612347        3.4301530820  MEMB      114             0.0000000000
     14238       114  PVCL2     CC16          -33.3680476353      -26.3114255141        2.0419759925  MEMB      114             0.0000000000
     14239       114  PVCL2     H16R          -33.9848309248      -27.0873896041        2.4159394556  MEMB      114             0.0000000000
     14240       114  PVCL2     H16S          -32.3684446276      -26.2935960151        1.7941817211  MEMB      114             0.0000000000
     14241       114  PVCL2     CC17          -34.3278306811      -26.0613572985        0.4456073507  MEMB      114             0.0000000000
     14242       114  PVCL2     H17R          -34.1070749964      -26.5128404484       -0.1126663343  MEMB      114             0.0000000000
     14243       114  PVCL2     H17S          -32.5984743690      -24.5467061428       -0.4053170215  MEMB      114             0.0000000000
     14244       114  PVCL2     CC18          -36.4514551092      -24.9129413716       -0.1524599091  MEMB      114             0.0000000000
     14245       114  PVCL2     H18R          -37.0101648429      -25.5920462935        0.0274623859  MEMB      114             0.0000000000
     14246       114  PVCL2     H18S          -36.4966980443      -24.4034769487       -1.0665164680  MEMB      114             0.0000000000
     14247       114  PVCL2     H18T          -36.5752510858      -24.0093500454        0.5767491120  MEMB      114             0.0000000000
     14248       114  PVCL2     CD3           -35.3328114169      -30.2775655732       13.8800113664  MEMB      114             0.0000000000
     14249       114  PVCL2     H3X           -35.0657173969      -31.0764491484       13.1538547894  MEMB      114             0.0000000000
     14250       114  PVCL2     H3Y           -34.5863346817      -29.4785782698       13.8857811830  MEMB      114             0.0000000000
     14251       114  PVCL2     CD4           -36.7184109339      -29.7689252388       13.6931305126  MEMB      114             0.0000000000
     14252       114  PVCL2     H4X           -36.9690331570      -29.0987688828       14.5533142414  MEMB      114             0.0000000000
     14253       114  PVCL2     H4Y           -37.3786506824      -30.6603389704       13.7453299274  MEMB      114             0.0000000000
     14254       114  PVCL2     CD5           -36.8044884164      -28.9408232675       12.4281182653  MEMB      114             0.0000000000
     14255       114  PVCL2     H5X           -36.1930663307      -29.4087425236       11.6160981010  MEMB      114             0.0000000000
     14256       114  PVCL2     H5Y           -36.3555069204      -27.9531733501       12.6696652271  MEMB      114             0.0000000000
     14257       114  PVCL2     CD6           -38.2270786525      -28.5885422414       12.0013229435  MEMB      114             0.0000000000
     14258       114  PVCL2     H6X           -38.0747072375      -27.9261328868       11.1324343428  MEMB      114             0.0000000000
     14259       114  PVCL2     H6Y           -38.7642688033      -27.9536147008       12.7360983106  MEMB      114             0.0000000000
     14260       114  PVCL2     CD7           -39.0403317015      -29.8553491764       11.7611660205  MEMB      114             0.0000000000
     14261       114  PVCL2     H7X           -39.1240602001      -30.3427546650       12.7586206411  MEMB      114             0.0000000000
     14262       114  PVCL2     H7Y           -38.4182243281      -30.5196473897       11.1267434379  MEMB      114             0.0000000000
     14263       114  PVCL2     CD8           -40.4548548944      -29.6253185933       11.2071000399  MEMB      114             0.0000000000
     14264       114  PVCL2     H8X           -41.0315811846      -29.0481257808       11.9574434205  MEMB      114             0.0000000000
     14265       114  PVCL2     H8Y           -41.0037901408      -30.5916175849       11.1051352212  MEMB      114             0.0000000000
     14266       114  PVCL2     CD9           -40.5274012518      -28.8268198090        9.8897113214  MEMB      114             0.0000000000
     14267       114  PVCL2     H9X           -40.5498656814      -27.7286151683       10.0921723105  MEMB      114             0.0000000000
     14268       114  PVCL2     H9Y           -41.4875183189      -29.1399712986        9.4154996949  MEMB      114             0.0000000000
     14269       114  PVCL2     CD10          -39.3968266857      -29.1315934454        8.8872628412  MEMB      114             0.0000000000
     14270       114  PVCL2     H10X          -39.3399386489      -30.2367935213        8.8469956474  MEMB      114             0.0000000000
     14271       114  PVCL2     H10Y          -38.4132750815      -28.7508162071        9.2427112909  MEMB      114             0.0000000000
     14272       114  PVCL2     CD11          -39.6229215295      -28.5546041478        7.4694981893  MEMB      114             0.0000000000
     14273       114  PVCL2     H11X          -39.9392979188      -27.5070178802        7.5989958158  MEMB      114             0.0000000000
     14274       114  PVCL2     H11Y          -40.4517705779      -29.0653171663        6.9403977299  MEMB      114             0.0000000000
     14275       114  PVCL2     CD12          -38.3764855187      -28.5090014812        6.5589969667  MEMB      114             0.0000000000
     14276       114  PVCL2     H12X          -37.9056313422      -29.5118306569        6.5885734532  MEMB      114             0.0000000000
     14277       114  PVCL2     H12Y          -37.6359935838      -27.7968325278        6.9738524982  MEMB      114             0.0000000000
     14278       114  PVCL2     CD13          -38.6305875782      -28.0538733512        5.1023727017  MEMB      114             0.0000000000
     14279       114  PVCL2     H13X          -39.3892628371      -28.7347049780        4.6634054301  MEMB      114             0.0000000000
     14280       114  PVCL2     H13Y          -37.6690147558      -28.1816126506        4.5314537106  MEMB      114             0.0000000000
     14281       114  PVCL2     CD14          -39.2520592495      -26.6291507837        5.0112954950  MEMB      114             0.0000000000
     14282       114  PVCL2     H14X          -38.6484907786      -25.9038059111        5.5754476089  MEMB      114             0.0000000000
     14283       114  PVCL2     H14Y          -40.2352629396      -26.6658881945        5.5064082178  MEMB      114             0.0000000000
     14284       114  PVCL2     CD15          -39.5971870681      -26.0522475926        3.6524579343  MEMB      114             0.0000000000
     14285       114  PVCL2     H15X          -39.4603028402      -24.9601535113        3.4711614392  MEMB      114             0.0000000000
     14286       114  PVCL2     H15Y          -40.3722038217      -26.6052220046        3.1241866519  MEMB      114             0.0000000000
     14287       114  PVCL2     CD16          -38.7326459549      -26.3601250227        2.8083266027  MEMB      114             0.0000000000
     14288       114  PVCL2     H16X          -38.7117337489      -25.8918616933        1.7373978364  MEMB      114             0.0000000000
     14289       114  PVCL2     H16Y          -38.4304375905      -27.3551599027        2.8225610491  MEMB      114             0.0000000000
     14290       114  PVCL2     H16Z          -37.8577062143      -26.0635108031        3.4056341645  MEMB      114             0.0000000000
     14291       115  PMPG      C13            18.3023020448       43.7009578092       16.5561500505  MEMB      115             0.0000000000
     14292       115  PMPG      H13A           18.0529962466       42.8992740909       15.8470290268  MEMB      115             0.0000000000
     14293       115  PMPG      H13B           17.5818772671       44.5142473384       16.4597305156  MEMB      115             0.0000000000
     14294       115  PMPG      OC3            19.4717998495       44.2148366682       16.1013806498  MEMB      115             0.0000000000
     14295       115  PMPG      HO3            19.3651912685       45.0274640119       15.5889752129  MEMB      115             0.0000000000
     14296       115  PMPG      C12            18.6197856868       43.2963244838       17.9950756469  MEMB      115             0.0000000000
     14297       115  PMPG      H12A           19.5607518189       42.6955328112       18.0327993816  MEMB      115             0.0000000000
     14298       115  PMPG      OC2            17.5794030181       42.4589234541       18.4482817167  MEMB      115             0.0000000000
     14299       115  PMPG      HO2            17.6864464874       42.4162605690       19.3938129868  MEMB      115             0.0000000000
     14300       115  PMPG      C11            18.8184441487       44.5594691352       18.8830427466  MEMB      115             0.0000000000
     14301       115  PMPG      H11A           19.5097009819       45.2177622900       18.3220619975  MEMB      115             0.0000000000
     14302       115  PMPG      H11B           19.3582450768       44.3850574622       19.8104754766  MEMB      115             0.0000000000
     14303       115  PMPG      P              17.2182215697       45.8726014444       20.5098851798  MEMB      115             0.0000000000
     14304       115  PMPG      O13            18.4273340509       46.4585513108       21.1052361494  MEMB      115             0.0000000000
     14305       115  PMPG      O14            16.5844438256       44.7865173391       21.2871128222  MEMB      115             0.0000000000
     14306       115  PMPG      O11            16.1711570524       47.0439243210       20.1938527839  MEMB      115             0.0000000000
     14307       115  PMPG      O12            17.5878871399       45.2482479463       19.0975658954  MEMB      115             0.0000000000
     14308       115  PMPG      C1             15.8895568047       47.5409949376       18.9057372103  MEMB      115             0.0000000000
     14309       115  PMPG      HA             16.7446345314       47.4488529051       18.1905118006  MEMB      115             0.0000000000
     14310       115  PMPG      HB             15.5660521195       48.6070031855       18.8890114207  MEMB      115             0.0000000000
     14311       115  PMPG      C2             14.8067976619       46.7639009914       18.2515963640  MEMB      115             0.0000000000
     14312       115  PMPG      HS             13.8077330565       47.0148692114       18.7612853205  MEMB      115             0.0000000000
     14313       115  PMPG      O21            15.1149553215       45.3942273168       18.0915579239  MEMB      115             0.0000000000
     14314       115  PMPG      C21            14.2975740819       44.4359643058       18.3889295123  MEMB      115             0.0000000000
     14315       115  PMPG      O22            13.3191814500       44.5466963217       19.0639718637  MEMB      115             0.0000000000
     14316       115  PMPG      C22            14.6603684668       43.0805624047       17.9019053615  MEMB      115             0.0000000000
     14317       115  PMPG      H2R            14.6069280841       42.6225108651       18.9246471384  MEMB      115             0.0000000000
     14318       115  PMPG      H2S            15.6729359708       43.1799084288       17.5554642568  MEMB      115             0.0000000000
     14319       115  PMPG      C3             14.8540578270       47.3685870176       16.9530646707  MEMB      115             0.0000000000
     14320       115  PMPG      HX             14.8628217388       48.4624700509       16.8213458045  MEMB      115             0.0000000000
     14321       115  PMPG      HY             13.8523583637       47.0953605414       16.9070975298  MEMB      115             0.0000000000
     14322       115  PMPG      O31            15.6295142554       46.7233562796       15.9351549342  MEMB      115             0.0000000000
     14323       115  PMPG      C31            15.3376555986       46.0815619328       14.8160183391  MEMB      115             0.0000000000
     14324       115  PMPG      O32            14.3452635713       45.7170781288       14.2710265861  MEMB      115             0.0000000000
     14325       115  PMPG      C32            16.5362496130       45.6877113065       14.1174837790  MEMB      115             0.0000000000
     14326       115  PMPG      H2X            16.5138459671       44.5841543118       14.2404930296  MEMB      115             0.0000000000
     14327       115  PMPG      H2Y            17.4050647560       46.1365256880       14.5857137383  MEMB      115             0.0000000000
     14328       115  PMPG      C23            13.8056208294       42.2925163226       16.8622771962  MEMB      115             0.0000000000
     14329       115  PMPG      H3R            12.7403770159       42.3090633929       17.0323184998  MEMB      115             0.0000000000
     14330       115  PMPG      H3S            14.0606821832       41.2407672320       17.0350604553  MEMB      115             0.0000000000
     14331       115  PMPG      C24            14.1421512417       42.4921256494       15.3943695740  MEMB      115             0.0000000000
     14332       115  PMPG      H4R            15.2440055375       42.4482436479       15.3456078917  MEMB      115             0.0000000000
     14333       115  PMPG      H4S            13.8548897976       43.5036895654       15.1316524590  MEMB      115             0.0000000000
     14334       115  PMPG      C25            13.4578291933       41.5298798327       14.4021594464  MEMB      115             0.0000000000
     14335       115  PMPG      H5R            12.3680811131       41.6789565234       14.3762966971  MEMB      115             0.0000000000
     14336       115  PMPG      H5S            13.5984157931       40.4806451967       14.7395638513  MEMB      115             0.0000000000
     14337       115  PMPG      C26            13.8520169998       41.7494120650       12.9390515405  MEMB      115             0.0000000000
     14338       115  PMPG      H6R            13.4153158337       40.9070742123       12.3541241913  MEMB      115             0.0000000000
     14339       115  PMPG      H6S            14.9583228525       41.7980091196       12.9005023006  MEMB      115             0.0000000000
     14340       115  PMPG      C27            13.2358512809       42.9650340928       12.2424813526  MEMB      115             0.0000000000
     14341       115  PMPG      H7R            13.6299732788       43.8823411579       12.7146305646  MEMB      115             0.0000000000
     14342       115  PMPG      H7S            12.1407001698       42.9418319847       12.4364264203  MEMB      115             0.0000000000
     14343       115  PMPG      C28            13.4089920265       42.9096610828       10.7054443218  MEMB      115             0.0000000000
     14344       115  PMPG      H8R            12.5842646665       43.5025537157       10.2460705838  MEMB      115             0.0000000000
     14345       115  PMPG      H8S            13.2933925282       41.8463617999       10.3981954475  MEMB      115             0.0000000000
     14346       115  PMPG      C29            14.7862136968       43.3638251930       10.2207617549  MEMB      115             0.0000000000
     14347       115  PMPG      H9R            15.4290791708       44.0080542653       10.8431319239  MEMB      115             0.0000000000
     14348       115  PMPG      C217           15.5847112661       42.2411573602        9.5613904742  MEMB      115             0.0000000000
     14349       115  PMPG      H17R           16.6508170182       42.3082080987        9.7186364645  MEMB      115             0.0000000000
     14350       115  PMPG      H17S           15.0259294650       41.3406358496        9.3544189363  MEMB      115             0.0000000000
     14351       115  PMPG      C210           15.1176865553       43.4475816516        8.7621978200  MEMB      115             0.0000000000
     14352       115  PMPG      H10R           15.9791998751       44.0941867475        8.5212442611  MEMB      115             0.0000000000
     14353       115  PMPG      C211           14.1886272639       43.0931543085        7.6388646545  MEMB      115             0.0000000000
     14354       115  PMPG      H11R           13.4912378368       42.2244271816        7.8024497662  MEMB      115             0.0000000000
     14355       115  PMPG      H11S           13.5960046722       43.9851904103        7.3666337367  MEMB      115             0.0000000000
     14356       115  PMPG      C212           15.0804818824       42.9815434418        6.4552115089  MEMB      115             0.0000000000
     14357       115  PMPG      H12R           15.7893795754       42.1265869354        6.5349619718  MEMB      115             0.0000000000
     14358       115  PMPG      H12S           15.5867428062       43.8419382321        6.0043680534  MEMB      115             0.0000000000
     14359       115  PMPG      C213           14.1875447387       42.7998319937        5.4332520042  MEMB      115             0.0000000000
     14360       115  PMPG      H13R           13.6970859012       41.8101891091        5.7881816054  MEMB      115             0.0000000000
     14361       115  PMPG      H13S           14.9052477541       42.6712331469        4.6333797514  MEMB      115             0.0000000000
     14362       115  PMPG      C214           13.1007994524       43.7555134471        4.6638494636  MEMB      115             0.0000000000
     14363       115  PMPG      H14R           13.6671997322       44.4828347008        4.2077705749  MEMB      115             0.0000000000
     14364       115  PMPG      H14S           12.3988417969       43.8524195807        5.4086365824  MEMB      115             0.0000000000
     14365       115  PMPG      C215           11.9837109049       43.4283779890        3.5415445167  MEMB      115             0.0000000000
     14366       115  PMPG      H15R           12.6583629932       43.1929739134        2.8037881954  MEMB      115             0.0000000000
     14367       115  PMPG      H15S           11.2770985448       43.9536444998        3.0041072621  MEMB      115             0.0000000000
     14368       115  PMPG      C216           11.1463743378       42.2888778001        3.3754067527  MEMB      115             0.0000000000
     14369       115  PMPG      H16R           10.5550279942       42.1131716777        3.9713157628  MEMB      115             0.0000000000
     14370       115  PMPG      H16S           11.5633138626       41.5297457535        4.1141226356  MEMB      115             0.0000000000
     14371       115  PMPG      H16T           10.8927276679       41.8773682834        2.3669076034  MEMB      115             0.0000000000
     14372       115  PMPG      C33            16.4666837071       46.1039136753       12.6588372299  MEMB      115             0.0000000000
     14373       115  PMPG      H3X            16.4929102441       47.2160206580       12.5510726705  MEMB      115             0.0000000000
     14374       115  PMPG      H3Y            15.5404258249       45.7069265094       12.1729570576  MEMB      115             0.0000000000
     14375       115  PMPG      C34            17.7057574003       45.5969086042       11.9723896574  MEMB      115             0.0000000000
     14376       115  PMPG      H4X            17.7233864319       44.4808153647       11.9733378742  MEMB      115             0.0000000000
     14377       115  PMPG      H4Y            18.6034742000       45.9979639948       12.5035803246  MEMB      115             0.0000000000
     14378       115  PMPG      C35            17.6764313722       46.1022823588       10.5500238383  MEMB      115             0.0000000000
     14379       115  PMPG      H5X            18.1396410550       47.1058205159       10.4853119443  MEMB      115             0.0000000000
     14380       115  PMPG      H5Y            16.6307057786       46.1958831272       10.1730250090  MEMB      115             0.0000000000
     14381       115  PMPG      C36            18.4775986234       45.2131193027        9.6306762896  MEMB      115             0.0000000000
     14382       115  PMPG      H6X            18.0077025161       44.2120154677        9.5859952829  MEMB      115             0.0000000000
     14383       115  PMPG      H6Y            19.4823661297       45.0811100036       10.0835800200  MEMB      115             0.0000000000
     14384       115  PMPG      C37            18.5234402633       45.8507046292        8.2482509557  MEMB      115             0.0000000000
     14385       115  PMPG      H7X            19.3147158439       46.6164051147        8.2221469251  MEMB      115             0.0000000000
     14386       115  PMPG      H7Y            17.5573811663       46.3718843191        8.0592903302  MEMB      115             0.0000000000
     14387       115  PMPG      C38            18.5196895539       44.8355955876        7.1084325353  MEMB      115             0.0000000000
     14388       115  PMPG      H8X            17.6881881641       44.1297183941        7.2246990846  MEMB      115             0.0000000000
     14389       115  PMPG      H8Y            19.4908447318       44.3179192128        6.9678727706  MEMB      115             0.0000000000
     14390       115  PMPG      C39            18.1553001516       45.4112368236        5.7966540113  MEMB      115             0.0000000000
     14391       115  PMPG      H9X            17.5534320348       46.3737742365        6.0309998297  MEMB      115             0.0000000000
     14392       115  PMPG      H9Y            17.4857012287       44.9460681553        5.1032079920  MEMB      115             0.0000000000
     14393       115  PMPG      C310           19.5219575967       45.3709233877        4.9796787205  MEMB      115             0.0000000000
     14394       115  PMPG      H10X           19.9165624780       44.5158390458        4.5861779350  MEMB      115             0.0000000000
     14395       115  PMPG      H10Y           20.4325060715       45.8010671855        5.4908773879  MEMB      115             0.0000000000
     14396       115  PMPG      C311           19.4884429653       46.0297053599        3.7053941118  MEMB      115             0.0000000000
     14397       115  PMPG      H11X           20.4422717994       46.5753417744        3.4369745452  MEMB      115             0.0000000000
     14398       115  PMPG      H11Y           19.3779178251       47.0512396245        3.7426036558  MEMB      115             0.0000000000
     14399       115  PMPG      C312           18.6401125089       45.3962601233        2.5607316016  MEMB      115             0.0000000000
     14400       115  PMPG      H12X           17.5202107114       45.2713887378        2.8412003687  MEMB      115             0.0000000000
     14401       115  PMPG      H12Y           19.0916309782       44.5507111102        2.5675302486  MEMB      115             0.0000000000
     14402       115  PMPG      C313           19.0214437328       45.9035798708        0.9944801493  MEMB      115             0.0000000000
     14403       115  PMPG      H13X           19.9224803479       46.4895096662        0.6968953070  MEMB      115             0.0000000000
     14404       115  PMPG      H13Y           18.9512502346       46.9034598932        0.8053911872  MEMB      115             0.0000000000
     14405       115  PMPG      C314           17.9540702119       46.2053092402        0.2304043081  MEMB      115             0.0000000000
     14406       115  PMPG      H14X           17.9950231644       45.0953678308        0.5715880587  MEMB      115             0.0000000000
     14407       115  PMPG      H14Y           18.4155903082       46.4890526886       -0.7090779728  MEMB      115             0.0000000000
     14408       115  PMPG      C315           16.4531153216       46.8537589120        0.2183272068  MEMB      115             0.0000000000
     14409       115  PMPG      H15X           16.4203827072       47.8814044253        0.5249927635  MEMB      115             0.0000000000
     14410       115  PMPG      H15Y           15.9936231284       46.2759876925        0.9510673443  MEMB      115             0.0000000000
     14411       115  PMPG      C316           15.4447760266       46.6295677709       -0.7886235832  MEMB      115             0.0000000000
     14412       115  PMPG      H16X           14.6020679237       47.1203760779       -0.4822083972  MEMB      115             0.0000000000
     14413       115  PMPG      H16Y           15.1191941050       45.5201539335       -0.7349633679  MEMB      115             0.0000000000
     14414       115  PMPG      H16Z           15.8763631562       46.9974264699       -1.7504192660  MEMB      115             0.0000000000
     14415       116  PVCL2     C3             32.9264415669       33.9561859455       20.9687324475  MEMB      116             0.0000000000
     14416       116  PVCL2     HG31           32.6497726159       33.1316869820       20.2754258657  MEMB      116             0.0000000000
     14417       116  PVCL2     HG32           32.8576574038       33.5911919429       22.0102905411  MEMB      116             0.0000000000
     14418       116  PVCL2     P3             30.4060119294       34.7527437222       21.0366740237  MEMB      116             0.0000000000
     14419       116  PVCL2     OP33           29.7654236725       35.9948481140       20.5628748872  MEMB      116             0.0000000000
     14420       116  PVCL2     OP34           30.0550201799       34.2905957417       22.3967571270  MEMB      116             0.0000000000
     14421       116  PVCL2     OP31           31.9608503159       34.9726501626       20.8561601722  MEMB      116             0.0000000000
     14422       116  PVCL2     OP32           30.0735980490       33.5604118107       20.0604564968  MEMB      116             0.0000000000
     14423       116  PVCL2     C31            29.5176535974       33.8655883754       18.8006509566  MEMB      116             0.0000000000
     14424       116  PVCL2     H31J           28.4612915989       34.1788199398       18.9309546375  MEMB      116             0.0000000000
     14425       116  PVCL2     H31K           30.1368114192       34.6595116696       18.3089514903  MEMB      116             0.0000000000
     14426       116  PVCL2     C2             34.3861072639       34.5126203384       20.7892996814  MEMB      116             0.0000000000
     14427       116  PVCL2     HG22           34.5957607268       35.1549171099       21.6864659355  MEMB      116             0.0000000000
     14428       116  PVCL2     OG12           35.3138654366       33.4117027324       20.7772578927  MEMB      116             0.0000000000
     14429       116  PVCL2     HO12           36.2154224506       33.7552433460       20.6903845262  MEMB      116             0.0000000000
     14430       116  PVCL2     C1             34.5601794462       35.4174456928       19.5321425360  MEMB      116             0.0000000000
     14431       116  PVCL2     HG11           34.1679719249       34.8636523951       18.6409808149  MEMB      116             0.0000000000
     14432       116  PVCL2     HG12           35.6123886071       35.6732509035       19.2974246371  MEMB      116             0.0000000000
     14433       116  PVCL2     P1             33.5439689522       37.6560920160       18.6082726779  MEMB      116             0.0000000000
     14434       116  PVCL2     OP13           32.4350969126       37.1279144616       17.8118225113  MEMB      116             0.0000000000
     14435       116  PVCL2     OP14           33.3872713607       39.0077227998       19.1830757755  MEMB      116             0.0000000000
     14436       116  PVCL2     OP11           33.9008141028       36.6603190605       19.7835914100  MEMB      116             0.0000000000
     14437       116  PVCL2     OP12           34.8397726922       37.4896361917       17.7067621178  MEMB      116             0.0000000000
     14438       116  PVCL2     C11            36.0624317107       38.1261770915       17.9597141349  MEMB      116             0.0000000000
     14439       116  PVCL2     H11J           36.6896565126       37.9833289817       18.8161275959  MEMB      116             0.0000000000
     14440       116  PVCL2     H11K           35.7225905162       39.1165373335       18.3896422705  MEMB      116             0.0000000000
     14441       116  PVCL2     C12            36.9998791688       38.1718196778       16.6098679481  MEMB      116             0.0000000000
     14442       116  PVCL2     H12J           37.6451725979       39.0391763344       16.8618525264  MEMB      116             0.0000000000
     14443       116  PVCL2     O12            36.1361183498       38.2410132119       15.2971856037  MEMB      116             0.0000000000
     14444       116  PVCL2     CA1            35.4740625771       39.2707948593       14.5144292520  MEMB      116             0.0000000000
     14445       116  PVCL2     OA1            35.4528777418       40.4556141658       14.4968987791  MEMB      116             0.0000000000
     14446       116  PVCL2     CA2            34.6554282700       39.0512953874       13.4568631271  MEMB      116             0.0000000000
     14447       116  PVCL2     H2A            34.9737102443       38.0953046125       13.1103268403  MEMB      116             0.0000000000
     14448       116  PVCL2     H2B            34.8419611147       39.9542015044       12.7681790093  MEMB      116             0.0000000000
     14449       116  PVCL2     C13            37.9667016392       37.1758940953       16.5032530610  MEMB      116             0.0000000000
     14450       116  PVCL2     H13J           38.5197011927       37.3392197849       17.4713420848  MEMB      116             0.0000000000
     14451       116  PVCL2     H13K           38.5753260462       37.5234669623       15.6361428972  MEMB      116             0.0000000000
     14452       116  PVCL2     O13            37.1926682703       36.0253738023       16.3900569231  MEMB      116             0.0000000000
     14453       116  PVCL2     CB1            37.9017961732       34.9621308748       16.2952563914  MEMB      116             0.0000000000
     14454       116  PVCL2     OB1            39.1058248760       34.9037974930       16.1960656376  MEMB      116             0.0000000000
     14455       116  PVCL2     CB2            36.9129695953       33.8113471529       16.2749239320  MEMB      116             0.0000000000
     14456       116  PVCL2     H2D            35.9725512811       34.2198259864       15.8338588956  MEMB      116             0.0000000000
     14457       116  PVCL2     H2E            36.7653800111       33.5333527996       17.3411869672  MEMB      116             0.0000000000
     14458       116  PVCL2     C32            29.5746000965       32.6045508064       17.9518958943  MEMB      116             0.0000000000
     14459       116  PVCL2     H32J           29.1227240767       31.7476480629       18.5088647832  MEMB      116             0.0000000000
     14460       116  PVCL2     O32            30.9642352957       32.3574648472       17.7278080067  MEMB      116             0.0000000000
     14461       116  PVCL2     CC1            31.3180197889       31.0996436064       17.6704558775  MEMB      116             0.0000000000
     14462       116  PVCL2     OC1            30.5577916693       30.1442776576       17.6062493924  MEMB      116             0.0000000000
     14463       116  PVCL2     CC2            32.8443102730       30.9775352219       17.7066186098  MEMB      116             0.0000000000
     14464       116  PVCL2     H2R            33.2402593484       31.0463976089       18.7484980752  MEMB      116             0.0000000000
     14465       116  PVCL2     H2S            33.2909855974       31.8170947164       17.1381506056  MEMB      116             0.0000000000
     14466       116  PVCL2     C33            28.8699723542       32.8189338164       16.6121560514  MEMB      116             0.0000000000
     14467       116  PVCL2     H33J           29.0991024527       31.9146554374       16.0987791246  MEMB      116             0.0000000000
     14468       116  PVCL2     H33K           27.7723617052       32.8465436405       16.6459611361  MEMB      116             0.0000000000
     14469       116  PVCL2     O33            29.2871759191       34.0182106870       15.9461352854  MEMB      116             0.0000000000
     14470       116  PVCL2     CD1            30.2264553389       33.8668516435       15.0804314974  MEMB      116             0.0000000000
     14471       116  PVCL2     OD1            30.8986074066       32.8530557380       14.9741599145  MEMB      116             0.0000000000
     14472       116  PVCL2     CD2            30.5308364856       35.1430695380       14.3509045043  MEMB      116             0.0000000000
     14473       116  PVCL2     H2X            29.8030996864       35.9118385421       14.6483506927  MEMB      116             0.0000000000
     14474       116  PVCL2     H2Y            30.5988015628       35.1871023779       13.2488946441  MEMB      116             0.0000000000
     14475       116  PVCL2     CA3            33.2335837260       39.1202332776       13.9831295797  MEMB      116             0.0000000000
     14476       116  PVCL2     H3A            32.9316537531       40.0384632311       14.5456355378  MEMB      116             0.0000000000
     14477       116  PVCL2     H3B            33.1088950158       38.2595257341       14.6759170579  MEMB      116             0.0000000000
     14478       116  PVCL2     CA4            32.3649750590       38.9637332814       12.7449053493  MEMB      116             0.0000000000
     14479       116  PVCL2     H4A            32.7895550914       38.1297355884       12.1416220582  MEMB      116             0.0000000000
     14480       116  PVCL2     H4B            32.4054384602       39.8803069681       12.1190319376  MEMB      116             0.0000000000
     14481       116  PVCL2     CA5            30.8831000550       38.6758922152       12.9546402876  MEMB      116             0.0000000000
     14482       116  PVCL2     H5A            30.3437676108       39.5835733841       13.2975697975  MEMB      116             0.0000000000
     14483       116  PVCL2     H5B            30.7042268165       37.8875721620       13.7291026968  MEMB      116             0.0000000000
     14484       116  PVCL2     CA6            30.2373567227       38.3033857053       11.6009086598  MEMB      116             0.0000000000
     14485       116  PVCL2     H6A            30.1843903714       39.1285563504       10.8537976314  MEMB      116             0.0000000000
     14486       116  PVCL2     H6B            29.2073437217       37.9912642124       11.8617448988  MEMB      116             0.0000000000
     14487       116  PVCL2     CA7            30.9378897576       37.1390157798       10.8995910137  MEMB      116             0.0000000000
     14488       116  PVCL2     H7A            30.8967611236       36.2857059846       11.5910266795  MEMB      116             0.0000000000
     14489       116  PVCL2     H7B            31.9436698729       37.3269429867       10.5132353685  MEMB      116             0.0000000000
     14490       116  PVCL2     CA8            30.3939567067       36.6235488665        9.6241552469  MEMB      116             0.0000000000
     14491       116  PVCL2     H8A            30.3920054349       37.2067438209        8.7394190491  MEMB      116             0.0000000000
     14492       116  PVCL2     H8B            29.3730912612       36.8767430455        9.8056021147  MEMB      116             0.0000000000
     14493       116  PVCL2     CA9            30.9774727466       35.2013877038        9.2639867620  MEMB      116             0.0000000000
     14494       116  PVCL2     H9A            30.7659965800       34.5184780578       10.0763860888  MEMB      116             0.0000000000
     14495       116  PVCL2     H9B            32.0174368079       35.3839131856        9.2497658863  MEMB      116             0.0000000000
     14496       116  PVCL2     CA10           30.4662149847       34.4035178092        7.9681661490  MEMB      116             0.0000000000
     14497       116  PVCL2     H10A           31.2102292680       33.7082545403        7.7423888527  MEMB      116             0.0000000000
     14498       116  PVCL2     H10B           30.3859158685       35.1299478049        7.1797143599  MEMB      116             0.0000000000
     14499       116  PVCL2     CA11           29.2524060520       33.5297640053        7.8379087354  MEMB      116             0.0000000000
     14500       116  PVCL2     H11A           28.7096163724       33.5125786297        8.6433157491  MEMB      116             0.0000000000
     14501       116  PVCL2     CA12           28.4792377190       32.7577255658        7.1747520114  MEMB      116             0.0000000000
     14502       116  PVCL2     H12A           27.3820322431       32.7618379130        7.4059790426  MEMB      116             0.0000000000
     14503       116  PVCL2     CA13           28.8316929226       32.5030593859        5.8777515426  MEMB      116             0.0000000000
     14504       116  PVCL2     H13A           28.4881448524       31.5198120877        5.6326533890  MEMB      116             0.0000000000
     14505       116  PVCL2     H13B           29.8908178013       32.7091122880        5.6591063827  MEMB      116             0.0000000000
     14506       116  PVCL2     CA14           27.8653508900       32.9675899492        5.0524205933  MEMB      116             0.0000000000
     14507       116  PVCL2     H14A           27.8659823238       33.8785219814        5.3210638049  MEMB      116             0.0000000000
     14508       116  PVCL2     H14B           26.9004784256       33.2708364372        5.0816377395  MEMB      116             0.0000000000
     14509       116  PVCL2     CA15           28.2298705012       32.7885480723        3.7867162834  MEMB      116             0.0000000000
     14510       116  PVCL2     H15A           27.9933407188       31.9388655939        3.6920928642  MEMB      116             0.0000000000
     14511       116  PVCL2     H15B           29.4374486830       32.5254571013        3.9320782113  MEMB      116             0.0000000000
     14512       116  PVCL2     CA16           27.8604390579       34.1981638230        1.4644109172  MEMB      116             0.0000000000
     14513       116  PVCL2     H16A           28.1915968091       35.3813653561        1.7353626109  MEMB      116             0.0000000000
     14514       116  PVCL2     H16B           27.0449119462       33.7954258402        1.7477400404  MEMB      116             0.0000000000
     14515       116  PVCL2     CA17           29.1137227614       34.0934727792        0.3038314686  MEMB      116             0.0000000000
     14516       116  PVCL2     H17A           29.1908139599       33.1497702535       -0.0974511841  MEMB      116             0.0000000000
     14517       116  PVCL2     H17B           30.2612118310       34.0319956887        0.5637445042  MEMB      116             0.0000000000
     14518       116  PVCL2     CA18           28.9091113631       35.2991233713       -0.2248275243  MEMB      116             0.0000000000
     14519       116  PVCL2     H18A           29.2028960242       36.0823933587        0.4751341545  MEMB      116             0.0000000000
     14520       116  PVCL2     H18B           27.8462006250       35.4617556295       -0.1848738935  MEMB      116             0.0000000000
     14521       116  PVCL2     H18C           29.4513541579       35.1295029272       -1.1214907370  MEMB      116             0.0000000000
     14522       116  PVCL2     CB3            37.3762518838       32.6313757496       15.3963501351  MEMB      116             0.0000000000
     14523       116  PVCL2     H3D            38.4626276134       32.4413528019       15.5487147876  MEMB      116             0.0000000000
     14524       116  PVCL2     H3E            37.1790218267       32.9767655588       14.3559119109  MEMB      116             0.0000000000
     14525       116  PVCL2     CB4            36.6606917467       31.3372116006       15.7765716387  MEMB      116             0.0000000000
     14526       116  PVCL2     H4D            35.5921329409       31.5793331055       15.7492758156  MEMB      116             0.0000000000
     14527       116  PVCL2     H4E            36.9662552750       31.1525490610       16.8361533616  MEMB      116             0.0000000000
     14528       116  PVCL2     CB5            36.9414049400       30.1560703779       14.8510454460  MEMB      116             0.0000000000
     14529       116  PVCL2     H5D            36.4795466346       29.2364548387       15.2438684972  MEMB      116             0.0000000000
     14530       116  PVCL2     H5E            38.0268996650       30.0539759055       15.0080966693  MEMB      116             0.0000000000
     14531       116  PVCL2     CB6            36.3645597235       30.2858563176       13.4139548739  MEMB      116             0.0000000000
     14532       116  PVCL2     H6D            36.6676497530       31.2031857629       12.8782543558  MEMB      116             0.0000000000
     14533       116  PVCL2     H6E            35.2734722831       30.3772136588       13.5850513057  MEMB      116             0.0000000000
     14534       116  PVCL2     CB7            36.5038963503       29.1044124752       12.4347996139  MEMB      116             0.0000000000
     14535       116  PVCL2     H7D            35.7257891767       28.3609174535       12.6312607887  MEMB      116             0.0000000000
     14536       116  PVCL2     H7E            37.3704355063       28.4745441808       12.5794947200  MEMB      116             0.0000000000
     14537       116  PVCL2     CB8            36.5965947914       29.5408313723       10.9661554984  MEMB      116             0.0000000000
     14538       116  PVCL2     H8D            37.3496404231       30.3495727967       10.8649188197  MEMB      116             0.0000000000
     14539       116  PVCL2     H8E            35.6348804499       29.9884670804       10.6529533237  MEMB      116             0.0000000000
     14540       116  PVCL2     CB9            37.0313864972       28.3584109158       10.0927073195  MEMB      116             0.0000000000
     14541       116  PVCL2     H9D            36.7783195381       27.4079765888       10.6154062455  MEMB      116             0.0000000000
     14542       116  PVCL2     H9E            38.1438617338       28.4168839995        9.9431903258  MEMB      116             0.0000000000
     14543       116  PVCL2     CB10           36.3233872293       28.2761120571        8.7451190032  MEMB      116             0.0000000000
     14544       116  PVCL2     H10D           36.4365839873       29.2516839581        8.2869068665  MEMB      116             0.0000000000
     14545       116  PVCL2     H10E           35.2324040317       28.2808086280        8.7807752001  MEMB      116             0.0000000000
     14546       116  PVCL2     CB11           36.9457877107       27.1605076465        7.8957689018  MEMB      116             0.0000000000
     14547       116  PVCL2     H11D           36.8027269358       26.1881646552        8.3750057139  MEMB      116             0.0000000000
     14548       116  PVCL2     H11E           38.0504968028       27.3185828235        7.9793551855  MEMB      116             0.0000000000
     14549       116  PVCL2     CB12           36.4498822100       27.0274521320        6.4591648785  MEMB      116             0.0000000000
     14550       116  PVCL2     H12D           37.0245113510       26.2206840432        5.9311606669  MEMB      116             0.0000000000
     14551       116  PVCL2     H12E           36.4657077426       28.0133996085        5.9131386862  MEMB      116             0.0000000000
     14552       116  PVCL2     CB13           35.0535616868       26.9247334828        6.1858658000  MEMB      116             0.0000000000
     14553       116  PVCL2     H13D           34.6681465661       27.8544852511        6.6164629502  MEMB      116             0.0000000000
     14554       116  PVCL2     H13E           34.6383008332       26.0915048605        6.6770150459  MEMB      116             0.0000000000
     14555       116  PVCL2     CB14           34.7858900086       26.8629187380        4.7480263401  MEMB      116             0.0000000000
     14556       116  PVCL2     H14D           35.1776022449       27.8219442992        4.2319712579  MEMB      116             0.0000000000
     14557       116  PVCL2     H14E           33.5427527384       26.6419568121        4.9458556301  MEMB      116             0.0000000000
     14558       116  PVCL2     CB15           35.4251407915       25.9778433232        3.6783671444  MEMB      116             0.0000000000
     14559       116  PVCL2     H15D           34.8628173180       25.8404373692        3.9786477986  MEMB      116             0.0000000000
     14560       116  PVCL2     H15E           36.3953401704       25.8568879865        3.9166560335  MEMB      116             0.0000000000
     14561       116  PVCL2     CB16           34.7537115487       25.9436819549        2.4039040070  MEMB      116             0.0000000000
     14562       116  PVCL2     H16D           33.9409515928       25.4933006015        2.1205615861  MEMB      116             0.0000000000
     14563       116  PVCL2     H16E           34.7894198996       25.0179667829        1.8070486472  MEMB      116             0.0000000000
     14564       116  PVCL2     H16F           35.1866657601       26.7538191847        1.8121083858  MEMB      116             0.0000000000
     14565       116  PVCL2     CC3            33.2262522446       29.6376850079       17.0282131373  MEMB      116             0.0000000000
     14566       116  PVCL2     H3R            32.7549106699       28.7829006419       17.5505963857  MEMB      116             0.0000000000
     14567       116  PVCL2     H3S            34.3191902291       29.5187971340       17.1165335545  MEMB      116             0.0000000000
     14568       116  PVCL2     CC4            32.8758082728       29.5479928453       15.5317338336  MEMB      116             0.0000000000
     14569       116  PVCL2     H4R            33.3229130499       30.4017030119       14.9839608709  MEMB      116             0.0000000000
     14570       116  PVCL2     H4S            31.7819524022       29.6154965244       15.3462239668  MEMB      116             0.0000000000
     14571       116  PVCL2     CC5            33.3765831127       28.2839099810       14.8470595917  MEMB      116             0.0000000000
     14572       116  PVCL2     H5R            32.9324875198       27.3657018820       15.2760798086  MEMB      116             0.0000000000
     14573       116  PVCL2     H5S            34.4800259898       28.2214107064       14.8960995558  MEMB      116             0.0000000000
     14574       116  PVCL2     CC6            33.0804544639       28.3830568247       13.3889494869  MEMB      116             0.0000000000
     14575       116  PVCL2     H6R            33.7198593615       27.6017706840       12.9228347741  MEMB      116             0.0000000000
     14576       116  PVCL2     H6S            33.4388180891       29.3160626028       12.9245176415  MEMB      116             0.0000000000
     14577       116  PVCL2     CC7            31.6083809349       28.1240873144       13.0476172982  MEMB      116             0.0000000000
     14578       116  PVCL2     H7R            31.0493437061       28.1214621467       13.8864659051  MEMB      116             0.0000000000
     14579       116  PVCL2     H7S            31.5004666412       27.1050034772       12.9909468261  MEMB      116             0.0000000000
     14580       116  PVCL2     CC8            30.9970394290       28.7413427250       11.8226603692  MEMB      116             0.0000000000
     14581       116  PVCL2     H8R            30.3742965337       28.1293138909       11.1350379642  MEMB      116             0.0000000000
     14582       116  PVCL2     H8S            31.9950559589       29.0721158522       11.4679378329  MEMB      116             0.0000000000
     14583       116  PVCL2     CC9            30.7983742248       30.1577720639       11.7242468453  MEMB      116             0.0000000000
     14584       116  PVCL2     H9R            31.4557038759       30.3951070083       12.6058928151  MEMB      116             0.0000000000
     14585       116  PVCL2     H9S            29.7001220521       30.0085761430       11.8402813283  MEMB      116             0.0000000000
     14586       116  PVCL2     CC10           30.8993729518       31.3151071249       10.6655781324  MEMB      116             0.0000000000
     14587       116  PVCL2     H10R           30.3320535113       32.1204182544       10.6762383913  MEMB      116             0.0000000000
     14588       116  PVCL2     H10S           30.1538548912       30.9588819691        9.9915857873  MEMB      116             0.0000000000
     14589       116  PVCL2     CC11           32.2190274508       31.8108325003       10.1928380892  MEMB      116             0.0000000000
     14590       116  PVCL2     H11R           32.4837274793       32.6448467402       10.7830130971  MEMB      116             0.0000000000
     14591       116  PVCL2     CC12           32.9212292719       31.5709580143        9.0719109969  MEMB      116             0.0000000000
     14592       116  PVCL2     H12R           33.9703219356       31.7675588504        9.0316807832  MEMB      116             0.0000000000
     14593       116  PVCL2     CC13           32.7112494122       30.7550876448        7.8659582266  MEMB      116             0.0000000000
     14594       116  PVCL2     H13R           32.5982555438       29.6796408639        7.8558311587  MEMB      116             0.0000000000
     14595       116  PVCL2     H13S           33.5027586489       29.9500010351        7.8771848222  MEMB      116             0.0000000000
     14596       116  PVCL2     CC14           31.7405385933       31.2560042674        6.7321748201  MEMB      116             0.0000000000
     14597       116  PVCL2     H14R           30.7368075103       31.5474285618        6.9930113994  MEMB      116             0.0000000000
     14598       116  PVCL2     H14S           31.1373238899       30.6178477388        6.0526181992  MEMB      116             0.0000000000
     14599       116  PVCL2     CC15           32.5988106920       31.6874027024        5.6343033588  MEMB      116             0.0000000000
     14600       116  PVCL2     H15R           33.0389748479       32.5004802313        6.1591167265  MEMB      116             0.0000000000
     14601       116  PVCL2     H15S           31.8142377188       31.8241782073        4.8576568278  MEMB      116             0.0000000000
     14602       116  PVCL2     CC16           33.9659268968       30.9919064411        5.2375924664  MEMB      116             0.0000000000
     14603       116  PVCL2     H16R           34.0751469728       29.8929229349        5.1289495886  MEMB      116             0.0000000000
     14604       116  PVCL2     H16S           34.6482788790       30.6138472060        5.9254000782  MEMB      116             0.0000000000
     14605       116  PVCL2     CC17           34.4347220046       31.3444690101        3.9111693791  MEMB      116             0.0000000000
     14606       116  PVCL2     H17R           34.8134131509       32.3018307292        3.9696692807  MEMB      116             0.0000000000
     14607       116  PVCL2     H17S           33.6139983158       31.8533277942        3.4840631354  MEMB      116             0.0000000000
     14608       116  PVCL2     CC18           35.2636502924       30.3079445816        3.0908762599  MEMB      116             0.0000000000
     14609       116  PVCL2     H18R           34.7764767533       29.3846994637        2.5943626185  MEMB      116             0.0000000000
     14610       116  PVCL2     H18S           35.9753566791       29.9706506293        3.7749860949  MEMB      116             0.0000000000
     14611       116  PVCL2     H18T           35.7850600523       30.8619966976        2.3036513753  MEMB      116             0.0000000000
     14612       116  PVCL2     CD3            31.8724673545       35.4171145682       14.9986510810  MEMB      116             0.0000000000
     14613       116  PVCL2     H3X            31.8072088682       35.3302674716       16.1187286500  MEMB      116             0.0000000000
     14614       116  PVCL2     H3Y            32.1246074318       36.4663473923       14.8072724987  MEMB      116             0.0000000000
     14615       116  PVCL2     CD4            33.0739410641       34.5797803622       14.5323731673  MEMB      116             0.0000000000
     14616       116  PVCL2     H4X            32.9535808901       33.5341111531       14.8911829683  MEMB      116             0.0000000000
     14617       116  PVCL2     H4Y            33.8800439450       35.0769817281       15.1082173795  MEMB      116             0.0000000000
     14618       116  PVCL2     CD5            33.3208501215       34.5210588756       13.0143777428  MEMB      116             0.0000000000
     14619       116  PVCL2     H5X            32.9324562881       35.4463602711       12.5317357698  MEMB      116             0.0000000000
     14620       116  PVCL2     H5Y            32.6684182839       33.6955249893       12.6544532298  MEMB      116             0.0000000000
     14621       116  PVCL2     CD6            34.7767503735       34.2770177319       12.5483660410  MEMB      116             0.0000000000
     14622       116  PVCL2     H6X            35.1202770213       33.2325527871       12.7446175467  MEMB      116             0.0000000000
     14623       116  PVCL2     H6Y            35.5331981895       34.8959861623       13.0756309404  MEMB      116             0.0000000000
     14624       116  PVCL2     CD7            34.9185981174       34.6991363397       11.0798244448  MEMB      116             0.0000000000
     14625       116  PVCL2     H7X            33.9922526154       34.4494326129       10.5067721018  MEMB      116             0.0000000000
     14626       116  PVCL2     H7Y            35.7233521214       34.0668910546       10.6703485628  MEMB      116             0.0000000000
     14627       116  PVCL2     CD8            35.3645246255       36.1759074533       10.9619612893  MEMB      116             0.0000000000
     14628       116  PVCL2     H8X            36.3348456762       36.3573327755       11.4952264779  MEMB      116             0.0000000000
     14629       116  PVCL2     H8Y            34.6736874782       36.8928055494       11.4182855705  MEMB      116             0.0000000000
     14630       116  PVCL2     CD9            35.5240210451       36.6508638591        9.5508321795  MEMB      116             0.0000000000
     14631       116  PVCL2     H9X            35.8010462691       37.7395036671        9.6320622308  MEMB      116             0.0000000000
     14632       116  PVCL2     H9Y            34.6882498951       36.5638595740        8.8446243050  MEMB      116             0.0000000000
     14633       116  PVCL2     CD10           36.5834906382       35.8144723007        8.9746047009  MEMB      116             0.0000000000
     14634       116  PVCL2     H10X           37.3882558177       35.7661679693        9.6847257707  MEMB      116             0.0000000000
     14635       116  PVCL2     H10Y           36.8028972834       36.5273935359        8.2638487021  MEMB      116             0.0000000000
     14636       116  PVCL2     CD11           36.3810812727       34.5310385132        8.1644950309  MEMB      116             0.0000000000
     14637       116  PVCL2     H11X           36.3845444782       33.7413559188        8.9167221562  MEMB      116             0.0000000000
     14638       116  PVCL2     H11Y           37.2706010841       34.2217370355        7.5825926243  MEMB      116             0.0000000000
     14639       116  PVCL2     CD12           35.2681588528       34.5989529121        7.1376187051  MEMB      116             0.0000000000
     14640       116  PVCL2     H12X           34.2988651195       34.8297729515        7.6010931548  MEMB      116             0.0000000000
     14641       116  PVCL2     H12Y           35.1782100053       33.6042502597        6.6592407974  MEMB      116             0.0000000000
     14642       116  PVCL2     CD13           35.5369382725       35.6572316889        6.0588931400  MEMB      116             0.0000000000
     14643       116  PVCL2     H13X           36.4102969077       35.3106743888        5.5163091507  MEMB      116             0.0000000000
     14644       116  PVCL2     H13Y           35.7319447297       36.6556922132        6.5165931978  MEMB      116             0.0000000000
     14645       116  PVCL2     CD14           34.4810616876       35.8055904591        4.9639184398  MEMB      116             0.0000000000
     14646       116  PVCL2     H14X           33.8354132107       36.6365197893        5.2967158602  MEMB      116             0.0000000000
     14647       116  PVCL2     H14Y           33.8238089705       34.9226302906        4.8649902907  MEMB      116             0.0000000000
     14648       116  PVCL2     CD15           35.0260512941       36.1473996103        3.5611814036  MEMB      116             0.0000000000
     14649       116  PVCL2     H15X           35.5602272005       37.1142781299        3.6248884128  MEMB      116             0.0000000000
     14650       116  PVCL2     H15Y           34.1858803558       36.3956447754        2.8734924893  MEMB      116             0.0000000000
     14651       116  PVCL2     CD16           35.9107608329       35.0772026713        2.8978122978  MEMB      116             0.0000000000
     14652       116  PVCL2     H16X           35.8237254835       35.2100941742        1.7998883422  MEMB      116             0.0000000000
     14653       116  PVCL2     H16Y           35.6184850441       34.0392269634        3.1788858911  MEMB      116             0.0000000000
     14654       116  PVCL2     H16Z           36.9814260337       35.2092182755        3.1501436834  MEMB      116             0.0000000000
     14655       117  PMPE      N              44.0704658191       19.9543159799       16.3630688609  MEMB      117             0.0000000000
     14656       117  PMPE      HN1            43.8429521612       19.8586031312       15.3558421235  MEMB      117             0.0000000000
     14657       117  PMPE      HN2            44.6032089890       20.8302300387       16.5405702004  MEMB      117             0.0000000000
     14658       117  PMPE      HN3            44.6610618131       19.1552842317       16.6683108954  MEMB      117             0.0000000000
     14659       117  PMPE      C12            42.8477624327       20.0556569195       17.2303844349  MEMB      117             0.0000000000
     14660       117  PMPE      H12A           42.0634132623       19.3963434878       16.7856470245  MEMB      117             0.0000000000
     14661       117  PMPE      H12B           42.5523396489       21.1379544112       17.2819438690  MEMB      117             0.0000000000
     14662       117  PMPE      C11            43.1423095098       19.4345834967       18.6066009979  MEMB      117             0.0000000000
     14663       117  PMPE      H11A           43.4040034935       18.3680211354       18.4656534469  MEMB      117             0.0000000000
     14664       117  PMPE      H11B           42.2064894074       19.4832120922       19.2152170312  MEMB      117             0.0000000000
     14665       117  PMPE      P              44.3287458107       21.3322360884       20.0075289718  MEMB      117             0.0000000000
     14666       117  PMPE      O13            43.9284663419       21.1441914038       21.4126420507  MEMB      117             0.0000000000
     14667       117  PMPE      O14            43.5483588542       22.2220488660       19.1330214610  MEMB      117             0.0000000000
     14668       117  PMPE      O11            45.8364771092       21.6947292917       19.9196861890  MEMB      117             0.0000000000
     14669       117  PMPE      O12            44.2836838708       19.9391055618       19.2694689754  MEMB      117             0.0000000000
     14670       117  PMPE      C1             46.7148362421       21.1649550914       18.9529412771  MEMB      117             0.0000000000
     14671       117  PMPE      HA             46.3159133502       20.3072307137       18.3744438691  MEMB      117             0.0000000000
     14672       117  PMPE      HB             47.6434377815       20.7980011420       19.4594362721  MEMB      117             0.0000000000
     14673       117  PMPE      C2             47.0641026570       22.2364388956       17.9246346775  MEMB      117             0.0000000000
     14674       117  PMPE      HS             47.3106090757       23.1704797741       18.5305549284  MEMB      117             0.0000000000
     14675       117  PMPE      O21            46.0568222347       22.4594907130       16.9297317672  MEMB      117             0.0000000000
     14676       117  PMPE      C21            45.4376378621       23.6200503884       16.9469974768  MEMB      117             0.0000000000
     14677       117  PMPE      O22            45.5547176863       24.4898852398       17.7852941061  MEMB      117             0.0000000000
     14678       117  PMPE      C22            44.5762832442       23.7266216734       15.6782615319  MEMB      117             0.0000000000
     14679       117  PMPE      H2R            43.4826744643       23.7438530956       15.8834549735  MEMB      117             0.0000000000
     14680       117  PMPE      H2S            44.8477846411       23.0093443800       14.9016071668  MEMB      117             0.0000000000
     14681       117  PMPE      C3             48.2374311763       21.7616732776       17.1466958772  MEMB      117             0.0000000000
     14682       117  PMPE      HX             49.1125683358       21.6952492577       17.7372768992  MEMB      117             0.0000000000
     14683       117  PMPE      HY             48.3576299681       22.6092691189       16.4179882298  MEMB      117             0.0000000000
     14684       117  PMPE      O31            48.2283061438       20.4329369154       16.5942509399  MEMB      117             0.0000000000
     14685       117  PMPE      C31            48.0106216325       20.4142879603       15.3123210447  MEMB      117             0.0000000000
     14686       117  PMPE      O32            47.7659332406       21.3922799543       14.6224798150  MEMB      117             0.0000000000
     14687       117  PMPE      C32            47.9776899651       19.0081102901       14.7463973224  MEMB      117             0.0000000000
     14688       117  PMPE      H2X            46.9726819546       18.5953664943       14.9758798132  MEMB      117             0.0000000000
     14689       117  PMPE      H2Y            48.7565906805       18.3469747129       15.1824576427  MEMB      117             0.0000000000
     14690       117  PMPE      C23            44.9001492351       25.0093041546       15.1182246161  MEMB      117             0.0000000000
     14691       117  PMPE      H3R            44.7259069465       25.6822383070       15.9602021118  MEMB      117             0.0000000000
     14692       117  PMPE      H3S            44.0596651782       25.3375444654       14.4529576530  MEMB      117             0.0000000000
     14693       117  PMPE      C24            46.3773771075       25.1807741491       14.5592487265  MEMB      117             0.0000000000
     14694       117  PMPE      H4R            47.1264119446       24.8302844894       15.2315081118  MEMB      117             0.0000000000
     14695       117  PMPE      H4S            46.7258265196       26.1989700006       14.4309595743  MEMB      117             0.0000000000
     14696       117  PMPE      C25            46.6455170847       24.7825540767       13.1684726133  MEMB      117             0.0000000000
     14697       117  PMPE      H5R            45.8981978528       24.0262667691       12.8809367735  MEMB      117             0.0000000000
     14698       117  PMPE      H5S            47.6792313928       24.8188846922       12.7814814411  MEMB      117             0.0000000000
     14699       117  PMPE      C26            46.2190437386       25.6791624072       12.4415308531  MEMB      117             0.0000000000
     14700       117  PMPE      H6R            46.9815257055       26.3769356278       11.7774466930  MEMB      117             0.0000000000
     14701       117  PMPE      H6S            45.1988577794       26.2863135611       13.5418651614  MEMB      117             0.0000000000
     14702       117  PMPE      C27            45.6079455211       24.9404381757       11.0917274162  MEMB      117             0.0000000000
     14703       117  PMPE      H7R            46.2997152165       25.0711471133       10.2818717945  MEMB      117             0.0000000000
     14704       117  PMPE      H7S            45.2791687853       25.7123100799       10.8162373573  MEMB      117             0.0000000000
     14705       117  PMPE      C28            44.0690168287       24.4256781241       11.0758807858  MEMB      117             0.0000000000
     14706       117  PMPE      H8R            43.3186866267       24.8544159344       11.8056553757  MEMB      117             0.0000000000
     14707       117  PMPE      H8S            44.4855754585       23.5055068306       11.3536621089  MEMB      117             0.0000000000
     14708       117  PMPE      C29            43.1403711104       24.1955284285        9.9601563463  MEMB      117             0.0000000000
     14709       117  PMPE      H9R            42.3889777283       25.0297451150        9.7409873413  MEMB      117             0.0000000000
     14710       117  PMPE      C217           42.7689725947       22.8816945099        9.4513692568  MEMB      117             0.0000000000
     14711       117  PMPE      H17R           41.9373838820       22.9815488720        8.7285465214  MEMB      117             0.0000000000
     14712       117  PMPE      H17S           43.4721492150       22.1513675194        9.7040108510  MEMB      117             0.0000000000
     14713       117  PMPE      C210           43.8727905491       23.4797369809        8.7702093200  MEMB      117             0.0000000000
     14714       117  PMPE      H10R           43.3835198788       23.5055895837        7.8482565629  MEMB      117             0.0000000000
     14715       117  PMPE      C211           45.3587538211       22.9667278868        8.5751780002  MEMB      117             0.0000000000
     14716       117  PMPE      H11R           45.0663406385       21.9877153284        8.1870051220  MEMB      117             0.0000000000
     14717       117  PMPE      H11S           45.7660560280       22.9877721473        9.5596161835  MEMB      117             0.0000000000
     14718       117  PMPE      C212           46.5909688853       23.7009549786        7.7437081949  MEMB      117             0.0000000000
     14719       117  PMPE      H12R           47.4227851053       23.1176289820        7.5371337902  MEMB      117             0.0000000000
     14720       117  PMPE      H12S           46.8140627753       24.7570098222        7.8981572855  MEMB      117             0.0000000000
     14721       117  PMPE      C213           46.5810050367       23.8997145254        6.3355493308  MEMB      117             0.0000000000
     14722       117  PMPE      H13R           45.9722167242       24.8419946515        5.8212533894  MEMB      117             0.0000000000
     14723       117  PMPE      H13S           46.1071071568       22.6931882302        6.3365615184  MEMB      117             0.0000000000
     14724       117  PMPE      C214           47.1886469393       24.6069239514        5.1467065698  MEMB      117             0.0000000000
     14725       117  PMPE      H14R           47.8982421576       23.8055514101        5.0950397987  MEMB      117             0.0000000000
     14726       117  PMPE      H14S           47.2469450163       25.7169335643        5.1562912805  MEMB      117             0.0000000000
     14727       117  PMPE      C215           46.6758556473       24.6591634177        3.6883994960  MEMB      117             0.0000000000
     14728       117  PMPE      H15R           46.9589226519       23.6138584700        3.3523298182  MEMB      117             0.0000000000
     14729       117  PMPE      H15S           47.3436283447       24.7295339536        2.8623053054  MEMB      117             0.0000000000
     14730       117  PMPE      C216           45.4293210455       25.5367926335        3.1150868709  MEMB      117             0.0000000000
     14731       117  PMPE      H16R           44.6937038568       25.1696685664        2.3105838282  MEMB      117             0.0000000000
     14732       117  PMPE      H16S           44.5373874142       25.4152781376        3.4999053376  MEMB      117             0.0000000000
     14733       117  PMPE      H16T           45.3880374978       26.5224349375        3.0611277355  MEMB      117             0.0000000000
     14734       117  PMPE      C33            48.1572249755       19.1551790834       13.2156640375  MEMB      117             0.0000000000
     14735       117  PMPE      H3X            48.6237250760       18.2650430428       12.7288262555  MEMB      117             0.0000000000
     14736       117  PMPE      H3Y            48.7162420801       20.0932781625       12.9585121496  MEMB      117             0.0000000000
     14737       117  PMPE      C34            46.8192895406       19.2606358562       12.5162125744  MEMB      117             0.0000000000
     14738       117  PMPE      H4X            46.2286858887       20.0971974886       12.9565483817  MEMB      117             0.0000000000
     14739       117  PMPE      H4Y            46.2586857469       18.3297280029       12.7454250702  MEMB      117             0.0000000000
     14740       117  PMPE      C35            46.9436170208       19.5024429612       11.0098768244  MEMB      117             0.0000000000
     14741       117  PMPE      H5X            47.3033989135       18.6402400350       10.4154060265  MEMB      117             0.0000000000
     14742       117  PMPE      H5Y            47.6404973013       20.3435359894       10.7570818844  MEMB      117             0.0000000000
     14743       117  PMPE      C36            45.5681823412       19.8708730539       10.5083366880  MEMB      117             0.0000000000
     14744       117  PMPE      H6X            45.5950513470       19.7996912333        9.4022542336  MEMB      117             0.0000000000
     14745       117  PMPE      H6Y            45.4891009516       20.9374760572       10.8078933340  MEMB      117             0.0000000000
     14746       117  PMPE      C37            44.3987374953       19.0271843152       11.0317462787  MEMB      117             0.0000000000
     14747       117  PMPE      H7X            44.2052375185       19.1274862071       12.1263012046  MEMB      117             0.0000000000
     14748       117  PMPE      H7Y            44.6108456714       17.9392343123       10.8913186469  MEMB      117             0.0000000000
     14749       117  PMPE      C38            43.1255043383       19.4345170770       10.2900085722  MEMB      117             0.0000000000
     14750       117  PMPE      H8X            42.8880523204       20.5153800110       10.2792688409  MEMB      117             0.0000000000
     14751       117  PMPE      H8Y            42.3464213172       18.9650179875       10.9243921151  MEMB      117             0.0000000000
     14752       117  PMPE      C39            42.9863983951       18.8247715343        8.8889138478  MEMB      117             0.0000000000
     14753       117  PMPE      H9X            42.7379873679       17.7761003918        9.1572408648  MEMB      117             0.0000000000
     14754       117  PMPE      H9Y            43.9096753137       18.8111656409        8.2537220135  MEMB      117             0.0000000000
     14755       117  PMPE      C310           41.7666371234       19.4399435928        8.1938827460  MEMB      117             0.0000000000
     14756       117  PMPE      H10X           41.9226655590       20.5417241974        8.0669187520  MEMB      117             0.0000000000
     14757       117  PMPE      H10Y           40.9148159091       19.2620597339        8.8968149484  MEMB      117             0.0000000000
     14758       117  PMPE      C311           41.3766096241       18.8338428515        6.8363210353  MEMB      117             0.0000000000
     14759       117  PMPE      H11X           40.5168085827       19.4349170053        6.4709030135  MEMB      117             0.0000000000
     14760       117  PMPE      H11Y           40.9920791872       17.7939349716        6.9401709554  MEMB      117             0.0000000000
     14761       117  PMPE      C312           42.4749642516       18.8939215883        5.7606492783  MEMB      117             0.0000000000
     14762       117  PMPE      H12X           42.0185709958       18.5769008862        4.7967413776  MEMB      117             0.0000000000
     14763       117  PMPE      H12Y           43.2630036684       18.1497126943        5.9977217075  MEMB      117             0.0000000000
     14764       117  PMPE      C313           43.1306275420       20.2719727317        5.5860509496  MEMB      117             0.0000000000
     14765       117  PMPE      H13X           43.8439141836       20.2549483570        4.7388677244  MEMB      117             0.0000000000
     14766       117  PMPE      H13Y           43.6902466896       20.5609711674        6.4872241301  MEMB      117             0.0000000000
     14767       117  PMPE      C314           42.1642393051       21.3776304670        5.4342091525  MEMB      117             0.0000000000
     14768       117  PMPE      H14X           42.6042617584       22.3371736735        5.3985168246  MEMB      117             0.0000000000
     14769       117  PMPE      H14Y           41.5963497224       21.4997627045        6.3315280944  MEMB      117             0.0000000000
     14770       117  PMPE      C315           41.4952060572       21.2488457223        4.1827852926  MEMB      117             0.0000000000
     14771       117  PMPE      H15X           40.7869702398       20.3335567046        4.3164183217  MEMB      117             0.0000000000
     14772       117  PMPE      H15Y           41.9294521235       20.8374197558        3.2905413417  MEMB      117             0.0000000000
     14773       117  PMPE      C316           41.0187857087       22.7084075649        3.8361297976  MEMB      117             0.0000000000
     14774       117  PMPE      H16X           40.7456953680       22.3132206594        2.9691488233  MEMB      117             0.0000000000
     14775       117  PMPE      H16Y           41.5063870541       23.6253376614        3.7663719246  MEMB      117             0.0000000000
     14776       117  PMPE      H16Z           40.0761988131       23.1086671151        4.1005105531  MEMB      117             0.0000000000
     14777       118  PMPE      N             -50.5198290680       -9.6038201118       19.9589656874  MEMB      118             0.0000000000
     14778       118  PMPE      HN1           -51.2907408102       -9.5578761414       19.2599104355  MEMB      118             0.0000000000
     14779       118  PMPE      HN2           -49.7695755503      -10.1730784055       19.5325295406  MEMB      118             0.0000000000
     14780       118  PMPE      HN3           -50.7822054517       -9.9626423431       20.9041375635  MEMB      118             0.0000000000
     14781       118  PMPE      C12           -50.0227865374       -8.2498180706       20.3357359038  MEMB      118             0.0000000000
     14782       118  PMPE      H12A          -49.2657278193       -8.4594362406       21.1285803202  MEMB      118             0.0000000000
     14783       118  PMPE      H12B          -50.9333007247       -7.6965173148       20.6638639907  MEMB      118             0.0000000000
     14784       118  PMPE      C11           -49.3878246593       -7.5038802794       19.1805244878  MEMB      118             0.0000000000
     14785       118  PMPE      H11A          -49.8660591496       -6.4922588680       19.1069549270  MEMB      118             0.0000000000
     14786       118  PMPE      H11B          -49.6099647008       -8.0593921261       18.2543214536  MEMB      118             0.0000000000
     14787       118  PMPE      P             -47.2378365864       -6.2782049120       18.5565985123  MEMB      118             0.0000000000
     14788       118  PMPE      O13           -45.8609204306       -6.5623893832       18.8049286684  MEMB      118             0.0000000000
     14789       118  PMPE      O14           -47.7098261073       -4.9328478953       18.8701149504  MEMB      118             0.0000000000
     14790       118  PMPE      O11           -47.6301098597       -6.6296671015       17.0582443303  MEMB      118             0.0000000000
     14791       118  PMPE      O12           -47.9881556899       -7.4249754918       19.3637461099  MEMB      118             0.0000000000
     14792       118  PMPE      C1            -47.1754734241       -7.8215085235       16.4398169464  MEMB      118             0.0000000000
     14793       118  PMPE      HA            -47.8098963047       -8.6516163343       16.7968281374  MEMB      118             0.0000000000
     14794       118  PMPE      HB            -46.1797646786       -8.1058444955       16.7818645314  MEMB      118             0.0000000000
     14795       118  PMPE      C2            -47.2412583975       -7.6305712496       14.9073732942  MEMB      118             0.0000000000
     14796       118  PMPE      HS            -46.6940425146       -6.7006949831       14.6175848985  MEMB      118             0.0000000000
     14797       118  PMPE      O21           -48.6364872539       -7.5048055918       14.6575447735  MEMB      118             0.0000000000
     14798       118  PMPE      C21           -48.9845402022       -6.7312126223       13.6782403742  MEMB      118             0.0000000000
     14799       118  PMPE      O22           -48.2454381327       -6.0388531091       12.9941935805  MEMB      118             0.0000000000
     14800       118  PMPE      C22           -50.4968375370       -6.8332435425       13.5306667934  MEMB      118             0.0000000000
     14801       118  PMPE      H2R           -50.8463997385       -5.8616499619       13.9456642470  MEMB      118             0.0000000000
     14802       118  PMPE      H2S           -50.9316052187       -7.6428231093       14.1689807954  MEMB      118             0.0000000000
     14803       118  PMPE      C3            -46.6183441039       -8.7974533017       14.0703367230  MEMB      118             0.0000000000
     14804       118  PMPE      HX            -47.1223664286       -9.7487790954       14.3107345696  MEMB      118             0.0000000000
     14805       118  PMPE      HY            -45.5617188980       -8.9449555668       14.3637485624  MEMB      118             0.0000000000
     14806       118  PMPE      O31           -46.7479607545       -8.6121682217       12.6476192938  MEMB      118             0.0000000000
     14807       118  PMPE      C31           -45.9283015234       -7.7181451777       12.1162279586  MEMB      118             0.0000000000
     14808       118  PMPE      O32           -44.9565798760       -7.2167491727       12.6485114205  MEMB      118             0.0000000000
     14809       118  PMPE      C32           -46.4322355140       -7.3949825259       10.7269581970  MEMB      118             0.0000000000
     14810       118  PMPE      H2X           -47.3667016258       -6.8181632268       10.8847457675  MEMB      118             0.0000000000
     14811       118  PMPE      H2Y           -46.6990616761       -8.3148348370       10.1773088542  MEMB      118             0.0000000000
     14812       118  PMPE      C23           -50.8152187706       -7.1591890848       12.0449076585  MEMB      118             0.0000000000
     14813       118  PMPE      H3R           -51.8859713754       -7.4104159411       11.9383106181  MEMB      118             0.0000000000
     14814       118  PMPE      H3S           -50.2451393834       -8.0380862311       11.6669149511  MEMB      118             0.0000000000
     14815       118  PMPE      C24           -50.7064675890       -5.9630764982       11.0959620639  MEMB      118             0.0000000000
     14816       118  PMPE      H4R           -49.6608095903       -5.6368065281       10.9477142464  MEMB      118             0.0000000000
     14817       118  PMPE      H4S           -51.2974205764       -5.1677300752       11.5973176116  MEMB      118             0.0000000000
     14818       118  PMPE      C25           -51.3625093946       -6.1140197934        9.7123144970  MEMB      118             0.0000000000
     14819       118  PMPE      H5R           -51.4179565222       -5.0868893441        9.2702432077  MEMB      118             0.0000000000
     14820       118  PMPE      H5S           -52.4007383735       -6.4657260086        9.8896886514  MEMB      118             0.0000000000
     14821       118  PMPE      C26           -50.5711466474       -7.0460011317        8.7835555795  MEMB      118             0.0000000000
     14822       118  PMPE      H6R           -50.5126597859       -8.0840801807        9.1733263068  MEMB      118             0.0000000000
     14823       118  PMPE      H6S           -49.5492477096       -6.6700328826        8.6531950848  MEMB      118             0.0000000000
     14824       118  PMPE      C27           -50.8511482721       -6.9148503398        7.3172453379  MEMB      118             0.0000000000
     14825       118  PMPE      H7R           -51.2419167486       -5.9612934123        6.9869169152  MEMB      118             0.0000000000
     14826       118  PMPE      H7S           -51.6640876908       -7.3657977891        7.1297398762  MEMB      118             0.0000000000
     14827       118  PMPE      C28           -49.8782417226       -7.4767761946        6.3034740705  MEMB      118             0.0000000000
     14828       118  PMPE      H8R           -49.0888204365       -6.7227743663        6.3580336089  MEMB      118             0.0000000000
     14829       118  PMPE      H8S           -50.3522093156       -7.4900983736        5.2933132116  MEMB      118             0.0000000000
     14830       118  PMPE      C29           -49.3000579302       -8.8505073396        6.5580032190  MEMB      118             0.0000000000
     14831       118  PMPE      H9R           -49.9723857751       -9.7100012225        6.6152492672  MEMB      118             0.0000000000
     14832       118  PMPE      C217          -48.0304480643       -8.9660260621        7.3985607048  MEMB      118             0.0000000000
     14833       118  PMPE      H17R          -48.1192689621       -9.8770373058        7.9672037312  MEMB      118             0.0000000000
     14834       118  PMPE      H17S          -47.9061383690       -7.9993817348        7.8651423803  MEMB      118             0.0000000000
     14835       118  PMPE      C210          -47.9940464532       -9.1252938630        5.8744930057  MEMB      118             0.0000000000
     14836       118  PMPE      H10R          -47.7946343211      -10.1587170736        5.5464593746  MEMB      118             0.0000000000
     14837       118  PMPE      C211          -47.1789146130       -8.0251001952        5.2279591050  MEMB      118             0.0000000000
     14838       118  PMPE      H11R          -46.1533584212       -8.4356745822        5.0846053172  MEMB      118             0.0000000000
     14839       118  PMPE      H11S          -47.1043089442       -7.1857297174        5.9443403480  MEMB      118             0.0000000000
     14840       118  PMPE      C212          -47.7235706640       -7.4273836702        3.9249719235  MEMB      118             0.0000000000
     14841       118  PMPE      H12R          -47.2955244960       -6.3916817493        3.9315088784  MEMB      118             0.0000000000
     14842       118  PMPE      H12S          -48.8428085815       -7.4284124470        3.8579629060  MEMB      118             0.0000000000
     14843       118  PMPE      C213          -47.0683504211       -8.1735730598        2.7649562905  MEMB      118             0.0000000000
     14844       118  PMPE      H13R          -47.4997313566       -9.1953228878        2.7773671925  MEMB      118             0.0000000000
     14845       118  PMPE      H13S          -45.9750392598       -8.1676118412        2.9773093622  MEMB      118             0.0000000000
     14846       118  PMPE      C214          -47.2443619112       -7.5517856120        1.3764988222  MEMB      118             0.0000000000
     14847       118  PMPE      H14R          -47.1407888277       -6.4521694369        1.5062489515  MEMB      118             0.0000000000
     14848       118  PMPE      H14S          -48.2639755100       -7.8054323422        1.0478267872  MEMB      118             0.0000000000
     14849       118  PMPE      C215          -46.3592737250       -8.0451643717        0.2006814732  MEMB      118             0.0000000000
     14850       118  PMPE      H15R          -45.4161640055       -7.5512602484        0.1011936517  MEMB      118             0.0000000000
     14851       118  PMPE      H15S          -46.8072378186       -7.8829857103       -0.7760881975  MEMB      118             0.0000000000
     14852       118  PMPE      C216          -46.0266716314       -9.4534269583        0.1396835939  MEMB      118             0.0000000000
     14853       118  PMPE      H16R          -45.5635978046       -9.9334752753       -0.7323039881  MEMB      118             0.0000000000
     14854       118  PMPE      H16S          -45.3089002341       -9.6695661832        0.9972808793  MEMB      118             0.0000000000
     14855       118  PMPE      H16T          -47.0208600850       -9.9883981869        0.2360483712  MEMB      118             0.0000000000
     14856       118  PMPE      C33           -45.4137355774       -6.5441822958        9.9711108847  MEMB      118             0.0000000000
     14857       118  PMPE      H3X           -44.3932451591       -6.9544217699       10.0163599263  MEMB      118             0.0000000000
     14858       118  PMPE      H3Y           -45.2907249353       -5.6237769792       10.5826426084  MEMB      118             0.0000000000
     14859       118  PMPE      C34           -45.9059179400       -6.3261223341        8.5196751803  MEMB      118             0.0000000000
     14860       118  PMPE      H4X           -46.9819395512       -6.0538208249        8.6095852015  MEMB      118             0.0000000000
     14861       118  PMPE      H4Y           -45.7220436431       -7.1419024640        7.8512750452  MEMB      118             0.0000000000
     14862       118  PMPE      C35           -45.1801337846       -5.3768918418        7.7719950019  MEMB      118             0.0000000000
     14863       118  PMPE      H5X           -45.3533754345       -5.1143881157        6.6699583814  MEMB      118             0.0000000000
     14864       118  PMPE      H5Y           -44.1250076786       -5.4093334419        8.1703888881  MEMB      118             0.0000000000
     14865       118  PMPE      C36           -45.6633021608       -4.4590489422        8.5809341502  MEMB      118             0.0000000000
     14866       118  PMPE      H6X           -45.1264174266       -3.8094043076        7.7143828861  MEMB      118             0.0000000000
     14867       118  PMPE      H6Y           -44.8698782834       -4.3261216178        9.4816607772  MEMB      118             0.0000000000
     14868       118  PMPE      C37           -47.4853211704       -3.9442352639        8.9051863184  MEMB      118             0.0000000000
     14869       118  PMPE      H7X           -47.6361706123       -2.9451765763        9.2922054784  MEMB      118             0.0000000000
     14870       118  PMPE      H7Y           -47.0655201270       -4.3569137616        9.7019083478  MEMB      118             0.0000000000
     14871       118  PMPE      C38           -48.0184235018       -3.0891728787        7.7135315455  MEMB      118             0.0000000000
     14872       118  PMPE      H8X           -47.6910751777       -3.8023419901        7.0009441917  MEMB      118             0.0000000000
     14873       118  PMPE      H8Y           -47.5721132058       -2.1606374118        7.4177728665  MEMB      118             0.0000000000
     14874       118  PMPE      C39           -49.3503624762       -2.8401806046        8.1180185566  MEMB      118             0.0000000000
     14875       118  PMPE      H9X           -49.4269206779       -2.0766468012        8.9420915531  MEMB      118             0.0000000000
     14876       118  PMPE      H9Y           -49.5195153236       -3.8624386171        8.5007254436  MEMB      118             0.0000000000
     14877       118  PMPE      C310          -50.0748834143       -2.4938784625        6.9056938460  MEMB      118             0.0000000000
     14878       118  PMPE      H10X          -49.8790738785       -1.4249669554        6.7310247097  MEMB      118             0.0000000000
     14879       118  PMPE      H10Y          -51.0441707783       -2.6195118189        7.3361671816  MEMB      118             0.0000000000
     14880       118  PMPE      C311          -50.0785485693       -3.4121817283        5.7109749533  MEMB      118             0.0000000000
     14881       118  PMPE      H11X          -50.6437242348       -4.2813212271        6.1023636771  MEMB      118             0.0000000000
     14882       118  PMPE      H11Y          -49.0705717533       -3.7277408254        5.4005186886  MEMB      118             0.0000000000
     14883       118  PMPE      C312          -50.7297228692       -2.8402153350        4.4577739363  MEMB      118             0.0000000000
     14884       118  PMPE      H12X          -50.2417171296       -1.8929839185        4.1760090719  MEMB      118             0.0000000000
     14885       118  PMPE      H12Y          -51.7417509301       -2.5548079941        4.5964872513  MEMB      118             0.0000000000
     14886       118  PMPE      C313          -50.7013262600       -3.8127298020        3.3084173093  MEMB      118             0.0000000000
     14887       118  PMPE      H13X          -49.6583883506       -3.8877193556        2.9287276989  MEMB      118             0.0000000000
     14888       118  PMPE      H13Y          -51.4125126074       -3.4863751254        2.5088551800  MEMB      118             0.0000000000
     14889       118  PMPE      C314          -51.3190538408       -5.1333630263        3.5402661952  MEMB      118             0.0000000000
     14890       118  PMPE      H14X          -52.3139875549       -4.9471968869        4.0010715833  MEMB      118             0.0000000000
     14891       118  PMPE      H14Y          -50.7401497300       -5.7765904110        4.2103947651  MEMB      118             0.0000000000
     14892       118  PMPE      C315          -51.3485948148       -5.6556655024        2.1580072929  MEMB      118             0.0000000000
     14893       118  PMPE      H15X          -50.4959733472       -6.2046803135        1.7810804192  MEMB      118             0.0000000000
     14894       118  PMPE      H15Y          -51.9637027224       -5.0328797585        1.4223464383  MEMB      118             0.0000000000
     14895       118  PMPE      C316          -51.9719355278       -6.6994361041        2.0992353487  MEMB      118             0.0000000000
     14896       118  PMPE      H16X          -53.0309956938       -6.0201615051        2.3327673513  MEMB      118             0.0000000000
     14897       118  PMPE      H16Y          -51.8673648989       -7.7353696429        2.6484712897  MEMB      118             0.0000000000
     14898       118  PMPE      H16Z          -52.7468966115       -6.6804278566        1.5875144221  MEMB      118             0.0000000000
     14899       119  PMPE      N              48.9759785432      -16.2670978560       19.0956700014  MEMB      119             0.0000000000
     14900       119  PMPE      HN1            49.9546310497      -16.6077265788       18.9989277044  MEMB      119             0.0000000000
     14901       119  PMPE      HN2            48.5646097974      -16.3545422632       18.1445470532  MEMB      119             0.0000000000
     14902       119  PMPE      HN3            49.0444147378      -15.2810362634       19.3806849266  MEMB      119             0.0000000000
     14903       119  PMPE      C12            48.3992079151      -17.2005708665       20.0553191263  MEMB      119             0.0000000000
     14904       119  PMPE      H12A           48.8755205036      -17.0082666640       21.0434159782  MEMB      119             0.0000000000
     14905       119  PMPE      H12B           48.6690141308      -18.2238855628       19.7040972315  MEMB      119             0.0000000000
     14906       119  PMPE      C11            46.9034344913      -16.9673983638       20.0599889800  MEMB      119             0.0000000000
     14907       119  PMPE      H11A           46.6232051252      -15.9427224507       20.3851495397  MEMB      119             0.0000000000
     14908       119  PMPE      H11B           46.5990001576      -17.6842337687       20.7952223034  MEMB      119             0.0000000000
     14909       119  PMPE      P              44.6841774168      -17.0873883885       18.6051511527  MEMB      119             0.0000000000
     14910       119  PMPE      O13            44.1373069710      -16.4514124276       19.8205088822  MEMB      119             0.0000000000
     14911       119  PMPE      O14            44.1423505203      -18.3566088856       18.1348082994  MEMB      119             0.0000000000
     14912       119  PMPE      O11            44.7120405590      -16.0616396082       17.3870174013  MEMB      119             0.0000000000
     14913       119  PMPE      O12            46.2981774323      -17.2897218942       18.8241998157  MEMB      119             0.0000000000
     14914       119  PMPE      C1             45.9635351506      -15.7470793203       16.7783801325  MEMB      119             0.0000000000
     14915       119  PMPE      HA             46.6152902421      -16.6127309342       16.6750943020  MEMB      119             0.0000000000
     14916       119  PMPE      HB             46.4702718493      -14.9619287932       17.3824120157  MEMB      119             0.0000000000
     14917       119  PMPE      C2             45.7865507623      -15.2017163891       15.3665227496  MEMB      119             0.0000000000
     14918       119  PMPE      HS             45.2730231987      -14.3529934032       15.6597072483  MEMB      119             0.0000000000
     14919       119  PMPE      O21            45.0613450892      -16.1684625613       14.5528887532  MEMB      119             0.0000000000
     14920       119  PMPE      C21            44.5593878308      -15.7699789104       13.4135327162  MEMB      119             0.0000000000
     14921       119  PMPE      O22            44.6601280352      -14.6709907409       12.9342021640  MEMB      119             0.0000000000
     14922       119  PMPE      C22            44.0353104570      -16.8707163857       12.5698459944  MEMB      119             0.0000000000
     14923       119  PMPE      H2R            44.0376128187      -17.8481344578       13.0623263426  MEMB      119             0.0000000000
     14924       119  PMPE      H2S            44.5438191363      -16.8884936961       11.6112924644  MEMB      119             0.0000000000
     14925       119  PMPE      C3             47.1351556393      -14.7734073921       14.7301453212  MEMB      119             0.0000000000
     14926       119  PMPE      HX             47.5888611517      -13.9567505957       15.3580086792  MEMB      119             0.0000000000
     14927       119  PMPE      HY             46.9817441274      -14.2714787123       13.7516450953  MEMB      119             0.0000000000
     14928       119  PMPE      O31            47.9978961187      -15.9208879531       14.6422873112  MEMB      119             0.0000000000
     14929       119  PMPE      C31            49.0813722334      -15.6861857652       13.8992020775  MEMB      119             0.0000000000
     14930       119  PMPE      O32            49.4224462685      -14.6017444247       13.4999764426  MEMB      119             0.0000000000
     14931       119  PMPE      C32            49.9324163728      -16.9363331664       13.7638075514  MEMB      119             0.0000000000
     14932       119  PMPE      H2X            50.3444814607      -17.1583836762       14.7653408038  MEMB      119             0.0000000000
     14933       119  PMPE      H2Y            50.7634022024      -16.7660556364       13.0340814816  MEMB      119             0.0000000000
     14934       119  PMPE      C23            42.6905013492      -16.4491957971       12.1304764212  MEMB      119             0.0000000000
     14935       119  PMPE      H3R            42.5799736434      -15.5761929600       11.6948574977  MEMB      119             0.0000000000
     14936       119  PMPE      H3S            42.1385129329      -16.4143387586       13.1147012902  MEMB      119             0.0000000000
     14937       119  PMPE      C24            41.9900250697      -17.1776889783       11.0176092088  MEMB      119             0.0000000000
     14938       119  PMPE      H4R            40.8860286723      -17.3001596407       10.9777686005  MEMB      119             0.0000000000
     14939       119  PMPE      H4S            42.4157274548      -18.0766936465       11.3852667717  MEMB      119             0.0000000000
     14940       119  PMPE      C25            42.6710525447      -17.5063290627        9.8036030741  MEMB      119             0.0000000000
     14941       119  PMPE      H5R            43.5880939147      -18.0838444305       10.0464243668  MEMB      119             0.0000000000
     14942       119  PMPE      H5S            42.6493036516      -16.5182453331        9.4424875439  MEMB      119             0.0000000000
     14943       119  PMPE      C26            41.8868694433      -18.1731790019        8.8903664501  MEMB      119             0.0000000000
     14944       119  PMPE      H6R            40.7440735686      -17.9655353163        9.0435832598  MEMB      119             0.0000000000
     14945       119  PMPE      H6S            41.1942883970      -18.7643587125        9.0661537134  MEMB      119             0.0000000000
     14946       119  PMPE      C27            42.4702986897      -18.6019213238        7.4815542113  MEMB      119             0.0000000000
     14947       119  PMPE      H7R            42.7662867443      -17.3926847247        7.1929301447  MEMB      119             0.0000000000
     14948       119  PMPE      H7S            41.4885357254      -19.6757066440        6.4011161789  MEMB      119             0.0000000000
     14949       119  PMPE      C28            42.9469495909      -19.3431113423        7.3490624874  MEMB      119             0.0000000000
     14950       119  PMPE      H8R            43.4765782243      -19.0925860131        7.9313250280  MEMB      119             0.0000000000
     14951       119  PMPE      H8S            43.2311807746      -18.7153117279        6.4607602413  MEMB      119             0.0000000000
     14952       119  PMPE      C29            42.8403782716      -21.7472705779        7.2299010753  MEMB      119             0.0000000000
     14953       119  PMPE      H9R            41.9578822091      -22.1571213586        6.5328381189  MEMB      119             0.0000000000
     14954       119  PMPE      C217           43.1578605432      -22.6611761167        8.2051215243  MEMB      119             0.0000000000
     14955       119  PMPE      H17R           42.3795830966      -23.1448410608        8.6764383911  MEMB      119             0.0000000000
     14956       119  PMPE      H17S           44.0307998884      -22.2915662492        8.4925053220  MEMB      119             0.0000000000
     14957       119  PMPE      C210           44.0225437067      -22.7514723204        7.2103270104  MEMB      119             0.0000000000
     14958       119  PMPE      H10R           43.5757599760      -23.4729421851        6.6416339190  MEMB      119             0.0000000000
     14959       119  PMPE      C211           45.4224811722      -22.0851596619        6.7209972401  MEMB      119             0.0000000000
     14960       119  PMPE      H11R           45.9185830737      -22.6582611201        7.0927358019  MEMB      119             0.0000000000
     14961       119  PMPE      H11S           46.1227056238      -21.3903143863        7.0716553568  MEMB      119             0.0000000000
     14962       119  PMPE      C212           45.8540855243      -21.7642575842        5.3203072706  MEMB      119             0.0000000000
     14963       119  PMPE      H12R           45.8616720493      -20.5594943624        5.0085449796  MEMB      119             0.0000000000
     14964       119  PMPE      H12S           45.1450241436      -22.5723853377        4.7553190792  MEMB      119             0.0000000000
     14965       119  PMPE      C213           46.8705144391      -21.7287353160        4.6885619675  MEMB      119             0.0000000000
     14966       119  PMPE      H13R           46.7224842657      -22.6198738022        4.9342265807  MEMB      119             0.0000000000
     14967       119  PMPE      H13S           47.6142876093      -21.2892825506        5.1836647096  MEMB      119             0.0000000000
     14968       119  PMPE      C214           46.5504597152      -21.5238053815        3.3344168685  MEMB      119             0.0000000000
     14969       119  PMPE      H14R           46.0408188207      -20.6862599161        3.0018717387  MEMB      119             0.0000000000
     14970       119  PMPE      H14S           46.0314427185      -22.4915919229        2.8902583800  MEMB      119             0.0000000000
     14971       119  PMPE      C215           47.6359007111      -20.7404105622        2.4525108420  MEMB      119             0.0000000000
     14972       119  PMPE      H15R           47.7360267876      -20.8727778590        1.0320399618  MEMB      119             0.0000000000
     14973       119  PMPE      H15S           48.2281023616      -21.4187026741        2.9699309094  MEMB      119             0.0000000000
     14974       119  PMPE      C216           48.5526396143      -20.1511824361        2.7873176792  MEMB      119             0.0000000000
     14975       119  PMPE      H16R           49.2555809768      -20.5771396634        2.0006523769  MEMB      119             0.0000000000
     14976       119  PMPE      H16S           47.9858892092      -19.4364728855        2.2677966204  MEMB      119             0.0000000000
     14977       119  PMPE      H16T           49.0659867589      -20.2244504279        3.7733591282  MEMB      119             0.0000000000
     14978       119  PMPE      C33            49.1057323117      -18.1360668957       13.3000802493  MEMB      119             0.0000000000
     14979       119  PMPE      H3X            48.1896604588      -18.2952062088       13.9243571048  MEMB      119             0.0000000000
     14980       119  PMPE      H3Y            49.8100205726      -18.9941498575       13.4635139254  MEMB      119             0.0000000000
     14981       119  PMPE      C34            48.7090206584      -17.9916555449       11.8214226940  MEMB      119             0.0000000000
     14982       119  PMPE      H4X            48.8461902524      -18.9696596577       11.3708000479  MEMB      119             0.0000000000
     14983       119  PMPE      H4Y            49.2965871505      -17.2129272249       11.2652544183  MEMB      119             0.0000000000
     14984       119  PMPE      C35            47.2143519824      -17.7714309507       11.5787429530  MEMB      119             0.0000000000
     14985       119  PMPE      H5X            46.8800688501      -16.9519501337       12.2327785280  MEMB      119             0.0000000000
     14986       119  PMPE      H5Y            46.5855720774      -18.6462606139       11.8398629336  MEMB      119             0.0000000000
     14987       119  PMPE      C36            46.8942754655      -17.3791075554       10.1482730044  MEMB      119             0.0000000000
     14988       119  PMPE      H6X            45.9974812260      -17.8566295364        9.7594100007  MEMB      119             0.0000000000
     14989       119  PMPE      H6Y            47.7207640434      -17.6460506560        9.4593946793  MEMB      119             0.0000000000
     14990       119  PMPE      C37            46.5255321521      -15.9488380341       10.0294106374  MEMB      119             0.0000000000
     14991       119  PMPE      H7X            47.5271494087      -15.6173143759       10.2389262729  MEMB      119             0.0000000000
     14992       119  PMPE      H7Y            45.9598709087      -15.4224467500       10.7987588105  MEMB      119             0.0000000000
     14993       119  PMPE      C38            45.7287301069      -15.7008064397        8.7581629336  MEMB      119             0.0000000000
     14994       119  PMPE      H8X            44.6825805445      -15.5900752669        8.9390165239  MEMB      119             0.0000000000
     14995       119  PMPE      H8Y            45.9074295782      -16.3212789339        7.8311758737  MEMB      119             0.0000000000
     14996       119  PMPE      C39            45.6787366976      -14.3845732645        8.2718133219  MEMB      119             0.0000000000
     14997       119  PMPE      H9X            46.6672037774      -14.8495650841        8.0631153296  MEMB      119             0.0000000000
     14998       119  PMPE      H9Y            46.0260046205      -13.4462524538        8.8778066204  MEMB      119             0.0000000000
     14999       119  PMPE      C310           44.9465477746      -14.1804878366        6.7692958992  MEMB      119             0.0000000000
     15000       119  PMPE      H10X           44.7623541356      -12.9749646370        6.8853596874  MEMB      119             0.0000000000
     15001       119  PMPE      H10Y           43.9822627486      -14.2990554224        7.0327423392  MEMB      119             0.0000000000
     15002       119  PMPE      C311           45.7284075734      -14.7801275492        5.1358314624  MEMB      119             0.0000000000
     15003       119  PMPE      H11X           46.8272897376      -14.4680287630        4.8295099502  MEMB      119             0.0000000000
     15004       119  PMPE      H11Y           45.4343643296      -14.3708841910        4.1559556848  MEMB      119             0.0000000000
     15005       119  PMPE      C312           45.6912717741      -16.0547335129        4.9912119673  MEMB      119             0.0000000000
     15006       119  PMPE      H12X           44.9584808316      -16.3060324875        5.7319342829  MEMB      119             0.0000000000
     15007       119  PMPE      H12Y           46.7425460360      -16.2381713161        5.2917464178  MEMB      119             0.0000000000
     15008       119  PMPE      C313           45.3197675012      -16.2887332269        3.5843192198  MEMB      119             0.0000000000
     15009       119  PMPE      H13X           44.3339804712      -16.0487909909        3.2252104917  MEMB      119             0.0000000000
     15010       119  PMPE      H13Y           45.6275462527      -17.2934703369        3.3763418327  MEMB      119             0.0000000000
     15011       119  PMPE      C314           46.1508133013      -15.6042231475        2.6710048406  MEMB      119             0.0000000000
     15012       119  PMPE      H14X           47.0241763080      -15.8416183368        3.4051074428  MEMB      119             0.0000000000
     15013       119  PMPE      H14Y           46.3191470499      -14.5180743015        2.5501070158  MEMB      119             0.0000000000
     15014       119  PMPE      C315           46.0376601842      -16.3025851038        1.3759814392  MEMB      119             0.0000000000
     15015       119  PMPE      H15X           45.3575219276      -16.2956970822        0.6195280134  MEMB      119             0.0000000000
     15016       119  PMPE      H15Y           46.3670671377      -17.2963805245        1.3483013120  MEMB      119             0.0000000000
     15017       119  PMPE      C316           46.8608800525      -16.0009076601        0.6601344506  MEMB      119             0.0000000000
     15018       119  PMPE      H16X           46.9286450324      -14.6460591391        0.3329674322  MEMB      119             0.0000000000
     15019       119  PMPE      H16Y           46.8046468060      -15.7287551783       -0.2362592781  MEMB      119             0.0000000000
     15020       119  PMPE      H16Z           48.4331645592      -17.1183191725        1.0817655469  MEMB      119             0.0000000000
     15021       120  PMPE      N              11.1881841086      -47.2196440442       20.6544294067  MEMB      120             0.0000000000
     15022       120  PMPE      HN1            11.8746076852      -46.6973039739       21.2372214110  MEMB      120             0.0000000000
     15023       120  PMPE      HN2            10.9345850340      -46.6811690593       19.7993767145  MEMB      120             0.0000000000
     15024       120  PMPE      HN3            10.3506176266      -47.4246454741       21.2271718112  MEMB      120             0.0000000000
     15025       120  PMPE      C12            11.9478142365      -48.4709821218       20.3048808030  MEMB      120             0.0000000000
     15026       120  PMPE      H12A           11.2779821542      -49.3499919072       20.2455667251  MEMB      120             0.0000000000
     15027       120  PMPE      H12B           12.6833171131      -48.6180274246       21.0990979836  MEMB      120             0.0000000000
     15028       120  PMPE      C11            12.7421850453      -48.3376200462       19.0112003492  MEMB      120             0.0000000000
     15029       120  PMPE      H11A           12.0680805922      -48.0348842294       18.1944383628  MEMB      120             0.0000000000
     15030       120  PMPE      H11B           13.1086485494      -49.3735019831       18.7724986920  MEMB      120             0.0000000000
     15031       120  PMPE      P              15.2010661622      -47.6064060589       18.4056637242  MEMB      120             0.0000000000
     15032       120  PMPE      O13            15.7824228616      -48.7076896068       19.1971340185  MEMB      120             0.0000000000
     15033       120  PMPE      O14            15.9528048434      -46.3423276216       18.2713253136  MEMB      120             0.0000000000
     15034       120  PMPE      O11            14.7485278199      -48.1178078066       16.9874215170  MEMB      120             0.0000000000
     15035       120  PMPE      O12            13.7732197029      -47.3490542858       19.1246165328  MEMB      120             0.0000000000
     15036       120  PMPE      C1             15.5642781454      -47.7725520481       15.8592570664  MEMB      120             0.0000000000
     15037       120  PMPE      HA             15.6671116979      -48.7015083831       15.2624343029  MEMB      120             0.0000000000
     15038       120  PMPE      HB             16.5483899844      -47.3298694694       16.1443431382  MEMB      120             0.0000000000
     15039       120  PMPE      C2             14.9611617875      -46.6658619026       14.9837568232  MEMB      120             0.0000000000
     15040       120  PMPE      HS             14.7363933291      -45.8112714170       15.6678093799  MEMB      120             0.0000000000
     15041       120  PMPE      O21            13.8147867743      -47.2260643540       14.4145369650  MEMB      120             0.0000000000
     15042       120  PMPE      C21            12.9342255759      -46.3486916176       14.1203595638  MEMB      120             0.0000000000
     15043       120  PMPE      O22            12.9276794165      -45.1454449738       14.2787596765  MEMB      120             0.0000000000
     15044       120  PMPE      C22            11.8263794239      -47.1126651854       13.7691891046  MEMB      120             0.0000000000
     15045       120  PMPE      H2R            11.7107310741      -47.2143532970       14.8949262835  MEMB      120             0.0000000000
     15046       120  PMPE      H2S            11.9060670949      -48.1691837473       13.4500907215  MEMB      120             0.0000000000
     15047       120  PMPE      C3             15.8546229787      -46.1520942597       13.8200783419  MEMB      120             0.0000000000
     15048       120  PMPE      HX             16.6397808868      -45.4958430256       14.2364677046  MEMB      120             0.0000000000
     15049       120  PMPE      HY             15.2333608799      -45.5412033591       13.1286705144  MEMB      120             0.0000000000
     15050       120  PMPE      O31            16.5287950741      -47.1898361122       13.1104695297  MEMB      120             0.0000000000
     15051       120  PMPE      C31            15.9287927857      -47.6784142314       12.0554917259  MEMB      120             0.0000000000
     15052       120  PMPE      O32            14.8884842116      -47.3128881724       11.5399720984  MEMB      120             0.0000000000
     15053       120  PMPE      C32            16.7794635411      -48.8301030132       11.6173135785  MEMB      120             0.0000000000
     15054       120  PMPE      H2X            16.5861523433      -49.6694882399       12.3246815049  MEMB      120             0.0000000000
     15055       120  PMPE      H2Y            17.8543513769      -48.5453918841       11.5416926565  MEMB      120             0.0000000000
     15056       120  PMPE      C23            10.8107583104      -46.2428025790       12.9571346200  MEMB      120             0.0000000000
     15057       120  PMPE      H3R            10.6942377065      -45.2813067568       13.4629027582  MEMB      120             0.0000000000
     15058       120  PMPE      H3S             9.7368339994      -46.5972663604       12.8605042775  MEMB      120             0.0000000000
     15059       120  PMPE      C24            10.7566160940      -46.1892506695       11.5152349720  MEMB      120             0.0000000000
     15060       120  PMPE      H4R            11.5951269709      -45.5013164245       11.4142945499  MEMB      120             0.0000000000
     15061       120  PMPE      H4S             9.8052362223      -45.6828267889       11.2086147865  MEMB      120             0.0000000000
     15062       120  PMPE      C25            11.1573741446      -47.4647139871       10.7915291066  MEMB      120             0.0000000000
     15063       120  PMPE      H5R            11.9586071352      -47.9808459898       11.3172311990  MEMB      120             0.0000000000
     15064       120  PMPE      H5S            11.4264068165      -47.0580398269        9.8295839808  MEMB      120             0.0000000000
     15065       120  PMPE      C26            10.2448815832      -48.5646148227       10.4634013792  MEMB      120             0.0000000000
     15066       120  PMPE      H6R             9.5312037794      -48.1599468118        9.8789612442  MEMB      120             0.0000000000
     15067       120  PMPE      H6S             9.9054488818      -49.0181326461       11.2705227086  MEMB      120             0.0000000000
     15068       120  PMPE      C27            10.3692711720      -49.8245864306        9.6878875427  MEMB      120             0.0000000000
     15069       120  PMPE      H7R             9.4305702462      -50.4417167636        9.7252827909  MEMB      120             0.0000000000
     15070       120  PMPE      H7S            11.0502522471      -50.4644359105       10.2168856735  MEMB      120             0.0000000000
     15071       120  PMPE      C28            10.7474991194      -49.4048375488        8.3077200925  MEMB      120             0.0000000000
     15072       120  PMPE      H8R            11.6548616084      -48.7577530745        8.4060236355  MEMB      120             0.0000000000
     15073       120  PMPE      H8S             9.9472208637      -48.8370230317        7.8091655737  MEMB      120             0.0000000000
     15074       120  PMPE      C29            10.9422256274      -50.6557099998        7.5171634630  MEMB      120             0.0000000000
     15075       120  PMPE      H9R            10.1525449461      -51.4208944282        7.4866518285  MEMB      120             0.0000000000
     15076       120  PMPE      C217           12.3309917763      -51.1932648342        7.7589520884  MEMB      120             0.0000000000
     15077       120  PMPE      H17R           12.4722084575      -52.2546234159        7.6540393536  MEMB      120             0.0000000000
     15078       120  PMPE      H17S           12.8741770257      -50.5707441090        8.4575852305  MEMB      120             0.0000000000
     15079       120  PMPE      C210           11.9083473818      -50.6527343644        6.3885483535  MEMB      120             0.0000000000
     15080       120  PMPE      H10R           11.6334181911      -51.4255150377        5.6448477927  MEMB      120             0.0000000000
     15081       120  PMPE      C211           12.3613268733      -49.2871382334        5.8660665357  MEMB      120             0.0000000000
     15082       120  PMPE      H11R           13.0724578149      -49.4983384021        5.0342990327  MEMB      120             0.0000000000
     15083       120  PMPE      H11S           12.8265341845      -48.6558106277        6.6334264489  MEMB      120             0.0000000000
     15084       120  PMPE      C212           11.2520216274      -48.4411808316        5.2604617880  MEMB      120             0.0000000000
     15085       120  PMPE      H12R           10.3554964325      -48.2122133670        5.8515674824  MEMB      120             0.0000000000
     15086       120  PMPE      H12S           10.9564263462      -49.1431562222        4.5872131953  MEMB      120             0.0000000000
     15087       120  PMPE      C213           11.6570477776      -47.1776611395        4.5573146995  MEMB      120             0.0000000000
     15088       120  PMPE      H13R           12.2141458743      -46.5648968894        5.2915389460  MEMB      120             0.0000000000
     15089       120  PMPE      H13S           10.7150683035      -46.6676596281        4.2584340716  MEMB      120             0.0000000000
     15090       120  PMPE      C214           12.5290898436      -47.2755945901        3.3521979047  MEMB      120             0.0000000000
     15091       120  PMPE      H14R           12.1792267188      -47.9725612847        2.5616747009  MEMB      120             0.0000000000
     15092       120  PMPE      H14S           13.5619545846      -47.6008516015        3.6279027313  MEMB      120             0.0000000000
     15093       120  PMPE      C215           12.5924204849      -45.8819776952        2.8042321311  MEMB      120             0.0000000000
     15094       120  PMPE      H15R           12.9804458858      -46.2619350989        1.9161305954  MEMB      120             0.0000000000
     15095       120  PMPE      H15S           13.2714620348      -45.2424879376        3.3871860700  MEMB      120             0.0000000000
     15096       120  PMPE      C216           11.4526821067      -45.0576054206        2.3497567227  MEMB      120             0.0000000000
     15097       120  PMPE      H16R           11.8731061035      -44.0655501530        2.0560242429  MEMB      120             0.0000000000
     15098       120  PMPE      H16S           10.8797083856      -45.5411637948        1.5318303940  MEMB      120             0.0000000000
     15099       120  PMPE      H16T           10.8740118218      -44.9670261528        3.2705014552  MEMB      120             0.0000000000
     15100       120  PMPE      C33            16.4463971002      -49.2744724423       10.2456577960  MEMB      120             0.0000000000
     15101       120  PMPE      H3X            16.3060751119      -48.5049148070        9.4657166029  MEMB      120             0.0000000000
     15102       120  PMPE      H3Y            15.4981508867      -49.8350886962       10.2890180120  MEMB      120             0.0000000000
     15103       120  PMPE      C34            17.6905954391      -49.9649181131        9.7213302768  MEMB      120             0.0000000000
     15104       120  PMPE      H4X            18.0598579671      -50.5595618125       10.5349763649  MEMB      120             0.0000000000
     15105       120  PMPE      H4Y            18.3147079563      -49.1929575038        9.4872370536  MEMB      120             0.0000000000
     15106       120  PMPE      C35            17.8430150108      -50.4597099163        8.3534019504  MEMB      120             0.0000000000
     15107       120  PMPE      H5X            17.0439851438      -51.4079337806        9.3789529002  MEMB      120             0.0000000000
     15108       120  PMPE      H5Y            18.1900161510      -51.0037852515        7.4821848684  MEMB      120             0.0000000000
     15109       120  PMPE      C36            17.1767415457      -49.6725635754        6.7881709862  MEMB      120             0.0000000000
     15110       120  PMPE      H6X            17.9943226829      -49.0920534108        6.9006735262  MEMB      120             0.0000000000
     15111       120  PMPE      H6Y            16.3445768644      -48.9805359370        7.0762084664  MEMB      120             0.0000000000
     15112       120  PMPE      C37            16.6698579911      -50.4598612294        5.3337934615  MEMB      120             0.0000000000
     15113       120  PMPE      H7X            15.5742569880      -50.9595578643        5.1812612409  MEMB      120             0.0000000000
     15114       120  PMPE      H7Y            17.2336817077      -51.3941848159        5.1442703582  MEMB      120             0.0000000000
     15115       120  PMPE      C38            16.4394598622      -49.6525383671        4.3094398034  MEMB      120             0.0000000000
     15116       120  PMPE      H8X            17.5003229673      -49.4326483259        4.2271043360  MEMB      120             0.0000000000
     15117       120  PMPE      H8Y            15.7881618416      -48.8946126592        4.7729013449  MEMB      120             0.0000000000
     15118       120  PMPE      C39            15.9010255025      -50.4425460607        3.1686816226  MEMB      120             0.0000000000
     15119       120  PMPE      H9X            14.8851253753      -50.8288007055        3.3955084685  MEMB      120             0.0000000000
     15120       120  PMPE      H9Y            16.5579848188      -51.3393764823        3.0400549595  MEMB      120             0.0000000000
     15121       120  PMPE      C310           16.0114822339      -49.5008174455        2.0014673937  MEMB      120             0.0000000000
     15122       120  PMPE      H10X           16.9491638447      -48.9321984618        2.2000177744  MEMB      120             0.0000000000
     15123       120  PMPE      H10Y           15.2346945424      -48.7123475876        1.9568917903  MEMB      120             0.0000000000
     15124       120  PMPE      C311           16.1064187032      -50.2774908652        0.7101905556  MEMB      120             0.0000000000
     15125       120  PMPE      H11X           16.7099270392      -51.1806015909        0.8468023070  MEMB      120             0.0000000000
     15126       120  PMPE      H11Y           16.5589915265      -49.6575149059       -0.0369099862  MEMB      120             0.0000000000
     15127       120  PMPE      C312           14.7848991617      -50.7045495195        0.1662004817  MEMB      120             0.0000000000
     15128       120  PMPE      H12X           14.0885644580      -51.0257728418        0.9580223439  MEMB      120             0.0000000000
     15129       120  PMPE      H12Y           14.8893050131      -51.3951995805       -0.6891453674  MEMB      120             0.0000000000
     15130       120  PMPE      C313           14.0594942322      -49.6092384729       -0.3357212678  MEMB      120             0.0000000000
     15131       120  PMPE      H13X           14.4504762913      -49.3757350319       -1.3702375670  MEMB      120             0.0000000000
     15132       120  PMPE      H13Y           14.1985667514      -48.7248342157        0.3233774619  MEMB      120             0.0000000000
     15133       120  PMPE      C314           12.6586886559      -49.8658394670       -0.3223301700  MEMB      120             0.0000000000
     15134       120  PMPE      H14X           12.0387117054      -50.2702314878        0.4842873875  MEMB      120             0.0000000000
     15135       120  PMPE      H14Y           12.5470328520      -50.8201090914       -1.0054749707  MEMB      120             0.0000000000
     15136       120  PMPE      C315           12.1435420002      -48.4403898970       -0.8138562182  MEMB      120             0.0000000000
     15137       120  PMPE      H15X           11.7762159064      -47.6529370464       -0.1872663577  MEMB      120             0.0000000000
     15138       120  PMPE      H15Y           11.3656387814      -48.2555867884       -1.1104757450  MEMB      120             0.0000000000
     15139       120  PMPE      C316           12.2351005766      -47.8726235793       -2.3326464951  MEMB      120             0.0000000000
     15140       120  PMPE      H16X           11.6873859683      -47.1295838957       -3.0487260099  MEMB      120             0.0000000000
     15141       120  PMPE      H16Y           12.0135383522      -48.1879510657       -3.1094343235  MEMB      120             0.0000000000
     15142       120  PMPE      H16Z           13.1544660661      -48.3250979641       -2.4602205368  MEMB      120             0.0000000000
     15143       121  POPE      N              48.7730882889      -11.5654086742       19.7682277528  MEMB      121             0.0000000000
     15144       121  POPE      HN1            48.6180355954      -12.3857266837       19.1631486921  MEMB      121             0.0000000000
     15145       121  POPE      HN2            48.9523949334      -11.8117408572       20.7588664399  MEMB      121             0.0000000000
     15146       121  POPE      HN3            47.9387546223      -10.9281076204       19.7279653481  MEMB      121             0.0000000000
     15147       121  POPE      C12            49.9975307890      -10.8733506280       19.2443991085  MEMB      121             0.0000000000
     15148       121  POPE      H12A           50.2257804643      -11.2903872066       18.2361117264  MEMB      121             0.0000000000
     15149       121  POPE      H12B           50.8252046369      -11.1981901813       19.8970333700  MEMB      121             0.0000000000
     15150       121  POPE      C11            49.7489527380       -9.3662752919       19.2724504854  MEMB      121             0.0000000000
     15151       121  POPE      H11A           50.6399468773       -8.8282598923       18.8766033490  MEMB      121             0.0000000000
     15152       121  POPE      H11B           49.5703747381       -9.0020866757       20.3215210751  MEMB      121             0.0000000000
     15153       121  POPE      P              47.6644922003       -7.8990259960       18.8383697866  MEMB      121             0.0000000000
     15154       121  POPE      O13            48.4831579313       -6.6825567975       18.9566168163  MEMB      121             0.0000000000
     15155       121  POPE      O14            46.9494445852       -8.3933951685       20.0351595137  MEMB      121             0.0000000000
     15156       121  POPE      O11            46.8046807971       -7.8369398236       17.5152690375  MEMB      121             0.0000000000
     15157       121  POPE      O12            48.6411367285       -9.0956458287       18.4310068182  MEMB      121             0.0000000000
     15158       121  POPE      C1             46.6730909397       -8.9778568396       16.6466379798  MEMB      121             0.0000000000
     15159       121  POPE      HA             45.6123480487       -9.0574720021       16.3067176016  MEMB      121             0.0000000000
     15160       121  POPE      HB             46.8709051572       -9.9384800045       17.1780266869  MEMB      121             0.0000000000
     15161       121  POPE      C2             47.5239180960       -8.8175822050       15.3452999762  MEMB      121             0.0000000000
     15162       121  POPE      HS             48.5938109148       -9.0418591098       15.5449643019  MEMB      121             0.0000000000
     15163       121  POPE      O21            47.3615609962       -7.4918435033       14.8628033009  MEMB      121             0.0000000000
     15164       121  POPE      C21            48.4661975781       -7.0390372552       14.2370767133  MEMB      121             0.0000000000
     15165       121  POPE      O22            49.6102328275       -7.3169344184       14.4130229998  MEMB      121             0.0000000000
     15166       121  POPE      C22            48.2240902291       -5.9565646752       13.3871702621  MEMB      121             0.0000000000
     15167       121  POPE      H2R            49.0843389904       -5.2488869380       13.8429393057  MEMB      121             0.0000000000
     15168       121  POPE      H2S            47.1525020839       -5.8745907434       13.7105575412  MEMB      121             0.0000000000
     15169       121  POPE      C3             47.1396405758       -9.8483733690       14.2302692691  MEMB      121             0.0000000000
     15170       121  POPE      HX             46.1958240238       -9.5661548658       13.7272788617  MEMB      121             0.0000000000
     15171       121  POPE      HY             46.9118428609      -10.8045630603       14.7503954312  MEMB      121             0.0000000000
     15172       121  POPE      O31            48.1499540914       -9.9960617872       13.1947860239  MEMB      121             0.0000000000
     15173       121  POPE      C31            49.0274370000      -10.9879911076       13.3854597973  MEMB      121             0.0000000000
     15174       121  POPE      O32            49.0345864488      -11.7400383051       14.3447235298  MEMB      121             0.0000000000
     15175       121  POPE      C32            50.0415654698      -11.0216398048       12.2259656511  MEMB      121             0.0000000000
     15176       121  POPE      H2X            51.0424236272      -11.0607818061       12.6743356060  MEMB      121             0.0000000000
     15177       121  POPE      H2Y            49.9530512202      -10.1373643745       11.5687768188  MEMB      121             0.0000000000
     15178       121  POPE      C23            48.3257514431       -5.6645468664       11.9704735675  MEMB      121             0.0000000000
     15179       121  POPE      H3R            49.3907606666       -5.8729772057       11.8760273825  MEMB      121             0.0000000000
     15180       121  POPE      H3S            48.0556673511       -4.6315626474       11.5953736144  MEMB      121             0.0000000000
     15181       121  POPE      C24            47.4331436172       -6.6322355589       11.3513630360  MEMB      121             0.0000000000
     15182       121  POPE      H4R            46.4047949251       -6.2144937378       11.4999779894  MEMB      121             0.0000000000
     15183       121  POPE      H4S            47.6184795507       -7.5964054572       11.9006509629  MEMB      121             0.0000000000
     15184       121  POPE      C25            47.9257397295       -6.7332458056        9.9242041275  MEMB      121             0.0000000000
     15185       121  POPE      H5R            48.9111927813       -7.2495205050        9.9873241640  MEMB      121             0.0000000000
     15186       121  POPE      H5S            48.1281294032       -5.7319880490        9.4790687548  MEMB      121             0.0000000000
     15187       121  POPE      C26            47.0115839529       -7.4276477560        8.9171266112  MEMB      121             0.0000000000
     15188       121  POPE      H6R            47.4777246750       -7.2831526901        7.9139775912  MEMB      121             0.0000000000
     15189       121  POPE      H6S            45.9974427402       -6.9632707476        8.8980172485  MEMB      121             0.0000000000
     15190       121  POPE      C27            46.8893002449       -8.9483700066        9.1332703244  MEMB      121             0.0000000000
     15191       121  POPE      H7R            46.4043928464       -9.1196903506       10.1020584070  MEMB      121             0.0000000000
     15192       121  POPE      H7S            47.9170768498       -9.3386551018        9.2760608201  MEMB      121             0.0000000000
     15193       121  POPE      C28            46.1643502007       -9.6811568671        7.9746618881  MEMB      121             0.0000000000
     15194       121  POPE      H8R            46.0771444651      -10.7913780429        8.0445920631  MEMB      121             0.0000000000
     15195       121  POPE      H8S            46.9262868703       -9.5723755856        7.1778310402  MEMB      121             0.0000000000
     15196       121  POPE      C29            44.8652099199       -8.9781393971        7.6032962834  MEMB      121             0.0000000000
     15197       121  POPE      H91            43.9567493145       -9.1576438096        8.2135234963  MEMB      121             0.0000000000
     15198       121  POPE      C210           44.7429280497       -8.1406077194        6.5519617533  MEMB      121             0.0000000000
     15199       121  POPE      H101           43.7509081041       -7.7445581108        6.3209080753  MEMB      121             0.0000000000
     15200       121  POPE      C211           45.8060698094       -7.7326913449        5.5537886917  MEMB      121             0.0000000000
     15201       121  POPE      H11R           46.7351201989       -7.4789479390        6.0907804549  MEMB      121             0.0000000000
     15202       121  POPE      H11S           45.5087680393       -6.8225328666        4.9898230799  MEMB      121             0.0000000000
     15203       121  POPE      C212           46.1571748942       -8.8521944306        4.5667920034  MEMB      121             0.0000000000
     15204       121  POPE      H12R           45.2420367409       -9.1259927951        3.9880167304  MEMB      121             0.0000000000
     15205       121  POPE      H12S           46.4738811050       -9.6729273773        5.2159614405  MEMB      121             0.0000000000
     15206       121  POPE      C213           47.3940393322       -8.6031622869        3.7252654118  MEMB      121             0.0000000000
     15207       121  POPE      H13R           48.3072969322       -8.4447756134        4.3516352107  MEMB      121             0.0000000000
     15208       121  POPE      H13S           47.1682394606       -7.7551245567        3.0595720617  MEMB      121             0.0000000000
     15209       121  POPE      C214           47.7485271699       -9.7873321652        2.9142805926  MEMB      121             0.0000000000
     15210       121  POPE      H14R           46.8909828620      -10.1509039528        2.3276429069  MEMB      121             0.0000000000
     15211       121  POPE      H14S           48.0894330187      -10.6412623376        3.5553623997  MEMB      121             0.0000000000
     15212       121  POPE      C215           48.8476125422       -9.4112595257        2.0275627966  MEMB      121             0.0000000000
     15213       121  POPE      H15R           48.9367062190      -10.4827310680        1.8969432585  MEMB      121             0.0000000000
     15214       121  POPE      H15S           49.8282643721       -9.0488183626        2.4201177440  MEMB      121             0.0000000000
     15215       121  POPE      C216           48.5594730132       -8.9570786235        0.5678695915  MEMB      121             0.0000000000
     15216       121  POPE      H16R           48.6366028963       -8.0318130953        0.9486688606  MEMB      121             0.0000000000
     15217       121  POPE      H16S           47.5434217946       -9.1636890129        0.3074908519  MEMB      121             0.0000000000
     15218       121  POPE      C217           49.6038959756       -8.8136800041       -0.6901078474  MEMB      121             0.0000000000
     15219       121  POPE      H17R           50.4800346130       -8.2158247617       -0.3703214131  MEMB      121             0.0000000000
     15220       121  POPE      H17S           49.0124912456       -8.4241258509       -1.4369886266  MEMB      121             0.0000000000
     15221       121  POPE      C218           49.9885641543       -9.7576247328       -1.8329498727  MEMB      121             0.0000000000
     15222       121  POPE      H18R           50.8452319504       -9.9969153402       -2.2220493086  MEMB      121             0.0000000000
     15223       121  POPE      H18S           49.3626421133      -10.4965134597       -2.0187520669  MEMB      121             0.0000000000
     15224       121  POPE      H18T           50.7368856705      -10.5663576552       -1.5581833468  MEMB      121             0.0000000000
     15225       121  POPE      C33            50.0841021075      -12.3177663926       11.4264732125  MEMB      121             0.0000000000
     15226       121  POPE      H3X            50.2381602942      -13.1512852669       12.1316360786  MEMB      121             0.0000000000
     15227       121  POPE      H3Y            50.9341790266      -12.2477942857       10.7017469395  MEMB      121             0.0000000000
     15228       121  POPE      C34            48.8652983917      -12.6286780958       10.6429502993  MEMB      121             0.0000000000
     15229       121  POPE      H4X            48.6317939191      -11.7438636842       10.0178296827  MEMB      121             0.0000000000
     15230       121  POPE      H4Y            48.0201727991      -12.8543584020       11.3479244838  MEMB      121             0.0000000000
     15231       121  POPE      C35            49.2495084722      -13.8795135653        9.8995531349  MEMB      121             0.0000000000
     15232       121  POPE      H5X            49.0901109326      -14.7383155331       10.5953427226  MEMB      121             0.0000000000
     15233       121  POPE      H5Y            50.1464533671      -13.9971976826        9.3130371672  MEMB      121             0.0000000000
     15234       121  POPE      C36            48.4101660287      -14.1169803106        8.8245010866  MEMB      121             0.0000000000
     15235       121  POPE      H6X            47.5584884546      -13.9502270058        9.5502562708  MEMB      121             0.0000000000
     15236       121  POPE      H6Y            48.4059853609      -15.2432950709        8.5844460883  MEMB      121             0.0000000000
     15237       121  POPE      C37            48.3141518739      -13.2349568282        7.5514639372  MEMB      121             0.0000000000
     15238       121  POPE      H7X            48.8899624898      -13.7240725987        6.7662585258  MEMB      121             0.0000000000
     15239       121  POPE      H7Y            48.1804218590      -12.2117523349        7.8412666263  MEMB      121             0.0000000000
     15240       121  POPE      C38            47.1451847132      -13.1595055905        6.6538350093  MEMB      121             0.0000000000
     15241       121  POPE      H8X            46.4160864655      -12.5627568874        7.3638404072  MEMB      121             0.0000000000
     15242       121  POPE      H8Y            47.1197225612      -14.3827113148        6.5434861011  MEMB      121             0.0000000000
     15243       121  POPE      C39            46.5104925493      -12.3726610559        5.4108694803  MEMB      121             0.0000000000
     15244       121  POPE      H9X            47.3614556833      -12.6968077223        4.7628586986  MEMB      121             0.0000000000
     15245       121  POPE      H9Y            46.5242737026      -11.3932575643        5.6925439782  MEMB      121             0.0000000000
     15246       121  POPE      C310           44.8778134971      -12.5135447666        4.7708144783  MEMB      121             0.0000000000
     15247       121  POPE      H10X           44.0717089839      -12.3139069524        5.3524671253  MEMB      121             0.0000000000
     15248       121  POPE      H10Y           44.0880511187      -13.5608775090        4.8374849625  MEMB      121             0.0000000000
     15249       121  POPE      C311           44.9937528391      -12.3519921965        3.3316774993  MEMB      121             0.0000000000
     15250       121  POPE      H11X           45.8446225279      -12.8749395735        2.8811557514  MEMB      121             0.0000000000
     15251       121  POPE      H11Y           45.3285892754      -11.3496113698        3.3230925134  MEMB      121             0.0000000000
     15252       121  POPE      C312           43.6884216992      -12.6752860164        2.7083998342  MEMB      121             0.0000000000
     15253       121  POPE      H12X           42.8752843743      -12.3292651375        3.3531016885  MEMB      121             0.0000000000
     15254       121  POPE      H12Y           43.5476984888      -13.7681641792        2.7944746172  MEMB      121             0.0000000000
     15255       121  POPE      C313           43.6805027236      -12.0564063431        1.3152827999  MEMB      121             0.0000000000
     15256       121  POPE      H13X           42.7958987801      -12.4225748770        0.7212095622  MEMB      121             0.0000000000
     15257       121  POPE      H13Y           44.6497288237      -12.3954498737        0.8393182133  MEMB      121             0.0000000000
     15258       121  POPE      C314           43.7828594339      -10.5631035096        1.2688482301  MEMB      121             0.0000000000
     15259       121  POPE      H14X           44.1015848784      -10.2365210292        0.2589360176  MEMB      121             0.0000000000
     15260       121  POPE      H14Y           44.5499910836      -10.2638773171        1.9785813720  MEMB      121             0.0000000000
     15261       121  POPE      C315           42.4763980535       -9.9728291230        1.6845302707  MEMB      121             0.0000000000
     15262       121  POPE      H15X           42.0527001157      -10.6393590951        2.4757581759  MEMB      121             0.0000000000
     15263       121  POPE      H15Y           41.8845008528      -10.1467594019        0.7749919093  MEMB      121             0.0000000000
     15264       121  POPE      C316           42.3836536898       -8.5335728384        2.2033997438  MEMB      121             0.0000000000
     15265       121  POPE      H16X           42.7953649655       -7.7370335453        1.5575305053  MEMB      121             0.0000000000
     15266       121  POPE      H16Y           42.9645516394       -8.4936944648        3.1450654580  MEMB      121             0.0000000000
     15267       121  POPE      H16Z           41.3118257618       -8.2879603673        2.4061785341  MEMB      121             0.0000000000
     15268       122  PMPE      N              39.6707209257      -25.5437051781       18.2064720865  MEMB      122             0.0000000000
     15269       122  PMPE      HN1            38.9247255028      -25.9321693725       17.7168517218  MEMB      122             0.0000000000
     15270       122  PMPE      HN2            39.4384717728      -24.6510119564       18.7047769619  MEMB      122             0.0000000000
     15271       122  PMPE      HN3            40.1070524761      -24.6944535884       17.5820605513  MEMB      122             0.0000000000
     15272       122  PMPE      C12            40.8317833175      -26.2537928125       18.9747430515  MEMB      122             0.0000000000
     15273       122  PMPE      H12A           41.2572804987      -26.8539706460       18.1702470714  MEMB      122             0.0000000000
     15274       122  PMPE      H12B           40.2444433259      -26.6116200828       19.7701722910  MEMB      122             0.0000000000
     15275       122  PMPE      C11            42.1822913505      -25.5294502037       19.6492084702  MEMB      122             0.0000000000
     15276       122  PMPE      H11A           42.6989294563      -26.0703119247       20.3278490985  MEMB      122             0.0000000000
     15277       122  PMPE      H11B           41.6786537719      -24.7708333359       20.3385139350  MEMB      122             0.0000000000
     15278       122  PMPE      P              44.2239497033      -23.6838876052       19.2050096462  MEMB      122             0.0000000000
     15279       122  PMPE      O13            45.5029921300      -24.2763170364       18.8614075067  MEMB      122             0.0000000000
     15280       122  PMPE      O14            43.8947630494      -23.3971049332       20.6180057634  MEMB      122             0.0000000000
     15281       122  PMPE      O11            43.9634553139      -22.3336047285       18.3619252044  MEMB      122             0.0000000000
     15282       122  PMPE      O12            43.2713297510      -24.9277384859       18.7898768469  MEMB      122             0.0000000000
     15283       122  PMPE      C1             43.1639664178      -21.8921864261       17.2632742755  MEMB      122             0.0000000000
     15284       122  PMPE      HA             42.8194927266      -20.8763361792       17.3555611714  MEMB      122             0.0000000000
     15285       122  PMPE      HB             42.1140702563      -21.9099051222       17.3016527923  MEMB      122             0.0000000000
     15286       122  PMPE      C2             43.5590108643      -22.3995068285       15.9307290333  MEMB      122             0.0000000000
     15287       122  PMPE      HS             42.7953337813      -21.9997582121       15.1891242945  MEMB      122             0.0000000000
     15288       122  PMPE      O21            43.6679180776      -23.8095719171       15.9383147983  MEMB      122             0.0000000000
     15289       122  PMPE      C21            42.9721591622      -24.3624295495       15.1264803003  MEMB      122             0.0000000000
     15290       122  PMPE      O22            42.0864855174      -23.8778424444       14.4030639249  MEMB      122             0.0000000000
     15291       122  PMPE      C22            43.1781006648      -25.8488419124       15.4711337604  MEMB      122             0.0000000000
     15292       122  PMPE      H2R            42.2524371482      -26.1468444101       15.1835029142  MEMB      122             0.0000000000
     15293       122  PMPE      H2S            43.3546961204      -26.2415328687       16.4990068358  MEMB      122             0.0000000000
     15294       122  PMPE      C3             44.9204598458      -21.8175605831       15.7743392971  MEMB      122             0.0000000000
     15295       122  PMPE      HX             45.6166800928      -22.4272710650       16.4096524069  MEMB      122             0.0000000000
     15296       122  PMPE      HY             45.0378997686      -20.8211571466       16.2049825510  MEMB      122             0.0000000000
     15297       122  PMPE      O31            45.1834651597      -21.8256102658       14.4005584486  MEMB      122             0.0000000000
     15298       122  PMPE      C31            44.9388605049      -20.7259078708       13.7160253302  MEMB      122             0.0000000000
     15299       122  PMPE      O32            44.6015756103      -19.6756434585       14.1800146356  MEMB      122             0.0000000000
     15300       122  PMPE      C32            44.9631080673      -20.9585107120       12.2299183169  MEMB      122             0.0000000000
     15301       122  PMPE      H2X            45.6602589040      -21.6811041490       11.9496865772  MEMB      122             0.0000000000
     15302       122  PMPE      H2Y            45.1791160816      -20.0194417776       11.6930639720  MEMB      122             0.0000000000
     15303       122  PMPE      C23            43.6626693655      -26.5504042868       14.3206847482  MEMB      122             0.0000000000
     15304       122  PMPE      H3R            43.0220016240      -26.3005864077       13.4333316831  MEMB      122             0.0000000000
     15305       122  PMPE      H3S            43.5510232669      -27.6310435605       14.5624848338  MEMB      122             0.0000000000
     15306       122  PMPE      C24            45.0187303547      -26.0087877780       14.0656428184  MEMB      122             0.0000000000
     15307       122  PMPE      H4R            45.6677979990      -25.9037115994       14.9684691837  MEMB      122             0.0000000000
     15308       122  PMPE      H4S            44.9256080894      -24.9921418197       13.6000654609  MEMB      122             0.0000000000
     15309       122  PMPE      C25            45.6506740063      -26.9663350109       13.1350981778  MEMB      122             0.0000000000
     15310       122  PMPE      H5R            44.9614295997      -27.2564911854       12.3154465027  MEMB      122             0.0000000000
     15311       122  PMPE      H5S            46.0554500447      -27.8522113376       13.7012383611  MEMB      122             0.0000000000
     15312       122  PMPE      C26            46.8185709717      -26.3556956354       12.5484409673  MEMB      122             0.0000000000
     15313       122  PMPE      H6R            47.0275232124      -27.0724125208       11.7965183740  MEMB      122             0.0000000000
     15314       122  PMPE      H6S            47.5860119036      -26.3390243682       13.3623168294  MEMB      122             0.0000000000
     15315       122  PMPE      C27            46.7726103803      -25.2352674345       11.5945963837  MEMB      122             0.0000000000
     15316       122  PMPE      H7R            47.8548206612      -25.0790608046       11.5482787200  MEMB      122             0.0000000000
     15317       122  PMPE      H7S            46.0715830139      -24.4678343566       11.8822520227  MEMB      122             0.0000000000
     15318       122  PMPE      C28            46.6177009385      -25.4139548044       10.1273382608  MEMB      122             0.0000000000
     15319       122  PMPE      H8R            47.0957006926      -26.3162312808        9.8208567956  MEMB      122             0.0000000000
     15320       122  PMPE      H8S            47.0407287350      -24.5239810803        9.5968960741  MEMB      122             0.0000000000
     15321       122  PMPE      C29            45.1777382983      -25.6111541082        9.8603261023  MEMB      122             0.0000000000
     15322       122  PMPE      H9R            44.4797124564      -24.8907807799       10.2827596483  MEMB      122             0.0000000000
     15323       122  PMPE      C217           44.7177311260      -27.0199487269        9.6020868390  MEMB      122             0.0000000000
     15324       122  PMPE      H17R           43.6908767374      -27.1659317930        9.9072025531  MEMB      122             0.0000000000
     15325       122  PMPE      H17S           45.4870307374      -27.7813216082        9.5464293490  MEMB      122             0.0000000000
     15326       122  PMPE      C210           44.7756133274      -26.0326970721        8.4700491481  MEMB      122             0.0000000000
     15327       122  PMPE      H10R           43.8305845459      -25.5898407335        8.1271378229  MEMB      122             0.0000000000
     15328       122  PMPE      C211           45.8298057608      -26.2574343891        7.4485251541  MEMB      122             0.0000000000
     15329       122  PMPE      H11R           45.5743161132      -26.8040608619        6.5630439179  MEMB      122             0.0000000000
     15330       122  PMPE      H11S           46.6226232484      -26.8579827195        7.8884205185  MEMB      122             0.0000000000
     15331       122  PMPE      C212           45.9086561516      -24.8270363850        6.9904087321  MEMB      122             0.0000000000
     15332       122  PMPE      H12R           46.2195924461      -24.1285955840        7.8330713511  MEMB      122             0.0000000000
     15333       122  PMPE      H12S           45.3821682499      -24.6303867753        6.0418828025  MEMB      122             0.0000000000
     15334       122  PMPE      C213           46.9833288932      -24.0929595738        6.2288361557  MEMB      122             0.0000000000
     15335       122  PMPE      H13R           47.2424411170      -24.8321263088        6.8890242130  MEMB      122             0.0000000000
     15336       122  PMPE      H13S           47.5201580994      -23.8264540721        5.6285804174  MEMB      122             0.0000000000
     15337       122  PMPE      C214           47.1526890124      -25.9852358563        3.9249048380  MEMB      122             0.0000000000
     15338       122  PMPE      H14R           46.3153487252      -25.6954782552        3.5853589458  MEMB      122             0.0000000000
     15339       122  PMPE      H14S           46.9146947681      -26.8878625554        4.8243465465  MEMB      122             0.0000000000
     15340       122  PMPE      C215           48.6964813869      -26.3057190246        3.2831241552  MEMB      122             0.0000000000
     15341       122  PMPE      H15R           49.1464179102      -27.2344831764        3.3435532585  MEMB      122             0.0000000000
     15342       122  PMPE      H15S           49.2767900969      -26.6252340446        3.8542442499  MEMB      122             0.0000000000
     15343       122  PMPE      C216           49.3122072140      -25.8073767936        2.1696027146  MEMB      122             0.0000000000
     15344       122  PMPE      H16R           48.4460445771      -25.4182421891        1.6758273010  MEMB      122             0.0000000000
     15345       122  PMPE      H16S           49.7559586924      -25.0930954015        2.6572722730  MEMB      122             0.0000000000
     15346       122  PMPE      H16T           50.2750313992      -25.9536994584        1.8800152030  MEMB      122             0.0000000000
     15347       122  PMPE      C33            43.6948978593      -21.5710453924       11.8386423601  MEMB      122             0.0000000000
     15348       122  PMPE      H3X            43.0288808612      -20.7960830918       12.0070588097  MEMB      122             0.0000000000
     15349       122  PMPE      H3Y            43.2967857703      -22.4767201013       12.2742036707  MEMB      122             0.0000000000
     15350       122  PMPE      C34            43.6467399605      -21.8482379013       10.5138240585  MEMB      122             0.0000000000
     15351       122  PMPE      H4X            42.6655961461      -22.4598321277       10.4212024899  MEMB      122             0.0000000000
     15352       122  PMPE      H4Y            44.2831184188      -22.7139204105       10.1945535367  MEMB      122             0.0000000000
     15353       122  PMPE      C35            43.9596157197      -20.5025858705        9.6130030658  MEMB      122             0.0000000000
     15354       122  PMPE      H5X            43.3308758858      -19.7489338984        9.4500629066  MEMB      122             0.0000000000
     15355       122  PMPE      H5Y            43.0787425642      -20.7216579098        9.1343291895  MEMB      122             0.0000000000
     15356       122  PMPE      C36            45.1009841007      -20.2190351003        8.5518137452  MEMB      122             0.0000000000
     15357       122  PMPE      H6X            45.4457456266      -21.1811847518        8.6983471685  MEMB      122             0.0000000000
     15358       122  PMPE      H6Y            45.6793660855      -19.6821405107        9.1670181523  MEMB      122             0.0000000000
     15359       122  PMPE      C37            45.1906004839      -19.5630840797        6.9088109888  MEMB      122             0.0000000000
     15360       122  PMPE      H7X            46.0866013350      -19.4973424494        6.5443068889  MEMB      122             0.0000000000
     15361       122  PMPE      H7Y            45.0370394805      -18.4636768781        7.2990128033  MEMB      122             0.0000000000
     15362       122  PMPE      C38            43.9408393734      -20.2241882363        5.5151807691  MEMB      122             0.0000000000
     15363       122  PMPE      H8X            43.8148706429      -19.3643889544        4.9315283904  MEMB      122             0.0000000000
     15364       122  PMPE      H8Y            42.7842818653      -20.4881822694        5.7739725497  MEMB      122             0.0000000000
     15365       122  PMPE      C39            43.4672216912      -21.2786397808        4.9720843302  MEMB      122             0.0000000000
     15366       122  PMPE      H9X            43.7130798204      -22.0587543500        5.3988139828  MEMB      122             0.0000000000
     15367       122  PMPE      H9Y            44.2118263348      -20.9418319301        4.4237058194  MEMB      122             0.0000000000
     15368       122  PMPE      C310           42.7352159456      -21.9033832103        4.0722523653  MEMB      122             0.0000000000
     15369       122  PMPE      H10X           42.3450245774      -20.9992038359        3.7004872763  MEMB      122             0.0000000000
     15370       122  PMPE      H10Y           42.1327060702      -22.5757688985        4.7189087689  MEMB      122             0.0000000000
     15371       122  PMPE      C311           43.6350260500      -22.6924751168        3.1270635859  MEMB      122             0.0000000000
     15372       122  PMPE      H11X           44.1125069933      -23.6243163566        3.5087986879  MEMB      122             0.0000000000
     15373       122  PMPE      H11Y           44.3821638214      -21.9329229813        2.9622391042  MEMB      122             0.0000000000
     15374       122  PMPE      C312           43.2043044866      -22.8349762698        1.7402597507  MEMB      122             0.0000000000
     15375       122  PMPE      H12X           43.7394700516      -23.6043923732        1.1749144088  MEMB      122             0.0000000000
     15376       122  PMPE      H12Y           43.3846974911      -21.8482014100        1.2400922892  MEMB      122             0.0000000000
     15377       122  PMPE      C313           41.8113498916      -23.2544227538        1.8085656260  MEMB      122             0.0000000000
     15378       122  PMPE      H13X           41.4195040260      -23.1393019366        0.7456288598  MEMB      122             0.0000000000
     15379       122  PMPE      H13Y           41.2630911499      -22.6149627727        2.5691614221  MEMB      122             0.0000000000
     15380       122  PMPE      C314           41.3471502669      -24.5540014001        2.4133262228  MEMB      122             0.0000000000
     15381       122  PMPE      H14X           40.2225225597      -24.5327457757        2.4867680991  MEMB      122             0.0000000000
     15382       122  PMPE      H14Y           41.7209646552      -24.5689386681        3.4569592734  MEMB      122             0.0000000000
     15383       122  PMPE      C315           41.8399300669      -25.6931010348        1.5441278536  MEMB      122             0.0000000000
     15384       122  PMPE      H15X           41.5725594318      -26.6712501229        1.9485296074  MEMB      122             0.0000000000
     15385       122  PMPE      H15Y           42.9395294456      -25.6932176040        1.6242037045  MEMB      122             0.0000000000
     15386       122  PMPE      C316           41.4495995369      -25.5837795246        0.0601413057  MEMB      122             0.0000000000
     15387       122  PMPE      H16X           41.5126540831      -26.5721237299       -0.4344870010  MEMB      122             0.0000000000
     15388       122  PMPE      H16Y           42.1448869998      -24.8771540984       -0.4590976169  MEMB      122             0.0000000000
     15389       122  PMPE      H16Z           40.3927197111      -25.2417627218       -0.0269940373  MEMB      122             0.0000000000
     15390       123  PMPE      N             -45.7759507926       24.4853627927       17.6476965248  MEMB      123             0.0000000000
     15391       123  PMPE      HN1           -46.4057103360       23.9141433789       18.2507323082  MEMB      123             0.0000000000
     15392       123  PMPE      HN2           -46.3492876455       25.0397695066       16.9862530710  MEMB      123             0.0000000000
     15393       123  PMPE      HN3           -45.1838927436       23.8218845631       17.0985371296  MEMB      123             0.0000000000
     15394       123  PMPE      C12           -44.9689032139       25.3515545268       18.5915267478  MEMB      123             0.0000000000
     15395       123  PMPE      H12A          -45.6900172077       26.1027131825       18.9854464299  MEMB      123             0.0000000000
     15396       123  PMPE      H12B          -44.1393147521       25.8932918191       18.0907032989  MEMB      123             0.0000000000
     15397       123  PMPE      C11           -44.5254668781       24.5816352167       19.8541131717  MEMB      123             0.0000000000
     15398       123  PMPE      H11A          -45.4192169048       24.1037607504       20.3079946801  MEMB      123             0.0000000000
     15399       123  PMPE      H11B          -44.2368708968       25.3943010374       20.5569732455  MEMB      123             0.0000000000
     15400       123  PMPE      P             -43.6391677372       22.1587212536       19.2424537460  MEMB      123             0.0000000000
     15401       123  PMPE      O13           -44.9290287844       21.6929850800       19.7690586299  MEMB      123             0.0000000000
     15402       123  PMPE      O14           -42.4220502829       21.3924980546       19.5030919905  MEMB      123             0.0000000000
     15403       123  PMPE      O11           -43.7981420399       22.4263204703       17.6789496318  MEMB      123             0.0000000000
     15404       123  PMPE      O12           -43.4336708778       23.6630124517       19.7061502935  MEMB      123             0.0000000000
     15405       123  PMPE      C1            -42.7104594099       22.9893380216       16.9297033631  MEMB      123             0.0000000000
     15406       123  PMPE      HA            -41.7681364719       22.3978247057       17.0716817050  MEMB      123             0.0000000000
     15407       123  PMPE      HB            -42.4912849884       24.0053276164       17.3056972688  MEMB      123             0.0000000000
     15408       123  PMPE      C2            -43.0750991009       23.0429506308       15.4129909565  MEMB      123             0.0000000000
     15409       123  PMPE      HS            -43.8238512901       23.8240488946       15.2151537697  MEMB      123             0.0000000000
     15410       123  PMPE      O21           -43.7759464470       21.8932476794       15.1457756638  MEMB      123             0.0000000000
     15411       123  PMPE      C21           -44.7403344772       21.8862715218       14.2162352972  MEMB      123             0.0000000000
     15412       123  PMPE      O22           -44.9860187594       22.6498272648       13.3511834989  MEMB      123             0.0000000000
     15413       123  PMPE      C22           -45.7209062608       20.9027741816       14.2855477990  MEMB      123             0.0000000000
     15414       123  PMPE      H2R           -46.2133336222       20.9621676272       15.2304440445  MEMB      123             0.0000000000
     15415       123  PMPE      H2S           -45.2291559982       20.1300797857       14.4569964093  MEMB      123             0.0000000000
     15416       123  PMPE      C3            -41.8595892910       23.1127449627       14.4758976207  MEMB      123             0.0000000000
     15417       123  PMPE      HX            -41.1498548044       22.3171141717       14.7721874089  MEMB      123             0.0000000000
     15418       123  PMPE      HY            -41.3802006439       24.1050643047       14.6470298672  MEMB      123             0.0000000000
     15419       123  PMPE      O31           -42.1572456169       22.8039526986       13.1038858517  MEMB      123             0.0000000000
     15420       123  PMPE      C31           -42.5786082994       23.8332978891       12.3888773139  MEMB      123             0.0000000000
     15421       123  PMPE      O32           -42.8781561026       24.9311887930       12.8227117037  MEMB      123             0.0000000000
     15422       123  PMPE      C32           -42.4930908194       23.4190297459       10.9265607134  MEMB      123             0.0000000000
     15423       123  PMPE      H2X           -43.1261668006       22.5181326266       10.8211457982  MEMB      123             0.0000000000
     15424       123  PMPE      H2Y           -41.4443264685       23.1339703435       10.7266380699  MEMB      123             0.0000000000
     15425       123  PMPE      C23           -46.1022793527       19.9703949612       13.1113620044  MEMB      123             0.0000000000
     15426       123  PMPE      H3R           -46.9746462080       20.3481285909       12.9260323061  MEMB      123             0.0000000000
     15427       123  PMPE      H3S           -46.4638255082       18.8875188401       13.4784869282  MEMB      123             0.0000000000
     15428       123  PMPE      C24           -45.0761718077       19.7060412278       11.9422182578  MEMB      123             0.0000000000
     15429       123  PMPE      H4R           -45.1823515253       18.6184195730       11.6255730683  MEMB      123             0.0000000000
     15430       123  PMPE      H4S           -43.9948998696       19.8288752021       12.2989900804  MEMB      123             0.0000000000
     15431       123  PMPE      C25           -45.3560137650       20.3737974673       10.8204836948  MEMB      123             0.0000000000
     15432       123  PMPE      H5R           -45.3771260310       21.3837442512       11.2229584908  MEMB      123             0.0000000000
     15433       123  PMPE      H5S           -46.3201945143       19.9500349216       10.4954502579  MEMB      123             0.0000000000
     15434       123  PMPE      C26           -44.2730791053       20.1293481545        9.8619974034  MEMB      123             0.0000000000
     15435       123  PMPE      H6R           -44.3007434325       19.0485505713        9.6288442822  MEMB      123             0.0000000000
     15436       123  PMPE      H6S           -43.2752953256       20.3289929053       10.2940608632  MEMB      123             0.0000000000
     15437       123  PMPE      C27           -44.6826812004       20.9499541685        8.6809733950  MEMB      123             0.0000000000
     15438       123  PMPE      H7R           -44.6610383526       22.0303722696        8.8107240181  MEMB      123             0.0000000000
     15439       123  PMPE      H7S           -45.7569919625       20.6929689844        8.5046196016  MEMB      123             0.0000000000
     15440       123  PMPE      C28           -43.8617681737       20.7166605241        7.4621628724  MEMB      123             0.0000000000
     15441       123  PMPE      H8R           -44.4235758057       21.1192334748        6.5965879071  MEMB      123             0.0000000000
     15442       123  PMPE      H8S           -43.4841637605       19.6852517422        7.2768243704  MEMB      123             0.0000000000
     15443       123  PMPE      C29           -42.4864638748       20.9531671231        7.6622977157  MEMB      123             0.0000000000
     15444       123  PMPE      H9R           -42.0711229228       20.4999501193        8.5739309277  MEMB      123             0.0000000000
     15445       123  PMPE      C217          -42.0337497895       22.2734779067        7.2088792973  MEMB      123             0.0000000000
     15446       123  PMPE      H17R          -41.1678181253       22.6035819538        7.7510954343  MEMB      123             0.0000000000
     15447       123  PMPE      H17S          -42.8594572661       22.8655504354        6.8424103844  MEMB      123             0.0000000000
     15448       123  PMPE      C210          -41.7163484685       21.0196724054        6.3822057387  MEMB      123             0.0000000000
     15449       123  PMPE      H10R          -40.6661595175       20.7204344665        6.4667340959  MEMB      123             0.0000000000
     15450       123  PMPE      C211          -42.3582998609       20.9808628244        4.9718605686  MEMB      123             0.0000000000
     15451       123  PMPE      H11R          -41.8703887658       21.7790758470        4.3825128298  MEMB      123             0.0000000000
     15452       123  PMPE      H11S          -43.4512133770       21.1776672424        4.9280470154  MEMB      123             0.0000000000
     15453       123  PMPE      C212          -42.0672605295       19.6211940216        4.3018490937  MEMB      123             0.0000000000
     15454       123  PMPE      H12R          -42.4302235588       18.8057943086        4.9745299523  MEMB      123             0.0000000000
     15455       123  PMPE      H12S          -40.9762485464       19.5380015903        4.0739402304  MEMB      123             0.0000000000
     15456       123  PMPE      C213          -42.6565046540       19.4080811980        2.9092714504  MEMB      123             0.0000000000
     15457       123  PMPE      H13R          -42.1867616135       20.1295797957        2.2276556480  MEMB      123             0.0000000000
     15458       123  PMPE      H13S          -43.7397425129       19.6252714458        2.9062525278  MEMB      123             0.0000000000
     15459       123  PMPE      C214          -42.2971630157       18.0275714117        2.3523192118  MEMB      123             0.0000000000
     15460       123  PMPE      H14R          -42.8419882711       17.3539560266        3.0610214520  MEMB      123             0.0000000000
     15461       123  PMPE      H14S          -41.1827897936       17.8838580154        2.3843783089  MEMB      123             0.0000000000
     15462       123  PMPE      C215          -42.7669319636       17.7944989484        0.9074929209  MEMB      123             0.0000000000
     15463       123  PMPE      H15R          -43.8600171783       17.6671916821        0.9379448343  MEMB      123             0.0000000000
     15464       123  PMPE      H15S          -42.3632401744       16.8423321221        0.5128051351  MEMB      123             0.0000000000
     15465       123  PMPE      C216          -42.5079619842       18.8924744119       -0.1124070580  MEMB      123             0.0000000000
     15466       123  PMPE      H16R          -42.8215500593       18.5498564562       -1.1175778200  MEMB      123             0.0000000000
     15467       123  PMPE      H16S          -43.0223595860       19.8172723281        0.1904179725  MEMB      123             0.0000000000
     15468       123  PMPE      H16T          -41.4667824493       19.1525909789       -0.1651246085  MEMB      123             0.0000000000
     15469       123  PMPE      C33           -42.9068059087       24.4935337679        9.9136022647  MEMB      123             0.0000000000
     15470       123  PMPE      H3X           -43.9142140880       24.8798667831       10.1952340382  MEMB      123             0.0000000000
     15471       123  PMPE      H3Y           -43.0278781281       23.9940349362        8.9378334799  MEMB      123             0.0000000000
     15472       123  PMPE      C34           -41.8493034995       25.5747421249        9.7364772674  MEMB      123             0.0000000000
     15473       123  PMPE      H4X           -41.0181242065       25.4871784259       10.4513964958  MEMB      123             0.0000000000
     15474       123  PMPE      H4Y           -42.3983065737       26.4161325416       10.0550912200  MEMB      123             0.0000000000
     15475       123  PMPE      C35           -41.3029416607       25.7579535297        8.3455306578  MEMB      123             0.0000000000
     15476       123  PMPE      H5X           -40.7614319749       24.8208318910        8.1115691991  MEMB      123             0.0000000000
     15477       123  PMPE      H5Y           -40.5908602396       26.5215281904        8.4486317845  MEMB      123             0.0000000000
     15478       123  PMPE      C36           -42.2594601531       26.4810822381        7.3956401477  MEMB      123             0.0000000000
     15479       123  PMPE      H6X           -42.0207191135       27.5738078791        7.3214638599  MEMB      123             0.0000000000
     15480       123  PMPE      H6Y           -43.2610843697       26.3992583927        7.8194255326  MEMB      123             0.0000000000
     15481       123  PMPE      C37           -42.5437164366       25.8198318690        6.0763716553  MEMB      123             0.0000000000
     15482       123  PMPE      H7X           -43.1764080023       26.4070457928        5.3814650297  MEMB      123             0.0000000000
     15483       123  PMPE      H7Y           -42.7134306829       24.7615551948        6.1537021522  MEMB      123             0.0000000000
     15484       123  PMPE      C38           -41.3952508908       25.3993862229        5.4698916536  MEMB      123             0.0000000000
     15485       123  PMPE      H8X           -40.7147227531       24.8549979163        6.1273727276  MEMB      123             0.0000000000
     15486       123  PMPE      H8Y           -41.1546178158       26.5357214810        5.5482373008  MEMB      123             0.0000000000
     15487       123  PMPE      C39           -41.3704485003       24.6483483835        4.1509392430  MEMB      123             0.0000000000
     15488       123  PMPE      H9X           -41.6990786873       25.0064892203        3.1301713209  MEMB      123             0.0000000000
     15489       123  PMPE      H9Y           -41.9195394737       23.7884984886        4.2020417725  MEMB      123             0.0000000000
     15490       123  PMPE      C310          -40.2735642886       24.3344861630        3.6350886531  MEMB      123             0.0000000000
     15491       123  PMPE      H10X          -39.2453040470       24.3168844509        4.0930149195  MEMB      123             0.0000000000
     15492       123  PMPE      H10Y          -39.4723298900       25.0662568520        3.1828188933  MEMB      123             0.0000000000
     15493       123  PMPE      C311          -41.0260154984       23.1645840424        2.4277251203  MEMB      123             0.0000000000
     15494       123  PMPE      H11X          -41.7999582612       22.9300036385        2.3634093030  MEMB      123             0.0000000000
     15495       123  PMPE      H11Y          -40.3052180340       22.4648604138        2.0541793293  MEMB      123             0.0000000000
     15496       123  PMPE      C312          -41.6650383937       24.3773948034        0.6906547275  MEMB      123             0.0000000000
     15497       123  PMPE      H12X          -40.8670270594       25.4498068147        0.1912489158  MEMB      123             0.0000000000
     15498       123  PMPE      H12Y          -41.8232942790       25.3478862727        1.0331406294  MEMB      123             0.0000000000
     15499       123  PMPE      C313          -42.2931151345       24.0051560141       -0.1392347867  MEMB      123             0.0000000000
     15500       123  PMPE      H13X          -41.8654967081       23.3283410107       -0.8199742373  MEMB      123             0.0000000000
     15501       123  PMPE      H13Y          -42.2105281774       25.1975079048       -0.6043609270  MEMB      123             0.0000000000
     15502       123  PMPE      C314          -42.8892958955       22.6461030334       -0.3395208297  MEMB      123             0.0000000000
     15503       123  PMPE      H14X          -42.5418676973       21.7463359589        0.2143527220  MEMB      123             0.0000000000
     15504       123  PMPE      H14Y          -43.0597815505       22.3464175338       -1.3983317292  MEMB      123             0.0000000000
     15505       123  PMPE      C315          -44.0060172662       23.0564794468        0.2483534077  MEMB      123             0.0000000000
     15506       123  PMPE      H15X          -44.2721783028       24.0758578958       -0.2524054726  MEMB      123             0.0000000000
     15507       123  PMPE      H15Y          -43.6544523047       22.9598480599        1.3397285778  MEMB      123             0.0000000000
     15508       123  PMPE      C316          -45.2186231163       22.3456610309        0.3285233198  MEMB      123             0.0000000000
     15509       123  PMPE      H16X          -45.1116489951       21.5044631816        1.0189192711  MEMB      123             0.0000000000
     15510       123  PMPE      H16Y          -45.3799482974       22.0477538149       -0.7065126406  MEMB      123             0.0000000000
     15511       123  PMPE      H16Z          -45.9882855741       23.0306608554        0.7530589248  MEMB      123             0.0000000000
     15512       124  PMPG      C13           -47.3905627702       16.3716234829       21.3156159152  MEMB      124             0.0000000000
     15513       124  PMPG      H13A          -46.3600661575       15.9865131931       21.3944931193  MEMB      124             0.0000000000
     15514       124  PMPG      H13B          -47.3202028668       17.4285219871       20.9881537412  MEMB      124             0.0000000000
     15515       124  PMPG      OC3           -47.9477355283       16.2684423280       22.6276123315  MEMB      124             0.0000000000
     15516       124  PMPG      HO3           -48.0623036493       15.3201103333       22.7712148511  MEMB      124             0.0000000000
     15517       124  PMPG      C12           -48.2035404696       15.6285230987       20.2203473099  MEMB      124             0.0000000000
     15518       124  PMPG      H12A          -48.9269932156       16.3392984007       19.7694144311  MEMB      124             0.0000000000
     15519       124  PMPG      OC2           -48.9029537532       14.5126828047       20.7709072991  MEMB      124             0.0000000000
     15520       124  PMPG      HO2           -49.2688688483       14.0630613375       20.0059427699  MEMB      124             0.0000000000
     15521       124  PMPG      C11           -47.3202232398       15.1336758631       19.0692068454  MEMB      124             0.0000000000
     15522       124  PMPG      H11A          -47.9165487334       14.4926520840       18.3802612663  MEMB      124             0.0000000000
     15523       124  PMPG      H11B          -46.5369885734       14.5700135203       19.5350311002  MEMB      124             0.0000000000
     15524       124  PMPG      P             -45.7853232672       15.8076041328       17.2150894784  MEMB      124             0.0000000000
     15525       124  PMPG      O13           -46.4123482182       14.6958757103       16.4312558237  MEMB      124             0.0000000000
     15526       124  PMPG      O14           -44.4790009712       15.7196439530       17.8237118340  MEMB      124             0.0000000000
     15527       124  PMPG      O11           -45.4797298375       16.9717494820       16.3239404863  MEMB      124             0.0000000000
     15528       124  PMPG      O12           -46.6872214679       16.2034238636       18.3951736690  MEMB      124             0.0000000000
     15529       124  PMPG      C1            -45.2518259250       18.1165806727       17.1584235371  MEMB      124             0.0000000000
     15530       124  PMPG      HA            -44.2657410971       18.1991735505       17.6183996417  MEMB      124             0.0000000000
     15531       124  PMPG      HB            -46.1354844673       18.3402160815       17.7883334098  MEMB      124             0.0000000000
     15532       124  PMPG      C2            -45.1767970734       19.1946385945       16.3271660934  MEMB      124             0.0000000000
     15533       124  PMPG      HS            -45.2971109421       20.2570294841       16.7275837626  MEMB      124             0.0000000000
     15534       124  PMPG      O21           -46.4265134400       18.8252708272       15.5297943912  MEMB      124             0.0000000000
     15535       124  PMPG      C21           -47.6085422894       19.2781545340       15.6648258234  MEMB      124             0.0000000000
     15536       124  PMPG      O22           -47.9577846233       19.8531053625       16.6945650747  MEMB      124             0.0000000000
     15537       124  PMPG      C22           -48.4417211704       18.9436582152       14.3405375242  MEMB      124             0.0000000000
     15538       124  PMPG      H2R           -48.1951948289       19.2025026661       13.3383709205  MEMB      124             0.0000000000
     15539       124  PMPG      H2S           -49.1142617083       19.6384422871       13.9991072455  MEMB      124             0.0000000000
     15540       124  PMPG      C3            -43.6136021034       19.3638028008       15.4369059332  MEMB      124             0.0000000000
     15541       124  PMPG      HX            -42.9846027305       19.9416622507       16.0716382009  MEMB      124             0.0000000000
     15542       124  PMPG      HY            -43.4571028423       20.0194887391       14.4756231675  MEMB      124             0.0000000000
     15543       124  PMPG      O31           -42.9630801826       18.3552473151       14.7401786458  MEMB      124             0.0000000000
     15544       124  PMPG      C31           -43.7841416305       17.8828557305       13.8796410700  MEMB      124             0.0000000000
     15545       124  PMPG      O32           -44.7505929348       18.2075643592       13.6919891805  MEMB      124             0.0000000000
     15546       124  PMPG      C32           -44.1923682320       16.9044452821       12.9117091300  MEMB      124             0.0000000000
     15547       124  PMPG      H2X           -45.0352692341       16.3595328821       13.3366250934  MEMB      124             0.0000000000
     15548       124  PMPG      H2Y           -43.3711648716       16.7233337459       13.3097538529  MEMB      124             0.0000000000
     15549       124  PMPG      C23           -48.9466147931       17.5823539686       14.4788967166  MEMB      124             0.0000000000
     15550       124  PMPG      H3R           -49.9288016833       17.4637184800       13.9672166465  MEMB      124             0.0000000000
     15551       124  PMPG      H3S           -49.1090585301       17.3384773572       15.5685334434  MEMB      124             0.0000000000
     15552       124  PMPG      C24           -47.9682750023       16.6565572711       13.9370245369  MEMB      124             0.0000000000
     15553       124  PMPG      H4R           -47.0193534103       16.8026883387       14.4917326955  MEMB      124             0.0000000000
     15554       124  PMPG      H4S           -47.7451867953       16.8816439831       12.8782595620  MEMB      124             0.0000000000
     15555       124  PMPG      C25           -48.5127749862       15.2541418434       14.0031182190  MEMB      124             0.0000000000
     15556       124  PMPG      H5R           -49.5130283385       15.1899320161       13.5490892169  MEMB      124             0.0000000000
     15557       124  PMPG      H5S           -48.6552690476       14.9029205047       15.0504681125  MEMB      124             0.0000000000
     15558       124  PMPG      C26           -47.6395139108       14.3960975959       13.1172326001  MEMB      124             0.0000000000
     15559       124  PMPG      H6R           -46.6439586986       14.5795280039       13.4531020356  MEMB      124             0.0000000000
     15560       124  PMPG      H6S           -47.6190026876       14.7563131185       12.0676393324  MEMB      124             0.0000000000
     15561       124  PMPG      C27           -47.9637411626       12.9259698401       13.2146113064  MEMB      124             0.0000000000
     15562       124  PMPG      H7R           -48.9295223903       12.8395141200       12.6954990020  MEMB      124             0.0000000000
     15563       124  PMPG      H7S           -48.1653240500       12.6266718174       14.2664603634  MEMB      124             0.0000000000
     15564       124  PMPG      C28           -46.9204054457       11.9983464525       12.5922567272  MEMB      124             0.0000000000
     15565       124  PMPG      H8R           -47.4321502301       11.0780754421       12.2285501816  MEMB      124             0.0000000000
     15566       124  PMPG      H8S           -46.2854523341       11.6576276000       13.4252060796  MEMB      124             0.0000000000
     15567       124  PMPG      C29           -46.0336583582       12.7383791498       11.5546077622  MEMB      124             0.0000000000
     15568       124  PMPG      H9R           -45.1948763266       13.3181466748       11.9302696409  MEMB      124             0.0000000000
     15569       124  PMPG      C217          -45.6319987338       11.9085144112       10.3743548531  MEMB      124             0.0000000000
     15570       124  PMPG      H17R          -44.5952501208       12.0019722435       10.1174507516  MEMB      124             0.0000000000
     15571       124  PMPG      H17S          -46.1441619064       10.9839497022       10.4558614141  MEMB      124             0.0000000000
     15572       124  PMPG      C210          -46.5152387173       13.1529632522       10.1617865105  MEMB      124             0.0000000000
     15573       124  PMPG      H10R          -46.0012209070       13.9674329824        9.6290965812  MEMB      124             0.0000000000
     15574       124  PMPG      C211          -48.0109559210       12.9942238880        9.8556188333  MEMB      124             0.0000000000
     15575       124  PMPG      H11R          -48.3803342539       12.1337565672       10.4571546616  MEMB      124             0.0000000000
     15576       124  PMPG      H11S          -48.6276915354       13.8806118820        9.9854231909  MEMB      124             0.0000000000
     15577       124  PMPG      C212          -48.4301954899       12.9115015160        8.4043126392  MEMB      124             0.0000000000
     15578       124  PMPG      H12R          -49.4708024456       12.5331219504        8.3482096651  MEMB      124             0.0000000000
     15579       124  PMPG      H12S          -47.7183890766       12.2818744737        7.9011127098  MEMB      124             0.0000000000
     15580       124  PMPG      C213          -47.8749086720       13.8247688426        7.4131256936  MEMB      124             0.0000000000
     15581       124  PMPG      H13R          -46.7712028235       13.5679917113        7.2388243981  MEMB      124             0.0000000000
     15582       124  PMPG      H13S          -48.0750433293       14.7025811930        7.9169025117  MEMB      124             0.0000000000
     15583       124  PMPG      C214          -48.6470431501       13.9895600556        6.1216585262  MEMB      124             0.0000000000
     15584       124  PMPG      H14R          -49.7134239306       13.8629406848        6.0338550998  MEMB      124             0.0000000000
     15585       124  PMPG      H14S          -48.7751511449       13.0271069664        6.1480469552  MEMB      124             0.0000000000
     15586       124  PMPG      C215          -47.7901084609       14.4314599497        4.9396118605  MEMB      124             0.0000000000
     15587       124  PMPG      H15R          -46.7721565720       13.9834604266        5.0860940901  MEMB      124             0.0000000000
     15588       124  PMPG      H15S          -47.6337869207       15.4383861532        5.2128212465  MEMB      124             0.0000000000
     15589       124  PMPG      C216          -48.1748116356       14.6580850006        3.4354910710  MEMB      124             0.0000000000
     15590       124  PMPG      H16R          -49.2130280833       14.4482533402        3.1607050127  MEMB      124             0.0000000000
     15591       124  PMPG      H16S          -48.5959492870       13.9593526317        2.7542747939  MEMB      124             0.0000000000
     15592       124  PMPG      H16T          -47.2793518587       14.3579520086        2.8257401131  MEMB      124             0.0000000000
     15593       124  PMPG      C33           -44.1495980258       16.6137416377       11.4209949315  MEMB      124             0.0000000000
     15594       124  PMPG      H3X           -45.1935551314       16.7619431328       11.1661088249  MEMB      124             0.0000000000
     15595       124  PMPG      H3Y           -44.0326300587       15.5235885533       11.1999870840  MEMB      124             0.0000000000
     15596       124  PMPG      C34           -43.0917576772       17.3338420434       10.6753663072  MEMB      124             0.0000000000
     15597       124  PMPG      H4X           -42.2171491504       16.9392477071       11.0247094419  MEMB      124             0.0000000000
     15598       124  PMPG      H4Y           -43.0044390362       18.4007797031       10.8618413800  MEMB      124             0.0000000000
     15599       124  PMPG      C35           -43.0198053709       17.0775414927        9.1890224072  MEMB      124             0.0000000000
     15600       124  PMPG      H5X           -42.2547065111       16.3089111380        8.9759074875  MEMB      124             0.0000000000
     15601       124  PMPG      H5Y           -42.6557210751       18.0254940832        8.7388749330  MEMB      124             0.0000000000
     15602       124  PMPG      C36           -44.3698710634       16.5984470204        8.6694427554  MEMB      124             0.0000000000
     15603       124  PMPG      H6X           -45.1925414880       16.8852995089        9.3470789201  MEMB      124             0.0000000000
     15604       124  PMPG      H6Y           -44.3294773837       15.4931979066        8.6381582484  MEMB      124             0.0000000000
     15605       124  PMPG      C37           -44.8805643016       17.1146879873        7.3383498619  MEMB      124             0.0000000000
     15606       124  PMPG      H7X           -45.8234596652       16.5764214242        7.1408626991  MEMB      124             0.0000000000
     15607       124  PMPG      H7Y           -44.1119853985       17.0732989815        6.5317891924  MEMB      124             0.0000000000
     15608       124  PMPG      C38           -45.5360166753       18.4461168883        7.4249287981  MEMB      124             0.0000000000
     15609       124  PMPG      H8X           -44.8836495764       18.9341145927        6.8054842025  MEMB      124             0.0000000000
     15610       124  PMPG      H8Y           -45.6304224563       18.8308886362        8.4138343652  MEMB      124             0.0000000000
     15611       124  PMPG      C39           -46.5388808946       19.0631117636        6.4868073386  MEMB      124             0.0000000000
     15612       124  PMPG      H9X           -46.7437131288       20.1321073122        6.7691376373  MEMB      124             0.0000000000
     15613       124  PMPG      H9Y           -47.3685570948       18.4144493126        6.7241499192  MEMB      124             0.0000000000
     15614       124  PMPG      C310          -46.1011401137       19.0787535615        5.0200922969  MEMB      124             0.0000000000
     15615       124  PMPG      H10X          -45.0617598502       19.4994014898        4.9978291955  MEMB      124             0.0000000000
     15616       124  PMPG      H10Y          -46.7938576281       19.7797595180        4.5106157979  MEMB      124             0.0000000000
     15617       124  PMPG      C311          -46.2938624520       17.7115556247        4.3530604872  MEMB      124             0.0000000000
     15618       124  PMPG      H11X          -47.3495951014       17.4066025296        4.5430690925  MEMB      124             0.0000000000
     15619       124  PMPG      H11Y          -45.7133988877       16.9297656259        4.8734808463  MEMB      124             0.0000000000
     15620       124  PMPG      C312          -46.0150018392       17.6789141357        2.8330680033  MEMB      124             0.0000000000
     15621       124  PMPG      H12X          -45.4136024806       16.8084888750        2.5148249940  MEMB      124             0.0000000000
     15622       124  PMPG      H12Y          -45.4940692077       18.5815098863        2.4702590987  MEMB      124             0.0000000000
     15623       124  PMPG      C313          -47.2937376571       17.5694674604        2.0236174752  MEMB      124             0.0000000000
     15624       124  PMPG      H13X          -47.8702901803       18.4425621229        2.3291940813  MEMB      124             0.0000000000
     15625       124  PMPG      H13Y          -47.7720952598       16.6176982665        2.2857647566  MEMB      124             0.0000000000
     15626       124  PMPG      C314          -47.1638511489       17.6878922477        0.5312991878  MEMB      124             0.0000000000
     15627       124  PMPG      H14X          -46.6957392108       18.6605853420        0.2800605956  MEMB      124             0.0000000000
     15628       124  PMPG      H14Y          -48.1507980683       17.6804970116        0.0035374072  MEMB      124             0.0000000000
     15629       124  PMPG      C315          -46.4078269443       16.5479927617       -0.0496407801  MEMB      124             0.0000000000
     15630       124  PMPG      H15X          -46.8216440520       15.5560027506        0.0754943058  MEMB      124             0.0000000000
     15631       124  PMPG      H15Y          -45.3363396905       16.4997379963        0.2306599873  MEMB      124             0.0000000000
     15632       124  PMPG      C316          -46.6009419111       16.6779174557       -1.4403258807  MEMB      124             0.0000000000
     15633       124  PMPG      H16X          -47.5088302692       16.6690125036       -2.0300348100  MEMB      124             0.0000000000
     15634       124  PMPG      H16Y          -45.8524909218       15.9948762918       -1.9206110101  MEMB      124             0.0000000000
     15635       124  PMPG      H16Z          -46.4313365341       17.7773696045       -1.5811185514  MEMB      124             0.0000000000
     15636       125  PMPE      N             -43.0488942913      -22.9572436308       20.0563460694  MEMB      125             0.0000000000
     15637       125  PMPE      HN1           -42.3378759800      -22.7250636777       20.7851315285  MEMB      125             0.0000000000
     15638       125  PMPE      HN2           -43.8861133072      -23.4327670098       20.4601015107  MEMB      125             0.0000000000
     15639       125  PMPE      HN3           -42.6486879752      -23.5996908574       19.3575183866  MEMB      125             0.0000000000
     15640       125  PMPE      C12           -43.4612087658      -21.7650411061       19.2538718491  MEMB      125             0.0000000000
     15641       125  PMPE      H12A          -42.6346783070      -21.4895694152       18.5675177800  MEMB      125             0.0000000000
     15642       125  PMPE      H12B          -43.5875477460      -20.9523783968       19.9392876485  MEMB      125             0.0000000000
     15643       125  PMPE      C11           -44.7068811655      -22.0492887795       18.4096591573  MEMB      125             0.0000000000
     15644       125  PMPE      H11A          -44.4368966791      -22.9178878480       17.7841061009  MEMB      125             0.0000000000
     15645       125  PMPE      H11B          -44.8544872131      -21.1638424427       17.7420673414  MEMB      125             0.0000000000
     15646       125  PMPE      P             -47.2574852531      -21.6106710162       18.9359169533  MEMB      125             0.0000000000
     15647       125  PMPE      O13           -46.9922087288      -20.2122102777       19.3336197974  MEMB      125             0.0000000000
     15648       125  PMPE      O14           -48.3065612807      -22.3603922900       19.6322010938  MEMB      125             0.0000000000
     15649       125  PMPE      O11           -47.5482526848      -21.7444828521       17.4121819740  MEMB      125             0.0000000000
     15650       125  PMPE      O12           -45.8703527631      -22.4121607163       19.1496107297  MEMB      125             0.0000000000
     15651       125  PMPE      C1            -48.1312403795      -23.0252079140       17.1560128884  MEMB      125             0.0000000000
     15652       125  PMPE      HA            -49.1876115111      -23.0555439734       17.3855627908  MEMB      125             0.0000000000
     15653       125  PMPE      HB            -47.5535279592      -23.8711700738       17.5209766249  MEMB      125             0.0000000000
     15654       125  PMPE      C2            -47.9984352356      -23.2894507852       15.8049779055  MEMB      125             0.0000000000
     15655       125  PMPE      HS            -47.0652469847      -23.5036285291       15.3182710155  MEMB      125             0.0000000000
     15656       125  PMPE      O21           -48.6539969521      -21.9354439607       15.3635766642  MEMB      125             0.0000000000
     15657       125  PMPE      C21           -47.9054836031      -21.2044191053       14.4253435618  MEMB      125             0.0000000000
     15658       125  PMPE      O22           -46.7161446280      -21.1499042527       14.5569733583  MEMB      125             0.0000000000
     15659       125  PMPE      C22           -48.6725482537      -20.6566280164       13.1089869627  MEMB      125             0.0000000000
     15660       125  PMPE      H2R           -49.6186012196      -20.6019288357       13.5967192715  MEMB      125             0.0000000000
     15661       125  PMPE      H2S           -49.1156830838      -21.2179980774       12.2416125026  MEMB      125             0.0000000000
     15662       125  PMPE      C3            -48.6506742040      -24.8641862178       15.4372598116  MEMB      125             0.0000000000
     15663       125  PMPE      HX            -49.6107044397      -25.1717084201       15.5064565302  MEMB      125             0.0000000000
     15664       125  PMPE      HY            -48.3853319060      -25.5511959412       16.2042919581  MEMB      125             0.0000000000
     15665       125  PMPE      O31           -48.5952450070      -25.4866080273       14.1400546607  MEMB      125             0.0000000000
     15666       125  PMPE      C31           -47.4833724004      -25.6572119930       13.7255981016  MEMB      125             0.0000000000
     15667       125  PMPE      O32           -46.7051433296      -25.3778323001       14.5780489790  MEMB      125             0.0000000000
     15668       125  PMPE      C32           -47.2320802718      -26.4021430900       12.3939158892  MEMB      125             0.0000000000
     15669       125  PMPE      H2X           -47.9272458778      -26.5153499512       11.6372112837  MEMB      125             0.0000000000
     15670       125  PMPE      H2Y           -46.9182074364      -27.4510260181       12.4556684229  MEMB      125             0.0000000000
     15671       125  PMPE      C23           -48.0246210000      -19.6615083660       12.3113228626  MEMB      125             0.0000000000
     15672       125  PMPE      H3R           -47.3444853902      -20.1881807577       11.6612229035  MEMB      125             0.0000000000
     15673       125  PMPE      H3S           -47.4053944371      -19.2144282557       13.0344725167  MEMB      125             0.0000000000
     15674       125  PMPE      C24           -49.0133135608      -18.8598267489       11.5528223462  MEMB      125             0.0000000000
     15675       125  PMPE      H4R           -49.5644722134      -18.3121981067       12.3371819258  MEMB      125             0.0000000000
     15676       125  PMPE      H4S           -49.6450544446      -19.5174575870       10.9294539386  MEMB      125             0.0000000000
     15677       125  PMPE      C25           -48.5272387530      -17.9489189906       10.5391990573  MEMB      125             0.0000000000
     15678       125  PMPE      H5R           -47.6095469100      -17.5148772672       11.0390646086  MEMB      125             0.0000000000
     15679       125  PMPE      H5S           -49.3078580122      -17.1799868298       10.2130303207  MEMB      125             0.0000000000
     15680       125  PMPE      C26           -47.8629214124      -18.5693262922        9.4511238194  MEMB      125             0.0000000000
     15681       125  PMPE      H6R           -48.5057038840      -19.0759844414        8.7903571616  MEMB      125             0.0000000000
     15682       125  PMPE      H6S           -46.9410433323      -19.0733597239        9.8790882088  MEMB      125             0.0000000000
     15683       125  PMPE      C27           -47.8110424593      -17.6010106934        8.3869119161  MEMB      125             0.0000000000
     15684       125  PMPE      H7R           -47.1835055715      -17.4526793992        9.1692008116  MEMB      125             0.0000000000
     15685       125  PMPE      H7S           -48.0279106051      -16.5515337097        8.3850750490  MEMB      125             0.0000000000
     15686       125  PMPE      C28           -47.3056399279      -18.0116824061        7.0316171382  MEMB      125             0.0000000000
     15687       125  PMPE      H8R           -47.0634928928      -17.1015265419        6.6936235609  MEMB      125             0.0000000000
     15688       125  PMPE      H8S           -48.1541672209      -17.9839848219        6.4815838574  MEMB      125             0.0000000000
     15689       125  PMPE      C29           -46.3120908623      -19.1384852650        6.7369395935  MEMB      125             0.0000000000
     15690       125  PMPE      H9R           -46.3147156559      -19.8739875936        7.4869125933  MEMB      125             0.0000000000
     15691       125  PMPE      C217          -44.8308486806      -19.1591186524        6.7595019538  MEMB      125             0.0000000000
     15692       125  PMPE      H17R          -44.1175451340      -19.5644213070        7.3836264488  MEMB      125             0.0000000000
     15693       125  PMPE      H17S          -44.5143443096      -18.3483789418        6.9819169044  MEMB      125             0.0000000000
     15694       125  PMPE      C210          -45.5267792399      -19.3462546331        5.4734632307  MEMB      125             0.0000000000
     15695       125  PMPE      H10R          -45.4002550461      -20.3727791779        5.3753724357  MEMB      125             0.0000000000
     15696       125  PMPE      C211          -45.6742472663      -18.4407260799        4.2012358034  MEMB      125             0.0000000000
     15697       125  PMPE      H11R          -44.7208391137      -18.3137431722        3.6306954859  MEMB      125             0.0000000000
     15698       125  PMPE      H11S          -46.0669782650      -17.4648077915        4.4590828842  MEMB      125             0.0000000000
     15699       125  PMPE      C212          -46.8280323585      -18.8762518006        3.4412327480  MEMB      125             0.0000000000
     15700       125  PMPE      H12R          -47.6004114200      -18.9046006393        4.2158310096  MEMB      125             0.0000000000
     15701       125  PMPE      H12S          -46.3994477435      -19.8077998756        3.0848301167  MEMB      125             0.0000000000
     15702       125  PMPE      C213          -47.4361639425      -17.9714188912        2.4365543924  MEMB      125             0.0000000000
     15703       125  PMPE      H13R          -46.6726454446      -17.2391006075        2.5903924895  MEMB      125             0.0000000000
     15704       125  PMPE      H13S          -48.1854499992      -17.2564783881        2.7523380166  MEMB      125             0.0000000000
     15705       125  PMPE      C214          -47.6932660669      -18.6148238843        1.0345130640  MEMB      125             0.0000000000
     15706       125  PMPE      H14R          -48.7399494219      -18.7848379534        1.0516312150  MEMB      125             0.0000000000
     15707       125  PMPE      H14S          -46.9724903146      -19.4298266799        0.8998392581  MEMB      125             0.0000000000
     15708       125  PMPE      C215          -47.8020716584      -17.9194568836       -0.2996676474  MEMB      125             0.0000000000
     15709       125  PMPE      H15R          -46.7047977109      -18.0549690438       -0.3145227700  MEMB      125             0.0000000000
     15710       125  PMPE      H15S          -48.1331756119      -16.8363267152       -0.1596711013  MEMB      125             0.0000000000
     15711       125  PMPE      C216          -47.9240745443      -18.3910162476       -1.6773058833  MEMB      125             0.0000000000
     15712       125  PMPE      H16R          -48.8337056230      -18.7129770668       -1.8812130753  MEMB      125             0.0000000000
     15713       125  PMPE      H16S          -47.7124220269      -17.7922273070       -2.5415791826  MEMB      125             0.0000000000
     15714       125  PMPE      H16T          -47.2011201115      -18.9456849109       -2.0557364426  MEMB      125             0.0000000000
     15715       125  PMPE      C33           -46.4115050435      -25.5870899592       11.6208097683  MEMB      125             0.0000000000
     15716       125  PMPE      H3X           -46.2536857475      -25.9425564768       10.7331862125  MEMB      125             0.0000000000
     15717       125  PMPE      H3Y           -45.5746944899      -25.8530904319       11.9031891789  MEMB      125             0.0000000000
     15718       125  PMPE      C34           -46.5122980667      -24.2763548609       11.0997900894  MEMB      125             0.0000000000
     15719       125  PMPE      H4X           -45.5265352164      -23.9857993974       10.6646602824  MEMB      125             0.0000000000
     15720       125  PMPE      H4Y           -46.8263212958      -23.7091965302       11.9679557857  MEMB      125             0.0000000000
     15721       125  PMPE      C35           -47.4568599674      -24.3083752069        9.9485970878  MEMB      125             0.0000000000
     15722       125  PMPE      H5X           -48.1573157731      -24.9970540567       10.2300429302  MEMB      125             0.0000000000
     15723       125  PMPE      H5Y           -47.1455761652      -24.7605099871        9.0322178145  MEMB      125             0.0000000000
     15724       125  PMPE      C36           -48.1369128963      -23.0032892622        9.7974415188  MEMB      125             0.0000000000
     15725       125  PMPE      H6X           -47.4512339389      -22.2081829846        9.6644491766  MEMB      125             0.0000000000
     15726       125  PMPE      H6Y           -48.2759016308      -22.6735688949       10.8193575784  MEMB      125             0.0000000000
     15727       125  PMPE      C37           -49.4629457854      -22.9561872992        9.0206653186  MEMB      125             0.0000000000
     15728       125  PMPE      H7X           -50.0720649825      -22.0348604604        9.2541090409  MEMB      125             0.0000000000
     15729       125  PMPE      H7Y           -50.0918746600      -23.7647567249        9.3535721939  MEMB      125             0.0000000000
     15730       125  PMPE      C38           -49.2453661032      -23.1248164876        7.5985722296  MEMB      125             0.0000000000
     15731       125  PMPE      H8X           -50.2556177871      -23.3725897123        7.1592869425  MEMB      125             0.0000000000
     15732       125  PMPE      H8Y           -48.6325531332      -23.9912044428        7.3411488765  MEMB      125             0.0000000000
     15733       125  PMPE      C39           -48.5538263148      -21.7764540224        7.2526977362  MEMB      125             0.0000000000
     15734       125  PMPE      H9X           -47.6205644819      -21.5846230928        7.6896291805  MEMB      125             0.0000000000
     15735       125  PMPE      H9Y           -49.2476602174      -20.8969370242        7.4324437213  MEMB      125             0.0000000000
     15736       125  PMPE      C310          -47.9716187297      -21.6408883561        5.8778128680  MEMB      125             0.0000000000
     15737       125  PMPE      H10X          -48.0881702009      -20.7182121925        5.2741936903  MEMB      125             0.0000000000
     15738       125  PMPE      H10Y          -48.8767358696      -21.7612725650        5.5645995801  MEMB      125             0.0000000000
     15739       125  PMPE      C311          -47.1326683102      -22.9065858684        5.2458433317  MEMB      125             0.0000000000
     15740       125  PMPE      H11X          -47.7930154179      -23.7517365893        5.5575686153  MEMB      125             0.0000000000
     15741       125  PMPE      H11Y          -46.4105526579      -22.3543853883        5.6650724656  MEMB      125             0.0000000000
     15742       125  PMPE      C312          -46.8930771466      -23.0178993383        3.6398732891  MEMB      125             0.0000000000
     15743       125  PMPE      H12X          -46.2043375963      -23.6699020465        3.2181491850  MEMB      125             0.0000000000
     15744       125  PMPE      H12Y          -46.8321133573      -21.9540870672        3.2664003368  MEMB      125             0.0000000000
     15745       125  PMPE      C313          -47.9677302474      -23.6482913919        2.7431650070  MEMB      125             0.0000000000
     15746       125  PMPE      H13X          -48.8820490277      -21.6865758854        3.3109266869  MEMB      125             0.0000000000
     15747       125  PMPE      H13Y          -48.7647794281      -24.5259622992        2.7999848615  MEMB      125             0.0000000000
     15748       125  PMPE      C314          -47.9072854967      -23.6126986415        0.7157828984  MEMB      125             0.0000000000
     15749       125  PMPE      H14X          -48.9259266177      -23.9340085118        0.2517079295  MEMB      125             0.0000000000
     15750       125  PMPE      H14Y          -47.1289777337      -24.2067200351        0.8274128186  MEMB      125             0.0000000000
     15751       125  PMPE      C315          -47.6659312322      -22.0974512190        0.0035869024  MEMB      125             0.0000000000
     15752       125  PMPE      H15X          -47.1724971033      -21.3460256653        0.7548053943  MEMB      125             0.0000000000
     15753       125  PMPE      H15Y          -48.5551806163      -21.5203085263       -0.3880857410  MEMB      125             0.0000000000
     15754       125  PMPE      C316          -47.1657924678      -22.0411920458       -1.2030523926  MEMB      125             0.0000000000
     15755       125  PMPE      H16X          -47.3648589462      -21.0276997987       -1.6293611755  MEMB      125             0.0000000000
     15756       125  PMPE      H16Y          -47.5978859112      -22.8069127266       -1.7940483980  MEMB      125             0.0000000000
     15757       125  PMPE      H16Z          -46.1529068281      -22.2524537070       -0.8552422696  MEMB      125             0.0000000000
     15758       126  QMPE      N             -17.9321662095      -46.3482972232       20.5868089950  MEMB      126             0.0000000000
     15759       126  QMPE      HN1           -17.8353421207      -45.4281587568       21.0481803249  MEMB      126             0.0000000000
     15760       126  QMPE      HN2           -17.1882522117      -46.8984740530       21.0677529191  MEMB      126             0.0000000000
     15761       126  QMPE      HN3           -17.7647832619      -46.2525555200       19.5607916843  MEMB      126             0.0000000000
     15762       126  QMPE      C12           -19.3117035627      -46.9751592708       20.7686120878  MEMB      126             0.0000000000
     15763       126  QMPE      H12A          -19.7484956082      -46.5240743993       21.6733747746  MEMB      126             0.0000000000
     15764       126  QMPE      H12B          -19.1246273514      -48.0672138419       20.9127756457  MEMB      126             0.0000000000
     15765       126  QMPE      C11           -20.3249544453      -46.7673303588       19.6031286598  MEMB      126             0.0000000000
     15766       126  QMPE      H11A          -21.2126344715      -47.4289164037       19.7719092050  MEMB      126             0.0000000000
     15767       126  QMPE      H11B          -19.7547707432      -47.0819362283       18.7017081333  MEMB      126             0.0000000000
     15768       126  QMPE      P             -21.7242067405      -45.0319579940       18.1995228770  MEMB      126             0.0000000000
     15769       126  QMPE      O13           -20.9404817807      -44.2053174051       17.2654868838  MEMB      126             0.0000000000
     15770       126  QMPE      O14           -23.0344619277      -44.5686656965       18.6691543183  MEMB      126             0.0000000000
     15771       126  QMPE      O11           -21.9278114531      -46.4522681520       17.5784540559  MEMB      126             0.0000000000
     15772       126  QMPE      O12           -20.8075169419      -45.4328355499       19.4586361875  MEMB      126             0.0000000000
     15773       126  QMPE      C1            -23.1434681081      -46.5668087053       16.8875790866  MEMB      126             0.0000000000
     15774       126  QMPE      HA            -23.2609811037      -45.9497717954       15.9905153456  MEMB      126             0.0000000000
     15775       126  QMPE      HB            -24.0911075737      -46.7915392377       17.4457442553  MEMB      126             0.0000000000
     15776       126  QMPE      C2            -23.0971224950      -47.6853213077       16.2397474334  MEMB      126             0.0000000000
     15777       126  QMPE      HS            -23.3641376933      -48.5152427348       17.0974901702  MEMB      126             0.0000000000
     15778       126  QMPE      O21           -21.8366499647      -47.8704722944       15.3696859215  MEMB      126             0.0000000000
     15779       126  QMPE      C21           -20.6887914250      -48.4647508199       15.9266167278  MEMB      126             0.0000000000
     15780       126  QMPE      O22           -20.5758918559      -48.8859850076       17.0562848763  MEMB      126             0.0000000000
     15781       126  QMPE      C22           -19.5964548529      -48.6917871737       14.8876672588  MEMB      126             0.0000000000
     15782       126  QMPE      H2R           -20.0522150864      -48.7271533680       13.8788212280  MEMB      126             0.0000000000
     15783       126  QMPE      H2S           -19.0235842763      -49.6348462659       15.0989129813  MEMB      126             0.0000000000
     15784       126  QMPE      C3            -24.3943682809      -47.6639514197       15.4257909432  MEMB      126             0.0000000000
     15785       126  QMPE      HX            -25.3144459711      -47.9925529918       15.9385307003  MEMB      126             0.0000000000
     15786       126  QMPE      HY            -23.9811154962      -48.3915228732       14.9593218899  MEMB      126             0.0000000000
     15787       126  QMPE      O31           -24.5445005757      -46.9384766155       14.2605436626  MEMB      126             0.0000000000
     15788       126  QMPE      C31           -23.8249947378      -47.1709943058       13.1363578323  MEMB      126             0.0000000000
     15789       126  QMPE      O32           -23.1098311270      -48.0989877202       12.8465568385  MEMB      126             0.0000000000
     15790       126  QMPE      C32           -24.0724017009      -45.9748344702       12.3347650540  MEMB      126             0.0000000000
     15791       126  QMPE      H2X           -25.0878535598      -45.7913887986       12.5181191404  MEMB      126             0.0000000000
     15792       126  QMPE      H2Y           -23.6830885004      -45.1472041286       12.9138828376  MEMB      126             0.0000000000
     15793       126  QMPE      C23           -18.6512612771      -47.5073013409       15.0272916241  MEMB      126             0.0000000000
     15794       126  QMPE      H3R           -17.7406956908      -47.9098357339       15.5390382340  MEMB      126             0.0000000000
     15795       126  QMPE      H3S           -19.0737224994      -46.7165929345       15.6975999886  MEMB      126             0.0000000000
     15796       126  QMPE      C24           -18.2739405308      -46.8705834598       13.6759907043  MEMB      126             0.0000000000
     15797       126  QMPE      H4R           -18.0024181087      -47.6762630007       12.9558171625  MEMB      126             0.0000000000
     15798       126  QMPE      H4S           -17.3632280370      -46.2817320044       13.9098797196  MEMB      126             0.0000000000
     15799       126  QMPE      C25           -19.3758775567      -46.0377238522       12.9747057542  MEMB      126             0.0000000000
     15800       126  QMPE      H5R           -19.8764792140      -45.3281483945       13.6699954580  MEMB      126             0.0000000000
     15801       126  QMPE      H5S           -20.1599361730      -46.7750006457       12.6981856152  MEMB      126             0.0000000000
     15802       126  QMPE      C26           -18.9367504866      -45.2442718447       11.7106643442  MEMB      126             0.0000000000
     15803       126  QMPE      H6R           -18.2100166898      -44.4681128361       12.0310498843  MEMB      126             0.0000000000
     15804       126  QMPE      H6S           -19.8369261727      -44.6811269346       11.3654102528  MEMB      126             0.0000000000
     15805       126  QMPE      C27           -18.3454450630      -46.1084406411       10.5597878280  MEMB      126             0.0000000000
     15806       126  QMPE      H7R           -19.0797974791      -46.9020581251       10.3161011729  MEMB      126             0.0000000000
     15807       126  QMPE      H7S           -17.4531230472      -46.6788299785       10.8823390141  MEMB      126             0.0000000000
     15808       126  QMPE      C28           -17.9329255647      -45.3443387248        9.2837435363  MEMB      126             0.0000000000
     15809       126  QMPE      H8R           -17.3653882483      -44.4384125444        9.5291339358  MEMB      126             0.0000000000
     15810       126  QMPE      H8S           -18.8334998543      -44.9825896625        8.7630045706  MEMB      126             0.0000000000
     15811       126  QMPE      C29           -16.9165862012      -46.1089660323        8.4351767605  MEMB      126             0.0000000000
     15812       126  QMPE      H9R           -15.8607820547      -46.0263878552        8.7635884990  MEMB      126             0.0000000000
     15813       126  QMPE      C217          -17.0603694754      -45.9284021433        6.9148871362  MEMB      126             0.0000000000
     15814       126  QMPE      H17R          -17.9865749352      -45.5053094143        6.5509753780  MEMB      126             0.0000000000
     15815       126  QMPE      H17S          -16.0815846831      -45.8436567500        6.4633827145  MEMB      126             0.0000000000
     15816       126  QMPE      C210          -17.2209772118      -47.2671351836        7.5755629239  MEMB      126             0.0000000000
     15817       126  QMPE      H10R          -16.4141661154      -47.9785751202        7.3271653037  MEMB      126             0.0000000000
     15818       126  QMPE      C211          -18.6104161753      -47.7951729674        7.6700177979  MEMB      126             0.0000000000
     15819       126  QMPE      H11R          -18.6606658584      -48.4520578594        8.5823478056  MEMB      126             0.0000000000
     15820       126  QMPE      H11S          -19.3770763835      -47.0285258749        7.6144417990  MEMB      126             0.0000000000
     15821       126  QMPE      C212          -18.8443381327      -48.6733286701        6.5031490827  MEMB      126             0.0000000000
     15822       126  QMPE      H12R          -19.6466149721      -49.2792226511        6.7585164389  MEMB      126             0.0000000000
     15823       126  QMPE      H12S          -17.9819812397      -49.1539173212        6.7859358776  MEMB      126             0.0000000000
     15824       126  QMPE      C213          -18.9388535647      -48.1031389466        5.1299328020  MEMB      126             0.0000000000
     15825       126  QMPE      H13R          -18.0134616538      -47.5769811224        4.9490328403  MEMB      126             0.0000000000
     15826       126  QMPE      H13S          -19.7516525603      -47.3891268473        5.1138833518  MEMB      126             0.0000000000
     15827       126  QMPE      C214          -19.0596867400      -48.9771048383        3.9201647220  MEMB      126             0.0000000000
     15828       126  QMPE      H14R          -18.9054566529      -49.9870869273        4.0492710008  MEMB      126             0.0000000000
     15829       126  QMPE      H14S          -18.2770006123      -48.7425952506        3.1891268464  MEMB      126             0.0000000000
     15830       126  QMPE      C215          -20.3447928694      -49.3374604195        3.4396307247  MEMB      126             0.0000000000
     15831       126  QMPE      H15R          -20.5654149853      -48.2215354666        3.3040988906  MEMB      126             0.0000000000
     15832       126  QMPE      H15S          -21.1716967709      -49.7027390269        4.0473984220  MEMB      126             0.0000000000
     15833       126  QMPE      C216          -20.2433999426      -50.4710980910        2.2513435529  MEMB      126             0.0000000000
     15834       126  QMPE      H16R          -19.4900277048      -50.1751568751        1.4913441258  MEMB      126             0.0000000000
     15835       126  QMPE      H16S          -21.1817096045      -50.5766516385        1.5994831101  MEMB      126             0.0000000000
     15836       126  QMPE      H16T          -20.3658500032      -51.4649319382        2.5187751412  MEMB      126             0.0000000000
     15837       126  QMPE      C33           -23.7428376848      -46.0597669724       10.8310041312  MEMB      126             0.0000000000
     15838       126  QMPE      H3X           -24.3031960643      -45.2740693760       10.2533100875  MEMB      126             0.0000000000
     15839       126  QMPE      H3Y           -24.1106709552      -47.0583645812       10.4846898211  MEMB      126             0.0000000000
     15840       126  QMPE      C34           -22.2713288063      -45.7824932696       10.5963334254  MEMB      126             0.0000000000
     15841       126  QMPE      H4X           -21.7046921888      -46.7377914272       10.5711988344  MEMB      126             0.0000000000
     15842       126  QMPE      H4Y           -21.9252418851      -45.0860775699       11.4020321921  MEMB      126             0.0000000000
     15843       126  QMPE      C35           -21.8976528653      -45.0703538355        9.3036656948  MEMB      126             0.0000000000
     15844       126  QMPE      H5X           -20.8066007269      -44.8564231478        9.3790874102  MEMB      126             0.0000000000
     15845       126  QMPE      H5Y           -22.3730187861      -44.0694796958        9.3084129783  MEMB      126             0.0000000000
     15846       126  QMPE      C36           -22.3114064499      -45.8610577663        8.0457452849  MEMB      126             0.0000000000
     15847       126  QMPE      H6X           -23.4038085103      -46.0505595122        8.1054625801  MEMB      126             0.0000000000
     15848       126  QMPE      H6Y           -21.8216225161      -46.8583321583        7.9975383201  MEMB      126             0.0000000000
     15849       126  QMPE      C37           -22.1468560484      -45.0010131883        6.7855012774  MEMB      126             0.0000000000
     15850       126  QMPE      H7X           -22.9284794430      -44.2208820329        6.9362092644  MEMB      126             0.0000000000
     15851       126  QMPE      H7Y           -21.1279872958      -44.5743360354        6.8163064864  MEMB      126             0.0000000000
     15852       126  QMPE      C38           -22.3698535831      -45.7094729434        5.4482257905  MEMB      126             0.0000000000
     15853       126  QMPE      H8X           -21.7679713905      -46.6411778760        5.4326774596  MEMB      126             0.0000000000
     15854       126  QMPE      H8Y           -23.4328535067      -45.9292944451        5.4377036822  MEMB      126             0.0000000000
     15855       126  QMPE      C39           -22.0779789245      -44.9167563470        4.1972644527  MEMB      126             0.0000000000
     15856       126  QMPE      H9X           -22.2089843080      -43.8405043591        4.3464961433  MEMB      126             0.0000000000
     15857       126  QMPE      H9Y           -22.7981244663      -45.1523801724        3.3841538386  MEMB      126             0.0000000000
     15858       126  QMPE      C310          -20.6823785297      -45.1473641459        3.8202760499  MEMB      126             0.0000000000
     15859       126  QMPE      H10X          -20.7881308307      -46.2005990999        3.4571592035  MEMB      126             0.0000000000
     15860       126  QMPE      H10Y          -19.8004161358      -45.3383691433        4.4395966783  MEMB      126             0.0000000000
     15861       126  QMPE      C311          -20.2988952514      -43.9051154022        3.1389038526  MEMB      126             0.0000000000
     15862       126  QMPE      H11X          -19.5587767557      -43.2543723847        3.4651143209  MEMB      126             0.0000000000
     15863       126  QMPE      H11Y          -20.9038536377      -43.2771956441        2.4175069686  MEMB      126             0.0000000000
     15864       126  QMPE      C312          -19.5372778378      -44.6287384913        2.4783973608  MEMB      126             0.0000000000
     15865       126  QMPE      H12X          -19.5314913262      -43.9829613145        1.4926845562  MEMB      126             0.0000000000
     15866       126  QMPE      H12Y          -19.7883665162      -44.1886403056        1.4182848689  MEMB      126             0.0000000000
     15867       126  QMPE      C313          -18.2625065377      -46.0127478751        2.8602907389  MEMB      126             0.0000000000
     15868       126  QMPE      H13X          -18.6471590869      -46.8238835829        2.5788654692  MEMB      126             0.0000000000
     15869       126  QMPE      H13Y          -17.4730975054      -46.6394301045        2.0041639615  MEMB      126             0.0000000000
     15870       126  QMPE      C314          -17.0522612806      -45.8608085568        4.0513746450  MEMB      126             0.0000000000
     15871       126  QMPE      H14X          -16.2804836938      -46.2316160280        3.7904503785  MEMB      126             0.0000000000
     15872       126  QMPE      H14Y          -17.7148355988      -44.9426741792        4.2550116444  MEMB      126             0.0000000000
     15873       126  QMPE      C315          -15.1232099363      -44.9300790263        3.2575793570  MEMB      126             0.0000000000
     15874       126  QMPE      H15X          -15.5726818020      -43.7512210350        4.0095817660  MEMB      126             0.0000000000
     15875       126  QMPE      H15Y          -15.5228459718      -43.9950394256        3.6199266983  MEMB      126             0.0000000000
     15876       126  QMPE      H15Z          -14.8534855868      -45.3590539922        2.0756072492  MEMB      126             0.0000000000
     15877       127  PYPG      C13           -41.2531835001       27.5966097905       19.0209821538  MEMB      127             0.0000000000
     15878       127  PYPG      H13A          -41.0587875016       26.8161490006       19.7572104451  MEMB      127             0.0000000000
     15879       127  PYPG      H13B          -42.2271722648       28.0391554623       19.3069383902  MEMB      127             0.0000000000
     15880       127  PYPG      OC3           -41.3094419618       26.8912352064       17.7787452934  MEMB      127             0.0000000000
     15881       127  PYPG      HO3           -40.7220634144       26.1207028571       17.8529400514  MEMB      127             0.0000000000
     15882       127  PYPG      C12           -40.2406606232       28.7836094870       19.0662920503  MEMB      127             0.0000000000
     15883       127  PYPG      H12A          -39.3238452463       28.4826247984       18.5172240531  MEMB      127             0.0000000000
     15884       127  PYPG      OC2           -39.8499060022       29.0183566619       20.4211136163  MEMB      127             0.0000000000
     15885       127  PYPG      HO2           -39.3586589210       29.8543821703       20.3775897635  MEMB      127             0.0000000000
     15886       127  PYPG      C11           -40.7662048993       30.1180279953       18.4395469585  MEMB      127             0.0000000000
     15887       127  PYPG      H11A          -41.7487090975       30.3950186480       18.8987788410  MEMB      127             0.0000000000
     15888       127  PYPG      H11B          -40.9622433963       30.0266721798       17.3461772450  MEMB      127             0.0000000000
     15889       127  PYPG      P             -40.1946939576       32.5683405502       19.1465170958  MEMB      127             0.0000000000
     15890       127  PYPG      O13           -38.9966840200       33.4111020722       19.3144967481  MEMB      127             0.0000000000
     15891       127  PYPG      O14           -41.0528803603       32.3986432651       20.3251980763  MEMB      127             0.0000000000
     15892       127  PYPG      O11           -41.0068709217       33.0969436004       17.9183268696  MEMB      127             0.0000000000
     15893       127  PYPG      O12           -39.7756276526       31.1312028922       18.6312057805  MEMB      127             0.0000000000
     15894       127  PYPG      C1            -40.2728499986       33.1019481004       16.7010406601  MEMB      127             0.0000000000
     15895       127  PYPG      HA            -39.4545493057       32.3981926110       16.5464799239  MEMB      127             0.0000000000
     15896       127  PYPG      HB            -39.6999737236       34.0689067204       16.7295888907  MEMB      127             0.0000000000
     15897       127  PYPG      C2            -41.2358410714       32.7846508943       15.5262547046  MEMB      127             0.0000000000
     15898       127  PYPG      HS            -42.0196301695       33.5251482077       15.4677738565  MEMB      127             0.0000000000
     15899       127  PYPG      O21           -41.9075067512       31.5779809420       15.8192895676  MEMB      127             0.0000000000
     15900       127  PYPG      C21           -42.7762356561       31.4566996331       14.9087047657  MEMB      127             0.0000000000
     15901       127  PYPG      O22           -42.9716668833       32.3251629466       14.0796113566  MEMB      127             0.0000000000
     15902       127  PYPG      C22           -43.6717301794       30.3171652053       15.4350144076  MEMB      127             0.0000000000
     15903       127  PYPG      H2R           -44.4851981143       30.5834808492       16.2195799270  MEMB      127             0.0000000000
     15904       127  PYPG      H2S           -43.1358477567       29.4938398184       15.6694391796  MEMB      127             0.0000000000
     15905       127  PYPG      C3            -40.4594213288       32.7637160489       14.1549381358  MEMB      127             0.0000000000
     15906       127  PYPG      HX            -39.8562937563       33.6592181715       13.9863865496  MEMB      127             0.0000000000
     15907       127  PYPG      HY            -41.1514334478       32.7232068744       13.2699951344  MEMB      127             0.0000000000
     15908       127  PYPG      O31           -39.5577486314       31.7216407131       14.1753699837  MEMB      127             0.0000000000
     15909       127  PYPG      C31           -39.0303302684       31.5526923139       13.0415879282  MEMB      127             0.0000000000
     15910       127  PYPG      O32           -39.0862989999       32.2230878754       12.0451034435  MEMB      127             0.0000000000
     15911       127  PYPG      C32           -38.3566591481       30.3084107349       13.1233631485  MEMB      127             0.0000000000
     15912       127  PYPG      H2X           -37.3482811894       30.7025746143       13.1209223453  MEMB      127             0.0000000000
     15913       127  PYPG      H2Y           -38.4874856079       29.7123664070       14.0357785141  MEMB      127             0.0000000000
     15914       127  PYPG      C23           -44.3697565843       29.5509251641       14.3508996093  MEMB      127             0.0000000000
     15915       127  PYPG      H3R           -44.8694037297       30.2474717947       14.0971112781  MEMB      127             0.0000000000
     15916       127  PYPG      H3S           -45.2908199790       29.1634597120       14.7130496662  MEMB      127             0.0000000000
     15917       127  PYPG      C24           -43.8659215485       29.4440265728       12.9143405214  MEMB      127             0.0000000000
     15918       127  PYPG      H4R           -43.3223471372       28.6636110514       13.4153604692  MEMB      127             0.0000000000
     15919       127  PYPG      H4S           -43.3535615831       30.4104174946       12.6470487485  MEMB      127             0.0000000000
     15920       127  PYPG      C25           -44.8027394327       29.0788947799       11.6991200605  MEMB      127             0.0000000000
     15921       127  PYPG      H5R           -45.3808668682       29.8810027349       11.1549955485  MEMB      127             0.0000000000
     15922       127  PYPG      H5S           -45.6115613396       28.3946135276       11.9545038034  MEMB      127             0.0000000000
     15923       127  PYPG      C26           -44.0911515475       28.3737124899       10.6428619597  MEMB      127             0.0000000000
     15924       127  PYPG      H6R           -44.6557543356       28.5523848323        9.7009595164  MEMB      127             0.0000000000
     15925       127  PYPG      H6S           -44.2846946765       27.3360977382       10.9809316742  MEMB      127             0.0000000000
     15926       127  PYPG      C27           -42.6075519912       28.7248773309       10.6347144794  MEMB      127             0.0000000000
     15927       127  PYPG      H7R           -42.1078498592       28.0776242015        9.9492506362  MEMB      127             0.0000000000
     15928       127  PYPG      H7S           -42.0662449759       28.5761916419       11.5930494497  MEMB      127             0.0000000000
     15929       127  PYPG      C28           -42.2485434532       30.0206865704        9.9250413458  MEMB      127             0.0000000000
     15930       127  PYPG      H8R           -42.4907994580       30.8250614014       10.6385373192  MEMB      127             0.0000000000
     15931       127  PYPG      H8S           -42.9488969089       30.1213234173        9.0702535739  MEMB      127             0.0000000000
     15932       127  PYPG      C29           -40.7974777692       30.0559036933        9.4744339772  MEMB      127             0.0000000000
     15933       127  PYPG      H9R           -40.1382814555       29.3322523154        9.9610596920  MEMB      127             0.0000000000
     15934       127  PYPG      C210          -40.2447724968       30.7624348944        8.4826582303  MEMB      127             0.0000000000
     15935       127  PYPG      H10R          -39.1545765964       30.7311579343        8.3141523077  MEMB      127             0.0000000000
     15936       127  PYPG      C211          -40.9759180900       31.6910409157        7.5933462544  MEMB      127             0.0000000000
     15937       127  PYPG      H11R          -40.4672005639       32.6737884509        7.6150936359  MEMB      127             0.0000000000
     15938       127  PYPG      H11S          -41.9947429645       31.8523768817        8.0009078418  MEMB      127             0.0000000000
     15939       127  PYPG      C212          -40.9710705187       31.0497113603        6.2054589352  MEMB      127             0.0000000000
     15940       127  PYPG      H12R          -41.5711675972       30.1109606441        6.2044286407  MEMB      127             0.0000000000
     15941       127  PYPG      H12S          -39.9534170355       30.7940229321        5.8266950698  MEMB      127             0.0000000000
     15942       127  PYPG      C213          -41.6306710278       31.9277723880        5.1971694090  MEMB      127             0.0000000000
     15943       127  PYPG      H13R          -41.3291201994       32.9901734657        5.2756234949  MEMB      127             0.0000000000
     15944       127  PYPG      H13S          -42.7118322823       31.9301416541        5.4509781986  MEMB      127             0.0000000000
     15945       127  PYPG      C214          -41.3579054959       31.3954253199        3.8149013213  MEMB      127             0.0000000000
     15946       127  PYPG      H14R          -40.3399071110       30.9853355826        3.6368631394  MEMB      127             0.0000000000
     15947       127  PYPG      H14S          -42.1192395223       30.6732388651        3.5034710699  MEMB      127             0.0000000000
     15948       127  PYPG      C215          -41.5404558832       32.3584656904        2.7655511623  MEMB      127             0.0000000000
     15949       127  PYPG      H15R          -41.4686220620       33.3705217727        3.1877702387  MEMB      127             0.0000000000
     15950       127  PYPG      H15S          -42.0283287364       33.1165653405        2.3344514054  MEMB      127             0.0000000000
     15951       127  PYPG      C216          -41.3210430826       31.6842176644        0.6312924504  MEMB      127             0.0000000000
     15952       127  PYPG      H16R          -41.3909458902       32.7781180718        0.2465175218  MEMB      127             0.0000000000
     15953       127  PYPG      H16S          -41.9935226432       31.1434002220        0.4657997402  MEMB      127             0.0000000000
     15954       127  PYPG      H16T          -40.3516832681       31.0158990469        0.8767313005  MEMB      127             0.0000000000
     15955       127  PYPG      C33           -38.5381910341       29.4153466861       11.9854849966  MEMB      127             0.0000000000
     15956       127  PYPG      H3X           -38.6808386164       30.0087034703       11.0816492559  MEMB      127             0.0000000000
     15957       127  PYPG      H3Y           -39.4013291005       28.7734753658       12.2317763441  MEMB      127             0.0000000000
     15958       127  PYPG      C34           -37.3940906355       28.6525597420       11.5459241185  MEMB      127             0.0000000000
     15959       127  PYPG      H4X           -37.0254950496       27.9622554438       12.2893159102  MEMB      127             0.0000000000
     15960       127  PYPG      H4Y           -36.5783831569       29.0997438270       11.0741095585  MEMB      127             0.0000000000
     15961       127  PYPG      C35           -37.9093564168       28.0087573206       10.6416739383  MEMB      127             0.0000000000
     15962       127  PYPG      H5X           -38.6431561097       27.3641945784       11.2264502026  MEMB      127             0.0000000000
     15963       127  PYPG      H5Y           -37.0664303279       27.4633522944       10.4455476434  MEMB      127             0.0000000000
     15964       127  PYPG      C36           -37.7691438557       28.2455726599        9.1091789036  MEMB      127             0.0000000000
     15965       127  PYPG      H6X           -36.7263781854       28.5311692769        9.2571443710  MEMB      127             0.0000000000
     15966       127  PYPG      H6Y           -38.5076958780       28.9332936482        9.1156323706  MEMB      127             0.0000000000
     15967       127  PYPG      C37           -38.3130450116       27.4574001324        7.7756431908  MEMB      127             0.0000000000
     15968       127  PYPG      H7X           -38.0063538012       26.5464358007        7.3750881070  MEMB      127             0.0000000000
     15969       127  PYPG      H7Y           -39.2466067873       27.2872241899        7.9048649897  MEMB      127             0.0000000000
     15970       127  PYPG      C38           -37.9010408423       27.1886139752        6.2722201252  MEMB      127             0.0000000000
     15971       127  PYPG      H8X           -36.8520105372       26.8613911749        5.9940546630  MEMB      127             0.0000000000
     15972       127  PYPG      H8Y           -38.2968436477       28.1554293862        6.0873403372  MEMB      127             0.0000000000
     15973       127  PYPG      C39           -37.8714276278       25.9835535011        5.4799224085  MEMB      127             0.0000000000
     15974       127  PYPG      H9X           -37.5944126697       25.0428645760        6.0626860321  MEMB      127             0.0000000000
     15975       127  PYPG      H9Y           -37.4681752972       26.1221765236        4.5035482816  MEMB      127             0.0000000000
     15976       127  PYPG      C310          -39.0959719899       26.2544406953        5.2483322352  MEMB      127             0.0000000000
     15977       127  PYPG      H10X          -39.6326829026       26.4218631558        6.2415786520  MEMB      127             0.0000000000
     15978       127  PYPG      H10Y          -39.1695511751       25.1723156402        5.4604096863  MEMB      127             0.0000000000
     15979       127  PYPG      C311          -39.6934928310       27.0831931696        3.9442405692  MEMB      127             0.0000000000
     15980       127  PYPG      H11X          -39.1544192318       26.8251628649        3.0376040536  MEMB      127             0.0000000000
     15981       127  PYPG      H11Y          -39.3596064941       28.0546110215        4.0758692072  MEMB      127             0.0000000000
     15982       127  PYPG      C312          -41.2847892230       27.2437709985        3.5794945437  MEMB      127             0.0000000000
     15983       127  PYPG      H12X          -42.0749532277       26.5539541538        3.7451754020  MEMB      127             0.0000000000
     15984       127  PYPG      H12Y          -41.9453804562       27.6110270106        4.3728283341  MEMB      127             0.0000000000
     15985       127  PYPG      C313          -41.8622445137       27.6470148398        2.3900467519  MEMB      127             0.0000000000
     15986       127  PYPG      H13X          -41.6835617084       28.6599579623        2.7496652869  MEMB      127             0.0000000000
     15987       127  PYPG      H13Y          -41.1937579007       27.3542347810        1.6113221106  MEMB      127             0.0000000000
     15988       127  PYPG      C314          -43.3530848714       27.3233632198        2.2983046529  MEMB      127             0.0000000000
     15989       127  PYPG      H14X          -43.9579436788       27.0538277860        3.2166503890  MEMB      127             0.0000000000
     15990       127  PYPG      H14Y          -43.6885703604       28.2445556459        1.8408606652  MEMB      127             0.0000000000
     15991       127  PYPG      C315          -43.7452425319       26.3634924128        1.2980310068  MEMB      127             0.0000000000
     15992       127  PYPG      H15X          -44.8136790652       26.4898147757        1.1044335637  MEMB      127             0.0000000000
     15993       127  PYPG      H15Y          -43.2133215717       26.4120993028        0.3058993629  MEMB      127             0.0000000000
     15994       127  PYPG      C316          -43.8006488984       25.0962118100        2.0296789934  MEMB      127             0.0000000000
     15995       127  PYPG      H16X          -44.5441702431       24.6907727576        1.4208443434  MEMB      127             0.0000000000
     15996       127  PYPG      H16Y          -44.0292468400       24.7984788616        2.9724192936  MEMB      127             0.0000000000
     15997       127  PYPG      H16Z          -42.9909520123       24.4030941050        2.1260875364  MEMB      127             0.0000000000
     15998       128  PYPG      C13            48.4905406194       12.3003394437       20.1137674318  MEMB      128             0.0000000000
     15999       128  PYPG      H13A           49.4154611982       12.0867404616       19.5571128902  MEMB      128             0.0000000000
     16000       128  PYPG      H13B           48.7310439625       13.1041146290       20.8348556683  MEMB      128             0.0000000000
     16001       128  PYPG      OC3            48.2021525132       11.1154938099       20.8483198227  MEMB      128             0.0000000000
     16002       128  PYPG      HO3            47.7974285501       10.5205022448       20.2064294824  MEMB      128             0.0000000000
     16003       128  PYPG      C12            47.3494080213       12.7887933704       19.1634684387  MEMB      128             0.0000000000
     16004       128  PYPG      H12A           46.5314658619       13.1985390688       19.7986037937  MEMB      128             0.0000000000
     16005       128  PYPG      OC2            46.8360146162       11.7119463082       18.3827075311  MEMB      128             0.0000000000
     16006       128  PYPG      HO2            46.2434902196       12.1326674418       17.7629342405  MEMB      128             0.0000000000
     16007       128  PYPG      C11            47.8334498738       13.9162206099       18.2150915851  MEMB      128             0.0000000000
     16008       128  PYPG      H11A           46.9937401518       14.4087637599       17.6759371285  MEMB      128             0.0000000000
     16009       128  PYPG      H11B           48.4738567465       13.4422328623       17.4334322446  MEMB      128             0.0000000000
     16010       128  PYPG      P              50.0287322659       15.2948276513       18.7176154233  MEMB      128             0.0000000000
     16011       128  PYPG      O13            50.9946727642       14.3582453537       19.3458307048  MEMB      128             0.0000000000
     16012       128  PYPG      O14            50.2511083177       16.7020278165       19.0476203732  MEMB      128             0.0000000000
     16013       128  PYPG      O11            50.1666741930       15.1466750503       17.1489377400  MEMB      128             0.0000000000
     16014       128  PYPG      O12            48.5215744074       14.9058645646       18.9801505583  MEMB      128             0.0000000000
     16015       128  PYPG      C1             51.4179462983       15.1720911235       16.4726373142  MEMB      128             0.0000000000
     16016       128  PYPG      HA             52.2369513152       15.0598692951       17.2031073859  MEMB      128             0.0000000000
     16017       128  PYPG      HB             51.5495157591       16.1442130467       15.9539297605  MEMB      128             0.0000000000
     16018       128  PYPG      C2             51.5289662104       14.0268526288       15.4269612045  MEMB      128             0.0000000000
     16019       128  PYPG      HS             52.4896302927       14.1368708590       14.8680260647  MEMB      128             0.0000000000
     16020       128  PYPG      O21            50.4350822683       13.9613472437       14.5118354233  MEMB      128             0.0000000000
     16021       128  PYPG      C21            50.1659929698       15.0065865473       13.7783360495  MEMB      128             0.0000000000
     16022       128  PYPG      O22            50.8118817849       16.0390004290       13.7254672714  MEMB      128             0.0000000000
     16023       128  PYPG      C22            48.9177436316       14.6637501602       12.9715931411  MEMB      128             0.0000000000
     16024       128  PYPG      H2R            49.1121340226       13.8997924409       12.1797860419  MEMB      128             0.0000000000
     16025       128  PYPG      H2S            48.5260165286       15.5956609917       12.5173950750  MEMB      128             0.0000000000
     16026       128  PYPG      C3             51.5382110416       12.7010655544       16.1966531773  MEMB      128             0.0000000000
     16027       128  PYPG      HX             50.6902838227       12.7717304985       16.9222185983  MEMB      128             0.0000000000
     16028       128  PYPG      HY             52.5096159979       12.5980208760       16.7136465165  MEMB      128             0.0000000000
     16029       128  PYPG      O31            51.3851234655       11.6184112003       15.3127638402  MEMB      128             0.0000000000
     16030       128  PYPG      C31            50.4646095761       10.7704640023       15.6809640074  MEMB      128             0.0000000000
     16031       128  PYPG      O32            49.8775706511       10.6392642412       16.7248809165  MEMB      128             0.0000000000
     16032       128  PYPG      C32            50.5021330752        9.7328083968       14.7805802925  MEMB      128             0.0000000000
     16033       128  PYPG      H2X            51.4338145414        9.4822258912       15.1565232144  MEMB      128             0.0000000000
     16034       128  PYPG      H2Y            49.9894596776        8.9958227580       15.1894656841  MEMB      128             0.0000000000
     16035       128  PYPG      C23            47.9047952484       14.1144322367       13.9841585641  MEMB      128             0.0000000000
     16036       128  PYPG      H3R            47.9159546675       14.7427452881       14.8929563777  MEMB      128             0.0000000000
     16037       128  PYPG      H3S            48.1880754016       13.0946114666       14.3178346469  MEMB      128             0.0000000000
     16038       128  PYPG      C24            46.5158370523       14.1143566993       13.4413816620  MEMB      128             0.0000000000
     16039       128  PYPG      H4R            46.2498291360       15.1372141502       13.1199142068  MEMB      128             0.0000000000
     16040       128  PYPG      H4S            45.7926259053       13.7913024493       14.2189647004  MEMB      128             0.0000000000
     16041       128  PYPG      C25            46.4634972342       13.1814530230       12.3126194821  MEMB      128             0.0000000000
     16042       128  PYPG      H5R            46.8783473086       12.1870760218       12.6344345255  MEMB      128             0.0000000000
     16043       128  PYPG      H5S            47.0564864601       13.4971840754       11.4315711722  MEMB      128             0.0000000000
     16044       128  PYPG      C26            45.0715292934       13.0941477115       11.9980380921  MEMB      128             0.0000000000
     16045       128  PYPG      H6R            44.6993724487       13.8556192791       11.2751706457  MEMB      128             0.0000000000
     16046       128  PYPG      H6S            44.3263853111       12.8836810300       12.7062029576  MEMB      128             0.0000000000
     16047       128  PYPG      C27            45.0906652435       11.8044429298       11.6731778140  MEMB      128             0.0000000000
     16048       128  PYPG      H7R            43.8593551435       12.2589411240       11.3377255049  MEMB      128             0.0000000000
     16049       128  PYPG      H7S            44.8780074499       10.7490757004       11.9994599931  MEMB      128             0.0000000000
     16050       128  PYPG      C28            46.2986383256       11.5136139642       10.4783559162  MEMB      128             0.0000000000
     16051       128  PYPG      H8R            46.1061871190       10.2588970070       10.4259933306  MEMB      128             0.0000000000
     16052       128  PYPG      H8S            47.1740402923       11.0200689301       10.5759859587  MEMB      128             0.0000000000
     16053       128  PYPG      C29            46.3402978922       12.5184186139        9.0812409265  MEMB      128             0.0000000000
     16054       128  PYPG      H9R            46.0831882390       13.5126886301        9.3515168928  MEMB      128             0.0000000000
     16055       128  PYPG      C210           46.3863446035       12.3167918649        7.6263913975  MEMB      128             0.0000000000
     16056       128  PYPG      H10R           46.0286332146       12.9664597532        6.7908911712  MEMB      128             0.0000000000
     16057       128  PYPG      C211           46.4398958443       11.0961598687        6.7510427628  MEMB      128             0.0000000000
     16058       128  PYPG      H11R           45.6213261813       11.2950542360        7.2937400055  MEMB      128             0.0000000000
     16059       128  PYPG      H11S           46.5712960763       10.0725157769        7.2348897658  MEMB      128             0.0000000000
     16060       128  PYPG      C212           45.6902436690       10.9905753202        5.3930865569  MEMB      128             0.0000000000
     16061       128  PYPG      H12R           44.7569932186       11.0854846940        5.6371466171  MEMB      128             0.0000000000
     16062       128  PYPG      H12S           44.9211540618       10.2704267626        4.8609983765  MEMB      128             0.0000000000
     16063       128  PYPG      C213           46.4575907970       10.5781705890        4.4083501784  MEMB      128             0.0000000000
     16064       128  PYPG      H13R           47.1363142546       11.3262943199        4.6979169469  MEMB      128             0.0000000000
     16065       128  PYPG      H13S           46.1880287890       10.9843275501        3.4919861232  MEMB      128             0.0000000000
     16066       128  PYPG      C214           46.7684114199        9.1360118182        4.3207271482  MEMB      128             0.0000000000
     16067       128  PYPG      H14R           47.2637989420        8.8507667342        5.2609044691  MEMB      128             0.0000000000
     16068       128  PYPG      H14S           45.8726405965        8.4664047363        4.1718732424  MEMB      128             0.0000000000
     16069       128  PYPG      C215           47.6988498590        9.2145311649        3.1513338881  MEMB      128             0.0000000000
     16070       128  PYPG      H15R           48.0367163065       10.2462432168        3.0412505217  MEMB      128             0.0000000000
     16071       128  PYPG      H15S           47.0450271262        9.1443744598        2.2683738424  MEMB      128             0.0000000000
     16072       128  PYPG      C216           48.8889199955        8.2757593622        3.2062687845  MEMB      128             0.0000000000
     16073       128  PYPG      H16R           49.6929966082        8.3723138151        2.4717202317  MEMB      128             0.0000000000
     16074       128  PYPG      H16S           48.6855766293        7.2888727055        2.9533116124  MEMB      128             0.0000000000
     16075       128  PYPG      H16T           49.2234806370        8.1674015674        4.2305732990  MEMB      128             0.0000000000
     16076       128  PYPG      C33            49.9685281793        9.8973382689       13.4175930241  MEMB      128             0.0000000000
     16077       128  PYPG      H3X            49.0044979358       10.3642114012       13.5709209051  MEMB      128             0.0000000000
     16078       128  PYPG      H3Y            49.7863212697        8.9038784755       12.9648158683  MEMB      128             0.0000000000
     16079       128  PYPG      C34            50.8865141710       10.6995647380       12.5756613096  MEMB      128             0.0000000000
     16080       128  PYPG      H4X            51.8797726019       10.5234331856       12.9306807627  MEMB      128             0.0000000000
     16081       128  PYPG      H4Y            50.7241818663       11.7302636227       12.8758799026  MEMB      128             0.0000000000
     16082       128  PYPG      C35            50.7065737804       10.4857979604       11.0911796454  MEMB      128             0.0000000000
     16083       128  PYPG      H5X            49.6677188169       10.4230996496       10.7719136563  MEMB      128             0.0000000000
     16084       128  PYPG      H5Y            50.9481508844        9.4881487265       10.8735626440  MEMB      128             0.0000000000
     16085       128  PYPG      C36            51.4428597179       11.5026208217       10.2425011868  MEMB      128             0.0000000000
     16086       128  PYPG      H6X            52.3563414264       11.7914234417       10.7994148687  MEMB      128             0.0000000000
     16087       128  PYPG      H6Y            50.8238796174       12.4242928489       10.2111300849  MEMB      128             0.0000000000
     16088       128  PYPG      C37            51.9263348576       10.9915579021        8.8712318284  MEMB      128             0.0000000000
     16089       128  PYPG      H7X            52.6755246681       11.7505605631        8.5551621737  MEMB      128             0.0000000000
     16090       128  PYPG      H7Y            52.4914940010       10.0479717478        8.9981487032  MEMB      128             0.0000000000
     16091       128  PYPG      C38            50.8264354192       10.6363043980        7.8513859271  MEMB      128             0.0000000000
     16092       128  PYPG      H8X            50.2135773819        9.8369727220        8.3232878260  MEMB      128             0.0000000000
     16093       128  PYPG      H8Y            51.2703622991       10.1579540517        6.9499536980  MEMB      128             0.0000000000
     16094       128  PYPG      C39            50.0844461840       11.8847879079        7.3681443152  MEMB      128             0.0000000000
     16095       128  PYPG      H9X            50.7948199493       12.7117685601        7.5783771233  MEMB      128             0.0000000000
     16096       128  PYPG      H9Y            49.2151334495       12.1209712759        8.0168827759  MEMB      128             0.0000000000
     16097       128  PYPG      C310           49.7625094255       11.8847344409        5.8576148031  MEMB      128             0.0000000000
     16098       128  PYPG      H10X           48.7599633185       11.4504670097        5.7313684242  MEMB      128             0.0000000000
     16099       128  PYPG      H10Y           50.4519378732       11.2607306532        5.2362763573  MEMB      128             0.0000000000
     16100       128  PYPG      C311           49.6353918445       13.2872980112        5.2733981686  MEMB      128             0.0000000000
     16101       128  PYPG      H11X           50.6112125088       13.8184451977        5.3055175419  MEMB      128             0.0000000000
     16102       128  PYPG      H11Y           48.9527953554       13.8855219904        5.9127566033  MEMB      128             0.0000000000
     16103       128  PYPG      C312           49.1416699574       13.2517915057        3.8324296795  MEMB      128             0.0000000000
     16104       128  PYPG      H12X           48.1801985799       12.7555863201        3.6293435193  MEMB      128             0.0000000000
     16105       128  PYPG      H12Y           48.9717864234       14.3072204015        3.5636657525  MEMB      128             0.0000000000
     16106       128  PYPG      C313           50.2114889572       12.7604500438        2.8795861951  MEMB      128             0.0000000000
     16107       128  PYPG      H13X           51.1765068990       13.2211117454        3.1094229725  MEMB      128             0.0000000000
     16108       128  PYPG      H13Y           50.2968369127       11.6514217741        2.8871258855  MEMB      128             0.0000000000
     16109       128  PYPG      C314           49.9954758330       13.3338181736        1.5382425231  MEMB      128             0.0000000000
     16110       128  PYPG      H14X           49.0460967354       13.0600640293        1.3550249969  MEMB      128             0.0000000000
     16111       128  PYPG      H14Y           50.0142953166       14.4358266946        1.3850819098  MEMB      128             0.0000000000
     16112       128  PYPG      C315           50.3888236761       12.4611952871        0.4358125830  MEMB      128             0.0000000000
     16113       128  PYPG      H15X           49.8717186324       13.0230146307       -0.4001616359  MEMB      128             0.0000000000
     16114       128  PYPG      H15Y           51.4779694896       12.6354736182        0.4519652030  MEMB      128             0.0000000000
     16115       128  PYPG      C316           50.0198951046       10.9390840933        0.3483801712  MEMB      128             0.0000000000
     16116       128  PYPG      H16X           49.2118162806       10.6643905193       -0.3473641592  MEMB      128             0.0000000000
     16117       128  PYPG      H16Y           50.1712693906       10.4184801480        1.2472181341  MEMB      128             0.0000000000
     16118       128  PYPG      H16Z           50.6718904473       10.2149097963       -0.1342415925  MEMB      128             0.0000000000
     16119       129  PMPE      N              52.2826509135       -0.9330684496       21.1642963105  MEMB      129             0.0000000000
     16120       129  PMPE      HN1            52.4232554206       -1.3197190950       20.2062865580  MEMB      129             0.0000000000
     16121       129  PMPE      HN2            52.6302096091       -1.6432855398       21.8216790792  MEMB      129             0.0000000000
     16122       129  PMPE      HN3            51.2912593930       -0.7535857104       21.4164910365  MEMB      129             0.0000000000
     16123       129  PMPE      C12            52.9080720290        0.4301097681       21.2541390765  MEMB      129             0.0000000000
     16124       129  PMPE      H12A           53.9614418633        0.3477464394       20.9199710948  MEMB      129             0.0000000000
     16125       129  PMPE      H12B           52.8367095769        0.7891886913       22.2641029638  MEMB      129             0.0000000000
     16126       129  PMPE      C11            52.1867538940        1.4143993589       20.3984934309  MEMB      129             0.0000000000
     16127       129  PMPE      H11A           52.4882044490        2.4574783724       20.6887436174  MEMB      129             0.0000000000
     16128       129  PMPE      H11B           51.0697588131        1.3979735117       20.4527482705  MEMB      129             0.0000000000
     16129       129  PMPE      P              51.7306648236        0.4921360262       18.0232805985  MEMB      129             0.0000000000
     16130       129  PMPE      O13            51.4659687547        1.6318624604       17.5019040175  MEMB      129             0.0000000000
     16131       129  PMPE      O14            50.5322990220       -0.2399141979       18.3767127804  MEMB      129             0.0000000000
     16132       129  PMPE      O11            52.5451406821       -0.1837384061       16.9487333169  MEMB      129             0.0000000000
     16133       129  PMPE      O12            52.6736604800        1.0577434709       19.1347157744  MEMB      129             0.0000000000
     16134       129  PMPE      C1             53.9190527382       -0.1832151093       16.7894617300  MEMB      129             0.0000000000
     16135       129  PMPE      HA             54.4224148557       -0.3118843189       17.7563321077  MEMB      129             0.0000000000
     16136       129  PMPE      HB             54.2264515024        0.7881496326       16.5416403881  MEMB      129             0.0000000000
     16137       129  PMPE      C2             54.3624239778       -1.2006912399       15.6804331241  MEMB      129             0.0000000000
     16138       129  PMPE      HS             55.4788005017       -1.1606005033       15.7085052487  MEMB      129             0.0000000000
     16139       129  PMPE      O21            53.8765402437       -0.9596810394       14.3404053274  MEMB      129             0.0000000000
     16140       129  PMPE      C21            54.6255467535       -1.4470251382       13.3593884888  MEMB      129             0.0000000000
     16141       129  PMPE      O22            55.5870536729       -2.1795431551       13.5023606880  MEMB      129             0.0000000000
     16142       129  PMPE      C22            54.1144127792       -1.0631624519       12.0537275031  MEMB      129             0.0000000000
     16143       129  PMPE      H2R            54.0308595652        0.0220306199       11.9359920419  MEMB      129             0.0000000000
     16144       129  PMPE      H2S            53.0855157510       -1.2700838979       11.8952780119  MEMB      129             0.0000000000
     16145       129  PMPE      C3             53.9239228909       -2.6297784927       16.0089249660  MEMB      129             0.0000000000
     16146       129  PMPE      HX             54.3934820327       -2.8743423829       16.9674927514  MEMB      129             0.0000000000
     16147       129  PMPE      HY             54.3670939287       -3.3201044747       15.2781620875  MEMB      129             0.0000000000
     16148       129  PMPE      O31            52.5241420711       -2.8243772010       16.0711342385  MEMB      129             0.0000000000
     16149       129  PMPE      C31            51.9812968492       -3.2602418542       14.9952449024  MEMB      129             0.0000000000
     16150       129  PMPE      O32            52.4263454734       -3.6769490904       13.9454483114  MEMB      129             0.0000000000
     16151       129  PMPE      C32            50.6905917640       -2.8946367616       15.2077604650  MEMB      129             0.0000000000
     16152       129  PMPE      H2X            50.5759218383       -1.8226550363       15.6448129048  MEMB      129             0.0000000000
     16153       129  PMPE      H2Y            50.1807955461       -3.5763765027       15.9119024529  MEMB      129             0.0000000000
     16154       129  PMPE      C23            55.0901696597       -1.8670991901       11.1056781434  MEMB      129             0.0000000000
     16155       129  PMPE      H3R            54.8392789294       -2.8937297103       11.0485403557  MEMB      129             0.0000000000
     16156       129  PMPE      H3S            56.1521600788       -1.4694989006       11.1618079220  MEMB      129             0.0000000000
     16157       129  PMPE      C24            54.8480871149       -2.0310750812        9.6491031628  MEMB      129             0.0000000000
     16158       129  PMPE      H4R            53.9315420857       -1.3223500686       10.0255895557  MEMB      129             0.0000000000
     16159       129  PMPE      H4S            54.0626987713       -2.0530573648        8.9189874152  MEMB      129             0.0000000000
     16160       129  PMPE      C25            56.2114413096       -1.6424781888        8.7850643137  MEMB      129             0.0000000000
     16161       129  PMPE      H5R            56.5609660676       -2.4221927927        8.2093151943  MEMB      129             0.0000000000
     16162       129  PMPE      H5S            57.0427612408       -1.3967867185        9.4000143687  MEMB      129             0.0000000000
     16163       129  PMPE      C26            56.5387049801       -0.8388206777        7.5336201475  MEMB      129             0.0000000000
     16164       129  PMPE      H6R            55.4835591537       -1.2990083105        7.1072563783  MEMB      129             0.0000000000
     16165       129  PMPE      H6S            56.4609408554       -0.7193126247        6.6098886843  MEMB      129             0.0000000000
     16166       129  PMPE      C27            56.6809903768        0.8970716607        7.6006990217  MEMB      129             0.0000000000
     16167       129  PMPE      H7R            57.6557982415        0.3176881326        6.9070212582  MEMB      129             0.0000000000
     16168       129  PMPE      H7S            55.9645237953        1.6766326534        8.1113685640  MEMB      129             0.0000000000
     16169       129  PMPE      C28            55.7689665179        2.7943001036        6.7077642051  MEMB      129             0.0000000000
     16170       129  PMPE      H8R            54.6007160461        2.7060068229        6.3228007282  MEMB      129             0.0000000000
     16171       129  PMPE      H8S            55.9531133551        2.5016110269        5.8410549865  MEMB      129             0.0000000000
     16172       129  PMPE      C29            54.8494082139        3.8952288379        7.2373675777  MEMB      129             0.0000000000
     16173       129  PMPE      H9R            55.0693538643        4.4890435486        8.1081738556  MEMB      129             0.0000000000
     16174       129  PMPE      C217           53.5510458367        3.8237747268        7.8272447646  MEMB      129             0.0000000000
     16175       129  PMPE      H17R           53.0839708706        4.3767477071        8.5388531043  MEMB      129             0.0000000000
     16176       129  PMPE      H17S           52.9262622121        3.2681336175        7.7627142766  MEMB      129             0.0000000000
     16177       129  PMPE      C210           53.6754327236        4.2773998810        6.4710551942  MEMB      129             0.0000000000
     16178       129  PMPE      H10R           54.1306175022        5.1567615316        6.5916174902  MEMB      129             0.0000000000
     16179       129  PMPE      C211           52.8055352204        3.7863331535        5.3205514668  MEMB      129             0.0000000000
     16180       129  PMPE      H11R           51.7787934610        3.6656741014        5.2972436887  MEMB      129             0.0000000000
     16181       129  PMPE      H11S           52.8686860117        2.7929934634        5.0204111778  MEMB      129             0.0000000000
     16182       129  PMPE      C212           53.2238181461        4.3342690983        4.1884682758  MEMB      129             0.0000000000
     16183       129  PMPE      H12R           53.2911800880        3.8850929476        3.2671221570  MEMB      129             0.0000000000
     16184       129  PMPE      H12S           54.2390263273        4.0522182713        4.4114742243  MEMB      129             0.0000000000
     16185       129  PMPE      C213           52.5989135799        5.5303318961        3.7182641864  MEMB      129             0.0000000000
     16186       129  PMPE      H13R           53.1040582451        6.1197200439        2.8762303248  MEMB      129             0.0000000000
     16187       129  PMPE      H13S           52.5392688123        6.0066016259        4.7059496329  MEMB      129             0.0000000000
     16188       129  PMPE      C214           51.2190986288        5.7071950819        3.5669545489  MEMB      129             0.0000000000
     16189       129  PMPE      H14R           51.0615928791        6.8100756250        3.5499198518  MEMB      129             0.0000000000
     16190       129  PMPE      H14S           50.7207004627        5.2893734696        4.4536504858  MEMB      129             0.0000000000
     16191       129  PMPE      C215           50.8769596186        5.0976798444        2.2911221834  MEMB      129             0.0000000000
     16192       129  PMPE      H15R           51.5611342042        5.3581619029        1.4308795278  MEMB      129             0.0000000000
     16193       129  PMPE      H15S           49.9030003435        5.5110023735        2.1005122577  MEMB      129             0.0000000000
     16194       129  PMPE      C216           50.6742214249        3.6433491106        2.4440170926  MEMB      129             0.0000000000
     16195       129  PMPE      H16R           50.5737090669        3.1420789305        3.3906767715  MEMB      129             0.0000000000
     16196       129  PMPE      H16S           49.9127523160        3.1920858769        1.7705550619  MEMB      129             0.0000000000
     16197       129  PMPE      H16T           51.6697035241        3.3491941500        2.1257714942  MEMB      129             0.0000000000
     16198       129  PMPE      C33            50.0471694468       -2.8722076216       13.8931589185  MEMB      129             0.0000000000
     16199       129  PMPE      H3X            48.9674903232       -2.3985970429       13.8137314934  MEMB      129             0.0000000000
     16200       129  PMPE      H3Y            50.1062054911       -3.5485107805       13.0302311517  MEMB      129             0.0000000000
     16201       129  PMPE      C34            49.7323201206       -1.5891730193       13.6089171524  MEMB      129             0.0000000000
     16202       129  PMPE      H4X            50.9864403513       -1.6548016728       13.6074301853  MEMB      129             0.0000000000
     16203       129  PMPE      H4Y            50.2255079453       -0.9526067720       13.7767264002  MEMB      129             0.0000000000
     16204       129  PMPE      C35            48.5872769844       -0.9999880809       11.3646806276  MEMB      129             0.0000000000
     16205       129  PMPE      H5X            47.8744209193       -0.8329699825       11.7778142773  MEMB      129             0.0000000000
     16206       129  PMPE      H5Y            48.9046187024       -2.1244963658       10.8152408221  MEMB      129             0.0000000000
     16207       129  PMPE      C36            49.8747810259        0.3676575603       10.2427419006  MEMB      129             0.0000000000
     16208       129  PMPE      H6X            50.9907768492        0.3377357217       10.3568338767  MEMB      129             0.0000000000
     16209       129  PMPE      H6Y            49.7330819951        1.2083835239       10.5089073781  MEMB      129             0.0000000000
     16210       129  PMPE      C37            49.7910718873        0.5646640776        8.8138915228  MEMB      129             0.0000000000
     16211       129  PMPE      H7X            48.4248338552        0.6068702252        8.3604428773  MEMB      129             0.0000000000
     16212       129  PMPE      H7Y            50.4926520492       -0.3111649988        8.5038312736  MEMB      129             0.0000000000
     16213       129  PMPE      C38            49.7635248152        1.3732100653        8.0936390509  MEMB      129             0.0000000000
     16214       129  PMPE      H8X            50.3475971993        1.4612445512        8.8533642205  MEMB      129             0.0000000000
     16215       129  PMPE      H8Y            49.0828909203        2.0211307871        8.4843857677  MEMB      129             0.0000000000
     16216       129  PMPE      C39            50.1878197476        1.0298283266        6.7028919923  MEMB      129             0.0000000000
     16217       129  PMPE      H9X            50.6125892087        2.0205245422        6.4513257134  MEMB      129             0.0000000000
     16218       129  PMPE      H9Y            49.2073091248        0.9911348440        6.3503176587  MEMB      129             0.0000000000
     16219       129  PMPE      C310           51.0993301788       -0.4315590244        6.4352863356  MEMB      129             0.0000000000
     16220       129  PMPE      H10X           51.0434336219       -1.3249049582        6.8674731480  MEMB      129             0.0000000000
     16221       129  PMPE      H10Y           51.7204561173       -0.5869818367        7.3372936188  MEMB      129             0.0000000000
     16222       129  PMPE      C311           51.6292322596       -0.7453835045        5.1968105252  MEMB      129             0.0000000000
     16223       129  PMPE      H11X           52.1025964197        0.1207353001        5.4212171574  MEMB      129             0.0000000000
     16224       129  PMPE      H11Y           50.8347987533       -0.5321573619        4.5151582333  MEMB      129             0.0000000000
     16225       129  PMPE      C312           52.7626477917       -1.7125662338        5.0959803731  MEMB      129             0.0000000000
     16226       129  PMPE      H12X           52.3259466297       -2.6701219069        4.9507701175  MEMB      129             0.0000000000
     16227       129  PMPE      H12Y           53.4433593297       -1.7646670421        5.9719613399  MEMB      129             0.0000000000
     16228       129  PMPE      C313           53.6363999882       -1.5445489533        3.9811387240  MEMB      129             0.0000000000
     16229       129  PMPE      H13X           54.4478069049       -0.8734098201        4.1754530340  MEMB      129             0.0000000000
     16230       129  PMPE      H13Y           53.1613875639       -1.3602826834        2.9766067806  MEMB      129             0.0000000000
     16231       129  PMPE      C314           54.5474576354       -2.4147995957        4.1093687341  MEMB      129             0.0000000000
     16232       129  PMPE      H14X           54.0176030719       -3.0522596350        3.2736855084  MEMB      129             0.0000000000
     16233       129  PMPE      H14Y           55.2994537114       -2.4369087528        5.0019221991  MEMB      129             0.0000000000
     16234       129  PMPE      C315           55.2287026936       -2.4033890262        3.1882847502  MEMB      129             0.0000000000
     16235       129  PMPE      H15X           54.7941248109       -2.1981906150        2.0442736928  MEMB      129             0.0000000000
     16236       129  PMPE      H15Y           55.2178169166       -3.7278545976        4.0120611124  MEMB      129             0.0000000000
     16237       129  PMPE      C316           56.1571678496       -0.6844646893        2.9227157976  MEMB      129             0.0000000000
     16238       129  PMPE      H16X           55.6965680632        0.1634276560        2.6826404637  MEMB      129             0.0000000000
     16239       129  PMPE      H16Y           57.0407904028       -0.5391772307        2.1581553407  MEMB      129             0.0000000000
     16240       129  PMPE      H16Z           56.8942177933       -0.3473388637        3.7374904390  MEMB      129             0.0000000000
     16241       130  POPE      N             -31.6440490388      -40.4900758809       18.4674834837  MEMB      130             0.0000000000
     16242       130  POPE      HN1           -31.7955895339      -41.3868129729       18.9603590217  MEMB      130             0.0000000000
     16243       130  POPE      HN2           -31.1792144567      -40.6394741069       17.5328390483  MEMB      130             0.0000000000
     16244       130  POPE      HN3           -30.9448438642      -39.9933270385       19.0730050492  MEMB      130             0.0000000000
     16245       130  POPE      C12           -32.8850161247      -39.7188241950       18.3211678371  MEMB      130             0.0000000000
     16246       130  POPE      H12A          -33.6553568585      -40.4169078148       17.9478515423  MEMB      130             0.0000000000
     16247       130  POPE      H12B          -32.7270693770      -38.8863877350       17.6233762114  MEMB      130             0.0000000000
     16248       130  POPE      C11           -33.1859272748      -39.2304030867       19.7207790544  MEMB      130             0.0000000000
     16249       130  POPE      H11A          -32.3539191824      -38.6240754131       20.1038550839  MEMB      130             0.0000000000
     16250       130  POPE      H11B          -33.2198218233      -40.1366421134       20.3670754599  MEMB      130             0.0000000000
     16251       130  POPE      P             -34.6074051215      -37.0718147414       19.1201627305  MEMB      130             0.0000000000
     16252       130  POPE      O13           -35.2067464571      -36.1143455964       20.0885558720  MEMB      130             0.0000000000
     16253       130  POPE      O14           -35.3208546787      -37.3444372359       17.8686648288  MEMB      130             0.0000000000
     16254       130  POPE      O11           -33.1433689947      -36.6146335763       18.6886528935  MEMB      130             0.0000000000
     16255       130  POPE      O12           -34.3787772454      -38.4794462490       19.8355045868  MEMB      130             0.0000000000
     16256       130  POPE      C1            -32.4871319906      -35.6557869373       19.5199216592  MEMB      130             0.0000000000
     16257       130  POPE      HA            -31.9871399635      -36.1896587252       20.3528802305  MEMB      130             0.0000000000
     16258       130  POPE      HB            -33.2196493892      -34.9042504093       19.9038607515  MEMB      130             0.0000000000
     16259       130  POPE      C2            -31.3942943508      -34.8213977031       18.7980344952  MEMB      130             0.0000000000
     16260       130  POPE      HS            -31.0339526510      -33.9708853977       19.4326574909  MEMB      130             0.0000000000
     16261       130  POPE      O21           -31.7642264159      -34.4120406143       17.4820593205  MEMB      130             0.0000000000
     16262       130  POPE      C21           -32.7078051722      -33.5934548588       17.5110681237  MEMB      130             0.0000000000
     16263       130  POPE      O22           -33.2151652364      -33.1347735341       18.5299758640  MEMB      130             0.0000000000
     16264       130  POPE      C22           -33.2046329764      -33.4317355177       16.1013977552  MEMB      130             0.0000000000
     16265       130  POPE      H2R           -32.9939277573      -34.2485796442       15.4382605512  MEMB      130             0.0000000000
     16266       130  POPE      H2S           -32.4951569503      -32.6736807242       15.7574825519  MEMB      130             0.0000000000
     16267       130  POPE      C3            -30.1593254591      -35.6187494248       18.6053846858  MEMB      130             0.0000000000
     16268       130  POPE      HX            -29.6236255316      -35.9645127424       19.4728669908  MEMB      130             0.0000000000
     16269       130  POPE      HY            -29.5226019007      -35.0655092731       18.1746813036  MEMB      130             0.0000000000
     16270       130  POPE      O31           -30.2785663519      -36.5778878970       17.6469561070  MEMB      130             0.0000000000
     16271       130  POPE      C31           -30.4731839006      -36.3552068318       16.2973060122  MEMB      130             0.0000000000
     16272       130  POPE      O32           -30.0461860194      -35.4235647676       15.6790951635  MEMB      130             0.0000000000
     16273       130  POPE      C32           -31.1178954296      -37.6234664742       15.6060127904  MEMB      130             0.0000000000
     16274       130  POPE      H2X           -31.5672454260      -38.4037247890       16.3063852187  MEMB      130             0.0000000000
     16275       130  POPE      H2Y           -30.3753329190      -38.2340616800       14.9903004620  MEMB      130             0.0000000000
     16276       130  POPE      C23           -34.7377755188      -33.2276548270       16.0790488825  MEMB      130             0.0000000000
     16277       130  POPE      H3R           -35.0519639159      -32.3509324289       16.6771158322  MEMB      130             0.0000000000
     16278       130  POPE      H3S           -35.2681767983      -33.5208458235       16.9420012583  MEMB      130             0.0000000000
     16279       130  POPE      C24           -35.4904153190      -33.3721986396       14.7016176203  MEMB      130             0.0000000000
     16280       130  POPE      H4R           -34.9694144866      -32.7033056496       13.9790047800  MEMB      130             0.0000000000
     16281       130  POPE      H4S           -36.5686433218      -32.9964578339       14.7671942085  MEMB      130             0.0000000000
     16282       130  POPE      C25           -35.5074611018      -34.7351557041       14.2453687252  MEMB      130             0.0000000000
     16283       130  POPE      H5R           -35.8397494750      -35.2846578923       15.1313044816  MEMB      130             0.0000000000
     16284       130  POPE      H5S           -34.4422824287      -34.8826059437       14.0134769628  MEMB      130             0.0000000000
     16285       130  POPE      C26           -36.3257923435      -34.9639352111       13.0431399438  MEMB      130             0.0000000000
     16286       130  POPE      H6R           -37.1894095817      -34.4047433929       12.9956679375  MEMB      130             0.0000000000
     16287       130  POPE      H6S           -36.7192290640      -35.9612128928       12.8523073516  MEMB      130             0.0000000000
     16288       130  POPE      C27           -35.8296148042      -34.1368167211       11.9630725114  MEMB      130             0.0000000000
     16289       130  POPE      H7R           -35.0358055199      -34.5504611463       11.3688099933  MEMB      130             0.0000000000
     16290       130  POPE      H7S           -35.8129962618      -33.0668819190       12.2042247015  MEMB      130             0.0000000000
     16291       130  POPE      C28           -36.5911716056      -34.1235228252       10.9673371035  MEMB      130             0.0000000000
     16292       130  POPE      H8R           -36.8248274764      -33.1487967072       10.7760742224  MEMB      130             0.0000000000
     16293       130  POPE      H8S           -37.5302824423      -32.8354805155       10.7306865354  MEMB      130             0.0000000000
     16294       130  POPE      C29           -36.7665475559      -35.6753211967       10.1838472830  MEMB      130             0.0000000000
     16295       130  POPE      H91           -37.6889425701      -36.2994690652       10.4496865107  MEMB      130             0.0000000000
     16296       130  POPE      C210          -36.3469535290      -36.1603430475        8.9884417755  MEMB      130             0.0000000000
     16297       130  POPE      H101          -36.7351552851      -37.0754996317        8.5935062831  MEMB      130             0.0000000000
     16298       130  POPE      C211          -35.5768250679      -35.4465712320        7.9902517821  MEMB      130             0.0000000000
     16299       130  POPE      H11R          -34.6871473238      -35.0569004270        8.5627556689  MEMB      130             0.0000000000
     16300       130  POPE      H11S          -36.3455348586      -34.7241069169        7.4997265229  MEMB      130             0.0000000000
     16301       130  POPE      C212          -35.2258731420      -35.6777076179        6.6168330204  MEMB      130             0.0000000000
     16302       130  POPE      H12R          -35.1450006930      -34.7225623880        6.0347196136  MEMB      130             0.0000000000
     16303       130  POPE      H12S          -36.1753832662      -36.1572385222        6.2992139075  MEMB      130             0.0000000000
     16304       130  POPE      C213          -33.9640457782      -36.4666968927        6.4904869381  MEMB      130             0.0000000000
     16305       130  POPE      H13R          -34.0427195139      -37.3172134605        7.1752290926  MEMB      130             0.0000000000
     16306       130  POPE      H13S          -32.9972582699      -35.9660288009        6.7195336863  MEMB      130             0.0000000000
     16307       130  POPE      C214          -33.9007877126      -36.8362996488        5.0289983543  MEMB      130             0.0000000000
     16308       130  POPE      H14R          -33.9755386645      -35.8459933241        4.5264694055  MEMB      130             0.0000000000
     16309       130  POPE      H14S          -34.7847950704      -37.4710035871        4.7775832433  MEMB      130             0.0000000000
     16310       130  POPE      C215          -32.5708767966      -37.4204139149        4.5429702265  MEMB      130             0.0000000000
     16311       130  POPE      H15R          -32.5241694155      -38.4925281537        4.7692980296  MEMB      130             0.0000000000
     16312       130  POPE      H15S          -31.7005427067      -37.0162308433        5.0841368577  MEMB      130             0.0000000000
     16313       130  POPE      C216          -32.2906887779      -37.2588626411        3.0503388351  MEMB      130             0.0000000000
     16314       130  POPE      H16R          -33.1879477959      -37.5082505372        2.4422515243  MEMB      130             0.0000000000
     16315       130  POPE      H16S          -31.4885074370      -37.9577550083        2.7301344888  MEMB      130             0.0000000000
     16316       130  POPE      C217          -31.8715907688      -35.8762683657        2.6457109726  MEMB      130             0.0000000000
     16317       130  POPE      H17R          -30.8169854468      -35.6167846463        2.9297856002  MEMB      130             0.0000000000
     16318       130  POPE      H17S          -32.5805939525      -35.1234041268        2.9953903963  MEMB      130             0.0000000000
     16319       130  POPE      C218          -32.1047899132      -35.8354587064        1.2200320213  MEMB      130             0.0000000000
     16320       130  POPE      H18R          -32.9913417244      -36.1858525740        0.7389975325  MEMB      130             0.0000000000
     16321       130  POPE      H18S          -31.3326054455      -36.5889125578        0.8203034652  MEMB      130             0.0000000000
     16322       130  POPE      H18T          -32.0486332182      -34.7630400409        0.8266467019  MEMB      130             0.0000000000
     16323       130  POPE      C33           -31.7218165057      -37.8218077587       14.4045225902  MEMB      130             0.0000000000
     16324       130  POPE      H3X           -32.5654285754      -37.3323265249       14.8291302831  MEMB      130             0.0000000000
     16325       130  POPE      H3Y           -31.8397925019      -38.9433153960       14.3287500538  MEMB      130             0.0000000000
     16326       130  POPE      C34           -31.0269821454      -37.2760343915       13.2237889530  MEMB      130             0.0000000000
     16327       130  POPE      H4X           -30.2020312083      -37.9005975203       12.9074539055  MEMB      130             0.0000000000
     16328       130  POPE      H4Y           -30.6090884018      -36.2665198927       13.3642273306  MEMB      130             0.0000000000
     16329       130  POPE      C35           -31.9916077010      -37.2790087317       12.1049494957  MEMB      130             0.0000000000
     16330       130  POPE      H5X           -31.6212836675      -36.5009937281       11.4158301626  MEMB      130             0.0000000000
     16331       130  POPE      H5Y           -33.0194432847      -37.0754001008       12.4684641410  MEMB      130             0.0000000000
     16332       130  POPE      C36           -32.1320509916      -38.5448130415       11.3039111642  MEMB      130             0.0000000000
     16333       130  POPE      H6X           -32.6117350666      -39.3026323387       11.9651797368  MEMB      130             0.0000000000
     16334       130  POPE      H6Y           -31.1332857987      -38.8956590657       10.9595957670  MEMB      130             0.0000000000
     16335       130  POPE      C37           -33.0168957811      -38.1451748007       10.1176079894  MEMB      130             0.0000000000
     16336       130  POPE      H7X           -32.4750641129      -37.3705982358        9.5220826454  MEMB      130             0.0000000000
     16337       130  POPE      H7Y           -33.9500024410      -37.6422460645       10.4381721600  MEMB      130             0.0000000000
     16338       130  POPE      C38           -33.4377591111      -39.3022356154        9.2237720782  MEMB      130             0.0000000000
     16339       130  POPE      H8X           -32.5509113917      -39.9256613797        9.0294306103  MEMB      130             0.0000000000
     16340       130  POPE      H8Y           -33.6607633897      -38.8609567555        8.2394408389  MEMB      130             0.0000000000
     16341       130  POPE      C39           -34.6431054759      -40.1416648005        9.7222731381  MEMB      130             0.0000000000
     16342       130  POPE      H9X           -35.5842302399      -39.5523593173        9.6492914352  MEMB      130             0.0000000000
     16343       130  POPE      H9Y           -34.5355753943      -40.3904533139       10.8007354462  MEMB      130             0.0000000000
     16344       130  POPE      C310          -34.8544597439      -41.4411771345        8.9250659267  MEMB      130             0.0000000000
     16345       130  POPE      H10X          -35.8869937103      -41.8463033676        9.0777839467  MEMB      130             0.0000000000
     16346       130  POPE      H10Y          -34.1507197183      -42.2272390267        9.2807328198  MEMB      130             0.0000000000
     16347       130  POPE      C311          -34.7063398928      -41.2429075656        7.4110093592  MEMB      130             0.0000000000
     16348       130  POPE      H11X          -33.7301805996      -40.8782467776        7.0713652661  MEMB      130             0.0000000000
     16349       130  POPE      H11Y          -35.4502313249      -40.5012254884        7.0684210089  MEMB      130             0.0000000000
     16350       130  POPE      C312          -34.9747729112      -42.5203109072        6.7016036786  MEMB      130             0.0000000000
     16351       130  POPE      H12X          -35.8083217564      -42.9404734388        7.2702490585  MEMB      130             0.0000000000
     16352       130  POPE      H12Y          -34.3906790022      -43.3307599453        6.9083246301  MEMB      130             0.0000000000
     16353       130  POPE      C313          -34.7449642891      -42.6198795494        5.1995874406  MEMB      130             0.0000000000
     16354       130  POPE      H13X          -35.0618816933      -43.6438212693        4.8808385508  MEMB      130             0.0000000000
     16355       130  POPE      H13Y          -33.6788325997      -42.5713075267        4.8898625491  MEMB      130             0.0000000000
     16356       130  POPE      C314          -35.5138134313      -41.5200505752        4.5012501615  MEMB      130             0.0000000000
     16357       130  POPE      H14X          -35.1059042356      -40.5526928580        4.7910290745  MEMB      130             0.0000000000
     16358       130  POPE      H14Y          -36.5713049386      -41.5549414389        4.8845244779  MEMB      130             0.0000000000
     16359       130  POPE      C315          -35.4278942983      -41.7344716375        2.9868195872  MEMB      130             0.0000000000
     16360       130  POPE      H15X          -35.5354536346      -42.8250818412        2.7146506192  MEMB      130             0.0000000000
     16361       130  POPE      H15Y          -34.3771951706      -41.5392302552        2.7575957749  MEMB      130             0.0000000000
     16362       130  POPE      C316          -36.3812661349      -40.8038209654        2.2204158066  MEMB      130             0.0000000000
     16363       130  POPE      H16X          -36.1934194852      -40.8361401524        1.1128468902  MEMB      130             0.0000000000
     16364       130  POPE      H16Y          -36.3674888144      -39.8194090970        2.6064473417  MEMB      130             0.0000000000
     16365       130  POPE      H16Z          -37.4515085634      -41.0822668180        2.3463357324  MEMB      130             0.0000000000
     16366       131  POPE      N              41.9854976749      -33.1264033354       17.8789541206  MEMB      131             0.0000000000
     16367       131  POPE      HN1            42.9269539651      -32.7333527494       18.0838263248  MEMB      131             0.0000000000
     16368       131  POPE      HN2            42.0773262175      -33.9801948946       17.2944653055  MEMB      131             0.0000000000
     16369       131  POPE      HN3            41.4155169710      -32.4176301681       17.3684489754  MEMB      131             0.0000000000
     16370       131  POPE      C12            41.2684024807      -33.4706153231       19.1644410073  MEMB      131             0.0000000000
     16371       131  POPE      H12A           41.2875461291      -32.5242810683       19.7572946276  MEMB      131             0.0000000000
     16372       131  POPE      H12B           41.8379211084      -34.2797017771       19.6635657433  MEMB      131             0.0000000000
     16373       131  POPE      C11            39.8398674315      -33.9950753198       18.9285492720  MEMB      131             0.0000000000
     16374       131  POPE      H11A           39.3571466693      -34.3876106654       19.8562289529  MEMB      131             0.0000000000
     16375       131  POPE      H11B           39.8495862542      -34.9080695055       18.2738259783  MEMB      131             0.0000000000
     16376       131  POPE      P              38.3645408162      -31.8035470280       19.2616310653  MEMB      131             0.0000000000
     16377       131  POPE      O13            38.6084968167      -32.1056019022       20.6931829330  MEMB      131             0.0000000000
     16378       131  POPE      O14            36.9523961136      -31.7119888970       18.8462184602  MEMB      131             0.0000000000
     16379       131  POPE      O11            39.1083500544      -30.4605811864       18.8615028755  MEMB      131             0.0000000000
     16380       131  POPE      O12            39.0801104209      -32.9367095442       18.3551617037  MEMB      131             0.0000000000
     16381       131  POPE      C1             38.5283645005      -29.5078413504       18.0068923962  MEMB      131             0.0000000000
     16382       131  POPE      HA             39.1511594776      -28.5714992883       18.0209821814  MEMB      131             0.0000000000
     16383       131  POPE      HB             37.4944575943      -29.2639409522       18.3314935104  MEMB      131             0.0000000000
     16384       131  POPE      C2             38.5329962584      -30.0100368114       16.5989466250  MEMB      131             0.0000000000
     16385       131  POPE      HS             37.8357002493      -30.8293223641       16.3906277992  MEMB      131             0.0000000000
     16386       131  POPE      O21            39.9025415726      -30.2332615671       16.1740549360  MEMB      131             0.0000000000
     16387       131  POPE      C21            40.0510718569      -31.1951742111       15.2903273189  MEMB      131             0.0000000000
     16388       131  POPE      O22            39.1874846744      -31.8940052089       14.7947815213  MEMB      131             0.0000000000
     16389       131  POPE      C22            41.4799192374      -31.1757439317       14.8214761487  MEMB      131             0.0000000000
     16390       131  POPE      H2R            42.2170637981      -31.1635359269       15.6478247469  MEMB      131             0.0000000000
     16391       131  POPE      H2S            41.5713689281      -30.2637036988       14.2066252442  MEMB      131             0.0000000000
     16392       131  POPE      C3             37.9729881449      -28.9893821754       15.8137807717  MEMB      131             0.0000000000
     16393       131  POPE      HX             38.5413961760      -28.1187512414       16.2331277789  MEMB      131             0.0000000000
     16394       131  POPE      HY             36.9640787652      -28.5021441509       15.9740367375  MEMB      131             0.0000000000
     16395       131  POPE      O31            38.3300252027      -29.4799187823       14.4320153492  MEMB      131             0.0000000000
     16396       131  POPE      C31            39.3491573638      -29.4151032184       13.1934190673  MEMB      131             0.0000000000
     16397       131  POPE      O32            40.3705937745      -28.8055880377       13.1770175849  MEMB      131             0.0000000000
     16398       131  POPE      C32            38.8700844341      -29.5811590808       11.7598425488  MEMB      131             0.0000000000
     16399       131  POPE      H2X            38.3834834202      -28.6282910366       11.3816887539  MEMB      131             0.0000000000
     16400       131  POPE      H2Y            38.2021779684      -30.4231704118       11.6549825727  MEMB      131             0.0000000000
     16401       131  POPE      C23            41.7085777051      -32.3448052247       13.8696251409  MEMB      131             0.0000000000
     16402       131  POPE      H3R            41.0959819505      -32.2488550762       12.9406441384  MEMB      131             0.0000000000
     16403       131  POPE      H3S            41.3494726210      -33.2670850770       14.3742491437  MEMB      131             0.0000000000
     16404       131  POPE      C24            43.1422128376      -32.3727707519       13.3566158325  MEMB      131             0.0000000000
     16405       131  POPE      H4R            43.9318912074      -32.2478564932       14.1391315670  MEMB      131             0.0000000000
     16406       131  POPE      H4S            43.2878877330      -31.4535541687       12.7360824156  MEMB      131             0.0000000000
     16407       131  POPE      C25            43.3982071223      -33.6319868308       12.5209825651  MEMB      131             0.0000000000
     16408       131  POPE      H5R            43.3992825764      -34.5728736108       13.1170641893  MEMB      131             0.0000000000
     16409       131  POPE      H5S            44.3945368831      -33.3629562223       12.1315990507  MEMB      131             0.0000000000
     16410       131  POPE      C26            42.5381279896      -33.9093566957       11.2826924166  MEMB      131             0.0000000000
     16411       131  POPE      H6R            41.4553702447      -34.0023486288       11.5200649452  MEMB      131             0.0000000000
     16412       131  POPE      H6S            42.8205797066      -34.8953678006       10.8580631507  MEMB      131             0.0000000000
     16413       131  POPE      C27            42.7468914541      -32.8306168446       10.2140871069  MEMB      131             0.0000000000
     16414       131  POPE      H7R            43.7354838091      -32.8517638862        9.7388814803  MEMB      131             0.0000000000
     16415       131  POPE      H7S            42.7636256214      -31.8025743788       10.6179045904  MEMB      131             0.0000000000
     16416       131  POPE      C28            41.6204436958      -32.8644652326        9.2107970186  MEMB      131             0.0000000000
     16417       131  POPE      H8R            41.6564034764      -32.0862964286        8.4342327056  MEMB      131             0.0000000000
     16418       131  POPE      H8S            40.6995565580      -32.6896195464        9.7617928212  MEMB      131             0.0000000000
     16419       131  POPE      C29            41.3063647928      -34.0135109622        8.4106667343  MEMB      131             0.0000000000
     16420       131  POPE      H91            40.7664055472      -34.8724777959        8.8975132812  MEMB      131             0.0000000000
     16421       131  POPE      C210           42.0028784978      -34.1892009863        7.2983793207  MEMB      131             0.0000000000
     16422       131  POPE      H101           41.6036554460      -35.0563248515        6.8082443613  MEMB      131             0.0000000000
     16423       131  POPE      C211           43.1225630581      -33.5825790069        6.5114615831  MEMB      131             0.0000000000
     16424       131  POPE      H11R           44.0106047047      -34.2522930869        6.2785530429  MEMB      131             0.0000000000
     16425       131  POPE      H11S           43.5479874860      -32.7681906727        7.0869705903  MEMB      131             0.0000000000
     16426       131  POPE      C212           42.3691501996      -33.2677344554        5.2471912028  MEMB      131             0.0000000000
     16427       131  POPE      H12R           42.2568135669      -34.2246155714        4.6911588612  MEMB      131             0.0000000000
     16428       131  POPE      H12S           43.0219066848      -32.5923082286        4.6734915342  MEMB      131             0.0000000000
     16429       131  POPE      C213           41.0478580150      -32.5237676539        5.5553037500  MEMB      131             0.0000000000
     16430       131  POPE      H13R           41.4159474355      -31.6857609312        6.1928733055  MEMB      131             0.0000000000
     16431       131  POPE      H13S           40.3154065065      -33.1453442535        6.1208679678  MEMB      131             0.0000000000
     16432       131  POPE      C214           40.2420753399      -31.8849764922        4.4473031817  MEMB      131             0.0000000000
     16433       131  POPE      H14R           39.6571494921      -31.0729113824        4.9434399417  MEMB      131             0.0000000000
     16434       131  POPE      H14S           39.4967659408      -32.6092572505        4.0499670718  MEMB      131             0.0000000000
     16435       131  POPE      C215           41.1481456109      -31.3392834990        3.3648629549  MEMB      131             0.0000000000
     16436       131  POPE      H15R           41.6269426920      -32.1844151269        2.8211355990  MEMB      131             0.0000000000
     16437       131  POPE      H15S           41.9090053169      -30.6355688735        3.7315164873  MEMB      131             0.0000000000
     16438       131  POPE      C216           40.4349002020      -30.4404493980        2.4517956235  MEMB      131             0.0000000000
     16439       131  POPE      H16R           39.5034786558      -31.0164269263        2.2342736675  MEMB      131             0.0000000000
     16440       131  POPE      H16S           41.0412403654      -30.3362847877        1.5036560940  MEMB      131             0.0000000000
     16441       131  POPE      C217           40.0697967443      -29.0407548029        2.9973587776  MEMB      131             0.0000000000
     16442       131  POPE      H17R           40.9775417930      -28.6093249895        3.4762776216  MEMB      131             0.0000000000
     16443       131  POPE      H17S           39.2042106658      -29.0949587844        3.6937082944  MEMB      131             0.0000000000
     16444       131  POPE      C218           39.5933087569      -28.0112056843        1.9952135933  MEMB      131             0.0000000000
     16445       131  POPE      H18R           40.3410845827      -27.8108184526        1.2165692269  MEMB      131             0.0000000000
     16446       131  POPE      H18S           39.0370343084      -27.1671310574        2.4235315358  MEMB      131             0.0000000000
     16447       131  POPE      H18T           38.7940141330      -28.3424325904        1.4320650159  MEMB      131             0.0000000000
     16448       131  POPE      C33            39.7845935482      -29.2094167739       10.7388455101  MEMB      131             0.0000000000
     16449       131  POPE      H3X            40.5489930893      -29.9221740304       10.9898694441  MEMB      131             0.0000000000
     16450       131  POPE      H3Y            40.1022937929      -28.1466798586       10.9106950622  MEMB      131             0.0000000000
     16451       131  POPE      C34            39.1139749453      -29.4328088928        9.4283047153  MEMB      131             0.0000000000
     16452       131  POPE      H4X            38.5180141749      -28.5681894364        9.2395436315  MEMB      131             0.0000000000
     16453       131  POPE      H4Y            38.4665029689      -30.3341161813        9.4039848823  MEMB      131             0.0000000000
     16454       131  POPE      C35            40.1662775686      -29.5170209511        8.4042895218  MEMB      131             0.0000000000
     16455       131  POPE      H5X            39.7117607380      -29.8694209818        7.4586036556  MEMB      131             0.0000000000
     16456       131  POPE      H5Y            40.8671482992      -30.3030490945        8.7396869805  MEMB      131             0.0000000000
     16457       131  POPE      C36            40.8633157724      -28.1756477921        8.2168337993  MEMB      131             0.0000000000
     16458       131  POPE      H6X            41.3373533525      -27.7709504781        9.1472224197  MEMB      131             0.0000000000
     16459       131  POPE      H6Y            40.1348033458      -27.4176294180        7.8386864468  MEMB      131             0.0000000000
     16460       131  POPE      C37            41.8881544291      -28.3568826495        7.1150777135  MEMB      131             0.0000000000
     16461       131  POPE      H7X            42.0929545751      -27.3303715057        6.7524872862  MEMB      131             0.0000000000
     16462       131  POPE      H7Y            41.4249605313      -28.9801256335        6.3128302952  MEMB      131             0.0000000000
     16463       131  POPE      C38            43.1571554521      -29.0546821196        7.6094332050  MEMB      131             0.0000000000
     16464       131  POPE      H8X            42.9226929808      -30.0975354453        7.8662125322  MEMB      131             0.0000000000
     16465       131  POPE      H8Y            43.4453819925      -28.5574580103        8.5331815290  MEMB      131             0.0000000000
     16466       131  POPE      C39            44.3359563319      -29.0162985734        6.6593153468  MEMB      131             0.0000000000
     16467       131  POPE      H9X            45.3114897999      -29.3034247756        7.1208345213  MEMB      131             0.0000000000
     16468       131  POPE      H9Y            44.3461080692      -27.9754736953        6.3758388018  MEMB      131             0.0000000000
     16469       131  POPE      C310           44.0991127661      -29.7578728804        5.3750677205  MEMB      131             0.0000000000
     16470       131  POPE      H10X           43.2856463538      -29.2812899237        4.7916464127  MEMB      131             0.0000000000
     16471       131  POPE      H10Y           43.9103123054      -30.8107111369        5.5111546121  MEMB      131             0.0000000000
     16472       131  POPE      C311           45.2972669721      -29.7670006974        4.6154440906  MEMB      131             0.0000000000
     16473       131  POPE      H11X           46.2462198323      -30.2315143441        4.9945389515  MEMB      131             0.0000000000
     16474       131  POPE      H11Y           45.3266642536      -28.6878548319        4.5383858113  MEMB      131             0.0000000000
     16475       131  POPE      C312           45.1747160258      -30.1081169586        3.2203852684  MEMB      131             0.0000000000
     16476       131  POPE      H12X           44.9943010375      -31.1364840722        3.3402824731  MEMB      131             0.0000000000
     16477       131  POPE      H12Y           46.1347673590      -30.0357787213        2.6849693854  MEMB      131             0.0000000000
     16478       131  POPE      C313           44.1710167002      -29.3908937233        2.4677664351  MEMB      131             0.0000000000
     16479       131  POPE      H13X           44.7798867990      -28.4325603710        2.4623654429  MEMB      131             0.0000000000
     16480       131  POPE      H13Y           43.2266344870      -29.0633775792        2.7713572285  MEMB      131             0.0000000000
     16481       131  POPE      C314           43.5916133097      -30.0213148172        1.1844061474  MEMB      131             0.0000000000
     16482       131  POPE      H14X           43.2065645775      -31.0142168947        1.0467298581  MEMB      131             0.0000000000
     16483       131  POPE      H14Y           44.5161791775      -30.0474118641        0.7210662747  MEMB      131             0.0000000000
     16484       131  POPE      C315           42.9890293326      -29.2803063147        0.1536248614  MEMB      131             0.0000000000
     16485       131  POPE      H15X           42.9953989010      -28.1485642691       -0.4093072517  MEMB      131             0.0000000000
     16486       131  POPE      H15Y           41.9691629661      -29.0739683495       -0.0994216064  MEMB      131             0.0000000000
     16487       131  POPE      C316           43.9285856724      -30.1111236549       -2.5529381380  MEMB      131             0.0000000000
     16488       131  POPE      H16X           43.7131113869      -30.7852186980       -2.0346333241  MEMB      131             0.0000000000
     16489       131  POPE      H16Y           44.9849250140      -30.1518120115       -2.4631722411  MEMB      131             0.0000000000
     16490       131  POPE      H16Z           43.5690114484      -28.9740378896       -2.7973602097  MEMB      131             0.0000000000
     16491       132  OYPE      N             -50.3260882134        6.9307259026       16.7419072399  MEMB      132             0.0000000000
     16492       132  OYPE      HN1           -51.3522129172        7.0016359384       16.8748434846  MEMB      132             0.0000000000
     16493       132  OYPE      HN2           -49.9598796825        7.9035906507       16.8256261519  MEMB      132             0.0000000000
     16494       132  OYPE      HN3           -50.0771107859        6.4979029234       15.8262585941  MEMB      132             0.0000000000
     16495       132  OYPE      C12           -49.8974398828        6.0747833078       17.8883455643  MEMB      132             0.0000000000
     16496       132  OYPE      H12A          -48.9269310464        5.6153035528       17.6294068493  MEMB      132             0.0000000000
     16497       132  OYPE      H12B          -50.6804350755        5.2854346133       18.0021011191  MEMB      132             0.0000000000
     16498       132  OYPE      C11           -49.8581230429        6.8668794972       19.1959041095  MEMB      132             0.0000000000
     16499       132  OYPE      H11A          -49.1402733655        7.7058923331       19.2684003308  MEMB      132             0.0000000000
     16500       132  OYPE      H11B          -49.4691966319        6.1576319069       19.9320710785  MEMB      132             0.0000000000
     16501       132  OYPE      P             -51.6680999792        8.7608709652       19.6973872853  MEMB      132             0.0000000000
     16502       132  OYPE      O13           -50.5606288420        9.6796428796       19.3842000541  MEMB      132             0.0000000000
     16503       132  OYPE      O14           -52.3302634859        8.8230268391       21.0094696956  MEMB      132             0.0000000000
     16504       132  OYPE      O11           -52.6327147949        8.8226550329       18.4697745970  MEMB      132             0.0000000000
     16505       132  OYPE      O12           -51.1769655764        7.2458311797       19.5365800141  MEMB      132             0.0000000000
     16506       132  OYPE      C1            -53.7279733664        7.9576718805       18.2656133743  MEMB      132             0.0000000000
     16507       132  OYPE      HA            -54.2465254076        7.7171323585       19.2111678461  MEMB      132             0.0000000000
     16508       132  OYPE      HB            -53.4294120846        7.0188254921       17.7591775534  MEMB      132             0.0000000000
     16509       132  OYPE      C2            -54.7450017619        8.6534376321       17.3496511937  MEMB      132             0.0000000000
     16510       132  OYPE      HS            -55.6204393569        7.9769299104       17.2222767813  MEMB      132             0.0000000000
     16511       132  OYPE      O21           -54.1476376298        8.9037797798       16.0601115668  MEMB      132             0.0000000000
     16512       132  OYPE      C21           -54.0183909400        7.8786944546       15.2532467666  MEMB      132             0.0000000000
     16513       132  OYPE      O22           -54.5136650775        6.7825829829       15.4223398685  MEMB      132             0.0000000000
     16514       132  OYPE      C22           -53.0178479527        8.2615131587       14.1527507940  MEMB      132             0.0000000000
     16515       132  OYPE      H2R           -52.0829083566        8.4322480582       14.7111246423  MEMB      132             0.0000000000
     16516       132  OYPE      H2S           -53.2960673361        9.2487680025       13.7497385633  MEMB      132             0.0000000000
     16517       132  OYPE      C3            -55.2361580350        9.9798712044       18.0200691807  MEMB      132             0.0000000000
     16518       132  OYPE      HX            -55.5500206207        9.7476446751       19.0648089080  MEMB      132             0.0000000000
     16519       132  OYPE      HY            -56.1073585619       10.3455805696       17.4238205628  MEMB      132             0.0000000000
     16520       132  OYPE      O31           -54.2072729730       10.9681061201       18.2175879617  MEMB      132             0.0000000000
     16521       132  OYPE      C31           -53.7617077005       11.5826645337       17.1705539330  MEMB      132             0.0000000000
     16522       132  OYPE      O32           -54.2360828626       11.4811980178       16.0771342068  MEMB      132             0.0000000000
     16523       132  OYPE      C32           -52.6051493201       12.5111354547       17.4696949824  MEMB      132             0.0000000000
     16524       132  OYPE      H2X           -53.0786406664       13.4009338066       17.7763643524  MEMB      132             0.0000000000
     16525       132  OYPE      H2Y           -51.9949277713       12.1877519348       18.2864725656  MEMB      132             0.0000000000
     16526       132  OYPE      C23           -52.8002621215        7.3509833828       12.9075610594  MEMB      132             0.0000000000
     16527       132  OYPE      H3R           -53.6914442182        7.3513681147       12.2382406036  MEMB      132             0.0000000000
     16528       132  OYPE      H3S           -52.5224054335        6.3052420342       13.1529816563  MEMB      132             0.0000000000
     16529       132  OYPE      C24           -51.7118422573        7.9850564448       12.0297490008  MEMB      132             0.0000000000
     16530       132  OYPE      H4R           -50.8498799676        8.1851021583       12.7038416302  MEMB      132             0.0000000000
     16531       132  OYPE      H4S           -52.1375399037        8.9835325950       11.7581317895  MEMB      132             0.0000000000
     16532       132  OYPE      C25           -51.1751322505        7.0500305856       10.8992550482  MEMB      132             0.0000000000
     16533       132  OYPE      H5R           -51.8814765438        6.7242474747       10.1089955784  MEMB      132             0.0000000000
     16534       132  OYPE      H5S           -50.9078778728        6.1068225843       11.4193474060  MEMB      132             0.0000000000
     16535       132  OYPE      C26           -49.9304805964        7.6045042411       10.1739585291  MEMB      132             0.0000000000
     16536       132  OYPE      H6R           -49.2250488698        7.9069310581       10.9900892022  MEMB      132             0.0000000000
     16537       132  OYPE      H6S           -50.2545241357        8.4815637249        9.5663900248  MEMB      132             0.0000000000
     16538       132  OYPE      C27           -49.1789886206        6.6636475947        9.2070537203  MEMB      132             0.0000000000
     16539       132  OYPE      H7R           -49.8034515523        5.8910668114        8.7057165241  MEMB      132             0.0000000000
     16540       132  OYPE      H7S           -48.5287371953        6.0818788419        9.8961721772  MEMB      132             0.0000000000
     16541       132  OYPE      C28           -48.4097025305        7.4489661320        8.0767017403  MEMB      132             0.0000000000
     16542       132  OYPE      H8R           -49.1581968810        8.0093345877        7.5324489221  MEMB      132             0.0000000000
     16543       132  OYPE      H8S           -47.9884508072        6.7252565217        7.3434089165  MEMB      132             0.0000000000
     16544       132  OYPE      C29           -47.2557025816        8.3105362011        8.5081143250  MEMB      132             0.0000000000
     16545       132  OYPE      H9R           -46.3651333356        7.9256113741        8.8545298234  MEMB      132             0.0000000000
     16546       132  OYPE      C210          -47.0420879142        9.4903755141        8.7351435287  MEMB      132             0.0000000000
     16547       132  OYPE      H10R          -46.0464418848        9.8310202994        9.0645557954  MEMB      132             0.0000000000
     16548       132  OYPE      C211          -48.1211103371       10.3262310022        8.5587733498  MEMB      132             0.0000000000
     16549       132  OYPE      H11R          -47.3324526601       11.0287587156        8.9717645754  MEMB      132             0.0000000000
     16550       132  OYPE      H11S          -48.8722470419       10.4877382855        9.3393516770  MEMB      132             0.0000000000
     16551       132  OYPE      C212          -48.7340291667       10.5647294068        7.0753599636  MEMB      132             0.0000000000
     16552       132  OYPE      H12R          -49.6288891187       11.2695435057        7.0857512236  MEMB      132             0.0000000000
     16553       132  OYPE      H12S          -49.1919174547        9.7059103651        6.6518237409  MEMB      132             0.0000000000
     16554       132  OYPE      C213          -47.8001788495       11.1649552405        5.9698429601  MEMB      132             0.0000000000
     16555       132  OYPE      H13R          -46.8481518096       10.8421876703        5.6911454062  MEMB      132             0.0000000000
     16556       132  OYPE      H13S          -47.1561891558       12.0409956944        6.1922254459  MEMB      132             0.0000000000
     16557       132  OYPE      C214          -48.6029161358       11.5509670253        4.7420733288  MEMB      132             0.0000000000
     16558       132  OYPE      H14R          -49.3479351155       12.3748349229        4.5746126956  MEMB      132             0.0000000000
     16559       132  OYPE      H14S          -49.3895301987       10.8172839199        4.5871014220  MEMB      132             0.0000000000
     16560       132  OYPE      C215          -47.5359569015       12.0019240039        3.7533862945  MEMB      132             0.0000000000
     16561       132  OYPE      H15R          -46.8261291983       12.7294228969        3.8501540726  MEMB      132             0.0000000000
     16562       132  OYPE      H15S          -48.3070504940       12.3299845668        3.0217200722  MEMB      132             0.0000000000
     16563       132  OYPE      C216          -46.2989364025       11.2182356289        3.3154969437  MEMB      132             0.0000000000
     16564       132  OYPE      H16R          -46.7308291228       10.2367360970        3.6342961007  MEMB      132             0.0000000000
     16565       132  OYPE      H16S          -45.5581056468       10.9572546163        2.3068046149  MEMB      132             0.0000000000
     16566       132  OYPE      H16T          -46.2120948092       11.4807931913        2.2919184722  MEMB      132             0.0000000000
     16567       132  OYPE      C33           -51.7097123148       12.9735487674       16.3222165802  MEMB      132             0.0000000000
     16568       132  OYPE      H3X           -51.0225918148       13.7535897821       16.7297545094  MEMB      132             0.0000000000
     16569       132  OYPE      H3Y           -52.3434524581       13.3887467022       15.5581690506  MEMB      132             0.0000000000
     16570       132  OYPE      C34           -50.8866995574       11.9239409303       15.6287964046  MEMB      132             0.0000000000
     16571       132  OYPE      H4X           -49.9234838389       11.9236716011       16.1620808607  MEMB      132             0.0000000000
     16572       132  OYPE      H4Y           -51.3680086503       10.9380853622       15.6831588994  MEMB      132             0.0000000000
     16573       132  OYPE      C35           -50.6951261606       12.1290432969       14.1407195050  MEMB      132             0.0000000000
     16574       132  OYPE      H5X           -49.9955315868       11.3937730023       13.6923740674  MEMB      132             0.0000000000
     16575       132  OYPE      H5Y           -50.4010980673       13.1919508973       13.9548502806  MEMB      132             0.0000000000
     16576       132  OYPE      C36           -51.9116192001       11.8345984125       13.3626559943  MEMB      132             0.0000000000
     16577       132  OYPE      H6X           -52.5002298640       10.9870346322       13.7365718210  MEMB      132             0.0000000000
     16578       132  OYPE      H6Y           -52.4622999586       12.6506332058       13.7421815970  MEMB      132             0.0000000000
     16579       132  OYPE      C37           -51.6222811007       11.9658679889       11.8543063901  MEMB      132             0.0000000000
     16580       132  OYPE      H7X           -51.3570364249       12.9662407350       11.4991905141  MEMB      132             0.0000000000
     16581       132  OYPE      H7Y           -51.1905832252       11.0106409870       11.5375504876  MEMB      132             0.0000000000
     16582       132  OYPE      C38           -52.6466538257       11.9162821191       10.8236641165  MEMB      132             0.0000000000
     16583       132  OYPE      H8X           -53.0574434223       11.1019341432       11.5411359705  MEMB      132             0.0000000000
     16584       132  OYPE      H8Y           -53.2772715656       12.8521669153       10.7064935837  MEMB      132             0.0000000000
     16585       132  OYPE      C39           -52.5060489012       11.6466553583        9.4155297544  MEMB      132             0.0000000000
     16586       132  OYPE      H9X           -52.8298650463       12.7252376966        9.0263682441  MEMB      132             0.0000000000
     16587       132  OYPE      C310          -52.9954421172       10.4756675026        8.7920797321  MEMB      132             0.0000000000
     16588       132  OYPE      H10X          -53.6685884516       10.5248035331        8.0644067155  MEMB      132             0.0000000000
     16589       132  OYPE      C311          -53.7407097314        9.1697861144        8.9342483444  MEMB      132             0.0000000000
     16590       132  OYPE      H11X          -52.8990076807        8.6531696984        9.1183308300  MEMB      132             0.0000000000
     16591       132  OYPE      H11Y          -54.2570635071        8.9283099360        9.8781934630  MEMB      132             0.0000000000
     16592       132  OYPE      C312          -54.7793178202        8.7275831240        7.8756930989  MEMB      132             0.0000000000
     16593       132  OYPE      H12X          -55.4661244480        9.5255791273        7.4755087740  MEMB      132             0.0000000000
     16594       132  OYPE      H12Y          -55.3391733091        7.9012103615        8.3839911488  MEMB      132             0.0000000000
     16595       132  OYPE      C313          -53.9568577470        8.1999742489        6.7521312275  MEMB      132             0.0000000000
     16596       132  OYPE      H13X          -53.2224507087        8.9704476692        6.4278946654  MEMB      132             0.0000000000
     16597       132  OYPE      H13Y          -53.3756296467        7.3521805367        7.1729345704  MEMB      132             0.0000000000
     16598       132  OYPE      C314          -54.8451286135        7.7254840773        5.6503614216  MEMB      132             0.0000000000
     16599       132  OYPE      H14X          -55.3077690171        8.5888881224        5.1233240039  MEMB      132             0.0000000000
     16600       132  OYPE      H14Y          -55.6377615753        7.0844533268        6.1269253182  MEMB      132             0.0000000000
     16601       132  OYPE      C315          -54.0515864051        6.8333772565        4.7215538257  MEMB      132             0.0000000000
     16602       132  OYPE      H15X          -54.7350020671        6.3766574293        4.1241530380  MEMB      132             0.0000000000
     16603       132  OYPE      H15Y          -53.7280088456        5.9384878243        5.2523088051  MEMB      132             0.0000000000
     16604       132  OYPE      C316          -52.9810823146        7.4364697078        3.8544245879  MEMB      132             0.0000000000
     16605       132  OYPE      H16X          -52.4167965558        6.6947969215        3.2391290926  MEMB      132             0.0000000000
     16606       132  OYPE      H16Y          -52.2634401300        7.8934263022        4.5558375193  MEMB      132             0.0000000000
     16607       132  OYPE      C317          -53.4303452207        8.4727125963        2.8936766345  MEMB      132             0.0000000000
     16608       132  OYPE      H17X          -53.9591998344        9.3131114479        3.3951833689  MEMB      132             0.0000000000
     16609       132  OYPE      H17Y          -54.0747871565        8.0190626614        2.1020143504  MEMB      132             0.0000000000
     16610       132  OYPE      C318          -52.0861883059        8.9236209002        2.4180321975  MEMB      132             0.0000000000
     16611       132  OYPE      H18X          -51.7389562874        8.5253095606        1.4640871682  MEMB      132             0.0000000000
     16612       132  OYPE      H18Y          -52.3320194430        9.8136595499        2.1431868356  MEMB      132             0.0000000000
     16613       132  OYPE      H18Z          -51.4368905413        9.6130236185        2.9558885768  MEMB      132             0.0000000000
     16614       133  PMPE      N             -22.8211361823       43.2466347540       19.6053515888  MEMB      133             0.0000000000
     16615       133  PMPE      HN1           -23.6698929558       43.0856092185       20.1958584934  MEMB      133             0.0000000000
     16616       133  PMPE      HN2           -22.5696501492       42.3163353826       19.2182974080  MEMB      133             0.0000000000
     16617       133  PMPE      HN3           -22.0852714815       43.7947028465       20.0778524744  MEMB      133             0.0000000000
     16618       133  PMPE      C12           -22.9962850323       44.0303337259       18.3632440720  MEMB      133             0.0000000000
     16619       133  PMPE      H12A          -23.5053369751       43.3764549109       17.7474760558  MEMB      133             0.0000000000
     16620       133  PMPE      H12B          -22.0600818947       44.0007694576       17.7985226444  MEMB      133             0.0000000000
     16621       133  PMPE      C11           -23.5241109550       45.4337311402       18.6047574724  MEMB      133             0.0000000000
     16622       133  PMPE      H11A          -23.6201322012       46.0094126151       17.6490325307  MEMB      133             0.0000000000
     16623       133  PMPE      H11B          -22.7072611550       45.9267139589       19.1496871755  MEMB      133             0.0000000000
     16624       133  PMPE      P             -25.8206824351       46.5521356930       19.1856841700  MEMB      133             0.0000000000
     16625       133  PMPE      O13           -25.1999528593       47.8750770392       19.2930771564  MEMB      133             0.0000000000
     16626       133  PMPE      O14           -26.9600214530       46.1216014895       20.0436658887  MEMB      133             0.0000000000
     16627       133  PMPE      O11           -26.1584603704       46.4238247960       17.6292572997  MEMB      133             0.0000000000
     16628       133  PMPE      O12           -24.6713636924       45.4518296906       19.4498558114  MEMB      133             0.0000000000
     16629       133  PMPE      C1            -26.5424706156       45.2559333632       17.0046481000  MEMB      133             0.0000000000
     16630       133  PMPE      HA            -27.5918324120       44.9640260506       17.1587650845  MEMB      133             0.0000000000
     16631       133  PMPE      HB            -26.1068518726       44.6307551955       17.6513108734  MEMB      133             0.0000000000
     16632       133  PMPE      C2            -25.9797671493       45.1203525007       15.5934260260  MEMB      133             0.0000000000
     16633       133  PMPE      HS            -26.2663227967       44.3762532461       14.8844083147  MEMB      133             0.0000000000
     16634       133  PMPE      O21           -24.5914245094       45.4012732885       15.4418464311  MEMB      133             0.0000000000
     16635       133  PMPE      C21           -23.9383690648       44.6948756712       14.5112294702  MEMB      133             0.0000000000
     16636       133  PMPE      O22           -24.3721481087       43.9307692287       13.7085586054  MEMB      133             0.0000000000
     16637       133  PMPE      C22           -22.4999761620       45.0242876969       14.4459521909  MEMB      133             0.0000000000
     16638       133  PMPE      H2R           -21.9370521663       44.3465838211       15.1007474313  MEMB      133             0.0000000000
     16639       133  PMPE      H2S           -22.4169103358       46.0515449677       14.8066613058  MEMB      133             0.0000000000
     16640       133  PMPE      C3            -26.7762909958       45.9556229824       14.8177264173  MEMB      133             0.0000000000
     16641       133  PMPE      HX            -26.8265838967       46.9504869335       15.3772624454  MEMB      133             0.0000000000
     16642       133  PMPE      HY            -27.8682878213       45.6344354536       14.7209911641  MEMB      133             0.0000000000
     16643       133  PMPE      O31           -26.0572539090       46.0304643326       13.5457002200  MEMB      133             0.0000000000
     16644       133  PMPE      C31           -26.4776028502       45.5301200854       12.3989329896  MEMB      133             0.0000000000
     16645       133  PMPE      O32           -27.3761700170       44.7263098490       12.3164608041  MEMB      133             0.0000000000
     16646       133  PMPE      C32           -25.7241766196       46.1607984764       11.1817782918  MEMB      133             0.0000000000
     16647       133  PMPE      H2X           -24.6701533931       46.1502466064       11.3491024919  MEMB      133             0.0000000000
     16648       133  PMPE      H2Y           -25.9262096768       47.2030042108       11.0104057104  MEMB      133             0.0000000000
     16649       133  PMPE      C23           -21.8773417700       44.9332664135       13.0364344641  MEMB      133             0.0000000000
     16650       133  PMPE      H3R           -20.9049187100       45.4656892427       13.1705671511  MEMB      133             0.0000000000
     16651       133  PMPE      H3S           -22.3804201197       45.5396869328       12.2589982603  MEMB      133             0.0000000000
     16652       133  PMPE      C24           -21.5938503811       43.4890296921       12.5492292592  MEMB      133             0.0000000000
     16653       133  PMPE      H4R           -22.4917572645       42.9173791729       12.3488227121  MEMB      133             0.0000000000
     16654       133  PMPE      H4S           -21.0580633577       42.9642888679       13.3663979854  MEMB      133             0.0000000000
     16655       133  PMPE      C25           -20.8627988889       43.5189741570       11.2293707231  MEMB      133             0.0000000000
     16656       133  PMPE      H5R           -20.2222575444       42.6398588061       11.0162013683  MEMB      133             0.0000000000
     16657       133  PMPE      H5S           -20.4581467629       44.4344959010       11.5399942152  MEMB      133             0.0000000000
     16658       133  PMPE      C26           -21.5992497111       43.9499689947        9.9818973371  MEMB      133             0.0000000000
     16659       133  PMPE      H6R           -22.1890803649       44.8796954806       10.0627561099  MEMB      133             0.0000000000
     16660       133  PMPE      H6S           -22.3233301313       43.1377652058        9.9624896226  MEMB      133             0.0000000000
     16661       133  PMPE      C27           -20.7409061893       43.7936343851        8.7171328473  MEMB      133             0.0000000000
     16662       133  PMPE      H7R           -20.6983989555       42.6918438792        8.6028227408  MEMB      133             0.0000000000
     16663       133  PMPE      H7S           -19.7128108278       44.1698623427        8.9064245090  MEMB      133             0.0000000000
     16664       133  PMPE      C28           -21.2488562065       44.4777344196        7.4364247959  MEMB      133             0.0000000000
     16665       133  PMPE      H8R           -22.3260347287       44.3241139053        7.3168011519  MEMB      133             0.0000000000
     16666       133  PMPE      H8S           -20.7921923716       44.0390171689        6.5241113532  MEMB      133             0.0000000000
     16667       133  PMPE      C29           -20.8211747840       45.9072941272        7.4878831649  MEMB      133             0.0000000000
     16668       133  PMPE      H9R           -19.7420329170       46.0568705918        7.6548090161  MEMB      133             0.0000000000
     16669       133  PMPE      C217          -21.8005229093       46.9349343448        7.9808748804  MEMB      133             0.0000000000
     16670       133  PMPE      H17R          -21.4471970072       47.7388950838        8.4569338674  MEMB      133             0.0000000000
     16671       133  PMPE      H17S          -22.6813237007       46.5241749818        8.3927590824  MEMB      133             0.0000000000
     16672       133  PMPE      C210          -21.4208508779       46.8725886652        6.4959510415  MEMB      133             0.0000000000
     16673       133  PMPE      H10R          -20.5007147854       47.2709481188        6.0360160920  MEMB      133             0.0000000000
     16674       133  PMPE      C211          -22.6394760417       46.6907937955        5.4459410328  MEMB      133             0.0000000000
     16675       133  PMPE      H11R          -23.3063576164       46.2012434116        6.1958771609  MEMB      133             0.0000000000
     16676       133  PMPE      H11S          -22.3039174782       45.8369797366        4.8803197452  MEMB      133             0.0000000000
     16677       133  PMPE      C212          -23.1814185316       47.9939072486        4.2553175621  MEMB      133             0.0000000000
     16678       133  PMPE      H12R          -22.2039657786       48.0121805370        4.4004685344  MEMB      133             0.0000000000
     16679       133  PMPE      H12S          -23.2136775037       48.5764877422        5.0110081606  MEMB      133             0.0000000000
     16680       133  PMPE      C213          -24.7930555042       48.4723953467        3.2313140845  MEMB      133             0.0000000000
     16681       133  PMPE      H13R          -24.8808369433       48.9097794990        4.0726854419  MEMB      133             0.0000000000
     16682       133  PMPE      H13S          -25.4349705148       50.5124993171        0.5745386454  MEMB      133             0.0000000000
     16683       133  PMPE      C214          -25.5646273630       46.4489599675        2.3100219564  MEMB      133             0.0000000000
     16684       133  PMPE      H14R          -25.1604304099       45.7099159087        3.2593872358  MEMB      133             0.0000000000
     16685       133  PMPE      H14S          -23.3073774108       46.0266071539        2.0074831347  MEMB      133             0.0000000000
     16686       133  PMPE      C215          -29.1646419323       45.9301136266        0.4130568297  MEMB      133             0.0000000000
     16687       133  PMPE      H15R          -27.6596073424       46.0731029183        3.2799762140  MEMB      133             0.0000000000
     16688       133  PMPE      H15S          -27.7896709920       46.3615037723        0.1410560793  MEMB      133             0.0000000000
     16689       133  PMPE      C216          -24.9850019378       45.7855785217        1.4743063682  MEMB      133             0.0000000000
     16690       133  PMPE      H16R          -24.3644911908       47.3813437911        1.5279136075  MEMB      133             0.0000000000
     16691       133  PMPE      H16S          -23.6370576753       46.3683844107        0.6495716140  MEMB      133             0.0000000000
     16692       133  PMPE      H16T          -24.9239544470       44.0241205192        1.9545293511  MEMB      133             0.0000000000
     16693       133  PMPE      C33           -26.0822674194       45.4331209252        9.9451538266  MEMB      133             0.0000000000
     16694       133  PMPE      H3X           -27.2075507436       45.4941333799        9.9621739477  MEMB      133             0.0000000000
     16695       133  PMPE      H3Y           -25.5810104054       44.4682400881       10.1260275513  MEMB      133             0.0000000000
     16696       133  PMPE      C34           -25.4621735576       45.7589211404        8.6296966812  MEMB      133             0.0000000000
     16697       133  PMPE      H4X           -24.4228129175       45.4208673042        8.6989887115  MEMB      133             0.0000000000
     16698       133  PMPE      H4Y           -25.5983337700       46.8415590277        8.5807561777  MEMB      133             0.0000000000
     16699       133  PMPE      C35           -25.9305410462       45.1551042998        7.3350471000  MEMB      133             0.0000000000
     16700       133  PMPE      H5X           -25.3967129187       45.5526017956        6.5282039883  MEMB      133             0.0000000000
     16701       133  PMPE      H5Y           -27.0125990314       45.4837498416        7.2516026420  MEMB      133             0.0000000000
     16702       133  PMPE      C36           -25.6939246628       43.6978357184        7.0975938116  MEMB      133             0.0000000000
     16703       133  PMPE      H6X           -26.5247732143       43.5214307411        6.5908120383  MEMB      133             0.0000000000
     16704       133  PMPE      H6Y           -25.8528096895       43.1829014451        7.9028331577  MEMB      133             0.0000000000
     16705       133  PMPE      C37           -24.6942896466       42.6799639063        6.7492251117  MEMB      133             0.0000000000
     16706       133  PMPE      H7X           -25.1259247675       41.6266428753        6.6898092335  MEMB      133             0.0000000000
     16707       133  PMPE      H7Y           -23.9973939736       42.6299052938        7.5889060357  MEMB      133             0.0000000000
     16708       133  PMPE      C38           -24.1179492642       43.1883356712        5.4820927159  MEMB      133             0.0000000000
     16709       133  PMPE      H8X           -23.8250713576       44.2485214337        5.6195200223  MEMB      133             0.0000000000
     16710       133  PMPE      H8Y           -24.9416582006       43.1300370117        4.7372414250  MEMB      133             0.0000000000
     16711       133  PMPE      C39           -22.8818885182       42.4306072102        5.0537298750  MEMB      133             0.0000000000
     16712       133  PMPE      H9X           -23.1317006622       41.3340139719        5.2112071094  MEMB      133             0.0000000000
     16713       133  PMPE      H9Y           -21.9993569437       42.6842888586        5.6517185613  MEMB      133             0.0000000000
     16714       133  PMPE      C310          -22.2417146699       42.8051355152        3.6863448659  MEMB      133             0.0000000000
     16715       133  PMPE      H10X          -23.3129711524       42.4578530143        3.1729987436  MEMB      133             0.0000000000
     16716       133  PMPE      H10Y          -21.0941512627       42.3741722448        4.1084693047  MEMB      133             0.0000000000
     16717       133  PMPE      C311          -21.7763653740       44.2461580068        3.0818544702  MEMB      133             0.0000000000
     16718       133  PMPE      H11X          -21.1114070338       44.1025257494        3.8601323705  MEMB      133             0.0000000000
     16719       133  PMPE      H11Y          -22.7420734288       44.7010684212        3.1915765514  MEMB      133             0.0000000000
     16720       133  PMPE      C312          -21.1796677041       43.6820120353        1.7912438685  MEMB      133             0.0000000000
     16721       133  PMPE      H12X          -20.2897831704       43.0163077971        1.9356242323  MEMB      133             0.0000000000
     16722       133  PMPE      H12Y          -20.7862226022       44.6314147167        1.4820167026  MEMB      133             0.0000000000
     16723       133  PMPE      C313          -21.9899766901       43.0268572507        0.6205803121  MEMB      133             0.0000000000
     16724       133  PMPE      H13X          -22.2111736797       41.9431186369        0.7125620341  MEMB      133             0.0000000000
     16725       133  PMPE      H13Y          -21.4017074612       43.0067736154       -0.3133245094  MEMB      133             0.0000000000
     16726       133  PMPE      C314          -23.2052458138       43.7432899475        0.1504053186  MEMB      133             0.0000000000
     16727       133  PMPE      H14X          -23.0051542145       44.7890554968       -0.0952035122  MEMB      133             0.0000000000
     16728       133  PMPE      H14Y          -23.8619622753       43.9261831010        0.8137456689  MEMB      133             0.0000000000
     16729       133  PMPE      C315          -24.0118505613       42.9971675213       -0.9024212021  MEMB      133             0.0000000000
     16730       133  PMPE      H15X          -24.8423098472       43.5704444205       -1.2529330040  MEMB      133             0.0000000000
     16731       133  PMPE      H15Y          -24.5362353456       42.1433234878       -0.5811637514  MEMB      133             0.0000000000
     16732       133  PMPE      C316          -23.2778140752       42.5558802595       -2.0947925504  MEMB      133             0.0000000000
     16733       133  PMPE      H16X          -22.4934479271       41.8619516836       -1.9612572776  MEMB      133             0.0000000000
     16734       133  PMPE      H16Y          -22.6032948021       43.3163977556       -2.2513684647  MEMB      133             0.0000000000
     16735       133  PMPE      H16Z          -23.8477769339       42.4498604331       -3.0327634940  MEMB      133             0.0000000000
     16736       134  PMPE      N               7.5213986889       52.1348285556       17.9323413584  MEMB      134             0.0000000000
     16737       134  PMPE      HN1             7.5363841439       51.2918988243       17.3269156471  MEMB      134             0.0000000000
     16738       134  PMPE      HN2             8.5095332989       52.5268981426       17.9632304419  MEMB      134             0.0000000000
     16739       134  PMPE      HN3             7.4804114894       51.7560516784       18.9112048178  MEMB      134             0.0000000000
     16740       134  PMPE      C12             6.5268540827       53.1173783235       17.6671454491  MEMB      134             0.0000000000
     16741       134  PMPE      H12A            6.6143002496       53.2922361965       16.5829893684  MEMB      134             0.0000000000
     16742       134  PMPE      H12B            6.7429339425       54.0037569167       18.2951149840  MEMB      134             0.0000000000
     16743       134  PMPE      C11             5.2097241798       52.4782711120       17.9306167171  MEMB      134             0.0000000000
     16744       134  PMPE      H11A            5.1731233464       51.5651259403       17.2765837187  MEMB      134             0.0000000000
     16745       134  PMPE      H11B            4.4667891162       53.2166997332       17.5836279112  MEMB      134             0.0000000000
     16746       134  PMPE      P               3.8685103970       51.2179055581       19.7502462892  MEMB      134             0.0000000000
     16747       134  PMPE      O13             2.7351298224       51.9634385547       20.3375067479  MEMB      134             0.0000000000
     16748       134  PMPE      O14             4.4677968181       50.1565636733       20.5769430900  MEMB      134             0.0000000000
     16749       134  PMPE      O11             3.4301804975       50.5398359511       18.3660859843  MEMB      134             0.0000000000
     16750       134  PMPE      O12             5.0378654104       52.2348429004       19.3214056646  MEMB      134             0.0000000000
     16751       134  PMPE      C1              3.7137601692       49.1542373842       18.0996795585  MEMB      134             0.0000000000
     16752       134  PMPE      HA              3.3140318064       48.4622729317       18.8753978595  MEMB      134             0.0000000000
     16753       134  PMPE      HB              4.8139705250       48.9643753375       18.0956171869  MEMB      134             0.0000000000
     16754       134  PMPE      C2              3.0635153246       48.6903415758       16.7648848610  MEMB      134             0.0000000000
     16755       134  PMPE      HS              3.3576984435       47.6253462274       16.6390907681  MEMB      134             0.0000000000
     16756       134  PMPE      O21             3.5098872005       49.5301780706       15.6844101979  MEMB      134             0.0000000000
     16757       134  PMPE      C21             4.7464670250       49.3002643271       15.2652355614  MEMB      134             0.0000000000
     16758       134  PMPE      O22             5.4181722066       48.3482889872       15.6176260128  MEMB      134             0.0000000000
     16759       134  PMPE      C22             5.2365572477       50.4339471868       14.3650293304  MEMB      134             0.0000000000
     16760       134  PMPE      H2R             4.8476217741       51.3958136088       14.7677617800  MEMB      134             0.0000000000
     16761       134  PMPE      H2S             4.9064733160       50.2257036499       13.3123967362  MEMB      134             0.0000000000
     16762       134  PMPE      C3              1.5026879801       48.6769088112       16.7822425962  MEMB      134             0.0000000000
     16763       134  PMPE      HX              1.1983712864       48.0012127056       17.5974047183  MEMB      134             0.0000000000
     16764       134  PMPE      HY              1.0917661405       48.2222677589       15.8398083836  MEMB      134             0.0000000000
     16765       134  PMPE      O31             0.9894596027       49.9809885281       17.0966977773  MEMB      134             0.0000000000
     16766       134  PMPE      C31             1.0784471829       50.8307486430       16.0425517528  MEMB      134             0.0000000000
     16767       134  PMPE      O32             1.1205428190       50.4287866833       14.9084999016  MEMB      134             0.0000000000
     16768       134  PMPE      C32             0.5926890236       52.2126221165       16.3856006392  MEMB      134             0.0000000000
     16769       134  PMPE      H2X             0.3971144180       52.3047253805       17.4654480152  MEMB      134             0.0000000000
     16770       134  PMPE      H2Y            -0.3714768583       52.4768934467       15.9431670822  MEMB      134             0.0000000000
     16771       134  PMPE      C23             6.7503281586       50.5524968306       14.3341637682  MEMB      134             0.0000000000
     16772       134  PMPE      H3R             7.3399728972       50.0385342036       15.1261778071  MEMB      134             0.0000000000
     16773       134  PMPE      H3S             7.0278394503       51.6371438763       14.3721201524  MEMB      134             0.0000000000
     16774       134  PMPE      C24             7.2473927500       50.1123301416       13.0311570334  MEMB      134             0.0000000000
     16775       134  PMPE      H4R             6.8104531370       50.5861132734       12.1371922336  MEMB      134             0.0000000000
     16776       134  PMPE      H4S             7.1758060751       48.9952221892       12.8209556895  MEMB      134             0.0000000000
     16777       134  PMPE      C25             8.5870010495       50.7409556052       13.1282020996  MEMB      134             0.0000000000
     16778       134  PMPE      H5R             8.7754927919       49.8209449461       12.7530998460  MEMB      134             0.0000000000
     16779       134  PMPE      H5S             9.5265344048       50.5691634331       13.6419826138  MEMB      134             0.0000000000
     16780       134  PMPE      C26             8.9696758945       52.0586292186       12.5623646556  MEMB      134             0.0000000000
     16781       134  PMPE      H6R            10.0815901095       52.0812035987       12.3841934884  MEMB      134             0.0000000000
     16782       134  PMPE      H6S             8.6265299570       52.6040666369       13.4286751982  MEMB      134             0.0000000000
     16783       134  PMPE      C27             8.4152286595       52.7473201479       11.3376567795  MEMB      134             0.0000000000
     16784       134  PMPE      H7R             9.1428817991       53.5351792878       11.0836718286  MEMB      134             0.0000000000
     16785       134  PMPE      H7S             7.3714094835       52.9829842080       11.4205472595  MEMB      134             0.0000000000
     16786       134  PMPE      C28             8.1749698034       52.0913310971       10.0942842969  MEMB      134             0.0000000000
     16787       134  PMPE      H8R             7.6133775878       51.1051090972       10.2867267622  MEMB      134             0.0000000000
     16788       134  PMPE      H8S             9.3141993794       52.1803897281        9.7833953580  MEMB      134             0.0000000000
     16789       134  PMPE      C29             7.9134543681       52.5382777758        8.7250946770  MEMB      134             0.0000000000
     16790       134  PMPE      H9R             8.4589161187       53.4547944161        8.5346605114  MEMB      134             0.0000000000
     16791       134  PMPE      C217            6.4314135067       52.7170855409        8.9385062327  MEMB      134             0.0000000000
     16792       134  PMPE      H17R            6.0715790573       53.6823137381        8.6971421224  MEMB      134             0.0000000000
     16793       134  PMPE      H17S            6.0381118303       52.0594486704        9.7162668168  MEMB      134             0.0000000000
     16794       134  PMPE      C210            6.9090579229       52.0350928651        7.7132686777  MEMB      134             0.0000000000
     16795       134  PMPE      H10R            6.9669647973       52.5610059420        6.7629033992  MEMB      134             0.0000000000
     16796       134  PMPE      C211            6.4556760352       50.6601985425        7.6178094883  MEMB      134             0.0000000000
     16797       134  PMPE      H11R            5.6363232037       50.3560746673        6.9915606507  MEMB      134             0.0000000000
     16798       134  PMPE      H11S            6.2372850151       50.2458794137        8.6350074789  MEMB      134             0.0000000000
     16799       134  PMPE      C212            7.4345675356       49.9826970084        6.9434296892  MEMB      134             0.0000000000
     16800       134  PMPE      H12R            6.8930597352       49.0799779620        7.4200788118  MEMB      134             0.0000000000
     16801       134  PMPE      H12S            8.3123665424       50.4279867741        7.3151864753  MEMB      134             0.0000000000
     16802       134  PMPE      C213            7.8664993283       49.9733091699        5.6421719438  MEMB      134             0.0000000000
     16803       134  PMPE      H13R            7.0747901064       49.6287573224        5.0660879760  MEMB      134             0.0000000000
     16804       134  PMPE      H13S            8.2193473992       49.0672786360        5.7408374969  MEMB      134             0.0000000000
     16805       134  PMPE      C214            8.9987460025       50.8874611196        5.3033363171  MEMB      134             0.0000000000
     16806       134  PMPE      H14R           10.0008228127       50.6961760264        5.8059964362  MEMB      134             0.0000000000
     16807       134  PMPE      H14S            8.6786346499       51.8543056048        5.5993714762  MEMB      134             0.0000000000
     16808       134  PMPE      C215            9.1084625719       50.7531383504        3.8736779239  MEMB      134             0.0000000000
     16809       134  PMPE      H15R            8.2496904254       50.5181401054        3.2265137160  MEMB      134             0.0000000000
     16810       134  PMPE      H15S            9.8839011185       50.0054981528        3.8049199822  MEMB      134             0.0000000000
     16811       134  PMPE      C216            9.7002591033       51.8087807044        3.3192528936  MEMB      134             0.0000000000
     16812       134  PMPE      H16R           10.5300384064       52.0635525557        3.9765517298  MEMB      134             0.0000000000
     16813       134  PMPE      H16S           10.0553152382       51.3380865467        2.3941690717  MEMB      134             0.0000000000
     16814       134  PMPE      H16T            9.0904269308       52.6582289452        3.0396076299  MEMB      134             0.0000000000
     16815       134  PMPE      C33             1.6323296487       53.1482215004       15.7699522184  MEMB      134             0.0000000000
     16816       134  PMPE      H3X             2.6447729263       52.7636901734       15.9349881042  MEMB      134             0.0000000000
     16817       134  PMPE      H3Y             1.4342054043       54.1139247163       16.2450068524  MEMB      134             0.0000000000
     16818       134  PMPE      C34             1.6816786735       53.4652188041       14.2824298485  MEMB      134             0.0000000000
     16819       134  PMPE      H4X             1.3425149815       54.4199984897       13.8969589005  MEMB      134             0.0000000000
     16820       134  PMPE      H4Y             0.9680924716       52.9378954023       13.9449139634  MEMB      134             0.0000000000
     16821       134  PMPE      C35             2.4763300740       52.5543738064       13.3501301027  MEMB      134             0.0000000000
     16822       134  PMPE      H5X             2.6789100554       51.5901714890       13.8332201324  MEMB      134             0.0000000000
     16823       134  PMPE      H5Y             3.4170884727       53.0727378833       13.3768481896  MEMB      134             0.0000000000
     16824       134  PMPE      C36             1.8323960074       52.1818527625       11.9740588816  MEMB      134             0.0000000000
     16825       134  PMPE      H6X             0.8513166801       51.6837019613       12.1393581952  MEMB      134             0.0000000000
     16826       134  PMPE      H6Y             2.4672096895       51.4405498610       11.4471870883  MEMB      134             0.0000000000
     16827       134  PMPE      C37             1.5315943808       53.3864456366       11.0866385960  MEMB      134             0.0000000000
     16828       134  PMPE      H7X             2.4629495135       53.9735008589       11.0479251691  MEMB      134             0.0000000000
     16829       134  PMPE      H7Y             0.7876220049       54.0150202723       11.6237276998  MEMB      134             0.0000000000
     16830       134  PMPE      C38             1.0250645953       53.1101285717        9.6546037768  MEMB      134             0.0000000000
     16831       134  PMPE      H8X             0.3760146601       53.9780517037        9.4104247502  MEMB      134             0.0000000000
     16832       134  PMPE      H8Y             0.3562889371       52.2304883607        9.5631101872  MEMB      134             0.0000000000
     16833       134  PMPE      C39             2.1410244738       53.0886562974        8.5995010942  MEMB      134             0.0000000000
     16834       134  PMPE      H9X             2.7499947646       52.1661903349        8.7120476508  MEMB      134             0.0000000000
     16835       134  PMPE      H9Y             2.8238009536       53.9396743150        8.8075078627  MEMB      134             0.0000000000
     16836       134  PMPE      C310            1.5859002056       53.2939404659        7.1849344507  MEMB      134             0.0000000000
     16837       134  PMPE      H10X            0.9940695961       54.2450080981        7.1933462973  MEMB      134             0.0000000000
     16838       134  PMPE      H10Y            0.8339820864       52.5141934351        6.9436020218  MEMB      134             0.0000000000
     16839       134  PMPE      C311            2.6904531328       53.2020200795        6.1071858269  MEMB      134             0.0000000000
     16840       134  PMPE      H11X            3.4773849093       53.9732091422        6.2633125475  MEMB      134             0.0000000000
     16841       134  PMPE      H11Y            2.1817321754       53.4404162973        5.1474102803  MEMB      134             0.0000000000
     16842       134  PMPE      C312            3.2814135456       51.7737451103        5.9578910195  MEMB      134             0.0000000000
     16843       134  PMPE      H12X            2.4153510768       51.0730641901        6.0153960959  MEMB      134             0.0000000000
     16844       134  PMPE      H12Y            3.9690698748       51.4366715885        6.7591767791  MEMB      134             0.0000000000
     16845       134  PMPE      C313            3.9857667249       51.4655577859        4.6193000353  MEMB      134             0.0000000000
     16846       134  PMPE      H13X            3.1865722067       51.4584564108        3.8477119012  MEMB      134             0.0000000000
     16847       134  PMPE      H13Y            4.3188484668       50.4156112588        4.7629360766  MEMB      134             0.0000000000
     16848       134  PMPE      C314            5.1659070169       52.3924762195        4.2058491310  MEMB      134             0.0000000000
     16849       134  PMPE      H14X            6.0572802037       52.2505742563        4.8763793804  MEMB      134             0.0000000000
     16850       134  PMPE      H14Y            4.7694120379       53.4337791087        4.1857016885  MEMB      134             0.0000000000
     16851       134  PMPE      C315            5.7792681214       52.1924439625        2.8013959924  MEMB      134             0.0000000000
     16852       134  PMPE      H15X            5.9106764394       51.1178735503        2.6337941404  MEMB      134             0.0000000000
     16853       134  PMPE      H15Y            6.8305284914       52.5627100263        2.7953889991  MEMB      134             0.0000000000
     16854       134  PMPE      C316            5.0414348510       52.8086944147        1.6174253604  MEMB      134             0.0000000000
     16855       134  PMPE      H16X            5.4261766228       52.3977117648        0.6592258615  MEMB      134             0.0000000000
     16856       134  PMPE      H16Y            5.2224439676       53.9017437349        1.5675699827  MEMB      134             0.0000000000
     16857       134  PMPE      H16Z            3.9545653121       52.6033874920        1.6312347402  MEMB      134             0.0000000000
     16858       135  QMPE      N              -3.1546421266       53.4866904765       21.6776927752  MEMB      135             0.0000000000
     16859       135  QMPE      HN1            -3.4920712435       53.9134804519       20.7854429904  MEMB      135             0.0000000000
     16860       135  QMPE      HN2            -3.8529151383       53.5357018862       22.4442579276  MEMB      135             0.0000000000
     16861       135  QMPE      HN3            -2.2917876696       54.0134241835       21.9427261155  MEMB      135             0.0000000000
     16862       135  QMPE      C12            -2.8898125773       52.0225296205       21.3951583167  MEMB      135             0.0000000000
     16863       135  QMPE      H12A           -3.1915167649       51.4682608304       22.2986395385  MEMB      135             0.0000000000
     16864       135  QMPE      H12B           -1.7825646478       51.9876442079       21.3165765543  MEMB      135             0.0000000000
     16865       135  QMPE      C11            -3.7648147813       51.4880367042       20.2276176256  MEMB      135             0.0000000000
     16866       135  QMPE      H11A           -4.8358885004       51.7499747377       20.4141032896  MEMB      135             0.0000000000
     16867       135  QMPE      H11B           -3.7197276215       50.3692694768       20.0689319250  MEMB      135             0.0000000000
     16868       135  QMPE      P              -3.9304091385       51.5658652316       17.6665816646  MEMB      135             0.0000000000
     16869       135  QMPE      O13            -3.9807709195       52.6421728729       16.6723169261  MEMB      135             0.0000000000
     16870       135  QMPE      O14            -5.1503164817       50.7864660168       17.9129218216  MEMB      135             0.0000000000
     16871       135  QMPE      O11            -2.7433700703       50.5616503940       17.4184830885  MEMB      135             0.0000000000
     16872       135  QMPE      O12            -3.4023347317       52.1818070355       19.0508476994  MEMB      135             0.0000000000
     16873       135  QMPE      C1             -2.6433744388       49.6688188614       16.2992228043  MEMB      135             0.0000000000
     16874       135  QMPE      HA             -3.5916394894       49.4321124151       15.7792075878  MEMB      135             0.0000000000
     16875       135  QMPE      HB             -2.1260515392       48.7700789383       16.6920696546  MEMB      135             0.0000000000
     16876       135  QMPE      C2             -1.6502019105       50.2304530598       15.3156825217  MEMB      135             0.0000000000
     16877       135  QMPE      HS             -0.9606366426       50.4119236762       16.0812269790  MEMB      135             0.0000000000
     16878       135  QMPE      O21            -2.3293522219       51.4007185948       14.8688981001  MEMB      135             0.0000000000
     16879       135  QMPE      C21            -1.7989797755       52.3430085928       14.1603651010  MEMB      135             0.0000000000
     16880       135  QMPE      O22            -0.7522450283       52.2700340046       13.6594530197  MEMB      135             0.0000000000
     16881       135  QMPE      C22            -2.6070899038       53.5036188903       13.6931674966  MEMB      135             0.0000000000
     16882       135  QMPE      H2R            -2.0990702125       53.8863138911       12.7577294623  MEMB      135             0.0000000000
     16883       135  QMPE      H2S            -2.7232706792       54.2913388601       14.4463740891  MEMB      135             0.0000000000
     16884       135  QMPE      C3             -1.1086918664       49.3028984032       14.1551278811  MEMB      135             0.0000000000
     16885       135  QMPE      HX             -0.6926021603       48.3870526540       14.6642386816  MEMB      135             0.0000000000
     16886       135  QMPE      HY             -0.2722817803       49.7047413740       13.5507731927  MEMB      135             0.0000000000
     16887       135  QMPE      O31            -2.0792302334       48.9742962058       13.2165485733  MEMB      135             0.0000000000
     16888       135  QMPE      C31            -2.1321416820       49.7251688588       12.1261021084  MEMB      135             0.0000000000
     16889       135  QMPE      O32            -1.3965335007       50.6297424086       11.7887778809  MEMB      135             0.0000000000
     16890       135  QMPE      C32            -3.3330558261       49.2636732483       11.3259628942  MEMB      135             0.0000000000
     16891       135  QMPE      H2X            -3.2525133168       48.1921241870       11.0907132517  MEMB      135             0.0000000000
     16892       135  QMPE      H2Y            -4.2113618688       49.4313226827       11.9994187149  MEMB      135             0.0000000000
     16893       135  QMPE      C23            -3.9041635854       52.9002136640       13.2164387233  MEMB      135             0.0000000000
     16894       135  QMPE      H3R            -4.3891829914       52.3297262589       14.0417490910  MEMB      135             0.0000000000
     16895       135  QMPE      H3S            -3.5967457148       52.1784091194       12.4302357714  MEMB      135             0.0000000000
     16896       135  QMPE      C24            -4.9281106986       53.8642783642       12.6288822416  MEMB      135             0.0000000000
     16897       135  QMPE      H4R            -4.5264692495       54.4592175666       11.7746246959  MEMB      135             0.0000000000
     16898       135  QMPE      H4S            -5.2862549548       54.5464661091       13.4364492152  MEMB      135             0.0000000000
     16899       135  QMPE      C25            -6.1839604589       53.1246696823       12.1580131768  MEMB      135             0.0000000000
     16900       135  QMPE      H5R            -7.0180177166       53.8598232408       12.1840422818  MEMB      135             0.0000000000
     16901       135  QMPE      H5S            -6.4427783943       52.3031963300       12.8569714872  MEMB      135             0.0000000000
     16902       135  QMPE      C26            -6.0436083671       52.4769058541       10.8053047629  MEMB      135             0.0000000000
     16903       135  QMPE      H6R            -5.4838124226       51.5116681558       10.9207817598  MEMB      135             0.0000000000
     16904       135  QMPE      H6S            -5.5435298540       53.1738462638       10.0980843368  MEMB      135             0.0000000000
     16905       135  QMPE      C27            -7.3640905220       52.0747034309       10.2895198058  MEMB      135             0.0000000000
     16906       135  QMPE      H7R            -8.1459404615       52.8386856006       10.2077747847  MEMB      135             0.0000000000
     16907       135  QMPE      H7S            -7.7316843859       51.2043705065       10.9206340459  MEMB      135             0.0000000000
     16908       135  QMPE      C28            -7.1511897241       51.5720810934        8.9534169713  MEMB      135             0.0000000000
     16909       135  QMPE      H8R            -8.2452915132       51.1964472616        8.8982203695  MEMB      135             0.0000000000
     16910       135  QMPE      H8S            -6.2774200322       50.8255231725        9.2468472976  MEMB      135             0.0000000000
     16911       135  QMPE      C29            -6.3179073697       51.9280762494        7.6787921297  MEMB      135             0.0000000000
     16912       135  QMPE      H9R            -5.5436618768       52.5135333939        8.0323185697  MEMB      135             0.0000000000
     16913       135  QMPE      C217           -7.1111582676       52.6260112046        6.7495449725  MEMB      135             0.0000000000
     16914       135  QMPE      H17R           -7.9556888212       52.1043044619        6.6971356927  MEMB      135             0.0000000000
     16915       135  QMPE      H17S           -7.0153938344       53.6156964961        6.3922712695  MEMB      135             0.0000000000
     16916       135  QMPE      C210           -6.3551513473       51.6270363967        6.0508551476  MEMB      135             0.0000000000
     16917       135  QMPE      H10R           -5.4490386922       51.7604245200        5.6489242684  MEMB      135             0.0000000000
     16918       135  QMPE      C211           -6.8154905064       50.3346274654        5.5731002025  MEMB      135             0.0000000000
     16919       135  QMPE      H11R           -6.3312776406       50.1170146415        6.4123812238  MEMB      135             0.0000000000
     16920       135  QMPE      H11S           -7.8204431362       50.5284384164        5.7071177208  MEMB      135             0.0000000000
     16921       135  QMPE      C212           -6.5258367993       49.3387668039        4.5667222120  MEMB      135             0.0000000000
     16922       135  QMPE      H12R           -7.0678744967       48.3366572257        4.7580232861  MEMB      135             0.0000000000
     16923       135  QMPE      H12S           -5.5142963481       49.3010096211        4.6555249521  MEMB      135             0.0000000000
     16924       135  QMPE      C213           -6.7235188031       50.3309625290        3.4364926503  MEMB      135             0.0000000000
     16925       135  QMPE      H13R           -7.4621526544       51.1412647781        3.4677840362  MEMB      135             0.0000000000
     16926       135  QMPE      H13S           -7.3073384856       49.7300460377        3.2775953438  MEMB      135             0.0000000000
     16927       135  QMPE      C214           -6.0903974028       50.0248018103        2.2323936998  MEMB      135             0.0000000000
     16928       135  QMPE      H14R           -6.0291657513       48.9848752862        1.9391709068  MEMB      135             0.0000000000
     16929       135  QMPE      H14S           -5.4348487312       50.4197441219        2.9014846036  MEMB      135             0.0000000000
     16930       135  QMPE      C215           -6.4334624361       50.8563594947        1.2100339936  MEMB      135             0.0000000000
     16931       135  QMPE      H15R           -6.5002889093       51.8775498483        1.3895374923  MEMB      135             0.0000000000
     16932       135  QMPE      H15S           -7.3575437355       50.7821849374        1.2827853577  MEMB      135             0.0000000000
     16933       135  QMPE      C216           -5.9247672901       50.2836072338        0.0341187719  MEMB      135             0.0000000000
     16934       135  QMPE      H16R           -6.0621367880       50.8815072579       -0.6835501710  MEMB      135             0.0000000000
     16935       135  QMPE      H16S           -6.3661081619       49.5517944475       -0.6400463982  MEMB      135             0.0000000000
     16936       135  QMPE      H16T           -4.9240065632       50.5807772063        0.0830705267  MEMB      135             0.0000000000
     16937       135  QMPE      C33            -3.4348622551       50.0215746976        9.9897641563  MEMB      135             0.0000000000
     16938       135  QMPE      H3X            -3.4167119218       51.1014390502       10.2374898363  MEMB      135             0.0000000000
     16939       135  QMPE      H3Y            -4.4196967260       49.8086512272        9.5053080091  MEMB      135             0.0000000000
     16940       135  QMPE      C34            -2.3453449600       49.7527522976        8.9183298223  MEMB      135             0.0000000000
     16941       135  QMPE      H4X            -2.3907801184       48.6852787920        8.6830355215  MEMB      135             0.0000000000
     16942       135  QMPE      H4Y            -1.2915906277       49.8240829026        9.2866794518  MEMB      135             0.0000000000
     16943       135  QMPE      C35            -2.6598283578       50.6725351823        7.6875841429  MEMB      135             0.0000000000
     16944       135  QMPE      H5X            -2.2896381152       51.6766890315        7.8672407454  MEMB      135             0.0000000000
     16945       135  QMPE      H5Y            -3.7604262304       50.7484165241        7.4868668595  MEMB      135             0.0000000000
     16946       135  QMPE      C36            -2.1303687734       50.2976121154        6.3264547118  MEMB      135             0.0000000000
     16947       135  QMPE      H6X            -2.6940139511       49.3678592327        6.4434001771  MEMB      135             0.0000000000
     16948       135  QMPE      H6Y            -1.0350245523       50.1760220532        6.2517010714  MEMB      135             0.0000000000
     16949       135  QMPE      C37            -2.6129602809       51.1201307740        5.1159689417  MEMB      135             0.0000000000
     16950       135  QMPE      H7X            -3.5628123314       51.5890429925        5.4162040556  MEMB      135             0.0000000000
     16951       135  QMPE      H7Y            -1.8424851192       51.9059094219        4.9703372522  MEMB      135             0.0000000000
     16952       135  QMPE      C38            -2.8380435216       50.2824126596        3.8461389868  MEMB      135             0.0000000000
     16953       135  QMPE      H8X            -1.9818026028       49.5796866347        3.7339083322  MEMB      135             0.0000000000
     16954       135  QMPE      H8Y            -3.7928154414       49.7491506146        3.9408688819  MEMB      135             0.0000000000
     16955       135  QMPE      C39            -2.9066205980       50.9329876095        2.5088531681  MEMB      135             0.0000000000
     16956       135  QMPE      H9X            -3.1658875131       50.1659334906        1.7362638725  MEMB      135             0.0000000000
     16957       135  QMPE      H9Y            -1.8865073556       51.2717402419        2.5056147596  MEMB      135             0.0000000000
     16958       135  QMPE      C310           -3.6589822496       52.2352072141        2.4554714287  MEMB      135             0.0000000000
     16959       135  QMPE      H10X           -3.2713932582       52.8803146563        3.2660366152  MEMB      135             0.0000000000
     16960       135  QMPE      H10Y           -4.7102622036       52.0951558032        2.7038087475  MEMB      135             0.0000000000
     16961       135  QMPE      C311           -3.5820051383       52.9895582578        1.1384534627  MEMB      135             0.0000000000
     16962       135  QMPE      H11X           -4.1622598221       52.4616565614        0.3487653676  MEMB      135             0.0000000000
     16963       135  QMPE      H11Y           -2.5370457163       53.0493896191        0.7730542548  MEMB      135             0.0000000000
     16964       135  QMPE      C312           -4.1458157428       54.3905670714        1.3296035067  MEMB      135             0.0000000000
     16965       135  QMPE      H12X           -3.3850017504       55.0811119730        1.7389973268  MEMB      135             0.0000000000
     16966       135  QMPE      H12Y           -5.0597273354       54.3676809574        1.9392481395  MEMB      135             0.0000000000
     16967       135  QMPE      C313           -4.6197150337       54.9037516980        0.0686136319  MEMB      135             0.0000000000
     16968       135  QMPE      H13X           -5.4110948945       54.2261804679       -0.2632196163  MEMB      135             0.0000000000
     16969       135  QMPE      H13Y           -4.9370063133       55.9798089090        0.1663195976  MEMB      135             0.0000000000
     16970       135  QMPE      C314           -3.5141603434       54.6859107462       -0.8451068918  MEMB      135             0.0000000000
     16971       135  QMPE      H14X           -3.1824760959       53.7645356824       -1.2927641591  MEMB      135             0.0000000000
     16972       135  QMPE      H14Y           -2.8361298628       55.4048925968       -0.4837002013  MEMB      135             0.0000000000
     16973       135  QMPE      C315           -3.5852635281       55.3251327593       -1.9227575854  MEMB      135             0.0000000000
     16974       135  QMPE      H15X           -3.1408196179       55.4567687768       -2.8775275224  MEMB      135             0.0000000000
     16975       135  QMPE      H15Y           -3.8654716181       54.6419645623       -2.8659483350  MEMB      135             0.0000000000
     16976       135  QMPE      H15Z           -3.8425594640       56.4166220874       -1.7155676041  MEMB      135             0.0000000000
     16977       136  PMPG      C13            20.4126445642      -47.5932306542       16.9643528210  MEMB      136             0.0000000000
     16978       136  PMPG      H13A           21.0966350519      -47.9399638706       16.1611305327  MEMB      136             0.0000000000
     16979       136  PMPG      H13B           19.4389500401      -48.1301311539       16.8609593820  MEMB      136             0.0000000000
     16980       136  PMPG      OC3            20.1970091536      -46.1904063480       16.8144170775  MEMB      136             0.0000000000
     16981       136  PMPG      HO3            19.2982662802      -46.0227423589       17.1266627618  MEMB      136             0.0000000000
     16982       136  PMPG      C12            21.1425658948      -47.9406355261       18.2883691433  MEMB      136             0.0000000000
     16983       136  PMPG      H12A           21.3228287163      -49.0386694449       18.3033349045  MEMB      136             0.0000000000
     16984       136  PMPG      OC2            20.3698007470      -47.5763794081       19.4260873743  MEMB      136             0.0000000000
     16985       136  PMPG      HO2            21.0154436533      -47.6588005527       20.1373440609  MEMB      136             0.0000000000
     16986       136  PMPG      C11            22.5372365853      -47.3211655421       18.4480334101  MEMB      136             0.0000000000
     16987       136  PMPG      H11A           22.4392803314      -46.2340664114       18.2368331188  MEMB      136             0.0000000000
     16988       136  PMPG      H11B           23.1900876167      -47.8327414405       17.7028500035  MEMB      136             0.0000000000
     16989       136  PMPG      P              24.5005814119      -47.1187549575       20.1048273383  MEMB      136             0.0000000000
     16990       136  PMPG      O13            24.9925966758      -47.9975692666       21.1881348735  MEMB      136             0.0000000000
     16991       136  PMPG      O14            24.5224081281      -45.6597692929       20.3649746694  MEMB      136             0.0000000000
     16992       136  PMPG      O11            25.2568016788      -47.4704566229       18.7424118469  MEMB      136             0.0000000000
     16993       136  PMPG      O12            23.0203069058      -47.5707425045       19.7707249021  MEMB      136             0.0000000000
     16994       136  PMPG      C1             26.6855374118      -47.5790768826       18.8096272823  MEMB      136             0.0000000000
     16995       136  PMPG      HA             26.9761186165      -48.1652360599       19.7083054470  MEMB      136             0.0000000000
     16996       136  PMPG      HB             27.1614860898      -46.5605343706       18.8130431044  MEMB      136             0.0000000000
     16997       136  PMPG      C2             27.2556206184      -48.3514942244       17.5886336439  MEMB      136             0.0000000000
     16998       136  PMPG      HS             28.3792451310      -48.3315959505       17.6213763565  MEMB      136             0.0000000000
     16999       136  PMPG      O21            26.7684429399      -47.8140614026       16.3738524600  MEMB      136             0.0000000000
     17000       136  PMPG      C21            27.0991174453      -46.7112535203       16.0599945118  MEMB      136             0.0000000000
     17001       136  PMPG      O22            28.0225248232      -46.1055591160       16.6285790264  MEMB      136             0.0000000000
     17002       136  PMPG      C22            26.3547610594      -46.5229891659       14.5938915700  MEMB      136             0.0000000000
     17003       136  PMPG      H2R            26.2826511316      -45.5358760041       14.1277834917  MEMB      136             0.0000000000
     17004       136  PMPG      H2S            25.3104019248      -46.5956862898       14.7077881419  MEMB      136             0.0000000000
     17005       136  PMPG      C3             26.8436086170      -49.8233445180       17.4820590888  MEMB      136             0.0000000000
     17006       136  PMPG      HX             26.9067430579      -50.3725607539       18.4299621543  MEMB      136             0.0000000000
     17007       136  PMPG      HY             27.5756146666      -50.2709001776       16.7566225394  MEMB      136             0.0000000000
     17008       136  PMPG      O31            25.4377875560      -49.8994156902       17.1060211582  MEMB      136             0.0000000000
     17009       136  PMPG      C31            25.1861752436      -49.7308318786       15.7872565068  MEMB      136             0.0000000000
     17010       136  PMPG      O32            26.0290892661      -49.7740566578       14.9174764509  MEMB      136             0.0000000000
     17011       136  PMPG      C32            23.7360422463      -50.2958097393       15.5676296255  MEMB      136             0.0000000000
     17012       136  PMPG      H2X            23.2167303964      -49.4009541016       15.5830493498  MEMB      136             0.0000000000
     17013       136  PMPG      H2Y            23.2999832207      -51.0013573071       16.3329482558  MEMB      136             0.0000000000
     17014       136  PMPG      C23            26.8970925046      -47.2978249419       13.4072217870  MEMB      136             0.0000000000
     17015       136  PMPG      H3R            26.7427218872      -48.3139876126       13.7205100117  MEMB      136             0.0000000000
     17016       136  PMPG      H3S            27.9734984215      -47.1446554203       13.2090651294  MEMB      136             0.0000000000
     17017       136  PMPG      C24            26.3891133536      -46.8437622349       12.0492012848  MEMB      136             0.0000000000
     17018       136  PMPG      H4R            27.0498373535      -46.0329201729       11.7373543896  MEMB      136             0.0000000000
     17019       136  PMPG      H4S            25.3754002099      -46.4741364927       12.1307533175  MEMB      136             0.0000000000
     17020       136  PMPG      C25            26.3733930944      -47.8826759913       10.9765406662  MEMB      136             0.0000000000
     17021       136  PMPG      H5R            26.0233915374      -48.8624648924       11.3741756088  MEMB      136             0.0000000000
     17022       136  PMPG      H5S            27.3649235470      -47.9803004431       10.4723615860  MEMB      136             0.0000000000
     17023       136  PMPG      C26            25.8792548450      -47.7479652650        9.6381811250  MEMB      136             0.0000000000
     17024       136  PMPG      H6R            24.8361032665      -47.4804903871        9.8509178317  MEMB      136             0.0000000000
     17025       136  PMPG      H6S            26.0418855796      -48.7042982665        9.1141675375  MEMB      136             0.0000000000
     17026       136  PMPG      C27            26.6198502131      -46.7789293475        8.8460227890  MEMB      136             0.0000000000
     17027       136  PMPG      H7R            26.8127785888      -47.0653720252        7.7817893364  MEMB      136             0.0000000000
     17028       136  PMPG      H7S            27.6144618777      -46.4084995506        9.2219671050  MEMB      136             0.0000000000
     17029       136  PMPG      C28            25.5611879929      -45.7267046555        8.9851817591  MEMB      136             0.0000000000
     17030       136  PMPG      H8R            26.2227205097      -44.9534250362        9.0238325587  MEMB      136             0.0000000000
     17031       136  PMPG      H8S            25.3592509529      -45.1853257375        9.8827068563  MEMB      136             0.0000000000
     17032       136  PMPG      C29            24.3540491077      -45.7490006243        7.9625213271  MEMB      136             0.0000000000
     17033       136  PMPG      H9R            23.5623931922      -46.1968414475        8.5333814850  MEMB      136             0.0000000000
     17034       136  PMPG      C217           23.9545286961      -44.7050915774        6.8289278359  MEMB      136             0.0000000000
     17035       136  PMPG      H17R           22.9616016985      -44.4194890475        6.8807753155  MEMB      136             0.0000000000
     17036       136  PMPG      H17S           24.6037605891      -43.8971974490        6.5666076535  MEMB      136             0.0000000000
     17037       136  PMPG      C210           24.3832796617      -46.1469858988        6.4568583381  MEMB      136             0.0000000000
     17038       136  PMPG      H10R           23.4707918515      -46.5585899745        6.0277885255  MEMB      136             0.0000000000
     17039       136  PMPG      C211           25.5964900655      -46.2708249603        5.4727334374  MEMB      136             0.0000000000
     17040       136  PMPG      H11R           25.4835473665      -45.5982374655        4.6079344948  MEMB      136             0.0000000000
     17041       136  PMPG      H11S           26.6206981852      -46.1396328294        5.8408771681  MEMB      136             0.0000000000
     17042       136  PMPG      C212           25.7733524525      -47.6817920643        5.0644894903  MEMB      136             0.0000000000
     17043       136  PMPG      H12R           24.9752242336      -47.9528080497        4.3996486432  MEMB      136             0.0000000000
     17044       136  PMPG      H12S           25.6714410204      -48.2871568317        5.9971805853  MEMB      136             0.0000000000
     17045       136  PMPG      C213           27.0440987785      -47.8982431942        4.2677268603  MEMB      136             0.0000000000
     17046       136  PMPG      H13R           27.7784780441      -47.6785026104        5.0954658420  MEMB      136             0.0000000000
     17047       136  PMPG      H13S           27.3690185329      -47.1425028843        3.5674330498  MEMB      136             0.0000000000
     17048       136  PMPG      C214           27.0816897501      -49.2203434468        3.4155036486  MEMB      136             0.0000000000
     17049       136  PMPG      H14R           26.2597670901      -49.5023605335        2.7871894349  MEMB      136             0.0000000000
     17050       136  PMPG      H14S           26.7204264765      -50.1266892438        3.9403604978  MEMB      136             0.0000000000
     17051       136  PMPG      C215           28.4552949457      -49.4244939751        2.7341690524  MEMB      136             0.0000000000
     17052       136  PMPG      H15R           29.4445027542      -49.2779749364        3.2574559536  MEMB      136             0.0000000000
     17053       136  PMPG      H15S           28.9449299129      -48.7192409607        2.2024675280  MEMB      136             0.0000000000
     17054       136  PMPG      C216           28.4583307597      -50.6635760162        2.1043477446  MEMB      136             0.0000000000
     17055       136  PMPG      H16R           29.4996350376      -50.9606133667        1.7775528693  MEMB      136             0.0000000000
     17056       136  PMPG      H16S           27.7531432137      -50.7934905818        1.3200256889  MEMB      136             0.0000000000
     17057       136  PMPG      H16T           28.1247904636      -51.3654858530        3.0655791743  MEMB      136             0.0000000000
     17058       136  PMPG      C33            23.4054394049      -50.7296780464       14.1260475055  MEMB      136             0.0000000000
     17059       136  PMPG      H3X            24.0755184511      -51.4479648348       14.1087721643  MEMB      136             0.0000000000
     17060       136  PMPG      H3Y            23.9652893254      -50.3150925371       13.2967850827  MEMB      136             0.0000000000
     17061       136  PMPG      C34            22.0002880831      -51.2349192167       13.9069779007  MEMB      136             0.0000000000
     17062       136  PMPG      H4X            21.6016834685      -51.6493687487       14.8703592367  MEMB      136             0.0000000000
     17063       136  PMPG      H4Y            21.8391615906      -52.0127216337       13.1237765893  MEMB      136             0.0000000000
     17064       136  PMPG      C35            21.2700551399      -50.0294493215       13.4059888281  MEMB      136             0.0000000000
     17065       136  PMPG      H5X            21.3861526288      -49.2148178319       14.1623568972  MEMB      136             0.0000000000
     17066       136  PMPG      H5Y            20.2160843440      -50.3577856528       13.4071783752  MEMB      136             0.0000000000
     17067       136  PMPG      C36            21.6803240451      -49.5495770151       11.9772271868  MEMB      136             0.0000000000
     17068       136  PMPG      H6X            22.7536906006      -49.3096850995       11.8698887400  MEMB      136             0.0000000000
     17069       136  PMPG      H6Y            21.0907131135      -48.6313736879       11.7909246203  MEMB      136             0.0000000000
     17070       136  PMPG      C37            21.4066316694      -50.5286780901       10.8394527401  MEMB      136             0.0000000000
     17071       136  PMPG      H7X            20.3186143427      -50.7002171840       10.9382297867  MEMB      136             0.0000000000
     17072       136  PMPG      H7Y            22.0979588665      -51.3939911939       10.9960623204  MEMB      136             0.0000000000
     17073       136  PMPG      C38            21.6030943097      -50.1503494913        9.3666367062  MEMB      136             0.0000000000
     17074       136  PMPG      H8X            21.3277245115      -51.0511485946        8.7561431750  MEMB      136             0.0000000000
     17075       136  PMPG      H8Y            22.6606500285      -49.8909013531        9.2055398024  MEMB      136             0.0000000000
     17076       136  PMPG      C39            20.7070396856      -49.0194166373        8.8771711407  MEMB      136             0.0000000000
     17077       136  PMPG      H9X            20.5182805293      -48.2874446126        9.6653779128  MEMB      136             0.0000000000
     17078       136  PMPG      H9Y            19.8003652859      -49.4888340636        8.6772282605  MEMB      136             0.0000000000
     17079       136  PMPG      C310           20.9686510431      -48.3683828929        7.5249689152  MEMB      136             0.0000000000
     17080       136  PMPG      H10X           21.9831020615      -47.9687351819        7.6344726951  MEMB      136             0.0000000000
     17081       136  PMPG      H10Y           20.3027205346      -47.5139251445        7.2757004697  MEMB      136             0.0000000000
     17082       136  PMPG      C311           21.0682682443      -49.3203258128        6.3382660746  MEMB      136             0.0000000000
     17083       136  PMPG      H11X           21.5645117987      -50.2575161821        6.6644069095  MEMB      136             0.0000000000
     17084       136  PMPG      H11Y           21.6631732771      -48.8054351206        5.5721577346  MEMB      136             0.0000000000
     17085       136  PMPG      C312           19.7857259771      -49.6414076940        5.6449966316  MEMB      136             0.0000000000
     17086       136  PMPG      H12X           19.1936369483      -48.7962660841        5.2482536432  MEMB      136             0.0000000000
     17087       136  PMPG      H12Y           19.3169107792      -50.1863052077        6.4312676362  MEMB      136             0.0000000000
     17088       136  PMPG      C313           19.8122397051      -50.6744851484        4.5998706428  MEMB      136             0.0000000000
     17089       136  PMPG      H13X           18.8466196670      -51.1514249747        4.4232019902  MEMB      136             0.0000000000
     17090       136  PMPG      H13Y           20.2174139968      -51.5524994812        5.1203313831  MEMB      136             0.0000000000
     17091       136  PMPG      C314           20.5022866206      -50.0707259521        3.3317240814  MEMB      136             0.0000000000
     17092       136  PMPG      H14X           21.5223714794      -49.6920463361        3.5419163883  MEMB      136             0.0000000000
     17093       136  PMPG      H14Y           19.8220878218      -49.6019079522        2.6299191631  MEMB      136             0.0000000000
     17094       136  PMPG      C315           21.2240681479      -50.9343299762        2.3940082809  MEMB      136             0.0000000000
     17095       136  PMPG      H15X           21.4569488547      -50.7624436909        1.3762734160  MEMB      136             0.0000000000
     17096       136  PMPG      H15Y           20.1844963838      -51.5501957964        1.9275980953  MEMB      136             0.0000000000
     17097       136  PMPG      C316           22.5829358661      -51.7812602334        3.7069090409  MEMB      136             0.0000000000
     17098       136  PMPG      H16X           23.1970532480      -52.8987207381        3.3202193699  MEMB      136             0.0000000000
     17099       136  PMPG      H16Y           21.7508527226      -52.3663199894        4.3525361770  MEMB      136             0.0000000000
     17100       136  PMPG      H16Z           23.1685972329      -51.1984257814        3.5013099066  MEMB      136             0.0000000000
     17101       137  POPE      N              27.5237048140       42.3163563622       21.0864165529  MEMB      137             0.0000000000
     17102       137  POPE      HN1            28.1932035058       42.2684467199       20.2896546184  MEMB      137             0.0000000000
     17103       137  POPE      HN2            28.0010486648       42.7917667015       21.8822034474  MEMB      137             0.0000000000
     17104       137  POPE      HN3            27.2272091227       41.3672634235       21.4318077273  MEMB      137             0.0000000000
     17105       137  POPE      C12            26.3543786537       43.0886430473       20.4925018133  MEMB      137             0.0000000000
     17106       137  POPE      H12A           25.5259199947       43.0253281793       21.2092512520  MEMB      137             0.0000000000
     17107       137  POPE      H12B           26.0408015600       42.5612240496       19.5738839914  MEMB      137             0.0000000000
     17108       137  POPE      C11            26.7260725595       44.5144987151       20.0349212390  MEMB      137             0.0000000000
     17109       137  POPE      H11A           27.0583304125       45.0918293925       20.9203035386  MEMB      137             0.0000000000
     17110       137  POPE      H11B           25.8553013880       45.0516532043       19.5440829638  MEMB      137             0.0000000000
     17111       137  POPE      P              27.9796209914       45.5889884991       18.0485525012  MEMB      137             0.0000000000
     17112       137  POPE      O13            29.3495558026       45.5308804109       17.5252446917  MEMB      137             0.0000000000
     17113       137  POPE      O14            27.4750418399       46.8330252718       18.6448114670  MEMB      137             0.0000000000
     17114       137  POPE      O11            26.9514523711       45.0153807478       16.9808355710  MEMB      137             0.0000000000
     17115       137  POPE      O12            27.8463593547       44.4212238828       19.1609568723  MEMB      137             0.0000000000
     17116       137  POPE      C1             27.1801267584       43.6458593097       16.5606781126  MEMB      137             0.0000000000
     17117       137  POPE      HA             26.5920306685       42.8857548762       17.0123959545  MEMB      137             0.0000000000
     17118       137  POPE      HB             27.7367293810       43.0302876179       17.2474736443  MEMB      137             0.0000000000
     17119       137  POPE      C2             27.2243422580       43.3796900726       15.0816714693  MEMB      137             0.0000000000
     17120       137  POPE      HS             27.2400533588       42.3404455656       14.7992917754  MEMB      137             0.0000000000
     17121       137  POPE      O21            28.4430960613       43.7951503076       14.8630990896  MEMB      137             0.0000000000
     17122       137  POPE      C21            29.2680027824       43.0367332534       14.5166730574  MEMB      137             0.0000000000
     17123       137  POPE      O22            29.2273789763       41.9959379797       13.8341685220  MEMB      137             0.0000000000
     17124       137  POPE      C22            30.0062127775       44.4009686468       14.6489426049  MEMB      137             0.0000000000
     17125       137  POPE      H2R            30.6750269401       43.5194265496       14.5185955216  MEMB      137             0.0000000000
     17126       137  POPE      H2S            30.6501212459       45.1131930587       14.7988212101  MEMB      137             0.0000000000
     17127       137  POPE      C3             26.2618837696       44.0346274392       14.1197775381  MEMB      137             0.0000000000
     17128       137  POPE      HX             25.2690083684       43.7463677409       14.4596021979  MEMB      137             0.0000000000
     17129       137  POPE      HY             26.4228279135       43.4895687834       13.1359688740  MEMB      137             0.0000000000
     17130       137  POPE      O31            26.4879222710       45.4870892058       14.1180430246  MEMB      137             0.0000000000
     17131       137  POPE      C31            25.6711341685       46.0459800438       13.2680891366  MEMB      137             0.0000000000
     17132       137  POPE      O32            24.9134418562       45.3682184602       12.7185686019  MEMB      137             0.0000000000
     17133       137  POPE      C32            25.8505159517       47.4351985799       12.7649633113  MEMB      137             0.0000000000
     17134       137  POPE      H2X            26.4365199390       47.8569576659       13.5714491291  MEMB      137             0.0000000000
     17135       137  POPE      H2Y            24.9097983953       48.0355875055       12.6053529996  MEMB      137             0.0000000000
     17136       137  POPE      C23            29.7352055211       45.4521884957       12.7719056642  MEMB      137             0.0000000000
     17137       137  POPE      H3R            30.6946730521       46.2230326980       12.5729514610  MEMB      137             0.0000000000
     17138       137  POPE      H3S            28.8738304282       45.7889925676       12.8641928732  MEMB      137             0.0000000000
     17139       137  POPE      C24            29.4388538482       43.8997577395       11.4362783867  MEMB      137             0.0000000000
     17140       137  POPE      H4R            29.4191772511       42.9633223787       11.8220779085  MEMB      137             0.0000000000
     17141       137  POPE      H4S            30.6775022087       42.8384256936       11.5052176570  MEMB      137             0.0000000000
     17142       137  POPE      C25            29.0972155815       44.5210070586       10.0760573331  MEMB      137             0.0000000000
     17143       137  POPE      H5R            29.7450918244       45.2638716691        9.5704045369  MEMB      137             0.0000000000
     17144       137  POPE      H5S            28.3677061448       45.2190795644       10.4356409350  MEMB      137             0.0000000000
     17145       137  POPE      C26            28.8239125745       43.5336619001        9.0909292457  MEMB      137             0.0000000000
     17146       137  POPE      H6R            29.1248291693       42.5248549902        9.4420026188  MEMB      137             0.0000000000
     17147       137  POPE      H6S            29.3335218722       43.7876554460        8.1266649270  MEMB      137             0.0000000000
     17148       137  POPE      C27            27.3857934468       43.6765896057        9.1500295874  MEMB      137             0.0000000000
     17149       137  POPE      H7R            27.2247328180       44.7641008448        8.9732813521  MEMB      137             0.0000000000
     17150       137  POPE      H7S            26.8960264855       43.4959412960       10.1097885539  MEMB      137             0.0000000000
     17151       137  POPE      C28            26.9714886392       42.8053153320        8.2031090600  MEMB      137             0.0000000000
     17152       137  POPE      H8R            26.5859905347       41.7280996795        8.4215058310  MEMB      137             0.0000000000
     17153       137  POPE      H8S            27.8420518452       42.1818393405        7.8117795124  MEMB      137             0.0000000000
     17154       137  POPE      C29            25.9220593543       43.9310836908        7.4259986621  MEMB      137             0.0000000000
     17155       137  POPE      H91            25.8616958710       44.7424636142        7.7920632941  MEMB      137             0.0000000000
     17156       137  POPE      C210           25.1803213328       43.7766517840        6.0374969571  MEMB      137             0.0000000000
     17157       137  POPE      H101           24.5598302581       44.1543382047        5.3955765078  MEMB      137             0.0000000000
     17158       137  POPE      C211           25.8393305921       42.0090906566        4.7320755158  MEMB      137             0.0000000000
     17159       137  POPE      H11R           25.0513819382       41.4815187452        4.4700931881  MEMB      137             0.0000000000
     17160       137  POPE      H11S           26.7041142096       41.1953147512        5.1766079832  MEMB      137             0.0000000000
     17161       137  POPE      C212           27.1870699580       42.3535494399        3.3297762829  MEMB      137             0.0000000000
     17162       137  POPE      H12R           26.6524641722       43.2239352398        2.6455548903  MEMB      137             0.0000000000
     17163       137  POPE      H12S           26.7820960267       41.7514322457        2.7967714175  MEMB      137             0.0000000000
     17164       137  POPE      C213           28.8092307569       43.1230510253        3.8289916926  MEMB      137             0.0000000000
     17165       137  POPE      H13R           28.9215471230       42.2332856701        4.4028858547  MEMB      137             0.0000000000
     17166       137  POPE      H13S           28.9367066580       44.0697748539        4.6194624257  MEMB      137             0.0000000000
     17167       137  POPE      C214           29.0165842239       43.9656709900        2.7531703581  MEMB      137             0.0000000000
     17168       137  POPE      H14R           28.2689155875       43.6921453873        1.9702698435  MEMB      137             0.0000000000
     17169       137  POPE      H14S           30.0111294267       43.4514855946        2.7915701346  MEMB      137             0.0000000000
     17170       137  POPE      C215           29.3054749494       45.3613556596        2.7362888318  MEMB      137             0.0000000000
     17171       137  POPE      H15R           29.9389029199       45.4367232964        1.8539560993  MEMB      137             0.0000000000
     17172       137  POPE      H15S           29.7466802211       45.7224159269        3.6501603378  MEMB      137             0.0000000000
     17173       137  POPE      C216           28.2043175200       46.2499080032        2.4879298559  MEMB      137             0.0000000000
     17174       137  POPE      H16R           28.2654871295       47.3088352717        2.6501192965  MEMB      137             0.0000000000
     17175       137  POPE      H16S           27.8558276676       46.3511025538        3.5030239071  MEMB      137             0.0000000000
     17176       137  POPE      C217           27.3121488605       45.8999940381        1.1260651664  MEMB      137             0.0000000000
     17177       137  POPE      H17R           26.8218077609       44.9004101291        1.0738639833  MEMB      137             0.0000000000
     17178       137  POPE      H17S           28.1024158275       45.6763606961        0.4570926754  MEMB      137             0.0000000000
     17179       137  POPE      C218           26.2300010320       46.9819207439        0.7481502781  MEMB      137             0.0000000000
     17180       137  POPE      H18R           26.5831022786       48.0382027443        0.5783159899  MEMB      137             0.0000000000
     17181       137  POPE      H18S           25.3383988650       47.1219812878        1.3489381041  MEMB      137             0.0000000000
     17182       137  POPE      H18T           25.9729968853       46.5843788082       -0.2219581050  MEMB      137             0.0000000000
     17183       137  POPE      C33            26.7074593012       47.3166954427       11.4930035530  MEMB      137             0.0000000000
     17184       137  POPE      H3X            26.1245121467       46.8832880310       10.6480559086  MEMB      137             0.0000000000
     17185       137  POPE      H3Y            27.5418913980       46.6047591020       11.6510322417  MEMB      137             0.0000000000
     17186       137  POPE      C34            27.3106133560       48.6855867397       11.2265243336  MEMB      137             0.0000000000
     17187       137  POPE      H4X            27.6880123974       49.1105524353       12.1732247138  MEMB      137             0.0000000000
     17188       137  POPE      H4Y            26.4800615247       49.3235587162       10.8589242198  MEMB      137             0.0000000000
     17189       137  POPE      C35            28.5291669151       48.7070948854       10.3122309291  MEMB      137             0.0000000000
     17190       137  POPE      H5X            29.3393909434       48.0740022189       10.7638590155  MEMB      137             0.0000000000
     17191       137  POPE      H5Y            28.8945398119       49.7565606617       10.2315860786  MEMB      137             0.0000000000
     17192       137  POPE      C36            28.1703896390       48.2813271840        8.9157750942  MEMB      137             0.0000000000
     17193       137  POPE      H6X            27.1717996873       48.7008546527        8.6492406999  MEMB      137             0.0000000000
     17194       137  POPE      H6Y            28.2021818688       47.1746341161        8.9369426730  MEMB      137             0.0000000000
     17195       137  POPE      C37            29.1281429822       48.7406156833        7.8349099132  MEMB      137             0.0000000000
     17196       137  POPE      H7X            30.1538885599       48.4712761575        8.1782525276  MEMB      137             0.0000000000
     17197       137  POPE      H7Y            29.0213840797       49.8402942304        7.7068037230  MEMB      137             0.0000000000
     17198       137  POPE      C38            28.7632616245       48.0942563989        6.4955380005  MEMB      137             0.0000000000
     17199       137  POPE      H8X            27.6822172863       48.2740179889        6.2760882491  MEMB      137             0.0000000000
     17200       137  POPE      H8Y            28.9262801585       46.9969146162        6.5505196606  MEMB      137             0.0000000000
     17201       137  POPE      C39            29.4979287715       48.6604463572        5.2882525110  MEMB      137             0.0000000000
     17202       137  POPE      H9X            29.0279190589       49.6154765377        5.0148933028  MEMB      137             0.0000000000
     17203       137  POPE      H9Y            29.3542200911       47.9980028435        4.4092849390  MEMB      137             0.0000000000
     17204       137  POPE      C310           30.9701466594       48.9032878919        5.4611790574  MEMB      137             0.0000000000
     17205       137  POPE      H10X           31.5428900503       47.9833863644        5.6409195657  MEMB      137             0.0000000000
     17206       137  POPE      H10Y           31.2379608300       49.6258292568        6.2830771927  MEMB      137             0.0000000000
     17207       137  POPE      C311           31.5070161489       49.5108733510        4.2206038336  MEMB      137             0.0000000000
     17208       137  POPE      H11X           32.4048785424       49.7005556532        4.7077717434  MEMB      137             0.0000000000
     17209       137  POPE      H11Y           31.0748293557       50.4622480358        4.0163848535  MEMB      137             0.0000000000
     17210       137  POPE      C312           31.8729533020       48.7666932102        2.9572657692  MEMB      137             0.0000000000
     17211       137  POPE      H12X           32.3177366869       49.4294777391        2.1950007767  MEMB      137             0.0000000000
     17212       137  POPE      H12Y           30.9728613954       48.3874242752        2.4957188333  MEMB      137             0.0000000000
     17213       137  POPE      C313           32.7607591244       47.6279261920        2.9284172627  MEMB      137             0.0000000000
     17214       137  POPE      H13X           32.3579349077       46.9597617620        3.6926375620  MEMB      137             0.0000000000
     17215       137  POPE      H13Y           33.7832638300       47.9332696273        3.2016272691  MEMB      137             0.0000000000
     17216       137  POPE      C314           32.7069845005       47.1058099852        1.4908708080  MEMB      137             0.0000000000
     17217       137  POPE      H14X           33.3382560257       47.7618559160        0.8580188449  MEMB      137             0.0000000000
     17218       137  POPE      H14Y           31.6862496036       47.1014630535        1.0468430975  MEMB      137             0.0000000000
     17219       137  POPE      C315           33.2340426394       45.7013171926        1.3957041885  MEMB      137             0.0000000000
     17220       137  POPE      H15X           32.4276077317       45.0197831527        1.6683209496  MEMB      137             0.0000000000
     17221       137  POPE      H15Y           34.2144862723       45.6352964254        1.8931388634  MEMB      137             0.0000000000
     17222       137  POPE      C316           33.5627045039       45.2904717489        0.0869182318  MEMB      137             0.0000000000
     17223       137  POPE      H16X           34.5687567576       45.6966995904       -0.0600208254  MEMB      137             0.0000000000
     17224       137  POPE      H16Y           32.8276983380       45.7034343158       -0.4774863557  MEMB      137             0.0000000000
     17225       137  POPE      H16Z           33.6986882054       44.3478745301       -0.3618726051  MEMB      137             0.0000000000
     17226       138  PYPG      C13           -35.3330840073       39.4757395035       20.9985447026  MEMB      138             0.0000000000
     17227       138  PYPG      H13A          -34.2689789093       39.4773258318       20.6843008506  MEMB      138             0.0000000000
     17228       138  PYPG      H13B          -35.4307689102       40.1965872272       21.8265772339  MEMB      138             0.0000000000
     17229       138  PYPG      OC3           -35.6991838557       38.2082128912       21.5718136316  MEMB      138             0.0000000000
     17230       138  PYPG      HO3           -34.9002163243       37.7089512375       21.7580725920  MEMB      138             0.0000000000
     17231       138  PYPG      C12           -36.1473859112       39.9352124536       19.7430171494  MEMB      138             0.0000000000
     17232       138  PYPG      H12A          -35.7390362942       40.9006708092       19.3945605357  MEMB      138             0.0000000000
     17233       138  PYPG      OC2           -37.5130156328       40.1835431262       20.0833406278  MEMB      138             0.0000000000
     17234       138  PYPG      HO2           -37.9721423004       40.2607842200       19.2402624643  MEMB      138             0.0000000000
     17235       138  PYPG      C11           -36.0282688518       38.9447486955       18.5961944272  MEMB      138             0.0000000000
     17236       138  PYPG      H11A          -34.9969195558       38.5754108631       18.3738517632  MEMB      138             0.0000000000
     17237       138  PYPG      H11B          -36.3430097983       39.3831638393       17.6093777271  MEMB      138             0.0000000000
     17238       138  PYPG      P             -37.5950476240       37.1609150282       17.9463193566  MEMB      138             0.0000000000
     17239       138  PYPG      O13           -38.5842149508       36.1054448522       18.2199021519  MEMB      138             0.0000000000
     17240       138  PYPG      O14           -36.3852430560       37.0513931813       17.2191894466  MEMB      138             0.0000000000
     17241       138  PYPG      O11           -37.7593166260       37.8986995087       16.6300809574  MEMB      138             0.0000000000
     17242       138  PYPG      O12           -36.8432183036       37.8545837348       19.0491138751  MEMB      138             0.0000000000
     17243       138  PYPG      C1            -38.6564008999       38.8873971598       16.6600987698  MEMB      138             0.0000000000
     17244       138  PYPG      HA            -38.2418404353       39.6866815822       17.3009988932  MEMB      138             0.0000000000
     17245       138  PYPG      HB            -39.6392544593       38.4962660595       17.0628486396  MEMB      138             0.0000000000
     17246       138  PYPG      C2            -38.8787935728       39.3477567596       15.2299765781  MEMB      138             0.0000000000
     17247       138  PYPG      HS            -39.8142079321       39.6722519101       15.3081533803  MEMB      138             0.0000000000
     17248       138  PYPG      O21           -38.8505776988       38.3545956202       14.2590705465  MEMB      138             0.0000000000
     17249       138  PYPG      C21           -39.4473549370       38.5389210190       13.1387489083  MEMB      138             0.0000000000
     17250       138  PYPG      O22           -40.3962211356       39.2178116367       12.8226868399  MEMB      138             0.0000000000
     17251       138  PYPG      C22           -38.8958381527       37.5289908709       12.2214458328  MEMB      138             0.0000000000
     17252       138  PYPG      H2R           -39.7336784264       37.7102456628       11.4277118855  MEMB      138             0.0000000000
     17253       138  PYPG      H2S           -38.8054511526       36.4957928637       12.6581864760  MEMB      138             0.0000000000
     17254       138  PYPG      C3            -37.9821286831       40.4194385331       14.6972614796  MEMB      138             0.0000000000
     17255       138  PYPG      HX            -38.1950086529       41.1594302676       15.5186984141  MEMB      138             0.0000000000
     17256       138  PYPG      HY            -38.3141733952       40.7880813394       13.6969802943  MEMB      138             0.0000000000
     17257       138  PYPG      O31           -36.6199552854       40.0558131910       14.6450680172  MEMB      138             0.0000000000
     17258       138  PYPG      C31           -36.0977380966       39.8712073627       13.4618863317  MEMB      138             0.0000000000
     17259       138  PYPG      O32           -36.4950123653       40.3300061893       12.3977273585  MEMB      138             0.0000000000
     17260       138  PYPG      C32           -34.8723617970       39.0056890013       13.6579779653  MEMB      138             0.0000000000
     17261       138  PYPG      H2X           -34.0142372470       39.6852214168       13.5177570463  MEMB      138             0.0000000000
     17262       138  PYPG      H2Y           -34.7529400587       38.5777261815       14.6851324327  MEMB      138             0.0000000000
     17263       138  PYPG      C23           -38.1704574127       37.5998324478       10.9592614723  MEMB      138             0.0000000000
     17264       138  PYPG      H3R           -38.3113484447       36.6493824945       10.3782754590  MEMB      138             0.0000000000
     17265       138  PYPG      H3S           -37.2155865717       37.5879844175       11.4491807005  MEMB      138             0.0000000000
     17266       138  PYPG      C24           -38.5865954771       38.7972086687       10.1223824262  MEMB      138             0.0000000000
     17267       138  PYPG      H4R           -38.3671224829       39.7388798279       10.6563077940  MEMB      138             0.0000000000
     17268       138  PYPG      H4S           -39.6887414193       38.8258511937        9.9196859003  MEMB      138             0.0000000000
     17269       138  PYPG      C25           -37.7556815802       38.8770348790        8.8634303645  MEMB      138             0.0000000000
     17270       138  PYPG      H5R           -36.7217874532       39.1355966302        9.1883557283  MEMB      138             0.0000000000
     17271       138  PYPG      H5S           -38.1571774933       39.7359758809        8.2945661016  MEMB      138             0.0000000000
     17272       138  PYPG      C26           -37.7505493161       37.6389143830        7.9624031991  MEMB      138             0.0000000000
     17273       138  PYPG      H6R           -37.2026981243       36.8110983226        8.4260740636  MEMB      138             0.0000000000
     17274       138  PYPG      H6S           -37.1487540188       37.8381263511        7.0586893147  MEMB      138             0.0000000000
     17275       138  PYPG      C27           -39.1441183175       37.0996233267        7.6318266742  MEMB      138             0.0000000000
     17276       138  PYPG      H7R           -39.6264086568       36.8830555269        8.5817193481  MEMB      138             0.0000000000
     17277       138  PYPG      H7S           -39.0375189517       36.0962799085        7.1787478013  MEMB      138             0.0000000000
     17278       138  PYPG      C28           -40.0874501647       38.0574517525        6.8825269082  MEMB      138             0.0000000000
     17279       138  PYPG      H8R           -40.3710018648       38.8580305900        7.5987944830  MEMB      138             0.0000000000
     17280       138  PYPG      H8S           -41.0077480776       37.4844961108        6.6688284115  MEMB      138             0.0000000000
     17281       138  PYPG      C29           -39.5160915976       38.7345562981        5.6779538727  MEMB      138             0.0000000000
     17282       138  PYPG      H9R           -38.6374923409       39.3321399858        5.9551934601  MEMB      138             0.0000000000
     17283       138  PYPG      C210          -40.0239861403       38.8700185933        4.4421076935  MEMB      138             0.0000000000
     17284       138  PYPG      H10R          -39.3672328714       39.4590367712        3.7746338936  MEMB      138             0.0000000000
     17285       138  PYPG      C211          -41.3734440959       38.3437273705        3.9483331164  MEMB      138             0.0000000000
     17286       138  PYPG      H11R          -41.9172014538       39.2167754970        3.5308796983  MEMB      138             0.0000000000
     17287       138  PYPG      H11S          -41.9808437960       37.9940652953        4.8095305675  MEMB      138             0.0000000000
     17288       138  PYPG      C212          -41.4822202809       37.1711294996        2.9489825569  MEMB      138             0.0000000000
     17289       138  PYPG      H12R          -41.0016854607       37.4790793792        2.0003279542  MEMB      138             0.0000000000
     17290       138  PYPG      H12S          -42.5310255062       36.8343020696        2.7317542847  MEMB      138             0.0000000000
     17291       138  PYPG      C213          -40.6775512290       35.9677449701        3.3526169411  MEMB      138             0.0000000000
     17292       138  PYPG      H13R          -41.0910453939       35.4763985561        4.2674007596  MEMB      138             0.0000000000
     17293       138  PYPG      H13S          -39.6568503846       36.2762669132        3.5664783829  MEMB      138             0.0000000000
     17294       138  PYPG      C214          -40.6009719531       35.0671223217        2.1697020976  MEMB      138             0.0000000000
     17295       138  PYPG      H14R          -41.7048301526       34.8990407702        2.1981110531  MEMB      138             0.0000000000
     17296       138  PYPG      H14S          -40.5952833351       35.3944662008        1.1332132509  MEMB      138             0.0000000000
     17297       138  PYPG      C215          -39.5331290308       33.9552729633        2.4814725632  MEMB      138             0.0000000000
     17298       138  PYPG      H15R          -39.6074134459       33.2620456078        3.3967797066  MEMB      138             0.0000000000
     17299       138  PYPG      H15S          -38.5462577907       34.0630690939        2.4946739884  MEMB      138             0.0000000000
     17300       138  PYPG      C216          -39.3768499359       33.1364936520        1.3901971763  MEMB      138             0.0000000000
     17301       138  PYPG      H16R          -39.7111854687       33.5327835328        0.4196063770  MEMB      138             0.0000000000
     17302       138  PYPG      H16S          -39.9972983721       32.5519219740        1.7430077894  MEMB      138             0.0000000000
     17303       138  PYPG      H16T          -38.8863218083       32.1741041023        1.3714294207  MEMB      138             0.0000000000
     17304       138  PYPG      C33           -34.9442853176       37.9058860608       12.6093693965  MEMB      138             0.0000000000
     17305       138  PYPG      H3X           -35.1272071772       38.2706949337       11.6026301473  MEMB      138             0.0000000000
     17306       138  PYPG      H3Y           -35.8009547205       37.1966624819       12.8599736350  MEMB      138             0.0000000000
     17307       138  PYPG      C34           -33.5854227783       37.2641410136       12.5433122659  MEMB      138             0.0000000000
     17308       138  PYPG      H4X           -34.1722104862       36.2972379405       12.6131640192  MEMB      138             0.0000000000
     17309       138  PYPG      H4Y           -32.9536724537       37.5098627795       13.4358998669  MEMB      138             0.0000000000
     17310       138  PYPG      C35           -32.7375375782       36.9324917424       11.3775782996  MEMB      138             0.0000000000
     17311       138  PYPG      H5X           -31.7542666035       36.3558596289       11.6664343037  MEMB      138             0.0000000000
     17312       138  PYPG      H5Y           -31.9956966761       37.4962512238       11.1828802035  MEMB      138             0.0000000000
     17313       138  PYPG      C36           -33.6567746932       36.3399738965       10.3294128506  MEMB      138             0.0000000000
     17314       138  PYPG      H6X           -34.3908298287       37.0929970261       10.1771103741  MEMB      138             0.0000000000
     17315       138  PYPG      H6Y           -34.2761044295       35.4011702514       10.6009360557  MEMB      138             0.0000000000
     17316       138  PYPG      C37           -32.8994340188       36.2867809827        8.9993292739  MEMB      138             0.0000000000
     17317       138  PYPG      H7X           -32.0123648943       36.8626235133        9.0646401141  MEMB      138             0.0000000000
     17318       138  PYPG      H7Y           -32.2057703541       35.5545755048        8.6831106264  MEMB      138             0.0000000000
     17319       138  PYPG      C38           -33.6117808298       36.0081215949        7.7636705781  MEMB      138             0.0000000000
     17320       138  PYPG      H8X           -32.9250825437       36.3418313455        6.9926871361  MEMB      138             0.0000000000
     17321       138  PYPG      H8Y           -34.4985160310       36.5993524758        7.9370259260  MEMB      138             0.0000000000
     17322       138  PYPG      C39           -34.0337139011       34.7136051974        7.3153294201  MEMB      138             0.0000000000
     17323       138  PYPG      H9X           -34.2706119465       34.1004787910        8.2100404637  MEMB      138             0.0000000000
     17324       138  PYPG      H9Y           -33.3092472176       34.1736943428        6.6257170731  MEMB      138             0.0000000000
     17325       138  PYPG      C310          -35.2534858436       35.1156326573        6.7062225546  MEMB      138             0.0000000000
     17326       138  PYPG      H10X          -36.0917058097       35.4228431459        7.2016419411  MEMB      138             0.0000000000
     17327       138  PYPG      H10Y          -35.3400797933       34.1438505106        6.7951454041  MEMB      138             0.0000000000
     17328       138  PYPG      C311          -35.2674087933       35.5676975046        5.4083539828  MEMB      138             0.0000000000
     17329       138  PYPG      H11X          -34.6746865329       34.6782191238        5.2267266976  MEMB      138             0.0000000000
     17330       138  PYPG      H11Y          -34.5214635082       36.2551789227        5.0878655714  MEMB      138             0.0000000000
     17331       138  PYPG      C312          -36.5940240323       35.9049546769        4.6914072552  MEMB      138             0.0000000000
     17332       138  PYPG      H12X          -37.1936115098       34.9603248153        4.4202978153  MEMB      138             0.0000000000
     17333       138  PYPG      H12Y          -37.1431704239       36.4987178291        5.3623620895  MEMB      138             0.0000000000
     17334       138  PYPG      C313          -36.2482653333       36.7853773893        3.4315546836  MEMB      138             0.0000000000
     17335       138  PYPG      H13X          -35.5928235833       37.5921385119        3.7296787173  MEMB      138             0.0000000000
     17336       138  PYPG      H13Y          -35.5909496820       36.4367034367        2.6818872487  MEMB      138             0.0000000000
     17337       138  PYPG      C314          -37.4560910921       37.0079806728        2.5806417109  MEMB      138             0.0000000000
     17338       138  PYPG      H14X          -37.8953919928       36.0186520770        2.3345795523  MEMB      138             0.0000000000
     17339       138  PYPG      H14Y          -38.1099747281       37.4701152358        3.3204405185  MEMB      138             0.0000000000
     17340       138  PYPG      C315          -37.3545173214       37.9243815060        1.3603673979  MEMB      138             0.0000000000
     17341       138  PYPG      H15X          -38.4034583620       38.1663446995        1.0971262981  MEMB      138             0.0000000000
     17342       138  PYPG      H15Y          -36.8802156058       38.8876064447        1.6233465810  MEMB      138             0.0000000000
     17343       138  PYPG      C316          -36.6993408666       37.3089456618        0.1453019604  MEMB      138             0.0000000000
     17344       138  PYPG      H16X          -37.3627612953       36.5174635801       -0.2532629269  MEMB      138             0.0000000000
     17345       138  PYPG      H16Y          -35.6674945232       36.9711003972        0.4098662722  MEMB      138             0.0000000000
     17346       138  PYPG      H16Z          -36.6116992648       37.9450593814       -0.7416769905  MEMB      138             0.0000000000
     17347       139  QMPE      N             -52.6217398757      -14.5985386099       21.3719911326  MEMB      139             0.0000000000
     17348       139  QMPE      HN1           -52.4694924984      -13.7736192282       21.9911553769  MEMB      139             0.0000000000
     17349       139  QMPE      HN2           -53.5877354230      -14.9491139946       21.4299695137  MEMB      139             0.0000000000
     17350       139  QMPE      HN3           -51.9136665955      -15.3465134525       21.5568130619  MEMB      139             0.0000000000
     17351       139  QMPE      C12           -52.4551738428      -14.2923039783       19.9269371397  MEMB      139             0.0000000000
     17352       139  QMPE      H12A          -51.5327384500      -13.6789082948       19.9247170449  MEMB      139             0.0000000000
     17353       139  QMPE      H12B          -53.3644504632      -13.7545918858       19.5716926123  MEMB      139             0.0000000000
     17354       139  QMPE      C11           -52.2063459226      -15.5716592961       19.1189259648  MEMB      139             0.0000000000
     17355       139  QMPE      H11A          -52.4411653236      -15.3718078733       18.0475668858  MEMB      139             0.0000000000
     17356       139  QMPE      H11B          -52.8724105845      -16.4092745262       19.4425092888  MEMB      139             0.0000000000
     17357       139  QMPE      P             -49.6864413954      -15.4185427862       18.3222935846  MEMB      139             0.0000000000
     17358       139  QMPE      O13           -48.4376692557      -16.1379913802       18.6358403553  MEMB      139             0.0000000000
     17359       139  QMPE      O14           -49.7033999336      -13.9483060570       18.5017555705  MEMB      139             0.0000000000
     17360       139  QMPE      O11           -50.2286091195      -15.7669930339       16.8769365369  MEMB      139             0.0000000000
     17361       139  QMPE      O12           -50.8464833999      -15.9685211669       19.2763046260  MEMB      139             0.0000000000
     17362       139  QMPE      C1            -50.6307810222      -17.0721829735       16.5304899570  MEMB      139             0.0000000000
     17363       139  QMPE      HA            -51.6737169933      -17.0272450028       16.1546967112  MEMB      139             0.0000000000
     17364       139  QMPE      HB            -50.6036208323      -17.7510946553       17.4144963515  MEMB      139             0.0000000000
     17365       139  QMPE      C2            -49.6726744901      -17.6535550635       15.4970125780  MEMB      139             0.0000000000
     17366       139  QMPE      HS            -48.7016137110      -17.7631649764       16.0319257148  MEMB      139             0.0000000000
     17367       139  QMPE      O21           -49.5243774080      -16.8209288933       14.3348623896  MEMB      139             0.0000000000
     17368       139  QMPE      C21           -48.3349508867      -16.9207859465       13.8143438761  MEMB      139             0.0000000000
     17369       139  QMPE      O22           -47.3918948649      -17.5675800270       14.2079507349  MEMB      139             0.0000000000
     17370       139  QMPE      C22           -48.3189107757      -16.0533833411       12.6664157709  MEMB      139             0.0000000000
     17371       139  QMPE      H2R           -49.0197144932      -15.2857119922       12.5799987852  MEMB      139             0.0000000000
     17372       139  QMPE      H2S           -48.8529322799      -16.4337600522       11.9105010800  MEMB      139             0.0000000000
     17373       139  QMPE      C3            -50.2295346593      -18.9626627285       15.0184798800  MEMB      139             0.0000000000
     17374       139  QMPE      HX            -50.0627696842      -19.8255114712       15.7056897120  MEMB      139             0.0000000000
     17375       139  QMPE      HY            -49.5361547952      -19.0055231573       14.2177198038  MEMB      139             0.0000000000
     17376       139  QMPE      O31           -51.5754978751      -18.8185289216       14.5446745158  MEMB      139             0.0000000000
     17377       139  QMPE      C31           -51.9506163051      -18.6253547575       13.2676726762  MEMB      139             0.0000000000
     17378       139  QMPE      O32           -51.4369956501      -18.8805853386       12.2159601962  MEMB      139             0.0000000000
     17379       139  QMPE      C32           -53.4032421069      -18.6179101761       13.2282296395  MEMB      139             0.0000000000
     17380       139  QMPE      H2X           -53.8963206459      -19.6157744019       13.3371141788  MEMB      139             0.0000000000
     17381       139  QMPE      H2Y           -53.6584555154      -18.0882561130       14.0374308665  MEMB      139             0.0000000000
     17382       139  QMPE      C23           -47.0566777802      -15.6788240210       12.2658224675  MEMB      139             0.0000000000
     17383       139  QMPE      H3R           -46.2522572628      -16.5238930179       12.1500456353  MEMB      139             0.0000000000
     17384       139  QMPE      H3S           -46.9589549290      -14.9436159707       13.1603202053  MEMB      139             0.0000000000
     17385       139  QMPE      C24           -47.0605017246      -14.7535192386       11.1577861799  MEMB      139             0.0000000000
     17386       139  QMPE      H4R           -46.2445548395      -14.2894485952       11.7179734369  MEMB      139             0.0000000000
     17387       139  QMPE      H4S           -47.4791043092      -13.7689759664       11.1393339950  MEMB      139             0.0000000000
     17388       139  QMPE      C25           -46.6501708960      -15.4124298400        9.7644213891  MEMB      139             0.0000000000
     17389       139  QMPE      H5R           -46.7717734626      -14.7356872113        8.9221793236  MEMB      139             0.0000000000
     17390       139  QMPE      H5S           -47.5369468676      -15.8782177341        9.9524684739  MEMB      139             0.0000000000
     17391       139  QMPE      C26           -45.4149033139      -16.5763572711        9.5395752026  MEMB      139             0.0000000000
     17392       139  QMPE      H6R           -45.4267802036      -17.3504483591       10.2900739159  MEMB      139             0.0000000000
     17393       139  QMPE      H6S           -44.3423192960      -16.4565187095        9.6280466226  MEMB      139             0.0000000000
     17394       139  QMPE      C27           -45.1942110040      -17.0065401636        8.4824291226  MEMB      139             0.0000000000
     17395       139  QMPE      H7R           -45.6295957387      -17.9389149296        8.4260382991  MEMB      139             0.0000000000
     17396       139  QMPE      H7S           -44.5130562919      -17.7853140446        8.5983259685  MEMB      139             0.0000000000
     17397       139  QMPE      C28           -45.3008558975      -15.9993564919        7.6820540685  MEMB      139             0.0000000000
     17398       139  QMPE      H8R           -46.3941896567      -15.7137048804        7.5624344535  MEMB      139             0.0000000000
     17399       139  QMPE      H8S           -45.3866395990      -16.7825638807        6.9232519449  MEMB      139             0.0000000000
     17400       139  QMPE      C29           -44.1270279159      -14.9413682898        7.2451074268  MEMB      139             0.0000000000
     17401       139  QMPE      H9R           -43.2010678729      -15.1151928538        7.5937606582  MEMB      139             0.0000000000
     17402       139  QMPE      C217          -44.3398953555      -13.6174117155        7.0018248463  MEMB      139             0.0000000000
     17403       139  QMPE      H17R          -45.2536080062      -13.1521601390        7.1504463425  MEMB      139             0.0000000000
     17404       139  QMPE      H17S          -43.3878389367      -13.4636555248        7.3105447602  MEMB      139             0.0000000000
     17405       139  QMPE      C210          -43.7729842769      -13.9642642639        5.8493751995  MEMB      139             0.0000000000
     17406       139  QMPE      H10R          -42.8469492616      -14.1814598817        5.7323739726  MEMB      139             0.0000000000
     17407       139  QMPE      C211          -43.8392823942      -13.7393416665        4.2696593382  MEMB      139             0.0000000000
     17408       139  QMPE      H11R          -44.5624816627      -14.2791553721        4.1963841695  MEMB      139             0.0000000000
     17409       139  QMPE      H11S          -44.4350653598      -12.9504877819        3.9195335567  MEMB      139             0.0000000000
     17410       139  QMPE      C212          -43.5139182361      -14.8594349967        3.2631293849  MEMB      139             0.0000000000
     17411       139  QMPE      H12R          -43.2187623360      -15.9186361775        3.4925357632  MEMB      139             0.0000000000
     17412       139  QMPE      H12S          -42.5606047255      -14.8094920458        3.2573592716  MEMB      139             0.0000000000
     17413       139  QMPE      C213          -44.4281010669      -15.3755625594        2.3686137360  MEMB      139             0.0000000000
     17414       139  QMPE      H13R          -44.7350194443      -14.3719699799        2.0215327646  MEMB      139             0.0000000000
     17415       139  QMPE      H13S          -45.3301011094      -15.9790071212        2.7492359788  MEMB      139             0.0000000000
     17416       139  QMPE      C214          -43.8400115402      -16.2760228871        1.6096181157  MEMB      139             0.0000000000
     17417       139  QMPE      H14R          -44.2105799761      -15.9116087703        0.6628710700  MEMB      139             0.0000000000
     17418       139  QMPE      H14S          -44.1249763739      -17.3630873893        1.8776746423  MEMB      139             0.0000000000
     17419       139  QMPE      C215          -42.8140773021      -15.7598388719        1.0344638562  MEMB      139             0.0000000000
     17420       139  QMPE      H15R          -42.9273060574      -16.8707530952        0.7871395539  MEMB      139             0.0000000000
     17421       139  QMPE      H15S          -41.9900831686      -15.9308471585        1.6032249921  MEMB      139             0.0000000000
     17422       139  QMPE      C216          -42.9186886202      -14.5601269023       -0.0244261183  MEMB      139             0.0000000000
     17423       139  QMPE      H16R          -42.1981414105      -14.7038349757       -0.8342494049  MEMB      139             0.0000000000
     17424       139  QMPE      H16S          -42.5449246425      -13.6927894712        0.4682405595  MEMB      139             0.0000000000
     17425       139  QMPE      H16T          -43.8652233928      -14.4380558185       -0.6188237994  MEMB      139             0.0000000000
     17426       139  QMPE      C33           -53.7030348345      -17.8779224785       11.9489835444  MEMB      139             0.0000000000
     17427       139  QMPE      H3X           -54.7653109544      -17.9713095532       11.6701957841  MEMB      139             0.0000000000
     17428       139  QMPE      H3Y           -53.0677259539      -18.3608776543       11.1724418510  MEMB      139             0.0000000000
     17429       139  QMPE      C34           -53.2918518265      -16.4796958687       11.9741239316  MEMB      139             0.0000000000
     17430       139  QMPE      H4X           -52.3660940884      -16.3590031130       12.5704041650  MEMB      139             0.0000000000
     17431       139  QMPE      H4Y           -54.1502918737      -15.9549340065       12.4238723710  MEMB      139             0.0000000000
     17432       139  QMPE      C35           -53.0798174176      -15.8775053175       10.6322727523  MEMB      139             0.0000000000
     17433       139  QMPE      H5X           -52.8718539109      -14.9041730987       11.0723066869  MEMB      139             0.0000000000
     17434       139  QMPE      H5Y           -53.9640487909      -15.9171322611        9.9768691459  MEMB      139             0.0000000000
     17435       139  QMPE      C36           -51.7973927489      -16.1018424641        9.9069406394  MEMB      139             0.0000000000
     17436       139  QMPE      H6X           -51.7848894909      -17.1385864413        9.5557735230  MEMB      139             0.0000000000
     17437       139  QMPE      H6Y           -50.9521167219      -15.9423939790       10.6026967165  MEMB      139             0.0000000000
     17438       139  QMPE      C37           -51.5874685030      -15.1874847353        8.7142200873  MEMB      139             0.0000000000
     17439       139  QMPE      H7X           -52.4027109957      -15.2942202312        7.9870282760  MEMB      139             0.0000000000
     17440       139  QMPE      H7Y           -51.5610399166      -14.1264622773        9.0252609046  MEMB      139             0.0000000000
     17441       139  QMPE      C38           -50.3222593883      -15.6008154445        8.0090528919  MEMB      139             0.0000000000
     17442       139  QMPE      H8X           -49.4468750933      -15.2383517392        8.5772778228  MEMB      139             0.0000000000
     17443       139  QMPE      H8Y           -50.1909549307      -16.6988315807        8.0131932063  MEMB      139             0.0000000000
     17444       139  QMPE      C39           -50.2927862154      -15.1595921495        6.5899622365  MEMB      139             0.0000000000
     17445       139  QMPE      H9X           -50.6179312638      -14.0994585682        6.4829787018  MEMB      139             0.0000000000
     17446       139  QMPE      H9Y           -50.9337759302      -15.7263251070        5.8883463052  MEMB      139             0.0000000000
     17447       139  QMPE      C310          -48.9402228676      -15.3133602593        6.1131581844  MEMB      139             0.0000000000
     17448       139  QMPE      H10X          -48.6306622383      -16.3263318862        5.8624834035  MEMB      139             0.0000000000
     17449       139  QMPE      H10Y          -48.1951730919      -14.9261888676        6.8611194071  MEMB      139             0.0000000000
     17450       139  QMPE      C311          -49.1416447184      -14.4076436035        4.9536871121  MEMB      139             0.0000000000
     17451       139  QMPE      H11X          -48.3270362761      -14.7190322604        4.6989589149  MEMB      139             0.0000000000
     17452       139  QMPE      H11Y          -48.8409795895      -13.3750252070        5.1595250237  MEMB      139             0.0000000000
     17453       139  QMPE      C312          -49.6292591443      -14.7933162768        3.5687246893  MEMB      139             0.0000000000
     17454       139  QMPE      H12X          -50.6083990620      -14.4826093837        3.8675849251  MEMB      139             0.0000000000
     17455       139  QMPE      H12Y          -49.4774130700      -15.8524906824        3.3543903317  MEMB      139             0.0000000000
     17456       139  QMPE      C313          -49.6913477295      -13.8414978858        2.3808969578  MEMB      139             0.0000000000
     17457       139  QMPE      H13X          -49.6520368228      -12.7596743814        2.5539444117  MEMB      139             0.0000000000
     17458       139  QMPE      H13Y          -48.9101181695      -13.4380298586        1.9547843500  MEMB      139             0.0000000000
     17459       139  QMPE      C314          -50.1416862970      -14.3222549143        1.0924085888  MEMB      139             0.0000000000
     17460       139  QMPE      H14X          -51.1025543201      -13.8324303968        1.2458698779  MEMB      139             0.0000000000
     17461       139  QMPE      H14Y          -50.2819972653      -15.3927703084        1.0904707040  MEMB      139             0.0000000000
     17462       139  QMPE      C315          -49.5903875601      -13.6940756649       -0.1332521030  MEMB      139             0.0000000000
     17463       139  QMPE      H15X          -49.5420043586      -12.6109340227        0.0221289634  MEMB      139             0.0000000000
     17464       139  QMPE      H15Y          -48.6141423815      -13.9378708822       -0.5456886178  MEMB      139             0.0000000000
     17465       139  QMPE      H15Z          -50.3156999533      -14.0033038672       -0.9193229041  MEMB      139             0.0000000000
     17466       140  OYPE      N              33.0431159119      -38.3636257636       19.8057339594  MEMB      140             0.0000000000
     17467       140  OYPE      HN1            33.3777967974      -37.4404977038       20.1432413356  MEMB      140             0.0000000000
     17468       140  OYPE      HN2            33.2212694061      -38.4311047362       18.7775430515  MEMB      140             0.0000000000
     17469       140  OYPE      HN3            32.0336230554      -38.4348821250       20.0528999807  MEMB      140             0.0000000000
     17470       140  OYPE      C12            33.8262133329      -39.5069316802       20.4291905043  MEMB      140             0.0000000000
     17471       140  OYPE      H12A           33.6003091328      -40.4399499930       19.8674235005  MEMB      140             0.0000000000
     17472       140  OYPE      H12B           33.4245347840      -39.6527807463       21.4487848267  MEMB      140             0.0000000000
     17473       140  OYPE      C11            35.3455623091      -39.2323796594       20.3811755730  MEMB      140             0.0000000000
     17474       140  OYPE      H11A           35.9270747359      -40.0235638975       20.9100651712  MEMB      140             0.0000000000
     17475       140  OYPE      H11B           35.5707614973      -38.2894546198       20.9212334848  MEMB      140             0.0000000000
     17476       140  OYPE      P              36.1790955226      -40.5031408354       18.2506748749  MEMB      140             0.0000000000
     17477       140  OYPE      O13            36.7102073356      -41.4833650575       19.2165412805  MEMB      140             0.0000000000
     17478       140  OYPE      O14            36.9668465819      -40.1689765536       17.0561393274  MEMB      140             0.0000000000
     17479       140  OYPE      O11            34.6969723026      -40.9388273905       17.8245758792  MEMB      140             0.0000000000
     17480       140  OYPE      O12            35.7894156999      -39.1393342424       19.0255549762  MEMB      140             0.0000000000
     17481       140  OYPE      C1             33.8306753939      -40.1190097985       17.0382378927  MEMB      140             0.0000000000
     17482       140  OYPE      HA             34.2625361204      -39.0997526716       16.9000071502  MEMB      140             0.0000000000
     17483       140  OYPE      HB             32.8405303404      -40.0298000942       17.5415799413  MEMB      140             0.0000000000
     17484       140  OYPE      C2             33.4890799764      -40.7296119769       15.6398868471  MEMB      140             0.0000000000
     17485       140  OYPE      HS             32.8965997391      -41.6732407097       15.7667930009  MEMB      140             0.0000000000
     17486       140  OYPE      O21            34.6948420893      -40.9011480174       14.8791282176  MEMB      140             0.0000000000
     17487       140  OYPE      C21            35.1797653193      -42.1411875880       14.8801497660  MEMB      140             0.0000000000
     17488       140  OYPE      O22            34.6380227406      -43.0935671759       15.4150009909  MEMB      140             0.0000000000
     17489       140  OYPE      C22            36.4205439582      -42.1894245770       13.9585424132  MEMB      140             0.0000000000
     17490       140  OYPE      H2R            37.1585761641      -41.4561060992       14.3458908198  MEMB      140             0.0000000000
     17491       140  OYPE      H2S            36.0795151538      -41.8098135997       12.9687769871  MEMB      140             0.0000000000
     17492       140  OYPE      C3             32.5103690966      -39.7920682548       14.8797642101  MEMB      140             0.0000000000
     17493       140  OYPE      HX             32.9913049710      -38.8304158110       14.6132766625  MEMB      140             0.0000000000
     17494       140  OYPE      HY             31.7614484899      -39.5485488876       15.6850561251  MEMB      140             0.0000000000
     17495       140  OYPE      O31            31.9056585124      -40.4261147087       13.7139828592  MEMB      140             0.0000000000
     17496       140  OYPE      C31            32.6143098641      -40.3569941962       12.5543037261  MEMB      140             0.0000000000
     17497       140  OYPE      O32            33.7169868657      -39.8746843746       12.4316140105  MEMB      140             0.0000000000
     17498       140  OYPE      C32            31.7496697812      -40.8346056723       11.3803961243  MEMB      140             0.0000000000
     17499       140  OYPE      H2X            32.2693216631      -41.5225765636       10.6788060042  MEMB      140             0.0000000000
     17500       140  OYPE      H2Y            30.9231180797      -41.3924301949       11.8521576055  MEMB      140             0.0000000000
     17501       140  OYPE      C23            37.0776569145      -43.6021929952       13.8274484734  MEMB      140             0.0000000000
     17502       140  OYPE      H3R            37.1146152792      -44.1263807353       14.8119045976  MEMB      140             0.0000000000
     17503       140  OYPE      H3S            38.1597134605      -43.4673756374       13.5923829417  MEMB      140             0.0000000000
     17504       140  OYPE      C24            36.3697484002      -44.4465864433       12.7280600355  MEMB      140             0.0000000000
     17505       140  OYPE      H4R            35.2785386186      -44.4999004944       12.9917179274  MEMB      140             0.0000000000
     17506       140  OYPE      H4S            36.7635664998      -45.4927396518       12.7103334846  MEMB      140             0.0000000000
     17507       140  OYPE      C25            36.5858597955      -43.8844691597       11.2923269514  MEMB      140             0.0000000000
     17508       140  OYPE      H5R            37.1454382035      -44.6167291150       10.6724232797  MEMB      140             0.0000000000
     17509       140  OYPE      H5S            37.2391963217      -42.9867290449       11.3532821558  MEMB      140             0.0000000000
     17510       140  OYPE      C26            35.3036598405      -43.6831758118       10.4655774761  MEMB      140             0.0000000000
     17511       140  OYPE      H6R            34.4831979019      -43.4185005998       11.1540477734  MEMB      140             0.0000000000
     17512       140  OYPE      H6S            35.0375287271      -44.6715981267       10.0294355437  MEMB      140             0.0000000000
     17513       140  OYPE      C27            35.3634744404      -42.6195896089        9.3599659142  MEMB      140             0.0000000000
     17514       140  OYPE      H7R            35.7965855390      -41.6824637224        9.7813873575  MEMB      140             0.0000000000
     17515       140  OYPE      H7S            34.2957302423      -42.4291202503        9.0750301540  MEMB      140             0.0000000000
     17516       140  OYPE      C28            36.1393735526      -43.1251591671        8.1366241551  MEMB      140             0.0000000000
     17517       140  OYPE      H8R            35.5764525948      -44.0306194120        7.7862909532  MEMB      140             0.0000000000
     17518       140  OYPE      H8S            37.1584029429      -43.4425306729        8.4303018118  MEMB      140             0.0000000000
     17519       140  OYPE      C29            36.2296833822      -42.0724824153        7.0751150584  MEMB      140             0.0000000000
     17520       140  OYPE      H9R            37.0717644368      -41.3713214889        7.0376065800  MEMB      140             0.0000000000
     17521       140  OYPE      C210           35.2817079027      -41.9252638467        6.1843939167  MEMB      140             0.0000000000
     17522       140  OYPE      H10R           35.3788263199      -41.1716352867        5.3970051497  MEMB      140             0.0000000000
     17523       140  OYPE      C211           34.0597781011      -42.7519398282        6.1327967729  MEMB      140             0.0000000000
     17524       140  OYPE      H11R           33.6406557484      -43.0962823752        7.0860988947  MEMB      140             0.0000000000
     17525       140  OYPE      H11S           34.1875993402      -43.6248159453        5.4582947534  MEMB      140             0.0000000000
     17526       140  OYPE      C212           33.1358963618      -41.7909751269        5.5479896978  MEMB      140             0.0000000000
     17527       140  OYPE      H12R           32.9059069697      -40.8090945673        5.8942760622  MEMB      140             0.0000000000
     17528       140  OYPE      H12S           32.2100296713      -42.1521252181        6.0023067247  MEMB      140             0.0000000000
     17529       140  OYPE      C213           33.5438196413      -41.7217366776        4.0808092539  MEMB      140             0.0000000000
     17530       140  OYPE      H13R           33.4271133318      -42.9239522915        3.9728151571  MEMB      140             0.0000000000
     17531       140  OYPE      H13S           34.4612044549      -41.8327377326        3.7158757885  MEMB      140             0.0000000000
     17532       140  OYPE      C214           32.8203707012      -40.4629511125        3.1080424586  MEMB      140             0.0000000000
     17533       140  OYPE      H14R           32.7860091340      -39.7227677761        3.7906820650  MEMB      140             0.0000000000
     17534       140  OYPE      H14S           31.6133845773      -40.1515609773        3.1028991531  MEMB      140             0.0000000000
     17535       140  OYPE      C215           32.8010158227      -40.4538102127        1.6125676583  MEMB      140             0.0000000000
     17536       140  OYPE      H15R           33.8425072675      -40.5483433873        1.3922676207  MEMB      140             0.0000000000
     17537       140  OYPE      H15S           32.2358848780      -39.5367705929        1.3917954319  MEMB      140             0.0000000000
     17538       140  OYPE      C216           32.3460353916      -41.4149534373        0.5884535684  MEMB      140             0.0000000000
     17539       140  OYPE      H16R           32.5072819608      -40.9169341034       -0.2360013733  MEMB      140             0.0000000000
     17540       140  OYPE      H16S           31.2322172274      -41.6152313838        0.3256016763  MEMB      140             0.0000000000
     17541       140  OYPE      H16T           32.7235911431      -42.4391993207        0.5892958827  MEMB      140             0.0000000000
     17542       140  OYPE      C33            31.1215296724      -39.6285705312       10.6587155449  MEMB      140             0.0000000000
     17543       140  OYPE      H3X            30.4543314475      -39.1315605497       11.4032913168  MEMB      140             0.0000000000
     17544       140  OYPE      H3Y            30.5217270706      -40.0677768608        9.8283095729  MEMB      140             0.0000000000
     17545       140  OYPE      C34            32.1007353258      -38.6608436026        9.9739454433  MEMB      140             0.0000000000
     17546       140  OYPE      H4X            31.5006916703      -37.8994828160        9.4294205542  MEMB      140             0.0000000000
     17547       140  OYPE      H4Y            32.6895243559      -38.0606591629       10.7030781833  MEMB      140             0.0000000000
     17548       140  OYPE      C35            33.0237959313      -39.4242452444        8.9864336941  MEMB      140             0.0000000000
     17549       140  OYPE      H5X            32.3848304206      -40.0536203993        8.3259150031  MEMB      140             0.0000000000
     17550       140  OYPE      H5Y            33.7110440140      -40.1035829356        9.5308730089  MEMB      140             0.0000000000
     17551       140  OYPE      C36            33.8972152433      -38.5470797949        8.0834155571  MEMB      140             0.0000000000
     17552       140  OYPE      H6X            34.6787677241      -39.0949372760        7.5009596315  MEMB      140             0.0000000000
     17553       140  OYPE      H6Y            33.1983124884      -38.1482089014        7.3229731318  MEMB      140             0.0000000000
     17554       140  OYPE      C37            34.5009391515      -37.3519139403        8.8248711055  MEMB      140             0.0000000000
     17555       140  OYPE      H7X            33.6624360907      -36.7079192658        9.1613241042  MEMB      140             0.0000000000
     17556       140  OYPE      H7Y            35.0723089269      -37.6635667167        9.7293050251  MEMB      140             0.0000000000
     17557       140  OYPE      C38            35.3888350106      -36.4985683763        7.9322601999  MEMB      140             0.0000000000
     17558       140  OYPE      H8X            35.7530495685      -35.6193792385        8.5274661259  MEMB      140             0.0000000000
     17559       140  OYPE      H8Y            36.2633105357      -37.0948410901        7.6694250254  MEMB      140             0.0000000000
     17560       140  OYPE      C39            34.7278540194      -36.1466511313        6.6373403874  MEMB      140             0.0000000000
     17561       140  OYPE      H9X            33.8561489110      -35.4850638870        6.7363887499  MEMB      140             0.0000000000
     17562       140  OYPE      C310           35.0882800452      -36.4825935984        5.4004093277  MEMB      140             0.0000000000
     17563       140  OYPE      H10X           34.5358692246      -36.0423865384        4.5599222479  MEMB      140             0.0000000000
     17564       140  OYPE      C311           36.2653953035      -37.3292478564        5.0406820476  MEMB      140             0.0000000000
     17565       140  OYPE      H11X           37.0727466372      -36.7464413478        4.5490400932  MEMB      140             0.0000000000
     17566       140  OYPE      H11Y           36.6748532167      -37.8977610155        5.9101890857  MEMB      140             0.0000000000
     17567       140  OYPE      C312           35.8598036893      -38.4327440497        4.0952207756  MEMB      140             0.0000000000
     17568       140  OYPE      H12X           35.2171301588      -38.0731619492        3.2465321861  MEMB      140             0.0000000000
     17569       140  OYPE      H12Y           35.2169907510      -39.1635242458        4.6130668154  MEMB      140             0.0000000000
     17570       140  OYPE      C313           37.1312886307      -39.2230823517        3.7456887753  MEMB      140             0.0000000000
     17571       140  OYPE      H13X           37.8346817776      -38.6516022306        3.0876918947  MEMB      140             0.0000000000
     17572       140  OYPE      H13Y           37.8621732362      -39.3423564982        4.5235427914  MEMB      140             0.0000000000
     17573       140  OYPE      C314           36.7289548212      -40.4318095275        2.9652473072  MEMB      140             0.0000000000
     17574       140  OYPE      H14X           36.2551841918      -40.2851087281        1.9987750222  MEMB      140             0.0000000000
     17575       140  OYPE      H14Y           35.9808832903      -41.0406694929        3.4124683460  MEMB      140             0.0000000000
     17576       140  OYPE      C315           37.8863333339      -41.1798880772        2.6852448745  MEMB      140             0.0000000000
     17577       140  OYPE      H15X           38.0712313430      -41.6910859671        3.6695050711  MEMB      140             0.0000000000
     17578       140  OYPE      H15Y           38.8376154336      -40.6701117852        2.4593961719  MEMB      140             0.0000000000
     17579       140  OYPE      C316           37.3570421642      -41.9989087616        1.5235643388  MEMB      140             0.0000000000
     17580       140  OYPE      H16X           37.7534497749      -41.7265706496        0.5803822559  MEMB      140             0.0000000000
     17581       140  OYPE      H16Y           36.3592549402      -42.4628980256        1.5576063692  MEMB      140             0.0000000000
     17582       140  OYPE      C317           37.7737376889      -43.1205926689        1.4819382444  MEMB      140             0.0000000000
     17583       140  OYPE      H17X           38.0432612584      -43.0195198931        2.7374882245  MEMB      140             0.0000000000
     17584       140  OYPE      H17Y           38.9839413886      -43.4327695369        1.2306077954  MEMB      140             0.0000000000
     17585       140  OYPE      C318           36.5516860594      -44.9169083338        0.7818108107  MEMB      140             0.0000000000
     17586       140  OYPE      H18X           37.2689346915      -45.6650464723        0.3804895853  MEMB      140             0.0000000000
     17587       140  OYPE      H18Y           36.6991422912      -45.6738286928        1.4757199280  MEMB      140             0.0000000000
     17588       140  OYPE      H18Z           36.7674295318      -44.2249991258        0.3023806117  MEMB      140             0.0000000000
     17589       141  PMPE      N              15.7222340633       51.0455226057       19.1594196239  MEMB      141             0.0000000000
     17590       141  PMPE      HN1            16.6676269986       51.3517174892       18.9011329476  MEMB      141             0.0000000000
     17591       141  PMPE      HN2            15.2946048139       51.7307283377       19.8323757765  MEMB      141             0.0000000000
     17592       141  PMPE      HN3            15.7808707756       50.0928689514       19.5762414872  MEMB      141             0.0000000000
     17593       141  PMPE      C12            14.9350760314       51.0287027616       17.8744175782  MEMB      141             0.0000000000
     17594       141  PMPE      H12A           15.5176791662       50.4267731808       17.1273543294  MEMB      141             0.0000000000
     17595       141  PMPE      H12B           14.9164481287       52.1036632695       17.5888839642  MEMB      141             0.0000000000
     17596       141  PMPE      C11            13.5080828138       50.4950488700       18.1410773126  MEMB      141             0.0000000000
     17597       141  PMPE      H11A           13.5477090813       49.3905302977       18.2721867882  MEMB      141             0.0000000000
     17598       141  PMPE      H11B           12.7897201128       50.6532326307       17.3097862236  MEMB      141             0.0000000000
     17599       141  PMPE      P              12.0834036583       52.3263495548       19.4376699755  MEMB      141             0.0000000000
     17600       141  PMPE      O13            12.8785217652       53.4853451347       18.9891758715  MEMB      141             0.0000000000
     17601       141  PMPE      O14            11.4490141116       52.3372464476       20.7599837397  MEMB      141             0.0000000000
     17602       141  PMPE      O11            10.9803795734       52.0486391396       18.3277530906  MEMB      141             0.0000000000
     17603       141  PMPE      O12            12.9850706716       51.0404534427       19.3371968288  MEMB      141             0.0000000000
     17604       141  PMPE      C1             10.0184007121       51.0476951946       18.5590672112  MEMB      141             0.0000000000
     17605       141  PMPE      HA              9.2244631420       51.5795678497       18.9230309093  MEMB      141             0.0000000000
     17606       141  PMPE      HB             10.1046703887       50.3906085807       19.4316013664  MEMB      141             0.0000000000
     17607       141  PMPE      C2              9.7184254553       50.2180122677       17.3802711706  MEMB      141             0.0000000000
     17608       141  PMPE      HS              8.7025569533       49.7830592207       17.3961830577  MEMB      141             0.0000000000
     17609       141  PMPE      O21            10.6617198215       49.1701654653       17.5522336187  MEMB      141             0.0000000000
     17610       141  PMPE      C21            10.2759068071       47.8799171472       17.5555532425  MEMB      141             0.0000000000
     17611       141  PMPE      O22             9.2607779066       47.3579991093       17.0479894827  MEMB      141             0.0000000000
     17612       141  PMPE      C22            11.8550331449       47.7826169390       17.1693373491  MEMB      141             0.0000000000
     17613       141  PMPE      H2R            11.3118599664       46.8446007972       17.1328898302  MEMB      141             0.0000000000
     17614       141  PMPE      H2S            12.2788994717       47.1067430148       17.8602672409  MEMB      141             0.0000000000
     17615       141  PMPE      C3              9.8273426550       51.0683666619       16.0414311315  MEMB      141             0.0000000000
     17616       141  PMPE      HX              9.1840881561       51.9601574895       16.0275776242  MEMB      141             0.0000000000
     17617       141  PMPE      HY              9.3105881802       50.4249016218       15.3495657732  MEMB      141             0.0000000000
     17618       141  PMPE      O31            11.1639725512       51.2859206763       15.5561093971  MEMB      141             0.0000000000
     17619       141  PMPE      C31            11.4012528986       52.4481644020       15.0188540220  MEMB      141             0.0000000000
     17620       141  PMPE      O32            10.6018820710       53.3717120931       14.9609016268  MEMB      141             0.0000000000
     17621       141  PMPE      C32            12.7914413534       52.4291480857       14.4038415869  MEMB      141             0.0000000000
     17622       141  PMPE      H2X            13.0014025926       51.5001642792       13.8344954487  MEMB      141             0.0000000000
     17623       141  PMPE      H2Y            13.5395365556       52.4796758311       15.2268319712  MEMB      141             0.0000000000
     17624       141  PMPE      C23            12.9191286015       48.3713261031       15.5696180808  MEMB      141             0.0000000000
     17625       141  PMPE      H3R            13.7367113627       47.7389695082       15.1896983423  MEMB      141             0.0000000000
     17626       141  PMPE      H3S            13.3308641544       49.1423228350       15.9313644982  MEMB      141             0.0000000000
     17627       141  PMPE      C24            12.7443860522       47.9661521486       13.9251578620  MEMB      141             0.0000000000
     17628       141  PMPE      H4R            12.1932955475       48.7983468107       14.0212658080  MEMB      141             0.0000000000
     17629       141  PMPE      H4S            12.2268656624       46.9677875177       13.4413841578  MEMB      141             0.0000000000
     17630       141  PMPE      C25            13.4642779867       48.1502347044       12.8578800987  MEMB      141             0.0000000000
     17631       141  PMPE      H5R            14.1004861908       47.4219122216       13.1788448906  MEMB      141             0.0000000000
     17632       141  PMPE      H5S            13.6234511832       49.1805501634       13.0845974714  MEMB      141             0.0000000000
     17633       141  PMPE      C26            12.9585765298       47.7304950645       11.5265818894  MEMB      141             0.0000000000
     17634       141  PMPE      H6R            12.2295758141       48.4094267781       11.3390893618  MEMB      141             0.0000000000
     17635       141  PMPE      H6S            12.4577303637       46.7655862665       11.3237570993  MEMB      141             0.0000000000
     17636       141  PMPE      C27            13.6672750699       48.5150214287       10.5427845391  MEMB      141             0.0000000000
     17637       141  PMPE      H7R            14.6639586365       48.1905280543       10.7827969146  MEMB      141             0.0000000000
     17638       141  PMPE      H7S            13.6881775523       49.6074379791       10.7764825275  MEMB      141             0.0000000000
     17639       141  PMPE      C28            13.3706090822       48.0702439343        9.1518585026  MEMB      141             0.0000000000
     17640       141  PMPE      H8R            13.4264428006       46.9959018599        8.9788570544  MEMB      141             0.0000000000
     17641       141  PMPE      H8S            13.9738008970       48.6867822339        8.4902569337  MEMB      141             0.0000000000
     17642       141  PMPE      C29            12.1430727496       48.3461098854        8.6799809992  MEMB      141             0.0000000000
     17643       141  PMPE      H9R            11.9445459685       49.4408069922        8.7913817743  MEMB      141             0.0000000000
     17644       141  PMPE      C217           11.1692012590       47.1612701198        8.7599203395  MEMB      141             0.0000000000
     17645       141  PMPE      H17R           10.2897555713       47.4309039670        9.2103753268  MEMB      141             0.0000000000
     17646       141  PMPE      H17S           11.1736362981       46.1290627943        8.7827531548  MEMB      141             0.0000000000
     17647       141  PMPE      C210           11.6636981675       47.8133115513        7.4158629896  MEMB      141             0.0000000000
     17648       141  PMPE      H10R           11.0305421400       48.5819629911        6.8764097004  MEMB      141             0.0000000000
     17649       141  PMPE      C211           12.1477491104       46.6521045747        6.6249659706  MEMB      141             0.0000000000
     17650       141  PMPE      H11R           11.4604904464       46.1173220557        5.9777287685  MEMB      141             0.0000000000
     17651       141  PMPE      H11S           12.4069342827       45.8207665699        7.2612421820  MEMB      141             0.0000000000
     17652       141  PMPE      C212           13.2331242738       47.3565586628        5.9040110643  MEMB      141             0.0000000000
     17653       141  PMPE      H12R           13.9385339885       47.5295993663        6.7104853943  MEMB      141             0.0000000000
     17654       141  PMPE      H12S           12.9571485827       48.3640044623        5.5933693766  MEMB      141             0.0000000000
     17655       141  PMPE      C213           13.8991706749       46.6061158142        4.8175032069  MEMB      141             0.0000000000
     17656       141  PMPE      H13R           14.0091856650       45.6903158725        5.3780252182  MEMB      141             0.0000000000
     17657       141  PMPE      H13S           14.9011773916       46.9618670528        4.6443085674  MEMB      141             0.0000000000
     17658       141  PMPE      C214           13.2570637621       46.6024922343        3.4606367810  MEMB      141             0.0000000000
     17659       141  PMPE      H14R           12.9709740374       47.6569887575        3.3666912026  MEMB      141             0.0000000000
     17660       141  PMPE      H14S           12.3405585303       45.9782315883        3.3980181861  MEMB      141             0.0000000000
     17661       141  PMPE      C215           14.1047537249       46.3688115699        2.2711206221  MEMB      141             0.0000000000
     17662       141  PMPE      H15R           14.9252146554       47.0390997127        2.1918327599  MEMB      141             0.0000000000
     17663       141  PMPE      H15S           13.5031829075       46.7978557280        1.3936609782  MEMB      141             0.0000000000
     17664       141  PMPE      C216           14.7925839085       44.9453308972        2.2114795354  MEMB      141             0.0000000000
     17665       141  PMPE      H16R           14.0797566309       44.1612495775        2.4083154426  MEMB      141             0.0000000000
     17666       141  PMPE      H16S           15.1983167830       44.6669557530        1.2040131181  MEMB      141             0.0000000000
     17667       141  PMPE      H16T           15.1347835718       44.4070967197        2.9728472730  MEMB      141             0.0000000000
     17668       141  PMPE      C33            12.9719528910       53.7037191741       13.5595514315  MEMB      141             0.0000000000
     17669       141  PMPE      H3X            14.0432554129       53.6697858610       13.2860840271  MEMB      141             0.0000000000
     17670       141  PMPE      H3Y            12.7457623668       54.5997572868       14.1959519522  MEMB      141             0.0000000000
     17671       141  PMPE      C34            12.1897391848       53.8750744039       12.2384433043  MEMB      141             0.0000000000
     17672       141  PMPE      H4X            12.1373678410       54.9684998919       12.0183044314  MEMB      141             0.0000000000
     17673       141  PMPE      H4Y            11.1382792033       53.5934256938       12.3098344991  MEMB      141             0.0000000000
     17674       141  PMPE      C35            12.7834463209       53.1704602622       11.0080704538  MEMB      141             0.0000000000
     17675       141  PMPE      H5X            12.0988564976       53.2269630695       10.1425698654  MEMB      141             0.0000000000
     17676       141  PMPE      H5Y            12.9700856682       52.0974003598       11.1390862115  MEMB      141             0.0000000000
     17677       141  PMPE      C36            14.0817233078       53.7628041346       10.5986209041  MEMB      141             0.0000000000
     17678       141  PMPE      H6X            14.8003001144       53.6496205930       11.4369820657  MEMB      141             0.0000000000
     17679       141  PMPE      H6Y            13.8598097889       54.8219058043       10.5018787557  MEMB      141             0.0000000000
     17680       141  PMPE      C37            14.5492520144       53.3802395488        9.1931944296  MEMB      141             0.0000000000
     17681       141  PMPE      H7X            15.4985500067       53.8326620439        8.8004093041  MEMB      141             0.0000000000
     17682       141  PMPE      H7Y            13.7542371186       53.7108190807        8.4954732694  MEMB      141             0.0000000000
     17683       141  PMPE      C38            15.2827315645       52.1404588889        8.9921259518  MEMB      141             0.0000000000
     17684       141  PMPE      H8X            14.6473561553       51.3619600765        9.4007752202  MEMB      141             0.0000000000
     17685       141  PMPE      H8Y            16.1678891090       52.2060071320        9.6731375859  MEMB      141             0.0000000000
     17686       141  PMPE      C39            15.7736778105       52.0630610068        7.5133689048  MEMB      141             0.0000000000
     17687       141  PMPE      H9X            16.6810361962       51.4434551404        7.5788607015  MEMB      141             0.0000000000
     17688       141  PMPE      H9Y            16.1554092553       53.0236510027        7.0838322836  MEMB      141             0.0000000000
     17689       141  PMPE      C310           14.7411431955       51.4484026774        6.5590216270  MEMB      141             0.0000000000
     17690       141  PMPE      H10X           13.7865283964       52.0373413435        6.6339750459  MEMB      141             0.0000000000
     17691       141  PMPE      H10Y           14.5613606805       50.4337980416        6.9889751283  MEMB      141             0.0000000000
     17692       141  PMPE      C311           15.1936847542       51.1296069562        5.0996782738  MEMB      141             0.0000000000
     17693       141  PMPE      H11X           14.3215332325       50.6192003831        4.6283971298  MEMB      141             0.0000000000
     17694       141  PMPE      H11Y           16.0404196459       50.4227300261        5.0300065564  MEMB      141             0.0000000000
     17695       141  PMPE      C312           15.6274875750       52.2242865337        4.1424643752  MEMB      141             0.0000000000
     17696       141  PMPE      H12X           15.9699295472       51.7662554952        3.1934311197  MEMB      141             0.0000000000
     17697       141  PMPE      H12Y           16.4345681746       52.9008377263        4.5161289107  MEMB      141             0.0000000000
     17698       141  PMPE      C313           14.4357273493       52.9798875587        3.7513592505  MEMB      141             0.0000000000
     17699       141  PMPE      H13X           14.8991482960       53.7967246011        3.1208663625  MEMB      141             0.0000000000
     17700       141  PMPE      H13Y           13.9935789506       53.3037158630        4.7556362657  MEMB      141             0.0000000000
     17701       141  PMPE      C314           13.3571023834       52.3411016811        2.8688967257  MEMB      141             0.0000000000
     17702       141  PMPE      H14X           12.9929424588       51.4882294137        3.3918439065  MEMB      141             0.0000000000
     17703       141  PMPE      H14Y           13.7386765350       52.1092927970        1.8808442951  MEMB      141             0.0000000000
     17704       141  PMPE      C315           11.9979530394       52.9392396158        2.6211211455  MEMB      141             0.0000000000
     17705       141  PMPE      H15X           11.8242379734       53.7980241122        2.2118696066  MEMB      141             0.0000000000
     17706       141  PMPE      H15Y           11.6202716724       53.3349850913        3.5679002463  MEMB      141             0.0000000000
     17707       141  PMPE      C316           11.1063890228       52.9174455212        1.3326481510  MEMB      141             0.0000000000
     17708       141  PMPE      H16X           11.3797816161       53.1231199895        0.3348531331  MEMB      141             0.0000000000
     17709       141  PMPE      H16Y           10.1349495715       53.4667816432        1.5348366593  MEMB      141             0.0000000000
     17710       141  PMPE      H16Z           11.1354643670       51.8687671190        1.1510939695  MEMB      141             0.0000000000
     17711       142  PMPE      N             -10.3900593391      -52.9061280471       17.5811510640  MEMB      142             0.0000000000
     17712       142  PMPE      HN1           -10.6405948440      -53.9130058680       17.4229149352  MEMB      142             0.0000000000
     17713       142  PMPE      HN2           -11.0656281710      -52.2952678820       17.0857591756  MEMB      142             0.0000000000
     17714       142  PMPE      HN3            -9.4202527780      -52.6481726056       17.2401680837  MEMB      142             0.0000000000
     17715       142  PMPE      C12           -10.5282968936      -52.7109817291       19.0769340226  MEMB      142             0.0000000000
     17716       142  PMPE      H12A          -11.4452558584      -53.2855327660       19.3451572345  MEMB      142             0.0000000000
     17717       142  PMPE      H12B          -10.6524998791      -51.6255584240       19.2713142297  MEMB      142             0.0000000000
     17718       142  PMPE      C11            -9.3341786332      -53.3129171465       19.8593618213  MEMB      142             0.0000000000
     17719       142  PMPE      H11A           -9.2098560256      -54.3208993199       19.4154934468  MEMB      142             0.0000000000
     17720       142  PMPE      H11B           -9.4789322879      -53.4600826128       20.9605259877  MEMB      142             0.0000000000
     17721       142  PMPE      P              -6.8207796476      -53.2701722448       19.1241021954  MEMB      142             0.0000000000
     17722       142  PMPE      O13            -7.2277226472      -53.9918570464       17.8966986826  MEMB      142             0.0000000000
     17723       142  PMPE      O14            -6.1542802625      -54.0380178365       20.2020093883  MEMB      142             0.0000000000
     17724       142  PMPE      O11            -5.9174427626      -52.0963788828       18.6356278132  MEMB      142             0.0000000000
     17725       142  PMPE      O12            -8.1486529405      -52.5515797118       19.6794820905  MEMB      142             0.0000000000
     17726       142  PMPE      C1             -6.0729177847      -50.7082010200       18.8448478793  MEMB      142             0.0000000000
     17727       142  PMPE      HA             -5.0993547909      -50.3314294499       19.1460111205  MEMB      142             0.0000000000
     17728       142  PMPE      HB             -6.8685694593      -50.4354719962       19.5661371905  MEMB      142             0.0000000000
     17729       142  PMPE      C2             -6.4065251183      -49.8461471122       17.6192879935  MEMB      142             0.0000000000
     17730       142  PMPE      HS             -6.7137355314      -48.8492198027       18.0519321410  MEMB      142             0.0000000000
     17731       142  PMPE      O21            -7.4987708348      -50.4672543376       16.9799072873  MEMB      142             0.0000000000
     17732       142  PMPE      C21            -8.1474512987      -49.6521551555       16.2127919264  MEMB      142             0.0000000000
     17733       142  PMPE      O22            -8.0383306189      -48.4408685554       16.1485789476  MEMB      142             0.0000000000
     17734       142  PMPE      C22            -9.1666629023      -50.4870173335       15.4894273106  MEMB      142             0.0000000000
     17735       142  PMPE      H2R           -10.0465549202      -50.5963936190       16.1564795708  MEMB      142             0.0000000000
     17736       142  PMPE      H2S            -8.7492377241      -51.4790576861       15.2124484290  MEMB      142             0.0000000000
     17737       142  PMPE      C3             -5.2359027863      -49.6800258289       16.6040233467  MEMB      142             0.0000000000
     17738       142  PMPE      HX             -4.2594993544      -49.5348294602       17.0574662997  MEMB      142             0.0000000000
     17739       142  PMPE      HY             -5.4171570600      -48.7527815652       16.0191414370  MEMB      142             0.0000000000
     17740       142  PMPE      O31            -5.0087701804      -50.8509923469       15.8280956567  MEMB      142             0.0000000000
     17741       142  PMPE      C31            -5.4501822632      -50.8712194027       14.5953309326  MEMB      142             0.0000000000
     17742       142  PMPE      O32            -6.1675330445      -50.1025855084       14.0286729078  MEMB      142             0.0000000000
     17743       142  PMPE      C32            -5.0981197710      -52.0379120821       13.8037362042  MEMB      142             0.0000000000
     17744       142  PMPE      H2X            -4.0605452259      -51.8531791233       13.9053655603  MEMB      142             0.0000000000
     17745       142  PMPE      H2Y            -5.2363563601      -51.9098332070       12.7215046331  MEMB      142             0.0000000000
     17746       142  PMPE      C23            -9.4439970483      -49.7751717328       14.1802164122  MEMB      142             0.0000000000
     17747       142  PMPE      H3R            -9.7847076672      -50.5595681396       13.4699139719  MEMB      142             0.0000000000
     17748       142  PMPE      H3S            -8.5034143380      -49.3379024682       13.7366723878  MEMB      142             0.0000000000
     17749       142  PMPE      C24           -10.5725171407      -48.7638525785       14.3488322644  MEMB      142             0.0000000000
     17750       142  PMPE      H4R           -10.3380758969      -47.9566187398       15.1197517169  MEMB      142             0.0000000000
     17751       142  PMPE      H4S           -11.5453929530      -49.1748437053       14.5684712256  MEMB      142             0.0000000000
     17752       142  PMPE      C25           -10.9093283117      -48.2399415772       12.9924645878  MEMB      142             0.0000000000
     17753       142  PMPE      H5R           -10.0053865741      -47.7954606770       13.0592972019  MEMB      142             0.0000000000
     17754       142  PMPE      H5S           -11.5415310270      -47.4249041613       12.7950815237  MEMB      142             0.0000000000
     17755       142  PMPE      C26           -11.3889543042      -48.9130102491       11.7470315235  MEMB      142             0.0000000000
     17756       142  PMPE      H6R           -12.4837762749      -48.7517836970       11.8266309126  MEMB      142             0.0000000000
     17757       142  PMPE      H6S           -10.8854051582      -49.8325128851       11.7624435642  MEMB      142             0.0000000000
     17758       142  PMPE      C27           -11.1258389918      -48.4563169883       10.3101737184  MEMB      142             0.0000000000
     17759       142  PMPE      H7R           -11.5096839159      -47.4131538940       10.5805622398  MEMB      142             0.0000000000
     17760       142  PMPE      H7S           -11.7051990714      -48.8528233288        9.5384646660  MEMB      142             0.0000000000
     17761       142  PMPE      C28            -9.6071829133      -48.6532827931        9.6764024559  MEMB      142             0.0000000000
     17762       142  PMPE      H8R            -9.1373484614      -49.4148562752        9.3011244732  MEMB      142             0.0000000000
     17763       142  PMPE      H8S            -8.9357119246      -48.8268999807       10.6679711506  MEMB      142             0.0000000000
     17764       142  PMPE      C29            -8.9292378723      -47.5075009346        8.5653020675  MEMB      142             0.0000000000
     17765       142  PMPE      H9R            -8.7058026587      -46.4028810432        8.7812681521  MEMB      142             0.0000000000
     17766       142  PMPE      C217           -9.0723227796      -47.8237272919        7.0398243474  MEMB      142             0.0000000000
     17767       142  PMPE      H17R           -9.5826891765      -47.0333427778        6.4274820523  MEMB      142             0.0000000000
     17768       142  PMPE      H17S           -9.7577043261      -48.6472222484        7.0928807331  MEMB      142             0.0000000000
     17769       142  PMPE      C210           -7.7997865987      -47.5622461699        7.7271755101  MEMB      142             0.0000000000
     17770       142  PMPE      H10R           -7.3734416788      -46.6892134977        7.1237570765  MEMB      142             0.0000000000
     17771       142  PMPE      C211           -7.4450282659      -48.9070503419        7.5785328384  MEMB      142             0.0000000000
     17772       142  PMPE      H11R           -8.2783161412      -49.6573053726        7.5812313443  MEMB      142             0.0000000000
     17773       142  PMPE      H11S           -6.9365408436      -49.1250639028        8.5041925232  MEMB      142             0.0000000000
     17774       142  PMPE      C212           -6.6685360154      -49.0061481311        6.3233135960  MEMB      142             0.0000000000
     17775       142  PMPE      H12R           -6.3114467870      -50.0321076460        6.4916521054  MEMB      142             0.0000000000
     17776       142  PMPE      H12S           -5.8111677300      -48.3073879365        6.3209496095  MEMB      142             0.0000000000
     17777       142  PMPE      C213           -7.5285609338      -48.9541603100        5.0628198249  MEMB      142             0.0000000000
     17778       142  PMPE      H13R           -7.9860107199      -47.9509825458        4.8753653232  MEMB      142             0.0000000000
     17779       142  PMPE      H13S           -8.3692669337      -49.6688007705        5.2338743169  MEMB      142             0.0000000000
     17780       142  PMPE      C214           -6.7927318829      -49.3210619859        3.7935818831  MEMB      142             0.0000000000
     17781       142  PMPE      H14R           -6.3564107527      -50.3342229080        3.8762799879  MEMB      142             0.0000000000
     17782       142  PMPE      H14S           -5.8982462643      -48.6592028065        3.7254332506  MEMB      142             0.0000000000
     17783       142  PMPE      C215           -7.7903182692      -49.1768454606        2.6227550603  MEMB      142             0.0000000000
     17784       142  PMPE      H15R           -7.3617543935      -49.5718452753        1.6799595705  MEMB      142             0.0000000000
     17785       142  PMPE      H15S           -7.9762359042      -48.0909141424        2.4746238065  MEMB      142             0.0000000000
     17786       142  PMPE      C216           -9.2274872550      -49.6700785251        2.8525007819  MEMB      142             0.0000000000
     17787       142  PMPE      H16R           -9.3172039867      -50.7398201905        3.0002438343  MEMB      142             0.0000000000
     17788       142  PMPE      H16S           -9.6526865454      -49.2094658779        3.7660643190  MEMB      142             0.0000000000
     17789       142  PMPE      H16T           -9.8799947124      -49.2918149489        2.0354597065  MEMB      142             0.0000000000
     17790       142  PMPE      C33            -5.8484935870      -53.2891838403       14.2917836343  MEMB      142             0.0000000000
     17791       142  PMPE      H3X            -6.7829095560      -53.1961629724       13.7477174005  MEMB      142             0.0000000000
     17792       142  PMPE      H3Y            -6.0798761795      -53.2853086335       15.3954027206  MEMB      142             0.0000000000
     17793       142  PMPE      C34            -5.2596804753      -54.6582167320       13.8757475056  MEMB      142             0.0000000000
     17794       142  PMPE      H4X            -5.8456764983      -55.5091886528       14.1234799776  MEMB      142             0.0000000000
     17795       142  PMPE      H4Y            -4.4751795858      -55.0534100699       14.5661377244  MEMB      142             0.0000000000
     17796       142  PMPE      C35            -4.7587072486      -54.7340193167       12.4046130884  MEMB      142             0.0000000000
     17797       142  PMPE      H5X            -4.2000369238      -55.7030482573       12.3514353096  MEMB      142             0.0000000000
     17798       142  PMPE      H5Y            -4.0661644599      -53.9124962453       12.1205644010  MEMB      142             0.0000000000
     17799       142  PMPE      C36            -5.8341361667      -54.6473674789       11.4461004245  MEMB      142             0.0000000000
     17800       142  PMPE      H6X            -6.4290072775      -53.7540099407       11.6882188292  MEMB      142             0.0000000000
     17801       142  PMPE      H6Y            -6.3281820516      -55.6058389680       11.6969484925  MEMB      142             0.0000000000
     17802       142  PMPE      C37            -5.3746084958      -54.5597053772       10.0054934191  MEMB      142             0.0000000000
     17803       142  PMPE      H7X            -4.8525841309      -55.5278677118        9.8702374161  MEMB      142             0.0000000000
     17804       142  PMPE      H7Y            -4.6229237876      -53.7653293386        9.8168919644  MEMB      142             0.0000000000
     17805       142  PMPE      C38            -6.5633223465      -54.4360255551        9.0350719306  MEMB      142             0.0000000000
     17806       142  PMPE      H8X            -7.4381672326      -54.9308562042        9.5037811084  MEMB      142             0.0000000000
     17807       142  PMPE      H8Y            -6.3544013538      -54.9938505798        8.1003866851  MEMB      142             0.0000000000
     17808       142  PMPE      C39            -6.9589939312      -53.0041830720        8.6342815554  MEMB      142             0.0000000000
     17809       142  PMPE      H9X            -6.0778241588      -52.4666270459        8.2133727655  MEMB      142             0.0000000000
     17810       142  PMPE      H9Y            -7.3043495544      -52.4644491771        9.5431280800  MEMB      142             0.0000000000
     17811       142  PMPE      C310           -8.0476077724      -52.9608104569        7.5442970326  MEMB      142             0.0000000000
     17812       142  PMPE      H10X           -7.9423919151      -53.8009260872        6.8291946560  MEMB      142             0.0000000000
     17813       142  PMPE      H10Y           -7.9059347069      -52.0167163464        6.9691553020  MEMB      142             0.0000000000
     17814       142  PMPE      C311           -9.4734453435      -52.9084773045        8.0899350321  MEMB      142             0.0000000000
     17815       142  PMPE      H11X           -9.6532029063      -51.8530251331        8.3879760100  MEMB      142             0.0000000000
     17816       142  PMPE      H11Y           -9.6066839705      -53.5311355192        8.9970703675  MEMB      142             0.0000000000
     17817       142  PMPE      C312          -10.5990285764      -53.2836566289        7.1245881136  MEMB      142             0.0000000000
     17818       142  PMPE      H12X          -11.4116638524      -52.5788108059        7.4061843546  MEMB      142             0.0000000000
     17819       142  PMPE      H12Y          -10.9885890418      -54.3035338249        7.3585145883  MEMB      142             0.0000000000
     17820       142  PMPE      C313          -10.3611851305      -53.0449848766        5.6268407449  MEMB      142             0.0000000000
     17821       142  PMPE      H13X           -9.4762437427      -53.5993604763        5.2393512725  MEMB      142             0.0000000000
     17822       142  PMPE      H13Y          -10.1532468560      -51.9553023824        5.4457346648  MEMB      142             0.0000000000
     17823       142  PMPE      C314          -11.6140100066      -53.4813334606        4.8379620837  MEMB      142             0.0000000000
     17824       142  PMPE      H14X          -12.5184613157      -53.0458313422        5.3307855120  MEMB      142             0.0000000000
     17825       142  PMPE      H14Y          -11.7368114761      -54.5878436306        4.7943322827  MEMB      142             0.0000000000
     17826       142  PMPE      C315          -11.5694252302      -52.9491083331        3.4074803396  MEMB      142             0.0000000000
     17827       142  PMPE      H15X          -10.6466191333      -53.2573422092        2.8888354476  MEMB      142             0.0000000000
     17828       142  PMPE      H15Y          -11.5531899202      -51.8457598792        3.5525871637  MEMB      142             0.0000000000
     17829       142  PMPE      C316          -12.7304352574      -53.2984920739        2.4864783171  MEMB      142             0.0000000000
     17830       142  PMPE      H16X          -13.6096959121      -52.9478999791        2.9706315910  MEMB      142             0.0000000000
     17831       142  PMPE      H16Y          -12.9423659292      -54.3718602530        2.3445126805  MEMB      142             0.0000000000
     17832       142  PMPE      H16Z          -12.6908319216      -52.7488403690        1.5224896129  MEMB      142             0.0000000000
     17833       143  OYPE      N             -11.1667031786       50.4652687180       20.5168202182  MEMB      143             0.0000000000
     17834       143  OYPE      HN1           -10.5749082933       49.6661731266       20.7902106085  MEMB      143             0.0000000000
     17835       143  OYPE      HN2           -10.5749905493       51.2274551585       20.1033912976  MEMB      143             0.0000000000
     17836       143  OYPE      HN3           -11.6011371746       50.7978385009       21.3931511197  MEMB      143             0.0000000000
     17837       143  OYPE      C12           -12.1747059360       50.0206585010       19.4916543859  MEMB      143             0.0000000000
     17838       143  OYPE      H12A          -13.1579836122       49.9828208992       20.0084591377  MEMB      143             0.0000000000
     17839       143  OYPE      H12B          -11.8957683172       48.9974526710       19.1630074518  MEMB      143             0.0000000000
     17840       143  OYPE      C11           -12.1719978706       50.9613172151       18.2763913299  MEMB      143             0.0000000000
     17841       143  OYPE      H11A          -12.6891254259       50.4611254885       17.4358692988  MEMB      143             0.0000000000
     17842       143  OYPE      H11B          -11.1480046614       51.1583622065       17.8812409088  MEMB      143             0.0000000000
     17843       143  OYPE      P             -12.0649890925       53.5118465592       18.8246654621  MEMB      143             0.0000000000
     17844       143  OYPE      O13           -10.6524564375       53.4199172705       18.4287417646  MEMB      143             0.0000000000
     17845       143  OYPE      O14           -12.3541364246       53.9662625930       20.1933812330  MEMB      143             0.0000000000
     17846       143  OYPE      O11           -12.7624934671       54.4944088778       17.9286534807  MEMB      143             0.0000000000
     17847       143  OYPE      O12           -12.8611804170       52.1492522925       18.5949684722  MEMB      143             0.0000000000
     17848       143  OYPE      C1            -14.0600875992       54.1693295872       17.5950884024  MEMB      143             0.0000000000
     17849       143  OYPE      HA            -14.6819547839       54.8862334554       18.1873187484  MEMB      143             0.0000000000
     17850       143  OYPE      HB            -14.5782290044       53.1984353004       17.7279611547  MEMB      143             0.0000000000
     17851       143  OYPE      C2            -13.8454721016       54.0143981963       16.1487054188  MEMB      143             0.0000000000
     17852       143  OYPE      HS            -13.2144072617       53.4706967946       15.5508103480  MEMB      143             0.0000000000
     17853       143  OYPE      O21           -13.4647229840       55.4470613965       15.8582987866  MEMB      143             0.0000000000
     17854       143  OYPE      C21           -12.3626474555       55.7599624677       14.9255670985  MEMB      143             0.0000000000
     17855       143  OYPE      O22           -11.7567118614       54.8566453672       14.4191903735  MEMB      143             0.0000000000
     17856       143  OYPE      C22           -12.4355957771       57.2871235401       14.0857060916  MEMB      143             0.0000000000
     17857       143  OYPE      H2R           -11.4740246355       57.6500147908       14.1112766682  MEMB      143             0.0000000000
     17858       143  OYPE      H2S           -13.0719530946       57.9948323845       14.6986336809  MEMB      143             0.0000000000
     17859       143  OYPE      C3            -15.2823713360       53.1840575729       15.5645853339  MEMB      143             0.0000000000
     17860       143  OYPE      HX            -15.4565968386       54.0415937038       15.7338143439  MEMB      143             0.0000000000
     17861       143  OYPE      HY            -16.2030895798       53.1330903622       16.0890739455  MEMB      143             0.0000000000
     17862       143  OYPE      O31           -15.7053096768       53.0021539569       14.1115311355  MEMB      143             0.0000000000
     17863       143  OYPE      C31           -15.1060535590       52.0799728229       13.8347993703  MEMB      143             0.0000000000
     17864       143  OYPE      O32           -14.6919223988       51.3563018535       14.7396522704  MEMB      143             0.0000000000
     17865       143  OYPE      C32           -15.1649341692       51.8630930837       12.3358696937  MEMB      143             0.0000000000
     17866       143  OYPE      H2X           -16.1086171100       51.3165180474       12.0988429768  MEMB      143             0.0000000000
     17867       143  OYPE      H2Y           -15.0353473364       52.7186630780       11.6539829543  MEMB      143             0.0000000000
     17868       143  OYPE      C23           -12.9245594980       57.4139708657       12.4612721194  MEMB      143             0.0000000000
     17869       143  OYPE      H3R           -13.3053793842       58.4007084059       12.1962123191  MEMB      143             0.0000000000
     17870       143  OYPE      H3S           -13.8869878056       56.9677267327       12.1555649425  MEMB      143             0.0000000000
     17871       143  OYPE      C24           -12.8478938092       56.1896750259       11.4493465767  MEMB      143             0.0000000000
     17872       143  OYPE      H4R           -12.8932951941       55.2145206618       11.9086519309  MEMB      143             0.0000000000
     17873       143  OYPE      H4S           -11.9234213252       56.5784026210       11.1732908458  MEMB      143             0.0000000000
     17874       143  OYPE      C25           -13.5994819964       55.9061412873       10.1240460831  MEMB      143             0.0000000000
     17875       143  OYPE      H5R           -13.3918559741       56.7696057835        9.4654485985  MEMB      143             0.0000000000
     17876       143  OYPE      H5S           -14.6300437316       55.5573285277        9.9181924335  MEMB      143             0.0000000000
     17877       143  OYPE      C26           -13.2254556002       55.0894842659        9.1362505952  MEMB      143             0.0000000000
     17878       143  OYPE      H6R           -13.4653310082       54.1373161175        9.5574761528  MEMB      143             0.0000000000
     17879       143  OYPE      H6S           -12.2063152230       55.4588981949        9.2029511319  MEMB      143             0.0000000000
     17880       143  OYPE      C27           -14.0322843968       55.3713565018        7.8919427377  MEMB      143             0.0000000000
     17881       143  OYPE      H7R           -13.3972883530       55.1663676318        7.0439400175  MEMB      143             0.0000000000
     17882       143  OYPE      H7S           -14.1058815849       56.4811908165        7.8310961033  MEMB      143             0.0000000000
     17883       143  OYPE      C28           -15.4482539330       54.6552139728        7.8160594663  MEMB      143             0.0000000000
     17884       143  OYPE      H8R           -15.9347933869       54.8615559553        6.8183207611  MEMB      143             0.0000000000
     17885       143  OYPE      H8S           -16.1254840047       55.2346624163        8.5064763706  MEMB      143             0.0000000000
     17886       143  OYPE      C29           -15.6363422503       53.2493376757        8.0014994180  MEMB      143             0.0000000000
     17887       143  OYPE      H9R           -15.4729720369       52.9511260590        9.0310469162  MEMB      143             0.0000000000
     17888       143  OYPE      C210          -15.8853151506       52.4019802704        7.0072914392  MEMB      143             0.0000000000
     17889       143  OYPE      H10R          -15.9719866224       51.3688397086        7.3408732494  MEMB      143             0.0000000000
     17890       143  OYPE      C211          -16.0185144710       52.7046864270        5.5125310997  MEMB      143             0.0000000000
     17891       143  OYPE      H11R          -16.2453328997       53.7687606232        5.2487603254  MEMB      143             0.0000000000
     17892       143  OYPE      H11S          -16.9348545103       52.2083993911        5.1152891811  MEMB      143             0.0000000000
     17893       143  OYPE      C212          -14.7373323856       52.4008086655        4.6526665794  MEMB      143             0.0000000000
     17894       143  OYPE      H12R          -13.8009253717       52.8696574320        4.9134340743  MEMB      143             0.0000000000
     17895       143  OYPE      H12S          -15.0485805621       52.7087737384        3.6290171321  MEMB      143             0.0000000000
     17896       143  OYPE      C213          -14.1149803530       51.0155729939        4.7286482050  MEMB      143             0.0000000000
     17897       143  OYPE      H13R          -15.0889068296       50.9119953405        4.4508838891  MEMB      143             0.0000000000
     17898       143  OYPE      H13S          -14.1494541821       50.4134881115        5.6337825544  MEMB      143             0.0000000000
     17899       143  OYPE      C214          -13.1625285275       50.4163699019        3.6590553406  MEMB      143             0.0000000000
     17900       143  OYPE      H14R          -13.0959234148       49.3097693849        3.9393103305  MEMB      143             0.0000000000
     17901       143  OYPE      H14S          -12.2113795318       50.8075711394        3.8588230568  MEMB      143             0.0000000000
     17902       143  OYPE      C215          -13.4248980088       50.7635685450        2.1367139687  MEMB      143             0.0000000000
     17903       143  OYPE      H15R          -13.9772700584       51.6670097195        1.9069908745  MEMB      143             0.0000000000
     17904       143  OYPE      H15S          -14.1305844264       50.1556219547        1.4763668822  MEMB      143             0.0000000000
     17905       143  OYPE      C216          -12.8451742551       50.0541882487        1.1655604049  MEMB      143             0.0000000000
     17906       143  OYPE      H16R          -11.9473205301       50.3802176920        1.2179234536  MEMB      143             0.0000000000
     17907       143  OYPE      H16S          -13.0575169006       50.2917085642        0.1378294673  MEMB      143             0.0000000000
     17908       143  OYPE      H16T          -12.2435303397       49.2966365204        1.2359596682  MEMB      143             0.0000000000
     17909       143  OYPE      C33           -14.0106808642       51.0533962164       12.0730041489  MEMB      143             0.0000000000
     17910       143  OYPE      H3X           -14.2882805632       50.2032922448       12.6572247419  MEMB      143             0.0000000000
     17911       143  OYPE      H3Y           -12.9892547542       51.3626803076       12.4162965222  MEMB      143             0.0000000000
     17912       143  OYPE      C34           -14.0919542066       50.5357937315       10.6857548855  MEMB      143             0.0000000000
     17913       143  OYPE      H4X           -14.0966809806       49.5773276765       10.9917503359  MEMB      143             0.0000000000
     17914       143  OYPE      H4Y           -14.9332227494       50.0285825262       10.2584822704  MEMB      143             0.0000000000
     17915       143  OYPE      C35           -12.9286256422       50.9160035747        9.8098113231  MEMB      143             0.0000000000
     17916       143  OYPE      H5X           -11.8856431206       50.8461501322       10.2267748944  MEMB      143             0.0000000000
     17917       143  OYPE      H5Y           -13.1121968668       51.9812778815        9.7815958539  MEMB      143             0.0000000000
     17918       143  OYPE      C36           -12.9436991182       50.2263244540        8.4531316857  MEMB      143             0.0000000000
     17919       143  OYPE      H6X           -13.0855705282       49.1422650599        8.4846783012  MEMB      143             0.0000000000
     17920       143  OYPE      H6Y           -13.8106654369       50.5282357139        7.8684322354  MEMB      143             0.0000000000
     17921       143  OYPE      C37           -11.6279082701       50.4272555454        7.7961486542  MEMB      143             0.0000000000
     17922       143  OYPE      H7X           -10.7761835491       50.0351481986        8.4401027027  MEMB      143             0.0000000000
     17923       143  OYPE      H7Y           -11.6476743123       49.8991964155        6.8062955266  MEMB      143             0.0000000000
     17924       143  OYPE      C38           -11.4305026475       51.8992810817        7.4910075237  MEMB      143             0.0000000000
     17925       143  OYPE      H8X           -12.1330220726       52.2917207451        6.7626962397  MEMB      143             0.0000000000
     17926       143  OYPE      H8Y           -11.5289721105       52.4777582741        8.3967616294  MEMB      143             0.0000000000
     17927       143  OYPE      C39           -10.1253633923       52.3437461372        7.1623488713  MEMB      143             0.0000000000
     17928       143  OYPE      H9X            -9.4039864796       51.6490289380        7.6004939742  MEMB      143             0.0000000000
     17929       143  OYPE      C310           -9.7726604681       53.3069780018        6.3168426253  MEMB      143             0.0000000000
     17930       143  OYPE      H10X           -8.8030063434       53.6770359610        6.2193613030  MEMB      143             0.0000000000
     17931       143  OYPE      C311          -10.2903265526       54.2587727852        5.4396156582  MEMB      143             0.0000000000
     17932       143  OYPE      H11X          -11.2969152893       54.2276957317        5.7684190552  MEMB      143             0.0000000000
     17933       143  OYPE      H11Y           -9.7780043867       55.2223587885        5.6611749655  MEMB      143             0.0000000000
     17934       143  OYPE      C312          -10.1667925412       53.8369868414        4.0129878256  MEMB      143             0.0000000000
     17935       143  OYPE      H12X          -10.5841031716       54.7347762037        3.5211409988  MEMB      143             0.0000000000
     17936       143  OYPE      H12Y          -10.8778333700       53.0154626280        3.8016861480  MEMB      143             0.0000000000
     17937       143  OYPE      C313           -8.7769728670       53.4026636448        3.5907403064  MEMB      143             0.0000000000
     17938       143  OYPE      H13X           -8.0280524726       54.1770352378        3.5011920232  MEMB      143             0.0000000000
     17939       143  OYPE      H13Y           -8.4225855766       52.5328810435        4.1450317260  MEMB      143             0.0000000000
     17940       143  OYPE      C314           -8.6972952484       52.9904614984        2.2495823362  MEMB      143             0.0000000000
     17941       143  OYPE      H14X           -9.0277354418       51.8878113485        2.3674877365  MEMB      143             0.0000000000
     17942       143  OYPE      H14Y           -7.7669090233       52.9364506275        1.7925853619  MEMB      143             0.0000000000
     17943       143  OYPE      C315           -9.3232819945       54.0959723867        1.2798593008  MEMB      143             0.0000000000
     17944       143  OYPE      H15X           -8.8988193769       54.9005525395        0.8502528071  MEMB      143             0.0000000000
     17945       143  OYPE      H15Y          -10.2830532440       54.3917397936        1.7407793657  MEMB      143             0.0000000000
     17946       143  OYPE      C316           -9.6297925204       53.8525142361       -0.2873521958  MEMB      143             0.0000000000
     17947       143  OYPE      H16X           -9.9819511718       52.9508611843       -0.4389908033  MEMB      143             0.0000000000
     17948       143  OYPE      H16Y           -8.7728978434       53.3738871902       -0.5309306921  MEMB      143             0.0000000000
     17949       143  OYPE      C317          -10.9479086834       54.0925104513       -1.1224878931  MEMB      143             0.0000000000
     17950       143  OYPE      H17X          -10.9488010267       53.6384771577       -2.1652039219  MEMB      143             0.0000000000
     17951       143  OYPE      H17Y          -10.6015833646       55.0351080315       -1.0660578931  MEMB      143             0.0000000000
     17952       143  OYPE      C318          -12.4185808495       54.1937636744       -0.6269256885  MEMB      143             0.0000000000
     17953       143  OYPE      H18X          -12.7144937350       54.3943506167        0.3740085163  MEMB      143             0.0000000000
     17954       143  OYPE      H18Y          -12.8502592894       54.8563849241       -1.3538871570  MEMB      143             0.0000000000
     17955       143  OYPE      H18Z          -13.0198926916       53.2942040924       -0.8547614569  MEMB      143             0.0000000000
     17956       144  POPE      N               1.1814474479      -52.3180711675       21.7953309967  MEMB      144             0.0000000000
     17957       144  POPE      HN1             0.7655275197      -51.7393456581       21.0455479558  MEMB      144             0.0000000000
     17958       144  POPE      HN2             0.4636970356      -52.5556781672       22.5174189117  MEMB      144             0.0000000000
     17959       144  POPE      HN3             2.0043443682      -51.8393211642       22.2286579741  MEMB      144             0.0000000000
     17960       144  POPE      C12             1.5294778103      -53.5486267662       20.9930629825  MEMB      144             0.0000000000
     17961       144  POPE      H12A            0.5638073368      -54.1068057605       20.9558689624  MEMB      144             0.0000000000
     17962       144  POPE      H12B            2.3048917116      -54.0699449560       21.5859013591  MEMB      144             0.0000000000
     17963       144  POPE      C11             1.9968777187      -53.2673373377       19.5264905171  MEMB      144             0.0000000000
     17964       144  POPE      H11A            2.6741472494      -54.0405335168       19.0838691353  MEMB      144             0.0000000000
     17965       144  POPE      H11B            2.5794750406      -52.3337872304       19.4570132710  MEMB      144             0.0000000000
     17966       144  POPE      P               0.3128029529      -54.4008481721       17.9171166080  MEMB      144             0.0000000000
     17967       144  POPE      O13            -0.1785431420      -55.3026347800       18.9816817154  MEMB      144             0.0000000000
     17968       144  POPE      O14             1.3460433528      -54.9054508873       16.9880665496  MEMB      144             0.0000000000
     17969       144  POPE      O11            -0.8983882231      -53.7407211616       17.1526816122  MEMB      144             0.0000000000
     17970       144  POPE      O12             0.8823486320      -53.1064878596       18.6702157888  MEMB      144             0.0000000000
     17971       144  POPE      C1             -1.9978215244      -53.2392295291       17.9445407362  MEMB      144             0.0000000000
     17972       144  POPE      HA             -1.7211289537      -52.8627234988       18.9523842261  MEMB      144             0.0000000000
     17973       144  POPE      HB             -2.7228333938      -54.0375032655       18.1244867999  MEMB      144             0.0000000000
     17974       144  POPE      C2             -2.7557856260      -52.1196929315       17.2291739744  MEMB      144             0.0000000000
     17975       144  POPE      HS             -3.7704859708      -51.8382476461       17.6197973067  MEMB      144             0.0000000000
     17976       144  POPE      O21            -2.7162752230      -52.2481194197       15.8130164631  MEMB      144             0.0000000000
     17977       144  POPE      C21            -3.2634147105      -53.2955611390       15.5012466425  MEMB      144             0.0000000000
     17978       144  POPE      O22            -4.1112213965      -53.8482451176       16.2116475351  MEMB      144             0.0000000000
     17979       144  POPE      C22            -2.7103119096      -53.5896227056       14.0223383234  MEMB      144             0.0000000000
     17980       144  POPE      H2R            -2.8877761771      -52.8942101732       13.1658322764  MEMB      144             0.0000000000
     17981       144  POPE      H2S            -3.0557502966      -54.4960833120       13.6457051754  MEMB      144             0.0000000000
     17982       144  POPE      C3             -2.0465570621      -50.9108201121       17.5701545976  MEMB      144             0.0000000000
     17983       144  POPE      HX             -2.1915775112      -50.5849299962       18.6058062983  MEMB      144             0.0000000000
     17984       144  POPE      HY             -2.5513709605      -50.0956442393       17.0321453689  MEMB      144             0.0000000000
     17985       144  POPE      O31            -0.6160049422      -50.9560543125       17.4373434035  MEMB      144             0.0000000000
     17986       144  POPE      C31             0.1749352008      -50.7273258909       16.4539949836  MEMB      144             0.0000000000
     17987       144  POPE      O32             0.0495086868      -50.5432306672       15.3345826471  MEMB      144             0.0000000000
     17988       144  POPE      C32             1.5593278907      -50.4778412566       16.3030464996  MEMB      144             0.0000000000
     17989       144  POPE      H2X             1.7176391402      -51.5460165202       16.1541542120  MEMB      144             0.0000000000
     17990       144  POPE      H2Y             1.9368169414      -49.9428470208       17.1231364104  MEMB      144             0.0000000000
     17991       144  POPE      C23            -1.3800403973      -54.1221397784       13.8762140342  MEMB      144             0.0000000000
     17992       144  POPE      H3R            -1.3370395227      -55.1901978058       14.1582720601  MEMB      144             0.0000000000
     17993       144  POPE      H3S            -0.9130096943      -53.5599894177       14.6820907482  MEMB      144             0.0000000000
     17994       144  POPE      C24            -0.8449044622      -53.7401117534       12.5037457990  MEMB      144             0.0000000000
     17995       144  POPE      H4R             0.1625295250      -54.1865616079       12.4000812693  MEMB      144             0.0000000000
     17996       144  POPE      H4S            -0.7866118987      -52.6229884796       12.5078018048  MEMB      144             0.0000000000
     17997       144  POPE      C25            -1.5618972631      -54.2155173859       11.2287899579  MEMB      144             0.0000000000
     17998       144  POPE      H5R            -2.5622406009      -53.7824638819       11.0763465895  MEMB      144             0.0000000000
     17999       144  POPE      H5S            -1.6600667481      -55.3202472926       11.2556246371  MEMB      144             0.0000000000
     18000       144  POPE      C26            -0.7330065960      -53.7658136072       10.0226914254  MEMB      144             0.0000000000
     18001       144  POPE      H6R             0.3394044811      -53.8806564856       10.2941127370  MEMB      144             0.0000000000
     18002       144  POPE      H6S            -0.9236661758      -52.6705229700        9.8968131460  MEMB      144             0.0000000000
     18003       144  POPE      C27            -1.0430036958      -54.5453946930        8.7296670124  MEMB      144             0.0000000000
     18004       144  POPE      H7R            -2.1213592036      -54.4156145273        8.4981937554  MEMB      144             0.0000000000
     18005       144  POPE      H7S            -0.9069575988      -55.6417048511        8.8645119790  MEMB      144             0.0000000000
     18006       144  POPE      C28            -0.1476471875      -54.1648970635        7.5359729236  MEMB      144             0.0000000000
     18007       144  POPE      H8R            -0.5404849803      -54.6987961550        6.6363564919  MEMB      144             0.0000000000
     18008       144  POPE      H8S             0.8864689039      -54.5049385490        7.7749304649  MEMB      144             0.0000000000
     18009       144  POPE      C29            -0.0533120418      -52.6887322740        7.3171738392  MEMB      144             0.0000000000
     18010       144  POPE      H91             0.4564982033      -52.1511572031        8.1123881067  MEMB      144             0.0000000000
     18011       144  POPE      C210           -0.5896304270      -51.9965324301        6.3277013082  MEMB      144             0.0000000000
     18012       144  POPE      H101           -0.4476939623      -50.9069694409        6.2475267652  MEMB      144             0.0000000000
     18013       144  POPE      C211           -1.3852820579      -52.6363693478        5.2686441996  MEMB      144             0.0000000000
     18014       144  POPE      H11R           -1.8692503568      -51.7822051558        4.8013445478  MEMB      144             0.0000000000
     18015       144  POPE      H11S           -2.1294765521      -53.3937609144        5.5610569586  MEMB      144             0.0000000000
     18016       144  POPE      C212           -0.4610201302      -53.4123788269        4.4062032291  MEMB      144             0.0000000000
     18017       144  POPE      H12R           -0.0316970914      -54.3550913110        4.7037110080  MEMB      144             0.0000000000
     18018       144  POPE      H12S            0.3660904566      -52.6892014479        4.1203324992  MEMB      144             0.0000000000
     18019       144  POPE      C213           -1.1503263072      -54.3318847856        3.3385826103  MEMB      144             0.0000000000
     18020       144  POPE      H13R           -1.8774588516      -53.4913223097        3.1013931992  MEMB      144             0.0000000000
     18021       144  POPE      H13S           -2.1501358455      -54.5766707092        3.1121663352  MEMB      144             0.0000000000
     18022       144  POPE      C214           -0.1207051398      -54.9847201056        2.0589079124  MEMB      144             0.0000000000
     18023       144  POPE      H14R            0.5230224389      -55.6574404107        2.4032776043  MEMB      144             0.0000000000
     18024       144  POPE      H14S            0.9555963845      -54.5026628267        2.1900537713  MEMB      144             0.0000000000
     18025       144  POPE      C215           -0.5427868210      -54.8640022232        0.3597855821  MEMB      144             0.0000000000
     18026       144  POPE      H15R            0.3170270040      -54.8412474248       -0.4268801697  MEMB      144             0.0000000000
     18027       144  POPE      H15S           -1.2755317353      -53.8449954707       -0.1014207282  MEMB      144             0.0000000000
     18028       144  POPE      C216           -1.2151415439      -55.8470452708        0.5296046320  MEMB      144             0.0000000000
     18029       144  POPE      H16R           -1.3702871254      -55.3750396331       -0.3815694706  MEMB      144             0.0000000000
     18030       144  POPE      H16S           -2.2572555045      -55.9571944342        0.4674255682  MEMB      144             0.0000000000
     18031       144  POPE      C217           -0.2579211321      -57.0223115678        0.5300185124  MEMB      144             0.0000000000
     18032       144  POPE      H17R           -0.5084443557      -57.8428176808       -0.1637420468  MEMB      144             0.0000000000
     18033       144  POPE      H17S           -0.5889330755      -57.3336084816        1.5024032390  MEMB      144             0.0000000000
     18034       144  POPE      C218            1.2217723520      -56.9260081619        0.1580147705  MEMB      144             0.0000000000
     18035       144  POPE      H18R            1.4386797756      -56.5821835558       -0.8751006451  MEMB      144             0.0000000000
     18036       144  POPE      H18S            1.5381194305      -57.9566401782        0.2137349460  MEMB      144             0.0000000000
     18037       144  POPE      H18T            1.7496160054      -56.2502908463        0.8273518991  MEMB      144             0.0000000000
     18038       144  POPE      C33             2.0300588303      -49.6725043473       14.9471093581  MEMB      144             0.0000000000
     18039       144  POPE      H3X             3.1055535193      -49.7936925814       14.9445796306  MEMB      144             0.0000000000
     18040       144  POPE      H3Y             1.8306103068      -48.5823743447       14.9244259811  MEMB      144             0.0000000000
     18041       144  POPE      C34             1.6490626925      -50.3008419572       13.5770437024  MEMB      144             0.0000000000
     18042       144  POPE      H4X             0.5773657208      -50.0161927669       13.3578674517  MEMB      144             0.0000000000
     18043       144  POPE      H4Y             1.7470574695      -51.3832706928       13.8619878194  MEMB      144             0.0000000000
     18044       144  POPE      C35             2.3859766400      -49.8958108510       12.3784258382  MEMB      144             0.0000000000
     18045       144  POPE      H5X             3.3958220673      -50.2971428098       12.5429202513  MEMB      144             0.0000000000
     18046       144  POPE      H5Y             2.3071193835      -48.7873429698       12.2311299738  MEMB      144             0.0000000000
     18047       144  POPE      C36             1.7268741921      -50.5794423445       11.2056497960  MEMB      144             0.0000000000
     18048       144  POPE      H6X             0.6644402082      -50.3232895065       11.3086003186  MEMB      144             0.0000000000
     18049       144  POPE      H6Y             1.8593044437      -51.6822478941       11.2003641110  MEMB      144             0.0000000000
     18050       144  POPE      C37             1.9853168430      -49.9459550413        9.9126601246  MEMB      144             0.0000000000
     18051       144  POPE      H7X             2.0955679027      -48.8404790836        9.9897688201  MEMB      144             0.0000000000
     18052       144  POPE      H7Y             1.2686447383      -50.2414826297        9.1009700990  MEMB      144             0.0000000000
     18053       144  POPE      C38             3.2394251528      -50.3390613590        9.4848786037  MEMB      144             0.0000000000
     18054       144  POPE      H8X             3.4423148324      -51.3941458708        9.4470196224  MEMB      144             0.0000000000
     18055       144  POPE      H8Y             4.0813352967      -49.9054532674       10.0909807260  MEMB      144             0.0000000000
     18056       144  POPE      C39             3.1905519366      -49.7112320504        8.1734656259  MEMB      144             0.0000000000
     18057       144  POPE      H9X             4.1597256969      -48.9772709043        8.1017907501  MEMB      144             0.0000000000
     18058       144  POPE      H9Y             3.6415668102      -48.8591581454        8.6123816114  MEMB      144             0.0000000000
     18059       144  POPE      C310            3.0081194913      -50.2684973957        6.6334557782  MEMB      144             0.0000000000
     18060       144  POPE      H10X            3.5800344863      -49.6388046566        5.8634098339  MEMB      144             0.0000000000
     18061       144  POPE      H10Y            1.9581544290      -50.2856364817        6.6868524262  MEMB      144             0.0000000000
     18062       144  POPE      C311            3.4620598630      -51.7219582970        6.2657750906  MEMB      144             0.0000000000
     18063       144  POPE      H11X            3.1568572480      -52.3702362120        7.0766320847  MEMB      144             0.0000000000
     18064       144  POPE      H11Y            4.4211446624      -52.2025570014        6.4824975509  MEMB      144             0.0000000000
     18065       144  POPE      C312            3.7672830754      -51.9205969216        4.8823491872  MEMB      144             0.0000000000
     18066       144  POPE      H12X            4.5098276045      -51.2657553068        4.4270451060  MEMB      144             0.0000000000
     18067       144  POPE      H12Y            2.8058882494      -51.5969581001        4.5428149041  MEMB      144             0.0000000000
     18068       144  POPE      C313            3.9424087626      -53.3700278308        4.6446145062  MEMB      144             0.0000000000
     18069       144  POPE      H13X            3.0748306406      -53.8827047951        5.1347196578  MEMB      144             0.0000000000
     18070       144  POPE      H13Y            4.8605756396      -53.6996388326        5.1639945902  MEMB      144             0.0000000000
     18071       144  POPE      C314            4.0736997831      -53.5883485559        3.1549156855  MEMB      144             0.0000000000
     18072       144  POPE      H14X            3.2149015068      -53.1096625250        2.6386390662  MEMB      144             0.0000000000
     18073       144  POPE      H14Y            4.0242052335      -54.6883977792        3.0316179701  MEMB      144             0.0000000000
     18074       144  POPE      C315            5.3959086946      -53.0700966580        2.5750706902  MEMB      144             0.0000000000
     18075       144  POPE      H15X            6.1403932491      -53.7568862277        3.0346352879  MEMB      144             0.0000000000
     18076       144  POPE      H15Y            5.6140613791      -52.0157499036        2.8504767872  MEMB      144             0.0000000000
     18077       144  POPE      C316            5.4327396580      -53.0591996555        1.0646379065  MEMB      144             0.0000000000
     18078       144  POPE      H16X            4.5600263028      -53.4896613948        0.5640092803  MEMB      144             0.0000000000
     18079       144  POPE      H16Y            6.2315946320      -53.5814558614        0.6497639008  MEMB      144             0.0000000000
     18080       144  POPE      H16Z            5.7264118444      -52.1181828716        0.6087946889  MEMB      144             0.0000000000
     18081       145  PMPG      C13           -55.7522082450       -0.6975604765       20.6059305456  MEMB      145             0.0000000000
     18082       145  PMPG      H13A          -56.6341226108       -1.4405942613       20.6796102085  MEMB      145             0.0000000000
     18083       145  PMPG      H13B          -54.9109255815       -1.1531071032       21.1858697342  MEMB      145             0.0000000000
     18084       145  PMPG      OC3           -56.0644672620        0.6065272228       21.1667306802  MEMB      145             0.0000000000
     18085       145  PMPG      HO3           -57.0020037222        0.8554461555       21.0855655715  MEMB      145             0.0000000000
     18086       145  PMPG      C12           -55.9388325208       -0.8490115926       19.2132496776  MEMB      145             0.0000000000
     18087       145  PMPG      H12A          -57.0030695206       -0.5897999605       19.0118097676  MEMB      145             0.0000000000
     18088       145  PMPG      OC2           -55.7063379813       -2.2192663310       18.9269975417  MEMB      145             0.0000000000
     18089       145  PMPG      HO2           -55.6189340984       -2.1952524820       17.9826062568  MEMB      145             0.0000000000
     18090       145  PMPG      C11           -54.9801369283        0.0770485082       18.5721603970  MEMB      145             0.0000000000
     18091       145  PMPG      H11A          -55.2709860278        1.1157680915       18.8610042767  MEMB      145             0.0000000000
     18092       145  PMPG      H11B          -55.1233624125       -0.1443068030       17.5054138375  MEMB      145             0.0000000000
     18093       145  PMPG      P             -52.4096296663        0.1285300573       18.1228879596  MEMB      145             0.0000000000
     18094       145  PMPG      O13           -52.2476576324       -0.9947095322       17.1723920820  MEMB      145             0.0000000000
     18095       145  PMPG      O14           -51.2963168596        0.4654026896       19.0303353402  MEMB      145             0.0000000000
     18096       145  PMPG      O11           -52.8267736221        1.4101514010       17.2792274218  MEMB      145             0.0000000000
     18097       145  PMPG      O12           -53.6702557774       -0.1879985198       19.0336012561  MEMB      145             0.0000000000
     18098       145  PMPG      C1            -53.0077155500        2.7288515786       17.7869384817  MEMB      145             0.0000000000
     18099       145  PMPG      HA            -52.0414801313        3.2466578092       17.9742066671  MEMB      145             0.0000000000
     18100       145  PMPG      HB            -53.4790595184        2.6915738254       18.7899086628  MEMB      145             0.0000000000
     18101       145  PMPG      C2            -53.8192379122        3.6014667198       16.7589572924  MEMB      145             0.0000000000
     18102       145  PMPG      HS            -54.0078224316        4.5828379739       17.2951418871  MEMB      145             0.0000000000
     18103       145  PMPG      O21           -55.0262755658        2.9443234187       16.2660408819  MEMB      145             0.0000000000
     18104       145  PMPG      C21           -56.0263436492        3.0016167818       17.1036866395  MEMB      145             0.0000000000
     18105       145  PMPG      O22           -55.8687628083        3.3590890535       18.2494213203  MEMB      145             0.0000000000
     18106       145  PMPG      C22           -57.2954558753        2.5733655191       16.4099007651  MEMB      145             0.0000000000
     18107       145  PMPG      H2R           -58.0514573182        2.3851878634       17.2067881944  MEMB      145             0.0000000000
     18108       145  PMPG      H2S           -57.0802304416        1.6162741248       15.8850653773  MEMB      145             0.0000000000
     18109       145  PMPG      C3            -53.0094586858        3.9018994927       15.4560866734  MEMB      145             0.0000000000
     18110       145  PMPG      HX            -52.0648677800        4.4491525013       15.6439904795  MEMB      145             0.0000000000
     18111       145  PMPG      HY            -53.6270282555        4.5272727180       14.7650494794  MEMB      145             0.0000000000
     18112       145  PMPG      O31           -52.6019681591        2.6768645597       14.8484148081  MEMB      145             0.0000000000
     18113       145  PMPG      C31           -53.1322628895        2.2408707558       13.7151391334  MEMB      145             0.0000000000
     18114       145  PMPG      O32           -53.9784118652        2.7854692869       13.0368875387  MEMB      145             0.0000000000
     18115       145  PMPG      C32           -52.4208232765        0.9643798406       13.3571515313  MEMB      145             0.0000000000
     18116       145  PMPG      H2X           -52.2580563936        0.4885511529       14.3410369683  MEMB      145             0.0000000000
     18117       145  PMPG      H2Y           -51.4169564507        1.1102253394       12.9090110026  MEMB      145             0.0000000000
     18118       145  PMPG      C23           -57.7193039036        3.5641904481       15.3467300393  MEMB      145             0.0000000000
     18119       145  PMPG      H3R           -56.8961184214        3.8832480338       14.7076483288  MEMB      145             0.0000000000
     18120       145  PMPG      H3S           -58.2230951876        4.4658654244       15.7619592333  MEMB      145             0.0000000000
     18121       145  PMPG      C24           -58.6178892892        3.0199261133       14.3651465920  MEMB      145             0.0000000000
     18122       145  PMPG      H4R           -58.7718018537        3.8889778791       13.6636439993  MEMB      145             0.0000000000
     18123       145  PMPG      H4S           -59.4598872945        3.0385796853       15.0428528246  MEMB      145             0.0000000000
     18124       145  PMPG      C25           -58.3740507830        1.6786037480       13.6357171902  MEMB      145             0.0000000000
     18125       145  PMPG      H5R           -59.2660188022        1.2977590348       13.0466244713  MEMB      145             0.0000000000
     18126       145  PMPG      H5S           -58.3732304056        0.9212547770       14.3219229492  MEMB      145             0.0000000000
     18127       145  PMPG      C26           -57.1359780936        1.7916022946       12.7806480431  MEMB      145             0.0000000000
     18128       145  PMPG      H6R           -56.7638615338        0.8261723758       12.4006035883  MEMB      145             0.0000000000
     18129       145  PMPG      H6S           -56.3240557310        2.0883385102       13.4334654236  MEMB      145             0.0000000000
     18130       145  PMPG      C27           -57.2041112296        2.8579978410       11.6812369033  MEMB      145             0.0000000000
     18131       145  PMPG      H7R           -56.2001739619        3.0721303564       11.3567115742  MEMB      145             0.0000000000
     18132       145  PMPG      H7S           -57.7849653593        3.7673818166       11.8856251309  MEMB      145             0.0000000000
     18133       145  PMPG      C28           -57.8841868595        2.3216139076       10.5731478551  MEMB      145             0.0000000000
     18134       145  PMPG      H8R           -58.1760020013        2.7940413435        9.6000473828  MEMB      145             0.0000000000
     18135       145  PMPG      H8S           -58.7093651746        1.9851675978       11.1328225531  MEMB      145             0.0000000000
     18136       145  PMPG      C29           -57.5003659434        1.0706085962       10.4172930482  MEMB      145             0.0000000000
     18137       145  PMPG      H9R           -57.5808698594        0.2254740067       10.7675100307  MEMB      145             0.0000000000
     18138       145  PMPG      C217          -57.9378493444        0.5615953075        9.4681818520  MEMB      145             0.0000000000
     18139       145  PMPG      H17R          -58.2632363423       -0.2030617573        8.8647977570  MEMB      145             0.0000000000
     18140       145  PMPG      H17S          -58.5542509458        1.0002248812        9.0443787274  MEMB      145             0.0000000000
     18141       145  PMPG      C210          -56.2695791870        1.1728208855        9.9118168861  MEMB      145             0.0000000000
     18142       145  PMPG      H10R          -55.6630712533        0.3465228593        9.5343452917  MEMB      145             0.0000000000
     18143       145  PMPG      C211          -55.5306219340        2.7760122114        8.9168647707  MEMB      145             0.0000000000
     18144       145  PMPG      H11R          -56.3417540756        3.4436377731        8.5749621523  MEMB      145             0.0000000000
     18145       145  PMPG      H11S          -54.6839449779        2.5898021748        9.1782403872  MEMB      145             0.0000000000
     18146       145  PMPG      C212          -54.5559071981        2.2797942146        6.8957327462  MEMB      145             0.0000000000
     18147       145  PMPG      H12R          -55.4757822296        1.5330698301        5.9109778358  MEMB      145             0.0000000000
     18148       145  PMPG      H12S          -53.9770392507        1.3721926473        7.2839817830  MEMB      145             0.0000000000
     18149       145  PMPG      C213          -54.5217295648        2.7807912638        5.6738486888  MEMB      145             0.0000000000
     18150       145  PMPG      H13R          -53.6831048861        3.0588358144        6.2454926187  MEMB      145             0.0000000000
     18151       145  PMPG      H13S          -55.3210776327        3.4594819164        5.6966784566  MEMB      145             0.0000000000
     18152       145  PMPG      C214          -54.4302013490        1.9591881833        4.4469150964  MEMB      145             0.0000000000
     18153       145  PMPG      H14R          -55.4018174847        1.4697780844        4.1506694856  MEMB      145             0.0000000000
     18154       145  PMPG      H14S          -53.6820609914        1.1658161865        4.5577261742  MEMB      145             0.0000000000
     18155       145  PMPG      C215          -54.2818190494        3.0517191285        3.5269735762  MEMB      145             0.0000000000
     18156       145  PMPG      H15R          -53.2040449471        3.3322765243        3.4677216049  MEMB      145             0.0000000000
     18157       145  PMPG      H15S          -54.7849114288        4.0153935975        3.8403971712  MEMB      145             0.0000000000
     18158       145  PMPG      C216          -55.0205474659        2.5464176558        2.3206858700  MEMB      145             0.0000000000
     18159       145  PMPG      H16R          -56.0405736923        2.9124371887        2.1088430735  MEMB      145             0.0000000000
     18160       145  PMPG      H16S          -54.7580423206        1.6273002384        1.8265384552  MEMB      145             0.0000000000
     18161       145  PMPG      H16T          -54.4971823199        3.1976563069        1.6362610131  MEMB      145             0.0000000000
     18162       145  PMPG      C33           -53.3013319092       -0.0237177569       12.5933263292  MEMB      145             0.0000000000
     18163       145  PMPG      H3X           -54.3405378994       -0.0812021957       13.0151960799  MEMB      145             0.0000000000
     18164       145  PMPG      H3Y           -52.7741293140       -0.9787156607       12.8106221688  MEMB      145             0.0000000000
     18165       145  PMPG      C34           -53.3454303752        0.2440626835       11.0879126412  MEMB      145             0.0000000000
     18166       145  PMPG      H4X           -53.8771588580        1.2120362831       10.9454945332  MEMB      145             0.0000000000
     18167       145  PMPG      H4Y           -53.9674663206       -0.5433449755       10.6180897202  MEMB      145             0.0000000000
     18168       145  PMPG      C35           -51.9847639314        0.3196638297       10.3685424582  MEMB      145             0.0000000000
     18169       145  PMPG      H5X           -51.3882782457       -0.6032729774       10.5324537934  MEMB      145             0.0000000000
     18170       145  PMPG      H5Y           -51.3961984634        1.1688088853       10.7850701969  MEMB      145             0.0000000000
     18171       145  PMPG      C36           -52.1449146137        0.6443811702        8.8790601120  MEMB      145             0.0000000000
     18172       145  PMPG      H6X           -51.2830383366        1.2588443487        8.5370006685  MEMB      145             0.0000000000
     18173       145  PMPG      H6Y           -53.0363333651        1.2541466136        8.7377578423  MEMB      145             0.0000000000
     18174       145  PMPG      C37           -52.1290622434       -0.5284253410        7.9173494882  MEMB      145             0.0000000000
     18175       145  PMPG      H7X           -51.1399760985       -0.9394142411        8.1031403595  MEMB      145             0.0000000000
     18176       145  PMPG      H7Y           -52.1675542655       -0.1428012545        6.8805256773  MEMB      145             0.0000000000
     18177       145  PMPG      C38           -53.1346512483       -1.6496845284        8.1259172631  MEMB      145             0.0000000000
     18178       145  PMPG      H8X           -54.1118485866       -1.1872176980        8.2973582529  MEMB      145             0.0000000000
     18179       145  PMPG      H8Y           -52.7911456759       -2.2498173300        9.0089432728  MEMB      145             0.0000000000
     18180       145  PMPG      C39           -53.3680851282       -2.5818472026        6.9213571314  MEMB      145             0.0000000000
     18181       145  PMPG      H9X           -54.1828688923       -3.2596234459        7.1973965786  MEMB      145             0.0000000000
     18182       145  PMPG      H9Y           -52.5442891959       -3.2703874088        6.7303059826  MEMB      145             0.0000000000
     18183       145  PMPG      C310          -53.7146625567       -1.9470930989        5.5870619754  MEMB      145             0.0000000000
     18184       145  PMPG      H10X          -52.8711271578       -1.3617245882        5.2090430742  MEMB      145             0.0000000000
     18185       145  PMPG      H10Y          -54.4354439429       -1.1654534188        5.7118877733  MEMB      145             0.0000000000
     18186       145  PMPG      C311          -54.3190248796       -2.9868629719        4.6529273859  MEMB      145             0.0000000000
     18187       145  PMPG      H11X          -55.0653119762       -3.5946754447        5.2204635399  MEMB      145             0.0000000000
     18188       145  PMPG      H11Y          -53.6942860447       -3.3806783086        3.8646123863  MEMB      145             0.0000000000
     18189       145  PMPG      C312          -55.0657075383       -2.3985298817        3.6901154294  MEMB      145             0.0000000000
     18190       145  PMPG      H12X          -54.5139655839       -1.5272787676        3.2503802319  MEMB      145             0.0000000000
     18191       145  PMPG      H12Y          -55.8371243964       -1.9610488009        4.4844272238  MEMB      145             0.0000000000
     18192       145  PMPG      C313          -55.4215748850       -2.7591425085        2.1602842811  MEMB      145             0.0000000000
     18193       145  PMPG      H13X          -56.3565893459       -2.4186875699        1.6585037644  MEMB      145             0.0000000000
     18194       145  PMPG      H13Y          -55.9382007014       -3.6034447773        2.4130446044  MEMB      145             0.0000000000
     18195       145  PMPG      C314          -55.1986627414       -3.4827345498        1.0742927656  MEMB      145             0.0000000000
     18196       145  PMPG      H14X          -56.0782276664       -4.0927809218        0.6090737498  MEMB      145             0.0000000000
     18197       145  PMPG      H14Y          -54.3056444429       -3.8902874693        1.4918239557  MEMB      145             0.0000000000
     18198       145  PMPG      C315          -55.0806064264       -2.2170294869        0.3840277610  MEMB      145             0.0000000000
     18199       145  PMPG      H15X          -54.5992000521       -1.3108006228        0.8727440870  MEMB      145             0.0000000000
     18200       145  PMPG      H15Y          -56.1209913383       -1.9161221645        0.0396752202  MEMB      145             0.0000000000
     18201       145  PMPG      C316          -54.7021064507       -2.6259155321       -0.7277611229  MEMB      145             0.0000000000
     18202       145  PMPG      H16X          -53.6853030096       -2.8675020080       -0.7146138345  MEMB      145             0.0000000000
     18203       145  PMPG      H16Y          -54.8297899499       -1.6458087559       -1.1655002098  MEMB      145             0.0000000000
     18204       145  PMPG      H16Z          -54.3437843364       -3.4883786544       -1.1868416164  MEMB      145             0.0000000000
     18205       146  PMPE      N              51.6562232293        8.4111823029       18.4087576953  MEMB      146             0.0000000000
     18206       146  PMPE      HN1            51.5234969045        7.6428388608       17.7208877014  MEMB      146             0.0000000000
     18207       146  PMPE      HN2            51.2066762987        8.1599655724       19.3079397996  MEMB      146             0.0000000000
     18208       146  PMPE      HN3            51.1542028651        9.2572543401       18.0553132411  MEMB      146             0.0000000000
     18209       146  PMPE      C12            53.1280369663        8.6156053829       18.6334925883  MEMB      146             0.0000000000
     18210       146  PMPE      H12A           53.3131393199        8.8713381764       19.7032329465  MEMB      146             0.0000000000
     18211       146  PMPE      H12B           53.4194182262        9.4476261147       17.9763533190  MEMB      146             0.0000000000
     18212       146  PMPE      C11            53.9878384320        7.3954330367       18.3335044807  MEMB      146             0.0000000000
     18213       146  PMPE      H11A           55.0370654398        7.7629115073       18.3466271219  MEMB      146             0.0000000000
     18214       146  PMPE      H11B           53.8115696189        6.9313874686       17.3352946182  MEMB      146             0.0000000000
     18215       146  PMPE      P              53.8261774296        4.9699159814       19.3943982405  MEMB      146             0.0000000000
     18216       146  PMPE      O13            53.4383152400        4.4537858871       20.7080587671  MEMB      146             0.0000000000
     18217       146  PMPE      O14            55.0933301293        4.5593986079       18.9177047192  MEMB      146             0.0000000000
     18218       146  PMPE      O11            52.7669228933        4.7233925106       18.3044167519  MEMB      146             0.0000000000
     18219       146  PMPE      O12            53.8166826025        6.5353029731       19.4298997802  MEMB      146             0.0000000000
     18220       146  PMPE      C1             51.5039768013        4.2394522612       18.7192286641  MEMB      146             0.0000000000
     18221       146  PMPE      HA             51.0087690848        4.9491620775       19.4179121383  MEMB      146             0.0000000000
     18222       146  PMPE      HB             51.6628582925        3.2974165722       19.2164630138  MEMB      146             0.0000000000
     18223       146  PMPE      C2             50.6554370166        4.0238512009       17.4586468744  MEMB      146             0.0000000000
     18224       146  PMPE      HS             49.7208205259        3.4201166583       17.8553001669  MEMB      146             0.0000000000
     18225       146  PMPE      O21            51.3511895271        3.4325637085       16.3130434224  MEMB      146             0.0000000000
     18226       146  PMPE      C21            50.6280679440        2.6985418400       15.5471073334  MEMB      146             0.0000000000
     18227       146  PMPE      O22            49.4647600580        2.6232679735       15.7639712319  MEMB      146             0.0000000000
     18228       146  PMPE      C22            51.5242392348        2.1202431397       14.4841151121  MEMB      146             0.0000000000
     18229       146  PMPE      H2R            51.3553704140        1.2904795510       13.8684526454  MEMB      146             0.0000000000
     18230       146  PMPE      H2S            52.3316408209        1.5816567593       15.0206112085  MEMB      146             0.0000000000
     18231       146  PMPE      C3             50.2918920473        5.2373023303       16.9031119238  MEMB      146             0.0000000000
     18232       146  PMPE      HX             49.9249429300        6.0094743386       17.5005560937  MEMB      146             0.0000000000
     18233       146  PMPE      HY             49.3724942597        4.9506491092       16.5104650942  MEMB      146             0.0000000000
     18234       146  PMPE      O31            51.4093462225        5.5746634907       15.9952936372  MEMB      146             0.0000000000
     18235       146  PMPE      C31            51.1910207056        6.5317358272       15.3677782460  MEMB      146             0.0000000000
     18236       146  PMPE      O32            50.2037433872        7.1805907564       15.6341329633  MEMB      146             0.0000000000
     18237       146  PMPE      C32            52.3950971742        6.7854183577       14.4916715359  MEMB      146             0.0000000000
     18238       146  PMPE      H2X            52.5531556624        5.9892450458       13.7621578003  MEMB      146             0.0000000000
     18239       146  PMPE      H2Y            53.2241889967        6.8898881744       15.2171608870  MEMB      146             0.0000000000
     18240       146  PMPE      C23            51.6640588041        3.3309235793       13.5531451712  MEMB      146             0.0000000000
     18241       146  PMPE      H3R            52.1549463562        4.1139402813       14.1681722509  MEMB      146             0.0000000000
     18242       146  PMPE      H3S            50.8166779077        3.9352806929       13.3876839466  MEMB      146             0.0000000000
     18243       146  PMPE      C24            52.3991737825        3.1884727749       12.2407840674  MEMB      146             0.0000000000
     18244       146  PMPE      H4R            53.3454659179        2.9093795531       12.3264332402  MEMB      146             0.0000000000
     18245       146  PMPE      H4S            52.8344503085        4.1462899708       11.9912814064  MEMB      146             0.0000000000
     18246       146  PMPE      C25            51.9252074914        2.2412266509       11.1949225357  MEMB      146             0.0000000000
     18247       146  PMPE      H5R            50.9397406342        2.3759045517       11.0039514497  MEMB      146             0.0000000000
     18248       146  PMPE      H5S            51.9473397342        1.2492286180       11.5169535797  MEMB      146             0.0000000000
     18249       146  PMPE      C26            52.3199519952        2.3903703397        9.8226263234  MEMB      146             0.0000000000
     18250       146  PMPE      H6R            53.0260018244        1.7444759492        9.8465293124  MEMB      146             0.0000000000
     18251       146  PMPE      H6S            52.7857032283        3.2953007899        9.8808798719  MEMB      146             0.0000000000
     18252       146  PMPE      C27            52.3171015289        1.4344740357        8.6638158942  MEMB      146             0.0000000000
     18253       146  PMPE      H7R            51.6202856890        2.3738392218        8.4151602586  MEMB      146             0.0000000000
     18254       146  PMPE      H7S            52.1604612197        0.3834852589        8.9840126560  MEMB      146             0.0000000000
     18255       146  PMPE      C28            52.7590831564        1.3213842848        7.2784071297  MEMB      146             0.0000000000
     18256       146  PMPE      H8R            52.4540016208        2.0824105526        6.5934428548  MEMB      146             0.0000000000
     18257       146  PMPE      H8S            52.1896733464        1.2637476088        6.6922220674  MEMB      146             0.0000000000
     18258       146  PMPE      C29            53.5639974661        0.2489414612        6.7888892208  MEMB      146             0.0000000000
     18259       146  PMPE      H9R            53.4642570516       -0.6043234893        7.4571622970  MEMB      146             0.0000000000
     18260       146  PMPE      C217           54.4439609827        0.8015732427        6.8798415728  MEMB      146             0.0000000000
     18261       146  PMPE      H17R           54.9086597581        0.2972473018        7.3226112683  MEMB      146             0.0000000000
     18262       146  PMPE      H17S           54.4516324071        1.6485049947        7.5648742766  MEMB      146             0.0000000000
     18263       146  PMPE      C210           54.5979471042        0.4583432531        5.6744315979  MEMB      146             0.0000000000
     18264       146  PMPE      H10R           55.4480652889       -0.1283039677        5.4707707363  MEMB      146             0.0000000000
     18265       146  PMPE      C211           54.5713630176        1.3724533624        4.6037310600  MEMB      146             0.0000000000
     18266       146  PMPE      H11R           55.5418882316        1.6374492763        4.2811032384  MEMB      146             0.0000000000
     18267       146  PMPE      H11S           54.5602836245        2.3780451378        4.6948232908  MEMB      146             0.0000000000
     18268       146  PMPE      C212           53.5073738783        1.0733418582        3.7988046511  MEMB      146             0.0000000000
     18269       146  PMPE      H12R           52.5640713914        0.8976946016        4.0990386434  MEMB      146             0.0000000000
     18270       146  PMPE      H12S           53.7502513276        0.3609180548        3.1420785747  MEMB      146             0.0000000000
     18271       146  PMPE      C213           53.2073616703        1.7759872743        2.6873055239  MEMB      146             0.0000000000
     18272       146  PMPE      H13R           54.1458384128        2.2219319018        2.3685136246  MEMB      146             0.0000000000
     18273       146  PMPE      H13S           52.5244860937        2.3865100856        3.2491356350  MEMB      146             0.0000000000
     18274       146  PMPE      C214           52.3158037993        1.0334012591        1.7303864938  MEMB      146             0.0000000000
     18275       146  PMPE      H14R           51.4269898275        0.5682554988        2.2154840462  MEMB      146             0.0000000000
     18276       146  PMPE      H14S           52.9017024102        0.2265939939        1.3046997768  MEMB      146             0.0000000000
     18277       146  PMPE      C215           51.9410054072        1.8485032965        0.5390194066  MEMB      146             0.0000000000
     18278       146  PMPE      H15R           51.0606697153        2.4054940252        0.6717589542  MEMB      146             0.0000000000
     18279       146  PMPE      H15S           51.3188126635        1.3163072560       -0.1439809166  MEMB      146             0.0000000000
     18280       146  PMPE      C216           52.9595872688        2.8326586367       -0.0241094744  MEMB      146             0.0000000000
     18281       146  PMPE      H16R           52.6780775388        3.0275390300       -1.0720117774  MEMB      146             0.0000000000
     18282       146  PMPE      H16S           53.0223942179        3.8365592582        0.4440509257  MEMB      146             0.0000000000
     18283       146  PMPE      H16T           53.9439751742        2.3906494196        0.0944670253  MEMB      146             0.0000000000
     18284       146  PMPE      C33            52.3137392574        7.9808490639       13.6352027450  MEMB      146             0.0000000000
     18285       146  PMPE      H3X            52.6360595000        8.7032714695       14.3604967455  MEMB      146             0.0000000000
     18286       146  PMPE      H3Y            51.3629807494        8.1064118121       13.1601019177  MEMB      146             0.0000000000
     18287       146  PMPE      C34            53.4349496577        8.5939070128       12.8929295679  MEMB      146             0.0000000000
     18288       146  PMPE      H4X            54.3073202619        8.6998461027       13.5757321644  MEMB      146             0.0000000000
     18289       146  PMPE      H4Y            53.2953195879        9.6304148468       12.5667431726  MEMB      146             0.0000000000
     18290       146  PMPE      C35            53.7334292229        7.8466278467       11.6476751126  MEMB      146             0.0000000000
     18291       146  PMPE      H5X            54.2190117899        6.9164213530       11.9660503942  MEMB      146             0.0000000000
     18292       146  PMPE      H5Y            54.4404157908        8.5230377833       11.1368059541  MEMB      146             0.0000000000
     18293       146  PMPE      C36            52.6408305629        7.5011125297       10.6337119557  MEMB      146             0.0000000000
     18294       146  PMPE      H6X            52.1081904944        8.3797551976       10.3905168213  MEMB      146             0.0000000000
     18295       146  PMPE      H6Y            51.8608143599        6.8131974043       10.9975412937  MEMB      146             0.0000000000
     18296       146  PMPE      C37            53.1781150883        7.1657930970        9.2354185986  MEMB      146             0.0000000000
     18297       146  PMPE      H7X            53.9280645515        6.3559668587        9.2444475457  MEMB      146             0.0000000000
     18298       146  PMPE      H7Y            53.6292190746        8.0848584708        8.7966625192  MEMB      146             0.0000000000
     18299       146  PMPE      C38            52.0633155910        6.7964764663        8.3001047195  MEMB      146             0.0000000000
     18300       146  PMPE      H8X            51.3774749081        7.6177146079        8.1471703687  MEMB      146             0.0000000000
     18301       146  PMPE      H8Y            51.5366324165        5.9184511161        8.7011026529  MEMB      146             0.0000000000
     18302       146  PMPE      C39            52.4497071815        6.4995202166        6.9177853100  MEMB      146             0.0000000000
     18303       146  PMPE      H9X            51.6743402265        6.1517483711        6.2623855763  MEMB      146             0.0000000000
     18304       146  PMPE      H9Y            52.3189612570        5.4979726769        7.1880611538  MEMB      146             0.0000000000
     18305       146  PMPE      C310           53.7396067784        7.2304106354        6.2672870592  MEMB      146             0.0000000000
     18306       146  PMPE      H10X           54.6064103984        7.1804938571        6.9508659099  MEMB      146             0.0000000000
     18307       146  PMPE      H10Y           53.1718312900        8.1395558075        6.1678474148  MEMB      146             0.0000000000
     18308       146  PMPE      C311           54.4582101648        7.0584337943        4.8542536438  MEMB      146             0.0000000000
     18309       146  PMPE      H11X           54.7014599438        7.8626582694        4.2100158941  MEMB      146             0.0000000000
     18310       146  PMPE      H11Y           53.6863809355        7.2647644513        4.1541496035  MEMB      146             0.0000000000
     18311       146  PMPE      C312           55.3963743221        5.8812755247        4.5503204605  MEMB      146             0.0000000000
     18312       146  PMPE      H12X           55.3320330520        5.1412080373        5.3304292101  MEMB      146             0.0000000000
     18313       146  PMPE      H12Y           56.3471607223        6.1559055956        4.7918137442  MEMB      146             0.0000000000
     18314       146  PMPE      C313           55.5036685699        5.1505759719        3.1411637350  MEMB      146             0.0000000000
     18315       146  PMPE      H13X           54.6609195095        4.6835233039        2.6115701501  MEMB      146             0.0000000000
     18316       146  PMPE      H13Y           55.9652812461        4.1627604115        3.2810595588  MEMB      146             0.0000000000
     18317       146  PMPE      C314           55.5913815375        5.9704413321        1.9621918800  MEMB      146             0.0000000000
     18318       146  PMPE      H14X           54.9703171079        6.8620054847        2.1273029353  MEMB      146             0.0000000000
     18319       146  PMPE      H14Y           55.2750253326        5.3839881627        1.0824300686  MEMB      146             0.0000000000
     18320       146  PMPE      C315           56.9848986985        6.2926983768        1.8154357360  MEMB      146             0.0000000000
     18321       146  PMPE      H15X           57.1532287964        6.5197449408        2.8003145711  MEMB      146             0.0000000000
     18322       146  PMPE      H15Y           57.2274643102        7.1201994332        1.2422125007  MEMB      146             0.0000000000
     18323       146  PMPE      C316           57.7914999481        5.2609138364        1.3224519500  MEMB      146             0.0000000000
     18324       146  PMPE      H16X           58.8806086483        5.1146870672        1.4784847937  MEMB      146             0.0000000000
     18325       146  PMPE      H16Y           57.3678664194        4.7238266301        0.4727808414  MEMB      146             0.0000000000
     18326       146  PMPE      H16Z           57.4661502342        4.6546672161        2.1163694566  MEMB      146             0.0000000000
     18327       147  PMPE      N             -28.9124709782      -45.7312988300       22.0807865937  MEMB      147             0.0000000000
     18328       147  PMPE      HN1           -28.4891186382      -46.6831069887       22.1841881446  MEMB      147             0.0000000000
     18329       147  PMPE      HN2           -28.8029055473      -45.1524214511       22.9455847336  MEMB      147             0.0000000000
     18330       147  PMPE      HN3           -29.9299243762      -45.8023461533       21.8631312404  MEMB      147             0.0000000000
     18331       147  PMPE      C12           -28.2034416769      -45.1371668382       20.8817921006  MEMB      147             0.0000000000
     18332       147  PMPE      H12A          -27.1451674432      -45.0935447681       21.1940974481  MEMB      147             0.0000000000
     18333       147  PMPE      H12B          -28.6036514767      -44.1089057009       20.7617580320  MEMB      147             0.0000000000
     18334       147  PMPE      C11           -28.4211637323      -45.9670681989       19.5833765786  MEMB      147             0.0000000000
     18335       147  PMPE      H11A          -28.0925731241      -47.0360423485       19.6803285503  MEMB      147             0.0000000000
     18336       147  PMPE      H11B          -27.8338133355      -45.5218257084       18.7357407457  MEMB      147             0.0000000000
     18337       147  PMPE      P             -30.4025906974      -45.5130779711       17.8614436663  MEMB      147             0.0000000000
     18338       147  PMPE      O13           -30.3353205365      -44.0379227114       17.7717329991  MEMB      147             0.0000000000
     18339       147  PMPE      O14           -31.7186198162      -46.1390276658       17.7257600925  MEMB      147             0.0000000000
     18340       147  PMPE      O11           -29.4250217554      -46.1371186997       16.8093133644  MEMB      147             0.0000000000
     18341       147  PMPE      O12           -29.8114961410      -45.9442343523       19.2922062609  MEMB      147             0.0000000000
     18342       147  PMPE      C1            -28.9490146249      -47.4681379726       16.7129612717  MEMB      147             0.0000000000
     18343       147  PMPE      HA            -29.2852977573      -48.0988741811       17.5676833958  MEMB      147             0.0000000000
     18344       147  PMPE      HB            -27.8315969922      -47.4338128698       16.6407158953  MEMB      147             0.0000000000
     18345       147  PMPE      C2            -29.4016610185      -48.1523108462       15.3971185010  MEMB      147             0.0000000000
     18346       147  PMPE      HS            -29.2694596929      -49.2475981578       15.5492427252  MEMB      147             0.0000000000
     18347       147  PMPE      O21           -28.5166618536      -47.6743161027       14.3696695704  MEMB      147             0.0000000000
     18348       147  PMPE      C21           -28.4601922935      -48.3809851826       13.2563043526  MEMB      147             0.0000000000
     18349       147  PMPE      O22           -28.9389489398      -49.4911963748       13.0982128339  MEMB      147             0.0000000000
     18350       147  PMPE      C22           -27.6437015022      -47.5965103896       12.1973108985  MEMB      147             0.0000000000
     18351       147  PMPE      H2R           -28.2123585367      -47.6085843055       11.2517508818  MEMB      147             0.0000000000
     18352       147  PMPE      H2S           -26.6399761880      -47.9994964728       11.9714487960  MEMB      147             0.0000000000
     18353       147  PMPE      C3            -30.8854001045      -47.8549728417       15.0272500835  MEMB      147             0.0000000000
     18354       147  PMPE      HX            -30.8953413009      -46.7711262307       14.7393291514  MEMB      147             0.0000000000
     18355       147  PMPE      HY            -31.5433324522      -48.0420098628       15.9059080847  MEMB      147             0.0000000000
     18356       147  PMPE      O31           -31.3339973722      -48.6868326909       13.9390422966  MEMB      147             0.0000000000
     18357       147  PMPE      C31           -32.6161749013      -48.5365782059       13.6509240104  MEMB      147             0.0000000000
     18358       147  PMPE      O32           -33.3655217343      -47.8031747387       14.2306221608  MEMB      147             0.0000000000
     18359       147  PMPE      C32           -33.0697137944      -49.3859067017       12.4915685893  MEMB      147             0.0000000000
     18360       147  PMPE      H2X           -34.1495220248      -49.6351397506       12.6241191423  MEMB      147             0.0000000000
     18361       147  PMPE      H2Y           -32.4385403011      -50.2998579698       12.4357094461  MEMB      147             0.0000000000
     18362       147  PMPE      C23           -27.4293773843      -46.1506033432       12.5990698625  MEMB      147             0.0000000000
     18363       147  PMPE      H3R           -26.7148680217      -46.0750476359       13.4606576563  MEMB      147             0.0000000000
     18364       147  PMPE      H3S           -28.3832548882      -45.7058515493       12.9357941540  MEMB      147             0.0000000000
     18365       147  PMPE      C24           -26.8796588559      -45.3677593502       11.4058902986  MEMB      147             0.0000000000
     18366       147  PMPE      H4R           -26.0153823982      -45.8746725729       10.9506083262  MEMB      147             0.0000000000
     18367       147  PMPE      H4S           -26.5538590463      -44.4267877253       11.8426953069  MEMB      147             0.0000000000
     18368       147  PMPE      C25           -27.7239523077      -45.1597212725       10.2153927874  MEMB      147             0.0000000000
     18369       147  PMPE      H5R           -27.8000371342      -46.1450865388        9.7073455471  MEMB      147             0.0000000000
     18370       147  PMPE      H5S           -27.2221797533      -44.4245679862        9.5452466115  MEMB      147             0.0000000000
     18371       147  PMPE      C26           -29.0490816429      -44.5972417031       10.6744619526  MEMB      147             0.0000000000
     18372       147  PMPE      H6R           -28.8120061989      -43.8370593732       11.4684574314  MEMB      147             0.0000000000
     18373       147  PMPE      H6S           -29.6493551367      -45.4239993436       11.1065578726  MEMB      147             0.0000000000
     18374       147  PMPE      C27           -29.8652523516      -43.8989751990        9.5814022721  MEMB      147             0.0000000000
     18375       147  PMPE      H7R           -29.1878000759      -43.1435532949        9.1386466295  MEMB      147             0.0000000000
     18376       147  PMPE      H7S           -30.7140515581      -43.3414982778       10.0415875293  MEMB      147             0.0000000000
     18377       147  PMPE      C28           -30.3294656662      -44.7798835716        8.3955994111  MEMB      147             0.0000000000
     18378       147  PMPE      H8R           -30.7947006884      -45.7207738119        8.7398239711  MEMB      147             0.0000000000
     18379       147  PMPE      H8S           -29.4493574878      -45.0213146163        7.7656009460  MEMB      147             0.0000000000
     18380       147  PMPE      C29           -31.3062458410      -44.0874153781        7.4713926328  MEMB      147             0.0000000000
     18381       147  PMPE      H9R           -31.2224499681      -42.9888547625        7.3325888718  MEMB      147             0.0000000000
     18382       147  PMPE      C217          -32.7270528835      -44.4782707061        7.7749803039  MEMB      147             0.0000000000
     18383       147  PMPE      H17R          -33.0818200193      -43.5044757121        8.0158878658  MEMB      147             0.0000000000
     18384       147  PMPE      H17S          -33.0037188403      -45.3144688983        8.3812558394  MEMB      147             0.0000000000
     18385       147  PMPE      C210          -32.1190571161      -44.8226838033        6.4266997489  MEMB      147             0.0000000000
     18386       147  PMPE      H10R          -32.2484321343      -44.1565610421        5.5578373149  MEMB      147             0.0000000000
     18387       147  PMPE      C211          -31.7583438839      -46.2963761773        6.1933283895  MEMB      147             0.0000000000
     18388       147  PMPE      H11R          -32.5455727435      -46.8518514825        5.6419076833  MEMB      147             0.0000000000
     18389       147  PMPE      H11S          -31.6752162541      -46.7529613200        7.1963619817  MEMB      147             0.0000000000
     18390       147  PMPE      C212          -30.4230971446      -46.4887240915        5.4535994834  MEMB      147             0.0000000000
     18391       147  PMPE      H12R          -30.3334133234      -47.4898272681        4.9747581674  MEMB      147             0.0000000000
     18392       147  PMPE      H12S          -29.6260315947      -46.4889089813        6.2296595630  MEMB      147             0.0000000000
     18393       147  PMPE      C213          -30.2143499044      -45.4923755700        4.3006656817  MEMB      147             0.0000000000
     18394       147  PMPE      H13R          -29.1852246033      -45.6326099115        3.9005005123  MEMB      147             0.0000000000
     18395       147  PMPE      H13S          -30.2865090980      -44.4310092749        4.6347408324  MEMB      147             0.0000000000
     18396       147  PMPE      C214          -31.2075842408      -45.6859793572        3.1330679727  MEMB      147             0.0000000000
     18397       147  PMPE      H14R          -32.2492529492      -45.5642688855        3.5290772239  MEMB      147             0.0000000000
     18398       147  PMPE      H14S          -31.0984715327      -46.6947621437        2.6780100516  MEMB      147             0.0000000000
     18399       147  PMPE      C215          -30.9389401949      -44.6210703741        2.0586906861  MEMB      147             0.0000000000
     18400       147  PMPE      H15R          -29.8374117657      -44.5265676923        1.8816229881  MEMB      147             0.0000000000
     18401       147  PMPE      H15S          -31.3049303269      -43.7033801019        2.5614858420  MEMB      147             0.0000000000
     18402       147  PMPE      C216          -31.6635969745      -44.7687135943        0.7136511314  MEMB      147             0.0000000000
     18403       147  PMPE      H16R          -32.7470837294      -44.9461550558        0.8434311233  MEMB      147             0.0000000000
     18404       147  PMPE      H16S          -31.5333173837      -43.8878458013        0.0453661791  MEMB      147             0.0000000000
     18405       147  PMPE      H16T          -31.2628491439      -45.6364982533        0.1654534680  MEMB      147             0.0000000000
     18406       147  PMPE      C33           -32.9857482595      -48.6031363420       11.1763687409  MEMB      147             0.0000000000
     18407       147  PMPE      H3X           -33.5443733580      -47.6892173673       11.0881953591  MEMB      147             0.0000000000
     18408       147  PMPE      H3Y           -33.4984049694      -49.2417078146       10.4350431559  MEMB      147             0.0000000000
     18409       147  PMPE      C34           -31.5590528888      -48.2528157736       10.7868203901  MEMB      147             0.0000000000
     18410       147  PMPE      H4X           -30.9070375849      -48.8609292367       11.4407030013  MEMB      147             0.0000000000
     18411       147  PMPE      H4Y           -31.2934687396      -47.1818322868       10.9533172172  MEMB      147             0.0000000000
     18412       147  PMPE      C35           -31.2487882750      -48.7013770253        9.3657390005  MEMB      147             0.0000000000
     18413       147  PMPE      H5X           -31.8621069254      -48.0758040429        8.6941185710  MEMB      147             0.0000000000
     18414       147  PMPE      H5Y           -31.6412097269      -49.7412789280        9.3094568179  MEMB      147             0.0000000000
     18415       147  PMPE      C36           -29.7449217897      -48.5828308790        9.0698963125  MEMB      147             0.0000000000
     18416       147  PMPE      H6X           -29.1840804029      -49.1485545674        9.8467785500  MEMB      147             0.0000000000
     18417       147  PMPE      H6Y           -29.4426414840      -47.5118216453        9.1519357851  MEMB      147             0.0000000000
     18418       147  PMPE      C37           -29.2286853787      -49.0982133184        7.7352155370  MEMB      147             0.0000000000
     18419       147  PMPE      H7X           -29.7204267858      -48.6138779120        6.8754376830  MEMB      147             0.0000000000
     18420       147  PMPE      H7Y           -29.3788209752      -50.2064374968        7.6317319824  MEMB      147             0.0000000000
     18421       147  PMPE      C38           -27.7731331585      -48.7078933059        7.6058264879  MEMB      147             0.0000000000
     18422       147  PMPE      H8X           -27.2108417772      -48.8839619061        8.5159967531  MEMB      147             0.0000000000
     18423       147  PMPE      H8Y           -27.5049227793      -47.7250060687        7.2491810981  MEMB      147             0.0000000000
     18424       147  PMPE      C39           -27.1869931316      -49.4126212075        6.4928548002  MEMB      147             0.0000000000
     18425       147  PMPE      H9X           -27.7037434024      -50.3669231453        6.8038885743  MEMB      147             0.0000000000
     18426       147  PMPE      H9Y           -26.0637055864      -49.3022087270        6.4477828447  MEMB      147             0.0000000000
     18427       147  PMPE      C310          -27.7109893069      -49.5675495696        5.1416673095  MEMB      147             0.0000000000
     18428       147  PMPE      H10X          -27.7769278355      -48.5210544904        4.9410354673  MEMB      147             0.0000000000
     18429       147  PMPE      H10Y          -28.5197619281      -50.3051701427        5.0546753093  MEMB      147             0.0000000000
     18430       147  PMPE      C311          -26.7801228588      -49.9558185762        4.0840378454  MEMB      147             0.0000000000
     18431       147  PMPE      H11X          -26.6153559703      -51.0749642607        3.9964784249  MEMB      147             0.0000000000
     18432       147  PMPE      H11Y          -25.9072872284      -49.2730449121        4.2613269024  MEMB      147             0.0000000000
     18433       147  PMPE      C312          -26.8675941164      -49.6922066953        2.6242244971  MEMB      147             0.0000000000
     18434       147  PMPE      H12X          -27.0832759779      -48.6546991335        2.5875160097  MEMB      147             0.0000000000
     18435       147  PMPE      H12Y          -27.6464843384      -50.3654890155        2.4092561065  MEMB      147             0.0000000000
     18436       147  PMPE      C313          -25.7397200752      -50.0459553562        1.6556611282  MEMB      147             0.0000000000
     18437       147  PMPE      H13X          -25.5668528034      -51.0927749092        1.9609964395  MEMB      147             0.0000000000
     18438       147  PMPE      H13Y          -24.8239699560      -49.4326103936        1.7525265169  MEMB      147             0.0000000000
     18439       147  PMPE      C314          -26.0150638664      -50.6406844288        0.3722188464  MEMB      147             0.0000000000
     18440       147  PMPE      H14X          -26.6269749563      -49.8882898066       -0.0729952954  MEMB      147             0.0000000000
     18441       147  PMPE      H14Y          -26.5551177985      -51.5945158928        0.5035823963  MEMB      147             0.0000000000
     18442       147  PMPE      C315          -24.8383958823      -50.7467415727       -0.4712305058  MEMB      147             0.0000000000
     18443       147  PMPE      H15X          -25.2985294124      -50.9986341717       -1.4239457091  MEMB      147             0.0000000000
     18444       147  PMPE      H15Y          -24.0417831568      -51.4727088924       -0.3091823676  MEMB      147             0.0000000000
     18445       147  PMPE      C316          -24.0915602339      -49.6964082261       -0.8270970916  MEMB      147             0.0000000000
     18446       147  PMPE      H16X          -23.7635399527      -49.1599322184        0.0136231449  MEMB      147             0.0000000000
     18447       147  PMPE      H16Y          -24.7966089670      -49.2440065668       -1.5008961375  MEMB      147             0.0000000000
     18448       147  PMPE      H16Z          -23.1391309724      -49.7068902221       -1.3819257073  MEMB      147             0.0000000000
     18449       148  PMPE      N               7.3614829546      -55.5704833621       17.3863681765  MEMB      148             0.0000000000
     18450       148  PMPE      HN1             7.7631958084      -55.6461171057       16.4322124972  MEMB      148             0.0000000000
     18451       148  PMPE      HN2             8.0858096716      -55.7036310112       18.1327044066  MEMB      148             0.0000000000
     18452       148  PMPE      HN3             6.5881389473      -56.2600578573       17.4599743860  MEMB      148             0.0000000000
     18453       148  PMPE      C12             7.0320815795      -54.1318231793       17.6448736195  MEMB      148             0.0000000000
     18454       148  PMPE      H12A            6.3824402554      -54.0494783883       18.5360856882  MEMB      148             0.0000000000
     18455       148  PMPE      H12B            6.5493749912      -53.7426723171       16.7275507851  MEMB      148             0.0000000000
     18456       148  PMPE      C11             8.3112995889      -53.3600667023       17.9979985675  MEMB      148             0.0000000000
     18457       148  PMPE      H11A            8.0128921742      -52.3537958851       18.3754450851  MEMB      148             0.0000000000
     18458       148  PMPE      H11B            8.9056365923      -53.2646292193       17.0712438731  MEMB      148             0.0000000000
     18459       148  PMPE      P              10.1417441864      -53.2729825841       19.8905282071  MEMB      148             0.0000000000
     18460       148  PMPE      O13            11.2150772918      -54.2243232611       20.2092574689  MEMB      148             0.0000000000
     18461       148  PMPE      O14             9.4178962197      -52.6067931256       20.9848835362  MEMB      148             0.0000000000
     18462       148  PMPE      O11            10.7310780574      -52.1108560244       18.9333959319  MEMB      148             0.0000000000
     18463       148  PMPE      O12             9.0924561301      -54.0477287918       18.9585454207  MEMB      148             0.0000000000
     18464       148  PMPE      C1             11.6625865274      -52.5261801385       17.9056082418  MEMB      148             0.0000000000
     18465       148  PMPE      HA             11.3307279457      -53.4949984362       17.4799635049  MEMB      148             0.0000000000
     18466       148  PMPE      HB             12.7182191645      -52.6405110743       18.2609921454  MEMB      148             0.0000000000
     18467       148  PMPE      C2             11.7265203256      -51.5729869570       16.6999444562  MEMB      148             0.0000000000
     18468       148  PMPE      HS             12.4444677629      -50.7499244706       16.9632363128  MEMB      148             0.0000000000
     18469       148  PMPE      O21            10.3941479778      -51.0630828904       16.5429675089  MEMB      148             0.0000000000
     18470       148  PMPE      C21            10.3806898838      -50.2053569872       15.6759088315  MEMB      148             0.0000000000
     18471       148  PMPE      O22            11.4229329613      -49.7395642838       15.1532087407  MEMB      148             0.0000000000
     18472       148  PMPE      C22             8.7525464028      -49.9813230051       15.6154488025  MEMB      148             0.0000000000
     18473       148  PMPE      H2R             8.1288673839      -49.2325630413       15.0227901768  MEMB      148             0.0000000000
     18474       148  PMPE      H2S             8.3886157069      -49.4656603840       16.4873428968  MEMB      148             0.0000000000
     18475       148  PMPE      C3             12.2557285452      -52.3174889341       15.4061047044  MEMB      148             0.0000000000
     18476       148  PMPE      HX             13.3319408915      -52.5395627730       15.5868125748  MEMB      148             0.0000000000
     18477       148  PMPE      HY             12.3267579324      -51.6227882868       14.5496668997  MEMB      148             0.0000000000
     18478       148  PMPE      O31            11.4911445462      -53.5150723436       15.0623071546  MEMB      148             0.0000000000
     18479       148  PMPE      C31            10.6669543948      -53.3853145488       14.0071801863  MEMB      148             0.0000000000
     18480       148  PMPE      O32            10.5105992060      -52.3662282852       13.3629632912  MEMB      148             0.0000000000
     18481       148  PMPE      C32             9.7948455326      -54.6404955048       13.8536295022  MEMB      148             0.0000000000
     18482       148  PMPE      H2X             9.1751474013      -54.6844836169       14.7767601550  MEMB      148             0.0000000000
     18483       148  PMPE      H2Y            10.3352629187      -55.5987261508       13.6636442070  MEMB      148             0.0000000000
     18484       148  PMPE      C23             8.0156446225      -50.7462635304       14.6415063092  MEMB      148             0.0000000000
     18485       148  PMPE      H3R             8.2074693368      -51.6780089860       15.0794511184  MEMB      148             0.0000000000
     18486       148  PMPE      H3S             8.5110759729      -50.7302183491       13.6492151597  MEMB      148             0.0000000000
     18487       148  PMPE      C24             6.5198205561      -50.3447896544       14.5413663339  MEMB      148             0.0000000000
     18488       148  PMPE      H4R             6.1990554774      -49.2621367279       14.3639827204  MEMB      148             0.0000000000
     18489       148  PMPE      H4S             6.1298256174      -50.4118656848       15.5314132038  MEMB      148             0.0000000000
     18490       148  PMPE      C25             5.9360396492      -51.3055540373       13.5363067093  MEMB      148             0.0000000000
     18491       148  PMPE      H5R             4.8911698235      -51.3399394714       13.7773534504  MEMB      148             0.0000000000
     18492       148  PMPE      H5S             6.5384302718      -52.2268755317       13.5797894268  MEMB      148             0.0000000000
     18493       148  PMPE      C26             5.9743720727      -51.0760358632       12.0832369279  MEMB      148             0.0000000000
     18494       148  PMPE      H6R             7.1395429709      -51.2505449913       11.9977088397  MEMB      148             0.0000000000
     18495       148  PMPE      H6S             5.4558406403      -50.0772440506       11.7932082207  MEMB      148             0.0000000000
     18496       148  PMPE      C27             5.7233918445      -51.9194009629       10.8928563967  MEMB      148             0.0000000000
     18497       148  PMPE      H7R             4.6530516190      -51.9284823435       10.7887719955  MEMB      148             0.0000000000
     18498       148  PMPE      H7S             6.2170920290      -52.8387103859       11.2155019554  MEMB      148             0.0000000000
     18499       148  PMPE      C28             6.3710510406      -51.6189580534        9.5159294858  MEMB      148             0.0000000000
     18500       148  PMPE      H8R             6.2282353149      -52.4993042068        8.8763168131  MEMB      148             0.0000000000
     18501       148  PMPE      H8S             7.4647851834      -51.4787321960        9.6962693580  MEMB      148             0.0000000000
     18502       148  PMPE      C29             5.8385909640      -50.4262276565        8.6470260271  MEMB      148             0.0000000000
     18503       148  PMPE      H9R             5.4956399009      -49.4030332172        9.1782533289  MEMB      148             0.0000000000
     18504       148  PMPE      C217            5.3141007479      -50.9622620838        7.8777606140  MEMB      148             0.0000000000
     18505       148  PMPE      H17R            4.9594077420      -50.2267253177        7.3150997006  MEMB      148             0.0000000000
     18506       148  PMPE      H17S            4.5472251574      -51.5187543853        8.1055502283  MEMB      148             0.0000000000
     18507       148  PMPE      C210            6.1251738264      -50.4350686235        6.9865814009  MEMB      148             0.0000000000
     18508       148  PMPE      H10R            5.9682649350      -49.4612058596        6.2660214049  MEMB      148             0.0000000000
     18509       148  PMPE      C211            6.7495922658      -51.5699134591        6.4487775997  MEMB      148             0.0000000000
     18510       148  PMPE      H11R            6.1610601602      -52.4633716918        6.5406519025  MEMB      148             0.0000000000
     18511       148  PMPE      H11S            7.5508747633      -51.9008369132        7.0651749400  MEMB      148             0.0000000000
     18512       148  PMPE      C212            7.0856562059      -51.3171130642        5.0415206064  MEMB      148             0.0000000000
     18513       148  PMPE      H12R            6.2151886609      -50.8978859347        4.5497447827  MEMB      148             0.0000000000
     18514       148  PMPE      H12S            7.3233741863      -52.2661844708        4.5483490123  MEMB      148             0.0000000000
     18515       148  PMPE      C213            8.2661235078      -50.4223028494        4.9765631429  MEMB      148             0.0000000000
     18516       148  PMPE      H13R            8.9907364398      -50.5101327109        5.7513956648  MEMB      148             0.0000000000
     18517       148  PMPE      H13S            8.0327164801      -49.4331948023        5.0320295241  MEMB      148             0.0000000000
     18518       148  PMPE      C214            8.9349632519      -50.3723265987        3.7229822418  MEMB      148             0.0000000000
     18519       148  PMPE      H14R            9.3171767782      -51.2861820806        3.4089127333  MEMB      148             0.0000000000
     18520       148  PMPE      H14S            9.7562232124      -49.7064378305        3.6526006297  MEMB      148             0.0000000000
     18521       148  PMPE      C215            8.0349405144      -49.8109771368        2.8987527302  MEMB      148             0.0000000000
     18522       148  PMPE      H15R            8.0694153590      -48.8012098525        3.3095579538  MEMB      148             0.0000000000
     18523       148  PMPE      H15S            7.1742612649      -50.2528055980        2.3502747726  MEMB      148             0.0000000000
     18524       148  PMPE      C216            8.4269291277      -49.6266131038        2.0537976950  MEMB      148             0.0000000000
     18525       148  PMPE      H16R            7.3079488830      -49.3044885883        0.9846171693  MEMB      148             0.0000000000
     18526       148  PMPE      H16S            9.3579323013      -48.4478443158        1.9427528428  MEMB      148             0.0000000000
     18527       148  PMPE      H16T            8.5264582542      -51.0275856879        0.9022386742  MEMB      148             0.0000000000
     18528       148  PMPE      C33             8.8308685978      -54.4116585154       12.6852415924  MEMB      148             0.0000000000
     18529       148  PMPE      H3X             8.3574626729      -53.4155691149       12.7957304396  MEMB      148             0.0000000000
     18530       148  PMPE      H3Y             8.0327293452      -55.1867585496       12.7227044175  MEMB      148             0.0000000000
     18531       148  PMPE      C34             9.5136177539      -54.4701193272       11.3145906457  MEMB      148             0.0000000000
     18532       148  PMPE      H4X            10.3011204809      -55.2534891774       11.3545489995  MEMB      148             0.0000000000
     18533       148  PMPE      H4Y            10.0063183148      -53.5121283441       11.0429353492  MEMB      148             0.0000000000
     18534       148  PMPE      C35             8.5560567162      -54.9072848075       10.2160487937  MEMB      148             0.0000000000
     18535       148  PMPE      H5X             7.7769622015      -54.1734066964        9.9503692959  MEMB      148             0.0000000000
     18536       148  PMPE      H5Y             7.9797372124      -55.7469130957       10.6576232619  MEMB      148             0.0000000000
     18537       148  PMPE      C36             9.2802347738      -55.4686687958        8.9901906391  MEMB      148             0.0000000000
     18538       148  PMPE      H6X             8.4271446444      -55.8267836764        8.3717100326  MEMB      148             0.0000000000
     18539       148  PMPE      H6Y             9.8814070503      -56.3228462113        9.3986904906  MEMB      148             0.0000000000
     18540       148  PMPE      C37            10.0431070361      -54.4476946981        8.1166685339  MEMB      148             0.0000000000
     18541       148  PMPE      H7X            10.7458927342      -53.8123213641        8.6939225607  MEMB      148             0.0000000000
     18542       148  PMPE      H7Y             9.3244592029      -53.7329535822        7.6640710539  MEMB      148             0.0000000000
     18543       148  PMPE      C38            10.8901014491      -55.0189936972        6.9621335409  MEMB      148             0.0000000000
     18544       148  PMPE      H8X            11.5697745058      -55.8059556714        7.3378963499  MEMB      148             0.0000000000
     18545       148  PMPE      H8Y            11.5263168269      -54.1697096727        6.6191047360  MEMB      148             0.0000000000
     18546       148  PMPE      C39            10.1279683386      -55.6088928718        5.7629417410  MEMB      148             0.0000000000
     18547       148  PMPE      H9X             9.3666008703      -56.3255720389        6.1495150742  MEMB      148             0.0000000000
     18548       148  PMPE      H9Y            10.8235815288      -56.1842217223        5.1052664293  MEMB      148             0.0000000000
     18549       148  PMPE      C310            9.5378175754      -54.5276649063        4.8494962781  MEMB      148             0.0000000000
     18550       148  PMPE      H10X           10.3505346041      -53.9403791045        4.3731801546  MEMB      148             0.0000000000
     18551       148  PMPE      H10Y            9.0036004238      -53.7820476285        5.4682961758  MEMB      148             0.0000000000
     18552       148  PMPE      C311            8.5978471811      -55.1154702652        3.7912829260  MEMB      148             0.0000000000
     18553       148  PMPE      H11X            7.9287956360      -54.3404474857        3.4013701840  MEMB      148             0.0000000000
     18554       148  PMPE      H11Y            7.8926753264      -55.8125354580        4.2722768594  MEMB      148             0.0000000000
     18555       148  PMPE      C312            9.3115351469      -55.8468493080        2.6531975455  MEMB      148             0.0000000000
     18556       148  PMPE      H12X            9.7429397574      -56.7848395537        3.0467381379  MEMB      148             0.0000000000
     18557       148  PMPE      H12Y           10.1652561930      -55.2542125089        2.2516505083  MEMB      148             0.0000000000
     18558       148  PMPE      C313            8.4125449578      -56.2903758458        1.5046556814  MEMB      148             0.0000000000
     18559       148  PMPE      H13X            7.7907154560      -57.1906972092        1.7293062852  MEMB      148             0.0000000000
     18560       148  PMPE      H13Y            9.1091527678      -56.4803972821        0.6697579294  MEMB      148             0.0000000000
     18561       148  PMPE      C314            7.4898190917      -55.2581983511        0.9924701036  MEMB      148             0.0000000000
     18562       148  PMPE      H14X            7.9912987696      -54.3103800543        0.6473121159  MEMB      148             0.0000000000
     18563       148  PMPE      H14Y            6.8226860157      -54.9555793731        1.8173596401  MEMB      148             0.0000000000
     18564       148  PMPE      C315            6.5437603513      -55.7468543486       -0.1155582618  MEMB      148             0.0000000000
     18565       148  PMPE      H15X            5.8340257437      -54.9974660607       -0.3958430523  MEMB      148             0.0000000000
     18566       148  PMPE      H15Y            5.8475785390      -56.5112228199        0.2582271173  MEMB      148             0.0000000000
     18567       148  PMPE      C316            7.2462751697      -56.1090906077       -1.3840311584  MEMB      148             0.0000000000
     18568       148  PMPE      H16X            7.5496425146      -57.1725621010       -1.2166608584  MEMB      148             0.0000000000
     18569       148  PMPE      H16Y            8.1133676895      -55.5064847462       -1.6119556482  MEMB      148             0.0000000000
     18570       148  PMPE      H16Z            6.6237052091      -56.0253097731       -2.3185564562  MEMB      148             0.0000000000
     18571       149  PMPE      N              43.3443332841       37.4681015705       21.3967690808  MEMB      149             0.0000000000
     18572       149  PMPE      HN1            44.0954130061       38.0498439586       20.9655004382  MEMB      149             0.0000000000
     18573       149  PMPE      HN2            43.2350935895       37.7557062058       22.3844882776  MEMB      149             0.0000000000
     18574       149  PMPE      HN3            43.5891048145       36.4574897058       21.3248057591  MEMB      149             0.0000000000
     18575       149  PMPE      C12            42.0340767004       37.5787525914       20.6696075805  MEMB      149             0.0000000000
     18576       149  PMPE      H12A           41.5862908738       38.4954356982       21.0031161865  MEMB      149             0.0000000000
     18577       149  PMPE      H12B           41.3337291694       36.7897186656       21.0242858404  MEMB      149             0.0000000000
     18578       149  PMPE      C11            42.2449534063       37.5057653836       19.1464210509  MEMB      149             0.0000000000
     18579       149  PMPE      H11A           42.7479843736       38.3911147428       18.6970786296  MEMB      149             0.0000000000
     18580       149  PMPE      H11B           41.2390555175       37.4539017728       18.6734189342  MEMB      149             0.0000000000
     18581       149  PMPE      P              42.2641376773       35.0772036012       18.2006357343  MEMB      149             0.0000000000
     18582       149  PMPE      O13            40.9184502802       35.0169133036       18.8348818537  MEMB      149             0.0000000000
     18583       149  PMPE      O14            43.1549000694       33.9102192965       18.2682341643  MEMB      149             0.0000000000
     18584       149  PMPE      O11            42.1269259773       35.5043241823       16.6963869573  MEMB      149             0.0000000000
     18585       149  PMPE      O12            43.0244571362       36.3636029384       18.8117295611  MEMB      149             0.0000000000
     18586       149  PMPE      C1             42.0967506136       34.4987695222       15.6628230378  MEMB      149             0.0000000000
     18587       149  PMPE      HA             41.1722451520       34.6189949183       15.0512231305  MEMB      149             0.0000000000
     18588       149  PMPE      HB             42.0560339277       33.4522127503       16.0515009453  MEMB      149             0.0000000000
     18589       149  PMPE      C2             43.3246022973       34.7143053409       14.7482054086  MEMB      149             0.0000000000
     18590       149  PMPE      HS             44.2371529924       34.4693547050       15.3431527773  MEMB      149             0.0000000000
     18591       149  PMPE      O21            43.2313565124       36.0868812390       14.3068437271  MEMB      149             0.0000000000
     18592       149  PMPE      C21            44.3756518895       36.6377748453       14.0815470314  MEMB      149             0.0000000000
     18593       149  PMPE      O22            45.4059304408       36.0508016833       14.1928145987  MEMB      149             0.0000000000
     18594       149  PMPE      C22            44.2986091564       38.1446992587       13.9716597090  MEMB      149             0.0000000000
     18595       149  PMPE      H2R            45.2480752469       38.5065834363       13.5066538612  MEMB      149             0.0000000000
     18596       149  PMPE      H2S            44.2828150324       38.5278632146       15.0133790279  MEMB      149             0.0000000000
     18597       149  PMPE      C3             43.4092081864       33.8692985104       13.4871257999  MEMB      149             0.0000000000
     18598       149  PMPE      HX             43.4739271154       32.7650623127       13.7814979881  MEMB      149             0.0000000000
     18599       149  PMPE      HY             44.4058940247       33.9017494929       13.0615407475  MEMB      149             0.0000000000
     18600       149  PMPE      O31            42.4686203389       34.4660638905       12.4798016290  MEMB      149             0.0000000000
     18601       149  PMPE      C31            41.4805908333       33.7067152559       12.4720537954  MEMB      149             0.0000000000
     18602       149  PMPE      O32            41.5563415246       32.7357046624       13.2199125377  MEMB      149             0.0000000000
     18603       149  PMPE      C32            40.2433674467       34.2683959565       11.5892106264  MEMB      149             0.0000000000
     18604       149  PMPE      H2X            39.3800832358       34.5075752401       12.2038900176  MEMB      149             0.0000000000
     18605       149  PMPE      H2Y            39.6650689116       33.6708604478       10.8747008025  MEMB      149             0.0000000000
     18606       149  PMPE      C23            43.0020487837       38.6110447204       13.2855176511  MEMB      149             0.0000000000
     18607       149  PMPE      H3R            42.9659766793       39.7155761468       13.2477809119  MEMB      149             0.0000000000
     18608       149  PMPE      H3S            42.0787612883       38.2916283808       13.8262944448  MEMB      149             0.0000000000
     18609       149  PMPE      C24            42.8835261419       38.0758910320       11.8708335911  MEMB      149             0.0000000000
     18610       149  PMPE      H4R            41.8315178199       38.2485815175       11.5521038262  MEMB      149             0.0000000000
     18611       149  PMPE      H4S            43.0425725193       36.9824777735       11.9260823616  MEMB      149             0.0000000000
     18612       149  PMPE      C25            43.9427448778       38.6487803593       10.9325739323  MEMB      149             0.0000000000
     18613       149  PMPE      H5R            44.9474671614       38.2808045712       11.2338044258  MEMB      149             0.0000000000
     18614       149  PMPE      H5S            44.0254343122       39.7325457401       11.1250974459  MEMB      149             0.0000000000
     18615       149  PMPE      C26            43.6324527742       38.3606869084        9.4580235367  MEMB      149             0.0000000000
     18616       149  PMPE      H6R            43.2272924061       37.3330764535        9.3363372270  MEMB      149             0.0000000000
     18617       149  PMPE      H6S            44.5699381082       38.4638215564        8.8616643845  MEMB      149             0.0000000000
     18618       149  PMPE      C27            42.5870438264       39.3131090212        8.8793046768  MEMB      149             0.0000000000
     18619       149  PMPE      H7R            42.9813773576       40.3260483939        9.0694952716  MEMB      149             0.0000000000
     18620       149  PMPE      H7S            41.6053692874       39.2318980189        9.4017515749  MEMB      149             0.0000000000
     18621       149  PMPE      C28            42.3707055494       39.0849248792        7.3735479615  MEMB      149             0.0000000000
     18622       149  PMPE      H8R            41.6432750942       38.2874371983        7.2277059154  MEMB      149             0.0000000000
     18623       149  PMPE      H8S            43.3217234015       38.7629582629        6.8707501364  MEMB      149             0.0000000000
     18624       149  PMPE      C29            41.7962968315       40.3296967465        6.7094807990  MEMB      149             0.0000000000
     18625       149  PMPE      H9R            42.3011579555       41.1030624027        6.5563149653  MEMB      149             0.0000000000
     18626       149  PMPE      C217           40.4816988828       40.9826371368        6.9276693908  MEMB      149             0.0000000000
     18627       149  PMPE      H17R           40.4958480421       42.0841998156        6.9503816273  MEMB      149             0.0000000000
     18628       149  PMPE      H17S           39.9348496039       40.3106462745        7.5192445329  MEMB      149             0.0000000000
     18629       149  PMPE      C210           40.9152117297       40.4456945582        5.5492455738  MEMB      149             0.0000000000
     18630       149  PMPE      H10R           41.0719499693       41.3039402804        4.8538503551  MEMB      149             0.0000000000
     18631       149  PMPE      C211           40.3111202310       39.1709412782        5.0396961961  MEMB      149             0.0000000000
     18632       149  PMPE      H11R           39.2588541464       39.3644540750        4.7610192225  MEMB      149             0.0000000000
     18633       149  PMPE      H11S           40.2838394973       38.3659073218        5.7988830598  MEMB      149             0.0000000000
     18634       149  PMPE      C212           41.1440214563       38.6514952017        3.8621360476  MEMB      149             0.0000000000
     18635       149  PMPE      H12R           40.5818384507       37.8307844639        3.3717552223  MEMB      149             0.0000000000
     18636       149  PMPE      H12S           42.0398589668       38.1653487534        4.3045389708  MEMB      149             0.0000000000
     18637       149  PMPE      C213           41.5924394718       39.7662915740        2.8893284446  MEMB      149             0.0000000000
     18638       149  PMPE      H13R           42.5731834404       40.2106959665        3.2010139806  MEMB      149             0.0000000000
     18639       149  PMPE      H13S           40.8108488795       40.4852867593        2.6652840622  MEMB      149             0.0000000000
     18640       149  PMPE      C214           41.7322145893       39.3757744901        1.4774136220  MEMB      149             0.0000000000
     18641       149  PMPE      H14R           40.9423302003       38.7400467585        1.1396465561  MEMB      149             0.0000000000
     18642       149  PMPE      H14S           42.2947958903       38.6043199427        1.8152111507  MEMB      149             0.0000000000
     18643       149  PMPE      C215           42.4357569725       40.4419829263        0.5830510867  MEMB      149             0.0000000000
     18644       149  PMPE      H15R           43.4228797019       40.7174060095        1.0532773978  MEMB      149             0.0000000000
     18645       149  PMPE      H15S           41.7865098874       41.2480050414        0.5788696326  MEMB      149             0.0000000000
     18646       149  PMPE      C216           42.8065047441       40.1705962674       -0.8913351485  MEMB      149             0.0000000000
     18647       149  PMPE      H16R           42.1863172059       39.4497055057       -1.2374102750  MEMB      149             0.0000000000
     18648       149  PMPE      H16S           42.9162590180       40.7413037595       -1.7458446269  MEMB      149             0.0000000000
     18649       149  PMPE      H16T           43.7481907744       39.8490523498       -1.0791969300  MEMB      149             0.0000000000
     18650       149  PMPE      C33            40.6782926657       35.4680347296       10.7833572392  MEMB      149             0.0000000000
     18651       149  PMPE      H3X            41.5924528489       35.2622684555       10.1938141052  MEMB      149             0.0000000000
     18652       149  PMPE      H3Y            40.9541216185       36.1994831941       11.5554423788  MEMB      149             0.0000000000
     18653       149  PMPE      C34            39.6660039532       36.1263270891        9.8755024072  MEMB      149             0.0000000000
     18654       149  PMPE      H4X            40.3241414916       36.9080684048        9.4589643840  MEMB      149             0.0000000000
     18655       149  PMPE      H4Y            38.8299961360       36.6299872540       10.4323182941  MEMB      149             0.0000000000
     18656       149  PMPE      C35            39.3088295356       35.3735502257        8.5780601597  MEMB      149             0.0000000000
     18657       149  PMPE      H5X            38.5915949572       34.5614094186        8.7900215203  MEMB      149             0.0000000000
     18658       149  PMPE      H5Y            40.1122040192       34.7359890360        8.2543216376  MEMB      149             0.0000000000
     18659       149  PMPE      C36            38.9529035603       36.3883189443        7.4421036887  MEMB      149             0.0000000000
     18660       149  PMPE      H6X            39.6106619995       37.2218939671        7.4062667023  MEMB      149             0.0000000000
     18661       149  PMPE      H6Y            38.1862167376       37.1369368283        7.5660201375  MEMB      149             0.0000000000
     18662       149  PMPE      C37            38.7001512454       35.8534043696        6.0680974439  MEMB      149             0.0000000000
     18663       149  PMPE      H7X            38.3197217620       36.6342084770        5.3587597863  MEMB      149             0.0000000000
     18664       149  PMPE      H7Y            37.9758965801       35.0779055518        6.2163371320  MEMB      149             0.0000000000
     18665       149  PMPE      C38            39.8226073018       35.0460259206        5.5001344522  MEMB      149             0.0000000000
     18666       149  PMPE      H8X            39.9143157708       34.0793567058        6.0385945723  MEMB      149             0.0000000000
     18667       149  PMPE      H8Y            40.7649183300       35.6046753013        5.5741422255  MEMB      149             0.0000000000
     18668       149  PMPE      C39            39.5352670650       34.7342632889        4.0529276750  MEMB      149             0.0000000000
     18669       149  PMPE      H9X            39.0489498279       35.6351350546        3.6191997468  MEMB      149             0.0000000000
     18670       149  PMPE      H9Y            38.8372237959       33.8655933161        4.0169548275  MEMB      149             0.0000000000
     18671       149  PMPE      C310           40.7586533282       34.3827165689        3.2242175218  MEMB      149             0.0000000000
     18672       149  PMPE      H10X           41.2803325726       33.5219206683        3.7093872691  MEMB      149             0.0000000000
     18673       149  PMPE      H10Y           41.4525173073       35.2512521501        3.1070821508  MEMB      149             0.0000000000
     18674       149  PMPE      C311           40.3110921870       34.0673329758        1.7974677005  MEMB      149             0.0000000000
     18675       149  PMPE      H11X           40.1516561779       35.0499626569        1.3023222629  MEMB      149             0.0000000000
     18676       149  PMPE      H11Y           39.3626655919       33.4845311522        1.7791943601  MEMB      149             0.0000000000
     18677       149  PMPE      C312           41.3365608919       33.2716882290        1.0190739719  MEMB      149             0.0000000000
     18678       149  PMPE      H12X           40.9139949023       32.8672188120        0.0706791741  MEMB      149             0.0000000000
     18679       149  PMPE      H12Y           41.6023930073       32.4014162269        1.6530930035  MEMB      149             0.0000000000
     18680       149  PMPE      C313           42.5858457212       34.0714125986        0.6692806100  MEMB      149             0.0000000000
     18681       149  PMPE      H13X           43.4090735505       33.3332767266        0.7619820793  MEMB      149             0.0000000000
     18682       149  PMPE      H13Y           42.7942860313       34.9013915453        1.3798572941  MEMB      149             0.0000000000
     18683       149  PMPE      C314           42.4699548062       34.6035405922       -0.7588810841  MEMB      149             0.0000000000
     18684       149  PMPE      H14X           41.7961685299       35.4814519331       -0.7698423214  MEMB      149             0.0000000000
     18685       149  PMPE      H14Y           41.9482252764       33.8696592395       -1.3905411561  MEMB      149             0.0000000000
     18686       149  PMPE      C315           43.7808125029       34.7825054025       -1.5368999786  MEMB      149             0.0000000000
     18687       149  PMPE      H15X           43.5763300672       35.4124980306       -2.4196947120  MEMB      149             0.0000000000
     18688       149  PMPE      H15Y           44.2846440724       33.8758482089       -1.7835847871  MEMB      149             0.0000000000
     18689       149  PMPE      C316           44.8792276401       35.4290436688       -0.8565592242  MEMB      149             0.0000000000
     18690       149  PMPE      H16X           45.6864356489       35.9091431334       -1.3803566364  MEMB      149             0.0000000000
     18691       149  PMPE      H16Y           44.9938106208       35.1606594035        0.1065966384  MEMB      149             0.0000000000
     18692       149  PMPE      H16Z           44.4469703525       36.0625761180       -0.1636847984  MEMB      149             0.0000000000
     18693       150  PYPG      C13            45.6343180744       27.8255478602       19.0080737300  MEMB      150             0.0000000000
     18694       150  PYPG      H13A           45.5212900199       27.0419392037       18.1978314996  MEMB      150             0.0000000000
     18695       150  PYPG      H13B           44.9045409609       27.6199069735       19.7698359341  MEMB      150             0.0000000000
     18696       150  PYPG      OC3            45.0778095637       29.0937830403       18.7670458116  MEMB      150             0.0000000000
     18697       150  PYPG      HO3            45.7009783342       29.8192574287       18.6924785739  MEMB      150             0.0000000000
     18698       150  PYPG      C12            47.0931044218       27.9757863751       19.3752258900  MEMB      150             0.0000000000
     18699       150  PYPG      H12A           47.4009898803       26.9795138411       19.7350703739  MEMB      150             0.0000000000
     18700       150  PYPG      OC2            47.1893370091       28.8755704086       20.4686721102  MEMB      150             0.0000000000
     18701       150  PYPG      HO2            48.1374969503       29.0446651072       20.5630955880  MEMB      150             0.0000000000
     18702       150  PYPG      C11            48.0097771073       28.3926853324       18.1746157014  MEMB      150             0.0000000000
     18703       150  PYPG      H11A           47.5587720621       29.2493298073       17.6314694206  MEMB      150             0.0000000000
     18704       150  PYPG      H11B           47.9972923751       27.5205405292       17.4656689865  MEMB      150             0.0000000000
     18705       150  PYPG      P              49.8903800367       30.0948266130       19.0650917842  MEMB      150             0.0000000000
     18706       150  PYPG      O13            51.2534442504       29.8054667384       19.5212749136  MEMB      150             0.0000000000
     18707       150  PYPG      O14            48.9372139334       30.8083627377       19.9274512532  MEMB      150             0.0000000000
     18708       150  PYPG      O11            50.0585635454       30.9616311619       17.7898499187  MEMB      150             0.0000000000
     18709       150  PYPG      O12            49.3482542305       28.6909590270       18.5568712673  MEMB      150             0.0000000000
     18710       150  PYPG      C1             49.0933137082       31.8772981870       17.3088205719  MEMB      150             0.0000000000
     18711       150  PYPG      HA             49.3169860004       32.9222373376       17.6102684477  MEMB      150             0.0000000000
     18712       150  PYPG      HB             48.0508642839       31.7239616214       17.6994536154  MEMB      150             0.0000000000
     18713       150  PYPG      C2             49.1316461904       31.7594172854       15.7874178110  MEMB      150             0.0000000000
     18714       150  PYPG      HS             48.1443401004       32.2132539201       15.5827393219  MEMB      150             0.0000000000
     18715       150  PYPG      O21            49.2406041948       30.4267335619       15.3393046570  MEMB      150             0.0000000000
     18716       150  PYPG      C21            48.2213094076       29.9341646819       14.7136241405  MEMB      150             0.0000000000
     18717       150  PYPG      O22            47.1226629397       30.4348887109       14.5727936559  MEMB      150             0.0000000000
     18718       150  PYPG      C22            48.6908704709       28.6711922196       14.1369503051  MEMB      150             0.0000000000
     18719       150  PYPG      H2R            47.9238252259       28.0676614254       13.6231349971  MEMB      150             0.0000000000
     18720       150  PYPG      H2S            49.1256847352       28.0065730630       14.9116828224  MEMB      150             0.0000000000
     18721       150  PYPG      C3             50.3145471502       32.5058535823       15.0821529859  MEMB      150             0.0000000000
     18722       150  PYPG      HX             51.2994000203       32.2370228313       15.3981169827  MEMB      150             0.0000000000
     18723       150  PYPG      HY             50.2177239845       33.4463515953       15.6840102052  MEMB      150             0.0000000000
     18724       150  PYPG      O31            50.4844637463       32.1916975882       13.6278221114  MEMB      150             0.0000000000
     18725       150  PYPG      C31            49.9019196973       32.8530250116       12.6768144162  MEMB      150             0.0000000000
     18726       150  PYPG      O32            50.0448976572       33.9588976633       12.6833167464  MEMB      150             0.0000000000
     18727       150  PYPG      C32            48.9907861053       32.5262165873       11.4325109615  MEMB      150             0.0000000000
     18728       150  PYPG      H2X            49.8005350451       32.9139328346       10.9263627814  MEMB      150             0.0000000000
     18729       150  PYPG      H2Y            48.6814143320       31.5711433364       11.4908098869  MEMB      150             0.0000000000
     18730       150  PYPG      C23            49.6096393027       29.1227212124       13.0541393473  MEMB      150             0.0000000000
     18731       150  PYPG      H3R            50.5887197171       29.4961604777       13.4417451594  MEMB      150             0.0000000000
     18732       150  PYPG      H3S            49.2325990730       29.7737851578       12.2906940388  MEMB      150             0.0000000000
     18733       150  PYPG      C24            49.5898389849       27.9904526785       12.1396993054  MEMB      150             0.0000000000
     18734       150  PYPG      H4R            48.8703652256       27.3115772925       11.7908089095  MEMB      150             0.0000000000
     18735       150  PYPG      H4S            49.8357575959       27.4201045016       12.9722150581  MEMB      150             0.0000000000
     18736       150  PYPG      C25            50.4046492807       28.0303257108       10.8856427323  MEMB      150             0.0000000000
     18737       150  PYPG      H5R            51.0492609073       28.2006511360       11.6191968100  MEMB      150             0.0000000000
     18738       150  PYPG      H5S            50.4015121254       28.8580290211       10.3271864934  MEMB      150             0.0000000000
     18739       150  PYPG      C26            51.1738204348       26.9514344871       10.1295425416  MEMB      150             0.0000000000
     18740       150  PYPG      H6R            50.4858131090       26.1106216251       10.0020872562  MEMB      150             0.0000000000
     18741       150  PYPG      H6S            51.9947559572       26.7242977725       10.8278301390  MEMB      150             0.0000000000
     18742       150  PYPG      C27            51.9743593228       26.7040668179        8.9207446866  MEMB      150             0.0000000000
     18743       150  PYPG      H7R            52.7543427793       25.9643673809        8.9422891312  MEMB      150             0.0000000000
     18744       150  PYPG      H7S            52.7581785959       27.2062951216        8.9120047538  MEMB      150             0.0000000000
     18745       150  PYPG      C28            51.5306041968       27.3797054753        7.8680154383  MEMB      150             0.0000000000
     18746       150  PYPG      H8R            51.3077481894       28.3993195849        8.2464685027  MEMB      150             0.0000000000
     18747       150  PYPG      H8S            50.7483895688       26.6716908269        7.7329615177  MEMB      150             0.0000000000
     18748       150  PYPG      C29            52.1742224906       27.2173195826        6.6024039270  MEMB      150             0.0000000000
     18749       150  PYPG      H9R            53.0587032449       26.6197873311        6.6158179285  MEMB      150             0.0000000000
     18750       150  PYPG      C210           52.4037677520       28.2505439104        5.8854560936  MEMB      150             0.0000000000
     18751       150  PYPG      H10R           53.2266594594       28.2221590027        5.1835656103  MEMB      150             0.0000000000
     18752       150  PYPG      C211           52.1054188161       29.6829564290        6.2649812758  MEMB      150             0.0000000000
     18753       150  PYPG      H11R           52.6610236398       30.2343470359        7.1251939485  MEMB      150             0.0000000000
     18754       150  PYPG      H11S           51.0901544511       29.5853897712        6.5122537621  MEMB      150             0.0000000000
     18755       150  PYPG      C212           52.5314300353       30.5607433380        5.0970869022  MEMB      150             0.0000000000
     18756       150  PYPG      H12R           51.9283544688       31.4873966737        5.1571066170  MEMB      150             0.0000000000
     18757       150  PYPG      H12S           52.2739199238       29.9500010497        4.2033415177  MEMB      150             0.0000000000
     18758       150  PYPG      C213           53.9424229818       31.1635346784        4.9840534021  MEMB      150             0.0000000000
     18759       150  PYPG      H13R           54.7492635951       30.5355187514        4.6658445879  MEMB      150             0.0000000000
     18760       150  PYPG      H13S           54.4477378909       31.7264271211        5.7657259568  MEMB      150             0.0000000000
     18761       150  PYPG      C214           53.7955397921       32.2069722292        3.9964725228  MEMB      150             0.0000000000
     18762       150  PYPG      H14R           53.2732628672       33.1177785482        4.1097927938  MEMB      150             0.0000000000
     18763       150  PYPG      H14S           54.8161931258       32.7313766869        4.0676831099  MEMB      150             0.0000000000
     18764       150  PYPG      C215           53.2044698976       31.5056992394        2.7020323814  MEMB      150             0.0000000000
     18765       150  PYPG      H15R           52.3403405167       31.0292174958        2.4935169106  MEMB      150             0.0000000000
     18766       150  PYPG      H15S           53.8318868091       30.4566002078        2.5883124821  MEMB      150             0.0000000000
     18767       150  PYPG      C216           53.0243999770       32.5074247682        1.4443327816  MEMB      150             0.0000000000
     18768       150  PYPG      H16R           52.6944721389       33.4743274682        1.2221876756  MEMB      150             0.0000000000
     18769       150  PYPG      H16S           53.3367486877       31.9551495423        0.4450044689  MEMB      150             0.0000000000
     18770       150  PYPG      H16T           53.8282633180       33.3384234512        1.7432224450  MEMB      150             0.0000000000
     18771       150  PYPG      C33            47.7576997357       33.2180634444       10.5848016810  MEMB      150             0.0000000000
     18772       150  PYPG      H3X            48.0761346954       34.2733939725       10.3268709573  MEMB      150             0.0000000000
     18773       150  PYPG      H3Y            46.6689754435       33.3992135611       11.0960423798  MEMB      150             0.0000000000
     18774       150  PYPG      C34            46.9066082364       32.4832831199        9.7462317305  MEMB      150             0.0000000000
     18775       150  PYPG      H4X            45.9052269870       33.0451574002        9.6442949220  MEMB      150             0.0000000000
     18776       150  PYPG      H4Y            46.6728598398       31.6147489180       10.3199437494  MEMB      150             0.0000000000
     18777       150  PYPG      C35            47.5673253930       32.4624373805        8.4542974689  MEMB      150             0.0000000000
     18778       150  PYPG      H5X            46.7363050924       32.4357893235        7.7439663125  MEMB      150             0.0000000000
     18779       150  PYPG      H5Y            48.2650199417       31.6552353341        8.3409735177  MEMB      150             0.0000000000
     18780       150  PYPG      C36            48.3188952513       33.5999122577        7.9808145503  MEMB      150             0.0000000000
     18781       150  PYPG      H6X            49.1001521147       34.0497648422        8.5760784110  MEMB      150             0.0000000000
     18782       150  PYPG      H6Y            47.7634904968       34.3534210252        7.8043949565  MEMB      150             0.0000000000
     18783       150  PYPG      C37            48.3236585605       33.4880281554        6.5803984575  MEMB      150             0.0000000000
     18784       150  PYPG      H7X            48.7546026976       34.4259802261        6.2215829431  MEMB      150             0.0000000000
     18785       150  PYPG      H7Y            48.7738975375       32.4534269095        6.6748294074  MEMB      150             0.0000000000
     18786       150  PYPG      C38            47.4941871649       33.5426153815        5.4619048602  MEMB      150             0.0000000000
     18787       150  PYPG      H8X            47.5384865303       34.2256668414        4.6154687425  MEMB      150             0.0000000000
     18788       150  PYPG      H8Y            46.8098878235       34.1145699376        6.0223042472  MEMB      150             0.0000000000
     18789       150  PYPG      C39            47.4713208453       32.2219761359        4.7767030875  MEMB      150             0.0000000000
     18790       150  PYPG      H9X            46.7081123337       32.5315283904        4.0446968122  MEMB      150             0.0000000000
     18791       150  PYPG      H9Y            47.0870870569       31.5392978585        5.5492703075  MEMB      150             0.0000000000
     18792       150  PYPG      C310           48.6858258854       31.5519580789        4.0301885988  MEMB      150             0.0000000000
     18793       150  PYPG      H10X           48.2988660049       30.7989682524        3.3409751079  MEMB      150             0.0000000000
     18794       150  PYPG      H10Y           49.3734439618       31.0330783767        4.7459941434  MEMB      150             0.0000000000
     18795       150  PYPG      C311           49.6429291608       32.3902990208        3.2022376859  MEMB      150             0.0000000000
     18796       150  PYPG      H11X           50.6812104347       32.0380036798        3.1792939707  MEMB      150             0.0000000000
     18797       150  PYPG      H11Y           49.7086978810       32.9892292145        3.9911888188  MEMB      150             0.0000000000
     18798       150  PYPG      C312           49.1982689203       33.1933682325        1.9747724313  MEMB      150             0.0000000000
     18799       150  PYPG      H12X           48.3993892786       33.8569677031        2.1395521456  MEMB      150             0.0000000000
     18800       150  PYPG      H12Y           50.0703035590       33.6605239425        1.4367994237  MEMB      150             0.0000000000
     18801       150  PYPG      C313           48.6178525010       32.2909625100        0.9957308333  MEMB      150             0.0000000000
     18802       150  PYPG      H13X           49.5689081813       31.8494806525        1.2762982837  MEMB      150             0.0000000000
     18803       150  PYPG      H13Y           47.8587839544       31.5335102961        1.2364185456  MEMB      150             0.0000000000
     18804       150  PYPG      C314           48.5871294835       32.7281905178       -0.4733022502  MEMB      150             0.0000000000
     18805       150  PYPG      H14X           49.5722974060       33.0977014859       -0.8399626526  MEMB      150             0.0000000000
     18806       150  PYPG      H14Y           48.2544220650       31.8941434299       -1.1232738618  MEMB      150             0.0000000000
     18807       150  PYPG      C315           47.5101857119       33.6447733054       -0.5740075488  MEMB      150             0.0000000000
     18808       150  PYPG      H15X           48.0106347023       34.5385224643       -0.0995178936  MEMB      150             0.0000000000
     18809       150  PYPG      H15Y           47.2760621891       34.0157130902       -1.5638042849  MEMB      150             0.0000000000
     18810       150  PYPG      C316           46.2640835513       32.9635829508        0.0802231015  MEMB      150             0.0000000000
     18811       150  PYPG      H16X           46.2761150843       32.8721928300        1.1808001608  MEMB      150             0.0000000000
     18812       150  PYPG      H16Y           45.8499653925       32.0965857546       -0.3745522514  MEMB      150             0.0000000000
     18813       150  PYPG      H16Z           45.4099234552       33.5365007703       -0.0010122925  MEMB      150             0.0000000000
     18814       151  OYPE      N             -14.3332183285      -53.9277920223       19.9936118605  MEMB      151             0.0000000000
     18815       151  OYPE      HN1           -14.9701094337      -54.6730436967       20.3517135792  MEMB      151             0.0000000000
     18816       151  OYPE      HN2           -13.3596937193      -54.2112985620       20.1767657942  MEMB      151             0.0000000000
     18817       151  OYPE      HN3           -14.5674712064      -53.0298275854       20.4770063015  MEMB      151             0.0000000000
     18818       151  OYPE      C12           -14.5835413182      -53.8003068513       18.5147865421  MEMB      151             0.0000000000
     18819       151  OYPE      H12A          -14.9607900876      -54.7951790133       18.2292064528  MEMB      151             0.0000000000
     18820       151  OYPE      H12B          -13.5942431628      -53.6798661909       18.0300079790  MEMB      151             0.0000000000
     18821       151  OYPE      C11           -15.5176605604      -52.5996548099       18.1893750519  MEMB      151             0.0000000000
     18822       151  OYPE      H11A          -16.0064085692      -52.5823936485       17.1805346263  MEMB      151             0.0000000000
     18823       151  OYPE      H11B          -14.8515307641      -51.7133914497       18.2725823164  MEMB      151             0.0000000000
     18824       151  OYPE      P             -17.8561839941      -53.1989938799       19.1694891019  MEMB      151             0.0000000000
     18825       151  OYPE      O13           -18.9196182546      -52.3658382474       19.7402947343  MEMB      151             0.0000000000
     18826       151  OYPE      O14           -17.4906908070      -54.5033908987       19.7720107699  MEMB      151             0.0000000000
     18827       151  OYPE      O11           -18.1476960069      -53.3810278450       17.6652831295  MEMB      151             0.0000000000
     18828       151  OYPE      O12           -16.5092161296      -52.3964302069       19.1741081911  MEMB      151             0.0000000000
     18829       151  OYPE      C1            -19.2637079115      -54.1499479570       17.3617975532  MEMB      151             0.0000000000
     18830       151  OYPE      HA            -19.2679749289      -53.9175875727       16.3348044534  MEMB      151             0.0000000000
     18831       151  OYPE      HB            -20.2382713013      -53.8942726925       17.7814620646  MEMB      151             0.0000000000
     18832       151  OYPE      C2            -18.9415768563      -55.5669770985       17.3109472642  MEMB      151             0.0000000000
     18833       151  OYPE      HS            -19.1949567993      -56.0560542077       18.3265567991  MEMB      151             0.0000000000
     18834       151  OYPE      O21           -17.7091061556      -55.7187688945       16.8139201545  MEMB      151             0.0000000000
     18835       151  OYPE      C21           -17.1140840773      -56.5766406299       17.2429545948  MEMB      151             0.0000000000
     18836       151  OYPE      O22           -17.2095946125      -57.2116928970       18.2424325944  MEMB      151             0.0000000000
     18837       151  OYPE      C22           -16.0901995766      -56.7726173078       16.3793845183  MEMB      151             0.0000000000
     18838       151  OYPE      H2R           -15.8107093820      -57.6194925308       16.9164736861  MEMB      151             0.0000000000
     18839       151  OYPE      H2S           -15.2803484776      -56.0585057411       16.4955212686  MEMB      151             0.0000000000
     18840       151  OYPE      C3            -19.6562167070      -56.1844107235       16.4087483560  MEMB      151             0.0000000000
     18841       151  OYPE      HX            -20.6391785084      -55.9320105788       16.7581390782  MEMB      151             0.0000000000
     18842       151  OYPE      HY            -19.3491893049      -57.2676866881       16.4435747385  MEMB      151             0.0000000000
     18843       151  OYPE      O31           -19.5163687792      -55.5869739016       15.0947208274  MEMB      151             0.0000000000
     18844       151  OYPE      C31           -19.4878887687      -56.2683374304       13.8781460865  MEMB      151             0.0000000000
     18845       151  OYPE      O32           -18.9003749190      -57.2766137710       13.6873014962  MEMB      151             0.0000000000
     18846       151  OYPE      C32           -20.1462197338      -55.7740517380       12.6044387686  MEMB      151             0.0000000000
     18847       151  OYPE      H2X           -21.3481454834      -55.6251996832       12.5197329790  MEMB      151             0.0000000000
     18848       151  OYPE      H2Y           -19.4770398744      -54.8459328969       12.6717394875  MEMB      151             0.0000000000
     18849       151  OYPE      C23           -16.5562628746      -57.2860893071       14.9808071510  MEMB      151             0.0000000000
     18850       151  OYPE      H3R           -17.1044240429      -56.5895900270       14.5161706148  MEMB      151             0.0000000000
     18851       151  OYPE      H3S           -17.1828586576      -58.2546173724       15.0753264547  MEMB      151             0.0000000000
     18852       151  OYPE      C24           -15.3705041462      -57.5650897752       13.9594738902  MEMB      151             0.0000000000
     18853       151  OYPE      H4R           -15.6029526501      -58.0414246892       13.0246768131  MEMB      151             0.0000000000
     18854       151  OYPE      H4S           -14.4466153564      -58.3454087590       14.0926416901  MEMB      151             0.0000000000
     18855       151  OYPE      C25           -14.7850714275      -56.5056561911       13.9146505511  MEMB      151             0.0000000000
     18856       151  OYPE      H5R           -13.8785218149      -57.0519142952       13.3803162882  MEMB      151             0.0000000000
     18857       151  OYPE      H5S           -14.4274413880      -56.0617038117       14.8127750850  MEMB      151             0.0000000000
     18858       151  OYPE      C26           -15.5156797367      -55.2897456532       13.4210041794  MEMB      151             0.0000000000
     18859       151  OYPE      H6R           -14.9477165870      -54.4703678536       12.9871378229  MEMB      151             0.0000000000
     18860       151  OYPE      H6S           -15.6746398387      -54.7013545347       14.2998575154  MEMB      151             0.0000000000
     18861       151  OYPE      C27           -16.4074106855      -55.5861700786       12.2679782920  MEMB      151             0.0000000000
     18862       151  OYPE      H7R           -16.7739026420      -54.6338130988       11.9300317642  MEMB      151             0.0000000000
     18863       151  OYPE      H7S           -17.0787253083      -56.3775129542       12.5551808643  MEMB      151             0.0000000000
     18864       151  OYPE      C28           -15.8914944228      -56.0371017126       11.0118437421  MEMB      151             0.0000000000
     18865       151  OYPE      H8R           -16.5390550370      -56.4571968443       10.2026559831  MEMB      151             0.0000000000
     18866       151  OYPE      H8S           -15.4452050476      -57.1193357341       11.4375810393  MEMB      151             0.0000000000
     18867       151  OYPE      C29           -14.9848339672      -54.8265504319       10.3538931761  MEMB      151             0.0000000000
     18868       151  OYPE      H9R           -13.8809502994      -54.7576804126       10.5590060861  MEMB      151             0.0000000000
     18869       151  OYPE      C210          -14.9890913731      -54.2959834300        9.1160456144  MEMB      151             0.0000000000
     18870       151  OYPE      H10R          -13.9931262543      -53.9908840987        8.6524447400  MEMB      151             0.0000000000
     18871       151  OYPE      C211          -15.9741423214      -54.7477712744        8.1317591864  MEMB      151             0.0000000000
     18872       151  OYPE      H11R          -16.2204286797      -53.7813647417        7.7254426660  MEMB      151             0.0000000000
     18873       151  OYPE      H11S          -16.8059359208      -55.1130857348        8.7541274238  MEMB      151             0.0000000000
     18874       151  OYPE      C212          -16.0303363457      -55.4432441139        6.7912827913  MEMB      151             0.0000000000
     18875       151  OYPE      H12R          -17.0277742321      -55.7074372584        6.4971581166  MEMB      151             0.0000000000
     18876       151  OYPE      H12S          -15.7661914429      -56.2768636260        7.1439284903  MEMB      151             0.0000000000
     18877       151  OYPE      C213          -14.9612005859      -55.2688858757        5.7665925483  MEMB      151             0.0000000000
     18878       151  OYPE      H13R          -14.0064490702      -55.1451399012        6.3265498093  MEMB      151             0.0000000000
     18879       151  OYPE      H13S          -15.2616204060      -54.3349682664        5.3020974632  MEMB      151             0.0000000000
     18880       151  OYPE      C214          -14.7746813171      -56.4424236097        4.7847483856  MEMB      151             0.0000000000
     18881       151  OYPE      H14R          -14.5371106592      -57.3782769880        5.3405931618  MEMB      151             0.0000000000
     18882       151  OYPE      H14S          -13.8527120753      -56.1928110067        4.2356501162  MEMB      151             0.0000000000
     18883       151  OYPE      C215          -15.8861098111      -56.6048409151        3.7309277299  MEMB      151             0.0000000000
     18884       151  OYPE      H15R          -16.2609011047      -55.6094758892        3.4077229226  MEMB      151             0.0000000000
     18885       151  OYPE      H15S          -16.7491023965      -57.0609970696        4.2510694695  MEMB      151             0.0000000000
     18886       151  OYPE      C216          -15.4803666218      -57.3799309412        2.4639991650  MEMB      151             0.0000000000
     18887       151  OYPE      H16R          -16.3838322811      -57.5629181851        1.8275091926  MEMB      151             0.0000000000
     18888       151  OYPE      H16S          -14.9986155089      -58.3433781564        2.7157804943  MEMB      151             0.0000000000
     18889       151  OYPE      H16T          -14.6933287957      -56.8172121140        1.9092899205  MEMB      151             0.0000000000
     18890       151  OYPE      C33           -20.3093657340      -56.5059760294       11.3985125371  MEMB      151             0.0000000000
     18891       151  OYPE      H3X           -21.2407445028      -57.1124630861       11.5342374636  MEMB      151             0.0000000000
     18892       151  OYPE      H3Y           -19.3737111954      -57.0122782667       11.4199584036  MEMB      151             0.0000000000
     18893       151  OYPE      C34           -20.3262930431      -55.7329675607       10.1328309602  MEMB      151             0.0000000000
     18894       151  OYPE      H4X           -21.2176750757      -55.2127384359       10.0431383887  MEMB      151             0.0000000000
     18895       151  OYPE      H4Y           -19.6125131227      -54.8909060805       10.0862998765  MEMB      151             0.0000000000
     18896       151  OYPE      C35           -20.1429844142      -56.6078868986        9.0421784991  MEMB      151             0.0000000000
     18897       151  OYPE      H5X           -20.9265514201      -57.3750047116        9.1263184950  MEMB      151             0.0000000000
     18898       151  OYPE      H5Y           -19.1569593550      -57.0471607854        9.2754096864  MEMB      151             0.0000000000
     18899       151  OYPE      C36           -20.1523381419      -55.8799169631        7.7384679536  MEMB      151             0.0000000000
     18900       151  OYPE      H6X           -21.0610951133      -55.2511795946        7.5733662262  MEMB      151             0.0000000000
     18901       151  OYPE      H6Y           -19.2943723235      -55.1768438545        7.7654170890  MEMB      151             0.0000000000
     18902       151  OYPE      C37           -20.0262254586      -57.0019585056        6.7292008330  MEMB      151             0.0000000000
     18903       151  OYPE      H7X           -19.1610758103      -57.6663214723        6.9555305918  MEMB      151             0.0000000000
     18904       151  OYPE      H7Y           -20.9248792957      -57.6366503448        6.8219312717  MEMB      151             0.0000000000
     18905       151  OYPE      C38           -19.8996795416      -56.5341573674        5.3030712267  MEMB      151             0.0000000000
     18906       151  OYPE      H8X           -18.9836202396      -55.9068570209        5.1581906389  MEMB      151             0.0000000000
     18907       151  OYPE      H8Y           -19.7489337566      -57.4549911543        4.7211868526  MEMB      151             0.0000000000
     18908       151  OYPE      C39           -21.2271777901      -55.9514169018        4.9217074056  MEMB      151             0.0000000000
     18909       151  OYPE      H9X           -22.0429233883      -56.6824679527        4.7994697734  MEMB      151             0.0000000000
     18910       151  OYPE      C310          -21.4559867305      -54.6796200509        4.6205213514  MEMB      151             0.0000000000
     18911       151  OYPE      H10X          -22.4612494967      -54.3573168098        4.4295942079  MEMB      151             0.0000000000
     18912       151  OYPE      C311          -20.4571387152      -53.5918952215        4.5985241394  MEMB      151             0.0000000000
     18913       151  OYPE      H11X          -19.5007118456      -53.9959987586        4.9751513973  MEMB      151             0.0000000000
     18914       151  OYPE      H11Y          -20.2760926814      -53.1683561461        3.5877416453  MEMB      151             0.0000000000
     18915       151  OYPE      C312          -20.8379822462      -52.4840113335        5.5386684972  MEMB      151             0.0000000000
     18916       151  OYPE      H12X          -20.8711375436      -52.8736601429        6.5602440086  MEMB      151             0.0000000000
     18917       151  OYPE      H12Y          -21.7829204923      -51.9294699514        5.2801991507  MEMB      151             0.0000000000
     18918       151  OYPE      C313          -19.7402342789      -51.4895687764        5.5752012382  MEMB      151             0.0000000000
     18919       151  OYPE      H13X          -20.1088122023      -51.0554081273        4.6992904043  MEMB      151             0.0000000000
     18920       151  OYPE      H13Y          -19.9202108428      -50.9093534741        6.4271801940  MEMB      151             0.0000000000
     18921       151  OYPE      C314          -18.2790655114      -51.8842780263        5.4214228480  MEMB      151             0.0000000000
     18922       151  OYPE      H14X          -18.2463255307      -52.4332606495        4.4770140634  MEMB      151             0.0000000000
     18923       151  OYPE      H14Y          -17.9368486406      -52.3904169393        6.3419770848  MEMB      151             0.0000000000
     18924       151  OYPE      C315          -17.2264091144      -50.8373522756        5.1630047430  MEMB      151             0.0000000000
     18925       151  OYPE      H15X          -17.1963777001      -50.3404445937        6.0291205197  MEMB      151             0.0000000000
     18926       151  OYPE      H15Y          -17.2376200773      -50.0658215926        4.4231805869  MEMB      151             0.0000000000
     18927       151  OYPE      C316          -15.7959220791      -51.0161848226        5.2331867267  MEMB      151             0.0000000000
     18928       151  OYPE      H16X          -15.5331471012      -51.3529867786        6.2341382298  MEMB      151             0.0000000000
     18929       151  OYPE      H16Y          -15.4417982543      -49.9468097714        5.1244008050  MEMB      151             0.0000000000
     18930       151  OYPE      C317          -15.3033634006      -51.8857415369        4.1461321888  MEMB      151             0.0000000000
     18931       151  OYPE      H17X          -15.7538772243      -52.8773419373        4.1076147207  MEMB      151             0.0000000000
     18932       151  OYPE      H17Y          -14.2047449136      -51.8845376160        4.2584178031  MEMB      151             0.0000000000
     18933       151  OYPE      C318          -15.5467543552      -51.3349336243        2.8345686484  MEMB      151             0.0000000000
     18934       151  OYPE      H18X          -16.5836882729      -51.2766846647        2.4770108828  MEMB      151             0.0000000000
     18935       151  OYPE      H18Y          -15.2702624132      -50.3515440628        3.1778822196  MEMB      151             0.0000000000
     18936       151  OYPE      H18Z          -14.8516621721      -51.6477716344        2.0268448920  MEMB      151             0.0000000000
     18937       152  PYPG      C13            24.8965446952       52.5678944564       18.5730846709  MEMB      152             0.0000000000
     18938       152  PYPG      H13A           24.8735301003       51.6463285916       19.1836028227  MEMB      152             0.0000000000
     18939       152  PYPG      H13B           25.1137180064       52.3339304718       17.5072339313  MEMB      152             0.0000000000
     18940       152  PYPG      OC3            25.9925761051       53.3394838428       19.0153204425  MEMB      152             0.0000000000
     18941       152  PYPG      HO3            25.8189418050       54.1908026772       18.6275856600  MEMB      152             0.0000000000
     18942       152  PYPG      C12            23.5319241683       53.2691964977       18.8206815254  MEMB      152             0.0000000000
     18943       152  PYPG      H12A           23.4693126693       54.1773179287       18.1844101340  MEMB      152             0.0000000000
     18944       152  PYPG      OC2            23.4232006934       53.7158502100       20.1754817768  MEMB      152             0.0000000000
     18945       152  PYPG      HO2            22.5070340193       53.9702856282       20.3016043442  MEMB      152             0.0000000000
     18946       152  PYPG      C11            22.3396936826       52.3361066841       18.4692158221  MEMB      152             0.0000000000
     18947       152  PYPG      H11A           22.2818501519       52.2827372430       17.3597518709  MEMB      152             0.0000000000
     18948       152  PYPG      H11B           21.4210632409       52.8076123430       18.9156821313  MEMB      152             0.0000000000
     18949       152  PYPG      P              21.3946235611       49.9785231791       19.0664184319  MEMB      152             0.0000000000
     18950       152  PYPG      O13            20.1254923548       50.7460031848       19.1473513826  MEMB      152             0.0000000000
     18951       152  PYPG      O14            21.7259899554       48.9937888233       20.1122924165  MEMB      152             0.0000000000
     18952       152  PYPG      O11            21.4024966053       49.2785988789       17.6562681138  MEMB      152             0.0000000000
     18953       152  PYPG      O12            22.5751798825       51.0061525861       18.9320599218  MEMB      152             0.0000000000
     18954       152  PYPG      C1             22.6090982280       48.8268234002       17.0542267157  MEMB      152             0.0000000000
     18955       152  PYPG      HA             22.7655837350       47.7459363093       17.2893137090  MEMB      152             0.0000000000
     18956       152  PYPG      HB             23.5161287469       49.4284413783       17.3156370538  MEMB      152             0.0000000000
     18957       152  PYPG      C2             22.4473892291       48.9320107827       15.5407884717  MEMB      152             0.0000000000
     18958       152  PYPG      HS             23.4177624263       48.5815102064       15.0978103059  MEMB      152             0.0000000000
     18959       152  PYPG      O21            22.0973900219       50.2463683100       15.1287148012  MEMB      152             0.0000000000
     18960       152  PYPG      C21            23.0708346464       51.0602310025       14.8586470587  MEMB      152             0.0000000000
     18961       152  PYPG      O22            24.2557918302       50.8341883015       15.0598227086  MEMB      152             0.0000000000
     18962       152  PYPG      C22            22.4780306652       52.3093104801       14.1789700323  MEMB      152             0.0000000000
     18963       152  PYPG      H2R            21.8681812182       52.8269421705       14.9408934685  MEMB      152             0.0000000000
     18964       152  PYPG      H2S            21.7482528382       52.0412269191       13.3851953384  MEMB      152             0.0000000000
     18965       152  PYPG      C3             21.2914731439       48.0501355692       15.1040258037  MEMB      152             0.0000000000
     18966       152  PYPG      HX             20.3228306474       48.4546936745       15.4067263335  MEMB      152             0.0000000000
     18967       152  PYPG      HY             21.4407089520       47.0660454454       15.6408587369  MEMB      152             0.0000000000
     18968       152  PYPG      O31            21.2726870788       47.8721737035       13.6858828736  MEMB      152             0.0000000000
     18969       152  PYPG      C31            20.7548082317       48.6213129048       12.8114060777  MEMB      152             0.0000000000
     18970       152  PYPG      O32            20.4152647218       49.7773212913       12.9849859555  MEMB      152             0.0000000000
     18971       152  PYPG      C32            20.5883575424       47.8245110087       11.4810498048  MEMB      152             0.0000000000
     18972       152  PYPG      H2X            20.1901751320       46.7878556089       11.5594841356  MEMB      152             0.0000000000
     18973       152  PYPG      H2Y            19.8723046985       48.4022867122       10.8666562177  MEMB      152             0.0000000000
     18974       152  PYPG      C23            23.5260031621       53.3433544592       13.6873400902  MEMB      152             0.0000000000
     18975       152  PYPG      H3R            24.0765271603       53.7727638534       14.5521548904  MEMB      152             0.0000000000
     18976       152  PYPG      H3S            22.9542626393       54.1970788584       13.2724735973  MEMB      152             0.0000000000
     18977       152  PYPG      C24            24.4814068198       52.8908575197       12.5689753545  MEMB      152             0.0000000000
     18978       152  PYPG      H4R            25.2405123790       52.2107957060       13.0360112807  MEMB      152             0.0000000000
     18979       152  PYPG      H4S            24.9929196259       53.8065645690       12.1788792992  MEMB      152             0.0000000000
     18980       152  PYPG      C25            23.7759532546       52.2053950315       11.3826953648  MEMB      152             0.0000000000
     18981       152  PYPG      H5R            23.5608993541       51.1607850594       11.6912796895  MEMB      152             0.0000000000
     18982       152  PYPG      H5S            24.4604672969       52.1377283480       10.5127162160  MEMB      152             0.0000000000
     18983       152  PYPG      C26            22.5363711079       52.9212293124       10.8164716611  MEMB      152             0.0000000000
     18984       152  PYPG      H6R            22.6163087971       54.0194669589       11.0147819480  MEMB      152             0.0000000000
     18985       152  PYPG      H6S            21.6295462096       52.5244602540       11.3308989441  MEMB      152             0.0000000000
     18986       152  PYPG      C27            22.4045460721       52.6572503493        9.3017963086  MEMB      152             0.0000000000
     18987       152  PYPG      H7R            22.5281972921       51.5881618969        9.0507511627  MEMB      152             0.0000000000
     18988       152  PYPG      H7S            23.1097231927       53.2702937562        8.7010133826  MEMB      152             0.0000000000
     18989       152  PYPG      C28            21.0385716721       52.9189391686        8.7446848909  MEMB      152             0.0000000000
     18990       152  PYPG      H8R            21.0853698327       54.0164747517        8.5087546452  MEMB      152             0.0000000000
     18991       152  PYPG      H8S            20.3383523968       52.7594391233        9.5969928944  MEMB      152             0.0000000000
     18992       152  PYPG      C29            20.5949420449       52.0598321016        7.5606102340  MEMB      152             0.0000000000
     18993       152  PYPG      H9R            20.1239281390       51.1083310589        7.8283971337  MEMB      152             0.0000000000
     18994       152  PYPG      C210           20.6274142638       52.4418055989        6.2603204440  MEMB      152             0.0000000000
     18995       152  PYPG      H10R           20.1893203095       51.8276214316        5.4762014354  MEMB      152             0.0000000000
     18996       152  PYPG      C211           21.0963650156       53.7457310141        5.6996431924  MEMB      152             0.0000000000
     18997       152  PYPG      H11R           22.0489766542       54.1794307849        6.0081689481  MEMB      152             0.0000000000
     18998       152  PYPG      H11S           20.5521977328       54.4138959021        6.1845359354  MEMB      152             0.0000000000
     18999       152  PYPG      C212           20.7552869105       53.9330965878        4.2398053474  MEMB      152             0.0000000000
     19000       152  PYPG      H12R           20.5983072467       54.9144874269        3.8655685408  MEMB      152             0.0000000000
     19001       152  PYPG      H12S           19.6816460819       53.7695790781        4.0381121209  MEMB      152             0.0000000000
     19002       152  PYPG      C213           21.5860551148       53.1295686534        3.4546848445  MEMB      152             0.0000000000
     19003       152  PYPG      H13R           21.0562755290       52.2042407836        3.2892456191  MEMB      152             0.0000000000
     19004       152  PYPG      H13S           22.5642406411       53.0997340372        3.9077618337  MEMB      152             0.0000000000
     19005       152  PYPG      C214           21.6310582345       53.5178696262        2.1514690930  MEMB      152             0.0000000000
     19006       152  PYPG      H14R           22.3680588702       54.4725088397        2.2350704349  MEMB      152             0.0000000000
     19007       152  PYPG      H14S           22.2968771906       53.1372224903        1.4022419346  MEMB      152             0.0000000000
     19008       152  PYPG      C215           20.0178335255       53.3603883761        1.4154764411  MEMB      152             0.0000000000
     19009       152  PYPG      H15R           20.0248468269       53.6497492338        0.1494178335  MEMB      152             0.0000000000
     19010       152  PYPG      H15S           19.2268717854       54.0984944874        1.8827950842  MEMB      152             0.0000000000
     19011       152  PYPG      C216           19.5880218212       52.3102249744        0.8995328429  MEMB      152             0.0000000000
     19012       152  PYPG      H16R           18.6780542926       52.6218786656        0.3556548357  MEMB      152             0.0000000000
     19013       152  PYPG      H16S           19.4341442266       51.8971673240        1.8694082652  MEMB      152             0.0000000000
     19014       152  PYPG      H16T           20.4478984380       52.0125168138        0.2351711429  MEMB      152             0.0000000000
     19015       152  PYPG      C33            21.9363402093       47.7483065827       10.7562106807  MEMB      152             0.0000000000
     19016       152  PYPG      H3X            22.7342910293       47.2264465301       11.2605640904  MEMB      152             0.0000000000
     19017       152  PYPG      H3Y            22.5019718580       48.6429424164       10.8853325746  MEMB      152             0.0000000000
     19018       152  PYPG      C34            21.8850264218       47.1944629882        9.3609428963  MEMB      152             0.0000000000
     19019       152  PYPG      H4X            21.2586007531       46.2655336778        9.3833689819  MEMB      152             0.0000000000
     19020       152  PYPG      H4Y            22.9182918288       46.9758911461        9.0017414670  MEMB      152             0.0000000000
     19021       152  PYPG      C35            21.2601940646       48.1426730455        8.4019567315  MEMB      152             0.0000000000
     19022       152  PYPG      H5X            21.6730880697       49.1553329315        8.4973321565  MEMB      152             0.0000000000
     19023       152  PYPG      H5Y            20.1983623441       48.2548523320        8.7349803754  MEMB      152             0.0000000000
     19024       152  PYPG      C36            21.3652922305       47.6660402662        6.9695226935  MEMB      152             0.0000000000
     19025       152  PYPG      H6X            21.2122135857       46.5720520964        6.9597668866  MEMB      152             0.0000000000
     19026       152  PYPG      H6Y            22.3415251570       47.7832074276        6.4686434281  MEMB      152             0.0000000000
     19027       152  PYPG      C37            20.2907703300       48.5363442216        6.3751074242  MEMB      152             0.0000000000
     19028       152  PYPG      H7X            19.3993919459       48.5621994589        7.0110944457  MEMB      152             0.0000000000
     19029       152  PYPG      H7Y            20.5521314673       49.3365118451        5.6890408032  MEMB      152             0.0000000000
     19030       152  PYPG      C38            19.5481591317       47.9962848401        5.4647095248  MEMB      152             0.0000000000
     19031       152  PYPG      H8X            19.2453249795       47.1809578191        5.9953407592  MEMB      152             0.0000000000
     19032       152  PYPG      H8Y            20.5136398766       47.6762442380        4.8853988212  MEMB      152             0.0000000000
     19033       152  PYPG      C39            18.1056288396       48.3876128187        4.7718211453  MEMB      152             0.0000000000
     19034       152  PYPG      H9X            18.6359844978       49.1212723562        4.1718969351  MEMB      152             0.0000000000
     19035       152  PYPG      H9Y            17.4398112652       48.3263816952        5.5914497638  MEMB      152             0.0000000000
     19036       152  PYPG      C310           17.2486091687       47.6142674319        3.7323121177  MEMB      152             0.0000000000
     19037       152  PYPG      H10X           16.2310282170       47.7476323923        3.3884261938  MEMB      152             0.0000000000
     19038       152  PYPG      H10Y           17.1255635094       46.5657612156        4.1205699454  MEMB      152             0.0000000000
     19039       152  PYPG      C311           17.9509661770       47.7944692265        2.3950436449  MEMB      152             0.0000000000
     19040       152  PYPG      H11X           17.2061415020       46.9429015275        2.1381808617  MEMB      152             0.0000000000
     19041       152  PYPG      H11Y           19.2551510654       47.5295146288        2.2474516883  MEMB      152             0.0000000000
     19042       152  PYPG      C312           18.2925823387       48.9055722785        1.4366774579  MEMB      152             0.0000000000
     19043       152  PYPG      H12X           17.3002171959       49.2758161241        1.5285216702  MEMB      152             0.0000000000
     19044       152  PYPG      H12Y           19.1800120642       49.1421285682        2.0302267749  MEMB      152             0.0000000000
     19045       152  PYPG      C313           18.7584533340       48.6504028086       -0.1443196067  MEMB      152             0.0000000000
     19046       152  PYPG      H13X           19.6878021408       47.9968778704       -0.3905327209  MEMB      152             0.0000000000
     19047       152  PYPG      H13Y           17.9450491521       48.2153768427       -0.8106809460  MEMB      152             0.0000000000
     19048       152  PYPG      C314           19.3194264776       49.6249202201       -0.5665943572  MEMB      152             0.0000000000
     19049       152  PYPG      H14X           18.4324192052       49.9607280423       -0.1492481458  MEMB      152             0.0000000000
     19050       152  PYPG      H14Y           19.9339322548       50.2478623344       -0.0245527435  MEMB      152             0.0000000000
     19051       152  PYPG      C315           19.4692025501       49.4239859619       -1.9138102780  MEMB      152             0.0000000000
     19052       152  PYPG      H15X           20.1821029054       48.6881893987       -2.1118257996  MEMB      152             0.0000000000
     19053       152  PYPG      H15Y           18.6246388225       49.0542000086       -2.6272534547  MEMB      152             0.0000000000
     19054       152  PYPG      C316           19.8379354321       50.9048572489       -2.0329710349  MEMB      152             0.0000000000
     19055       152  PYPG      H16X           19.1143507493       50.8658108553       -2.4894256825  MEMB      152             0.0000000000
     19056       152  PYPG      H16Y           20.4952340203       51.2714601929       -2.8365310936  MEMB      152             0.0000000000
     19057       152  PYPG      H16Z           20.3483370209       51.7388471368       -1.8307329679  MEMB      152             0.0000000000
     19058       153  PMPE      N              51.2739799689      -16.2828580943       18.0376521064  MEMB      153             0.0000000000
     19059       153  PMPE      HN1            51.8482720988      -17.0276175850       17.6166824287  MEMB      153             0.0000000000
     19060       153  PMPE      HN2            51.1844020361      -16.5016783037       19.0636038596  MEMB      153             0.0000000000
     19061       153  PMPE      HN3            50.3040555086      -16.2234825601       17.6208720892  MEMB      153             0.0000000000
     19062       153  PMPE      C12            51.8823657213      -14.9391208266       18.0738199064  MEMB      153             0.0000000000
     19063       153  PMPE      H12A           51.1112863533      -14.1818727030       18.3154936626  MEMB      153             0.0000000000
     19064       153  PMPE      H12B           52.2401078173      -14.7318713363       17.0541430208  MEMB      153             0.0000000000
     19065       153  PMPE      C11            52.9975613520      -14.9986452015       19.1045012345  MEMB      153             0.0000000000
     19066       153  PMPE      H11A           52.6475541090      -15.3379045534       20.1135913937  MEMB      153             0.0000000000
     19067       153  PMPE      H11B           53.4430506694      -13.9861174131       19.1614413786  MEMB      153             0.0000000000
     19068       153  PMPE      P              55.2359986289      -16.3541050038       19.4518462063  MEMB      153             0.0000000000
     19069       153  PMPE      O13            55.1981788570      -17.8286136682       19.5844866623  MEMB      153             0.0000000000
     19070       153  PMPE      O14            55.3290979896      -15.5587504503       20.6926861229  MEMB      153             0.0000000000
     19071       153  PMPE      O11            56.3802077926      -15.9103498537       18.4236855861  MEMB      153             0.0000000000
     19072       153  PMPE      O12            53.9646655233      -15.8956748584       18.6144625959  MEMB      153             0.0000000000
     19073       153  PMPE      C1             56.5480254814      -16.7955512939       17.2978350551  MEMB      153             0.0000000000
     19074       153  PMPE      HA             55.5654554902      -17.1251784873       16.8781548881  MEMB      153             0.0000000000
     19075       153  PMPE      HB             57.1377107694      -17.6926392973       17.5909401625  MEMB      153             0.0000000000
     19076       153  PMPE      C2             57.3594381521      -16.1590711394       16.1579279969  MEMB      153             0.0000000000
     19077       153  PMPE      HS             58.3899935389      -16.0017235319       16.5682574039  MEMB      153             0.0000000000
     19078       153  PMPE      O21            56.7116808830      -14.9309816133       15.7985686590  MEMB      153             0.0000000000
     19079       153  PMPE      C21            57.4434847252      -13.9906098184       15.2764329524  MEMB      153             0.0000000000
     19080       153  PMPE      O22            58.6606232827      -13.9327644289       15.2556139750  MEMB      153             0.0000000000
     19081       153  PMPE      C22            56.4724151242      -12.9560572134       14.7287277288  MEMB      153             0.0000000000
     19082       153  PMPE      H2R            55.8765548606      -12.4468339533       15.5267012436  MEMB      153             0.0000000000
     19083       153  PMPE      H2S            55.8359385752      -13.4173216831       13.9740859163  MEMB      153             0.0000000000
     19084       153  PMPE      C3             57.3791043974      -17.1189892694       14.9398391298  MEMB      153             0.0000000000
     19085       153  PMPE      HX             57.8565154251      -18.0961075536       15.2151997818  MEMB      153             0.0000000000
     19086       153  PMPE      HY             58.0318671065      -16.6377882496       14.1679124757  MEMB      153             0.0000000000
     19087       153  PMPE      O31            56.0628833838      -17.4907651519       14.4664998248  MEMB      153             0.0000000000
     19088       153  PMPE      C31            55.6124698718      -16.9175408930       13.3527045225  MEMB      153             0.0000000000
     19089       153  PMPE      O32            56.1306172074      -15.9663118541       12.7991963780  MEMB      153             0.0000000000
     19090       153  PMPE      C32            54.4152186990      -17.7132016861       12.7606164444  MEMB      153             0.0000000000
     19091       153  PMPE      H2X            53.5248566229      -17.5287705024       13.3856829372  MEMB      153             0.0000000000
     19092       153  PMPE      H2Y            54.6377752094      -18.8040941805       12.8240581111  MEMB      153             0.0000000000
     19093       153  PMPE      C23            57.1551058151      -11.9951707333       13.8600064267  MEMB      153             0.0000000000
     19094       153  PMPE      H3R            58.1353703544      -11.8971438181       14.3519447016  MEMB      153             0.0000000000
     19095       153  PMPE      H3S            56.4798507501      -11.1130819183       13.9419535099  MEMB      153             0.0000000000
     19096       153  PMPE      C24            57.3103450427      -12.1956361154       12.3880023779  MEMB      153             0.0000000000
     19097       153  PMPE      H4R            57.3809435846      -11.1619332959       11.8714614310  MEMB      153             0.0000000000
     19098       153  PMPE      H4S            56.6856092648      -12.3957814157       11.6871397367  MEMB      153             0.0000000000
     19099       153  PMPE      C25            58.3095335431      -13.2524522707       11.9870509276  MEMB      153             0.0000000000
     19100       153  PMPE      H5R            57.9341251036      -14.1758286946       12.3585282172  MEMB      153             0.0000000000
     19101       153  PMPE      H5S            59.2316000989      -13.1826534422       12.5580257007  MEMB      153             0.0000000000
     19102       153  PMPE      C26            58.3997577793      -13.3409812529       10.4857570088  MEMB      153             0.0000000000
     19103       153  PMPE      H6R            59.3769343360      -13.6636384692       10.0579224266  MEMB      153             0.0000000000
     19104       153  PMPE      H6S            58.1861743338      -12.3196170454       10.0518037681  MEMB      153             0.0000000000
     19105       153  PMPE      C27            57.4526906454      -14.1344378954        9.8224688270  MEMB      153             0.0000000000
     19106       153  PMPE      H7R            56.7445549642      -13.4536325542       10.1869822318  MEMB      153             0.0000000000
     19107       153  PMPE      H7S            57.2832525149      -15.0489326252       10.3427098770  MEMB      153             0.0000000000
     19108       153  PMPE      C28            57.8505094361      -14.3078144653        8.3962081339  MEMB      153             0.0000000000
     19109       153  PMPE      H8R            58.7246535066      -14.7811026289        8.1687481342  MEMB      153             0.0000000000
     19110       153  PMPE      H8S            58.2564532456      -13.3528488998        8.0102500447  MEMB      153             0.0000000000
     19111       153  PMPE      C29            56.9217294174      -15.2639821354        7.7461246223  MEMB      153             0.0000000000
     19112       153  PMPE      H9R            56.3554575813      -16.0362213816        8.1705302937  MEMB      153             0.0000000000
     19113       153  PMPE      C217           56.9486747242      -15.3258580130        6.2985642465  MEMB      153             0.0000000000
     19114       153  PMPE      H17R           56.3063801230      -15.7078693848        5.5004771736  MEMB      153             0.0000000000
     19115       153  PMPE      H17S           57.5782484303      -14.5730548248        5.9262644254  MEMB      153             0.0000000000
     19116       153  PMPE      C210           55.9712194663      -14.6135385413        7.3806082778  MEMB      153             0.0000000000
     19117       153  PMPE      H10R           54.8849355800      -15.1398921849        7.2154645106  MEMB      153             0.0000000000
     19118       153  PMPE      C211           56.4041364695      -12.8861787630        7.3170070427  MEMB      153             0.0000000000
     19119       153  PMPE      H11R           56.2951600138      -11.8961712645        6.6324385071  MEMB      153             0.0000000000
     19120       153  PMPE      H11S           56.3180025357      -12.8995840187        8.1031931919  MEMB      153             0.0000000000
     19121       153  PMPE      C212           53.3301536957      -11.8564464755        6.4395562940  MEMB      153             0.0000000000
     19122       153  PMPE      H12R           53.4986276684      -10.8594452224        6.5051307592  MEMB      153             0.0000000000
     19123       153  PMPE      H12S           53.1597911822      -12.6171951180        7.2931786728  MEMB      153             0.0000000000
     19124       153  PMPE      C213           53.0238154626      -12.3092025077        4.8520548896  MEMB      153             0.0000000000
     19125       153  PMPE      H13R           52.1933359745      -12.6067011485        5.2099266119  MEMB      153             0.0000000000
     19126       153  PMPE      H13S           53.4425617564      -13.3467495711        4.3211860549  MEMB      153             0.0000000000
     19127       153  PMPE      C214           53.7469143044      -11.3036470767        4.3114117717  MEMB      153             0.0000000000
     19128       153  PMPE      H14R           54.8368583729      -11.4883782838        4.4381705803  MEMB      153             0.0000000000
     19129       153  PMPE      H14S           53.7431038797      -10.3455871163        4.7569067122  MEMB      153             0.0000000000
     19130       153  PMPE      C215           52.9880353854      -11.6304600973        3.0661247970  MEMB      153             0.0000000000
     19131       153  PMPE      H15R           53.3848346653      -12.5850238083        2.6570397536  MEMB      153             0.0000000000
     19132       153  PMPE      H15S           53.1161829082      -11.1100565578        2.0576733916  MEMB      153             0.0000000000
     19133       153  PMPE      C216           51.6922309349      -11.5393298665        3.0552273361  MEMB      153             0.0000000000
     19134       153  PMPE      H16R           51.5409612773      -11.0987179058        2.2022284938  MEMB      153             0.0000000000
     19135       153  PMPE      H16S           51.3707347190      -12.5490292848        2.9011167680  MEMB      153             0.0000000000
     19136       153  PMPE      H16T           51.3519406196      -10.7731295297        3.7014488944  MEMB      153             0.0000000000
     19137       153  PMPE      C33            54.0894257534      -17.3067246413       11.2771169216  MEMB      153             0.0000000000
     19138       153  PMPE      H3X            54.9859450683      -17.5871379543       10.6858020673  MEMB      153             0.0000000000
     19139       153  PMPE      H3Y            54.0294436867      -16.2072252250       11.1210635548  MEMB      153             0.0000000000
     19140       153  PMPE      C34            52.8455640724      -18.0057078926       10.6620934499  MEMB      153             0.0000000000
     19141       153  PMPE      H4X            51.8918430164      -17.7314015207       11.1506895406  MEMB      153             0.0000000000
     19142       153  PMPE      H4Y            52.9611178097      -19.0888993254       10.8924101841  MEMB      153             0.0000000000
     19143       153  PMPE      C35            52.7555122268      -17.9058576198        9.1191256843  MEMB      153             0.0000000000
     19144       153  PMPE      H5X            52.9335446022      -18.9291282631        8.8251301086  MEMB      153             0.0000000000
     19145       153  PMPE      H5Y            53.6253700735      -17.3427881321        8.7495404563  MEMB      153             0.0000000000
     19146       153  PMPE      C36            51.4224922470      -17.3772915721        8.4975186916  MEMB      153             0.0000000000
     19147       153  PMPE      H6X            51.4284386371      -16.2856655873        8.5136594272  MEMB      153             0.0000000000
     19148       153  PMPE      H6Y            50.5961240151      -17.8051676338        9.0656173465  MEMB      153             0.0000000000
     19149       153  PMPE      C37            51.0400148256      -17.6180588443        7.0552778452  MEMB      153             0.0000000000
     19150       153  PMPE      H7X            50.1580921434      -17.1784881741        6.6137417055  MEMB      153             0.0000000000
     19151       153  PMPE      H7Y            50.6230334320      -18.6933655769        7.0535152017  MEMB      153             0.0000000000
     19152       153  PMPE      C38            52.4029053381      -17.2040970426        6.1778424152  MEMB      153             0.0000000000
     19153       153  PMPE      H8X            53.2157225890      -17.8336574761        6.7199277791  MEMB      153             0.0000000000
     19154       153  PMPE      H8Y            52.7151088538      -16.3581428037        5.8627100086  MEMB      153             0.0000000000
     19155       153  PMPE      C39            52.4077975685      -17.3481087916        4.3588464811  MEMB      153             0.0000000000
     19156       153  PMPE      H9X            51.3967117357      -17.4299447917        4.7192694633  MEMB      153             0.0000000000
     19157       153  PMPE      H9Y            52.6176265801      -18.5368840208        3.4878868666  MEMB      153             0.0000000000
     19158       153  PMPE      C310           53.2567063220      -17.2554907300        3.2813127119  MEMB      153             0.0000000000
     19159       153  PMPE      H10X           54.1819828714      -17.7112188708        3.6608496123  MEMB      153             0.0000000000
     19160       153  PMPE      H10Y           52.9880515967      -16.3401763659        3.6693634050  MEMB      153             0.0000000000
     19161       153  PMPE      C311           52.6856775399      -17.5648291427        1.9151169058  MEMB      153             0.0000000000
     19162       153  PMPE      H11X           51.7617704800      -17.9472957360        1.5755111640  MEMB      153             0.0000000000
     19163       153  PMPE      H11Y           53.1367766352      -18.4082378739        1.6891211005  MEMB      153             0.0000000000
     19164       153  PMPE      C312           52.8431217530      -16.5522525064        1.0792865384  MEMB      153             0.0000000000
     19165       153  PMPE      H12X           53.8445458794      -16.2551759295        1.3995236012  MEMB      153             0.0000000000
     19166       153  PMPE      H12Y           52.0375958791      -15.8381788103        1.2987310696  MEMB      153             0.0000000000
     19167       153  PMPE      C313           52.7179216204      -16.9299155820       -0.3190574972  MEMB      153             0.0000000000
     19168       153  PMPE      H13X           51.7501736192      -17.2659871866       -0.5691374644  MEMB      153             0.0000000000
     19169       153  PMPE      H13Y           53.4328853063      -17.5547636754       -0.7779401363  MEMB      153             0.0000000000
     19170       153  PMPE      C314           52.8810078146      -15.7617506286       -1.0398645471  MEMB      153             0.0000000000
     19171       153  PMPE      H14X           51.9524859145      -15.3438719935       -0.7620127054  MEMB      153             0.0000000000
     19172       153  PMPE      H14Y           52.9630689853      -15.9989104297       -2.1025178163  MEMB      153             0.0000000000
     19173       153  PMPE      C315           53.8577211203      -14.8432714568       -0.5419149407  MEMB      153             0.0000000000
     19174       153  PMPE      H15X           53.7538971768      -14.4487197544        0.4758674980  MEMB      153             0.0000000000
     19175       153  PMPE      H15Y           53.6964634917      -14.0653246231       -1.1311604533  MEMB      153             0.0000000000
     19176       153  PMPE      C316           55.0420001864      -15.5093585959       -0.9408717896  MEMB      153             0.0000000000
     19177       153  PMPE      H16X           55.2804536776      -16.4589519346       -0.5436253628  MEMB      153             0.0000000000
     19178       153  PMPE      H16Y           55.7079844260      -15.2484910116       -0.1547045344  MEMB      153             0.0000000000
     19179       153  PMPE      H16Z           55.4451824455      -15.1789185617       -1.9345221505  MEMB      153             0.0000000000
     19180       154  OYPE      N             -32.2560613379       43.7157455613       21.0847146668  MEMB      154             0.0000000000
     19181       154  OYPE      HN1           -31.6318298538       43.7912632207       20.2528155341  MEMB      154             0.0000000000
     19182       154  OYPE      HN2           -31.7187231398       43.9873284256       21.9241275072  MEMB      154             0.0000000000
     19183       154  OYPE      HN3           -32.6183918121       42.7463950912       21.1645435563  MEMB      154             0.0000000000
     19184       154  OYPE      C12           -33.4610955555       44.5970799248       20.9156981644  MEMB      154             0.0000000000
     19185       154  OYPE      H12A          -33.9897206440       44.6955246273       21.8755086097  MEMB      154             0.0000000000
     19186       154  OYPE      H12B          -34.1264341250       44.0467340201       20.2241926167  MEMB      154             0.0000000000
     19187       154  OYPE      C11           -33.1061001857       45.9863416599       20.4110142334  MEMB      154             0.0000000000
     19188       154  OYPE      H11A          -32.3261264745       46.4559139779       21.0232741610  MEMB      154             0.0000000000
     19189       154  OYPE      H11B          -33.9517787624       46.6761564246       20.4869307784  MEMB      154             0.0000000000
     19190       154  OYPE      P             -33.7004756895       46.0133702848       17.8669980228  MEMB      154             0.0000000000
     19191       154  OYPE      O13           -33.0580247037       46.9179419396       16.8955224037  MEMB      154             0.0000000000
     19192       154  OYPE      O14           -35.0593667393       46.2745077949       18.3768836313  MEMB      154             0.0000000000
     19193       154  OYPE      O11           -33.6502477915       44.5194663085       17.3385537497  MEMB      154             0.0000000000
     19194       154  OYPE      O12           -32.6773480093       45.8944135832       19.0798625183  MEMB      154             0.0000000000
     19195       154  OYPE      C1            -32.4863347734       43.7016944668       17.4121058489  MEMB      154             0.0000000000
     19196       154  OYPE      HA            -32.4748427385       43.1588019906       18.3815575198  MEMB      154             0.0000000000
     19197       154  OYPE      HB            -31.5505273922       44.3050549227       17.3029997097  MEMB      154             0.0000000000
     19198       154  OYPE      C2            -32.5520985269       42.5472357511       16.3731353816  MEMB      154             0.0000000000
     19199       154  OYPE      HS            -31.5720083153       42.0126192892       16.3656382522  MEMB      154             0.0000000000
     19200       154  OYPE      O21           -32.8189398903       43.0426938540       15.0461659633  MEMB      154             0.0000000000
     19201       154  OYPE      C21           -31.8122225198       43.5816112308       14.4283128574  MEMB      154             0.0000000000
     19202       154  OYPE      O22           -30.6718765324       43.6784154995       14.8483884793  MEMB      154             0.0000000000
     19203       154  OYPE      C22           -32.2847121182       44.0378199988       13.0566667852  MEMB      154             0.0000000000
     19204       154  OYPE      H2R           -32.4510671963       45.1198556844       13.1233045556  MEMB      154             0.0000000000
     19205       154  OYPE      H2S           -33.1994713865       43.4972522532       12.7015802164  MEMB      154             0.0000000000
     19206       154  OYPE      C3            -33.7144143494       41.5589337037       16.7505584565  MEMB      154             0.0000000000
     19207       154  OYPE      HX            -33.8845773402       41.3391857918       17.8346230209  MEMB      154             0.0000000000
     19208       154  OYPE      HY            -33.4689344326       40.5725892044       16.3110288774  MEMB      154             0.0000000000
     19209       154  OYPE      O31           -34.9013361501       41.9937950891       16.0762449916  MEMB      154             0.0000000000
     19210       154  OYPE      C31           -35.8473234425       42.6347793663       16.7360193151  MEMB      154             0.0000000000
     19211       154  OYPE      O32           -35.9459137129       42.7028338050       17.9439214469  MEMB      154             0.0000000000
     19212       154  OYPE      C32           -36.8484250168       43.1827844943       15.7350495227  MEMB      154             0.0000000000
     19213       154  OYPE      H2X           -37.0236782604       42.3749760597       15.0661974727  MEMB      154             0.0000000000
     19214       154  OYPE      H2Y           -37.8135319546       43.5081716064       16.1604549600  MEMB      154             0.0000000000
     19215       154  OYPE      C23           -31.1319486848       43.9581699225       12.1288952694  MEMB      154             0.0000000000
     19216       154  OYPE      H3R           -30.1813517415       44.3884714028       12.4887576613  MEMB      154             0.0000000000
     19217       154  OYPE      H3S           -31.3939278300       44.5767789625       11.2050853912  MEMB      154             0.0000000000
     19218       154  OYPE      C24           -30.9630592437       42.4302157841       11.9022947182  MEMB      154             0.0000000000
     19219       154  OYPE      H4R           -31.8589872763       42.1450675579       11.2477839569  MEMB      154             0.0000000000
     19220       154  OYPE      H4S           -30.7770002269       41.7824888458       12.6716052308  MEMB      154             0.0000000000
     19221       154  OYPE      C25           -29.6813891258       42.0924016775       11.2464042912  MEMB      154             0.0000000000
     19222       154  OYPE      H5R           -29.5344045855       41.1084042500       10.6707469318  MEMB      154             0.0000000000
     19223       154  OYPE      H5S           -28.7928449631       42.6392637482       11.6342832365  MEMB      154             0.0000000000
     19224       154  OYPE      C26           -29.3907793103       42.7927323791       10.3541950625  MEMB      154             0.0000000000
     19225       154  OYPE      H6R           -28.9832691159       43.9742221757       10.4547461224  MEMB      154             0.0000000000
     19226       154  OYPE      H6S           -30.7060772150       43.0934026048       10.2526411139  MEMB      154             0.0000000000
     19227       154  OYPE      C27           -28.7330813363       41.6925282659        8.5551173644  MEMB      154             0.0000000000
     19228       154  OYPE      H7R           -28.9127463179       41.1221831169        7.9018629274  MEMB      154             0.0000000000
     19229       154  OYPE      H7S           -27.8083450914       41.3958079712        8.7369655092  MEMB      154             0.0000000000
     19230       154  OYPE      C28           -28.6185121652       43.1937442808        6.8172018613  MEMB      154             0.0000000000
     19231       154  OYPE      H8R           -28.2773616988       44.2200492161        6.7976579391  MEMB      154             0.0000000000
     19232       154  OYPE      H8S           -29.3389218539       44.2188283471        7.0435537008  MEMB      154             0.0000000000
     19233       154  OYPE      C29           -28.1690280073       42.2887558348        5.7219460075  MEMB      154             0.0000000000
     19234       154  OYPE      H9R           -27.3812260810       42.8653262658        5.2558685990  MEMB      154             0.0000000000
     19235       154  OYPE      C210          -28.7103138224       41.1664661050        5.1472221151  MEMB      154             0.0000000000
     19236       154  OYPE      H10R          -28.2599994897       40.8652849123        4.2584235503  MEMB      154             0.0000000000
     19237       154  OYPE      C211          -30.0781366094       40.2497562603        5.2211992755  MEMB      154             0.0000000000
     19238       154  OYPE      H11R          -30.6712200820       40.4383830546        6.0999489386  MEMB      154             0.0000000000
     19239       154  OYPE      H11S          -30.0933840002       39.3324046172        5.6398767683  MEMB      154             0.0000000000
     19240       154  OYPE      C212          -31.3245462771       40.1664270694        3.9537566064  MEMB      154             0.0000000000
     19241       154  OYPE      H12R          -31.4687486891       41.0727127754        3.1545498234  MEMB      154             0.0000000000
     19242       154  OYPE      H12S          -32.3359379810       40.4030541745        4.3519045235  MEMB      154             0.0000000000
     19243       154  OYPE      C213          -30.6945230704       39.8842971830        2.6794645037  MEMB      154             0.0000000000
     19244       154  OYPE      H13R          -31.0766574153       38.9099411391        2.8371290064  MEMB      154             0.0000000000
     19245       154  OYPE      H13S          -29.6076756269       40.0261528369        2.8703026663  MEMB      154             0.0000000000
     19246       154  OYPE      C214          -31.1861903411       40.5347060526        1.3621900955  MEMB      154             0.0000000000
     19247       154  OYPE      H14R          -30.5255021992       41.2212622330        0.8112827186  MEMB      154             0.0000000000
     19248       154  OYPE      H14S          -32.1310467431       41.1187899494        1.5093838975  MEMB      154             0.0000000000
     19249       154  OYPE      C215          -31.0255238455       39.7166667085        0.2870677260  MEMB      154             0.0000000000
     19250       154  OYPE      H15R          -31.3458214300       40.3822101477       -0.5693806375  MEMB      154             0.0000000000
     19251       154  OYPE      H15S          -31.8721066573       39.0637792453        0.4918747235  MEMB      154             0.0000000000
     19252       154  OYPE      C216          -29.6000339420       39.0961348762        0.2138614961  MEMB      154             0.0000000000
     19253       154  OYPE      H16R          -29.4866342058       38.1752331402       -0.3549203084  MEMB      154             0.0000000000
     19254       154  OYPE      H16S          -29.2328430952       38.4400327213        0.9644430076  MEMB      154             0.0000000000
     19255       154  OYPE      H16T          -28.8564079283       39.8003065165       -0.1857563184  MEMB      154             0.0000000000
     19256       154  OYPE      C33           -36.2851273908       44.0475378365       14.6262629133  MEMB      154             0.0000000000
     19257       154  OYPE      H3X           -35.3515454036       43.5985965751       14.2143578494  MEMB      154             0.0000000000
     19258       154  OYPE      H3Y           -36.1936402896       45.0896393944       14.9824636624  MEMB      154             0.0000000000
     19259       154  OYPE      C34           -37.2010871348       44.0467247797       13.4473162627  MEMB      154             0.0000000000
     19260       154  OYPE      H4X           -37.1410857806       43.0911917661       12.8715569103  MEMB      154             0.0000000000
     19261       154  OYPE      H4Y           -38.2115681370       44.1323816095       13.9352916375  MEMB      154             0.0000000000
     19262       154  OYPE      C35           -36.9405597467       45.2544319505       12.5226345094  MEMB      154             0.0000000000
     19263       154  OYPE      H5X           -37.1672656167       46.1536757032       13.1366851437  MEMB      154             0.0000000000
     19264       154  OYPE      H5Y           -37.6338076451       45.2061011719       11.6668463888  MEMB      154             0.0000000000
     19265       154  OYPE      C36           -35.5467480253       45.2938194436       11.8951542678  MEMB      154             0.0000000000
     19266       154  OYPE      H6X           -34.8366270700       45.1449565212       12.7319659106  MEMB      154             0.0000000000
     19267       154  OYPE      H6Y           -35.4788162097       44.4164154798       11.2185763737  MEMB      154             0.0000000000
     19268       154  OYPE      C37           -35.2545608234       46.5707921429       11.0739731720  MEMB      154             0.0000000000
     19269       154  OYPE      H7X           -36.0363069984       46.6464326139       10.2777804725  MEMB      154             0.0000000000
     19270       154  OYPE      H7Y           -35.3680512985       47.4384769013       11.7539395758  MEMB      154             0.0000000000
     19271       154  OYPE      C38           -33.8210770615       46.7015315452       10.5127045554  MEMB      154             0.0000000000
     19272       154  OYPE      H8X           -33.6442921589       47.7449684523       10.1677434868  MEMB      154             0.0000000000
     19273       154  OYPE      H8Y           -33.1214867317       46.6346047223       11.3694836147  MEMB      154             0.0000000000
     19274       154  OYPE      C39           -33.6015353346       45.6347089903        9.4624169880  MEMB      154             0.0000000000
     19275       154  OYPE      H9X           -33.0847738167       44.7202048911        9.7779393553  MEMB      154             0.0000000000
     19276       154  OYPE      C310          -33.8990817434       45.6992579593        8.1672050923  MEMB      154             0.0000000000
     19277       154  OYPE      H10X          -33.8451123156       44.7722059502        7.5907654782  MEMB      154             0.0000000000
     19278       154  OYPE      C311          -34.5042359423       46.8308403806        7.4448084554  MEMB      154             0.0000000000
     19279       154  OYPE      H11X          -35.5346755973       46.5536349771        7.0788450781  MEMB      154             0.0000000000
     19280       154  OYPE      H11Y          -34.7462769197       47.6973960590        8.1006587581  MEMB      154             0.0000000000
     19281       154  OYPE      C312          -33.5176613235       47.2299176318        6.3147281987  MEMB      154             0.0000000000
     19282       154  OYPE      H12X          -33.7748650504       48.3463283160        6.3755821281  MEMB      154             0.0000000000
     19283       154  OYPE      H12Y          -33.7282758248       46.6951083505        5.3407408238  MEMB      154             0.0000000000
     19284       154  OYPE      C313          -32.1145808351       47.6059975940        6.3318142749  MEMB      154             0.0000000000
     19285       154  OYPE      H13X          -32.0977563268       48.5232309422        6.9142020447  MEMB      154             0.0000000000
     19286       154  OYPE      H13Y          -31.7420408447       46.8461678908        6.9680549979  MEMB      154             0.0000000000
     19287       154  OYPE      C314          -31.5503476807       47.6034263433        5.0068649245  MEMB      154             0.0000000000
     19288       154  OYPE      H14X          -32.3936187899       46.2470949500        5.0522052453  MEMB      154             0.0000000000
     19289       154  OYPE      H14Y          -31.6746356323       48.3491485560        4.2797197961  MEMB      154             0.0000000000
     19290       154  OYPE      C315          -31.4186435741       46.3542629415        4.1907942655  MEMB      154             0.0000000000
     19291       154  OYPE      H15X          -32.2996227400       46.0670188637        3.3833694767  MEMB      154             0.0000000000
     19292       154  OYPE      H15Y          -31.0911513170       45.5282104511        4.8937897455  MEMB      154             0.0000000000
     19293       154  OYPE      C316          -30.4932850844       46.5776615798        3.1590519118  MEMB      154             0.0000000000
     19294       154  OYPE      H16X          -29.7630725992       46.7283262541        3.7929085889  MEMB      154             0.0000000000
     19295       154  OYPE      H16Y          -30.4955990523       47.4441178330        2.5226676767  MEMB      154             0.0000000000
     19296       154  OYPE      C317          -30.2461405784       45.5278586510        2.4334831498  MEMB      154             0.0000000000
     19297       154  OYPE      H17X          -29.4133928304       44.9192080842        2.8073744971  MEMB      154             0.0000000000
     19298       154  OYPE      H17Y          -29.4008196709       45.6564228563        2.1166946878  MEMB      154             0.0000000000
     19299       154  OYPE      C318          -31.3760365837       45.0535238218        1.4122927238  MEMB      154             0.0000000000
     19300       154  OYPE      H18X          -31.8892361570       45.9134555316        1.1059274914  MEMB      154             0.0000000000
     19301       154  OYPE      H18Y          -30.9382929991       44.5669089419        0.4175026847  MEMB      154             0.0000000000
     19302       154  OYPE      H18Z          -31.8615490132       44.3077135592        1.9043892376  MEMB      154             0.0000000000
     19303       155  QMPE      N              54.9685459573       19.7633879522       18.5494803121  MEMB      155             0.0000000000
     19304       155  QMPE      HN1            55.1556247307       20.5613358442       17.9092602490  MEMB      155             0.0000000000
     19305       155  QMPE      HN2            55.8102138326       19.5050499217       19.0926625537  MEMB      155             0.0000000000
     19306       155  QMPE      HN3            54.6567643102       18.9533577705       17.9840223588  MEMB      155             0.0000000000
     19307       155  QMPE      C12            53.8788119352       20.2759163971       19.4401208393  MEMB      155             0.0000000000
     19308       155  QMPE      H12A           54.2970375597       20.9997185840       20.1460094347  MEMB      155             0.0000000000
     19309       155  QMPE      H12B           53.4366115397       19.4191380717       19.9829319232  MEMB      155             0.0000000000
     19310       155  QMPE      C11            52.8886037787       21.0033672889       18.5506845055  MEMB      155             0.0000000000
     19311       155  QMPE      H11A           52.5636955816       20.2768058856       17.7721115746  MEMB      155             0.0000000000
     19312       155  QMPE      H11B           53.4090264503       21.8960496129       18.1161826497  MEMB      155             0.0000000000
     19313       155  QMPE      P              50.9810764685       22.7578262986       19.2065148886  MEMB      155             0.0000000000
     19314       155  QMPE      O13            51.6208522290       23.7310074305       20.0863047106  MEMB      155             0.0000000000
     19315       155  QMPE      O14            49.5601698905       22.5518778653       19.5111239640  MEMB      155             0.0000000000
     19316       155  QMPE      O11            51.2656005442       23.2110898634       17.6993273709  MEMB      155             0.0000000000
     19317       155  QMPE      O12            51.7406962994       21.3712888422       19.2750584760  MEMB      155             0.0000000000
     19318       155  QMPE      C1             51.0081979144       22.4225595987       16.5682866181  MEMB      155             0.0000000000
     19319       155  QMPE      HA             50.0577957904       22.6712647759       16.5015982878  MEMB      155             0.0000000000
     19320       155  QMPE      HB             50.9472012397       21.3267234780       16.6692588216  MEMB      155             0.0000000000
     19321       155  QMPE      C2             51.2286668454       22.9860713142       15.1990160930  MEMB      155             0.0000000000
     19322       155  QMPE      HS             51.0750309148       22.1650391570       14.4566274857  MEMB      155             0.0000000000
     19323       155  QMPE      O21            52.5505371683       23.4637005546       15.1881635965  MEMB      155             0.0000000000
     19324       155  QMPE      C21            53.4210414825       22.4771803020       15.1579012384  MEMB      155             0.0000000000
     19325       155  QMPE      O22            53.2286183904       21.3089325929       15.3869295121  MEMB      155             0.0000000000
     19326       155  QMPE      C22            54.7438174219       22.9448403479       14.7595922809  MEMB      155             0.0000000000
     19327       155  QMPE      H2R            54.8302031268       23.3831123826       15.8028034875  MEMB      155             0.0000000000
     19328       155  QMPE      H2S            54.7537759215       23.6493318986       13.8830066339  MEMB      155             0.0000000000
     19329       155  QMPE      C3             50.2253657490       24.0919941911       14.8667435822  MEMB      155             0.0000000000
     19330       155  QMPE      HX             50.3195543262       24.8831138996       15.6508257156  MEMB      155             0.0000000000
     19331       155  QMPE      HY             49.1732817171       23.7870096449       14.8706962958  MEMB      155             0.0000000000
     19332       155  QMPE      O31            50.5361952362       24.3909114979       13.5538573134  MEMB      155             0.0000000000
     19333       155  QMPE      C31            50.9132415531       25.4603107831       13.4975778378  MEMB      155             0.0000000000
     19334       155  QMPE      O32            50.7612897754       26.3840733699       14.3112515212  MEMB      155             0.0000000000
     19335       155  QMPE      C32            50.9335412384       25.3587704621       12.1191492223  MEMB      155             0.0000000000
     19336       155  QMPE      H2X            50.0786998324       25.8609350749       11.7392231742  MEMB      155             0.0000000000
     19337       155  QMPE      H2Y            51.1917116911       26.3522577248       12.3207281976  MEMB      155             0.0000000000
     19338       155  QMPE      C23            55.9206578273       22.2252502139       14.8615051598  MEMB      155             0.0000000000
     19339       155  QMPE      H3R            55.7711212181       21.3401196482       14.2484029872  MEMB      155             0.0000000000
     19340       155  QMPE      H3S            55.9666689257       21.9430703186       15.9585584305  MEMB      155             0.0000000000
     19341       155  QMPE      C24            57.2147511825       23.0083170397       14.5642118095  MEMB      155             0.0000000000
     19342       155  QMPE      H4R            58.1631425080       22.5650901510       14.9290609933  MEMB      155             0.0000000000
     19343       155  QMPE      H4S            57.3310092506       23.6866583476       15.3264525572  MEMB      155             0.0000000000
     19344       155  QMPE      C25            57.4905675495       23.6029101250       13.1942679207  MEMB      155             0.0000000000
     19345       155  QMPE      H5R            58.5667586600       23.8853658397       13.1735589394  MEMB      155             0.0000000000
     19346       155  QMPE      H5S            56.9340510933       24.5456086157       13.1627268267  MEMB      155             0.0000000000
     19347       155  QMPE      C26            57.0005415546       22.8343132299       11.9717668477  MEMB      155             0.0000000000
     19348       155  QMPE      H6R            57.1928802346       23.3647183056       11.0380961124  MEMB      155             0.0000000000
     19349       155  QMPE      H6S            55.9376517469       22.5068702378       12.1140470599  MEMB      155             0.0000000000
     19350       155  QMPE      C27            57.7013731647       21.7328125365       11.4493784100  MEMB      155             0.0000000000
     19351       155  QMPE      H7R            56.8522702237       21.0280381539       11.8665066685  MEMB      155             0.0000000000
     19352       155  QMPE      H7S            58.8464107464       21.6091035940       11.5950076976  MEMB      155             0.0000000000
     19353       155  QMPE      C28            57.4197981690       21.1753698666       10.4010293521  MEMB      155             0.0000000000
     19354       155  QMPE      H8R            58.4125474305       20.7057887689        9.9051350407  MEMB      155             0.0000000000
     19355       155  QMPE      H8S            57.8773940246       21.6015519194        9.7585573955  MEMB      155             0.0000000000
     19356       155  QMPE      C29            55.8638433456       20.6586498092       10.2193120117  MEMB      155             0.0000000000
     19357       155  QMPE      H9R            55.2504511380       21.3815572957       10.4291207226  MEMB      155             0.0000000000
     19358       155  QMPE      C217           55.1544652040       19.4818629830       10.6608210695  MEMB      155             0.0000000000
     19359       155  QMPE      H17R           55.8862449066       18.7941510285       10.7644505053  MEMB      155             0.0000000000
     19360       155  QMPE      H17S           54.4306045633       18.8036284777       10.4367414573  MEMB      155             0.0000000000
     19361       155  QMPE      C210           55.1877063515       19.8520654074        9.0149806909  MEMB      155             0.0000000000
     19362       155  QMPE      H10R           54.4339761451       19.7409473062        8.4333552970  MEMB      155             0.0000000000
     19363       155  QMPE      C211           57.0073427504       18.7756069516        6.9473183412  MEMB      155             0.0000000000
     19364       155  QMPE      H11R           58.1416854394       18.8698267512        7.6751372721  MEMB      155             0.0000000000
     19365       155  QMPE      H11S           57.4663749443       17.9032020163        7.2189791085  MEMB      155             0.0000000000
     19366       155  QMPE      C212           57.2884170235       19.8932557444        5.8663817465  MEMB      155             0.0000000000
     19367       155  QMPE      H12R           58.3573739441       20.3163808280        6.0587019009  MEMB      155             0.0000000000
     19368       155  QMPE      H12S           57.9859073341       20.8138773255        6.3874348843  MEMB      155             0.0000000000
     19369       155  QMPE      C213           56.2290890006       19.8422993646        5.0445141181  MEMB      155             0.0000000000
     19370       155  QMPE      H13R           55.1647208611       20.1336289189        5.3586869014  MEMB      155             0.0000000000
     19371       155  QMPE      H13S           56.1596622523       18.8842818918        5.0454891993  MEMB      155             0.0000000000
     19372       155  QMPE      C214           56.6800244597       20.2856623990        3.7590997770  MEMB      155             0.0000000000
     19373       155  QMPE      H14R           57.7391370714       20.3258906310        3.7317942488  MEMB      155             0.0000000000
     19374       155  QMPE      H14S           57.1248936903       21.2479453976        3.5904432022  MEMB      155             0.0000000000
     19375       155  QMPE      C215           55.4594412820       20.7312304898        3.0611666401  MEMB      155             0.0000000000
     19376       155  QMPE      H15R           54.5478960922       20.9446318570        3.6719096234  MEMB      155             0.0000000000
     19377       155  QMPE      H15S           55.6146285833       19.8187582202        2.6080271098  MEMB      155             0.0000000000
     19378       155  QMPE      C216           55.5607581097       21.8024750902        2.1894480684  MEMB      155             0.0000000000
     19379       155  QMPE      H16R           55.1815279574       22.7679950846        2.7878681646  MEMB      155             0.0000000000
     19380       155  QMPE      H16S           55.3620145981       21.8466145567        1.1809635611  MEMB      155             0.0000000000
     19381       155  QMPE      H16T           56.6626027437       21.7277649096        1.8173876319  MEMB      155             0.0000000000
     19382       155  QMPE      C33            52.0469171533       24.6685353032       11.1022750004  MEMB      155             0.0000000000
     19383       155  QMPE      H3X            51.9324322974       24.8450097669       10.0397577264  MEMB      155             0.0000000000
     19384       155  QMPE      H3Y            51.2378458983       24.0856155651       11.0991085083  MEMB      155             0.0000000000
     19385       155  QMPE      C34            53.4877360611       24.9662923443       11.4500569127  MEMB      155             0.0000000000
     19386       155  QMPE      H4X            53.5587248616       24.8079916487       12.5060092766  MEMB      155             0.0000000000
     19387       155  QMPE      H4Y            54.0542981055       25.8846560732       11.4638103827  MEMB      155             0.0000000000
     19388       155  QMPE      C35            54.3277758631       24.2054630568       10.5651171821  MEMB      155             0.0000000000
     19389       155  QMPE      H5X            53.6722845897       23.3159740874       10.5993887059  MEMB      155             0.0000000000
     19390       155  QMPE      H5Y            55.2540219015       24.1127798219       11.1060916090  MEMB      155             0.0000000000
     19391       155  QMPE      C36            54.5917734486       24.6468417966        9.1775666585  MEMB      155             0.0000000000
     19392       155  QMPE      H6X            55.1462710401       25.5675485089        8.9131979106  MEMB      155             0.0000000000
     19393       155  QMPE      H6Y            53.6711443135       24.5590939136        8.5514165133  MEMB      155             0.0000000000
     19394       155  QMPE      C37            55.2707644032       23.6116912757        8.5906052699  MEMB      155             0.0000000000
     19395       155  QMPE      H7X            56.3538724627       23.4058505688        9.0272361110  MEMB      155             0.0000000000
     19396       155  QMPE      H7Y            54.6356012788       22.6783949132        8.7751175157  MEMB      155             0.0000000000
     19397       155  QMPE      C38            55.0289012169       24.1559638482        7.1221308457  MEMB      155             0.0000000000
     19398       155  QMPE      H8X            55.8661644594       24.4301378030        6.4495988040  MEMB      155             0.0000000000
     19399       155  QMPE      H8Y            55.8030764546       23.6985044754        7.4892197288  MEMB      155             0.0000000000
     19400       155  QMPE      C39            53.7972662874       23.3853747762        6.3985563941  MEMB      155             0.0000000000
     19401       155  QMPE      H9X            53.2219506730       22.9220150228        7.2097412327  MEMB      155             0.0000000000
     19402       155  QMPE      H9Y            53.8268626485       22.4866166681        5.7016835579  MEMB      155             0.0000000000
     19403       155  QMPE      C310           53.1506209026       24.4437551180        5.6882581147  MEMB      155             0.0000000000
     19404       155  QMPE      H10X           53.8285429300       24.8040127894        4.8890639017  MEMB      155             0.0000000000
     19405       155  QMPE      H10Y           53.2517214581       25.0034553374        6.6057124991  MEMB      155             0.0000000000
     19406       155  QMPE      C311           51.6823446249       24.2009483603        5.4579773254  MEMB      155             0.0000000000
     19407       155  QMPE      H11X           51.0876002835       25.1141777277        5.2709454286  MEMB      155             0.0000000000
     19408       155  QMPE      H11Y           51.2912350740       23.8419730050        6.4367628781  MEMB      155             0.0000000000
     19409       155  QMPE      C312           51.4331788343       23.1635396204        4.3676666947  MEMB      155             0.0000000000
     19410       155  QMPE      H12X           50.5367152047       22.5582206695        4.6113715147  MEMB      155             0.0000000000
     19411       155  QMPE      H12Y           52.2731235638       22.4239965094        4.3700684649  MEMB      155             0.0000000000
     19412       155  QMPE      C313           51.2568222514       23.7672300905        2.9636004716  MEMB      155             0.0000000000
     19413       155  QMPE      H13X           50.4732394438       24.5584802696        2.8054782060  MEMB      155             0.0000000000
     19414       155  QMPE      H13Y           52.2298495354       24.2283440041        2.6917280787  MEMB      155             0.0000000000
     19415       155  QMPE      C314           50.9594674146       22.6462312373        1.9700206708  MEMB      155             0.0000000000
     19416       155  QMPE      H14X           51.6369286052       21.7775727366        2.0778919632  MEMB      155             0.0000000000
     19417       155  QMPE      H14Y           51.1974468852       23.0380571207        0.9634794218  MEMB      155             0.0000000000
     19418       155  QMPE      C315           49.5390357698       22.0920964643        2.0613392276  MEMB      155             0.0000000000
     19419       155  QMPE      H15X           48.7868622372       22.9201673770        2.0876779698  MEMB      155             0.0000000000
     19420       155  QMPE      H15Y           49.3832932458       21.3635550007        1.2443626090  MEMB      155             0.0000000000
     19421       155  QMPE      H15Z           49.4186187582       21.4317608432        2.9414650029  MEMB      155             0.0000000000
     19422       156  PMPE      N             -18.2473897979       54.0331214799       19.5362789046  MEMB      156             0.0000000000
     19423       156  PMPE      HN1           -18.7684110985       54.9147411599       19.2535866316  MEMB      156             0.0000000000
     19424       156  PMPE      HN2           -18.3964735496       53.7827291020       20.5024546589  MEMB      156             0.0000000000
     19425       156  PMPE      HN3           -17.2727454609       54.4916617125       19.4332540992  MEMB      156             0.0000000000
     19426       156  PMPE      C12           -18.3364744718       53.0595376896       18.4063512227  MEMB      156             0.0000000000
     19427       156  PMPE      H12A          -17.3831719096       52.4988828271       18.3745273539  MEMB      156             0.0000000000
     19428       156  PMPE      H12B          -18.4874982226       53.5478589108       17.4202077326  MEMB      156             0.0000000000
     19429       156  PMPE      C11           -19.5618051594       52.2252486972       18.6386716240  MEMB      156             0.0000000000
     19430       156  PMPE      H11A          -19.3219429358       51.6393182415       19.5433820617  MEMB      156             0.0000000000
     19431       156  PMPE      H11B          -19.7193603616       51.4948147452       17.8176866646  MEMB      156             0.0000000000
     19432       156  PMPE      P             -22.0885759043       52.2004103599       19.0885406437  MEMB      156             0.0000000000
     19433       156  PMPE      O13           -21.6351583607       51.1645721428       20.0444214419  MEMB      156             0.0000000000
     19434       156  PMPE      O14           -22.5888762843       51.7776934607       17.7751837835  MEMB      156             0.0000000000
     19435       156  PMPE      O11           -23.0770065647       53.2027188724       19.7702170481  MEMB      156             0.0000000000
     19436       156  PMPE      O12           -20.7245498666       53.0470778296       18.8453529287  MEMB      156             0.0000000000
     19437       156  PMPE      C1            -22.8601189609       54.5739370337       19.6086765762  MEMB      156             0.0000000000
     19438       156  PMPE      HA            -21.7998541798       54.8574869492       19.7203573745  MEMB      156             0.0000000000
     19439       156  PMPE      HB            -23.2931270690       55.0175870322       20.4585259702  MEMB      156             0.0000000000
     19440       156  PMPE      C2            -23.4095660029       55.2363361055       18.3244066054  MEMB      156             0.0000000000
     19441       156  PMPE      HS            -24.1194824187       56.0058334157       18.6346014827  MEMB      156             0.0000000000
     19442       156  PMPE      O21           -23.9648656763       54.3328192422       17.3619057568  MEMB      156             0.0000000000
     19443       156  PMPE      C21           -24.6842909113       54.8536001758       16.3750603473  MEMB      156             0.0000000000
     19444       156  PMPE      O22           -25.0958816241       55.9982609324       16.3303570137  MEMB      156             0.0000000000
     19445       156  PMPE      C22           -25.0242531641       53.7652982200       15.3473535397  MEMB      156             0.0000000000
     19446       156  PMPE      H2R           -25.6427545194       53.0593238099       15.9496472825  MEMB      156             0.0000000000
     19447       156  PMPE      H2S           -24.0937307426       53.2628779144       15.0051922649  MEMB      156             0.0000000000
     19448       156  PMPE      C3            -22.2455345090       55.8968578005       17.6883939988  MEMB      156             0.0000000000
     19449       156  PMPE      HX            -21.5356402647       56.3815294291       18.4273876275  MEMB      156             0.0000000000
     19450       156  PMPE      HY            -22.5280301656       56.7928146980       17.0654883327  MEMB      156             0.0000000000
     19451       156  PMPE      O31           -21.5063983943       54.8775325769       16.9460037921  MEMB      156             0.0000000000
     19452       156  PMPE      C31           -21.4109239736       55.0421602071       15.6290630997  MEMB      156             0.0000000000
     19453       156  PMPE      O32           -21.7797851017       56.0344592549       15.0294606051  MEMB      156             0.0000000000
     19454       156  PMPE      C32           -20.4054486549       54.0300324079       15.1090691784  MEMB      156             0.0000000000
     19455       156  PMPE      H2X           -20.5042174145       53.2145027984       15.7873089002  MEMB      156             0.0000000000
     19456       156  PMPE      H2Y           -19.2830513825       54.1569362797       15.1304824359  MEMB      156             0.0000000000
     19457       156  PMPE      C23           -25.8942421377       54.2448348439       14.1476126343  MEMB      156             0.0000000000
     19458       156  PMPE      H3R           -25.5064237577       55.1315874567       13.6105234497  MEMB      156             0.0000000000
     19459       156  PMPE      H3S           -26.8721411769       54.5972382051       14.5622530943  MEMB      156             0.0000000000
     19460       156  PMPE      C24           -26.1144785746       53.1276258585       13.1039507573  MEMB      156             0.0000000000
     19461       156  PMPE      H4R           -26.9903286741       53.4388630929       12.4859150130  MEMB      156             0.0000000000
     19462       156  PMPE      H4S           -26.3425014558       52.1667994751       13.6126047922  MEMB      156             0.0000000000
     19463       156  PMPE      C25           -25.0060502114       52.8344665902       12.0608656754  MEMB      156             0.0000000000
     19464       156  PMPE      H5R           -25.5050679187       52.2667697315       11.2573975829  MEMB      156             0.0000000000
     19465       156  PMPE      H5S           -24.2079365796       52.1496817323       12.4192246744  MEMB      156             0.0000000000
     19466       156  PMPE      C26           -24.4245198323       54.0952389025       11.4212470364  MEMB      156             0.0000000000
     19467       156  PMPE      H6R           -23.6586937899       54.4268966703       12.1515559928  MEMB      156             0.0000000000
     19468       156  PMPE      H6S           -25.2213429135       54.8667110698       11.3521433654  MEMB      156             0.0000000000
     19469       156  PMPE      C27           -23.7524859505       53.9724544847       10.0385737277  MEMB      156             0.0000000000
     19470       156  PMPE      H7R           -22.9796756757       53.1840569972       10.0414454040  MEMB      156             0.0000000000
     19471       156  PMPE      H7S           -23.2731103402       54.9681883868        9.8898190979  MEMB      156             0.0000000000
     19472       156  PMPE      C28           -24.7271397145       53.7329000755        8.8847567487  MEMB      156             0.0000000000
     19473       156  PMPE      H8R           -25.2847410248       54.6619295307        8.8021146249  MEMB      156             0.0000000000
     19474       156  PMPE      H8S           -25.4282656920       52.9282557120        9.2072965687  MEMB      156             0.0000000000
     19475       156  PMPE      C29           -24.1286032048       53.2689707100        7.5357707980  MEMB      156             0.0000000000
     19476       156  PMPE      H9R           -23.9387372553       52.1880082162        7.4952930527  MEMB      156             0.0000000000
     19477       156  PMPE      C217          -22.8935103604       54.0065169614        7.0962550979  MEMB      156             0.0000000000
     19478       156  PMPE      H17R          -22.1804633683       53.4347246477        6.5402080913  MEMB      156             0.0000000000
     19479       156  PMPE      H17S          -22.8074095359       55.0038304287        7.5269574724  MEMB      156             0.0000000000
     19480       156  PMPE      C210          -24.0124567365       54.0919992482        6.2145546959  MEMB      156             0.0000000000
     19481       156  PMPE      H10R          -24.3603744239       53.3796716024        5.4159283136  MEMB      156             0.0000000000
     19482       156  PMPE      C211          -24.4618034008       55.5414942703        6.2845988974  MEMB      156             0.0000000000
     19483       156  PMPE      H11R          -24.5758143470       56.0815532827        7.1843644114  MEMB      156             0.0000000000
     19484       156  PMPE      H11S          -25.3611217728       55.3826879733        6.6651530252  MEMB      156             0.0000000000
     19485       156  PMPE      C212          -24.7673662310       56.4264211699        5.1193064436  MEMB      156             0.0000000000
     19486       156  PMPE      H12R          -24.0599213932       57.1622415743        5.3294847358  MEMB      156             0.0000000000
     19487       156  PMPE      H12S          -25.6558392347       56.9450091718        5.2457875968  MEMB      156             0.0000000000
     19488       156  PMPE      C213          -24.7227823675       55.8386929884        3.8084913425  MEMB      156             0.0000000000
     19489       156  PMPE      H13R          -23.8976135734       55.0098860231        3.8845273734  MEMB      156             0.0000000000
     19490       156  PMPE      H13S          -24.5760097423       56.7583949766        3.2082782158  MEMB      156             0.0000000000
     19491       156  PMPE      C214          -25.7437868780       55.4099462184        2.8949851365  MEMB      156             0.0000000000
     19492       156  PMPE      H14R          -26.8102375034       55.5267648506        2.8802406427  MEMB      156             0.0000000000
     19493       156  PMPE      H14S          -25.4694515122       54.5992253303        3.5365045698  MEMB      156             0.0000000000
     19494       156  PMPE      C215          -25.4160064661       54.7103794732        1.7061122461  MEMB      156             0.0000000000
     19495       156  PMPE      H15R          -24.5461032947       54.0026999506        1.9316329307  MEMB      156             0.0000000000
     19496       156  PMPE      H15S          -25.2702562016       55.6346531491        1.1191689073  MEMB      156             0.0000000000
     19497       156  PMPE      C216          -26.3094186406       54.3082587646        0.6112700774  MEMB      156             0.0000000000
     19498       156  PMPE      H16R          -26.7978480590       53.8593812495        1.3504329995  MEMB      156             0.0000000000
     19499       156  PMPE      H16S          -27.2521307956       54.0644132432        0.2548295046  MEMB      156             0.0000000000
     19500       156  PMPE      H16T          -25.8329424520       53.4845492533        0.2970402252  MEMB      156             0.0000000000
     19501       156  PMPE      C33           -21.0092592799       53.8577378433       13.7555743021  MEMB      156             0.0000000000
     19502       156  PMPE      H3X           -20.7028214883       54.5968435677       13.0091579736  MEMB      156             0.0000000000
     19503       156  PMPE      H3Y           -22.1054391252       54.0448043276       13.8173175246  MEMB      156             0.0000000000
     19504       156  PMPE      C34           -20.6508077813       52.4643214162       13.3527030081  MEMB      156             0.0000000000
     19505       156  PMPE      H4X           -21.1311499042       51.8415571479       14.1371827928  MEMB      156             0.0000000000
     19506       156  PMPE      H4Y           -19.5533403305       52.3265900267       13.4820801466  MEMB      156             0.0000000000
     19507       156  PMPE      C35           -21.0881789276       52.1749901836       11.9140976550  MEMB      156             0.0000000000
     19508       156  PMPE      H5X           -20.4371132958       52.7927783808       11.2483620820  MEMB      156             0.0000000000
     19509       156  PMPE      H5Y           -22.1448834321       52.5263106639       11.8262174760  MEMB      156             0.0000000000
     19510       156  PMPE      C36           -21.0915521382       50.6837411697       11.5138835851  MEMB      156             0.0000000000
     19511       156  PMPE      H6X           -21.3559490694       50.1102098951       12.4285514084  MEMB      156             0.0000000000
     19512       156  PMPE      H6Y           -20.1151238403       50.2617663850       11.2263110527  MEMB      156             0.0000000000
     19513       156  PMPE      C37           -22.0940994296       50.3747774497       10.3850194934  MEMB      156             0.0000000000
     19514       156  PMPE      H7X           -23.0446932108       50.8647086383       10.6864463763  MEMB      156             0.0000000000
     19515       156  PMPE      H7Y           -22.2979668690       49.2797783439       10.3733760072  MEMB      156             0.0000000000
     19516       156  PMPE      C38           -21.6565859939       50.7968035407        8.9567086441  MEMB      156             0.0000000000
     19517       156  PMPE      H8X           -21.2655365862       51.8423542526        8.9129720429  MEMB      156             0.0000000000
     19518       156  PMPE      H8Y           -22.5388289084       50.6370699178        8.2948421628  MEMB      156             0.0000000000
     19519       156  PMPE      C39           -20.4649151029       50.0180324146        8.4350539360  MEMB      156             0.0000000000
     19520       156  PMPE      H9X           -20.4527219373       49.0364782189        8.8044508993  MEMB      156             0.0000000000
     19521       156  PMPE      H9Y           -19.6060513487       50.3163521384        9.0459856123  MEMB      156             0.0000000000
     19522       156  PMPE      C310          -20.1405500600       50.0910043948        6.9420665501  MEMB      156             0.0000000000
     19523       156  PMPE      H10X          -19.3384987777       49.3580791354        6.7789560828  MEMB      156             0.0000000000
     19524       156  PMPE      H10Y          -19.7522023560       51.0919959256        6.7262754252  MEMB      156             0.0000000000
     19525       156  PMPE      C311          -21.2120834049       49.8346465310        5.9016795283  MEMB      156             0.0000000000
     19526       156  PMPE      H11X          -22.2375368813       50.0674545681        6.1584453757  MEMB      156             0.0000000000
     19527       156  PMPE      H11Y          -21.3202497195       48.8325110835        5.8558452079  MEMB      156             0.0000000000
     19528       156  PMPE      C312          -20.8104001396       50.2438517933        4.4995301103  MEMB      156             0.0000000000
     19529       156  PMPE      H12X          -19.8849764751       49.7201231589        4.1724219651  MEMB      156             0.0000000000
     19530       156  PMPE      H12Y          -20.8489500649       51.3259753977        4.4693023654  MEMB      156             0.0000000000
     19531       156  PMPE      C313          -21.7067139417       50.0274285658        3.3843823823  MEMB      156             0.0000000000
     19532       156  PMPE      H13X          -21.4112724038       48.9983309866        3.2620544484  MEMB      156             0.0000000000
     19533       156  PMPE      H13Y          -21.5133482419       49.9913371811        2.3410431708  MEMB      156             0.0000000000
     19534       156  PMPE      C314          -22.9876288434       50.6300313175        3.5869414171  MEMB      156             0.0000000000
     19535       156  PMPE      H14X          -23.1692997877       51.6786770989        3.4277624144  MEMB      156             0.0000000000
     19536       156  PMPE      H14Y          -23.5803261256       50.3926958373        4.5398565108  MEMB      156             0.0000000000
     19537       156  PMPE      C315          -23.6224905586       50.4262199405        2.3836845683  MEMB      156             0.0000000000
     19538       156  PMPE      H15X          -24.5664063979       50.5823638496        3.1521196951  MEMB      156             0.0000000000
     19539       156  PMPE      H15Y          -23.3755909371       49.3810600999        2.0935082832  MEMB      156             0.0000000000
     19540       156  PMPE      C316          -23.4382432028       50.1583682025        0.8245144649  MEMB      156             0.0000000000
     19541       156  PMPE      H16X          -23.1694197648       51.1051161377        0.5481767195  MEMB      156             0.0000000000
     19542       156  PMPE      H16Y          -24.2629158171       49.6497737923        0.1940751846  MEMB      156             0.0000000000
     19543       156  PMPE      H16Z          -22.8572849454       49.2858352060        0.5380064242  MEMB      156             0.0000000000
     19544       157  PMPE      N             -48.8305716619      -27.2558078733       19.9456357110  MEMB      157             0.0000000000
     19545       157  PMPE      HN1           -48.2139975141      -27.3571135668       19.1128772865  MEMB      157             0.0000000000
     19546       157  PMPE      HN2           -49.7759236400      -27.0820494016       19.5582341819  MEMB      157             0.0000000000
     19547       157  PMPE      HN3           -48.5530236667      -26.4982758047       20.6169075397  MEMB      157             0.0000000000
     19548       157  PMPE      C12           -48.8425739838      -28.5506834043       20.6955099572  MEMB      157             0.0000000000
     19549       157  PMPE      H12A          -49.4439178428      -28.3511127434       21.6029894816  MEMB      157             0.0000000000
     19550       157  PMPE      H12B          -47.8208007342      -28.7938015276       21.0359040741  MEMB      157             0.0000000000
     19551       157  PMPE      C11           -49.3189292078      -29.6847620925       19.7788255002  MEMB      157             0.0000000000
     19552       157  PMPE      H11A          -50.3818637566      -29.4587830710       19.4699755934  MEMB      157             0.0000000000
     19553       157  PMPE      H11B          -49.2654130609      -30.6279333917       20.3750278457  MEMB      157             0.0000000000
     19554       157  PMPE      P             -47.3538964758      -30.9459476707       18.3712129764  MEMB      157             0.0000000000
     19555       157  PMPE      O13           -47.9763112017      -32.2723848459       18.3270981191  MEMB      157             0.0000000000
     19556       157  PMPE      O14           -46.2921235385      -30.6881616377       19.3653914974  MEMB      157             0.0000000000
     19557       157  PMPE      O11           -46.8191401587      -30.6286728589       16.9315301515  MEMB      157             0.0000000000
     19558       157  PMPE      O12           -48.4706940405      -29.7811177577       18.6351684415  MEMB      157             0.0000000000
     19559       157  PMPE      C1            -46.2028637061      -29.3857806552       16.7414595424  MEMB      157             0.0000000000
     19560       157  PMPE      HA            -45.2283484473      -29.5450726115       16.2395450582  MEMB      157             0.0000000000
     19561       157  PMPE      HB            -45.8376216407      -28.8936570253       17.6639551360  MEMB      157             0.0000000000
     19562       157  PMPE      C2            -47.0508711934      -28.4519434734       15.9162262441  MEMB      157             0.0000000000
     19563       157  PMPE      HS            -47.9668736336      -28.0408379468       16.4336902886  MEMB      157             0.0000000000
     19564       157  PMPE      O21           -47.4202628236      -29.1008670877       14.6955163713  MEMB      157             0.0000000000
     19565       157  PMPE      C21           -48.3036408524      -28.6586168616       13.8832265201  MEMB      157             0.0000000000
     19566       157  PMPE      O22           -48.9568048139      -27.6805174151       13.9160895544  MEMB      157             0.0000000000
     19567       157  PMPE      C22           -48.7291322123      -29.5050531925       12.7747467043  MEMB      157             0.0000000000
     19568       157  PMPE      H2R           -49.4671770908      -28.8801093222       12.1906687794  MEMB      157             0.0000000000
     19569       157  PMPE      H2S           -49.2831522214      -30.2919706862       13.2934065153  MEMB      157             0.0000000000
     19570       157  PMPE      C3            -45.9826771988      -27.3923656533       15.7880784428  MEMB      157             0.0000000000
     19571       157  PMPE      HX            -45.3732837916      -26.9607158022       16.5564344004  MEMB      157             0.0000000000
     19572       157  PMPE      HY            -46.8425112967      -26.7078056997       16.0338034088  MEMB      157             0.0000000000
     19573       157  PMPE      O31           -45.1758946289      -27.5216180803       14.5696679106  MEMB      157             0.0000000000
     19574       157  PMPE      C31           -44.6903080538      -26.6362342561       13.7269740420  MEMB      157             0.0000000000
     19575       157  PMPE      O32           -44.6702519653      -25.4211815858       13.6999498226  MEMB      157             0.0000000000
     19576       157  PMPE      C32           -43.8825224633      -27.2702656325       12.6270808707  MEMB      157             0.0000000000
     19577       157  PMPE      H2X           -44.0718753082      -28.3418887496       12.5861384023  MEMB      157             0.0000000000
     19578       157  PMPE      H2Y           -42.9832256443      -26.8873373662       13.1551652151  MEMB      157             0.0000000000
     19579       157  PMPE      C23           -47.5398412078      -29.9552628542       11.9604050808  MEMB      157             0.0000000000
     19580       157  PMPE      H3R           -46.7871236464      -30.4339662447       12.6297407976  MEMB      157             0.0000000000
     19581       157  PMPE      H3S           -47.0585896356      -29.0535850646       11.5385803135  MEMB      157             0.0000000000
     19582       157  PMPE      C24           -47.8845298763      -30.8860299382       10.7982721920  MEMB      157             0.0000000000
     19583       157  PMPE      H4R           -48.5495068714      -30.3788030314       10.0617970648  MEMB      157             0.0000000000
     19584       157  PMPE      H4S           -48.3495122163      -31.8390563654       11.1361480158  MEMB      157             0.0000000000
     19585       157  PMPE      C25           -46.6080470030      -31.3024636190       10.0704743082  MEMB      157             0.0000000000
     19586       157  PMPE      H5R           -45.8717363529      -31.6631067160       10.8155665161  MEMB      157             0.0000000000
     19587       157  PMPE      H5S           -46.1312403314      -30.4100441866        9.6173622131  MEMB      157             0.0000000000
     19588       157  PMPE      C26           -46.7972459751      -32.3946842530        9.0085350830  MEMB      157             0.0000000000
     19589       157  PMPE      H6R           -47.3034912316      -33.3144486234        9.4102706864  MEMB      157             0.0000000000
     19590       157  PMPE      H6S           -45.7593938837      -32.6349615408        8.6793689499  MEMB      157             0.0000000000
     19591       157  PMPE      C27           -47.6293461460      -31.9381056142        7.8052343285  MEMB      157             0.0000000000
     19592       157  PMPE      H7R           -48.4992465277      -31.3491670049        8.1851700988  MEMB      157             0.0000000000
     19593       157  PMPE      H7S           -47.9810419370      -32.8767150531        7.3142075934  MEMB      157             0.0000000000
     19594       157  PMPE      C28           -46.8714240632      -31.1268176477        6.7356244429  MEMB      157             0.0000000000
     19595       157  PMPE      H8R           -46.3678201206      -30.2459195198        7.1843185647  MEMB      157             0.0000000000
     19596       157  PMPE      H8S           -47.6418959175      -30.7387108305        6.0345122275  MEMB      157             0.0000000000
     19597       157  PMPE      C29           -45.9763593854      -32.0334398728        5.8806722985  MEMB      157             0.0000000000
     19598       157  PMPE      H9R           -46.3636881180      -33.0314057059        5.6083304155  MEMB      157             0.0000000000
     19599       157  PMPE      C217          -44.4587869266      -32.0092179847        6.0125867339  MEMB      157             0.0000000000
     19600       157  PMPE      H17R          -44.1053561018      -33.0205751166        5.8408152548  MEMB      157             0.0000000000
     19601       157  PMPE      H17S          -44.1049103146      -31.2964816553        6.7514362273  MEMB      157             0.0000000000
     19602       157  PMPE      C210          -45.1391241914      -31.4195387890        4.7773252540  MEMB      157             0.0000000000
     19603       157  PMPE      H10R          -45.0177591390      -32.0203266422        3.8560628305  MEMB      157             0.0000000000
     19604       157  PMPE      C211          -44.9116640784      -29.9205941038        4.6106730343  MEMB      157             0.0000000000
     19605       157  PMPE      H11R          -44.1469760750      -29.7709786734        3.8211724591  MEMB      157             0.0000000000
     19606       157  PMPE      H11S          -44.4953013861      -29.4850933864        5.5395433146  MEMB      157             0.0000000000
     19607       157  PMPE      C212          -46.1136411616      -29.1681937341        4.0310708278  MEMB      157             0.0000000000
     19608       157  PMPE      H12R          -45.8129690450      -28.0965985421        3.9783562923  MEMB      157             0.0000000000
     19609       157  PMPE      H12S          -46.9609607550      -29.2807136111        4.7241226563  MEMB      157             0.0000000000
     19610       157  PMPE      C213          -46.4397965134      -29.6780475572        2.6108842695  MEMB      157             0.0000000000
     19611       157  PMPE      H13R          -46.6184314065      -30.7683042742        2.6550027824  MEMB      157             0.0000000000
     19612       157  PMPE      H13S          -45.5255334298      -29.4823675485        2.0120680880  MEMB      157             0.0000000000
     19613       157  PMPE      C214          -47.7403577671      -29.1655371873        1.9802081652  MEMB      157             0.0000000000
     19614       157  PMPE      H14R          -47.6415867286      -28.0796344592        1.7899586627  MEMB      157             0.0000000000
     19615       157  PMPE      H14S          -48.5170504732      -29.3394179094        2.7528476453  MEMB      157             0.0000000000
     19616       157  PMPE      C215          -48.2521540910      -29.8749387805        0.7018257874  MEMB      157             0.0000000000
     19617       157  PMPE      H15R          -49.2037854169      -29.3630513834        0.4474580532  MEMB      157             0.0000000000
     19618       157  PMPE      H15S          -48.4754985071      -30.9284126421        0.8911757286  MEMB      157             0.0000000000
     19619       157  PMPE      C216          -47.2512068022      -29.8972114265       -0.4044775229  MEMB      157             0.0000000000
     19620       157  PMPE      H16R          -46.4072352594      -30.5498006926       -0.2906200938  MEMB      157             0.0000000000
     19621       157  PMPE      H16S          -47.5796446790      -29.8422117404       -1.4725699538  MEMB      157             0.0000000000
     19622       157  PMPE      H16T          -46.7913460817      -29.0202016136       -0.2143276799  MEMB      157             0.0000000000
     19623       157  PMPE      C33           -43.8266016471      -26.6611534657       11.1669199543  MEMB      157             0.0000000000
     19624       157  PMPE      H3X           -42.8753797556      -26.6379744065       10.7262530152  MEMB      157             0.0000000000
     19625       157  PMPE      H3Y           -43.9665826690      -25.5268992782       11.2680946577  MEMB      157             0.0000000000
     19626       157  PMPE      C34           -44.7162195783      -27.3944419767       10.1045704186  MEMB      157             0.0000000000
     19627       157  PMPE      H4X           -45.7883646086      -27.3323837806       10.0180731915  MEMB      157             0.0000000000
     19628       157  PMPE      H4Y           -44.9034271788      -28.4253993999       10.3836472943  MEMB      157             0.0000000000
     19629       157  PMPE      C35           -44.3658387375      -26.9065315889        8.7155919410  MEMB      157             0.0000000000
     19630       157  PMPE      H5X           -43.3709361045      -27.3267360421        8.4923418327  MEMB      157             0.0000000000
     19631       157  PMPE      H5Y           -44.2595715513      -25.7959097842        8.6741649193  MEMB      157             0.0000000000
     19632       157  PMPE      C36           -45.4008125782      -27.2567332628        7.6375650490  MEMB      157             0.0000000000
     19633       157  PMPE      H6X           -45.1599575722      -28.2707999561        7.2844940942  MEMB      157             0.0000000000
     19634       157  PMPE      H6Y           -45.2796110446      -26.5899895192        6.7643848197  MEMB      157             0.0000000000
     19635       157  PMPE      C37           -46.8621239476      -27.2996501343        8.0807647656  MEMB      157             0.0000000000
     19636       157  PMPE      H7X           -47.1360890698      -26.4671871007        8.6984991492  MEMB      157             0.0000000000
     19637       157  PMPE      H7Y           -46.9795805057      -28.1215930328        8.8177558017  MEMB      157             0.0000000000
     19638       157  PMPE      C38           -47.8677334744      -27.5264385480        7.0123487120  MEMB      157             0.0000000000
     19639       157  PMPE      H8X           -47.6427762180      -28.4727913657        6.4847864955  MEMB      157             0.0000000000
     19640       157  PMPE      H8Y           -47.9136731770      -26.6962216231        6.2732013330  MEMB      157             0.0000000000
     19641       157  PMPE      C39           -49.1560788148      -27.6368230506        7.7354394382  MEMB      157             0.0000000000
     19642       157  PMPE      H9X           -49.4733615520      -26.6129654124        8.0541340334  MEMB      157             0.0000000000
     19643       157  PMPE      H9Y           -49.1271678642      -28.2431885379        8.6674139034  MEMB      157             0.0000000000
     19644       157  PMPE      C310          -50.1365240314      -28.0623245439        6.7605987398  MEMB      157             0.0000000000
     19645       157  PMPE      H10X          -50.8861116374      -27.5256831969        7.3939370411  MEMB      157             0.0000000000
     19646       157  PMPE      H10Y          -50.2838546512      -29.1782664970        6.6554350974  MEMB      157             0.0000000000
     19647       157  PMPE      C311          -50.2904050795      -27.2072056540        5.5506654855  MEMB      157             0.0000000000
     19648       157  PMPE      H11X          -49.5801295538      -27.0986315399        4.7830034886  MEMB      157             0.0000000000
     19649       157  PMPE      H11Y          -50.6861549813      -26.1849485926        5.8592789263  MEMB      157             0.0000000000
     19650       157  PMPE      C312          -51.2932873278      -27.7409490896        4.6962624583  MEMB      157             0.0000000000
     19651       157  PMPE      H12X          -51.9121033696      -26.9052312428        4.5721258537  MEMB      157             0.0000000000
     19652       157  PMPE      H12Y          -51.9161838257      -28.5272460153        5.1292195669  MEMB      157             0.0000000000
     19653       157  PMPE      C313          -51.2557715157      -28.3057102309        3.7315810379  MEMB      157             0.0000000000
     19654       157  PMPE      H13X          -50.6778768926      -29.2539618236        4.3239430410  MEMB      157             0.0000000000
     19655       157  PMPE      H13Y          -50.4849554572      -28.2816424393        3.2296627260  MEMB      157             0.0000000000
     19656       157  PMPE      C314          -52.8168493942      -28.4387374949        2.5708543794  MEMB      157             0.0000000000
     19657       157  PMPE      H14X          -53.3800582806      -27.6481430279        2.4554855789  MEMB      157             0.0000000000
     19658       157  PMPE      H14Y          -53.6797692153      -28.6712043335        2.8761218856  MEMB      157             0.0000000000
     19659       157  PMPE      C315          -53.2997497181      -29.7870348128        1.8655452228  MEMB      157             0.0000000000
     19660       157  PMPE      H15X          -52.7421671673      -29.1368882908        1.2553344177  MEMB      157             0.0000000000
     19661       157  PMPE      H15Y          -54.0578286379      -30.2628427037        1.5723561437  MEMB      157             0.0000000000
     19662       157  PMPE      C316          -51.6304141534      -32.4119185543        2.5397454061  MEMB      157             0.0000000000
     19663       157  PMPE      H16X          -50.8064195240      -31.5178716107        2.6865684883  MEMB      157             0.0000000000
     19664       157  PMPE      H16Y          -52.4989007674      -32.1534720557        2.1740999991  MEMB      157             0.0000000000
     19665       157  PMPE      H16Z          -52.4710668868      -32.7793091386        2.9923542108  MEMB      157             0.0000000000
     19666       158  QMPE      N              50.0111264197      -22.8803646776       21.0053472960  MEMB      158             0.0000000000
     19667       158  QMPE      HN1            50.6978850513      -23.6634871163       21.1292583108  MEMB      158             0.0000000000
     19668       158  QMPE      HN2            49.7063623151      -22.4589447650       21.9091917488  MEMB      158             0.0000000000
     19669       158  QMPE      HN3            49.2155259266      -23.2549387450       20.4505148202  MEMB      158             0.0000000000
     19670       158  QMPE      C12            50.5958333063      -21.8248670792       20.1583263933  MEMB      158             0.0000000000
     19671       158  QMPE      H12A           51.4759844396      -21.4374352806       20.6813460295  MEMB      158             0.0000000000
     19672       158  QMPE      H12B           49.8810128396      -20.9865416104       20.0363589373  MEMB      158             0.0000000000
     19673       158  QMPE      C11            50.9820323181      -22.3879404827       18.8042351352  MEMB      158             0.0000000000
     19674       158  QMPE      H11A           51.4514428022      -21.5015538561       18.3150153596  MEMB      158             0.0000000000
     19675       158  QMPE      H11B           50.0628372567      -22.7044795616       18.2550430694  MEMB      158             0.0000000000
     19676       158  QMPE      P              51.7632605009      -24.9399801500       18.4649775023  MEMB      158             0.0000000000
     19677       158  QMPE      O13            50.8196228519      -25.5995243921       19.3891394133  MEMB      158             0.0000000000
     19678       158  QMPE      O14            53.0967953689      -25.5426477168       18.2625156901  MEMB      158             0.0000000000
     19679       158  QMPE      O11            51.0257524605      -24.8041418423       17.0927911440  MEMB      158             0.0000000000
     19680       158  QMPE      O12            51.9403539709      -23.4258738731       18.9316774506  MEMB      158             0.0000000000
     19681       158  QMPE      C1             51.5913752649      -24.1528250356       15.9798718200  MEMB      158             0.0000000000
     19682       158  QMPE      HA             52.6948162958      -24.3074403019       15.9819362751  MEMB      158             0.0000000000
     19683       158  QMPE      HB             51.4270804396      -23.0657732258       16.0500522607  MEMB      158             0.0000000000
     19684       158  QMPE      C2             50.9468731773      -24.7233586671       14.6949686466  MEMB      158             0.0000000000
     19685       158  QMPE      HS             51.3021599532      -24.1415896457       13.8078630686  MEMB      158             0.0000000000
     19686       158  QMPE      O21            49.5025290889      -24.7947699766       14.6944565219  MEMB      158             0.0000000000
     19687       158  QMPE      C21            48.8555132414      -23.6538148831       14.7791183230  MEMB      158             0.0000000000
     19688       158  QMPE      O22            49.3301677017      -22.5462874724       14.9305572018  MEMB      158             0.0000000000
     19689       158  QMPE      C22            47.4284644801      -23.8429629576       14.4078505714  MEMB      158             0.0000000000
     19690       158  QMPE      H2R            46.7490448540      -23.8013311072       15.2736788894  MEMB      158             0.0000000000
     19691       158  QMPE      H2S            47.2658113866      -24.8038088877       14.0850354676  MEMB      158             0.0000000000
     19692       158  QMPE      C3             51.4804108135      -26.1526756991       14.5802030065  MEMB      158             0.0000000000
     19693       158  QMPE      HX             51.2638114404      -26.7414826958       15.4977642956  MEMB      158             0.0000000000
     19694       158  QMPE      HY             52.5891723036      -26.0747111917       14.5246402909  MEMB      158             0.0000000000
     19695       158  QMPE      O31            50.9579415564      -26.7412800446       13.4066432265  MEMB      158             0.0000000000
     19696       158  QMPE      C31            49.8354649138      -27.4075519204       13.4852448635  MEMB      158             0.0000000000
     19697       158  QMPE      O32            49.2444906346      -27.7875026084       14.4735599031  MEMB      158             0.0000000000
     19698       158  QMPE      C32            49.5294333527      -27.7140452525       12.0567122404  MEMB      158             0.0000000000
     19699       158  QMPE      H2X            49.4563330186      -28.7613851092       11.8561086392  MEMB      158             0.0000000000
     19700       158  QMPE      H2Y            48.6037330486      -27.4660497555       12.0330074187  MEMB      158             0.0000000000
     19701       158  QMPE      C23            47.1321813871      -22.8619767047       13.2841292854  MEMB      158             0.0000000000
     19702       158  QMPE      H3R            47.1730882587      -21.9220924118       13.8526095826  MEMB      158             0.0000000000
     19703       158  QMPE      H3S            46.0804169057      -23.0810156551       12.9559782801  MEMB      158             0.0000000000
     19704       158  QMPE      C24            48.0680606022      -22.5960853878       12.0956390109  MEMB      158             0.0000000000
     19705       158  QMPE      H4R            48.2659552129      -23.4872241476       11.6944239343  MEMB      158             0.0000000000
     19706       158  QMPE      H4S            49.1190438830      -22.4345937177       12.2800805596  MEMB      158             0.0000000000
     19707       158  QMPE      C25            47.5608482286      -21.8739895220       10.8377983128  MEMB      158             0.0000000000
     19708       158  QMPE      H5R            47.2787399396      -20.8998716967       11.2570105572  MEMB      158             0.0000000000
     19709       158  QMPE      H5S            46.6096023216      -22.3399270110       10.4522074609  MEMB      158             0.0000000000
     19710       158  QMPE      C26            48.5333835052      -21.8206202059        9.6471140385  MEMB      158             0.0000000000
     19711       158  QMPE      H6R            47.9195872368      -21.5832365891        8.7510965775  MEMB      158             0.0000000000
     19712       158  QMPE      H6S            48.9162562575      -22.8532936297        9.5460411616  MEMB      158             0.0000000000
     19713       158  QMPE      C27            49.7057831291      -20.8170510538        9.7136775147  MEMB      158             0.0000000000
     19714       158  QMPE      H7R            50.3665454541      -21.0839765791       10.5588128505  MEMB      158             0.0000000000
     19715       158  QMPE      H7S            49.2330470640      -19.8408349138        9.8883859528  MEMB      158             0.0000000000
     19716       158  QMPE      C28            50.5790014654      -20.6216508995        8.4505742779  MEMB      158             0.0000000000
     19717       158  QMPE      H8R            51.3084131543      -19.8237318583        8.6412869882  MEMB      158             0.0000000000
     19718       158  QMPE      H8S            49.8784386759      -20.2968719697        7.6478305094  MEMB      158             0.0000000000
     19719       158  QMPE      C29            51.3998405217      -21.8342589707        8.0258179216  MEMB      158             0.0000000000
     19720       158  QMPE      H9R            50.8577797549      -22.7372598328        7.7244093525  MEMB      158             0.0000000000
     19721       158  QMPE      C217           52.8002452303      -21.9581333075        8.6648876993  MEMB      158             0.0000000000
     19722       158  QMPE      H17R           53.3304819339      -21.0743027163        9.0189122142  MEMB      158             0.0000000000
     19723       158  QMPE      H17S           53.1129632362      -22.9648422186        8.8709958569  MEMB      158             0.0000000000
     19724       158  QMPE      C210           52.6546664782      -21.7904462142        7.1879541225  MEMB      158             0.0000000000
     19725       158  QMPE      H10R           52.6844648434      -22.6098043899        6.4691118280  MEMB      158             0.0000000000
     19726       158  QMPE      C211           53.1294179713      -20.5716153977        6.6562002340  MEMB      158             0.0000000000
     19727       158  QMPE      H11R           53.1415882530      -19.7319193342        7.3300894837  MEMB      158             0.0000000000
     19728       158  QMPE      H11S           54.0978947594      -20.4477105087        6.1504671589  MEMB      158             0.0000000000
     19729       158  QMPE      C212           52.0436540986      -20.5133656996        5.6024224755  MEMB      158             0.0000000000
     19730       158  QMPE      H12R           50.9112356642      -20.3892916789        5.7349982656  MEMB      158             0.0000000000
     19731       158  QMPE      H12S           52.2958389574      -21.0134030375        4.6920217000  MEMB      158             0.0000000000
     19732       158  QMPE      C213           52.2251046631      -19.5203159690        5.0816901231  MEMB      158             0.0000000000
     19733       158  QMPE      H13R           53.4701537778      -19.2533230510        4.7020933407  MEMB      158             0.0000000000
     19734       158  QMPE      H13S           52.0168134571      -19.1477080581        6.0519036551  MEMB      158             0.0000000000
     19735       158  QMPE      C214           50.7426460310      -18.9454582928        3.5971508605  MEMB      158             0.0000000000
     19736       158  QMPE      H14R           50.7408646091      -17.8134590956        3.0429249641  MEMB      158             0.0000000000
     19737       158  QMPE      H14S           49.8676975879      -18.6368449602        4.0839665556  MEMB      158             0.0000000000
     19738       158  QMPE      C215           51.0834031421      -19.8535662103        2.3787279498  MEMB      158             0.0000000000
     19739       158  QMPE      H15R           50.4302769291      -19.2326941761        1.7462469962  MEMB      158             0.0000000000
     19740       158  QMPE      H15S           50.8174032635      -20.6622494103        3.0531034726  MEMB      158             0.0000000000
     19741       158  QMPE      C216           52.1999254535      -20.4300565782        1.7488622797  MEMB      158             0.0000000000
     19742       158  QMPE      H16R           52.8109871675      -20.3897292389        2.6599362017  MEMB      158             0.0000000000
     19743       158  QMPE      H16S           52.5167548054      -19.8484430429        0.8606872287  MEMB      158             0.0000000000
     19744       158  QMPE      H16T           52.3060073155      -21.4399738984        1.5708627693  MEMB      158             0.0000000000
     19745       158  QMPE      C33            50.1397189571      -26.7661329968       11.0347854598  MEMB      158             0.0000000000
     19746       158  QMPE      H3X            51.2261335444      -26.9134631044       11.1172025062  MEMB      158             0.0000000000
     19747       158  QMPE      H3Y            49.9639419316      -25.7165690677       11.3083174142  MEMB      158             0.0000000000
     19748       158  QMPE      C34            49.7458739097      -26.8732078310        9.5928352250  MEMB      158             0.0000000000
     19749       158  QMPE      H4X            48.6794699714      -26.8528153402        9.4615816516  MEMB      158             0.0000000000
     19750       158  QMPE      H4Y            50.0032128550      -27.8546273075        9.1941401799  MEMB      158             0.0000000000
     19751       158  QMPE      C35            50.4937132876      -25.6747221774        8.9869326161  MEMB      158             0.0000000000
     19752       158  QMPE      H5X            51.5738057696      -25.6739610434        9.0630318630  MEMB      158             0.0000000000
     19753       158  QMPE      H5Y            50.0335829863      -24.7603777236        9.3466833229  MEMB      158             0.0000000000
     19754       158  QMPE      C36            50.4203295119      -25.4306821260        7.5980923411  MEMB      158             0.0000000000
     19755       158  QMPE      H6X            51.0989008851      -26.1642056704        7.2423028287  MEMB      158             0.0000000000
     19756       158  QMPE      H6Y            50.6693750773      -24.7005639224        6.8584559342  MEMB      158             0.0000000000
     19757       158  QMPE      C37            49.0255947248      -25.4560945177        7.3897689111  MEMB      158             0.0000000000
     19758       158  QMPE      H7X            48.2863708469      -26.3445531148        7.4870560339  MEMB      158             0.0000000000
     19759       158  QMPE      H7Y            48.6546600600      -24.5484238760        7.8521483806  MEMB      158             0.0000000000
     19760       158  QMPE      C38            48.7293629320      -25.5240165449        5.7296842744  MEMB      158             0.0000000000
     19761       158  QMPE      H8X            48.4805312131      -26.4458556449        5.5194788326  MEMB      158             0.0000000000
     19762       158  QMPE      H8Y            47.3361434569      -25.7462404152        5.6823387556  MEMB      158             0.0000000000
     19763       158  QMPE      C39            49.2770685029      -24.4004779702        4.7600671634  MEMB      158             0.0000000000
     19764       158  QMPE      H9X            50.1760057501      -24.8345442770        4.3587880700  MEMB      158             0.0000000000
     19765       158  QMPE      H9Y            49.5245233513      -23.6324633362        5.4152659348  MEMB      158             0.0000000000
     19766       158  QMPE      C310           48.2945521870      -23.8154949375        3.6525052672  MEMB      158             0.0000000000
     19767       158  QMPE      H10X           47.2897873225      -23.7255808658        3.8490453248  MEMB      158             0.0000000000
     19768       158  QMPE      H10Y           47.6368616545      -24.3228039898        2.8675983859  MEMB      158             0.0000000000
     19769       158  QMPE      C311           49.0692215984      -23.1586705296        2.8165800717  MEMB      158             0.0000000000
     19770       158  QMPE      H11X           49.8209866363      -23.3646084356        2.1389421079  MEMB      158             0.0000000000
     19771       158  QMPE      H11Y           49.5959865086      -22.4135925195        3.5997747405  MEMB      158             0.0000000000
     19772       158  QMPE      C312           47.8873318178      -22.8965185469        1.5303885596  MEMB      158             0.0000000000
     19773       158  QMPE      H12X           48.8080962855      -22.1964839236        1.2570036580  MEMB      158             0.0000000000
     19774       158  QMPE      H12Y           46.7970978983      -22.1983660685        1.4171337560  MEMB      158             0.0000000000
     19775       158  QMPE      C313           47.1457022649      -23.2899480690        0.4074518880  MEMB      158             0.0000000000
     19776       158  QMPE      H13X           46.4406115944      -23.9056313882        1.0094029161  MEMB      158             0.0000000000
     19777       158  QMPE      H13Y           46.5550766172      -22.4432720321       -0.1665625880  MEMB      158             0.0000000000
     19778       158  QMPE      C314           48.3734715091      -23.7064797582       -0.2345401888  MEMB      158             0.0000000000
     19779       158  QMPE      H14X           47.9148127169      -24.2200363222       -1.0311927995  MEMB      158             0.0000000000
     19780       158  QMPE      H14Y           48.8562677974      -24.3561770485        0.4418789218  MEMB      158             0.0000000000
     19781       158  QMPE      C315           49.5947837423      -22.8999192360       -0.6837419918  MEMB      158             0.0000000000
     19782       158  QMPE      H15X           49.4319596988      -21.9137296636       -0.9392824689  MEMB      158             0.0000000000
     19783       158  QMPE      H15Y           50.3459087689      -22.6835358184        0.0974111209  MEMB      158             0.0000000000
     19784       158  QMPE      H15Z           49.8778750890      -23.2286199378       -1.6685541037  MEMB      158             0.0000000000
     19785       159  PMPE      N              32.1193375523      -45.2629678453       20.4934181406  MEMB      159             0.0000000000
     19786       159  PMPE      HN1            32.1180905239      -46.2855631762       20.6723589065  MEMB      159             0.0000000000
     19787       159  PMPE      HN2            32.9910963772      -45.0287362976       19.9665569572  MEMB      159             0.0000000000
     19788       159  PMPE      HN3            32.0098416540      -44.8117107523       21.4233547268  MEMB      159             0.0000000000
     19789       159  PMPE      C12            31.0041565089      -44.8799027504       19.5654673427  MEMB      159             0.0000000000
     19790       159  PMPE      H12A           31.2257057111      -43.8591738658       19.2051823313  MEMB      159             0.0000000000
     19791       159  PMPE      H12B           30.0380166769      -44.8945312182       20.1073336084  MEMB      159             0.0000000000
     19792       159  PMPE      C11            30.9984147033      -45.8856424987       18.4363318301  MEMB      159             0.0000000000
     19793       159  PMPE      H11A           32.0381784223      -45.9418111055       18.0323536684  MEMB      159             0.0000000000
     19794       159  PMPE      H11B           30.3761968037      -45.5591549686       17.5784105489  MEMB      159             0.0000000000
     19795       159  PMPE      P              31.3290332795      -48.4264764988       18.7531362113  MEMB      159             0.0000000000
     19796       159  PMPE      O13            30.4545504300      -49.6059218713       18.6494943006  MEMB      159             0.0000000000
     19797       159  PMPE      O14            32.3560150087      -48.3884886532       19.8375865991  MEMB      159             0.0000000000
     19798       159  PMPE      O11            31.9844990073      -48.1193983978       17.3399335411  MEMB      159             0.0000000000
     19799       159  PMPE      O12            30.4991084176      -47.1144237497       18.9627705919  MEMB      159             0.0000000000
     19800       159  PMPE      C1             32.8094748010      -49.1012939643       16.7322634252  MEMB      159             0.0000000000
     19801       159  PMPE      HA             32.4107310010      -50.1088366271       16.9862338657  MEMB      159             0.0000000000
     19802       159  PMPE      HB             33.8496140465      -48.9905148375       17.1134996473  MEMB      159             0.0000000000
     19803       159  PMPE      C2             32.8489063587      -48.9633382745       15.1740379818  MEMB      159             0.0000000000
     19804       159  PMPE      HS             33.0793478484      -47.9029946615       14.9370234891  MEMB      159             0.0000000000
     19805       159  PMPE      O21            31.5921693372      -49.3256274755       14.6309799590  MEMB      159             0.0000000000
     19806       159  PMPE      C21            30.8068862600      -48.3252037686       14.2999512773  MEMB      159             0.0000000000
     19807       159  PMPE      O22            31.0512368860      -47.1417503051       14.2350484236  MEMB      159             0.0000000000
     19808       159  PMPE      C22            29.4961563798      -48.9175951439       14.0011156712  MEMB      159             0.0000000000
     19809       159  PMPE      H2R            28.7476203381      -48.2445222862       14.3005919555  MEMB      159             0.0000000000
     19810       159  PMPE      H2S            29.2793579121      -49.6159598658       14.8000579012  MEMB      159             0.0000000000
     19811       159  PMPE      C3             33.9116701517      -49.9332962098       14.5483827805  MEMB      159             0.0000000000
     19812       159  PMPE      HX             33.5953286056      -50.9776021143       14.7716006741  MEMB      159             0.0000000000
     19813       159  PMPE      HY             34.8799090842      -49.7766308895       15.0620355340  MEMB      159             0.0000000000
     19814       159  PMPE      O31            34.0777002730      -49.8662608764       13.1101902870  MEMB      159             0.0000000000
     19815       159  PMPE      C31            34.7088073981      -48.7746271923       12.6621094919  MEMB      159             0.0000000000
     19816       159  PMPE      O32            35.1183653896      -47.8792242879       13.3788480796  MEMB      159             0.0000000000
     19817       159  PMPE      C32            34.9686555952      -48.8832672396       11.1303593446  MEMB      159             0.0000000000
     19818       159  PMPE      H2X            34.4780252900      -49.7932791598       10.7267223289  MEMB      159             0.0000000000
     19819       159  PMPE      H2Y            36.0763294716      -48.9797689395       11.0054483565  MEMB      159             0.0000000000
     19820       159  PMPE      C23            29.4533880285      -49.4657352967       12.5850203242  MEMB      159             0.0000000000
     19821       159  PMPE      H3R            29.4160780236      -50.4420606485       12.6433865612  MEMB      159             0.0000000000
     19822       159  PMPE      H3S            30.2601536473      -49.3224271078       11.8974475495  MEMB      159             0.0000000000
     19823       159  PMPE      C24            28.2244876040      -49.3954114742       11.8883753648  MEMB      159             0.0000000000
     19824       159  PMPE      H4R            28.5009458748      -48.3127739881       11.7378444371  MEMB      159             0.0000000000
     19825       159  PMPE      H4S            27.3283855759      -49.4809254641       12.5208707756  MEMB      159             0.0000000000
     19826       159  PMPE      C25            27.8475998216      -50.2467882719       10.6400226525  MEMB      159             0.0000000000
     19827       159  PMPE      H5R            26.8300950094      -50.1177068705       10.1922443823  MEMB      159             0.0000000000
     19828       159  PMPE      H5S            27.6399011228      -51.1984457144       11.0282946966  MEMB      159             0.0000000000
     19829       159  PMPE      C26            28.7983827236      -50.1034121978        9.4797865617  MEMB      159             0.0000000000
     19830       159  PMPE      H6R            29.8570338838      -50.0608607107        9.8268612855  MEMB      159             0.0000000000
     19831       159  PMPE      H6S            28.5055615573      -49.1213710424        9.0757646078  MEMB      159             0.0000000000
     19832       159  PMPE      C27            28.5607700731      -51.1908293310        8.4220839628  MEMB      159             0.0000000000
     19833       159  PMPE      H7R            27.4973472854      -51.3822025007        8.2296829109  MEMB      159             0.0000000000
     19834       159  PMPE      H7S            28.9448236433      -52.1439552639        8.7054153574  MEMB      159             0.0000000000
     19835       159  PMPE      C28            29.3660134196      -51.1126009831        7.1824023634  MEMB      159             0.0000000000
     19836       159  PMPE      H8R            29.3083342051      -52.0836321253        6.6173201537  MEMB      159             0.0000000000
     19837       159  PMPE      H8S            30.4141822906      -50.9408413969        7.4333112148  MEMB      159             0.0000000000
     19838       159  PMPE      C29            28.7486840538      -49.9830886384        6.5442026875  MEMB      159             0.0000000000
     19839       159  PMPE      H9R            28.6354642981      -48.9506813053        6.9071663852  MEMB      159             0.0000000000
     19840       159  PMPE      C217           27.4829524986      -50.4244929988        5.9394793276  MEMB      159             0.0000000000
     19841       159  PMPE      H17R           26.7986533530      -49.6536797368        5.7654461735  MEMB      159             0.0000000000
     19842       159  PMPE      H17S           27.2000506744      -51.3530883653        5.4963874748  MEMB      159             0.0000000000
     19843       159  PMPE      C210           28.8045988513      -50.0718558892        5.1897518038  MEMB      159             0.0000000000
     19844       159  PMPE      H10R           28.9566027782      -49.0154972956        4.9285349964  MEMB      159             0.0000000000
     19845       159  PMPE      C211           29.7296535938      -51.1544626435        4.6182263847  MEMB      159             0.0000000000
     19846       159  PMPE      H11R           29.7492905476      -51.2641593937        3.6096465921  MEMB      159             0.0000000000
     19847       159  PMPE      H11S           29.3327301254      -52.1395922699        4.5549485192  MEMB      159             0.0000000000
     19848       159  PMPE      C212           31.0271064655      -50.8023561801        3.9801290291  MEMB      159             0.0000000000
     19849       159  PMPE      H12R           31.2955982508      -50.3140603777        4.8993958328  MEMB      159             0.0000000000
     19850       159  PMPE      H12S           31.1108594559      -50.1140557857        3.0842338821  MEMB      159             0.0000000000
     19851       159  PMPE      C213           31.6879824638      -52.1048976307        3.7974879215  MEMB      159             0.0000000000
     19852       159  PMPE      H13R           31.3566910337      -52.8568948215        4.5404897806  MEMB      159             0.0000000000
     19853       159  PMPE      H13S           32.6395748759      -51.7243338111        4.1528338420  MEMB      159             0.0000000000
     19854       159  PMPE      C214           31.8586332941      -52.7113125077        2.4079946093  MEMB      159             0.0000000000
     19855       159  PMPE      H14R           32.3744612538      -53.6756945238        2.5332505642  MEMB      159             0.0000000000
     19856       159  PMPE      H14S           32.3918065684      -51.9784088424        1.7855346975  MEMB      159             0.0000000000
     19857       159  PMPE      C215           30.6979505522      -53.2725686833        1.6657501262  MEMB      159             0.0000000000
     19858       159  PMPE      H15R           30.0607764663      -52.5146432884        1.2571165527  MEMB      159             0.0000000000
     19859       159  PMPE      H15S           30.2936800218      -54.0060199106        2.3670083791  MEMB      159             0.0000000000
     19860       159  PMPE      C216           30.6930062180      -54.2272872372        0.5937955919  MEMB      159             0.0000000000
     19861       159  PMPE      H16R           31.4224165537      -55.0046827353        0.8477012559  MEMB      159             0.0000000000
     19862       159  PMPE      H16S           30.1947756510      -54.8455354839        0.0001016416  MEMB      159             0.0000000000
     19863       159  PMPE      H16T           30.8510065881      -53.5958494100       -0.2988430248  MEMB      159             0.0000000000
     19864       159  PMPE      C33            34.6043819807      -47.6152231424       10.2955633002  MEMB      159             0.0000000000
     19865       159  PMPE      H3X            35.0260476603      -47.7695613264        9.2656750262  MEMB      159             0.0000000000
     19866       159  PMPE      H3Y            35.1364542748      -46.7715211215       10.7948183711  MEMB      159             0.0000000000
     19867       159  PMPE      C34            33.1145557024      -47.2035006720       10.2215232658  MEMB      159             0.0000000000
     19868       159  PMPE      H4X            33.0513548653      -46.0949473924       10.0788194255  MEMB      159             0.0000000000
     19869       159  PMPE      H4Y            32.5972349290      -47.3774137323       11.1848181974  MEMB      159             0.0000000000
     19870       159  PMPE      C35            32.3400967562      -47.9213277712        9.1113067721  MEMB      159             0.0000000000
     19871       159  PMPE      H5X            31.2790292366      -47.5843924211        9.1394831420  MEMB      159             0.0000000000
     19872       159  PMPE      H5Y            32.3293950877      -49.0174062378        9.3220699644  MEMB      159             0.0000000000
     19873       159  PMPE      C36            33.0092387059      -47.7378349471        7.7472841097  MEMB      159             0.0000000000
     19874       159  PMPE      H6X            33.7142758877      -48.5983022756        7.6136845705  MEMB      159             0.0000000000
     19875       159  PMPE      H6Y            33.5140249834      -46.7443878425        7.6367511570  MEMB      159             0.0000000000
     19876       159  PMPE      C37            32.0702275786      -47.7949925274        6.5683042875  MEMB      159             0.0000000000
     19877       159  PMPE      H7X            31.2594414216      -47.0445199953        6.6819251805  MEMB      159             0.0000000000
     19878       159  PMPE      H7Y            31.5942612369      -48.7946476173        6.5436128396  MEMB      159             0.0000000000
     19879       159  PMPE      C38            32.8220574250      -47.5479553780        5.2554153020  MEMB      159             0.0000000000
     19880       159  PMPE      H8X            33.3711847034      -48.4617975933        4.9564948977  MEMB      159             0.0000000000
     19881       159  PMPE      H8Y            33.5560017823      -46.7129428906        5.3292760493  MEMB      159             0.0000000000
     19882       159  PMPE      C39            31.8533362582      -47.0571200317        4.2081390475  MEMB      159             0.0000000000
     19883       159  PMPE      H9X            31.7269931052      -45.9867003487        4.5349138539  MEMB      159             0.0000000000
     19884       159  PMPE      H9Y            30.8611547824      -47.5098644486        4.3656209056  MEMB      159             0.0000000000
     19885       159  PMPE      C310           32.3289320554      -47.1710019287        2.7080714786  MEMB      159             0.0000000000
     19886       159  PMPE      H10X           32.7359650723      -48.1407903595        2.4796595986  MEMB      159             0.0000000000
     19887       159  PMPE      H10Y           33.1106530734      -46.3786117440        2.5527044159  MEMB      159             0.0000000000
     19888       159  PMPE      C311           31.2765298022      -46.9799416725        1.5591163479  MEMB      159             0.0000000000
     19889       159  PMPE      H11X           30.3971246562      -46.4758282118        1.8968654221  MEMB      159             0.0000000000
     19890       159  PMPE      H11Y           30.6153755261      -47.7854169450        1.3880439337  MEMB      159             0.0000000000
     19891       159  PMPE      C312           31.8489353836      -46.3254724911        0.3176732441  MEMB      159             0.0000000000
     19892       159  PMPE      H12X           32.6940376402      -45.6713501900        0.5734909551  MEMB      159             0.0000000000
     19893       159  PMPE      H12Y           31.1726354711      -45.6674460981       -0.3128186154  MEMB      159             0.0000000000
     19894       159  PMPE      C313           32.2409222421      -47.4783388906       -0.4438160440  MEMB      159             0.0000000000
     19895       159  PMPE      H13X           32.3835223096      -48.4902311319        0.0098446818  MEMB      159             0.0000000000
     19896       159  PMPE      H13Y           33.1730917094      -47.2122335026       -1.0451591904  MEMB      159             0.0000000000
     19897       159  PMPE      C314           31.1538629926      -47.5658875374       -1.3871531907  MEMB      159             0.0000000000
     19898       159  PMPE      H14X           32.0011515465      -48.2021411477       -1.7742213994  MEMB      159             0.0000000000
     19899       159  PMPE      H14Y           31.1608025061      -46.7744573090       -2.1871701597  MEMB      159             0.0000000000
     19900       159  PMPE      C315           29.6384963057      -48.2075803565       -1.3388049095  MEMB      159             0.0000000000
     19901       159  PMPE      H15X           29.1197137983      -47.5211078321       -0.6956069831  MEMB      159             0.0000000000
     19902       159  PMPE      H15Y           29.4965790704      -49.1836925584       -0.8303246117  MEMB      159             0.0000000000
     19903       159  PMPE      C316           28.7074129886      -48.3647493219       -2.6502476286  MEMB      159             0.0000000000
     19904       159  PMPE      H16X           28.8644717280      -49.3332207343       -3.2035085099  MEMB      159             0.0000000000
     19905       159  PMPE      H16Y           28.8985787099      -47.5963388016       -3.4466428418  MEMB      159             0.0000000000
     19906       159  PMPE      H16Z           27.6797858221      -48.6154385052       -2.5186858395  MEMB      159             0.0000000000
     19907       160  POPE      N             -55.8653358008      -10.2771337352       20.8942186838  MEMB      160             0.0000000000
     19908       160  POPE      HN1           -56.5115685678       -9.4520139207       21.0729666267  MEMB      160             0.0000000000
     19909       160  POPE      HN2           -56.3583749854      -10.8835818722       21.5976708705  MEMB      160             0.0000000000
     19910       160  POPE      HN3           -54.9972878345       -9.9916864313       21.3567213185  MEMB      160             0.0000000000
     19911       160  POPE      C12           -56.1092234733      -10.4932503613       19.4800612598  MEMB      160             0.0000000000
     19912       160  POPE      H12A          -57.1535693471      -10.8572423696       19.3970703378  MEMB      160             0.0000000000
     19913       160  POPE      H12B          -55.4241051913      -11.3008625732       19.2217171668  MEMB      160             0.0000000000
     19914       160  POPE      C11           -55.9139409835       -9.2255128170       18.6168724643  MEMB      160             0.0000000000
     19915       160  POPE      H11A          -56.4328429512       -9.4165730181       17.6597089046  MEMB      160             0.0000000000
     19916       160  POPE      H11B          -54.8740875050       -8.9343748151       18.4649621945  MEMB      160             0.0000000000
     19917       160  POPE      P             -56.5054865577       -6.6519454421       18.5169513455  MEMB      160             0.0000000000
     19918       160  POPE      O13           -55.1572180843       -6.3347867480       18.0628312033  MEMB      160             0.0000000000
     19919       160  POPE      O14           -57.2074064729       -5.7765265086       19.4609424414  MEMB      160             0.0000000000
     19920       160  POPE      O11           -57.4337478695       -6.9984535026       17.2937941593  MEMB      160             0.0000000000
     19921       160  POPE      O12           -56.3972154571       -8.0612793834       19.1672216836  MEMB      160             0.0000000000
     19922       160  POPE      C1            -57.7415926432       -5.8972996439       16.4281484120  MEMB      160             0.0000000000
     19923       160  POPE      HA            -57.0131810218       -5.0530326581       16.5037153868  MEMB      160             0.0000000000
     19924       160  POPE      HB            -58.7597366573       -5.5170621650       16.6896263166  MEMB      160             0.0000000000
     19925       160  POPE      C2            -57.7283336542       -6.2984607652       14.9364505861  MEMB      160             0.0000000000
     19926       160  POPE      HS            -58.1454261087       -5.3919873473       14.4209198766  MEMB      160             0.0000000000
     19927       160  POPE      O21           -58.5869336664       -7.4394010659       14.7804221779  MEMB      160             0.0000000000
     19928       160  POPE      C21           -58.9788471636       -7.5816397251       13.5364655585  MEMB      160             0.0000000000
     19929       160  POPE      O22           -58.7259839381       -6.8291305279       12.6154528289  MEMB      160             0.0000000000
     19930       160  POPE      C22           -59.9063072967       -8.7751611198       13.4388341276  MEMB      160             0.0000000000
     19931       160  POPE      H2R           -60.9483576001       -8.4106343729       13.3055329770  MEMB      160             0.0000000000
     19932       160  POPE      H2S           -59.8434844645       -9.3822631223       14.3701856859  MEMB      160             0.0000000000
     19933       160  POPE      C3            -56.3082846441       -6.6225963908       14.3624310089  MEMB      160             0.0000000000
     19934       160  POPE      HX            -55.6264911445       -5.8018751910       14.6910725100  MEMB      160             0.0000000000
     19935       160  POPE      HY            -56.3788324019       -6.5914003671       13.2508257588  MEMB      160             0.0000000000
     19936       160  POPE      O31           -55.8800004062       -7.9426002459       14.7806842599  MEMB      160             0.0000000000
     19937       160  POPE      C31           -54.6359399065       -8.2877908821       14.4243010597  MEMB      160             0.0000000000
     19938       160  POPE      O32           -53.8176976623       -7.5958237426       13.8773120371  MEMB      160             0.0000000000
     19939       160  POPE      C32           -54.2982467278       -9.6839841915       14.7737519350  MEMB      160             0.0000000000
     19940       160  POPE      H2X           -55.2637513611      -10.0296899281       14.6764484297  MEMB      160             0.0000000000
     19941       160  POPE      H2Y           -54.2183507224       -9.9909383489       15.8065673805  MEMB      160             0.0000000000
     19942       160  POPE      C23           -59.5087324719       -9.6264621056       12.2313233757  MEMB      160             0.0000000000
     19943       160  POPE      H3R           -59.3854149655       -9.1127495666       11.2587930190  MEMB      160             0.0000000000
     19944       160  POPE      H3S           -60.3180137892      -10.3201077300       12.0373398068  MEMB      160             0.0000000000
     19945       160  POPE      C24           -58.3216740755      -10.4951647844       12.5521448432  MEMB      160             0.0000000000
     19946       160  POPE      H4R           -58.4761468416      -11.0082005376       13.5251664743  MEMB      160             0.0000000000
     19947       160  POPE      H4S           -57.3941219072       -9.9056026259       12.6837930848  MEMB      160             0.0000000000
     19948       160  POPE      C25           -58.1898346498      -11.6191914891       11.5769297704  MEMB      160             0.0000000000
     19949       160  POPE      H5R           -59.0444833673      -12.2634049647       11.4532154293  MEMB      160             0.0000000000
     19950       160  POPE      H5S           -57.7600050975      -12.4404160420       12.1523321401  MEMB      160             0.0000000000
     19951       160  POPE      C26           -57.6330090656      -11.2275542529       10.2369685902  MEMB      160             0.0000000000
     19952       160  POPE      H6R           -56.5675479380      -10.8730826596       10.1227108847  MEMB      160             0.0000000000
     19953       160  POPE      H6S           -58.2108148265      -10.3951644868        9.8068481112  MEMB      160             0.0000000000
     19954       160  POPE      C27           -58.1086315340      -12.2612949364        9.3260863923  MEMB      160             0.0000000000
     19955       160  POPE      H7R           -58.9804723697      -12.8733360519        9.2623016942  MEMB      160             0.0000000000
     19956       160  POPE      H7S           -57.5312172951      -13.1621623341        9.3994464280  MEMB      160             0.0000000000
     19957       160  POPE      C28           -58.0085811211      -11.6062223053        7.9809476024  MEMB      160             0.0000000000
     19958       160  POPE      H8R           -56.9429376397      -10.9431959752        8.0478530792  MEMB      160             0.0000000000
     19959       160  POPE      H8S           -58.1601730923      -10.6618340286        7.7249239319  MEMB      160             0.0000000000
     19960       160  POPE      C29           -57.9851487437      -13.2992170390        5.8962338818  MEMB      160             0.0000000000
     19961       160  POPE      H91           -58.8165270840      -13.9204389090        6.2809427800  MEMB      160             0.0000000000
     19962       160  POPE      C210          -57.0097350905      -13.4224179041        5.0016556435  MEMB      160             0.0000000000
     19963       160  POPE      H101          -57.2281268683      -14.2692263426        4.4771937978  MEMB      160             0.0000000000
     19964       160  POPE      C211          -55.5473162007      -12.6524193182        4.9541839699  MEMB      160             0.0000000000
     19965       160  POPE      H11R          -54.7676707489      -13.3251932705        4.6591501522  MEMB      160             0.0000000000
     19966       160  POPE      H11S          -54.9733894097      -12.2230041961        5.8819010369  MEMB      160             0.0000000000
     19967       160  POPE      C212          -55.6414943410      -11.6408482963        4.1424743533  MEMB      160             0.0000000000
     19968       160  POPE      H12R          -54.7768545133      -11.0530159910        3.8607395146  MEMB      160             0.0000000000
     19969       160  POPE      H12S          -56.2817543623      -10.8245072066        4.6115049926  MEMB      160             0.0000000000
     19970       160  POPE      C213          -56.0747487245      -12.5892470907        3.0272253204  MEMB      160             0.0000000000
     19971       160  POPE      H13R          -57.1349785123      -12.9563813408        2.9409080276  MEMB      160             0.0000000000
     19972       160  POPE      H13S          -55.6148026380      -13.4857889616        2.6583156454  MEMB      160             0.0000000000
     19973       160  POPE      C214          -55.8147513644      -11.7741241916        2.1945608610  MEMB      160             0.0000000000
     19974       160  POPE      H14R          -54.7887221957      -11.6142122619        2.1186823405  MEMB      160             0.0000000000
     19975       160  POPE      H14S          -56.1564451799       -9.7841685227        2.3573192768  MEMB      160             0.0000000000
     19976       160  POPE      C215          -56.8213145472      -12.1548124007        0.5518812991  MEMB      160             0.0000000000
     19977       160  POPE      H15R          -57.7908770289      -12.5250331543        0.5130335157  MEMB      160             0.0000000000
     19978       160  POPE      H15S          -56.4724647177      -13.1335499526        1.0245435544  MEMB      160             0.0000000000
     19979       160  POPE      C216          -56.4656234377      -11.1565033888       -1.0783285725  MEMB      160             0.0000000000
     19980       160  POPE      H16R          -56.3063198680      -11.9075569010       -2.0198240541  MEMB      160             0.0000000000
     19981       160  POPE      H16S          -55.4237580050      -10.9583945140       -1.3325172945  MEMB      160             0.0000000000
     19982       160  POPE      C217          -57.6951354360       -9.6731062534       -0.5555285282  MEMB      160             0.0000000000
     19983       160  POPE      H17R          -57.3417973713       -8.8647074657       -0.2503311807  MEMB      160             0.0000000000
     19984       160  POPE      H17S          -58.8674551895       -9.6864602642       -0.1849444374  MEMB      160             0.0000000000
     19985       160  POPE      C218          -57.1591736089       -9.2991288382       -1.8465931638  MEMB      160             0.0000000000
     19986       160  POPE      H18R          -57.9030544532       -8.7390464091       -2.1814998551  MEMB      160             0.0000000000
     19987       160  POPE      H18S          -57.3281524874       -9.7971000996       -2.7532498454  MEMB      160             0.0000000000
     19988       160  POPE      H18T          -56.3907749263       -9.2995596248       -2.5620451562  MEMB      160             0.0000000000
     19989       160  POPE      C33           -53.1320915558      -10.3322661309       13.9775313921  MEMB      160             0.0000000000
     19990       160  POPE      H3X           -52.9435998416      -11.3907469488       14.3392722325  MEMB      160             0.0000000000
     19991       160  POPE      H3Y           -52.2421326742       -9.7685269487       14.1313744365  MEMB      160             0.0000000000
     19992       160  POPE      C34           -53.2625669562      -10.3874307089       12.4801225472  MEMB      160             0.0000000000
     19993       160  POPE      H4X           -53.8245973048       -9.6587048738       11.9144162682  MEMB      160             0.0000000000
     19994       160  POPE      H4Y           -53.8149010061      -11.1696329305       12.5612803895  MEMB      160             0.0000000000
     19995       160  POPE      C35           -52.3459919071      -11.2623885857       11.6961293111  MEMB      160             0.0000000000
     19996       160  POPE      H5X           -52.1607545515      -12.2827652402       12.1016465923  MEMB      160             0.0000000000
     19997       160  POPE      H5Y           -51.4161697676      -10.7883459260       11.7844566605  MEMB      160             0.0000000000
     19998       160  POPE      C36           -52.4872495064      -11.2561333763       10.2038365952  MEMB      160             0.0000000000
     19999       160  POPE      H6X           -52.8970624200      -12.0816709451       10.0175846312  MEMB      160             0.0000000000
     20000       160  POPE      H6Y           -51.7813152821      -11.9552966927        9.7688305043  MEMB      160             0.0000000000
     20001       160  POPE      C37           -53.2959710419      -10.2462436334        9.3897047345  MEMB      160             0.0000000000
     20002       160  POPE      H7X           -52.6480345971       -9.3611764145        9.4086402274  MEMB      160             0.0000000000
     20003       160  POPE      H7Y           -54.2651940843      -10.0087015914        9.8855094200  MEMB      160             0.0000000000
     20004       160  POPE      C38           -53.5482279533      -10.6937924015        7.9380286610  MEMB      160             0.0000000000
     20005       160  POPE      H8X           -54.2770417203      -11.5198150370        7.9465413147  MEMB      160             0.0000000000
     20006       160  POPE      H8Y           -52.6202232800      -11.0717443174        7.4740094093  MEMB      160             0.0000000000
     20007       160  POPE      C39           -54.0625304703       -9.6392875598        6.9706539314  MEMB      160             0.0000000000
     20008       160  POPE      H9X           -54.7936809714       -8.9850220311        7.5142098324  MEMB      160             0.0000000000
     20009       160  POPE      H9Y           -54.3840668622      -10.1761154177        6.0724481064  MEMB      160             0.0000000000
     20010       160  POPE      C310          -53.0475476050       -8.7358357194        6.4486867481  MEMB      160             0.0000000000
     20011       160  POPE      H10X          -52.0149392298       -9.1205711761        6.2140095179  MEMB      160             0.0000000000
     20012       160  POPE      H10Y          -53.0583440935       -8.2387586333        7.4647306636  MEMB      160             0.0000000000
     20013       160  POPE      C311          -53.4296522362       -7.6699722981        5.4613868188  MEMB      160             0.0000000000
     20014       160  POPE      H11X          -52.6262181688       -6.8558098278        5.3838489544  MEMB      160             0.0000000000
     20015       160  POPE      H11Y          -54.3642525372       -7.1458299957        5.7044302377  MEMB      160             0.0000000000
     20016       160  POPE      C312          -53.7803022478       -8.4297283034        4.1760380577  MEMB      160             0.0000000000
     20017       160  POPE      H12X          -54.7541693653       -8.8772789433        4.2164116024  MEMB      160             0.0000000000
     20018       160  POPE      H12Y          -52.9463361820       -9.0596264986        3.7826509345  MEMB      160             0.0000000000
     20019       160  POPE      C313          -54.1163225905       -7.6665188673        3.0565905598  MEMB      160             0.0000000000
     20020       160  POPE      H13X          -53.2929082334       -7.0277649060        3.6589132444  MEMB      160             0.0000000000
     20021       160  POPE      H13Y          -54.8420871086       -6.9226937613        2.7261187793  MEMB      160             0.0000000000
     20022       160  POPE      C314          -53.7768428033       -8.4186329944        1.6656183553  MEMB      160             0.0000000000
     20023       160  POPE      H14X          -54.5143261771       -8.7619858847        1.8347859489  MEMB      160             0.0000000000
     20024       160  POPE      H14Y          -52.9036413278       -9.0606646565        1.5527539671  MEMB      160             0.0000000000
     20025       160  POPE      C315          -54.0595495920       -7.8174702746        0.3541062131  MEMB      160             0.0000000000
     20026       160  POPE      H15X          -53.8187236481       -8.4957775936       -0.3692297788  MEMB      160             0.0000000000
     20027       160  POPE      H15Y          -53.2868644563       -7.2818873985        0.1933708187  MEMB      160             0.0000000000
     20028       160  POPE      C316          -54.9507093555       -6.7999415297        0.0540619121  MEMB      160             0.0000000000
     20029       160  POPE      H16X          -55.0929191321       -5.8624343659        0.5193584748  MEMB      160             0.0000000000
     20030       160  POPE      H16Y          -55.7669797996       -7.5254185643       -0.0108932236  MEMB      160             0.0000000000
     20031       160  POPE      H16Z          -54.6847828687       -6.3799463744       -0.9709033817  MEMB      160             0.0000000000
     20032       161  PMPG      C13           -42.5796728540      -36.3577766729       21.1685681065  MEMB      161             0.0000000000
     20033       161  PMPG      H13A          -43.1518187455      -35.5270726073       21.6325347840  MEMB      161             0.0000000000
     20034       161  PMPG      H13B          -43.0789003332      -37.2708905949       21.5434501242  MEMB      161             0.0000000000
     20035       161  PMPG      OC3           -41.2396879667      -36.3382836691       21.6458851009  MEMB      161             0.0000000000
     20036       161  PMPG      HO3           -40.9210879566      -37.2003890786       21.3832534614  MEMB      161             0.0000000000
     20037       161  PMPG      C12           -42.6235447429      -36.2011267982       19.6147107371  MEMB      161             0.0000000000
     20038       161  PMPG      H12A          -42.0513070039      -35.3161601371       19.3514027919  MEMB      161             0.0000000000
     20039       161  PMPG      OC2           -43.9522357126      -35.9518536810       19.2066518712  MEMB      161             0.0000000000
     20040       161  PMPG      HO2           -43.9138353401      -36.0113730877       18.2475303088  MEMB      161             0.0000000000
     20041       161  PMPG      C11           -42.0530271609      -37.2843841817       18.6749215328  MEMB      161             0.0000000000
     20042       161  PMPG      H11A          -40.9704366264      -37.4892849347       18.7515481343  MEMB      161             0.0000000000
     20043       161  PMPG      H11B          -42.2544484217      -36.9530782403       17.6132340796  MEMB      161             0.0000000000
     20044       161  PMPG      P             -42.8447036847      -39.5748461896       17.8991457893  MEMB      161             0.0000000000
     20045       161  PMPG      O13           -43.7194887970      -39.0489815695       16.8358557094  MEMB      161             0.0000000000
     20046       161  PMPG      O14           -43.2118092575      -40.8034217695       18.6113206363  MEMB      161             0.0000000000
     20047       161  PMPG      O11           -41.3592138882      -39.6358582278       17.3678889735  MEMB      161             0.0000000000
     20048       161  PMPG      O12           -42.6927641852      -38.4863000009       18.9955507974  MEMB      161             0.0000000000
     20049       161  PMPG      C1            -40.3808025644      -40.1774351196       18.2318804406  MEMB      161             0.0000000000
     20050       161  PMPG      HA            -40.7597415554      -40.6629200638       19.1516048914  MEMB      161             0.0000000000
     20051       161  PMPG      HB            -39.7184070621      -39.3619894332       18.5552393874  MEMB      161             0.0000000000
     20052       161  PMPG      C2            -39.6510110640      -41.1744719609       17.4478210585  MEMB      161             0.0000000000
     20053       161  PMPG      HS            -38.7084991828      -41.3772917402       18.0383892639  MEMB      161             0.0000000000
     20054       161  PMPG      O21           -39.3515741516      -40.5204063586       16.1546689656  MEMB      161             0.0000000000
     20055       161  PMPG      C21           -38.2002748317      -39.7454571208       16.1540571078  MEMB      161             0.0000000000
     20056       161  PMPG      O22           -37.4344159379      -39.7048746418       17.0999203777  MEMB      161             0.0000000000
     20057       161  PMPG      C22           -37.7970694567      -39.5027322974       14.6806544583  MEMB      161             0.0000000000
     20058       161  PMPG      H2R           -36.8809321153      -40.1048985474       14.4338044483  MEMB      161             0.0000000000
     20059       161  PMPG      H2S           -37.5399757867      -38.4391805798       14.6569460517  MEMB      161             0.0000000000
     20060       161  PMPG      C3            -40.4843727634      -42.5482733441       17.2859293189  MEMB      161             0.0000000000
     20061       161  PMPG      HX            -40.5848755979      -43.2041064183       18.1518635990  MEMB      161             0.0000000000
     20062       161  PMPG      HY            -39.9579770152      -43.3173539741       16.6897768125  MEMB      161             0.0000000000
     20063       161  PMPG      O31           -41.7850879179      -42.3135069204       16.9144031580  MEMB      161             0.0000000000
     20064       161  PMPG      C31           -41.8188344723      -42.3151191780       15.7085898680  MEMB      161             0.0000000000
     20065       161  PMPG      O32           -41.0849306318      -42.7344907613       14.9299503381  MEMB      161             0.0000000000
     20066       161  PMPG      C32           -42.9022722578      -41.9898498700       15.1807271878  MEMB      161             0.0000000000
     20067       161  PMPG      H2X           -43.6971086201      -41.8819590978       15.9761527695  MEMB      161             0.0000000000
     20068       161  PMPG      H2Y           -42.9905468772      -43.0779351724       14.5777199903  MEMB      161             0.0000000000
     20069       161  PMPG      C23           -38.9308002632      -39.7648767227       13.6429932719  MEMB      161             0.0000000000
     20070       161  PMPG      H3R           -39.8732331087      -39.2805428670       13.8208875659  MEMB      161             0.0000000000
     20071       161  PMPG      H3S           -39.4291655836      -40.7066851272       13.8157474538  MEMB      161             0.0000000000
     20072       161  PMPG      C24           -38.5057673732      -39.5005624247       12.1933272764  MEMB      161             0.0000000000
     20073       161  PMPG      H4R           -37.4882696169      -39.9103991500       11.9948188965  MEMB      161             0.0000000000
     20074       161  PMPG      H4S           -38.5177119942      -38.3962659308       12.1606563144  MEMB      161             0.0000000000
     20075       161  PMPG      C25           -39.4158465074      -40.0070482762       11.0775020402  MEMB      161             0.0000000000
     20076       161  PMPG      H5R           -39.1550306416      -39.4872221425       10.1221586187  MEMB      161             0.0000000000
     20077       161  PMPG      H5S           -40.4765107835      -39.8114786269       11.3295624921  MEMB      161             0.0000000000
     20078       161  PMPG      C26           -39.1492680394      -41.4587993919       10.8143282756  MEMB      161             0.0000000000
     20079       161  PMPG      H6R           -39.3214887355      -42.0619328449       11.6291647402  MEMB      161             0.0000000000
     20080       161  PMPG      H6S           -38.0678592662      -41.6644476693       10.7293739104  MEMB      161             0.0000000000
     20081       161  PMPG      C27           -39.9855078631      -42.0570734784        9.7458137882  MEMB      161             0.0000000000
     20082       161  PMPG      H7R           -39.6177479767      -43.0512808661        9.6666411275  MEMB      161             0.0000000000
     20083       161  PMPG      H7S           -39.6516192869      -41.7259710006        8.7874516551  MEMB      161             0.0000000000
     20084       161  PMPG      C28           -41.4757187993      -42.0963883454        9.8953918003  MEMB      161             0.0000000000
     20085       161  PMPG      H8R           -42.0456123745      -41.1812317847        9.8023518946  MEMB      161             0.0000000000
     20086       161  PMPG      H8S           -41.8075262857      -42.4590165646       10.9287953210  MEMB      161             0.0000000000
     20087       161  PMPG      C29           -41.8572029997      -43.1284017842        8.8046615953  MEMB      161             0.0000000000
     20088       161  PMPG      H9R           -42.3958312536      -43.8734236144        9.3635406277  MEMB      161             0.0000000000
     20089       161  PMPG      C217          -42.9035748519      -42.5648753649        7.9497955999  MEMB      161             0.0000000000
     20090       161  PMPG      H17R          -43.6609234406      -43.3445915092        7.6806647748  MEMB      161             0.0000000000
     20091       161  PMPG      H17S          -43.1672007065      -41.5558645725        8.2880269366  MEMB      161             0.0000000000
     20092       161  PMPG      C210          -41.8783794019      -42.9839775390        7.2926707896  MEMB      161             0.0000000000
     20093       161  PMPG      H10R          -42.3147479553      -43.8412962793        6.6968251179  MEMB      161             0.0000000000
     20094       161  PMPG      C211          -41.4812722453      -41.6647092828        6.7799210936  MEMB      161             0.0000000000
     20095       161  PMPG      H11R          -41.5896108713      -40.8501782894        7.5501623787  MEMB      161             0.0000000000
     20096       161  PMPG      H11S          -40.4124396308      -41.8214047824        6.6106712620  MEMB      161             0.0000000000
     20097       161  PMPG      C212          -42.1452642021      -41.3852300036        5.4559946881  MEMB      161             0.0000000000
     20098       161  PMPG      H12R          -43.0954755296      -40.8473264327        5.5374416255  MEMB      161             0.0000000000
     20099       161  PMPG      H12S          -42.3637529183      -42.3553360027        4.9643798412  MEMB      161             0.0000000000
     20100       161  PMPG      C213          -41.1646606117      -40.6391948683        4.5764039889  MEMB      161             0.0000000000
     20101       161  PMPG      H13R          -40.2496263239      -41.2532050048        4.4216820989  MEMB      161             0.0000000000
     20102       161  PMPG      H13S          -40.8354847783      -39.7252945204        5.1073624935  MEMB      161             0.0000000000
     20103       161  PMPG      C214          -41.6877738068      -40.3508936246        3.1728196691  MEMB      161             0.0000000000
     20104       161  PMPG      H14R          -42.4560318748      -39.5646218623        3.1392516682  MEMB      161             0.0000000000
     20105       161  PMPG      H14S          -42.1753288978      -41.2623134020        2.7722375724  MEMB      161             0.0000000000
     20106       161  PMPG      C215          -40.5558799242      -39.9584960544        2.2314515783  MEMB      161             0.0000000000
     20107       161  PMPG      H15R          -39.9038321787      -40.8491120676        2.1793745453  MEMB      161             0.0000000000
     20108       161  PMPG      H15S          -39.9780262247      -39.1097221885        2.6676268036  MEMB      161             0.0000000000
     20109       161  PMPG      C216          -40.9822474833      -39.6701907565        0.7944331991  MEMB      161             0.0000000000
     20110       161  PMPG      H16R          -41.8634291921      -38.9994964069        0.7232337599  MEMB      161             0.0000000000
     20111       161  PMPG      H16S          -41.2493826616      -40.6284628210        0.2971550602  MEMB      161             0.0000000000
     20112       161  PMPG      H16T          -40.1246944950      -39.2123120315        0.2545451295  MEMB      161             0.0000000000
     20113       161  PMPG      C33           -42.9382838627      -40.7194942490       14.1281620059  MEMB      161             0.0000000000
     20114       161  PMPG      H3X           -42.1238851932      -40.8454239344       13.4262139092  MEMB      161             0.0000000000
     20115       161  PMPG      H3Y           -42.8134809975      -39.7923291193       14.7047504195  MEMB      161             0.0000000000
     20116       161  PMPG      C34           -44.0391914313      -40.3896614850       13.0079838154  MEMB      161             0.0000000000
     20117       161  PMPG      H4X           -45.0865027313      -40.9081397056       12.8923146529  MEMB      161             0.0000000000
     20118       161  PMPG      H4Y           -44.4516263647      -40.9866576331       12.4236356873  MEMB      161             0.0000000000
     20119       161  PMPG      C35           -44.2913487354      -39.1094265209       12.3604135400  MEMB      161             0.0000000000
     20120       161  PMPG      H5X           -43.9977513604      -38.2980190599       13.0217268052  MEMB      161             0.0000000000
     20121       161  PMPG      H5Y           -45.3678280893      -38.9515272752       12.0807144031  MEMB      161             0.0000000000
     20122       161  PMPG      C36           -43.5514656698      -39.2820137512       11.0747670929  MEMB      161             0.0000000000
     20123       161  PMPG      H6X           -44.0337361009      -40.0764950448       10.4707902155  MEMB      161             0.0000000000
     20124       161  PMPG      H6Y           -42.5734903944      -39.7250168310       11.2941514256  MEMB      161             0.0000000000
     20125       161  PMPG      C37           -43.3970431762      -37.9865339292       10.3236395150  MEMB      161             0.0000000000
     20126       161  PMPG      H7X           -42.8556999536      -37.1961254109       10.8973612659  MEMB      161             0.0000000000
     20127       161  PMPG      H7Y           -44.4462738039      -37.6671204455       10.1541017873  MEMB      161             0.0000000000
     20128       161  PMPG      C38           -42.7960690906      -38.2509595092        8.9373122407  MEMB      161             0.0000000000
     20129       161  PMPG      H8X           -43.2116221420      -39.2437521015        8.6533833804  MEMB      161             0.0000000000
     20130       161  PMPG      H8Y           -41.6860193634      -38.2968948751        8.9634682603  MEMB      161             0.0000000000
     20131       161  PMPG      C39           -43.3296645879      -37.3060367413        7.8386765046  MEMB      161             0.0000000000
     20132       161  PMPG      H9X           -43.0972353627      -36.2672471269        8.1233351735  MEMB      161             0.0000000000
     20133       161  PMPG      H9Y           -44.4081653279      -37.4022325397        7.8893995385  MEMB      161             0.0000000000
     20134       161  PMPG      C310          -42.9126710199      -37.5992053838        6.3720337346  MEMB      161             0.0000000000
     20135       161  PMPG      H10X          -42.9514514663      -38.6784728307        6.1787499684  MEMB      161             0.0000000000
     20136       161  PMPG      H10Y          -41.8404089171      -37.3362252863        6.3117631665  MEMB      161             0.0000000000
     20137       161  PMPG      C311          -43.6514192098      -36.8251247884        5.2420841550  MEMB      161             0.0000000000
     20138       161  PMPG      H11X          -43.0232909813      -36.8180079109        4.3243982282  MEMB      161             0.0000000000
     20139       161  PMPG      H11Y          -43.8510146974      -35.8161505988        5.6369510926  MEMB      161             0.0000000000
     20140       161  PMPG      C312          -45.0481000462      -37.2327041184        4.8371510070  MEMB      161             0.0000000000
     20141       161  PMPG      H12X          -45.6766200577      -36.3967314482        4.4795863797  MEMB      161             0.0000000000
     20142       161  PMPG      H12Y          -45.4713794755      -37.5329492965        5.7910084719  MEMB      161             0.0000000000
     20143       161  PMPG      C313          -45.0346247838      -38.2530689268        3.7433249592  MEMB      161             0.0000000000
     20144       161  PMPG      H13X          -46.0212356821      -38.7243090155        3.6590808344  MEMB      161             0.0000000000
     20145       161  PMPG      H13Y          -44.2445381999      -38.9481010488        4.0031392798  MEMB      161             0.0000000000
     20146       161  PMPG      C314          -44.8193977014      -37.6699627327        2.3877514815  MEMB      161             0.0000000000
     20147       161  PMPG      H14X          -43.8117577684      -37.2093151652        2.3394562532  MEMB      161             0.0000000000
     20148       161  PMPG      H14Y          -45.6243321387      -36.9176423988        2.3587040452  MEMB      161             0.0000000000
     20149       161  PMPG      C315          -44.9299456818      -38.6216283220        1.1992668305  MEMB      161             0.0000000000
     20150       161  PMPG      H15X          -44.1464919123      -39.3876843213        1.3960268169  MEMB      161             0.0000000000
     20151       161  PMPG      H15Y          -44.6680454335      -38.0990273421        0.2566525949  MEMB      161             0.0000000000
     20152       161  PMPG      C316          -46.2500596611      -39.3332999522        0.9415736008  MEMB      161             0.0000000000
     20153       161  PMPG      H16X          -46.4699313178      -39.9544185355        1.8258483544  MEMB      161             0.0000000000
     20154       161  PMPG      H16Y          -46.1103700307      -40.0151965969        0.0646890016  MEMB      161             0.0000000000
     20155       161  PMPG      H16Z          -47.1467249284      -38.7214504518        0.7870127913  MEMB      161             0.0000000000
     20156       162  QMPE      N              16.3412955615      -55.8943075406       19.1869576556  MEMB      162             0.0000000000
     20157       162  QMPE      HN1            15.4852998244      -56.3756105121       19.5583396751  MEMB      162             0.0000000000
     20158       162  QMPE      HN2            16.1643939837      -54.8735879797       19.2172718323  MEMB      162             0.0000000000
     20159       162  QMPE      HN3            16.5679520846      -56.1523244531       18.2139534227  MEMB      162             0.0000000000
     20160       162  QMPE      C12            17.5432774471      -56.1383415649       20.0189824081  MEMB      162             0.0000000000
     20161       162  QMPE      H12A           18.2155162937      -56.9209722547       19.6076916598  MEMB      162             0.0000000000
     20162       162  QMPE      H12B           17.0316097576      -56.6072980308       20.8567827985  MEMB      162             0.0000000000
     20163       162  QMPE      C11            18.2474078158      -54.8478691936       20.4898708586  MEMB      162             0.0000000000
     20164       162  QMPE      H11A           18.8535205190      -54.9404478135       21.4008880779  MEMB      162             0.0000000000
     20165       162  QMPE      H11B           17.4298791387      -54.1390223341       20.7290979981  MEMB      162             0.0000000000
     20166       162  QMPE      P              18.6640827256      -53.3277133482       18.4049693150  MEMB      162             0.0000000000
     20167       162  QMPE      O13            19.8358732007      -52.6301825213       17.8496091154  MEMB      162             0.0000000000
     20168       162  QMPE      O14            17.4969064558      -52.5880748795       18.9286534926  MEMB      162             0.0000000000
     20169       162  QMPE      O11            18.1309911079      -54.4006966348       17.3633784344  MEMB      162             0.0000000000
     20170       162  QMPE      O12            19.1403460999      -54.3256849810       19.5357588964  MEMB      162             0.0000000000
     20171       162  QMPE      C1             19.0169945874      -55.0274277298       16.4323853063  MEMB      162             0.0000000000
     20172       162  QMPE      HA             18.5950192331      -56.0318496760       16.2247509357  MEMB      162             0.0000000000
     20173       162  QMPE      HB             20.0138553265      -55.2308588065       16.8814393384  MEMB      162             0.0000000000
     20174       162  QMPE      C2             19.1937069689      -54.2347221441       15.0883389477  MEMB      162             0.0000000000
     20175       162  QMPE      HS             19.4384244500      -53.1641459369       15.2609753068  MEMB      162             0.0000000000
     20176       162  QMPE      O21            18.0376322781      -54.4375423235       14.2581934878  MEMB      162             0.0000000000
     20177       162  QMPE      C21            17.0417421713      -53.5839410952       14.3711925956  MEMB      162             0.0000000000
     20178       162  QMPE      O22            17.0920517041      -52.4923331647       14.9019732839  MEMB      162             0.0000000000
     20179       162  QMPE      C22            15.7896999488      -54.2196109409       13.7166508776  MEMB      162             0.0000000000
     20180       162  QMPE      H2R            14.8515267264      -53.8384491114       14.1555197341  MEMB      162             0.0000000000
     20181       162  QMPE      H2S            15.7979342522      -55.2897394087       13.9922737477  MEMB      162             0.0000000000
     20182       162  QMPE      C3             20.4136620017      -54.7430313384       14.3040857107  MEMB      162             0.0000000000
     20183       162  QMPE      HX             20.1930959583      -55.8080719022       14.0642703588  MEMB      162             0.0000000000
     20184       162  QMPE      HY             21.3099711907      -54.6506028499       14.9371107282  MEMB      162             0.0000000000
     20185       162  QMPE      O31            20.6789073644      -53.9226978470       13.1726445112  MEMB      162             0.0000000000
     20186       162  QMPE      C31            20.0120923166      -54.2704922840       12.1176927474  MEMB      162             0.0000000000
     20187       162  QMPE      O32            19.3727614412      -55.2913012449       11.9476869612  MEMB      162             0.0000000000
     20188       162  QMPE      C32            20.2075994409      -53.1672567129       11.1438288357  MEMB      162             0.0000000000
     20189       162  QMPE      H2X            19.8390582671      -52.2646940724       11.6697067613  MEMB      162             0.0000000000
     20190       162  QMPE      H2Y            21.2744968432      -52.9935267040       10.9931027398  MEMB      162             0.0000000000
     20191       162  QMPE      C23            15.7267452379      -54.0204138494       12.1792229396  MEMB      162             0.0000000000
     20192       162  QMPE      H3R            16.6036455481      -54.4638364707       11.6638167172  MEMB      162             0.0000000000
     20193       162  QMPE      H3S            15.6508577501      -52.9367354979       11.9500331119  MEMB      162             0.0000000000
     20194       162  QMPE      C24            14.5769436898      -54.7484540619       11.5219979238  MEMB      162             0.0000000000
     20195       162  QMPE      H4R            14.4173824746      -54.4282661024       10.4681361064  MEMB      162             0.0000000000
     20196       162  QMPE      H4S            13.6555416011      -54.4947022298       12.0695739856  MEMB      162             0.0000000000
     20197       162  QMPE      C25            14.7515760183      -56.2419881906       11.6487319935  MEMB      162             0.0000000000
     20198       162  QMPE      H5R            13.7014336867      -56.5665880383       11.4824020709  MEMB      162             0.0000000000
     20199       162  QMPE      H5S            14.9197462083      -56.5583359633       12.6963672658  MEMB      162             0.0000000000
     20200       162  QMPE      C26            15.8666686425      -56.8419004920       10.7269019761  MEMB      162             0.0000000000
     20201       162  QMPE      H6R            15.9893032186      -57.9066354088       10.9672775146  MEMB      162             0.0000000000
     20202       162  QMPE      H6S            16.8765101443      -56.5098585079       10.9540816574  MEMB      162             0.0000000000
     20203       162  QMPE      C27            15.6464916315      -56.7167922350        9.2057768084  MEMB      162             0.0000000000
     20204       162  QMPE      H7R            14.9474695870      -55.9922975054        8.8238700023  MEMB      162             0.0000000000
     20205       162  QMPE      H7S            14.9152378854      -57.3766660360        8.8734800202  MEMB      162             0.0000000000
     20206       162  QMPE      C28            16.8191471083      -56.8173264843        8.2454803398  MEMB      162             0.0000000000
     20207       162  QMPE      H8R            17.2721529995      -55.8127705357        8.3585504550  MEMB      162             0.0000000000
     20208       162  QMPE      H8S            16.3838428679      -56.9359661240        7.2289394367  MEMB      162             0.0000000000
     20209       162  QMPE      C29            17.7604423486      -57.9676144307        8.4426151804  MEMB      162             0.0000000000
     20210       162  QMPE      H9R            17.4277050905      -59.0019246502        8.6574543705  MEMB      162             0.0000000000
     20211       162  QMPE      C217           19.0361950579      -57.6204931472        9.1734997911  MEMB      162             0.0000000000
     20212       162  QMPE      H17R           19.3080228115      -56.5948295522        9.2965627903  MEMB      162             0.0000000000
     20213       162  QMPE      H17S           19.3588793941      -58.4424060852        9.7837071972  MEMB      162             0.0000000000
     20214       162  QMPE      C210           19.0135571005      -57.8945454251        7.6964668059  MEMB      162             0.0000000000
     20215       162  QMPE      H10R           19.3482706025      -58.8599964394        7.5176498344  MEMB      162             0.0000000000
     20216       162  QMPE      C211           19.4912317166      -56.7114491705        6.8391786874  MEMB      162             0.0000000000
     20217       162  QMPE      H11R           19.1039428456      -55.7987376789        7.1888357182  MEMB      162             0.0000000000
     20218       162  QMPE      H11S           20.6372453539      -56.7041189318        6.8053388372  MEMB      162             0.0000000000
     20219       162  QMPE      C212           18.9357295825      -56.8159844317        5.4349237043  MEMB      162             0.0000000000
     20220       162  QMPE      H12R           18.0118992943      -57.3285656679        5.2614689743  MEMB      162             0.0000000000
     20221       162  QMPE      H12S           19.3688839018      -57.5909471120        5.0567365934  MEMB      162             0.0000000000
     20222       162  QMPE      C213           19.0788641983      -55.6881268359        4.5428999924  MEMB      162             0.0000000000
     20223       162  QMPE      H13R           18.6074834855      -54.8287789392        5.0493337384  MEMB      162             0.0000000000
     20224       162  QMPE      H13S           18.6667525043      -55.8321076459        3.5674431914  MEMB      162             0.0000000000
     20225       162  QMPE      C214           20.3847509794      -55.3243761252        4.2394185317  MEMB      162             0.0000000000
     20226       162  QMPE      H14R           20.8684147026      -55.3244149808        5.1841273966  MEMB      162             0.0000000000
     20227       162  QMPE      H14S           20.1349067875      -54.2854302777        4.0342790297  MEMB      162             0.0000000000
     20228       162  QMPE      C215           21.3896187337      -55.9638871933        3.2325881548  MEMB      162             0.0000000000
     20229       162  QMPE      H15R           21.7496749062      -56.7290845569        3.8425593262  MEMB      162             0.0000000000
     20230       162  QMPE      H15S           22.5139045385      -55.7477436224        3.0748622020  MEMB      162             0.0000000000
     20231       162  QMPE      C216           20.5669801659      -55.4990647561        2.1724279722  MEMB      162             0.0000000000
     20232       162  QMPE      H16R           19.6218373339      -55.9070502552        1.9791068991  MEMB      162             0.0000000000
     20233       162  QMPE      H16S           21.3224978073      -55.5166723370        1.2762171002  MEMB      162             0.0000000000
     20234       162  QMPE      H16T           20.6687449768      -54.8203691450        1.3941437500  MEMB      162             0.0000000000
     20235       162  QMPE      C33            19.5313939824      -53.5068453226        9.8498561577  MEMB      162             0.0000000000
     20236       162  QMPE      H3X            18.8632659630      -54.3717325021        9.8499284956  MEMB      162             0.0000000000
     20237       162  QMPE      H3Y            20.1548437879      -53.4262442261        8.9394891840  MEMB      162             0.0000000000
     20238       162  QMPE      C34            18.5639393346      -52.6200115243        9.6372962858  MEMB      162             0.0000000000
     20239       162  QMPE      H4X            19.2337891705      -51.6778654643        9.6248629229  MEMB      162             0.0000000000
     20240       162  QMPE      H4Y            17.8065191138      -52.4114279360       10.5323303203  MEMB      162             0.0000000000
     20241       162  QMPE      C35            17.6035648014      -52.8347579306        8.1868726603  MEMB      162             0.0000000000
     20242       162  QMPE      H5X            17.0370945781      -53.6031282857        8.1944253523  MEMB      162             0.0000000000
     20243       162  QMPE      H5Y            18.4193829852      -52.7286396378        7.3701454657  MEMB      162             0.0000000000
     20244       162  QMPE      C36            15.7665328977      -51.4288238329        8.0403209123  MEMB      162             0.0000000000
     20245       162  QMPE      H6X            15.8721431625      -50.2005751592        8.3166219156  MEMB      162             0.0000000000
     20246       162  QMPE      H6Y            15.4066776765      -51.0584967360        8.9898781051  MEMB      162             0.0000000000
     20247       162  QMPE      C37            15.5493623571      -51.7379152364        7.0652068857  MEMB      162             0.0000000000
     20248       162  QMPE      H7X            15.0869049677      -50.6497836104        6.8595814912  MEMB      162             0.0000000000
     20249       162  QMPE      H7Y            16.6402445148      -52.0135896382        6.7424075610  MEMB      162             0.0000000000
     20250       162  QMPE      C38            14.7946285253      -52.8009338768        6.7795949171  MEMB      162             0.0000000000
     20251       162  QMPE      H8X            14.3934625372      -52.8807705310        7.7920479408  MEMB      162             0.0000000000
     20252       162  QMPE      H8Y            14.1242232227      -52.3165942083        6.0558526563  MEMB      162             0.0000000000
     20253       162  QMPE      C39            15.5668384129      -53.9812884302        6.2000497565  MEMB      162             0.0000000000
     20254       162  QMPE      H9X            15.8480842547      -54.5812308690        7.0829479572  MEMB      162             0.0000000000
     20255       162  QMPE      H9Y            16.5284746442      -53.6565478017        5.7297396101  MEMB      162             0.0000000000
     20256       162  QMPE      C310           14.7829930202      -54.8118093135        5.1650364684  MEMB      162             0.0000000000
     20257       162  QMPE      H10X           14.2284870683      -54.1159138070        4.5081326106  MEMB      162             0.0000000000
     20258       162  QMPE      H10Y           13.9642828315      -55.3800168381        5.6550250581  MEMB      162             0.0000000000
     20259       162  QMPE      C311           15.7120898645      -55.7601098031        4.3568967570  MEMB      162             0.0000000000
     20260       162  QMPE      H11X           16.0935891027      -56.4978565405        5.0940751419  MEMB      162             0.0000000000
     20261       162  QMPE      H11Y           16.5696639218      -55.2108550675        3.9076321797  MEMB      162             0.0000000000
     20262       162  QMPE      C312           15.0746810871      -56.4964838242        3.1895702963  MEMB      162             0.0000000000
     20263       162  QMPE      H12X           15.7556227277      -57.2550906856        2.7213225960  MEMB      162             0.0000000000
     20264       162  QMPE      H12Y           14.7776461087      -55.7535090473        2.4261486928  MEMB      162             0.0000000000
     20265       162  QMPE      C313           13.7794102024      -57.0751905933        3.5713244809  MEMB      162             0.0000000000
     20266       162  QMPE      H13X           13.8675159390      -57.8889888122        4.1842609465  MEMB      162             0.0000000000
     20267       162  QMPE      H13Y           13.2171754835      -56.7544846848        4.4161368664  MEMB      162             0.0000000000
     20268       162  QMPE      C314           12.9020926857      -57.3371295115        2.4701012148  MEMB      162             0.0000000000
     20269       162  QMPE      H14X           12.1126694846      -56.7034487141        2.1633061783  MEMB      162             0.0000000000
     20270       162  QMPE      H14Y           12.0842108899      -57.7221590450        3.2834440984  MEMB      162             0.0000000000
     20271       162  QMPE      C315           13.5184421730      -58.1704872501        1.1615148326  MEMB      162             0.0000000000
     20272       162  QMPE      H15X           14.1715766324      -59.0416074392        1.3274040503  MEMB      162             0.0000000000
     20273       162  QMPE      H15Y           12.7938072218      -58.7023725442        0.5389158893  MEMB      162             0.0000000000
     20274       162  QMPE      H15Z           13.9885995275      -57.6553946681        0.3960707429  MEMB      162             0.0000000000
     20275       163  PMPE      N             -52.1710284513       22.1168046611       21.7859049528  MEMB      163             0.0000000000
     20276       163  PMPE      HN1           -53.0330580552       22.3934833596       21.2557204211  MEMB      163             0.0000000000
     20277       163  PMPE      HN2           -52.3028749499       21.1582892784       22.1454206709  MEMB      163             0.0000000000
     20278       163  PMPE      HN3           -51.9862113807       22.7377449274       22.6036982853  MEMB      163             0.0000000000
     20279       163  PMPE      C12           -51.0066648242       22.0911465715       20.8406015999  MEMB      163             0.0000000000
     20280       163  PMPE      H12A          -50.8532614432       21.0408162875       20.5073545118  MEMB      163             0.0000000000
     20281       163  PMPE      H12B          -50.0873699761       22.4372098553       21.3547415432  MEMB      163             0.0000000000
     20282       163  PMPE      C11           -51.2496793707       23.0399692506       19.6738543139  MEMB      163             0.0000000000
     20283       163  PMPE      H11A          -50.2154579760       23.2170279837       19.3115412700  MEMB      163             0.0000000000
     20284       163  PMPE      H11B          -51.6637779721       24.0286488124       19.9873617176  MEMB      163             0.0000000000
     20285       163  PMPE      P             -53.2597101307       23.0716344674       17.9465746784  MEMB      163             0.0000000000
     20286       163  PMPE      O13           -52.7027755663       24.0466791551       16.9954847045  MEMB      163             0.0000000000
     20287       163  PMPE      O14           -54.1682659512       23.5100724977       19.0415365128  MEMB      163             0.0000000000
     20288       163  PMPE      O11           -53.9773891491       21.9034201183       17.1801704249  MEMB      163             0.0000000000
     20289       163  PMPE      O12           -52.0099024533       22.3859883145       18.6637623682  MEMB      163             0.0000000000
     20290       163  PMPE      C1            -54.5287210466       20.7107030256       17.7302242141  MEMB      163             0.0000000000
     20291       163  PMPE      HA            -55.5686949860       20.9143088257       17.9835250530  MEMB      163             0.0000000000
     20292       163  PMPE      HB            -54.0103163232       20.3874895570       18.6405387623  MEMB      163             0.0000000000
     20293       163  PMPE      C2            -54.4941543428       19.6144876689       16.7034588060  MEMB      163             0.0000000000
     20294       163  PMPE      HS            -54.9329855757       18.6160643693       16.8950967077  MEMB      163             0.0000000000
     20295       163  PMPE      O21           -53.1168247381       19.6273587779       16.3196331488  MEMB      163             0.0000000000
     20296       163  PMPE      C21           -52.2143574347       19.0793977678       17.0382759811  MEMB      163             0.0000000000
     20297       163  PMPE      O22           -52.4425412746       18.5118019093       18.0869604138  MEMB      163             0.0000000000
     20298       163  PMPE      C22           -50.8913252090       18.9726067640       16.2662215734  MEMB      163             0.0000000000
     20299       163  PMPE      H2R           -50.7373384964       18.2441869210       15.4805310622  MEMB      163             0.0000000000
     20300       163  PMPE      H2S           -50.1682225711       18.5777611978       16.9793851740  MEMB      163             0.0000000000
     20301       163  PMPE      C3            -55.4864846054       20.1036824586       15.7286743077  MEMB      163             0.0000000000
     20302       163  PMPE      HX            -55.2495712948       21.0318562502       15.5041787516  MEMB      163             0.0000000000
     20303       163  PMPE      HY            -56.5642534874       19.9103364896       15.7499683362  MEMB      163             0.0000000000
     20304       163  PMPE      O31           -55.2989983604       19.7279886752       14.5985145854  MEMB      163             0.0000000000
     20305       163  PMPE      C31           -54.9644569144       20.2534529236       13.3924673225  MEMB      163             0.0000000000
     20306       163  PMPE      O32           -54.1710125985       21.1438438700       13.5385180335  MEMB      163             0.0000000000
     20307       163  PMPE      C32           -54.9652803510       19.0316991751       11.5489146965  MEMB      163             0.0000000000
     20308       163  PMPE      H2X           -55.4413214682       18.1017223532       11.5937555925  MEMB      163             0.0000000000
     20309       163  PMPE      H2Y           -53.9280020072       18.2312249150       11.5124427002  MEMB      163             0.0000000000
     20310       163  PMPE      C23           -50.6664350394       20.2167153135       15.5274559388  MEMB      163             0.0000000000
     20311       163  PMPE      H3R           -49.6528159686       20.2088150247       15.6102188295  MEMB      163             0.0000000000
     20312       163  PMPE      H3S           -50.6444126495       21.0310516670       16.1730720685  MEMB      163             0.0000000000
     20313       163  PMPE      C24           -51.0937447966       20.4276235101       14.0568973889  MEMB      163             0.0000000000
     20314       163  PMPE      H4R           -52.1377913139       20.6798332726       14.0895571470  MEMB      163             0.0000000000
     20315       163  PMPE      H4S           -50.8543541063       19.5017369236       13.4544088516  MEMB      163             0.0000000000
     20316       163  PMPE      C25           -50.3888683266       21.4377653994       13.1861742483  MEMB      163             0.0000000000
     20317       163  PMPE      H5R           -49.2967855866       21.3307797499       13.1120484784  MEMB      163             0.0000000000
     20318       163  PMPE      H5S           -50.5638240532       22.3540124434       13.7447719864  MEMB      163             0.0000000000
     20319       163  PMPE      C26           -50.8507749771       21.5448374242       11.7418196745  MEMB      163             0.0000000000
     20320       163  PMPE      H6R           -51.9527129451       21.6654804068       11.7513221099  MEMB      163             0.0000000000
     20321       163  PMPE      H6S           -50.5206343485       20.6727355547       11.1208618308  MEMB      163             0.0000000000
     20322       163  PMPE      C27           -50.2658651819       22.8133625621       11.1266778640  MEMB      163             0.0000000000
     20323       163  PMPE      H7R           -49.1635387457       22.8219001909       11.2232675283  MEMB      163             0.0000000000
     20324       163  PMPE      H7S           -50.6278769233       23.6987898559       11.6924261779  MEMB      163             0.0000000000
     20325       163  PMPE      C28           -50.5320801829       22.8799653374        9.6357103924  MEMB      163             0.0000000000
     20326       163  PMPE      H8R           -50.1805367714       21.9169506504        9.1854570222  MEMB      163             0.0000000000
     20327       163  PMPE      H8S           -50.0016977567       23.7369354945        9.1644165937  MEMB      163             0.0000000000
     20328       163  PMPE      C29           -51.9780488451       23.1625307822        9.3710676985  MEMB      163             0.0000000000
     20329       163  PMPE      H9R           -52.5057583781       23.9774485194        9.8888794415  MEMB      163             0.0000000000
     20330       163  PMPE      C217          -52.8528632865       22.1069582831        8.8450839862  MEMB      163             0.0000000000
     20331       163  PMPE      H17R          -53.8142989503       22.4810530040        9.0128464406  MEMB      163             0.0000000000
     20332       163  PMPE      H17S          -52.4659388309       21.1052034250        8.7886786190  MEMB      163             0.0000000000
     20333       163  PMPE      C210          -52.3219893077       23.1381437688        7.9005952842  MEMB      163             0.0000000000
     20334       163  PMPE      H10R          -53.1348587738       23.7876485777        7.5353922528  MEMB      163             0.0000000000
     20335       163  PMPE      C211          -51.3980232195       22.5370043452        6.8718890534  MEMB      163             0.0000000000
     20336       163  PMPE      H11R          -51.6422221188       21.4629204851        6.7475995879  MEMB      163             0.0000000000
     20337       163  PMPE      H11S          -50.3454793953       22.5586973109        7.2230512792  MEMB      163             0.0000000000
     20338       163  PMPE      C212          -51.4907763775       23.3648487519        5.5677720950  MEMB      163             0.0000000000
     20339       163  PMPE      H12R          -51.2461994331       24.4163897552        5.8536739174  MEMB      163             0.0000000000
     20340       163  PMPE      H12S          -52.5136900144       23.4130219346        5.1203999385  MEMB      163             0.0000000000
     20341       163  PMPE      C213          -50.4165201343       22.9268931147        4.5488014992  MEMB      163             0.0000000000
     20342       163  PMPE      H13R          -49.5009573682       22.6481590568        5.1171111005  MEMB      163             0.0000000000
     20343       163  PMPE      H13S          -50.0917402663       23.7916545999        3.9285243108  MEMB      163             0.0000000000
     20344       163  PMPE      C214          -50.8385711230       21.7136088493        3.6910862019  MEMB      163             0.0000000000
     20345       163  PMPE      H14R          -51.8304059238       21.8757129565        3.2260921923  MEMB      163             0.0000000000
     20346       163  PMPE      H14S          -51.0408429749       20.8727443082        4.3896396351  MEMB      163             0.0000000000
     20347       163  PMPE      C215          -49.7830690380       21.2769890384        2.6520761693  MEMB      163             0.0000000000
     20348       163  PMPE      H15R          -48.7706958940       21.4853084115        3.0718630493  MEMB      163             0.0000000000
     20349       163  PMPE      H15S          -49.8191711482       21.8705051111        1.7172281048  MEMB      163             0.0000000000
     20350       163  PMPE      C216          -49.8813804075       19.7967782963        2.2987719938  MEMB      163             0.0000000000
     20351       163  PMPE      H16R          -49.5123162335       19.2460463860        3.1917233620  MEMB      163             0.0000000000
     20352       163  PMPE      H16S          -50.9104871374       19.4568789885        2.0513790346  MEMB      163             0.0000000000
     20353       163  PMPE      H16T          -49.2035146049       19.5483003652        1.4514679572  MEMB      163             0.0000000000
     20354       163  PMPE      C33           -53.8326605549       18.9360705967       10.7144026072  MEMB      163             0.0000000000
     20355       163  PMPE      H3X           -53.1637679247       19.7456340065       10.9327062705  MEMB      163             0.0000000000
     20356       163  PMPE      H3Y           -54.9121230301       19.1898715951       10.4176582198  MEMB      163             0.0000000000
     20357       163  PMPE      C34           -53.5174446979       18.2743941244        9.6020238085  MEMB      163             0.0000000000
     20358       163  PMPE      H4X           -53.1065578568       17.2822558753        9.8881977506  MEMB      163             0.0000000000
     20359       163  PMPE      H4Y           -53.2072197091       18.8558222593        8.7797175830  MEMB      163             0.0000000000
     20360       163  PMPE      C35           -54.5751430003       17.7017146924        9.3495922794  MEMB      163             0.0000000000
     20361       163  PMPE      H5X           -54.6562894562       16.9738949094       10.4800030655  MEMB      163             0.0000000000
     20362       163  PMPE      H5Y           -54.2323176169       17.1575845099        8.3133662874  MEMB      163             0.0000000000
     20363       163  PMPE      C36           -56.1676826352       18.2522763207        9.0290334581  MEMB      163             0.0000000000
     20364       163  PMPE      H6X           -55.9668374494       18.9934851487        9.1919804783  MEMB      163             0.0000000000
     20365       163  PMPE      H6Y           -57.2052643817       17.9797377763        8.4077429527  MEMB      163             0.0000000000
     20366       163  PMPE      C37           -55.5594422250       20.4295234423        8.1486622318  MEMB      163             0.0000000000
     20367       163  PMPE      H7X           -54.0854446590       18.8891165996        6.3766662551  MEMB      163             0.0000000000
     20368       163  PMPE      H7Y           -54.7301405819       20.6339037502        8.2277999292  MEMB      163             0.0000000000
     20369       163  PMPE      C38           -56.8517761646       21.2135634343        7.3465582856  MEMB      163             0.0000000000
     20370       163  PMPE      H8X           -56.9771618356       21.5997995105        8.2583305906  MEMB      163             0.0000000000
     20371       163  PMPE      H8Y           -57.5425471609       20.3793131498        7.0473795650  MEMB      163             0.0000000000
     20372       163  PMPE      C39           -56.4043766758       22.1887107486        6.4166147579  MEMB      163             0.0000000000
     20373       163  PMPE      H9X           -55.6144037284       22.6090299714        7.0245748607  MEMB      163             0.0000000000
     20374       163  PMPE      H9Y           -57.4809188070       22.0453464904        6.4971091229  MEMB      163             0.0000000000
     20375       163  PMPE      C310          -56.1656291072       22.3657337090        5.2141233369  MEMB      163             0.0000000000
     20376       163  PMPE      H10X          -57.1995942570       21.9776640603        4.8371241784  MEMB      163             0.0000000000
     20377       163  PMPE      H10Y          -55.0728804837       21.8179177117        5.1085629462  MEMB      163             0.0000000000
     20378       163  PMPE      C311          -55.6081212704       23.4713918444        4.5397772872  MEMB      163             0.0000000000
     20379       163  PMPE      H11X          -54.6055476667       23.4523676065        5.0023222497  MEMB      163             0.0000000000
     20380       163  PMPE      H11Y          -56.4669864984       24.0404769238        4.7837094051  MEMB      163             0.0000000000
     20381       163  PMPE      C312          -55.3270744642       23.4158572881        3.0723103249  MEMB      163             0.0000000000
     20382       163  PMPE      H12X          -56.1541103987       23.5181668955        2.4248490669  MEMB      163             0.0000000000
     20383       163  PMPE      H12Y          -54.7655626492       22.5350283839        2.7264510171  MEMB      163             0.0000000000
     20384       163  PMPE      C313          -55.2554703662       24.6146531606        2.2780313548  MEMB      163             0.0000000000
     20385       163  PMPE      H13X          -55.8613929087       25.3176839360        2.8825812023  MEMB      163             0.0000000000
     20386       163  PMPE      H13Y          -55.6425916375       24.5686583424        1.1923558215  MEMB      163             0.0000000000
     20387       163  PMPE      C314          -53.8143377208       24.8863566210        2.2663001320  MEMB      163             0.0000000000
     20388       163  PMPE      H14X          -53.3276222442       24.7916482988        3.2416426072  MEMB      163             0.0000000000
     20389       163  PMPE      H14Y          -53.8343482543       25.9082151705        1.8508341753  MEMB      163             0.0000000000
     20390       163  PMPE      C315          -52.9880643896       24.0679224495        1.3543859976  MEMB      163             0.0000000000
     20391       163  PMPE      H15X          -53.1566096759       22.9873713777        1.3751998204  MEMB      163             0.0000000000
     20392       163  PMPE      H15Y          -51.9030665426       24.3103877823        1.3192970601  MEMB      163             0.0000000000
     20393       163  PMPE      C316          -53.4433228494       24.5497184353        0.1790273455  MEMB      163             0.0000000000
     20394       163  PMPE      H16X          -53.3365854287       25.6473909492       -0.0353750783  MEMB      163             0.0000000000
     20395       163  PMPE      H16Y          -54.3908341506       24.0960306168       -0.2697276272  MEMB      163             0.0000000000
     20396       163  PMPE      H16Z          -52.6667867379       24.3896355842       -0.4917267925  MEMB      163             0.0000000000
     20397       164  PMPE      N              47.2314971999      -31.4977378652       21.8349991348  MEMB      164             0.0000000000
     20398       164  PMPE      HN1            46.5211317726      -32.2349199988       22.0350036038  MEMB      164             0.0000000000
     20399       164  PMPE      HN2            47.4695132420      -30.9377241611       22.6686628121  MEMB      164             0.0000000000
     20400       164  PMPE      HN3            46.9094854919      -30.8357053572       21.0963385985  MEMB      164             0.0000000000
     20401       164  PMPE      C12            48.4482350907      -32.2271733460       21.3527205133  MEMB      164             0.0000000000
     20402       164  PMPE      H12A           48.1960637812      -33.3054231737       21.2257929071  MEMB      164             0.0000000000
     20403       164  PMPE      H12B           49.2524090155      -32.0799073482       22.0935549603  MEMB      164             0.0000000000
     20404       164  PMPE      C11            48.8358585721      -31.7699659831       19.9536739532  MEMB      164             0.0000000000
     20405       164  PMPE      H11A           49.7186910523      -32.3515576509       19.6319123386  MEMB      164             0.0000000000
     20406       164  PMPE      H11B           49.0821894726      -30.6791209188       19.9195075321  MEMB      164             0.0000000000
     20407       164  PMPE      P              47.5324725278      -31.4167162337       17.6904470422  MEMB      164             0.0000000000
     20408       164  PMPE      O13            47.1566111121      -30.0610045471       18.0995471273  MEMB      164             0.0000000000
     20409       164  PMPE      O14            46.5332526955      -32.2272972740       16.9619958912  MEMB      164             0.0000000000
     20410       164  PMPE      O11            48.9359123708      -31.3964535051       16.9687020298  MEMB      164             0.0000000000
     20411       164  PMPE      O12            47.7892781796      -32.1498021466       19.0795007143  MEMB      164             0.0000000000
     20412       164  PMPE      C1             49.6280312300      -32.5314746519       16.4917756194  MEMB      164             0.0000000000
     20413       164  PMPE      HA             49.3641366843      -33.4404523337       17.0755772122  MEMB      164             0.0000000000
     20414       164  PMPE      HB             50.7051847409      -32.2761843222       16.5997459372  MEMB      164             0.0000000000
     20415       164  PMPE      C2             49.4266480175      -32.8195738716       14.9768550885  MEMB      164             0.0000000000
     20416       164  PMPE      HS             50.0358784813      -33.7441167178       14.7657655915  MEMB      164             0.0000000000
     20417       164  PMPE      O21            49.8356083105      -31.6774194085       14.1990925417  MEMB      164             0.0000000000
     20418       164  PMPE      C21            51.1388813545      -31.5500640089       14.0818333378  MEMB      164             0.0000000000
     20419       164  PMPE      O22            51.9614962214      -32.3492697858       14.4944933400  MEMB      164             0.0000000000
     20420       164  PMPE      C22            51.4208149681      -30.2760401717       13.2928086207  MEMB      164             0.0000000000
     20421       164  PMPE      H2R            52.4364834871      -29.9801139762       13.5424337417  MEMB      164             0.0000000000
     20422       164  PMPE      H2S            50.8450206510      -29.4360114757       13.6769778399  MEMB      164             0.0000000000
     20423       164  PMPE      C3             47.9625673488      -33.1653194976       14.5917603068  MEMB      164             0.0000000000
     20424       164  PMPE      HX             47.3033014181      -32.2638716466       14.6173784510  MEMB      164             0.0000000000
     20425       164  PMPE      HY             47.5671942480      -33.8409451500       15.3705184616  MEMB      164             0.0000000000
     20426       164  PMPE      O31            47.9236070169      -33.8790794791       13.3402346461  MEMB      164             0.0000000000
     20427       164  PMPE      C31            47.4889670147      -33.1681011651       12.3066616575  MEMB      164             0.0000000000
     20428       164  PMPE      O32            46.8951113881      -32.1116496423       12.3558130929  MEMB      164             0.0000000000
     20429       164  PMPE      C32            47.8477442186      -33.8782522492       11.0036526909  MEMB      164             0.0000000000
     20430       164  PMPE      H2X            46.8710196363      -34.0196629543       10.5580774383  MEMB      164             0.0000000000
     20431       164  PMPE      H2Y            48.3535794491      -34.8378751160       11.2347924637  MEMB      164             0.0000000000
     20432       164  PMPE      C23            51.2120059624      -30.5357936341       11.7864240854  MEMB      164             0.0000000000
     20433       164  PMPE      H3R            50.1285984945      -30.5048546127       11.5079712748  MEMB      164             0.0000000000
     20434       164  PMPE      H3S            51.5844355080      -31.5362263450       11.4946210848  MEMB      164             0.0000000000
     20435       164  PMPE      C24            51.9550259763      -29.5589270399       10.9024922309  MEMB      164             0.0000000000
     20436       164  PMPE      H4R            52.9777350964      -29.3075078623       11.2298522912  MEMB      164             0.0000000000
     20437       164  PMPE      H4S            51.3585409857      -28.6826965153       10.9538305815  MEMB      164             0.0000000000
     20438       164  PMPE      C25            51.8854636798      -29.9661301495        9.4745397565  MEMB      164             0.0000000000
     20439       164  PMPE      H5R            50.8257015735      -30.0504746011        9.1744385733  MEMB      164             0.0000000000
     20440       164  PMPE      H5S            52.4583012233      -30.9061246321        9.2819891059  MEMB      164             0.0000000000
     20441       164  PMPE      C26            52.3518676076      -28.9716772805        8.5376725385  MEMB      164             0.0000000000
     20442       164  PMPE      H6R            53.4146079306      -29.0708611163        8.7044818205  MEMB      164             0.0000000000
     20443       164  PMPE      H6S            51.9482900342      -27.9420881221        8.6413231626  MEMB      164             0.0000000000
     20444       164  PMPE      C27            52.1367425180      -29.7390313427        7.2739097563  MEMB      164             0.0000000000
     20445       164  PMPE      H7R            52.8883847248      -30.5113779837        7.0620789308  MEMB      164             0.0000000000
     20446       164  PMPE      H7S            52.5352114849      -28.8883855227        6.9616902372  MEMB      164             0.0000000000
     20447       164  PMPE      C28            51.2945695961      -29.3598040863        6.1546743232  MEMB      164             0.0000000000
     20448       164  PMPE      H8R            50.4986976318      -29.8416756257        6.6960222785  MEMB      164             0.0000000000
     20449       164  PMPE      H8S            51.3788105274      -29.7541936044        5.1580043482  MEMB      164             0.0000000000
     20450       164  PMPE      C29            51.1192465789      -28.0158812983        6.0149421888  MEMB      164             0.0000000000
     20451       164  PMPE      H9R            51.8727151463      -27.1397571942        5.9423724987  MEMB      164             0.0000000000
     20452       164  PMPE      C217           49.8699663126      -27.9516595480        6.6729097243  MEMB      164             0.0000000000
     20453       164  PMPE      H17R           49.6983453920      -27.1370580503        6.5364154039  MEMB      164             0.0000000000
     20454       164  PMPE      H17S           49.3427705367      -28.2096537371        7.5227482553  MEMB      164             0.0000000000
     20455       164  PMPE      C210           49.9651783062      -27.8977080495        5.2660506785  MEMB      164             0.0000000000
     20456       164  PMPE      H10R           50.4458602451      -26.8659946990        4.9384524150  MEMB      164             0.0000000000
     20457       164  PMPE      C211           48.7309962994      -28.7823404769        4.9019404055  MEMB      164             0.0000000000
     20458       164  PMPE      H11R           48.2269553155      -29.2112475917        5.7991677787  MEMB      164             0.0000000000
     20459       164  PMPE      H11S           49.2534713109      -29.5012731663        4.3222907266  MEMB      164             0.0000000000
     20460       164  PMPE      C212           47.6585565886      -28.5718910650        3.7338508983  MEMB      164             0.0000000000
     20461       164  PMPE      H12R           46.8269258053      -28.2127444072        4.0512660283  MEMB      164             0.0000000000
     20462       164  PMPE      H12S           47.1181210727      -29.1883517228        3.6545239868  MEMB      164             0.0000000000
     20463       164  PMPE      C213           47.5186312403      -28.1235370138        2.1647544660  MEMB      164             0.0000000000
     20464       164  PMPE      H13R           47.5170396014      -27.0439093774        1.7687024728  MEMB      164             0.0000000000
     20465       164  PMPE      H13S           46.6779637195      -27.4353357333        1.9791026323  MEMB      164             0.0000000000
     20466       164  PMPE      C214           48.8453211966      -28.4826870963        1.5708446805  MEMB      164             0.0000000000
     20467       164  PMPE      H14R           48.7153841314      -29.4736194001        1.9743180779  MEMB      164             0.0000000000
     20468       164  PMPE      H14S           49.8682560080      -28.1444181143        1.9570452666  MEMB      164             0.0000000000
     20469       164  PMPE      C215           48.6137081355      -28.1084598747        0.1927214568  MEMB      164             0.0000000000
     20470       164  PMPE      H15R           48.6761059933      -27.0076938613        0.0292823107  MEMB      164             0.0000000000
     20471       164  PMPE      H15S           47.6159303922      -28.4239557488       -0.0290270901  MEMB      164             0.0000000000
     20472       164  PMPE      C216           49.4109403152      -28.9188334001       -0.6444105223  MEMB      164             0.0000000000
     20473       164  PMPE      H16R           50.2614330175      -28.3155245834       -0.4412533630  MEMB      164             0.0000000000
     20474       164  PMPE      H16S           49.5980565698      -29.9341194559       -0.2375331661  MEMB      164             0.0000000000
     20475       164  PMPE      H16T           49.2106086189      -29.0038194886       -1.7191180805  MEMB      164             0.0000000000
     20476       164  PMPE      C33            48.4605818350      -33.0999733565        9.8699728209  MEMB      164             0.0000000000
     20477       164  PMPE      H3X            49.5460569832      -33.2674892712       10.0284036838  MEMB      164             0.0000000000
     20478       164  PMPE      H3Y            48.0613652150      -32.0733983447       10.0301699560  MEMB      164             0.0000000000
     20479       164  PMPE      C34            48.0533005337      -33.5772228940        8.4564268873  MEMB      164             0.0000000000
     20480       164  PMPE      H4X            46.9635450063      -33.4279014749        8.3089792464  MEMB      164             0.0000000000
     20481       164  PMPE      H4Y            48.3419126780      -34.6565509727        8.4280030877  MEMB      164             0.0000000000
     20482       164  PMPE      C35            48.7398892376      -32.8331471564        7.2927873122  MEMB      164             0.0000000000
     20483       164  PMPE      H5X            49.7873810833      -33.1584822934        7.3804832743  MEMB      164             0.0000000000
     20484       164  PMPE      H5Y            48.7065218468      -31.7375236583        7.4638308488  MEMB      164             0.0000000000
     20485       164  PMPE      C36            48.3538264926      -33.1797203266        5.8337815235  MEMB      164             0.0000000000
     20486       164  PMPE      H6X            47.3053507957      -32.8778626656        5.6286325720  MEMB      164             0.0000000000
     20487       164  PMPE      H6Y            48.4421386088      -34.2748066606        5.6963075226  MEMB      164             0.0000000000
     20488       164  PMPE      C37            49.2284214558      -32.4615483242        4.7958003294  MEMB      164             0.0000000000
     20489       164  PMPE      H7X            50.2892885890      -32.6268922559        4.7557646105  MEMB      164             0.0000000000
     20490       164  PMPE      H7Y            49.2950929214      -31.4168876527        5.0958809379  MEMB      164             0.0000000000
     20491       164  PMPE      C38            48.7559724897      -32.5663366361        3.3620068294  MEMB      164             0.0000000000
     20492       164  PMPE      H8X            48.5428317305      -33.5706584553        2.9341985091  MEMB      164             0.0000000000
     20493       164  PMPE      H8Y            49.5625885080      -32.1110535031        2.7363164703  MEMB      164             0.0000000000
     20494       164  PMPE      C39            47.4252015243      -31.9888999253        3.1945234235  MEMB      164             0.0000000000
     20495       164  PMPE      H9X            47.6267367668      -30.9388120788        3.3240745686  MEMB      164             0.0000000000
     20496       164  PMPE      H9Y            46.6444058290      -32.4445694574        3.8321135958  MEMB      164             0.0000000000
     20497       164  PMPE      C310           47.0491410297      -32.1594445559        1.8078023432  MEMB      164             0.0000000000
     20498       164  PMPE      H10X           46.8802951653      -33.2134073025        1.7682815486  MEMB      164             0.0000000000
     20499       164  PMPE      H10Y           47.8050551819      -31.6052751663        1.2699143123  MEMB      164             0.0000000000
     20500       164  PMPE      C311           45.8882848705      -31.5775530213        1.1310976066  MEMB      164             0.0000000000
     20501       164  PMPE      H11X           46.2356680567      -30.5030834783        1.0484468236  MEMB      164             0.0000000000
     20502       164  PMPE      H11Y           45.0201311628      -31.8545111255        1.7451300703  MEMB      164             0.0000000000
     20503       164  PMPE      C312           45.2581325981      -31.7512353742       -0.2788108678  MEMB      164             0.0000000000
     20504       164  PMPE      H12X           46.0562142469      -31.4596104415       -0.9950779193  MEMB      164             0.0000000000
     20505       164  PMPE      H12Y           44.3820790821      -31.2571835572       -0.5519817582  MEMB      164             0.0000000000
     20506       164  PMPE      C313           44.3685750470      -32.8555547536       -0.2421999667  MEMB      164             0.0000000000
     20507       164  PMPE      H13X           44.5276492304      -33.5505585571        0.5679370057  MEMB      164             0.0000000000
     20508       164  PMPE      H13Y           44.7349488193      -33.6237498373       -0.6921809186  MEMB      164             0.0000000000
     20509       164  PMPE      C314           43.6816591826      -32.9742495127       -1.4388626339  MEMB      164             0.0000000000
     20510       164  PMPE      H14X           42.8134666747      -32.5065681534       -1.5580467189  MEMB      164             0.0000000000
     20511       164  PMPE      H14Y           43.1611899465      -34.0187681790       -1.2902316873  MEMB      164             0.0000000000
     20512       164  PMPE      C315           44.4409499055      -32.5326207825       -2.8524544883  MEMB      164             0.0000000000
     20513       164  PMPE      H15X           44.7186929041      -31.7056405290       -3.5054786299  MEMB      164             0.0000000000
     20514       164  PMPE      H15Y           43.5556843671      -32.8973758506       -3.3586065375  MEMB      164             0.0000000000
     20515       164  PMPE      C316           45.6075871567      -32.6126947126       -3.5722345010  MEMB      164             0.0000000000
     20516       164  PMPE      H16X           45.7112652777      -32.6750407964       -4.7269939905  MEMB      164             0.0000000000
     20517       164  PMPE      H16Y           45.9698771454      -33.6578648414       -3.4534971045  MEMB      164             0.0000000000
     20518       164  PMPE      H16Z           46.3694006204      -32.8907051772       -3.4278560156  MEMB      164             0.0000000000
     20519       165  PMPE      N             -46.7936571563       29.1332956243       21.7267455715  MEMB      165             0.0000000000
     20520       165  PMPE      HN1           -46.4695033568       28.2982354205       22.2680389065  MEMB      165             0.0000000000
     20521       165  PMPE      HN2           -45.9833703469       29.7292172353       21.4406620182  MEMB      165             0.0000000000
     20522       165  PMPE      HN3           -47.4264782879       29.6885126412       22.3494121032  MEMB      165             0.0000000000
     20523       165  PMPE      C12           -47.5291296026       28.7859948819       20.4520182006  MEMB      165             0.0000000000
     20524       165  PMPE      H12A          -48.4680440262       28.2937252761       20.7200439565  MEMB      165             0.0000000000
     20525       165  PMPE      H12B          -46.9291696911       28.0652898863       19.8674048427  MEMB      165             0.0000000000
     20526       165  PMPE      C11           -47.9265241909       30.0476281325       19.6832173039  MEMB      165             0.0000000000
     20527       165  PMPE      H11A          -47.0384983064       30.4212356704       19.1705452944  MEMB      165             0.0000000000
     20528       165  PMPE      H11B          -48.3531163891       30.7811914066       20.4148313952  MEMB      165             0.0000000000
     20529       165  PMPE      P             -49.7274328083       30.9413385378       17.9790512206  MEMB      165             0.0000000000
     20530       165  PMPE      O13           -50.8486289226       31.2625335225       18.8877072588  MEMB      165             0.0000000000
     20531       165  PMPE      O14           -50.0057096268       30.5530810742       16.5873984074  MEMB      165             0.0000000000
     20532       165  PMPE      O11           -48.6681431894       32.1325235361       18.0053185012  MEMB      165             0.0000000000
     20533       165  PMPE      O12           -48.8572817978       29.7679031510       18.6587610783  MEMB      165             0.0000000000
     20534       165  PMPE      C1            -47.6833340617       32.2132559674       17.0371953769  MEMB      165             0.0000000000
     20535       165  PMPE      HA            -47.8654359448       31.5944409778       16.1175278670  MEMB      165             0.0000000000
     20536       165  PMPE      HB            -46.6659479013       31.9965303214       17.4693085200  MEMB      165             0.0000000000
     20537       165  PMPE      C2            -47.7638507368       33.5883670295       16.4553751758  MEMB      165             0.0000000000
     20538       165  PMPE      HS            -47.3548592734       34.3943161916       17.1664548255  MEMB      165             0.0000000000
     20539       165  PMPE      O21           -48.8781037650       33.9030047393       15.6853827125  MEMB      165             0.0000000000
     20540       165  PMPE      C21           -49.4948136139       34.9827098383       15.9800648747  MEMB      165             0.0000000000
     20541       165  PMPE      O22           -49.2135184687       35.7301338387       16.8946512995  MEMB      165             0.0000000000
     20542       165  PMPE      C22           -50.6388959375       35.1975800570       14.9856548428  MEMB      165             0.0000000000
     20543       165  PMPE      H2R           -50.3213814280       35.9783433067       14.2729872071  MEMB      165             0.0000000000
     20544       165  PMPE      H2S           -51.4705150502       35.6424575759       15.5752431879  MEMB      165             0.0000000000
     20545       165  PMPE      C3            -46.8305744735       33.5610434078       15.6325524343  MEMB      165             0.0000000000
     20546       165  PMPE      HX            -46.0981065938       33.3103085883       16.2735404847  MEMB      165             0.0000000000
     20547       165  PMPE      HY            -46.6460227652       34.7191232292       15.5470216008  MEMB      165             0.0000000000
     20548       165  PMPE      O31           -47.1383827751       32.5882796333       14.5425710138  MEMB      165             0.0000000000
     20549       165  PMPE      C31           -46.1901955405       31.9100676712       14.2775626087  MEMB      165             0.0000000000
     20550       165  PMPE      O32           -45.2449474596       32.0287496026       14.9866246131  MEMB      165             0.0000000000
     20551       165  PMPE      C32           -46.2657019502       31.1283017385       12.9372949760  MEMB      165             0.0000000000
     20552       165  PMPE      H2X           -45.2275468512       31.1301178924       12.5193077648  MEMB      165             0.0000000000
     20553       165  PMPE      H2Y           -46.4073529586       31.5902020706       12.0133820249  MEMB      165             0.0000000000
     20554       165  PMPE      C23           -51.0233724183       33.9083199010       14.2014750889  MEMB      165             0.0000000000
     20555       165  PMPE      H3R           -51.3734352467       33.1412425610       14.9187052816  MEMB      165             0.0000000000
     20556       165  PMPE      H3S           -50.1072187368       33.4420982608       13.7704973214  MEMB      165             0.0000000000
     20557       165  PMPE      C24           -52.0888781927       34.1032241899       13.0781656813  MEMB      165             0.0000000000
     20558       165  PMPE      H4R           -53.0199933326       34.4495343438       13.5545919462  MEMB      165             0.0000000000
     20559       165  PMPE      H4S           -52.2398566253       33.1198529349       12.5776753632  MEMB      165             0.0000000000
     20560       165  PMPE      C25           -51.8080804884       35.1140194013       11.9862707637  MEMB      165             0.0000000000
     20561       165  PMPE      H5R           -51.7035477721       36.1574059598       12.4228457656  MEMB      165             0.0000000000
     20562       165  PMPE      H5S           -52.3994321130       35.1551253343       11.0732421208  MEMB      165             0.0000000000
     20563       165  PMPE      C26           -50.5397560230       34.7753227601       11.4481370778  MEMB      165             0.0000000000
     20564       165  PMPE      H6R           -50.0937336783       35.1181707856       12.3502691616  MEMB      165             0.0000000000
     20565       165  PMPE      H6S           -50.3579214458       35.5427499543       10.8726415501  MEMB      165             0.0000000000
     20566       165  PMPE      C27           -50.0717126956       33.6437212812       10.5088911141  MEMB      165             0.0000000000
     20567       165  PMPE      H7R           -50.9007896623       33.4265399984        9.9115095842  MEMB      165             0.0000000000
     20568       165  PMPE      H7S           -49.8147258636       32.8432575667       11.2372809231  MEMB      165             0.0000000000
     20569       165  PMPE      C28           -48.7903353305       33.7815050663        9.4886598538  MEMB      165             0.0000000000
     20570       165  PMPE      H8R           -49.0543600664       34.6458485978        8.8674224448  MEMB      165             0.0000000000
     20571       165  PMPE      H8S           -48.8344800401       32.8825043778        8.9051338645  MEMB      165             0.0000000000
     20572       165  PMPE      C29           -47.1794797583       33.8220754849        9.9444136517  MEMB      165             0.0000000000
     20573       165  PMPE      H9R           -47.1307146235       32.8791813737       10.5803108049  MEMB      165             0.0000000000
     20574       165  PMPE      C217          -46.0903180315       35.3068348985       10.2326812977  MEMB      165             0.0000000000
     20575       165  PMPE      H17R          -45.8586286265       35.3872794448       11.2783531105  MEMB      165             0.0000000000
     20576       165  PMPE      H17S          -46.5138654086       36.3763004576        9.9363026024  MEMB      165             0.0000000000
     20577       165  PMPE      C210          -45.9960634169       34.2725740179        9.3479353543  MEMB      165             0.0000000000
     20578       165  PMPE      H10R          -45.0925293177       33.8335878342        9.7538072856  MEMB      165             0.0000000000
     20579       165  PMPE      C211          -46.2548931925       35.0379648334        8.1777755637  MEMB      165             0.0000000000
     20580       165  PMPE      H11R          -45.4010081452       35.6999020352        8.2661635966  MEMB      165             0.0000000000
     20581       165  PMPE      H11S          -47.0857276484       35.7917452577        8.1021738154  MEMB      165             0.0000000000
     20582       165  PMPE      C212          -46.5045054047       33.9471978223        7.1980363913  MEMB      165             0.0000000000
     20583       165  PMPE      H12R          -47.5313008079       33.5996034275        7.1988193034  MEMB      165             0.0000000000
     20584       165  PMPE      H12S          -45.6861320051       33.2005766511        7.0792099859  MEMB      165             0.0000000000
     20585       165  PMPE      C213          -46.6285086778       34.5026265464        5.9255079653  MEMB      165             0.0000000000
     20586       165  PMPE      H13R          -45.5294565363       34.5946987470        6.0084463503  MEMB      165             0.0000000000
     20587       165  PMPE      H13S          -47.1766204247       35.4794502786        5.9602380073  MEMB      165             0.0000000000
     20588       165  PMPE      C214          -46.9009177955       33.7703418207        4.6093936542  MEMB      165             0.0000000000
     20589       165  PMPE      H14R          -47.7287967932       33.1729285752        4.8727630363  MEMB      165             0.0000000000
     20590       165  PMPE      H14S          -46.0335170205       33.1073677388        4.3922720135  MEMB      165             0.0000000000
     20591       165  PMPE      C215          -47.4327569030       34.5609511286        3.3528496723  MEMB      165             0.0000000000
     20592       165  PMPE      H15R          -46.7524081854       35.2188198340        2.8189937126  MEMB      165             0.0000000000
     20593       165  PMPE      H15S          -47.9100206928       35.3871010195        3.6823469399  MEMB      165             0.0000000000
     20594       165  PMPE      C216          -48.1241851380       33.7813239033        2.2503398661  MEMB      165             0.0000000000
     20595       165  PMPE      H16R          -47.6194912412       32.8683085568        1.9994980490  MEMB      165             0.0000000000
     20596       165  PMPE      H16S          -49.1692664049       33.6417535558        2.6017155032  MEMB      165             0.0000000000
     20597       165  PMPE      H16T          -48.1146390472       34.3623006325        1.2812139820  MEMB      165             0.0000000000
     20598       165  PMPE      C33           -47.0084309727       29.8829692359       13.4337157074  MEMB      165             0.0000000000
     20599       165  PMPE      H3X           -47.1085048732       29.8400406743       14.5645396770  MEMB      165             0.0000000000
     20600       165  PMPE      H3Y           -46.5014367868       28.9159292201       13.3503238193  MEMB      165             0.0000000000
     20601       165  PMPE      C34           -48.2449353548       30.0255942192       12.7462779055  MEMB      165             0.0000000000
     20602       165  PMPE      H4X           -48.0529735260       30.5055514713       11.7644704083  MEMB      165             0.0000000000
     20603       165  PMPE      H4Y           -48.7617234938       30.7758569999       13.3681976360  MEMB      165             0.0000000000
     20604       165  PMPE      C35           -48.9152574985       28.7341650519       12.4641403837  MEMB      165             0.0000000000
     20605       165  PMPE      H5X           -48.9441442503       28.0598663561       13.3491313871  MEMB      165             0.0000000000
     20606       165  PMPE      H5Y           -48.3092411483       28.2274474458       11.6683735390  MEMB      165             0.0000000000
     20607       165  PMPE      C36           -50.3169910646       29.0591717706       11.9663961716  MEMB      165             0.0000000000
     20608       165  PMPE      H6X           -50.9589511285       29.6274914523       12.6904397126  MEMB      165             0.0000000000
     20609       165  PMPE      H6Y           -50.7793756163       28.0627500015       11.8380796776  MEMB      165             0.0000000000
     20610       165  PMPE      C37           -50.3323194560       29.8611375037       10.6596843377  MEMB      165             0.0000000000
     20611       165  PMPE      H7X           -49.6650740285       29.5006149521        9.8592736587  MEMB      165             0.0000000000
     20612       165  PMPE      H7Y           -50.0339309499       30.9171222628       10.7704354514  MEMB      165             0.0000000000
     20613       165  PMPE      C38           -51.6936912660       29.9316242368       10.1029719841  MEMB      165             0.0000000000
     20614       165  PMPE      H8X           -52.3332168179       30.4771990059       10.8707932100  MEMB      165             0.0000000000
     20615       165  PMPE      H8Y           -52.0777335522       28.9031815506        9.8811640450  MEMB      165             0.0000000000
     20616       165  PMPE      C39           -51.5716086628       30.7381845141        8.8103038410  MEMB      165             0.0000000000
     20617       165  PMPE      H9X           -51.5161421649       31.8128941906        8.9103955381  MEMB      165             0.0000000000
     20618       165  PMPE      H9Y           -52.5082235097       30.5753101851        8.9761559013  MEMB      165             0.0000000000
     20619       165  PMPE      C310          -51.1863092924       30.1240847711        7.4580713333  MEMB      165             0.0000000000
     20620       165  PMPE      H10X          -51.5797393286       29.1410354156        7.1349537512  MEMB      165             0.0000000000
     20621       165  PMPE      H10Y          -50.1571605403       29.9166547115        7.7844974769  MEMB      165             0.0000000000
     20622       165  PMPE      C311          -51.2322002914       31.0460035320        6.2038946184  MEMB      165             0.0000000000
     20623       165  PMPE      H11X          -50.5921121561       30.6199048400        5.3988091090  MEMB      165             0.0000000000
     20624       165  PMPE      H11Y          -50.8669535421       32.0511086834        6.4744240203  MEMB      165             0.0000000000
     20625       165  PMPE      C312          -52.5535754372       31.4624170332        5.5508383834  MEMB      165             0.0000000000
     20626       165  PMPE      H12X          -53.1805854692       31.8159652188        6.3756763236  MEMB      165             0.0000000000
     20627       165  PMPE      H12Y          -53.0601742881       30.6005986443        5.0924062662  MEMB      165             0.0000000000
     20628       165  PMPE      C313          -52.3244249000       32.5887187273        4.5091058564  MEMB      165             0.0000000000
     20629       165  PMPE      H13X          -51.7118509705       33.4022444261        4.9665702502  MEMB      165             0.0000000000
     20630       165  PMPE      H13Y          -53.2880096792       33.0304524873        4.1633874422  MEMB      165             0.0000000000
     20631       165  PMPE      C314          -51.4504709863       32.2465898835        3.2899844231  MEMB      165             0.0000000000
     20632       165  PMPE      H14X          -50.4059735463       32.1469920878        3.6301738024  MEMB      165             0.0000000000
     20633       165  PMPE      H14Y          -51.4714483395       33.1579608878        2.6486703631  MEMB      165             0.0000000000
     20634       165  PMPE      C315          -51.8556767815       31.0580007335        2.4255057930  MEMB      165             0.0000000000
     20635       165  PMPE      H15X          -51.7165541230       30.0689848359        2.9302034056  MEMB      165             0.0000000000
     20636       165  PMPE      H15Y          -51.2916093797       31.0532289361        1.4646625232  MEMB      165             0.0000000000
     20637       165  PMPE      C316          -53.2527377768       31.2583802556        1.9734383747  MEMB      165             0.0000000000
     20638       165  PMPE      H16X          -53.9168761232       31.4339866552        2.8583492332  MEMB      165             0.0000000000
     20639       165  PMPE      H16Y          -53.5754578728       30.3638786702        1.3788259612  MEMB      165             0.0000000000
     20640       165  PMPE      H16Z          -53.3649510140       32.1454286382        1.3432171195  MEMB      165             0.0000000000
     20641       166  PMPE      N              37.4887237344       46.7393243522       19.2891283706  MEMB      166             0.0000000000
     20642       166  PMPE      HN1            36.4659154424       46.8689807993       19.3665056991  MEMB      166             0.0000000000
     20643       166  PMPE      HN2            37.8227651933       46.0892195407       20.0495908258  MEMB      166             0.0000000000
     20644       166  PMPE      HN3            37.9818285387       47.6441119719       19.4019911634  MEMB      166             0.0000000000
     20645       166  PMPE      C12            37.7639432063       46.2047029808       17.8948055852  MEMB      166             0.0000000000
     20646       166  PMPE      H12A           38.8587087694       46.0829655555       17.8143253391  MEMB      166             0.0000000000
     20647       166  PMPE      H12B           37.4341475701       47.0225426412       17.2210465820  MEMB      166             0.0000000000
     20648       166  PMPE      C11            37.0716093703       44.8709610364       17.4721544986  MEMB      166             0.0000000000
     20649       166  PMPE      H11A           37.3483001184       44.6423929582       16.4083458506  MEMB      166             0.0000000000
     20650       166  PMPE      H11B           35.9677816089       45.0204056483       17.4516787582  MEMB      166             0.0000000000
     20651       166  PMPE      P              36.6930569867       43.1996364876       19.4948785424  MEMB      166             0.0000000000
     20652       166  PMPE      O13            36.6280757908       44.3594325227       20.4270717878  MEMB      166             0.0000000000
     20653       166  PMPE      O14            37.3835880252       41.9988709291       20.0173619050  MEMB      166             0.0000000000
     20654       166  PMPE      O11            35.2095412381       42.8726792297       19.0468056185  MEMB      166             0.0000000000
     20655       166  PMPE      O12            37.4850605302       43.7598106117       18.2626070615  MEMB      166             0.0000000000
     20656       166  PMPE      C1             34.8182401582       41.5617126705       18.6733380209  MEMB      166             0.0000000000
     20657       166  PMPE      HA             33.8573990731       41.2219438990       19.0889687392  MEMB      166             0.0000000000
     20658       166  PMPE      HB             35.5842601925       40.8269259013       18.9823882172  MEMB      166             0.0000000000
     20659       166  PMPE      C2             34.4913858430       41.5515181315       17.1749557011  MEMB      166             0.0000000000
     20660       166  PMPE      HS             33.9778789559       40.4701811354       17.0141313005  MEMB      166             0.0000000000
     20661       166  PMPE      O21            35.7521279448       42.0802915883       16.4638543731  MEMB      166             0.0000000000
     20662       166  PMPE      C21            36.5209674124       41.0478902676       16.5197258502  MEMB      166             0.0000000000
     20663       166  PMPE      O22            35.8582970352       40.1432100285       16.7604600412  MEMB      166             0.0000000000
     20664       166  PMPE      C22            37.8743680104       40.9885966379       15.6805548225  MEMB      166             0.0000000000
     20665       166  PMPE      H2R            38.6413937091       40.3012411825       16.0909056001  MEMB      166             0.0000000000
     20666       166  PMPE      H2S            38.1294325574       41.9972253513       15.8606486126  MEMB      166             0.0000000000
     20667       166  PMPE      C3             33.4104186040       42.4582959012       16.8103040271  MEMB      166             0.0000000000
     20668       166  PMPE      HX             33.8196543829       43.4612762292       17.0535871717  MEMB      166             0.0000000000
     20669       166  PMPE      HY             32.5537787012       42.2859819930       17.4456450151  MEMB      166             0.0000000000
     20670       166  PMPE      O31            33.0363997575       42.2526729686       15.4512372295  MEMB      166             0.0000000000
     20671       166  PMPE      C31            32.8363325103       43.3489550936       14.8267080260  MEMB      166             0.0000000000
     20672       166  PMPE      O32            32.7785513425       44.4679188262       15.3389793116  MEMB      166             0.0000000000
     20673       166  PMPE      C32            32.3174183093       42.9228157655       13.3668556275  MEMB      166             0.0000000000
     20674       166  PMPE      H2X            31.4597237688       42.1457840862       13.4266482043  MEMB      166             0.0000000000
     20675       166  PMPE      H2Y            33.0505480659       42.6487047080       12.7157957506  MEMB      166             0.0000000000
     20676       166  PMPE      C23            38.0128484344       40.5372013336       14.1524238320  MEMB      166             0.0000000000
     20677       166  PMPE      H3R            37.6634494255       39.4907362163       13.9924437256  MEMB      166             0.0000000000
     20678       166  PMPE      H3S            39.0820872100       40.3916545944       13.9841006040  MEMB      166             0.0000000000
     20679       166  PMPE      C24            37.4156230745       41.5039465506       13.0835255881  MEMB      166             0.0000000000
     20680       166  PMPE      H4R            36.3315899019       41.3982446598       12.9253849264  MEMB      166             0.0000000000
     20681       166  PMPE      H4S            37.6826666850       41.1605676187       12.0892194166  MEMB      166             0.0000000000
     20682       166  PMPE      C25            37.6110442330       43.0092710880       13.3263882728  MEMB      166             0.0000000000
     20683       166  PMPE      H5R            38.5406821932       43.2621118743       13.8745952583  MEMB      166             0.0000000000
     20684       166  PMPE      H5S            36.7976165027       43.3022890748       14.0263570305  MEMB      166             0.0000000000
     20685       166  PMPE      C26            37.4764564259       43.9054235770       12.0705288868  MEMB      166             0.0000000000
     20686       166  PMPE      H6R            37.9287401351       44.8877106191       12.3178152484  MEMB      166             0.0000000000
     20687       166  PMPE      H6S            36.4067950972       44.1147319727       11.8671816292  MEMB      166             0.0000000000
     20688       166  PMPE      C27            38.0524936368       43.3109779816       10.7661729454  MEMB      166             0.0000000000
     20689       166  PMPE      H7R            37.2837852482       42.6585566805       10.3024757489  MEMB      166             0.0000000000
     20690       166  PMPE      H7S            38.9096611892       42.6789768272       11.0586497419  MEMB      166             0.0000000000
     20691       166  PMPE      C28            38.4629453887       44.2991613922        9.6888938150  MEMB      166             0.0000000000
     20692       166  PMPE      H8R            37.6561745009       45.0585148476        9.6257959631  MEMB      166             0.0000000000
     20693       166  PMPE      H8S            38.5605522573       43.8692860171        8.6756545562  MEMB      166             0.0000000000
     20694       166  PMPE      C29            39.6962147732       44.9377725750       10.0870607596  MEMB      166             0.0000000000
     20695       166  PMPE      H9R            40.5129003388       44.5235115435       10.7095865175  MEMB      166             0.0000000000
     20696       166  PMPE      C217           39.3065072739       46.1369381437       10.7712285729  MEMB      166             0.0000000000
     20697       166  PMPE      H17R           39.8970308806       46.4301926247       11.6577138038  MEMB      166             0.0000000000
     20698       166  PMPE      H17S           38.5157856946       46.8251926588       10.5604759290  MEMB      166             0.0000000000
     20699       166  PMPE      C210           40.0682309609       46.0619432231        9.2936366335  MEMB      166             0.0000000000
     20700       166  PMPE      H10R           41.1125420308       46.1207088862        9.4525996022  MEMB      166             0.0000000000
     20701       166  PMPE      C211           39.3248478895       46.9779307166        8.2061515713  MEMB      166             0.0000000000
     20702       166  PMPE      H11R           39.1337432520       48.0830600704        8.4121759756  MEMB      166             0.0000000000
     20703       166  PMPE      H11S           38.3366781771       46.5705796731        8.1951182366  MEMB      166             0.0000000000
     20704       166  PMPE      C212           40.0059627416       47.0369876698        6.8604470416  MEMB      166             0.0000000000
     20705       166  PMPE      H12R           40.4793695963       46.0414666979        6.7190679925  MEMB      166             0.0000000000
     20706       166  PMPE      H12S           40.7308708821       47.9029975076        6.8070304348  MEMB      166             0.0000000000
     20707       166  PMPE      C213           39.1954585337       47.6729769085        5.8358060755  MEMB      166             0.0000000000
     20708       166  PMPE      H13R           39.2972646813       48.7865718088        6.0074651713  MEMB      166             0.0000000000
     20709       166  PMPE      H13S           38.1525835889       47.4186495496        5.9588652523  MEMB      166             0.0000000000
     20710       166  PMPE      C214           39.6259076181       47.2307576896        4.4605101712  MEMB      166             0.0000000000
     20711       166  PMPE      H14R           40.0234012929       46.2306840954        4.4177692777  MEMB      166             0.0000000000
     20712       166  PMPE      H14S           40.5122007717       47.8193749303        4.3375383886  MEMB      166             0.0000000000
     20713       166  PMPE      C215           38.4860441269       47.1710840844        3.4270417602  MEMB      166             0.0000000000
     20714       166  PMPE      H15R           37.7177101803       47.9276226210        3.5962779617  MEMB      166             0.0000000000
     20715       166  PMPE      H15S           37.8865304131       46.3096460955        3.6537223502  MEMB      166             0.0000000000
     20716       166  PMPE      C216           38.7764807802       47.1827864914        1.9321581902  MEMB      166             0.0000000000
     20717       166  PMPE      H16R           39.3367621954       48.0696320110        1.6466657394  MEMB      166             0.0000000000
     20718       166  PMPE      H16S           39.3407051083       46.2808681276        1.6779793148  MEMB      166             0.0000000000
     20719       166  PMPE      H16T           37.8159157790       47.2447472130        1.3753783921  MEMB      166             0.0000000000
     20720       166  PMPE      C33            31.7720839952       44.1856123573       12.6150816473  MEMB      166             0.0000000000
     20721       166  PMPE      H3X            32.0081353856       45.0985099514       13.2099047115  MEMB      166             0.0000000000
     20722       166  PMPE      H3Y            30.6881196363       43.7893786438       12.8973940419  MEMB      166             0.0000000000
     20723       166  PMPE      C34            31.6287449267       44.5000205545       10.9049174134  MEMB      166             0.0000000000
     20724       166  PMPE      H4X            30.9631536754       45.4438170827       10.8460711814  MEMB      166             0.0000000000
     20725       166  PMPE      H4Y            31.0465998568       43.5329834886       10.1064082295  MEMB      166             0.0000000000
     20726       166  PMPE      C35            32.6172956031       44.8444955907       10.3243951590  MEMB      166             0.0000000000
     20727       166  PMPE      H5X            33.2388403633       44.0479611720       10.7238118925  MEMB      166             0.0000000000
     20728       166  PMPE      H5Y            32.7469637810       45.7749756864       10.9000934322  MEMB      166             0.0000000000
     20729       166  PMPE      C36            32.1530756975       44.9403249201        8.8888014196  MEMB      166             0.0000000000
     20730       166  PMPE      H6X            32.8720606385       45.7153800260        8.6552933339  MEMB      166             0.0000000000
     20731       166  PMPE      H6Y            31.1932862680       45.3707003020        8.5644774324  MEMB      166             0.0000000000
     20732       166  PMPE      C37            32.1634331326       43.6357620176        8.1061837177  MEMB      166             0.0000000000
     20733       166  PMPE      H7X            31.8754877875       43.8139776130        7.0407659426  MEMB      166             0.0000000000
     20734       166  PMPE      H7Y            31.4271399686       42.9000815159        8.5086887014  MEMB      166             0.0000000000
     20735       166  PMPE      C38            33.4754448638       42.9038605370        8.3010969921  MEMB      166             0.0000000000
     20736       166  PMPE      H8X            33.3314177195       41.9223246986        7.8125551471  MEMB      166             0.0000000000
     20737       166  PMPE      H8Y            33.6777844855       42.6088650662        9.3548385008  MEMB      166             0.0000000000
     20738       166  PMPE      C39            34.6984774181       43.6140360918        7.6898806854  MEMB      166             0.0000000000
     20739       166  PMPE      H9X            35.2240564862       44.2652464007        8.4139630582  MEMB      166             0.0000000000
     20740       166  PMPE      H9Y            34.4021124229       44.3230928812        6.8907096349  MEMB      166             0.0000000000
     20741       166  PMPE      C310           35.7250579523       42.5587997939        7.2407754241  MEMB      166             0.0000000000
     20742       166  PMPE      H10X           35.6149371887       41.7558480570        7.9960430810  MEMB      166             0.0000000000
     20743       166  PMPE      H10Y           36.7787168158       42.9134244664        7.3141717947  MEMB      166             0.0000000000
     20744       166  PMPE      C311           35.4675941873       42.0605489645        5.8143480371  MEMB      166             0.0000000000
     20745       166  PMPE      H11X           34.4008354667       41.7347344666        5.7770139157  MEMB      166             0.0000000000
     20746       166  PMPE      H11Y           36.0942759902       41.1693474504        5.5814216797  MEMB      166             0.0000000000
     20747       166  PMPE      C312           35.8347823492       43.2023930148        4.8417915061  MEMB      166             0.0000000000
     20748       166  PMPE      H12X           36.8293095567       43.5965032880        5.1726767612  MEMB      166             0.0000000000
     20749       166  PMPE      H12Y           35.0491740444       43.9907220312        4.8865708188  MEMB      166             0.0000000000
     20750       166  PMPE      C313           36.0518137241       42.8387268087        3.3762343960  MEMB      166             0.0000000000
     20751       166  PMPE      H13X           36.9827197861       42.2199585661        3.3610456182  MEMB      166             0.0000000000
     20752       166  PMPE      H13Y           36.1793252275       43.7634117663        2.7574973852  MEMB      166             0.0000000000
     20753       166  PMPE      C314           34.8517319918       42.1066674477        2.8084493119  MEMB      166             0.0000000000
     20754       166  PMPE      H14X           33.9650213454       42.7852710665        2.7896939066  MEMB      166             0.0000000000
     20755       166  PMPE      H14Y           34.6304665289       41.2247825134        3.4138211446  MEMB      166             0.0000000000
     20756       166  PMPE      C315           35.1272588022       41.4334274658        1.5053153485  MEMB      166             0.0000000000
     20757       166  PMPE      H15X           36.1182267886       40.9686216619        1.4336597380  MEMB      166             0.0000000000
     20758       166  PMPE      H15Y           35.0955281123       42.2286343389        0.8923366150  MEMB      166             0.0000000000
     20759       166  PMPE      C316           34.0408891492       40.5698332475        0.9446662531  MEMB      166             0.0000000000
     20760       166  PMPE      H16X           33.0930739482       41.1443830093        0.7874965607  MEMB      166             0.0000000000
     20761       166  PMPE      H16Y           33.9490267302       39.7955884344        1.6829958159  MEMB      166             0.0000000000
     20762       166  PMPE      H16Z           34.3444329648       40.1439537097       -0.0424528555  MEMB      166             0.0000000000
     20763       167  PMPE      N              54.6180549479       15.3743470498       17.0766574898  MEMB      167             0.0000000000
     20764       167  PMPE      HN1            53.8692530663       14.8689852066       16.5869398159  MEMB      167             0.0000000000
     20765       167  PMPE      HN2            54.3246527444       16.3674023344       17.1344580000  MEMB      167             0.0000000000
     20766       167  PMPE      HN3            55.5123909157       15.2660853863       16.5722579924  MEMB      167             0.0000000000
     20767       167  PMPE      C12            54.6649393339       14.5914513146       18.3166445464  MEMB      167             0.0000000000
     20768       167  PMPE      H12A           54.9939119480       13.5495220412       18.1049636786  MEMB      167             0.0000000000
     20769       167  PMPE      H12B           53.6493424500       14.5907647720       18.7819307852  MEMB      167             0.0000000000
     20770       167  PMPE      C11            55.5418178978       15.2374344225       19.3015398268  MEMB      167             0.0000000000
     20771       167  PMPE      H11A           55.5905633738       14.2611017110       19.8801433592  MEMB      167             0.0000000000
     20772       167  PMPE      H11B           54.9902091052       16.1129082110       19.7783707515  MEMB      167             0.0000000000
     20773       167  PMPE      P              58.1955296656       14.9584233537       19.4942276948  MEMB      167             0.0000000000
     20774       167  PMPE      O13            57.9429396117       13.5333175576       19.7788512345  MEMB      167             0.0000000000
     20775       167  PMPE      O14            58.7605415710       15.8100503357       20.5377328808  MEMB      167             0.0000000000
     20776       167  PMPE      O11            59.0420884137       15.1502451146       18.2042768650  MEMB      167             0.0000000000
     20777       167  PMPE      O12            56.8445046837       15.6216263505       18.9764541023  MEMB      167             0.0000000000
     20778       167  PMPE      C1             58.7223281048       15.9459426626       17.1083137275  MEMB      167             0.0000000000
     20779       167  PMPE      HA             59.1116044044       16.9234385657       17.3362748362  MEMB      167             0.0000000000
     20780       167  PMPE      HB             57.6483276525       16.0069786646       16.9263089196  MEMB      167             0.0000000000
     20781       167  PMPE      C2             59.1657417753       15.4317551913       15.7332746485  MEMB      167             0.0000000000
     20782       167  PMPE      HS             60.2613457026       15.1341346004       15.7560454793  MEMB      167             0.0000000000
     20783       167  PMPE      O21            58.8958333251       16.3385898565       14.7434349263  MEMB      167             0.0000000000
     20784       167  PMPE      C21            59.7983201334       17.2746190884       14.8568984963  MEMB      167             0.0000000000
     20785       167  PMPE      O22            60.6469712131       17.0270008804       15.6392265864  MEMB      167             0.0000000000
     20786       167  PMPE      C22            59.6746557010       18.4060115611       14.0718957605  MEMB      167             0.0000000000
     20787       167  PMPE      H2R            60.5759906831       18.6805971636       13.5819474598  MEMB      167             0.0000000000
     20788       167  PMPE      H2S            59.5432517571       19.4025882626       14.4627338908  MEMB      167             0.0000000000
     20789       167  PMPE      C3             58.3730351815       14.2635490530       15.3564749684  MEMB      167             0.0000000000
     20790       167  PMPE      HX             57.3162720703       14.4530780052       15.2507635715  MEMB      167             0.0000000000
     20791       167  PMPE      HY             58.6055795846       13.6145270160       16.1616050887  MEMB      167             0.0000000000
     20792       167  PMPE      O31            58.7492502424       13.7993441868       14.1299060005  MEMB      167             0.0000000000
     20793       167  PMPE      C31            58.0560539041       12.7283487957       13.6998255747  MEMB      167             0.0000000000
     20794       167  PMPE      O32            57.2876375920       11.9809940415       14.2076725275  MEMB      167             0.0000000000
     20795       167  PMPE      C32            58.1821269383       12.6399689427       12.3515706677  MEMB      167             0.0000000000
     20796       167  PMPE      H2X            59.2165016171       12.9551596751       12.3961753332  MEMB      167             0.0000000000
     20797       167  PMPE      H2Y            57.9898392065       13.4859052760       11.7210047675  MEMB      167             0.0000000000
     20798       167  PMPE      C23            58.5371631804       17.8911721959       13.4410800268  MEMB      167             0.0000000000
     20799       167  PMPE      H3R            58.4897148614       16.9998764786       12.7431899800  MEMB      167             0.0000000000
     20800       167  PMPE      H3S            59.2434779895       18.9833694776       12.8781684062  MEMB      167             0.0000000000
     20801       167  PMPE      C24            56.7196343563       17.9518350842       13.5917268103  MEMB      167             0.0000000000
     20802       167  PMPE      H4R            56.0920798396       19.0368365418       13.5664135899  MEMB      167             0.0000000000
     20803       167  PMPE      H4S            56.8650620017       17.6906824220       14.5563689875  MEMB      167             0.0000000000
     20804       167  PMPE      C25            55.6662930372       17.4351831206       12.7863418481  MEMB      167             0.0000000000
     20805       167  PMPE      H5R            55.7512896533       18.1443465257       12.1949735168  MEMB      167             0.0000000000
     20806       167  PMPE      H5S            54.7069365206       17.8736491234       12.9778243026  MEMB      167             0.0000000000
     20807       167  PMPE      C26            55.8990106204       16.1807232372       12.1356085043  MEMB      167             0.0000000000
     20808       167  PMPE      H6R            55.8988193959       15.6408373397       13.0776978068  MEMB      167             0.0000000000
     20809       167  PMPE      H6S            56.8596989837       15.8821469111       11.7275183704  MEMB      167             0.0000000000
     20810       167  PMPE      C27            54.8353310028       15.7885289589       11.1338710282  MEMB      167             0.0000000000
     20811       167  PMPE      H7R            53.8440320276       16.1223455358       11.4295550361  MEMB      167             0.0000000000
     20812       167  PMPE      H7S            54.9487628247       14.7193235423       10.9884537793  MEMB      167             0.0000000000
     20813       167  PMPE      C28            54.8123685390       16.1805884066        9.6900804948  MEMB      167             0.0000000000
     20814       167  PMPE      H8R            54.5309032929       17.2047061994        9.7161288079  MEMB      167             0.0000000000
     20815       167  PMPE      H8S            54.0364278484       15.8690805172        9.0622653061  MEMB      167             0.0000000000
     20816       167  PMPE      C29            55.8712907950       15.4633611631        8.8195306394  MEMB      167             0.0000000000
     20817       167  PMPE      H9R            56.4732521864       14.6883940172        9.2660903820  MEMB      167             0.0000000000
     20818       167  PMPE      C217           56.9879572450       15.8266700139        9.0744000501  MEMB      167             0.0000000000
     20819       167  PMPE      H17R           58.0797580693       15.5675050512        9.2907804721  MEMB      167             0.0000000000
     20820       167  PMPE      H17S           56.6725884407       16.4882685471        9.9461448385  MEMB      167             0.0000000000
     20821       167  PMPE      C210           56.5048258383       16.0146176770        7.5347984543  MEMB      167             0.0000000000
     20822       167  PMPE      H10R           57.4791236260       15.6982458573        7.1254538400  MEMB      167             0.0000000000
     20823       167  PMPE      C211           55.6450643151       17.0329487223        6.4851168102  MEMB      167             0.0000000000
     20824       167  PMPE      H11R           56.4859116466       17.3461531879        5.7483770730  MEMB      167             0.0000000000
     20825       167  PMPE      H11S           55.2324032581       18.1701647456        6.7104482126  MEMB      167             0.0000000000
     20826       167  PMPE      C212           54.7587706739       16.6654422500        5.7119059178  MEMB      167             0.0000000000
     20827       167  PMPE      H12R           54.1817159790       16.2765148797        6.5341038576  MEMB      167             0.0000000000
     20828       167  PMPE      H12S           55.4823615438       15.9939146730        5.2138387119  MEMB      167             0.0000000000
     20829       167  PMPE      C213           54.1220254017       17.8480454720        5.0209242951  MEMB      167             0.0000000000
     20830       167  PMPE      H13R           54.8412822244       18.1618019207        4.2414753671  MEMB      167             0.0000000000
     20831       167  PMPE      H13S           53.8610565872       18.6911550505        5.7310067875  MEMB      167             0.0000000000
     20832       167  PMPE      C214           52.9595009072       17.3650552655        4.2622164930  MEMB      167             0.0000000000
     20833       167  PMPE      H14R           52.3292971875       18.2002207706        3.9019628815  MEMB      167             0.0000000000
     20834       167  PMPE      H14S           52.4045758136       16.7419921887        4.9876062651  MEMB      167             0.0000000000
     20835       167  PMPE      C215           53.4705008437       16.5712649016        3.0624823008  MEMB      167             0.0000000000
     20836       167  PMPE      H15R           54.1113327929       15.7390245907        3.4392213600  MEMB      167             0.0000000000
     20837       167  PMPE      H15S           54.0661204066       17.2937620767        2.4494589341  MEMB      167             0.0000000000
     20838       167  PMPE      C216           52.4004223968       15.9024106218        2.2184019063  MEMB      167             0.0000000000
     20839       167  PMPE      H16R           52.7928146710       15.5510322244        1.2446529547  MEMB      167             0.0000000000
     20840       167  PMPE      H16S           52.0445706802       15.0002315756        2.7468753824  MEMB      167             0.0000000000
     20841       167  PMPE      H16T           51.5381673606       16.5649561735        2.0270947768  MEMB      167             0.0000000000
     20842       167  PMPE      C33            57.5963861934       11.3259705150       11.7473206346  MEMB      167             0.0000000000
     20843       167  PMPE      H3X            56.5541457514       11.4462275079       11.7531768252  MEMB      167             0.0000000000
     20844       167  PMPE      H3Y            58.0025610929       10.3386793412       12.1674065887  MEMB      167             0.0000000000
     20845       167  PMPE      C34            57.6330166711       11.1304400720       10.2626406969  MEMB      167             0.0000000000
     20846       167  PMPE      H4X            57.2108748962       10.2388189656        9.8614690081  MEMB      167             0.0000000000
     20847       167  PMPE      H4Y            58.5139076130       10.5711641708       10.4972188668  MEMB      167             0.0000000000
     20848       167  PMPE      C35            57.5868055594       12.3302563683        9.2566258316  MEMB      167             0.0000000000
     20849       167  PMPE      H5X            58.2357970932       13.1834737291        9.4560986761  MEMB      167             0.0000000000
     20850       167  PMPE      H5Y            56.6027903608       12.6968006125        9.5148920362  MEMB      167             0.0000000000
     20851       167  PMPE      C36            57.6988101054       12.1982892478        7.6710553312  MEMB      167             0.0000000000
     20852       167  PMPE      H6X            57.3794641810       13.1605429300        7.2889860646  MEMB      167             0.0000000000
     20853       167  PMPE      H6Y            56.8705056817       11.4798699455        7.5118898093  MEMB      167             0.0000000000
     20854       167  PMPE      C37            59.0493796678       11.9935283673        6.7702183270  MEMB      167             0.0000000000
     20855       167  PMPE      H7X            59.0948926696       10.9104252228        6.3929398397  MEMB      167             0.0000000000
     20856       167  PMPE      H7Y            60.0751161331       12.1216119142        7.2609402108  MEMB      167             0.0000000000
     20857       167  PMPE      C38            59.5089931455       12.7386254513        5.7378448284  MEMB      167             0.0000000000
     20858       167  PMPE      H8X            60.5810361536       12.4100160451        5.5544336972  MEMB      167             0.0000000000
     20859       167  PMPE      H8Y            59.4883221971       13.6940961114        6.2900921047  MEMB      167             0.0000000000
     20860       167  PMPE      C39            58.5071678794       12.3990585483        4.7092646000  MEMB      167             0.0000000000
     20861       167  PMPE      H9X            57.4844409584       12.5777308102        5.1226115099  MEMB      167             0.0000000000
     20862       167  PMPE      H9Y            58.4681072241       11.3280952162        4.3778107929  MEMB      167             0.0000000000
     20863       167  PMPE      C310           58.8363575220       13.3693472958        3.6300233890  MEMB      167             0.0000000000
     20864       167  PMPE      H10X           59.8971880887       13.2956682579        3.3186699641  MEMB      167             0.0000000000
     20865       167  PMPE      H10Y           58.7634808842       14.3952109456        4.0727285115  MEMB      167             0.0000000000
     20866       167  PMPE      C311           57.9390316637       13.1288121591        2.4440910247  MEMB      167             0.0000000000
     20867       167  PMPE      H11X           57.1538865687       12.3627157048        2.6707103920  MEMB      167             0.0000000000
     20868       167  PMPE      H11Y           58.5171593953       12.8169787215        1.5651222220  MEMB      167             0.0000000000
     20869       167  PMPE      C312           57.2740625759       14.4086206358        2.0125389028  MEMB      167             0.0000000000
     20870       167  PMPE      H12X           58.0494803614       15.1091166626        1.6199963389  MEMB      167             0.0000000000
     20871       167  PMPE      H12Y           56.8181797034       14.8965629901        2.8987537952  MEMB      167             0.0000000000
     20872       167  PMPE      C313           56.1236703783       14.1097450099        1.0383308620  MEMB      167             0.0000000000
     20873       167  PMPE      H13X           55.5010930611       15.0313479846        1.0045537588  MEMB      167             0.0000000000
     20874       167  PMPE      H13Y           55.5648456156       13.2321181862        1.3960857673  MEMB      167             0.0000000000
     20875       167  PMPE      C314           56.4707063591       13.5595572274       -0.3309573623  MEMB      167             0.0000000000
     20876       167  PMPE      H14X           55.6814348607       13.2189551979       -1.0001927889  MEMB      167             0.0000000000
     20877       167  PMPE      H14Y           57.3128157356       12.8910004050       -0.2827336141  MEMB      167             0.0000000000
     20878       167  PMPE      C315           56.8384559318       14.6035453262       -1.1367925333  MEMB      167             0.0000000000
     20879       167  PMPE      H15X           57.5963542350       14.8984366164       -0.3446420654  MEMB      167             0.0000000000
     20880       167  PMPE      H15Y           56.1136070289       15.4690951384       -1.0837794987  MEMB      167             0.0000000000
     20881       167  PMPE      C316           57.4175058641       14.2157770308       -2.5644295165  MEMB      167             0.0000000000
     20882       167  PMPE      H16X           57.5314446168       15.0382647257       -3.3255200061  MEMB      167             0.0000000000
     20883       167  PMPE      H16Y           56.7663173214       14.0383936995       -3.3752624854  MEMB      167             0.0000000000
     20884       167  PMPE      H16Z           58.4896226606       13.9154539967       -2.4910808246  MEMB      167             0.0000000000
     20885       168  PMPG      C13           -54.4145664227      -24.4097115418       21.0830111284  MEMB      168             0.0000000000
     20886       168  PMPG      H13A          -55.3544528914      -24.7603626192       21.5718561600  MEMB      168             0.0000000000
     20887       168  PMPG      H13B          -54.0757041420      -25.2039029435       20.3843199892  MEMB      168             0.0000000000
     20888       168  PMPG      OC3           -53.3885315456      -24.2730457222       22.0854116362  MEMB      168             0.0000000000
     20889       168  PMPG      HO3           -52.5464188742      -24.5427210375       21.6876394992  MEMB      168             0.0000000000
     20890       168  PMPG      C12           -54.7739421633      -23.0723399642       20.3297568549  MEMB      168             0.0000000000
     20891       168  PMPG      H12A          -55.1769915962      -22.3384548051       21.0652303683  MEMB      168             0.0000000000
     20892       168  PMPG      OC2           -55.7967052350      -23.2783762236       19.3432441115  MEMB      168             0.0000000000
     20893       168  PMPG      HO2           -55.8433385917      -22.4495216821       18.8417588586  MEMB      168             0.0000000000
     20894       168  PMPG      C11           -53.5770235964      -22.4226827318       19.6671717393  MEMB      168             0.0000000000
     20895       168  PMPG      H11A          -52.7223478201      -22.4775260552       20.3817167840  MEMB      168             0.0000000000
     20896       168  PMPG      H11B          -53.7686139744      -21.3434327207       19.4219286108  MEMB      168             0.0000000000
     20897       168  PMPG      P             -52.3181640725      -22.5989845916       17.5180197748  MEMB      168             0.0000000000
     20898       168  PMPG      O13           -51.0287867311      -22.5646095923       18.2094330636  MEMB      168             0.0000000000
     20899       168  PMPG      O14           -52.8116137653      -21.3306655459       16.9396901260  MEMB      168             0.0000000000
     20900       168  PMPG      O11           -52.3561336552      -23.7272694487       16.4266940662  MEMB      168             0.0000000000
     20901       168  PMPG      O12           -53.3186694389      -23.2063287321       18.5137612657  MEMB      168             0.0000000000
     20902       168  PMPG      C1            -51.2116835819      -23.7916491133       15.6754176039  MEMB      168             0.0000000000
     20903       168  PMPG      HA            -51.2733424313      -24.7307315433       15.0673772553  MEMB      168             0.0000000000
     20904       168  PMPG      HB            -50.4196235780      -23.8902702278       16.4119701336  MEMB      168             0.0000000000
     20905       168  PMPG      C2            -50.9475121025      -22.7847845494       14.6092561981  MEMB      168             0.0000000000
     20906       168  PMPG      HS            -50.7747905622      -21.7555327216       15.1096994560  MEMB      168             0.0000000000
     20907       168  PMPG      O21           -52.1311110202      -22.8821538376       13.8142011120  MEMB      168             0.0000000000
     20908       168  PMPG      C21           -52.2491377148      -21.8393754925       13.1241480249  MEMB      168             0.0000000000
     20909       168  PMPG      O22           -51.5287275832      -20.9491989014       13.2618864744  MEMB      168             0.0000000000
     20910       168  PMPG      C22           -53.1608194779      -21.9822134294       11.9753193546  MEMB      168             0.0000000000
     20911       168  PMPG      H2R           -54.1063310692      -22.2896490222       12.4297209272  MEMB      168             0.0000000000
     20912       168  PMPG      H2S           -52.6409770462      -22.7687707275       11.4223848025  MEMB      168             0.0000000000
     20913       168  PMPG      C3            -49.7036668403      -23.1806665067       13.7289539279  MEMB      168             0.0000000000
     20914       168  PMPG      HX            -48.5581747662      -23.2243436677       13.7392054734  MEMB      168             0.0000000000
     20915       168  PMPG      HY            -49.6739981622      -22.4105487618       13.2859575506  MEMB      168             0.0000000000
     20916       168  PMPG      O31           -49.7644273404      -24.1797427054       13.0135660911  MEMB      168             0.0000000000
     20917       168  PMPG      C31           -49.8233588172      -24.1000705080       11.9087882950  MEMB      168             0.0000000000
     20918       168  PMPG      O32           -50.2417703280      -23.1072325629       11.3554667345  MEMB      168             0.0000000000
     20919       168  PMPG      C32           -49.8709753626      -25.5116761466       11.5720629196  MEMB      168             0.0000000000
     20920       168  PMPG      H2X           -49.4694431087      -26.1419565888       12.3464258780  MEMB      168             0.0000000000
     20921       168  PMPG      H2Y           -49.5592443077      -25.8585364482       10.5972074177  MEMB      168             0.0000000000
     20922       168  PMPG      C23           -53.4513640908      -20.8345533575       10.9981849707  MEMB      168             0.0000000000
     20923       168  PMPG      H3R           -52.6354664160      -20.3882283512       10.4119462179  MEMB      168             0.0000000000
     20924       168  PMPG      H3S           -53.7097518206      -20.0482889509       11.6013259853  MEMB      168             0.0000000000
     20925       168  PMPG      C24           -54.7621601962      -21.0149718684       10.2510068497  MEMB      168             0.0000000000
     20926       168  PMPG      H4R           -55.4348396873      -21.5952675183       10.9251055605  MEMB      168             0.0000000000
     20927       168  PMPG      H4S           -54.5636980408      -21.6317862351        9.3660588186  MEMB      168             0.0000000000
     20928       168  PMPG      C25           -55.4835082267      -19.6961349737        9.9227651792  MEMB      168             0.0000000000
     20929       168  PMPG      H5R           -55.7822975131      -19.3239126738       10.9187738677  MEMB      168             0.0000000000
     20930       168  PMPG      H5S           -56.4071207738      -19.8587826216        9.3276913599  MEMB      168             0.0000000000
     20931       168  PMPG      C26           -54.7083325964      -18.5725895967        9.2229312525  MEMB      168             0.0000000000
     20932       168  PMPG      H6R           -53.8646971339      -18.1946135874        9.7078260562  MEMB      168             0.0000000000
     20933       168  PMPG      H6S           -55.3202372047      -17.6544873929        9.2178535405  MEMB      168             0.0000000000
     20934       168  PMPG      C27           -53.9764465879      -19.0029981262        7.9755547500  MEMB      168             0.0000000000
     20935       168  PMPG      H7R           -54.7850502363      -19.1389872608        7.2532580369  MEMB      168             0.0000000000
     20936       168  PMPG      H7S           -53.5134891508      -19.9970515462        8.1557164099  MEMB      168             0.0000000000
     20937       168  PMPG      C28           -52.9004226588      -18.0525107532        7.4173467854  MEMB      168             0.0000000000
     20938       168  PMPG      H8R           -51.9325496905      -18.1630337714        7.9523588519  MEMB      168             0.0000000000
     20939       168  PMPG      H8S           -53.1437924244      -16.9863979801        7.5280354328  MEMB      168             0.0000000000
     20940       168  PMPG      C29           -52.7238847302      -18.2697140975        5.9296873013  MEMB      168             0.0000000000
     20941       168  PMPG      H9R           -53.4117571701      -17.7935464924        5.2126702855  MEMB      168             0.0000000000
     20942       168  PMPG      C217          -51.2596522952      -18.2336811766        5.5216247878  MEMB      168             0.0000000000
     20943       168  PMPG      H17R          -51.1284654160      -17.6998527553        4.5933301370  MEMB      168             0.0000000000
     20944       168  PMPG      H17S          -50.5280684486      -18.3010276195        6.3169417790  MEMB      168             0.0000000000
     20945       168  PMPG      C210          -52.1137470018      -19.4943100413        5.4059479479  MEMB      168             0.0000000000
     20946       168  PMPG      H10R          -52.3448595188      -19.7416001524        4.3574487653  MEMB      168             0.0000000000
     20947       168  PMPG      C211          -51.8506487226      -20.5896683436        6.3737319746  MEMB      168             0.0000000000
     20948       168  PMPG      H11R          -51.4473642235      -20.3753958659        7.3950123290  MEMB      168             0.0000000000
     20949       168  PMPG      H11S          -52.5009776766      -21.4709233615        6.4075142389  MEMB      168             0.0000000000
     20950       168  PMPG      C212          -50.8024416198      -21.1173720735        5.6370976401  MEMB      168             0.0000000000
     20951       168  PMPG      H12R          -50.5458985947      -21.7946876601        6.4131939376  MEMB      168             0.0000000000
     20952       168  PMPG      H12S          -50.0000873940      -20.3331715369        5.4364241516  MEMB      168             0.0000000000
     20953       168  PMPG      C213          -50.9210942657      -22.3012848042        4.6717210621  MEMB      168             0.0000000000
     20954       168  PMPG      H13R          -51.2010933981      -21.7696989907        3.7734806639  MEMB      168             0.0000000000
     20955       168  PMPG      H13S          -51.1618184016      -23.3021451533        5.0289897472  MEMB      168             0.0000000000
     20956       168  PMPG      C214          -49.9101829480      -23.1542645088        3.9774864529  MEMB      168             0.0000000000
     20957       168  PMPG      H14R          -49.3372626362      -24.0036265514        4.5168078689  MEMB      168             0.0000000000
     20958       168  PMPG      H14S          -48.8903427434      -22.7674504716        4.3015852845  MEMB      168             0.0000000000
     20959       168  PMPG      C215          -49.7109300401      -22.4480509099        1.8647100677  MEMB      168             0.0000000000
     20960       168  PMPG      H15R          -50.1173961669      -23.3997707413        1.8225737643  MEMB      168             0.0000000000
     20961       168  PMPG      H15S          -48.3406443539      -22.0635307274        1.8900610751  MEMB      168             0.0000000000
     20962       168  PMPG      C216          -49.4701846623      -20.8029084559        1.6020829269  MEMB      168             0.0000000000
     20963       168  PMPG      H16R          -50.2747713483      -20.5926354519        2.1651038658  MEMB      168             0.0000000000
     20964       168  PMPG      H16S          -49.6234328585      -21.2459400334        0.8009618795  MEMB      168             0.0000000000
     20965       168  PMPG      H16T          -48.4187765631      -20.5391511877        2.1678620420  MEMB      168             0.0000000000
     20966       168  PMPG      C33           -51.2383112250      -25.8994387992       11.6463727826  MEMB      168             0.0000000000
     20967       168  PMPG      H3X           -51.6864139046      -25.3286116207       12.4794707687  MEMB      168             0.0000000000
     20968       168  PMPG      H3Y           -51.2543537544      -26.9793831683       11.8943849820  MEMB      168             0.0000000000
     20969       168  PMPG      C34           -51.7800493727      -25.5538725772       10.3030127726  MEMB      168             0.0000000000
     20970       168  PMPG      H4X           -51.4898714128      -26.3325963884        9.5623100802  MEMB      168             0.0000000000
     20971       168  PMPG      H4Y           -51.4917510345      -24.5928232913        9.9341218318  MEMB      168             0.0000000000
     20972       168  PMPG      C35           -53.1984234714      -25.2862761386       10.4215420968  MEMB      168             0.0000000000
     20973       168  PMPG      H5X           -53.5941214949      -24.9367459839       11.4294700526  MEMB      168             0.0000000000
     20974       168  PMPG      H5Y           -53.3957809258      -26.3829199215       10.2145774108  MEMB      168             0.0000000000
     20975       168  PMPG      C36           -53.9338368025      -24.3550076327        9.4779150028  MEMB      168             0.0000000000
     20976       168  PMPG      H6X           -53.2862611725      -23.5182598641        9.2400773291  MEMB      168             0.0000000000
     20977       168  PMPG      H6Y           -54.8780517794      -24.0269208573        9.9071121907  MEMB      168             0.0000000000
     20978       168  PMPG      C37           -54.3852230646      -25.0244538654        8.2834294391  MEMB      168             0.0000000000
     20979       168  PMPG      H7X           -54.6998960943      -26.0723671482        8.5836258197  MEMB      168             0.0000000000
     20980       168  PMPG      H7Y           -53.4263467111      -25.0716988541        7.9678026852  MEMB      168             0.0000000000
     20981       168  PMPG      C38           -55.0872743178      -24.3990749551        7.1102443469  MEMB      168             0.0000000000
     20982       168  PMPG      H8X           -54.5767866441      -23.4425108498        6.9115310003  MEMB      168             0.0000000000
     20983       168  PMPG      H8Y           -56.1106916417      -24.2538957443        7.4907909250  MEMB      168             0.0000000000
     20984       168  PMPG      C39           -55.0871537329      -25.1419977051        5.7567857470  MEMB      168             0.0000000000
     20985       168  PMPG      H9X           -55.8057808207      -24.6014923158        5.1364362901  MEMB      168             0.0000000000
     20986       168  PMPG      H9Y           -55.4858828989      -26.1709268951        5.8047383793  MEMB      168             0.0000000000
     20987       168  PMPG      C310          -53.7649455340      -25.1109670191        4.9994746891  MEMB      168             0.0000000000
     20988       168  PMPG      H10X          -52.9745707141      -25.6632107693        5.3566208659  MEMB      168             0.0000000000
     20989       168  PMPG      H10Y          -53.0800164428      -24.3159920541        5.2467262838  MEMB      168             0.0000000000
     20990       168  PMPG      C311          -53.8298699785      -25.5671438260        3.5514770281  MEMB      168             0.0000000000
     20991       168  PMPG      H11X          -54.2870756364      -24.7966683948        3.0521732139  MEMB      168             0.0000000000
     20992       168  PMPG      H11Y          -54.6105608115      -26.3433961264        3.3300698210  MEMB      168             0.0000000000
     20993       168  PMPG      C312          -52.4291031905      -25.6408533383        2.9521205972  MEMB      168             0.0000000000
     20994       168  PMPG      H12X          -52.0205571459      -26.5643024455        2.9215184595  MEMB      168             0.0000000000
     20995       168  PMPG      H12Y          -51.6663864020      -25.1966591563        3.5498158754  MEMB      168             0.0000000000
     20996       168  PMPG      C313          -52.0870673358      -25.9092327915        1.5906054854  MEMB      168             0.0000000000
     20997       168  PMPG      H13X          -51.7395748833      -24.9250415839        1.3742007582  MEMB      168             0.0000000000
     20998       168  PMPG      H13Y          -53.0665680835      -26.1902651901        1.2050920857  MEMB      168             0.0000000000
     20999       168  PMPG      C314          -50.9384944235      -26.9627463726        1.3532282307  MEMB      168             0.0000000000
     21000       168  PMPG      H14X          -51.2908990851      -27.9897072264        1.2865210053  MEMB      168             0.0000000000
     21001       168  PMPG      H14Y          -50.1021298115      -27.1090652767        1.9621495713  MEMB      168             0.0000000000
     21002       168  PMPG      C315          -49.9367895000      -26.6594428123        0.4294430168  MEMB      168             0.0000000000
     21003       168  PMPG      H15X          -49.4871570170      -27.5717131625        0.0056919259  MEMB      168             0.0000000000
     21004       168  PMPG      H15Y          -49.7149053820      -25.7175823113       -0.1624283128  MEMB      168             0.0000000000
     21005       168  PMPG      C316          -50.6113628435      -26.6366647166       -0.2487287945  MEMB      168             0.0000000000
     21006       168  PMPG      H16X          -49.6699425395      -27.2080415132       -1.4689759277  MEMB      168             0.0000000000
     21007       168  PMPG      H16Y          -51.2978282622      -25.6220026508       -0.5133526912  MEMB      168             0.0000000000
     21008       168  PMPG      H16Z          -51.5741023448      -27.3348192116       -0.3291332052  MEMB      168             0.0000000000
     21009       169  POPE      N             -27.2367187963      -54.1343628679       20.1600575038  MEMB      169             0.0000000000
     21010       169  POPE      HN1           -28.2500222436      -54.3825663927       20.0693668418  MEMB      169             0.0000000000
     21011       169  POPE      HN2           -26.6822820359      -54.9166950911       20.5579574546  MEMB      169             0.0000000000
     21012       169  POPE      HN3           -27.1674897034      -53.3171869395       20.8131644773  MEMB      169             0.0000000000
     21013       169  POPE      C12           -26.6319302607      -53.9141993545       18.7838001579  MEMB      169             0.0000000000
     21014       169  POPE      H12A          -26.7457324127      -52.8419807531       18.5443475998  MEMB      169             0.0000000000
     21015       169  POPE      H12B          -27.1850930973      -54.5522855681       18.0643203673  MEMB      169             0.0000000000
     21016       169  POPE      C11           -25.1231719484      -54.2000988566       18.7088165508  MEMB      169             0.0000000000
     21017       169  POPE      H11A          -24.7067896245      -54.1559189431       17.6791258607  MEMB      169             0.0000000000
     21018       169  POPE      H11B          -24.9022253953      -55.2380807247       18.9968397070  MEMB      169             0.0000000000
     21019       169  POPE      P             -23.7968870652      -51.9377724776       18.8779703610  MEMB      169             0.0000000000
     21020       169  POPE      O13           -23.0420952900      -51.2652290313       19.9474390256  MEMB      169             0.0000000000
     21021       169  POPE      O14           -24.8965725618      -51.2207704567       18.1932310635  MEMB      169             0.0000000000
     21022       169  POPE      O11           -22.7977422518      -52.5071321762       17.8239712957  MEMB      169             0.0000000000
     21023       169  POPE      O12           -24.4515021724      -53.2648696032       19.5374486041  MEMB      169             0.0000000000
     21024       169  POPE      C1            -21.6703241450      -51.7482548037       17.4295103079  MEMB      169             0.0000000000
     21025       169  POPE      HA            -20.8123685690      -52.2268936334       17.8595366850  MEMB      169             0.0000000000
     21026       169  POPE      HB            -21.6473850331      -50.7446154417       17.9156293834  MEMB      169             0.0000000000
     21027       169  POPE      C2            -21.6947821096      -51.6980678345       15.8360890687  MEMB      169             0.0000000000
     21028       169  POPE      HS            -20.9046078378      -50.9087538590       15.5081989694  MEMB      169             0.0000000000
     21029       169  POPE      O21           -22.9601375188      -51.5667185971       15.0725718165  MEMB      169             0.0000000000
     21030       169  POPE      C21           -23.3790223322      -50.5149262288       15.2732389505  MEMB      169             0.0000000000
     21031       169  POPE      O22           -22.6776572311      -49.9411498537       16.0226385289  MEMB      169             0.0000000000
     21032       169  POPE      C22           -24.8043181490      -50.1819737139       14.5743964302  MEMB      169             0.0000000000
     21033       169  POPE      H2R           -24.7373798977      -49.4174574175       13.6965398521  MEMB      169             0.0000000000
     21034       169  POPE      H2S           -25.5030962999      -49.7469258075       15.3534301636  MEMB      169             0.0000000000
     21035       169  POPE      C3            -21.3377920619      -52.8030156269       15.1948923876  MEMB      169             0.0000000000
     21036       169  POPE      HX            -22.2064229474      -53.5348481441       15.5409870413  MEMB      169             0.0000000000
     21037       169  POPE      HY            -20.4437919932      -53.1583985548       15.4851920218  MEMB      169             0.0000000000
     21038       169  POPE      O31           -21.1274134387      -52.4276674322       13.7830711298  MEMB      169             0.0000000000
     21039       169  POPE      C31           -21.2279603787      -53.5019413987       13.3336990458  MEMB      169             0.0000000000
     21040       169  POPE      O32           -21.3851367282      -54.4830214666       14.0752352118  MEMB      169             0.0000000000
     21041       169  POPE      C32           -21.1508700431      -53.3581000519       11.7742334243  MEMB      169             0.0000000000
     21042       169  POPE      H2X           -20.5171633420      -54.0213353459       11.3615466329  MEMB      169             0.0000000000
     21043       169  POPE      H2Y           -20.4549101212      -52.5659340178       11.5291383143  MEMB      169             0.0000000000
     21044       169  POPE      C23           -25.3154967672      -51.3121160733       13.9964379036  MEMB      169             0.0000000000
     21045       169  POPE      H3R           -26.3247494668      -51.3037050916       14.4131012337  MEMB      169             0.0000000000
     21046       169  POPE      H3S           -24.7378874077      -52.1451107269       14.3859136396  MEMB      169             0.0000000000
     21047       169  POPE      C24           -25.1905024029      -51.1529462731       12.5124186171  MEMB      169             0.0000000000
     21048       169  POPE      H4R           -25.2001200012      -52.1675265143       12.1278623473  MEMB      169             0.0000000000
     21049       169  POPE      H4S           -24.2123233438      -50.6847061688       12.2244836931  MEMB      169             0.0000000000
     21050       169  POPE      C25           -26.4195717290      -50.5347813193       11.8855984351  MEMB      169             0.0000000000
     21051       169  POPE      H5R           -26.7694122115      -49.7811747829       12.5850115427  MEMB      169             0.0000000000
     21052       169  POPE      H5S           -27.2173836487      -51.3133304244       11.7801639386  MEMB      169             0.0000000000
     21053       169  POPE      C26           -26.0890129158      -49.8566107342       10.5626935422  MEMB      169             0.0000000000
     21054       169  POPE      H6R           -25.4565513889      -48.9607505289       10.7619439456  MEMB      169             0.0000000000
     21055       169  POPE      H6S           -27.0521763401      -49.5384792961       10.1375335656  MEMB      169             0.0000000000
     21056       169  POPE      C27           -25.2954200693      -50.7729027443        9.6414060410  MEMB      169             0.0000000000
     21057       169  POPE      H7R           -25.7071691898      -51.7904919132        9.7236149777  MEMB      169             0.0000000000
     21058       169  POPE      H7S           -24.2271714133      -50.8028736760        9.8896288306  MEMB      169             0.0000000000
     21059       169  POPE      C28           -25.1974469026      -50.4060804029        8.2156865301  MEMB      169             0.0000000000
     21060       169  POPE      H8R           -24.2244780647      -50.2797488490        7.7742696139  MEMB      169             0.0000000000
     21061       169  POPE      H8S           -25.4674603596      -49.2876798856        8.2276830962  MEMB      169             0.0000000000
     21062       169  POPE      C29           -25.9357287431      -51.5085789987        7.4178323311  MEMB      169             0.0000000000
     21063       169  POPE      H91           -26.9860421300      -51.6712258925        7.8124871857  MEMB      169             0.0000000000
     21064       169  POPE      C210          -25.7153151913      -51.7153848947        6.0805416769  MEMB      169             0.0000000000
     21065       169  POPE      H101          -26.7376842432      -51.9020559263        5.5374369180  MEMB      169             0.0000000000
     21066       169  POPE      C211          -24.6232106558      -50.8323358488        5.3351962110  MEMB      169             0.0000000000
     21067       169  POPE      H11R          -23.7571273354      -51.0827474964        5.8125097676  MEMB      169             0.0000000000
     21068       169  POPE      H11S          -24.5363273278      -49.6612004097        5.3610713574  MEMB      169             0.0000000000
     21069       169  POPE      C212          -24.3220151469      -51.3928348158        3.9412403696  MEMB      169             0.0000000000
     21070       169  POPE      H12R          -24.9004344998      -50.6935429344        3.5076098113  MEMB      169             0.0000000000
     21071       169  POPE      H12S          -24.8564340149      -52.2926960280        3.6500330479  MEMB      169             0.0000000000
     21072       169  POPE      C213          -23.2972150078      -50.9079574935        2.9942418616  MEMB      169             0.0000000000
     21073       169  POPE      H13R          -22.4001188059      -51.1138217493        3.4919995374  MEMB      169             0.0000000000
     21074       169  POPE      H13S          -23.4207332269      -49.7961055255        2.9029155754  MEMB      169             0.0000000000
     21075       169  POPE      C214          -23.3090077499      -51.6689610395        1.6910096512  MEMB      169             0.0000000000
     21076       169  POPE      H14R          -22.9995959227      -50.8688641136        0.9751522741  MEMB      169             0.0000000000
     21077       169  POPE      H14S          -24.2756399493      -52.1006634512        1.3538509263  MEMB      169             0.0000000000
     21078       169  POPE      C215          -22.5241529855      -52.9230950391        1.4758323791  MEMB      169             0.0000000000
     21079       169  POPE      H15R          -21.5808860955      -52.7118828453        1.9459406453  MEMB      169             0.0000000000
     21080       169  POPE      H15S          -22.2707297082      -53.0826195003        0.4031159441  MEMB      169             0.0000000000
     21081       169  POPE      C216          -23.2354024127      -54.1940986379        1.9774444651  MEMB      169             0.0000000000
     21082       169  POPE      H16R          -24.2361306357      -54.2678531676        1.5318216614  MEMB      169             0.0000000000
     21083       169  POPE      H16S          -23.4460211130      -54.1342650466        3.0481655144  MEMB      169             0.0000000000
     21084       169  POPE      C217          -22.4090054285      -55.4316979506        1.5845013638  MEMB      169             0.0000000000
     21085       169  POPE      H17R          -21.4197935490      -55.2649387258        2.0276438482  MEMB      169             0.0000000000
     21086       169  POPE      H17S          -22.3647401394      -55.5920521502        0.5024150625  MEMB      169             0.0000000000
     21087       169  POPE      C218          -22.6977458977      -56.7985594051        2.0255940393  MEMB      169             0.0000000000
     21088       169  POPE      H18R          -23.4970321314      -57.2292755964        1.4999366479  MEMB      169             0.0000000000
     21089       169  POPE      H18S          -22.8235015261      -56.7056440731        3.0614904694  MEMB      169             0.0000000000
     21090       169  POPE      H18T          -21.9628511049      -57.5568208125        2.1274811288  MEMB      169             0.0000000000
     21091       169  POPE      C33           -22.5006517069      -53.3445867981       11.0567377957  MEMB      169             0.0000000000
     21092       169  POPE      H3X           -22.4183370709      -52.6623208186       10.2011177713  MEMB      169             0.0000000000
     21093       169  POPE      H3Y           -23.1091953564      -52.8753146355       11.8492989868  MEMB      169             0.0000000000
     21094       169  POPE      C34           -23.2659808330      -54.6261977204       10.6430757726  MEMB      169             0.0000000000
     21095       169  POPE      H4X           -23.3585297560      -55.1643667332       11.5936756611  MEMB      169             0.0000000000
     21096       169  POPE      H4Y           -22.9077481267      -55.3321598876        9.8578072159  MEMB      169             0.0000000000
     21097       169  POPE      C35           -24.5572399954      -54.3003535675        9.9692274716  MEMB      169             0.0000000000
     21098       169  POPE      H5X           -24.2928780799      -53.6646390190        9.0982886918  MEMB      169             0.0000000000
     21099       169  POPE      H5Y           -25.1585755806      -53.6717459666       10.6357149751  MEMB      169             0.0000000000
     21100       169  POPE      C36           -25.3517588963      -55.5133490422        9.5202677299  MEMB      169             0.0000000000
     21101       169  POPE      H6X           -25.4696759847      -56.2569477652       10.3272613095  MEMB      169             0.0000000000
     21102       169  POPE      H6Y           -24.7952808390      -56.0174413461        8.7349521454  MEMB      169             0.0000000000
     21103       169  POPE      C37           -26.7113644214      -54.9499488752        9.1360959158  MEMB      169             0.0000000000
     21104       169  POPE      H7X           -26.5919347255      -54.1137002261        8.4459376817  MEMB      169             0.0000000000
     21105       169  POPE      H7Y           -27.3011298161      -54.7362122649       10.0406277820  MEMB      169             0.0000000000
     21106       169  POPE      C38           -27.6189185759      -55.7501262523        8.3481069201  MEMB      169             0.0000000000
     21107       169  POPE      H8X           -28.6758832240      -55.6547182934        8.5370086175  MEMB      169             0.0000000000
     21108       169  POPE      H8Y           -27.3054555053      -56.5977636063        8.9729719535  MEMB      169             0.0000000000
     21109       169  POPE      C39           -27.2213477737      -55.6663129108        6.8441247869  MEMB      169             0.0000000000
     21110       169  POPE      H9X           -27.3784976733      -56.4074481521        5.9561922816  MEMB      169             0.0000000000
     21111       169  POPE      H9Y           -26.2284163351      -55.9011697955        6.9132472252  MEMB      169             0.0000000000
     21112       169  POPE      C310          -27.9356382143      -54.8504015116        6.0054229029  MEMB      169             0.0000000000
     21113       169  POPE      H10X          -27.2982276702      -54.0314831578        6.2993195380  MEMB      169             0.0000000000
     21114       169  POPE      H10Y          -28.9589973771      -54.8106245212        6.3979187598  MEMB      169             0.0000000000
     21115       169  POPE      C311          -27.8440459986      -55.2467118505        4.5318336160  MEMB      169             0.0000000000
     21116       169  POPE      H11X          -28.5451640564      -56.0514477393        4.2980092207  MEMB      169             0.0000000000
     21117       169  POPE      H11Y          -26.9890933285      -55.8108431204        4.1841771113  MEMB      169             0.0000000000
     21118       169  POPE      C312          -27.7203223110      -54.0365733561        3.7671408162  MEMB      169             0.0000000000
     21119       169  POPE      H12X          -27.2474252222      -54.2915918866        2.8589155486  MEMB      169             0.0000000000
     21120       169  POPE      H12Y          -26.8870328846      -53.3723891836        4.0256772228  MEMB      169             0.0000000000
     21121       169  POPE      C313          -29.0951678283      -53.4322899894        3.6760663151  MEMB      169             0.0000000000
     21122       169  POPE      H13X          -29.3410457876      -52.9147177611        4.5992175178  MEMB      169             0.0000000000
     21123       169  POPE      H13Y          -29.8885855636      -54.1885502019        3.4474400852  MEMB      169             0.0000000000
     21124       169  POPE      C314          -29.0808178970      -52.4932263232        2.5458468072  MEMB      169             0.0000000000
     21125       169  POPE      H14X          -29.3480106753      -53.2803740780        1.8406264022  MEMB      169             0.0000000000
     21126       169  POPE      H14Y          -28.1513764657      -52.0241863535        2.3833739396  MEMB      169             0.0000000000
     21127       169  POPE      C315          -30.0383772853      -51.4686300396        2.1797711041  MEMB      169             0.0000000000
     21128       169  POPE      H15X          -30.4389191077      -51.0999375289        3.1718598479  MEMB      169             0.0000000000
     21129       169  POPE      H15Y          -30.6185953639      -52.2460240756        1.5519230813  MEMB      169             0.0000000000
     21130       169  POPE      C316          -30.0890643256      -50.4420030037        1.0832180803  MEMB      169             0.0000000000
     21131       169  POPE      H16X          -30.9999007806      -50.2701374041        0.4106480835  MEMB      169             0.0000000000
     21132       169  POPE      H16Y          -29.7127135108      -50.7925984663        0.2544473673  MEMB      169             0.0000000000
     21133       169  POPE      H16Z          -30.0472712203      -49.4925479230        1.5231781040  MEMB      169             0.0000000000
     21134       170  PMPE      N              46.7066566470      -40.5801879965       18.9237193669  MEMB      170             0.0000000000
     21135       170  PMPE      HN1            46.8319247742      -41.3629137710       19.5881461443  MEMB      170             0.0000000000
     21136       170  PMPE      HN2            45.9818320861      -40.8674310647       18.2320817035  MEMB      170             0.0000000000
     21137       170  PMPE      HN3            47.6490204813      -40.3946614166       18.5249943462  MEMB      170             0.0000000000
     21138       170  PMPE      C12            46.2858846514      -39.2627581706       19.5088902739  MEMB      170             0.0000000000
     21139       170  PMPE      H12A           46.2356973418      -38.5101704864       18.7046700931  MEMB      170             0.0000000000
     21140       170  PMPE      H12B           47.1383834026      -38.9926630920       20.1260151038  MEMB      170             0.0000000000
     21141       170  PMPE      C11            44.9839684773      -39.3265902908       20.3229106349  MEMB      170             0.0000000000
     21142       170  PMPE      H11A           44.7279122540      -38.3321671013       20.7667221270  MEMB      170             0.0000000000
     21143       170  PMPE      H11B           45.2345200706      -40.0447336743       21.1152529098  MEMB      170             0.0000000000
     21144       170  PMPE      P              43.0122174043      -38.9345258215       18.6294037706  MEMB      170             0.0000000000
     21145       170  PMPE      O13            43.8844379994      -37.8101016907       18.2095485964  MEMB      170             0.0000000000
     21146       170  PMPE      O14            41.7351326964      -38.5752127250       19.2578016574  MEMB      170             0.0000000000
     21147       170  PMPE      O11            42.7762436082      -39.9417723137       17.4227310979  MEMB      170             0.0000000000
     21148       170  PMPE      O12            43.8679983072      -39.8569031091       19.6259364515  MEMB      170             0.0000000000
     21149       170  PMPE      C1             43.8466509465      -40.6217051552       16.7750787561  MEMB      170             0.0000000000
     21150       170  PMPE      HA             43.9075188626      -41.6853872517       17.1095646077  MEMB      170             0.0000000000
     21151       170  PMPE      HB             44.8210257018      -40.1804309213       17.0435665021  MEMB      170             0.0000000000
     21152       170  PMPE      C2             43.7527332518      -40.4339474465       15.2408309108  MEMB      170             0.0000000000
     21153       170  PMPE      HS             44.6915789166      -40.8330921982       14.7835128556  MEMB      170             0.0000000000
     21154       170  PMPE      O21            43.6092206627      -39.0349874517       14.8904384647  MEMB      170             0.0000000000
     21155       170  PMPE      C21            44.7006833423      -38.2827145209       15.0737843482  MEMB      170             0.0000000000
     21156       170  PMPE      O22            45.8289735953      -38.7168529708       15.2529591064  MEMB      170             0.0000000000
     21157       170  PMPE      C22            44.3650082609      -36.8003042754       14.9521179498  MEMB      170             0.0000000000
     21158       170  PMPE      H2R            44.4801948651      -36.2663967874       15.9251818067  MEMB      170             0.0000000000
     21159       170  PMPE      H2S            43.3301179147      -36.6605341943       14.5860350531  MEMB      170             0.0000000000
     21160       170  PMPE      C3             42.5749866206      -41.2451103765       14.6130781593  MEMB      170             0.0000000000
     21161       170  PMPE      HX             41.5797844260      -41.0892572479       15.0730378428  MEMB      170             0.0000000000
     21162       170  PMPE      HY             42.8497820794      -42.3346916285       14.7576045262  MEMB      170             0.0000000000
     21163       170  PMPE      O31            42.3558629633      -40.7875552122       13.2431936802  MEMB      170             0.0000000000
     21164       170  PMPE      C31            43.3094873790      -41.1847089071       12.4763596849  MEMB      170             0.0000000000
     21165       170  PMPE      O32            44.1098484740      -41.9242820166       12.8851818878  MEMB      170             0.0000000000
     21166       170  PMPE      C32            43.3477665001      -40.7111522720       11.0559517899  MEMB      170             0.0000000000
     21167       170  PMPE      H2X            44.2528239089      -40.0762104455       10.9291202740  MEMB      170             0.0000000000
     21168       170  PMPE      H2Y            42.3846206540      -40.2195628993       10.9131911463  MEMB      170             0.0000000000
     21169       170  PMPE      C23            45.2868497645      -36.0840381967       13.9491629134  MEMB      170             0.0000000000
     21170       170  PMPE      H3R            46.3763742537      -36.1956875847       14.1214452837  MEMB      170             0.0000000000
     21171       170  PMPE      H3S            45.0476682238      -35.0249506317       14.1865574208  MEMB      170             0.0000000000
     21172       170  PMPE      C24            45.0197930954      -36.4802950190       12.4816676804  MEMB      170             0.0000000000
     21173       170  PMPE      H4R            43.9555313738      -36.3897659843       12.2142120041  MEMB      170             0.0000000000
     21174       170  PMPE      H4S            45.4399218381      -37.4936326637       12.3209537514  MEMB      170             0.0000000000
     21175       170  PMPE      C25            45.7176291088      -35.6408349492       11.4698041656  MEMB      170             0.0000000000
     21176       170  PMPE      H5R            46.7283406963      -35.5861208549       11.9102773093  MEMB      170             0.0000000000
     21177       170  PMPE      H5S            45.3170250098      -34.6337721246       11.4003328994  MEMB      170             0.0000000000
     21178       170  PMPE      C26            45.7555708476      -36.0128677882        9.9666497494  MEMB      170             0.0000000000
     21179       170  PMPE      H6R            46.3376433896      -36.9342169955        9.8961129152  MEMB      170             0.0000000000
     21180       170  PMPE      H6S            46.2669601188      -35.2463166924        9.3268300956  MEMB      170             0.0000000000
     21181       170  PMPE      C27            44.4018485542      -36.2058864387        9.3542419540  MEMB      170             0.0000000000
     21182       170  PMPE      H7R            43.8283453573      -35.2532191826        9.4081310486  MEMB      170             0.0000000000
     21183       170  PMPE      H7S            43.8679918840      -36.9918777319        9.9228459700  MEMB      170             0.0000000000
     21184       170  PMPE      C28            44.4307026212      -36.4838509786        7.8421569503  MEMB      170             0.0000000000
     21185       170  PMPE      H8R            44.8900557342      -37.3851879275        7.5347314022  MEMB      170             0.0000000000
     21186       170  PMPE      H8S            44.9395070609      -35.6087703770        7.3825137284  MEMB      170             0.0000000000
     21187       170  PMPE      C29            43.0261875465      -36.5135444150        7.3912909888  MEMB      170             0.0000000000
     21188       170  PMPE      H9R            42.6260109299      -36.0285641690        8.2443428691  MEMB      170             0.0000000000
     21189       170  PMPE      C217           41.9503282986      -37.5490264804        7.5523499243  MEMB      170             0.0000000000
     21190       170  PMPE      H17R           41.0298771337      -37.1099063284        7.9999396946  MEMB      170             0.0000000000
     21191       170  PMPE      H17S           42.6053044035      -38.2590719040        7.9881121906  MEMB      170             0.0000000000
     21192       170  PMPE      C210           42.3077806910      -37.0189500589        6.1544003321  MEMB      170             0.0000000000
     21193       170  PMPE      H10R           41.5049198116      -36.4398803426        5.6247973765  MEMB      170             0.0000000000
     21194       170  PMPE      C211           43.1632436086      -37.8411501570        5.2419181067  MEMB      170             0.0000000000
     21195       170  PMPE      H11R           42.4884431259      -38.5325771690        4.6833855368  MEMB      170             0.0000000000
     21196       170  PMPE      H11S           43.8633826357      -38.3802744252        5.9067310726  MEMB      170             0.0000000000
     21197       170  PMPE      C212           43.9564523577      -36.9600898475        4.2456070094  MEMB      170             0.0000000000
     21198       170  PMPE      H12R           44.8237835494      -36.4506788545        4.7214455266  MEMB      170             0.0000000000
     21199       170  PMPE      H12S           43.2515194124      -36.1643743296        3.9267028115  MEMB      170             0.0000000000
     21200       170  PMPE      C213           44.4663686833      -37.7486221462        3.0262555883  MEMB      170             0.0000000000
     21201       170  PMPE      H13R           43.6277091926      -37.9555636593        2.3267556986  MEMB      170             0.0000000000
     21202       170  PMPE      H13S           44.8536750792      -38.7273327128        3.3902676283  MEMB      170             0.0000000000
     21203       170  PMPE      C214           45.5506513477      -37.0491422818        2.1886132030  MEMB      170             0.0000000000
     21204       170  PMPE      H14R           46.4339682694      -36.7614200830        2.7894406769  MEMB      170             0.0000000000
     21205       170  PMPE      H14S           45.1179123165      -36.1375505871        1.7157391012  MEMB      170             0.0000000000
     21206       170  PMPE      C215           46.0948889340      -37.9690867925        1.1185779059  MEMB      170             0.0000000000
     21207       170  PMPE      H15R           46.3353800915      -38.9662783575        1.5745462113  MEMB      170             0.0000000000
     21208       170  PMPE      H15S           46.9647462409      -37.5295712477        0.5761023683  MEMB      170             0.0000000000
     21209       170  PMPE      C216           45.0827508230      -38.2282258153        0.0702140210  MEMB      170             0.0000000000
     21210       170  PMPE      H16R           45.0554513498      -39.3403362820        0.0654506182  MEMB      170             0.0000000000
     21211       170  PMPE      H16S           44.0609457392      -38.0134798674        0.2800415442  MEMB      170             0.0000000000
     21212       170  PMPE      H16T           45.3607239379      -37.6925093691       -0.8720564282  MEMB      170             0.0000000000
     21213       170  PMPE      C33            43.2974432227      -41.9090359701       10.1286722004  MEMB      170             0.0000000000
     21214       170  PMPE      H3X            42.4056959029      -42.4754311366       10.3457384040  MEMB      170             0.0000000000
     21215       170  PMPE      H3Y            43.8519096611      -42.6928735745       10.5557634782  MEMB      170             0.0000000000
     21216       170  PMPE      C34            43.2292524571      -41.6973154279        8.6208046905  MEMB      170             0.0000000000
     21217       170  PMPE      H4X            42.5968822822      -40.8325895925        8.4161141257  MEMB      170             0.0000000000
     21218       170  PMPE      H4Y            42.6962612808      -42.6017634021        8.2337465976  MEMB      170             0.0000000000
     21219       170  PMPE      C35            44.5745395574      -41.4627405931        7.9723633387  MEMB      170             0.0000000000
     21220       170  PMPE      H5X            44.8738717523      -42.3711445259        8.1068942577  MEMB      170             0.0000000000
     21221       170  PMPE      H5Y            45.2741402739      -40.7812125715        8.4622049228  MEMB      170             0.0000000000
     21222       170  PMPE      C36            44.7895096240      -41.5916532962        6.5013895124  MEMB      170             0.0000000000
     21223       170  PMPE      H6X            45.8652387810      -41.5078841551        6.1948190789  MEMB      170             0.0000000000
     21224       170  PMPE      H6Y            44.2493927071      -40.6896710254        6.2453985048  MEMB      170             0.0000000000
     21225       170  PMPE      C37            44.1364880149      -42.7855784052        5.8670351670  MEMB      170             0.0000000000
     21226       170  PMPE      H7X            43.1297185445      -43.0601120158        6.1558291244  MEMB      170             0.0000000000
     21227       170  PMPE      H7Y            44.7120813055      -43.6229507959        6.0842144650  MEMB      170             0.0000000000
     21228       170  PMPE      C38            44.1371106860      -42.6239491574        4.4461843377  MEMB      170             0.0000000000
     21229       170  PMPE      H8X            43.9343061240      -43.5947205895        3.9508118329  MEMB      170             0.0000000000
     21230       170  PMPE      H8Y            45.1596244360      -42.2307535614        4.1584246667  MEMB      170             0.0000000000
     21231       170  PMPE      C39            43.0001155837      -41.7862030223        3.8871808995  MEMB      170             0.0000000000
     21232       170  PMPE      H9X            43.0888398213      -40.8541325008        4.4311349606  MEMB      170             0.0000000000
     21233       170  PMPE      H9Y            42.0624359662      -42.3333739300        4.1060580666  MEMB      170             0.0000000000
     21234       170  PMPE      C310           43.0439609471      -41.1447578390        2.5143344919  MEMB      170             0.0000000000
     21235       170  PMPE      H10X           43.3314004887      -41.8442340748        1.7657922560  MEMB      170             0.0000000000
     21236       170  PMPE      H10Y           43.8802545783      -40.5956762327        2.1798195861  MEMB      170             0.0000000000
     21237       170  PMPE      C311           41.8026594500      -40.3105050575        2.2642503887  MEMB      170             0.0000000000
     21238       170  PMPE      H11X           41.9066557155      -39.4555969432        2.8634391814  MEMB      170             0.0000000000
     21239       170  PMPE      H11Y           40.9322639252      -40.9250997422        2.6095741707  MEMB      170             0.0000000000
     21240       170  PMPE      C312           41.8097731805      -39.4162753588        1.0123435611  MEMB      170             0.0000000000
     21241       170  PMPE      H12X           42.0360251512      -40.3608119341        0.9319526426  MEMB      170             0.0000000000
     21242       170  PMPE      H12Y           42.1726271289      -39.4313243388        0.0125325215  MEMB      170             0.0000000000
     21243       170  PMPE      C313           40.5686316510      -39.0821350807        0.3316130740  MEMB      170             0.0000000000
     21244       170  PMPE      H13X           39.8298153997      -39.4560980715        1.0643981519  MEMB      170             0.0000000000
     21245       170  PMPE      H13Y           40.3640352024      -39.5990780631       -0.7260734094  MEMB      170             0.0000000000
     21246       170  PMPE      C314           40.7914368651      -37.7461717338        0.3359562749  MEMB      170             0.0000000000
     21247       170  PMPE      H14X           40.2028498143      -37.1213298197       -0.2142823159  MEMB      170             0.0000000000
     21248       170  PMPE      H14Y           41.7780408530      -37.7138749176       -0.1297422962  MEMB      170             0.0000000000
     21249       170  PMPE      C315           40.6177824786      -37.2025788119        1.7077173131  MEMB      170             0.0000000000
     21250       170  PMPE      H15X           41.4009809785      -37.6343370973        2.3375957100  MEMB      170             0.0000000000
     21251       170  PMPE      H15Y           39.6617306274      -37.5211415506        2.1772904596  MEMB      170             0.0000000000
     21252       170  PMPE      C316           40.7098198621      -35.6895419486        1.6364332137  MEMB      170             0.0000000000
     21253       170  PMPE      H16X           40.2749612382      -35.2668333487        0.7003175610  MEMB      170             0.0000000000
     21254       170  PMPE      H16Y           41.7844578046      -35.4190746217        1.7231720380  MEMB      170             0.0000000000
     21255       170  PMPE      H16Z           40.1365223664      -35.2105344412        2.4479993443  MEMB      170             0.0000000000
     21256       171  PMPG      C13           -48.3110444561       37.9975166910       19.8733727185  MEMB      171             0.0000000000
     21257       171  PMPG      H13A          -49.1177828729       37.2459798567       19.7197432593  MEMB      171             0.0000000000
     21258       171  PMPG      H13B          -47.9996241237       37.9865964848       20.9436183897  MEMB      171             0.0000000000
     21259       171  PMPG      OC3           -48.8097653532       39.2867494286       19.5049092817  MEMB      171             0.0000000000
     21260       171  PMPG      HO3           -48.1082078173       39.9115221202       19.3186160574  MEMB      171             0.0000000000
     21261       171  PMPG      C12           -47.1093916288       37.6145687180       19.0127283037  MEMB      171             0.0000000000
     21262       171  PMPG      H12A          -47.4478723313       37.5163046233       17.9585435696  MEMB      171             0.0000000000
     21263       171  PMPG      OC2           -46.6119533485       36.3612538258       19.4394062865  MEMB      171             0.0000000000
     21264       171  PMPG      HO2           -45.7723480403       36.2686340720       18.9485425614  MEMB      171             0.0000000000
     21265       171  PMPG      C11           -46.0031161245       38.6905854094       19.0861882432  MEMB      171             0.0000000000
     21266       171  PMPG      H11A          -45.6702451178       38.8373821710       20.1420311818  MEMB      171             0.0000000000
     21267       171  PMPG      H11B          -46.4300529467       39.6494006496       18.7132929817  MEMB      171             0.0000000000
     21268       171  PMPG      P             -43.4978238792       37.9566818588       18.6385596475  MEMB      171             0.0000000000
     21269       171  PMPG      O13           -43.2183879579       38.4881166582       19.9890087597  MEMB      171             0.0000000000
     21270       171  PMPG      O14           -42.5505576449       38.2003975646       17.5365175096  MEMB      171             0.0000000000
     21271       171  PMPG      O11           -43.6965450674       36.3982890160       18.7181390209  MEMB      171             0.0000000000
     21272       171  PMPG      O12           -44.9479684994       38.3586341813       18.2048923322  MEMB      171             0.0000000000
     21273       171  PMPG      C1            -44.4345626263       35.6108398648       17.8179799980  MEMB      171             0.0000000000
     21274       171  PMPG      HA            -45.1460150160       36.1478144518       17.1233242086  MEMB      171             0.0000000000
     21275       171  PMPG      HB            -45.0880344251       34.9642977268       18.4286297310  MEMB      171             0.0000000000
     21276       171  PMPG      C2            -43.4193191802       34.8508830579       17.0229707581  MEMB      171             0.0000000000
     21277       171  PMPG      HS            -42.6689230505       34.3392932656       17.6467408336  MEMB      171             0.0000000000
     21278       171  PMPG      O21           -42.9509898051       35.7276267155       16.0017914173  MEMB      171             0.0000000000
     21279       171  PMPG      C21           -41.8893922688       35.6603486849       15.3428793136  MEMB      171             0.0000000000
     21280       171  PMPG      O22           -40.8166889358       35.2390412077       15.5519425364  MEMB      171             0.0000000000
     21281       171  PMPG      C22           -41.7229521224       36.3103165043       14.1690585676  MEMB      171             0.0000000000
     21282       171  PMPG      H2R           -40.9940259462       37.0243950772       14.6662230791  MEMB      171             0.0000000000
     21283       171  PMPG      H2S           -42.6166191098       36.7601755602       13.8413374464  MEMB      171             0.0000000000
     21284       171  PMPG      C3            -44.0969123908       33.8195901912       16.4160856902  MEMB      171             0.0000000000
     21285       171  PMPG      HX            -44.6226173873       33.0924962433       17.1830591857  MEMB      171             0.0000000000
     21286       171  PMPG      HY            -43.6349783474       33.0848623071       16.0109295967  MEMB      171             0.0000000000
     21287       171  PMPG      O31           -44.6799429503       34.5243903582       15.2267534808  MEMB      171             0.0000000000
     21288       171  PMPG      C31           -44.9825726181       34.3242567636       13.9222962014  MEMB      171             0.0000000000
     21289       171  PMPG      O32           -44.5696886346       33.5657252412       13.1114062590  MEMB      171             0.0000000000
     21290       171  PMPG      C32           -46.3395449331       34.8564874877       13.4632256669  MEMB      171             0.0000000000
     21291       171  PMPG      H2X           -45.8594802725       35.7464590251       13.2970898071  MEMB      171             0.0000000000
     21292       171  PMPG      H2Y           -47.3060648993       35.0317462276       14.0211589836  MEMB      171             0.0000000000
     21293       171  PMPG      C23           -40.9124295889       35.4682949851       13.1673211731  MEMB      171             0.0000000000
     21294       171  PMPG      H3R           -41.1614844702       34.5041962855       12.7391045389  MEMB      171             0.0000000000
     21295       171  PMPG      H3S           -39.8698400096       35.4293857595       13.6134869603  MEMB      171             0.0000000000
     21296       171  PMPG      C24           -40.9291453544       36.0674333626       11.8666089510  MEMB      171             0.0000000000
     21297       171  PMPG      H4R           -39.9977621784       35.8391725659       11.2022832952  MEMB      171             0.0000000000
     21298       171  PMPG      H4S           -41.0831753562       37.0934806804       12.4134728636  MEMB      171             0.0000000000
     21299       171  PMPG      C25           -41.9987499774       36.4419407904       10.9951962851  MEMB      171             0.0000000000
     21300       171  PMPG      H5R           -42.8468335611       36.5726038363       11.6611862826  MEMB      171             0.0000000000
     21301       171  PMPG      H5S           -41.9274427516       35.5207745203       10.4148503760  MEMB      171             0.0000000000
     21302       171  PMPG      C26           -41.9102417624       37.5828130770        9.9829495542  MEMB      171             0.0000000000
     21303       171  PMPG      H6R           -41.0464264316       37.4731240639        9.3691858107  MEMB      171             0.0000000000
     21304       171  PMPG      H6S           -41.8345642171       38.6166712288       10.3766925184  MEMB      171             0.0000000000
     21305       171  PMPG      C27           -43.0924793114       37.3860023121        9.0416385132  MEMB      171             0.0000000000
     21306       171  PMPG      H7R           -43.9720790846       37.2435535093        9.7048040611  MEMB      171             0.0000000000
     21307       171  PMPG      H7S           -42.9919452531       36.4365740594        8.4647334385  MEMB      171             0.0000000000
     21308       171  PMPG      C28           -43.3955470989       38.5522194158        8.1118315278  MEMB      171             0.0000000000
     21309       171  PMPG      H8R           -42.7917099023       38.4631745443        7.1813177830  MEMB      171             0.0000000000
     21310       171  PMPG      H8S           -43.2176909089       39.5441416390        8.5868513518  MEMB      171             0.0000000000
     21311       171  PMPG      C29           -44.8793090969       38.5533277977        7.8645639463  MEMB      171             0.0000000000
     21312       171  PMPG      H9R           -45.4950165676       38.9073422379        8.7149160137  MEMB      171             0.0000000000
     21313       171  PMPG      C217          -45.2101288710       38.9168741652        6.4387749273  MEMB      171             0.0000000000
     21314       171  PMPG      H17R          -45.8776004693       39.6280505999        6.4074003287  MEMB      171             0.0000000000
     21315       171  PMPG      H17S          -44.4732990376       38.9981862866        5.6960734025  MEMB      171             0.0000000000
     21316       171  PMPG      C210          -45.5243054947       37.5645873502        6.9346375811  MEMB      171             0.0000000000
     21317       171  PMPG      H10R          -46.6013903606       37.3383772294        7.0732783521  MEMB      171             0.0000000000
     21318       171  PMPG      C211          -44.5901387838       36.6135111236        6.2135939385  MEMB      171             0.0000000000
     21319       171  PMPG      H11R          -43.5522735320       36.8845095980        6.0992948566  MEMB      171             0.0000000000
     21320       171  PMPG      H11S          -44.3667508191       35.7519633076        6.8681465785  MEMB      171             0.0000000000
     21321       171  PMPG      C212          -45.0209121704       36.2741583590        4.7613546458  MEMB      171             0.0000000000
     21322       171  PMPG      H12R          -45.5466818133       37.0080651784        4.2177795275  MEMB      171             0.0000000000
     21323       171  PMPG      H12S          -46.0519468219       36.0158073894        4.6196608183  MEMB      171             0.0000000000
     21324       171  PMPG      C213          -44.2803692740       35.0078610507        4.1881397832  MEMB      171             0.0000000000
     21325       171  PMPG      H13R          -44.2324951969       34.0691220849        4.8256114602  MEMB      171             0.0000000000
     21326       171  PMPG      H13S          -43.3052674021       35.4271195842        4.0825400063  MEMB      171             0.0000000000
     21327       171  PMPG      C214          -44.7237906015       34.5384420760        2.8341992321  MEMB      171             0.0000000000
     21328       171  PMPG      H14R          -45.0452696513       35.3793404643        2.1980508941  MEMB      171             0.0000000000
     21329       171  PMPG      H14S          -45.5131246466       33.7758171774        2.8071649694  MEMB      171             0.0000000000
     21330       171  PMPG      C215          -44.0851312721       33.5366484638        2.0660850462  MEMB      171             0.0000000000
     21331       171  PMPG      H15R          -43.2673262424       34.1768472389        1.6919300413  MEMB      171             0.0000000000
     21332       171  PMPG      H15S          -44.6324688849       33.3272210937        1.1871780454  MEMB      171             0.0000000000
     21333       171  PMPG      C216          -43.9724647626       32.1324897248        2.6965712464  MEMB      171             0.0000000000
     21334       171  PMPG      H16R          -43.1745810758       31.6480133212        1.9584661941  MEMB      171             0.0000000000
     21335       171  PMPG      H16S          -44.3286740805       31.1980786441        2.5818214552  MEMB      171             0.0000000000
     21336       171  PMPG      H16T          -43.5763568569       32.2055917822        3.7646783368  MEMB      171             0.0000000000
     21337       171  PMPG      C33           -46.8164191486       33.9320122632       12.5136216670  MEMB      171             0.0000000000
     21338       171  PMPG      H3X           -47.2981647572       32.9667114010       12.6171331093  MEMB      171             0.0000000000
     21339       171  PMPG      H3Y           -46.0364057400       33.6377101934       11.7943721259  MEMB      171             0.0000000000
     21340       171  PMPG      C34           -48.0017656993       34.6789186658       12.1352958928  MEMB      171             0.0000000000
     21341       171  PMPG      H4X           -48.5905054190       34.7006592592       12.9506811863  MEMB      171             0.0000000000
     21342       171  PMPG      H4Y           -48.4079757224       33.8288034163       11.7170363265  MEMB      171             0.0000000000
     21343       171  PMPG      C35           -48.0998309660       36.0066781874       11.2931973512  MEMB      171             0.0000000000
     21344       171  PMPG      H5X           -48.1407586406       35.7421262423       10.0708651148  MEMB      171             0.0000000000
     21345       171  PMPG      H5Y           -47.2037073539       36.6373879762       11.7257981625  MEMB      171             0.0000000000
     21346       171  PMPG      C36           -48.9383922711       37.1107532367       11.0233239903  MEMB      171             0.0000000000
     21347       171  PMPG      H6X           -49.2557514810       37.1008663844       12.0671920557  MEMB      171             0.0000000000
     21348       171  PMPG      H6Y           -49.5768870651       36.8180966145       10.1343746265  MEMB      171             0.0000000000
     21349       171  PMPG      C37           -48.3538564624       38.2848558363       10.3866002384  MEMB      171             0.0000000000
     21350       171  PMPG      H7X           -47.5989040667       38.1420974706        9.5995717925  MEMB      171             0.0000000000
     21351       171  PMPG      H7Y           -47.9334389428       38.8495800953       11.2200118321  MEMB      171             0.0000000000
     21352       171  PMPG      C38           -49.5476622738       38.9237942122        9.7972591129  MEMB      171             0.0000000000
     21353       171  PMPG      H8X           -49.1906290899       39.9247724307        9.7003671200  MEMB      171             0.0000000000
     21354       171  PMPG      H8Y           -50.3870342271       38.7772593911       10.4799850018  MEMB      171             0.0000000000
     21355       171  PMPG      C39           -50.0132039550       38.5524221587        8.4141246294  MEMB      171             0.0000000000
     21356       171  PMPG      H9X           -50.9795716415       38.9904532558        8.0239715307  MEMB      171             0.0000000000
     21357       171  PMPG      H9Y           -50.0573222366       37.4959411661        8.3742241894  MEMB      171             0.0000000000
     21358       171  PMPG      C310          -48.9609225176       38.8551370842        7.5001439119  MEMB      171             0.0000000000
     21359       171  PMPG      H10X          -47.9229117473       38.6862896878        7.6937908406  MEMB      171             0.0000000000
     21360       171  PMPG      H10Y          -48.8106179655       39.8383129909        7.9079112713  MEMB      171             0.0000000000
     21361       171  PMPG      C311          -49.5051098280       38.5613713849        6.1299193635  MEMB      171             0.0000000000
     21362       171  PMPG      H11X          -50.5177580709       38.9734817570        5.8081896279  MEMB      171             0.0000000000
     21363       171  PMPG      H11Y          -49.2203523194       37.5560351261        5.9145423115  MEMB      171             0.0000000000
     21364       171  PMPG      C312          -48.8377276126       38.8699037933        5.0327039268  MEMB      171             0.0000000000
     21365       171  PMPG      H12X          -47.6920545616       38.8266583634        5.1288533745  MEMB      171             0.0000000000
     21366       171  PMPG      H12Y          -49.2586484348       39.8884267941        5.0813970969  MEMB      171             0.0000000000
     21367       171  PMPG      C313          -49.4978629149       38.2756238560        3.8842340511  MEMB      171             0.0000000000
     21368       171  PMPG      H13X          -48.6086218230       38.7978057939        3.6659316196  MEMB      171             0.0000000000
     21369       171  PMPG      H13Y          -50.2720847311       38.7192197301        3.2392317668  MEMB      171             0.0000000000
     21370       171  PMPG      C314          -48.8451074177       37.2065647210        3.3252579106  MEMB      171             0.0000000000
     21371       171  PMPG      H14X          -49.2969021091       36.7382976209        4.1903134390  MEMB      171             0.0000000000
     21372       171  PMPG      H14Y          -47.7236535966       37.2480491520        3.4744338642  MEMB      171             0.0000000000
     21373       171  PMPG      C315          -49.3947600234       36.6291319353        2.0530351219  MEMB      171             0.0000000000
     21374       171  PMPG      H15X          -50.4640471095       36.5503221418        1.9215366969  MEMB      171             0.0000000000
     21375       171  PMPG      H15Y          -49.0621754953       35.6986572258        1.8864159370  MEMB      171             0.0000000000
     21376       171  PMPG      C316          -48.8787653019       37.0848794959        0.7999320205  MEMB      171             0.0000000000
     21377       171  PMPG      H16X          -47.8288455869       37.4632684971        0.7807679035  MEMB      171             0.0000000000
     21378       171  PMPG      H16Y          -49.5296643354       37.9452157580        0.8060531772  MEMB      171             0.0000000000
     21379       171  PMPG      H16Z          -49.2148835789       36.7207203475       -0.1676661786  MEMB      171             0.0000000000
     21380       172  PMPE      N             -41.6070197675      -45.8561328358       20.2142251592  MEMB      172             0.0000000000
     21381       172  PMPE      HN1           -41.9298986770      -45.5677773764       19.2608067798  MEMB      172             0.0000000000
     21382       172  PMPE      HN2           -42.0768319240      -46.7192367805       20.5515949065  MEMB      172             0.0000000000
     21383       172  PMPE      HN3           -41.8475817196      -45.0339508551       20.8251746205  MEMB      172             0.0000000000
     21384       172  PMPE      C12           -40.1086977821      -46.0092667890       20.3059765321  MEMB      172             0.0000000000
     21385       172  PMPE      H12A          -39.7721373936      -46.9569761088       19.8390088652  MEMB      172             0.0000000000
     21386       172  PMPE      H12B          -39.8163988437      -46.0194239424       21.3624926626  MEMB      172             0.0000000000
     21387       172  PMPE      C11           -39.3721658665      -44.8531627277       19.6598990744  MEMB      172             0.0000000000
     21388       172  PMPE      H11A          -39.6195210017      -43.8669057473       20.1383240444  MEMB      172             0.0000000000
     21389       172  PMPE      H11B          -39.7533507471      -44.8543552072       18.6163308884  MEMB      172             0.0000000000
     21390       172  PMPE      P             -37.1146094477      -45.4700895235       18.3769899579  MEMB      172             0.0000000000
     21391       172  PMPE      O13           -37.4415889471      -46.8198176298       17.9260827623  MEMB      172             0.0000000000
     21392       172  PMPE      O14           -35.7245256421      -45.0509636208       18.6198196168  MEMB      172             0.0000000000
     21393       172  PMPE      O11           -37.7601810280      -44.6333175751       17.2555303939  MEMB      172             0.0000000000
     21394       172  PMPE      O12           -37.9697592264      -45.1161203337       19.7098304571  MEMB      172             0.0000000000
     21395       172  PMPE      C1            -37.6543524253      -43.2939358098       17.3413218756  MEMB      172             0.0000000000
     21396       172  PMPE      HA            -37.0008809214      -42.7811519616       18.0753392371  MEMB      172             0.0000000000
     21397       172  PMPE      HB            -38.5286465123      -43.1649251218       17.9373883059  MEMB      172             0.0000000000
     21398       172  PMPE      C2            -37.6551410855      -42.6597506816       15.9597259113  MEMB      172             0.0000000000
     21399       172  PMPE      HS            -37.8157558142      -41.7592915686       16.2163799446  MEMB      172             0.0000000000
     21400       172  PMPE      O21           -38.6757605554      -43.2373455714       15.1185259512  MEMB      172             0.0000000000
     21401       172  PMPE      C21           -38.7875831145      -42.8985343204       13.8812496852  MEMB      172             0.0000000000
     21402       172  PMPE      O22           -38.0135719270      -42.1772850846       13.2911969763  MEMB      172             0.0000000000
     21403       172  PMPE      C22           -39.8912100747      -43.6375780262       13.0909457062  MEMB      172             0.0000000000
     21404       172  PMPE      H2R           -40.5094141694      -42.9189327032       12.5396586472  MEMB      172             0.0000000000
     21405       172  PMPE      H2S           -40.7133300200      -44.1566473161       13.5881991025  MEMB      172             0.0000000000
     21406       172  PMPE      C3            -36.3081623552      -42.6497369199       15.3086570799  MEMB      172             0.0000000000
     21407       172  PMPE      HX            -35.6068080236      -42.2182948287       16.0676876222  MEMB      172             0.0000000000
     21408       172  PMPE      HY            -36.2452599933      -41.9683719161       14.4265097066  MEMB      172             0.0000000000
     21409       172  PMPE      O31           -36.0685925869      -43.9992168696       15.0149018000  MEMB      172             0.0000000000
     21410       172  PMPE      C31           -35.2437403705      -44.1842894616       14.0358555641  MEMB      172             0.0000000000
     21411       172  PMPE      O32           -34.5958001704      -43.3164690110       13.4675592682  MEMB      172             0.0000000000
     21412       172  PMPE      C32           -35.2246454242      -45.6514903566       13.6734485099  MEMB      172             0.0000000000
     21413       172  PMPE      H2X           -36.0819453609      -46.2580402296       14.0327058101  MEMB      172             0.0000000000
     21414       172  PMPE      H2Y           -34.3696478877      -46.0115015886       14.2438515543  MEMB      172             0.0000000000
     21415       172  PMPE      C23           -39.2420495571      -44.7974582202       12.5491509469  MEMB      172             0.0000000000
     21416       172  PMPE      H3R           -39.0059305744      -45.3959987726       13.4704446147  MEMB      172             0.0000000000
     21417       172  PMPE      H3S           -38.3705351461      -44.4428061842       12.0005154453  MEMB      172             0.0000000000
     21418       172  PMPE      C24           -40.0968352146      -45.6218468843       11.6483923172  MEMB      172             0.0000000000
     21419       172  PMPE      H4R           -40.9581383289      -45.9689613748       12.2452783275  MEMB      172             0.0000000000
     21420       172  PMPE      H4S           -39.4702170397      -46.4297963298       11.2474285143  MEMB      172             0.0000000000
     21421       172  PMPE      C25           -40.4994754575      -45.0028143629       10.3650610409  MEMB      172             0.0000000000
     21422       172  PMPE      H5R           -39.5662387552      -44.7991680166        9.8004682808  MEMB      172             0.0000000000
     21423       172  PMPE      H5S           -40.9264942769      -44.0749805755       10.7558592555  MEMB      172             0.0000000000
     21424       172  PMPE      C26           -41.4742758781      -45.8689709135        9.5567086447  MEMB      172             0.0000000000
     21425       172  PMPE      H6R           -41.9765115058      -45.4469567681        8.6569019364  MEMB      172             0.0000000000
     21426       172  PMPE      H6S           -42.2619231809      -46.0585923282       10.3098363148  MEMB      172             0.0000000000
     21427       172  PMPE      C27           -40.9829369704      -47.1872447321        9.0861554629  MEMB      172             0.0000000000
     21428       172  PMPE      H7R           -40.6476242806      -47.6068105036       10.0501615845  MEMB      172             0.0000000000
     21429       172  PMPE      H7S           -40.1507796066      -47.1233250848        8.3479373135  MEMB      172             0.0000000000
     21430       172  PMPE      C28           -42.0986324281      -48.0720943704        8.5299526539  MEMB      172             0.0000000000
     21431       172  PMPE      H8R           -42.8066546834      -48.4141624638        9.3197652334  MEMB      172             0.0000000000
     21432       172  PMPE      H8S           -41.5989291730      -49.0020592191        8.2135474078  MEMB      172             0.0000000000
     21433       172  PMPE      C29           -42.8482485832      -47.4280718772        7.3748038499  MEMB      172             0.0000000000
     21434       172  PMPE      H9R           -43.6537268770      -46.7162874347        7.5903908251  MEMB      172             0.0000000000
     21435       172  PMPE      C217          -43.0909564605      -48.5103911704        6.3967983440  MEMB      172             0.0000000000
     21436       172  PMPE      H17R          -43.9082052731      -48.3683848310        6.0298264793  MEMB      172             0.0000000000
     21437       172  PMPE      H17S          -42.8042511338      -49.5191954497        6.3948791011  MEMB      172             0.0000000000
     21438       172  PMPE      C210          -42.4576270038      -47.3353783351        5.9046500638  MEMB      172             0.0000000000
     21439       172  PMPE      H10R          -43.0928973134      -46.6217321889        5.3166040683  MEMB      172             0.0000000000
     21440       172  PMPE      C211          -41.1303078610      -47.8293957887        5.5518055369  MEMB      172             0.0000000000
     21441       172  PMPE      H11R          -41.0667864223      -48.9239876101        5.7552334453  MEMB      172             0.0000000000
     21442       172  PMPE      H11S          -40.4180402397      -47.3245889871        6.2187955346  MEMB      172             0.0000000000
     21443       172  PMPE      C212          -40.7593528111      -47.5458200400        4.1357262009  MEMB      172             0.0000000000
     21444       172  PMPE      H12R          -39.8366249236      -48.0911620015        3.8740126391  MEMB      172             0.0000000000
     21445       172  PMPE      H12S          -40.4686006356      -46.5242028744        4.0368462872  MEMB      172             0.0000000000
     21446       172  PMPE      C213          -41.8408433994      -47.7747949433        3.1537726259  MEMB      172             0.0000000000
     21447       172  PMPE      H13R          -42.8203710979      -47.3048647110        3.3443120417  MEMB      172             0.0000000000
     21448       172  PMPE      H13S          -41.9141511614      -48.8843565685        3.1566329343  MEMB      172             0.0000000000
     21449       172  PMPE      C214          -41.5046796686      -47.2181972085        1.8693186670  MEMB      172             0.0000000000
     21450       172  PMPE      H14R          -41.6657676048      -46.1987379343        1.8109067483  MEMB      172             0.0000000000
     21451       172  PMPE      H14S          -42.1914033331      -47.2707648497        1.0507791574  MEMB      172             0.0000000000
     21452       172  PMPE      C215          -40.1314481337      -47.6336466472        1.6682659830  MEMB      172             0.0000000000
     21453       172  PMPE      H15R          -39.3477265446      -47.1155847548        2.1042796874  MEMB      172             0.0000000000
     21454       172  PMPE      H15S          -39.6714666626      -46.9800778721        0.7605484926  MEMB      172             0.0000000000
     21455       172  PMPE      C216          -40.0570144349      -49.2589562204        1.6458913551  MEMB      172             0.0000000000
     21456       172  PMPE      H16R          -39.0301119776      -49.6786814830        1.6614142973  MEMB      172             0.0000000000
     21457       172  PMPE      H16S          -40.4470873879      -49.9048579574        2.0717995935  MEMB      172             0.0000000000
     21458       172  PMPE      H16T          -40.4794036139      -49.8465107142        0.6780757173  MEMB      172             0.0000000000
     21459       172  PMPE      C33           -34.9421291965      -45.8657606591       12.1748748288  MEMB      172             0.0000000000
     21460       172  PMPE      H3X           -34.5639315945      -46.8736700308       12.2074629902  MEMB      172             0.0000000000
     21461       172  PMPE      H3Y           -34.1233406153      -45.2058744767       11.8074724099  MEMB      172             0.0000000000
     21462       172  PMPE      C34           -36.2401731822      -45.8724518756       11.3563231476  MEMB      172             0.0000000000
     21463       172  PMPE      H4X           -36.5789318067      -44.8227651408       11.3080582722  MEMB      172             0.0000000000
     21464       172  PMPE      H4Y           -37.0020305806      -46.5085260933       11.8705148359  MEMB      172             0.0000000000
     21465       172  PMPE      C35           -36.2783146863      -46.2920312593        9.8836735862  MEMB      172             0.0000000000
     21466       172  PMPE      H5X           -37.3599987731      -46.3088908341        9.5925871890  MEMB      172             0.0000000000
     21467       172  PMPE      H5Y           -35.8283283465      -47.2967939268        9.7498857415  MEMB      172             0.0000000000
     21468       172  PMPE      C36           -35.6731436536      -45.2615534381        8.9402669400  MEMB      172             0.0000000000
     21469       172  PMPE      H6X           -34.6780523439      -45.0034736595        9.3684371179  MEMB      172             0.0000000000
     21470       172  PMPE      H6Y           -36.3071154762      -44.3481515197        8.8906645538  MEMB      172             0.0000000000
     21471       172  PMPE      C37           -35.5159769308      -45.7893372373        7.5087558779  MEMB      172             0.0000000000
     21472       172  PMPE      H7X           -34.7785834469      -46.6092333468        7.5966909239  MEMB      172             0.0000000000
     21473       172  PMPE      H7Y           -35.0618197340      -45.0138802380        6.8823165973  MEMB      172             0.0000000000
     21474       172  PMPE      C38           -36.7590997373      -46.3397387055        6.7990693992  MEMB      172             0.0000000000
     21475       172  PMPE      H8X           -37.2552818146      -47.0989776980        7.4558555110  MEMB      172             0.0000000000
     21476       172  PMPE      H8Y           -36.4675032468      -46.8370003135        5.8468999448  MEMB      172             0.0000000000
     21477       172  PMPE      C39           -37.8762420713      -45.3296565263        6.5210672114  MEMB      172             0.0000000000
     21478       172  PMPE      H9X           -38.2531243343      -45.0520691516        7.5242610239  MEMB      172             0.0000000000
     21479       172  PMPE      H9Y           -38.6868623587      -45.8476081662        5.9963956798  MEMB      172             0.0000000000
     21480       172  PMPE      C310          -37.6487156183      -44.0512357527        5.7403057047  MEMB      172             0.0000000000
     21481       172  PMPE      H10X          -36.8088256170      -43.6282736907        6.1113707981  MEMB      172             0.0000000000
     21482       172  PMPE      H10Y          -38.3932738882      -43.2731642014        5.9532583699  MEMB      172             0.0000000000
     21483       172  PMPE      C311          -37.2369516657      -44.1048223911        4.3077116730  MEMB      172             0.0000000000
     21484       172  PMPE      H11X          -36.6757236870      -44.9680941718        3.9571632365  MEMB      172             0.0000000000
     21485       172  PMPE      H11Y          -36.7637544307      -43.2263064879        4.0360057479  MEMB      172             0.0000000000
     21486       172  PMPE      C312          -38.2106561346      -43.7626047818        3.3972552715  MEMB      172             0.0000000000
     21487       172  PMPE      H12X          -38.9235717138      -42.9437334640        3.5795291997  MEMB      172             0.0000000000
     21488       172  PMPE      H12Y          -38.7316089239      -44.6527956845        3.9198964127  MEMB      172             0.0000000000
     21489       172  PMPE      C313          -37.7284375302      -43.9560983593        1.8394789704  MEMB      172             0.0000000000
     21490       172  PMPE      H13X          -38.3475089605      -44.4510745747        1.0343841745  MEMB      172             0.0000000000
     21491       172  PMPE      H13Y          -37.1572875557      -44.8429731570        1.8075632373  MEMB      172             0.0000000000
     21492       172  PMPE      C314          -37.7406126221      -42.8169089072        0.9331249676  MEMB      172             0.0000000000
     21493       172  PMPE      H14X          -36.7530524978      -42.7608766080        1.2970416225  MEMB      172             0.0000000000
     21494       172  PMPE      H14Y          -38.4465599844      -42.0039636704        1.1865159670  MEMB      172             0.0000000000
     21495       172  PMPE      C315          -37.7477161035      -42.9090475835       -0.5324021897  MEMB      172             0.0000000000
     21496       172  PMPE      H15X          -37.5045754922      -41.9079851854       -0.8288095716  MEMB      172             0.0000000000
     21497       172  PMPE      H15Y          -38.6190642971      -42.9826228529       -1.1642886892  MEMB      172             0.0000000000
     21498       172  PMPE      C316          -37.0013407134      -44.0387054694       -1.0556730680  MEMB      172             0.0000000000
     21499       172  PMPE      H16X          -37.3887949052      -44.3164210560       -2.0528002883  MEMB      172             0.0000000000
     21500       172  PMPE      H16Y          -37.0304531598      -44.8860346390       -0.3886825603  MEMB      172             0.0000000000
     21501       172  PMPE      H16Z          -36.0005110817      -43.6449760027       -1.0747780085  MEMB      172             0.0000000000
     21502       173  PMPE      N             -31.8456277742       52.8849881676       20.8627742339  MEMB      173             0.0000000000
     21503       173  PMPE      HN1           -31.5698031293       53.5458272455       20.1007541731  MEMB      173             0.0000000000
     21504       173  PMPE      HN2           -32.8397590404       52.6042077722       20.7452320253  MEMB      173             0.0000000000
     21505       173  PMPE      HN3           -31.7600939723       53.3982817843       21.7702564562  MEMB      173             0.0000000000
     21506       173  PMPE      C12           -30.9342686963       51.6609427873       20.8259647116  MEMB      173             0.0000000000
     21507       173  PMPE      H12A          -31.4814395773       50.8227643259       21.3083239493  MEMB      173             0.0000000000
     21508       173  PMPE      H12B          -30.0469138897       51.8643007969       21.4506861473  MEMB      173             0.0000000000
     21509       173  PMPE      C11           -30.5375263650       51.2701183361       19.3788590624  MEMB      173             0.0000000000
     21510       173  PMPE      H11A          -31.5122125781       51.0884787969       18.8690245370  MEMB      173             0.0000000000
     21511       173  PMPE      H11B          -29.9993476376       50.2867683476       19.3648912807  MEMB      173             0.0000000000
     21512       173  PMPE      P             -28.2670040820       52.2656783597       18.2494690155  MEMB      173             0.0000000000
     21513       173  PMPE      O13           -27.7603262383       50.8942879305       18.3624548406  MEMB      173             0.0000000000
     21514       173  PMPE      O14           -27.6089520985       53.3646820156       18.9913419924  MEMB      173             0.0000000000
     21515       173  PMPE      O11           -28.3171153203       52.6222821425       16.7070721875  MEMB      173             0.0000000000
     21516       173  PMPE      O12           -29.8271467911       52.3131675285       18.6975403540  MEMB      173             0.0000000000
     21517       173  PMPE      C1            -29.4861562611       52.7485110809       15.9096982772  MEMB      173             0.0000000000
     21518       173  PMPE      HA            -29.3506899041       53.5908353192       15.2089329158  MEMB      173             0.0000000000
     21519       173  PMPE      HB            -30.3132502408       53.0930241726       16.5442274013  MEMB      173             0.0000000000
     21520       173  PMPE      C2            -29.7889885365       51.4837306582       15.0376348277  MEMB      173             0.0000000000
     21521       173  PMPE      HS            -30.2833857882       50.7613253221       15.7106520529  MEMB      173             0.0000000000
     21522       173  PMPE      O21           -28.5572869169       50.9860358200       14.4906386301  MEMB      173             0.0000000000
     21523       173  PMPE      C21           -28.2818913629       49.7370462845       14.7408597977  MEMB      173             0.0000000000
     21524       173  PMPE      O22           -28.9560788438       48.9251118351       15.3493800241  MEMB      173             0.0000000000
     21525       173  PMPE      C22           -27.0877552524       49.4430062947       13.8824763926  MEMB      173             0.0000000000
     21526       173  PMPE      H2R           -26.1207690948       49.4801287012       14.4278262252  MEMB      173             0.0000000000
     21527       173  PMPE      H2S           -27.0664049714       50.0586440143       12.9822237351  MEMB      173             0.0000000000
     21528       173  PMPE      C3            -30.7941151079       51.6999905015       13.8692671578  MEMB      173             0.0000000000
     21529       173  PMPE      HX            -31.7797779955       52.0573825588       14.2247812910  MEMB      173             0.0000000000
     21530       173  PMPE      HY            -30.9495809792       50.6854240953       13.4166775085  MEMB      173             0.0000000000
     21531       173  PMPE      O31           -30.2644539517       52.6988214606       12.9959751614  MEMB      173             0.0000000000
     21532       173  PMPE      C31           -30.4693401576       52.5983435450       11.7207838841  MEMB      173             0.0000000000
     21533       173  PMPE      O32           -31.0643640642       51.7458092526       11.1129904629  MEMB      173             0.0000000000
     21534       173  PMPE      C32           -29.7238111457       53.6844417784       11.0559306371  MEMB      173             0.0000000000
     21535       173  PMPE      H2X           -29.1982825803       54.3763023449       11.7116847673  MEMB      173             0.0000000000
     21536       173  PMPE      H2Y           -30.4087969049       54.3271726028       10.6947320611  MEMB      173             0.0000000000
     21537       173  PMPE      C23           -27.2499365275       48.1641397245       13.1987108350  MEMB      173             0.0000000000
     21538       173  PMPE      H3R           -27.6994823505       47.5656524438       13.9402161167  MEMB      173             0.0000000000
     21539       173  PMPE      H3S           -26.2170509476       47.9125512471       12.8802002006  MEMB      173             0.0000000000
     21540       173  PMPE      C24           -28.4527712523       47.7161006295       12.4059526779  MEMB      173             0.0000000000
     21541       173  PMPE      H4R           -29.2773149991       48.3033445232       12.8128616801  MEMB      173             0.0000000000
     21542       173  PMPE      H4S           -28.7903130366       46.6374981337       12.5021899687  MEMB      173             0.0000000000
     21543       173  PMPE      C25           -28.2447712532       48.1082325942       11.0009394962  MEMB      173             0.0000000000
     21544       173  PMPE      H5R           -27.5320348188       47.5254489955       10.4856870872  MEMB      173             0.0000000000
     21545       173  PMPE      H5S           -27.7759813926       49.1114044040       10.9820209625  MEMB      173             0.0000000000
     21546       173  PMPE      C26           -29.4257527100       47.7948494013       10.1144322134  MEMB      173             0.0000000000
     21547       173  PMPE      H6R           -30.1805131822       48.5311980495       10.4059175335  MEMB      173             0.0000000000
     21548       173  PMPE      H6S           -29.8704728035       46.7871941293       10.3137108389  MEMB      173             0.0000000000
     21549       173  PMPE      C27           -29.0752504203       47.8262667211        8.6194129980  MEMB      173             0.0000000000
     21550       173  PMPE      H7R           -29.9942616572       47.9332816150        8.0163683982  MEMB      173             0.0000000000
     21551       173  PMPE      H7S           -28.6440910060       46.8216097011        8.3920231084  MEMB      173             0.0000000000
     21552       173  PMPE      C28           -27.9930356754       48.8304684521        8.1917478467  MEMB      173             0.0000000000
     21553       173  PMPE      H8R           -27.0812928827       48.5248443798        8.7267355752  MEMB      173             0.0000000000
     21554       173  PMPE      H8S           -28.2086674034       49.8905621685        8.4413486315  MEMB      173             0.0000000000
     21555       173  PMPE      C29           -27.6508315037       48.6720431603        6.7500311675  MEMB      173             0.0000000000
     21556       173  PMPE      H9R           -27.5846343275       47.6163965811        6.3655006737  MEMB      173             0.0000000000
     21557       173  PMPE      C217          -26.8970192953       49.7180316445        6.0091501015  MEMB      173             0.0000000000
     21558       173  PMPE      H17R          -26.1830258828       49.2900107256        5.3702403609  MEMB      173             0.0000000000
     21559       173  PMPE      H17S          -26.6853379352       50.6526007510        6.4839148750  MEMB      173             0.0000000000
     21560       173  PMPE      C210          -27.5162595388       50.5939140635        6.4368549781  MEMB      173             0.0000000000
     21561       173  PMPE      H10R          -27.9052282907       49.6240833749        5.1934033701  MEMB      173             0.0000000000
     21562       173  PMPE      C211          -29.1793652631       50.8453493735        6.3118037743  MEMB      173             0.0000000000
     21563       173  PMPE      H11R          -28.9712318386       51.5795486974        5.6729236298  MEMB      173             0.0000000000
     21564       173  PMPE      H11S          -29.2547515549       50.9471443896        7.2602339742  MEMB      173             0.0000000000
     21565       173  PMPE      C212          -31.5489473470       51.1938964351        5.8666961855  MEMB      173             0.0000000000
     21566       173  PMPE      H12R          -31.0954613189       49.8583724449        6.4749187291  MEMB      173             0.0000000000
     21567       173  PMPE      H12S          -30.9050616774       50.1005612501        4.7727547928  MEMB      173             0.0000000000
     21568       173  PMPE      C213          -31.3801206680       51.7711532024        5.9495962141  MEMB      173             0.0000000000
     21569       173  PMPE      H13R          -31.0114335591       52.1298751223        6.8679576159  MEMB      173             0.0000000000
     21570       173  PMPE      H13S          -32.4620364946       51.5346657009        6.0626501660  MEMB      173             0.0000000000
     21571       173  PMPE      C214          -31.0018175701       52.6784838942        4.8920713003  MEMB      173             0.0000000000
     21572       173  PMPE      H14R          -30.0992469581       53.2330329983        5.0440168266  MEMB      173             0.0000000000
     21573       173  PMPE      H14S          -31.5385321394       53.5521247027        5.1304329481  MEMB      173             0.0000000000
     21574       173  PMPE      C215          -31.1303509472       51.9716472640        3.5695930956  MEMB      173             0.0000000000
     21575       173  PMPE      H15R          -32.0454595600       51.7270848965        3.1645895555  MEMB      173             0.0000000000
     21576       173  PMPE      H15S          -30.3932415868       51.3794818564        3.2242187862  MEMB      173             0.0000000000
     21577       173  PMPE      C216          -31.3267855696       52.4836189069        2.3627146030  MEMB      173             0.0000000000
     21578       173  PMPE      H16R          -31.5575431523       52.4104263192        1.3893530910  MEMB      173             0.0000000000
     21579       173  PMPE      H16S          -31.6872738858       53.1833405094        2.6469524465  MEMB      173             0.0000000000
     21580       173  PMPE      H16T          -30.9708696498       53.3407438240        2.2896511424  MEMB      173             0.0000000000
     21581       173  PMPE      C33           -29.2389243036       53.3271939271        9.6789036978  MEMB      173             0.0000000000
     21582       173  PMPE      H3X           -30.0307609345       52.8635742493        9.0408893914  MEMB      173             0.0000000000
     21583       173  PMPE      H3Y           -28.4654814670       52.6137211833        9.7613929013  MEMB      173             0.0000000000
     21584       173  PMPE      C34           -28.6518881018       54.4708023236        8.9211100403  MEMB      173             0.0000000000
     21585       173  PMPE      H4X           -28.1681780347       54.9438344529        9.7557018783  MEMB      173             0.0000000000
     21586       173  PMPE      H4Y           -29.2421117465       55.3054757474        8.4440885407  MEMB      173             0.0000000000
     21587       173  PMPE      C35           -28.0005649724       53.8407998897        7.8089564653  MEMB      173             0.0000000000
     21588       173  PMPE      H5X           -28.7149678298       53.4987071239        7.0358626104  MEMB      173             0.0000000000
     21589       173  PMPE      H5Y           -27.0415452822       53.3931296045        8.0777733319  MEMB      173             0.0000000000
     21590       173  PMPE      C36           -27.5271292589       54.7284341986        7.0302879636  MEMB      173             0.0000000000
     21591       173  PMPE      H6X           -26.6633336370       55.1695274217        7.7399787064  MEMB      173             0.0000000000
     21592       173  PMPE      H6Y           -28.5273560430       55.4602840236        6.8302976924  MEMB      173             0.0000000000
     21593       173  PMPE      C37           -26.8336121912       54.3052097078        5.6870886071  MEMB      173             0.0000000000
     21594       173  PMPE      H7X           -26.0245721834       53.7940711873        6.1206160168  MEMB      173             0.0000000000
     21595       173  PMPE      H7Y           -26.4349565211       55.0445505957        5.0490424943  MEMB      173             0.0000000000
     21596       173  PMPE      C38           -27.3318015633       53.4270071941        4.8744013637  MEMB      173             0.0000000000
     21597       173  PMPE      H8X           -28.2306321495       53.9843155665        4.6766211205  MEMB      173             0.0000000000
     21598       173  PMPE      H8Y           -27.2687661713       52.7157511471        5.6774032873  MEMB      173             0.0000000000
     21599       173  PMPE      C39           -26.5279863849       52.9053450472        3.8367351562  MEMB      173             0.0000000000
     21600       173  PMPE      H9X           -25.4423714268       52.7824234640        3.9179258678  MEMB      173             0.0000000000
     21601       173  PMPE      H9Y           -26.7890611746       53.5964119258        3.0646648193  MEMB      173             0.0000000000
     21602       173  PMPE      C310          -27.0819883459       51.8695491216        3.5022042490  MEMB      173             0.0000000000
     21603       173  PMPE      H10X          -27.8900548602       51.9637719639        2.8983149489  MEMB      173             0.0000000000
     21604       173  PMPE      H10Y          -27.3145110204       52.2135561522        4.1417639844  MEMB      173             0.0000000000
     21605       173  PMPE      C311          -26.9940990908       51.9207709203        1.9384064172  MEMB      173             0.0000000000
     21606       173  PMPE      H11X          -25.7237377108       51.8804069852        2.3020835736  MEMB      173             0.0000000000
     21607       173  PMPE      H11Y          -26.2018889344       52.1337078341        1.2994393360  MEMB      173             0.0000000000
     21608       173  PMPE      C312          -27.9161667924       50.6659870046        0.8816437679  MEMB      173             0.0000000000
     21609       173  PMPE      H12X          -27.3975216417       49.8130792232        0.1265762954  MEMB      173             0.0000000000
     21610       173  PMPE      H12Y          -28.8106077249       50.5071705504        0.8321157155  MEMB      173             0.0000000000
     21611       173  PMPE      C313          -28.5223813178       49.2656664473        1.7612755717  MEMB      173             0.0000000000
     21612       173  PMPE      H13X          -28.2633271059       50.1268345162        2.7379296038  MEMB      173             0.0000000000
     21613       173  PMPE      H13Y          -28.4280180578       47.3757785049        3.0976024096  MEMB      173             0.0000000000
     21614       173  PMPE      C314          -28.6844058894       48.2898764104        0.7777075489  MEMB      173             0.0000000000
     21615       173  PMPE      H14X          -29.8755274414       49.1479681413        1.0511616785  MEMB      173             0.0000000000
     21616       173  PMPE      H14Y          -27.6325238230       48.2083627429        1.0546607466  MEMB      173             0.0000000000
     21617       173  PMPE      C315          -26.4344512423       47.5887205289       -0.4664006877  MEMB      173             0.0000000000
     21618       173  PMPE      H15X          -26.8732518033       47.9797974146       -1.2044054262  MEMB      173             0.0000000000
     21619       173  PMPE      H15Y          -26.0777937371       46.3288585967       -0.1989114734  MEMB      173             0.0000000000
     21620       173  PMPE      C316          -24.9796062011       47.4467331530       -0.1037624903  MEMB      173             0.0000000000
     21621       173  PMPE      H16X          -24.5206874015       46.6559680353       -0.6829598059  MEMB      173             0.0000000000
     21622       173  PMPE      H16Y          -23.8598581534       47.0550500083        2.7131657410  MEMB      173             0.0000000000
     21623       173  PMPE      H16Z          -24.5813226433       48.1474016035       -0.3796741694  MEMB      173             0.0000000000
     21624       174  PMPE      N              34.7707849966       51.6154780931       18.0445553566  MEMB      174             0.0000000000
     21625       174  PMPE      HN1            34.7845801144       52.6482061938       18.0952543468  MEMB      174             0.0000000000
     21626       174  PMPE      HN2            35.6900980954       51.3151260460       17.6613153616  MEMB      174             0.0000000000
     21627       174  PMPE      HN3            33.9401030541       51.3174054190       17.4677325502  MEMB      174             0.0000000000
     21628       174  PMPE      C12            34.6502125819       51.1102375260       19.4487224817  MEMB      174             0.0000000000
     21629       174  PMPE      H12A           35.1436830295       51.8546079823       20.1019061234  MEMB      174             0.0000000000
     21630       174  PMPE      H12B           35.2383536497       50.1686523525       19.4945469919  MEMB      174             0.0000000000
     21631       174  PMPE      C11            33.2146048327       50.7970958654       19.9156476603  MEMB      174             0.0000000000
     21632       174  PMPE      H11A           33.3541682674       50.5198299625       20.9915134341  MEMB      174             0.0000000000
     21633       174  PMPE      H11B           32.8387850124       49.9403239714       19.3113957648  MEMB      174             0.0000000000
     21634       174  PMPE      P              30.9858671686       51.8341141007       18.9402896933  MEMB      174             0.0000000000
     21635       174  PMPE      O13            30.2130912113       53.0462973954       19.2690126609  MEMB      174             0.0000000000
     21636       174  PMPE      O14            30.3629083966       50.5023975242       19.0080319002  MEMB      174             0.0000000000
     21637       174  PMPE      O11            31.6517134333       51.9533210110       17.4812417268  MEMB      174             0.0000000000
     21638       174  PMPE      O12            32.2945017484       51.8715212270       19.8571914161  MEMB      174             0.0000000000
     21639       174  PMPE      C1             31.2960364964       53.0973218989       16.6904448967  MEMB      174             0.0000000000
     21640       174  PMPE      HA             32.0648047352       53.2024903868       15.8877985769  MEMB      174             0.0000000000
     21641       174  PMPE      HB             31.3564901203       54.0131875269       17.3193582096  MEMB      174             0.0000000000
     21642       174  PMPE      C2             29.8448909455       53.0067235463       16.0791346204  MEMB      174             0.0000000000
     21643       174  PMPE      HS             29.1037972051       53.2079555361       16.8886391351  MEMB      174             0.0000000000
     21644       174  PMPE      O21            29.6674630882       51.6685393254       15.5793955079  MEMB      174             0.0000000000
     21645       174  PMPE      C21            28.4290124396       51.3011272533       15.3306772086  MEMB      174             0.0000000000
     21646       174  PMPE      O22            27.4252364707       51.9618775336       15.5311803191  MEMB      174             0.0000000000
     21647       174  PMPE      C22            28.3940513420       49.9301018412       14.6639415314  MEMB      174             0.0000000000
     21648       174  PMPE      H2R            27.7350928117       50.0322885574       13.7868024567  MEMB      174             0.0000000000
     21649       174  PMPE      H2S            27.9493180148       49.2400699690       15.4188328152  MEMB      174             0.0000000000
     21650       174  PMPE      C3             29.6035283283       54.0728273244       14.9563020415  MEMB      174             0.0000000000
     21651       174  PMPE      HX             29.9225379983       55.0373557678       15.4321068471  MEMB      174             0.0000000000
     21652       174  PMPE      HY             28.5367517423       54.1921360503       14.6619159865  MEMB      174             0.0000000000
     21653       174  PMPE      O31            30.3663857809       53.7130757418       13.7788734922  MEMB      174             0.0000000000
     21654       174  PMPE      C31            31.1720392274       54.6647516822       13.3241657923  MEMB      174             0.0000000000
     21655       174  PMPE      O32            31.1353190467       55.8426052802       13.6013830180  MEMB      174             0.0000000000
     21656       174  PMPE      C32            32.2510234127       54.0862206658       12.4360051988  MEMB      174             0.0000000000
     21657       174  PMPE      H2X            31.8918289985       53.3107464560       11.7504043222  MEMB      174             0.0000000000
     21658       174  PMPE      H2Y            32.9307970258       53.5647515862       13.1283839882  MEMB      174             0.0000000000
     21659       174  PMPE      C23            29.7745987613       49.3709817054       14.2331170138  MEMB      174             0.0000000000
     21660       174  PMPE      H3R            29.6509244702       48.2781711366       14.0552019985  MEMB      174             0.0000000000
     21661       174  PMPE      H3S            30.4767039673       49.4758125110       15.0856805596  MEMB      174             0.0000000000
     21662       174  PMPE      C24            30.3478374793       49.9857721838       12.9396570330  MEMB      174             0.0000000000
     21663       174  PMPE      H4R            30.3433625995       51.0962529520       12.9671755051  MEMB      174             0.0000000000
     21664       174  PMPE      H4S            29.6879338372       49.7169901170       12.1016249581  MEMB      174             0.0000000000
     21665       174  PMPE      C25            31.8156508156       49.6538398894       12.5922526187  MEMB      174             0.0000000000
     21666       174  PMPE      H5R            32.0892164894       48.5790438444       12.5942644194  MEMB      174             0.0000000000
     21667       174  PMPE      H5S            32.5079096348       50.1300736073       13.3169088441  MEMB      174             0.0000000000
     21668       174  PMPE      C26            32.1314747150       50.1822946967       11.1948970265  MEMB      174             0.0000000000
     21669       174  PMPE      H6R            31.9463864013       51.2649616708       11.1176069098  MEMB      174             0.0000000000
     21670       174  PMPE      H6S            31.4588874124       49.6682162206       10.4815482634  MEMB      174             0.0000000000
     21671       174  PMPE      C27            33.5701095531       49.9825637684       10.7818651300  MEMB      174             0.0000000000
     21672       174  PMPE      H7R            33.8477616583       48.9716406765       11.1472136332  MEMB      174             0.0000000000
     21673       174  PMPE      H7S            34.1877684614       50.7381733191       11.3100379799  MEMB      174             0.0000000000
     21674       174  PMPE      C28            33.7752489082       50.2544454885        9.2868310028  MEMB      174             0.0000000000
     21675       174  PMPE      H8R            33.6685390450       51.3517641375        9.1175345972  MEMB      174             0.0000000000
     21676       174  PMPE      H8S            32.9798014717       49.7525622591        8.6997308614  MEMB      174             0.0000000000
     21677       174  PMPE      C29            35.1467003101       49.7403603602        8.8669893425  MEMB      174             0.0000000000
     21678       174  PMPE      H9R            35.3417272165       48.6556229871        8.9225934232  MEMB      174             0.0000000000
     21679       174  PMPE      C217           36.2294735374       50.5581652719        9.5624681110  MEMB      174             0.0000000000
     21680       174  PMPE      H17R           37.1006535694       50.0341294391        9.9056098757  MEMB      174             0.0000000000
     21681       174  PMPE      H17S           35.9088599623       51.4516258704       10.0626737391  MEMB      174             0.0000000000
     21682       174  PMPE      C210           36.1071111849       50.5471846486        8.0352688104  MEMB      174             0.0000000000
     21683       174  PMPE      H10R           36.9543825011       50.0094053439        7.5821267021  MEMB      174             0.0000000000
     21684       174  PMPE      C211           35.6628959260       51.8142735402        7.3233655695  MEMB      174             0.0000000000
     21685       174  PMPE      H11R           36.4263186279       52.0809742425        6.6120558585  MEMB      174             0.0000000000
     21686       174  PMPE      H11S           35.5180084046       52.6697044249        8.0085851734  MEMB      174             0.0000000000
     21687       174  PMPE      C212           34.5732677729       51.7432589936        6.2795689102  MEMB      174             0.0000000000
     21688       174  PMPE      H12R           34.3090225763       52.8048403872        6.0566082459  MEMB      174             0.0000000000
     21689       174  PMPE      H12S           33.7287221371       51.2085665510        6.7143412189  MEMB      174             0.0000000000
     21690       174  PMPE      C213           34.9836635289       51.1099966419        4.9467848108  MEMB      174             0.0000000000
     21691       174  PMPE      H13R           35.2180500526       50.0268103992        5.0549247127  MEMB      174             0.0000000000
     21692       174  PMPE      H13S           35.8272213621       51.6669621494        4.5744746111  MEMB      174             0.0000000000
     21693       174  PMPE      C214           34.0273015158       51.4139419392        3.8070837463  MEMB      174             0.0000000000
     21694       174  PMPE      H14R           33.5776810592       52.3969164144        3.7019565332  MEMB      174             0.0000000000
     21695       174  PMPE      H14S           33.2294442155       50.9303388789        4.0241503456  MEMB      174             0.0000000000
     21696       174  PMPE      C215           34.2090478998       50.8311609548        2.4709857465  MEMB      174             0.0000000000
     21697       174  PMPE      H15R           33.3682105982       51.1640888915        1.7962511316  MEMB      174             0.0000000000
     21698       174  PMPE      H15S           34.2294278079       49.7275271261        2.4079123723  MEMB      174             0.0000000000
     21699       174  PMPE      C216           35.4280559910       51.5355337067        2.2323641636  MEMB      174             0.0000000000
     21700       174  PMPE      H16R           36.3884319829       50.9466156640        2.1837553006  MEMB      174             0.0000000000
     21701       174  PMPE      H16S           35.0880728541       51.9911864332        1.3049829340  MEMB      174             0.0000000000
     21702       174  PMPE      H16T           35.6074465171       52.5617589901        2.2966311679  MEMB      174             0.0000000000
     21703       174  PMPE      C33            33.0468954209       55.1471673064       11.6695933272  MEMB      174             0.0000000000
     21704       174  PMPE      H3X            33.9384380877       54.5743697466       11.4405683720  MEMB      174             0.0000000000
     21705       174  PMPE      H3Y            33.3857106408       56.0389110268       12.2580023842  MEMB      174             0.0000000000
     21706       174  PMPE      C34            32.4465773037       55.5294810197       10.3279592973  MEMB      174             0.0000000000
     21707       174  PMPE      H4X            33.1299107641       56.2535085327        9.9084752032  MEMB      174             0.0000000000
     21708       174  PMPE      H4Y            31.5031591581       55.9932619290       10.6126174532  MEMB      174             0.0000000000
     21709       174  PMPE      C35            32.2885223236       54.4370673362        9.2547143356  MEMB      174             0.0000000000
     21710       174  PMPE      H5X            31.2621708715       54.0263485048        9.3188032572  MEMB      174             0.0000000000
     21711       174  PMPE      H5Y            33.0308025911       53.6619717910        9.5029450697  MEMB      174             0.0000000000
     21712       174  PMPE      C36            32.7644643607       54.7627895554        7.8295559774  MEMB      174             0.0000000000
     21713       174  PMPE      H6X            32.8424247203       53.9001348274        7.1830430084  MEMB      174             0.0000000000
     21714       174  PMPE      H6Y            33.5570692396       55.5224376640        7.8923365813  MEMB      174             0.0000000000
     21715       174  PMPE      C37            31.8776750190       55.3469195744        6.9791208164  MEMB      174             0.0000000000
     21716       174  PMPE      H7X            31.9802428297       56.2689629828        7.8492443869  MEMB      174             0.0000000000
     21717       174  PMPE      H7Y            30.7666474601       54.7450880443        6.7884242749  MEMB      174             0.0000000000
     21718       174  PMPE      C38            32.1075435272       55.8661614977        5.6841956466  MEMB      174             0.0000000000
     21719       174  PMPE      H8X            32.4397607771       56.8871389419        5.5372031364  MEMB      174             0.0000000000
     21720       174  PMPE      H8Y            31.2495611150       56.3283602315        5.8483070736  MEMB      174             0.0000000000
     21721       174  PMPE      C39            31.8814092291       54.7441904746        4.6942531257  MEMB      174             0.0000000000
     21722       174  PMPE      H9X            32.8306859595       54.2544876696        4.8333727945  MEMB      174             0.0000000000
     21723       174  PMPE      H9Y            31.8082636958       55.1894221123        3.6937354464  MEMB      174             0.0000000000
     21724       174  PMPE      C310           30.7165121906       53.6735606283        4.8377617039  MEMB      174             0.0000000000
     21725       174  PMPE      H10X           29.6570568406       54.0438890299        4.9798188143  MEMB      174             0.0000000000
     21726       174  PMPE      H10Y           30.8689412232       53.0800413321        5.7489876204  MEMB      174             0.0000000000
     21727       174  PMPE      C311           30.6243208533       52.8628324789        3.5764010610  MEMB      174             0.0000000000
     21728       174  PMPE      H11X           31.4615121579       52.1558186257        3.5273289588  MEMB      174             0.0000000000
     21729       174  PMPE      H11Y           30.7138754641       53.5332408517        2.6962845063  MEMB      174             0.0000000000
     21730       174  PMPE      C312           29.3545886659       52.0259344176        3.4974844090  MEMB      174             0.0000000000
     21731       174  PMPE      H12X           28.4231653838       52.5370812246        3.7657284362  MEMB      174             0.0000000000
     21732       174  PMPE      H12Y           29.4503637668       51.1852301018        4.1907770989  MEMB      174             0.0000000000
     21733       174  PMPE      C313           29.1419710653       51.4590008136        2.1170424947  MEMB      174             0.0000000000
     21734       174  PMPE      H13X           29.3437204513       52.1909772667        1.3286958318  MEMB      174             0.0000000000
     21735       174  PMPE      H13Y           28.1425171945       50.9616579273        2.0963456082  MEMB      174             0.0000000000
     21736       174  PMPE      C314           30.0861900667       50.4121189292        1.8203964001  MEMB      174             0.0000000000
     21737       174  PMPE      H14X           29.7225239716       49.6620266590        2.6308479397  MEMB      174             0.0000000000
     21738       174  PMPE      H14Y           31.1285646692       50.7077728837        1.8880931839  MEMB      174             0.0000000000
     21739       174  PMPE      C315           30.2188936073       49.8833989840        0.4251916761  MEMB      174             0.0000000000
     21740       174  PMPE      H15X           29.1286531262       49.7947205315       -0.1484382097  MEMB      174             0.0000000000
     21741       174  PMPE      H15Y           30.9112956857       48.8910024724        0.6163653643  MEMB      174             0.0000000000
     21742       174  PMPE      C316           30.8514007535       50.2432059240       -0.6512975172  MEMB      174             0.0000000000
     21743       174  PMPE      H16X           30.8531682889       49.5960259218       -1.5413501918  MEMB      174             0.0000000000
     21744       174  PMPE      H16Y           31.8119158474       50.1343773389       -0.2212229511  MEMB      174             0.0000000000
     21745       174  PMPE      H16Z           30.4109977627       51.1795966543       -0.8233487271  MEMB      174             0.0000000000
     21746       175  PMPG      C13            26.5577894245      -55.3639557703       20.8926238654  MEMB      175             0.0000000000
     21747       175  PMPG      H13A           27.4127761127      -55.9909983952       20.5518467195  MEMB      175             0.0000000000
     21748       175  PMPG      H13B           26.5712287735      -55.4545300011       21.9928260381  MEMB      175             0.0000000000
     21749       175  PMPG      OC3            25.3771092982      -55.9508559512       20.3577639963  MEMB      175             0.0000000000
     21750       175  PMPG      HO3            25.3945327031      -55.6151745537       19.4430609876  MEMB      175             0.0000000000
     21751       175  PMPG      C12            26.5666918035      -53.8672948299       20.4601273534  MEMB      175             0.0000000000
     21752       175  PMPG      H12A           27.5634648194      -53.4204990920       20.6647965261  MEMB      175             0.0000000000
     21753       175  PMPG      OC2            25.5973645640      -53.1237984943       21.2112571053  MEMB      175             0.0000000000
     21754       175  PMPG      HO2            25.5707981123      -52.2451740386       20.8212696358  MEMB      175             0.0000000000
     21755       175  PMPG      C11            26.2478580240      -53.7168664733       18.9429323976  MEMB      175             0.0000000000
     21756       175  PMPG      H11A           26.4316470558      -52.6725170162       18.6158581344  MEMB      175             0.0000000000
     21757       175  PMPG      H11B           25.1559956599      -53.8446828300       18.7787885810  MEMB      175             0.0000000000
     21758       175  PMPG      P              28.4418036616      -54.6036418975       17.6998221652  MEMB      175             0.0000000000
     21759       175  PMPG      O13            29.1536064341      -55.8265986186       18.1129933192  MEMB      175             0.0000000000
     21760       175  PMPG      O14            28.9762663861      -53.2835556335       18.1190068626  MEMB      175             0.0000000000
     21761       175  PMPG      O11            28.3278071395      -54.6887358289       16.1157600781  MEMB      175             0.0000000000
     21762       175  PMPG      O12            26.9234198689      -54.6984384071       18.1446580228  MEMB      175             0.0000000000
     21763       175  PMPG      C1             28.9713554857      -53.6504981823       15.3594104421  MEMB      175             0.0000000000
     21764       175  PMPG      HA             29.2129394483      -53.9991731337       14.3323860446  MEMB      175             0.0000000000
     21765       175  PMPG      HB             29.9618627565      -53.4064460387       15.7752214821  MEMB      175             0.0000000000
     21766       175  PMPG      C2             27.9559979644      -52.5383715744       15.1718428166  MEMB      175             0.0000000000
     21767       175  PMPG      HS             27.9961679342      -51.9655010418       16.1586582680  MEMB      175             0.0000000000
     21768       175  PMPG      O21            26.7804309642      -53.3170919166       14.7968626030  MEMB      175             0.0000000000
     21769       175  PMPG      C21            25.7366653786      -52.8008588992       15.2283896349  MEMB      175             0.0000000000
     21770       175  PMPG      O22            25.7715472170      -51.9598392635       16.0046289141  MEMB      175             0.0000000000
     21771       175  PMPG      C22            24.3672028572      -53.3188879026       15.1399349578  MEMB      175             0.0000000000
     21772       175  PMPG      H2R            23.5538582300      -52.6818453940       15.6234054289  MEMB      175             0.0000000000
     21773       175  PMPG      H2S            24.5189494835      -54.0787891297       15.8573409549  MEMB      175             0.0000000000
     21774       175  PMPG      C3             28.2667933102      -51.6157111835       14.0609344308  MEMB      175             0.0000000000
     21775       175  PMPG      HX             29.3086066104      -51.3101653955       14.2584220335  MEMB      175             0.0000000000
     21776       175  PMPG      HY             27.6809103148      -50.6931671553       13.9065420465  MEMB      175             0.0000000000
     21777       175  PMPG      O31            28.1990236694      -52.3050729583       12.8168496357  MEMB      175             0.0000000000
     21778       175  PMPG      C31            29.3176862621      -52.5558493442       12.1413200905  MEMB      175             0.0000000000
     21779       175  PMPG      O32            30.4535386925      -52.1816453700       12.3861253737  MEMB      175             0.0000000000
     21780       175  PMPG      C32            28.9254871079      -52.9931606935       10.8046633649  MEMB      175             0.0000000000
     21781       175  PMPG      H2X            29.5161892214      -52.1674371575       10.3528238794  MEMB      175             0.0000000000
     21782       175  PMPG      H2Y            27.8243035061      -52.9343896810       10.5857583192  MEMB      175             0.0000000000
     21783       175  PMPG      C23            23.9909372985      -53.5084340697       13.6834014971  MEMB      175             0.0000000000
     21784       175  PMPG      H3R            24.3299641111      -52.7296943119       12.9177818851  MEMB      175             0.0000000000
     21785       175  PMPG      H3S            22.9019398659      -53.4361324429       13.7706785514  MEMB      175             0.0000000000
     21786       175  PMPG      C24            24.4629925109      -54.7647582232       13.2547128655  MEMB      175             0.0000000000
     21787       175  PMPG      H4R            24.0710160663      -55.4122775068       14.0652194553  MEMB      175             0.0000000000
     21788       175  PMPG      H4S            25.5635027873      -54.6495747132       13.2528831972  MEMB      175             0.0000000000
     21789       175  PMPG      C25            23.9362696909      -55.1320069277       11.8997941566  MEMB      175             0.0000000000
     21790       175  PMPG      H5R            22.8256960057      -55.0508643828       11.8870458281  MEMB      175             0.0000000000
     21791       175  PMPG      H5S            24.2349493501      -56.1856999815       11.7707230134  MEMB      175             0.0000000000
     21792       175  PMPG      C26            24.5767182695      -54.4257096184       10.7085551741  MEMB      175             0.0000000000
     21793       175  PMPG      H6R            25.6470700788      -54.1793053904       10.8547229033  MEMB      175             0.0000000000
     21794       175  PMPG      H6S            24.0822192333      -53.4471003641       10.6015169874  MEMB      175             0.0000000000
     21795       175  PMPG      C27            24.3213173676      -55.2342626376        9.4370060356  MEMB      175             0.0000000000
     21796       175  PMPG      H7R            23.2221332688      -55.1373320863        9.2629858715  MEMB      175             0.0000000000
     21797       175  PMPG      H7S            24.5727663433      -56.3196450599        9.5320976830  MEMB      175             0.0000000000
     21798       175  PMPG      C28            25.1574651324      -54.7743286247        8.2423370983  MEMB      175             0.0000000000
     21799       175  PMPG      H8R            24.8732897885      -55.4850014033        7.4374274491  MEMB      175             0.0000000000
     21800       175  PMPG      H8S            26.2436402971      -54.9588321950        8.3772257530  MEMB      175             0.0000000000
     21801       175  PMPG      C29            24.9128390532      -53.3186518820        7.8387953158  MEMB      175             0.0000000000
     21802       175  PMPG      H9R            25.2980027432      -52.4718688302        8.4405160522  MEMB      175             0.0000000000
     21803       175  PMPG      C217           24.8872471881      -53.1125893144        6.3379375101  MEMB      175             0.0000000000
     21804       175  PMPG      H17R           25.2741217111      -52.1524352120        6.0477332594  MEMB      175             0.0000000000
     21805       175  PMPG      H17S           25.1156192005      -54.0566758008        5.8471736747  MEMB      175             0.0000000000
     21806       175  PMPG      C210           23.6119682958      -52.9922629888        7.1824126050  MEMB      175             0.0000000000
     21807       175  PMPG      H10R           23.2479977835      -51.9587077443        7.3121396328  MEMB      175             0.0000000000
     21808       175  PMPG      C211           22.5341102920      -54.0365037669        7.0534859119  MEMB      175             0.0000000000
     21809       175  PMPG      H11R           22.8547922472      -55.0358796737        6.6760900246  MEMB      175             0.0000000000
     21810       175  PMPG      H11S           21.7603491454      -54.0399814600        7.8198584909  MEMB      175             0.0000000000
     21811       175  PMPG      C212           21.7637259704      -53.5118167472        6.0283268267  MEMB      175             0.0000000000
     21812       175  PMPG      H12R           21.5921443613      -52.4017014829        6.0478167691  MEMB      175             0.0000000000
     21813       175  PMPG      H12S           20.6589151023      -53.6587420256        5.8995685964  MEMB      175             0.0000000000
     21814       175  PMPG      C213           22.5537740323      -54.0916206216        4.7115987527  MEMB      175             0.0000000000
     21815       175  PMPG      H13R           22.3182759906      -54.4973078177        4.1580191828  MEMB      175             0.0000000000
     21816       175  PMPG      H13S           23.6182144751      -53.9097496992        4.5500543057  MEMB      175             0.0000000000
     21817       175  PMPG      C214           21.4212337085      -53.3702598139        2.6494281927  MEMB      175             0.0000000000
     21818       175  PMPG      H14R           20.5572543761      -52.5442092764        3.3148903896  MEMB      175             0.0000000000
     21819       175  PMPG      H14S           20.3943306238      -53.2033835847        2.6760313508  MEMB      175             0.0000000000
     21820       175  PMPG      C215           22.8448672419      -52.8200746906        1.4215448228  MEMB      175             0.0000000000
     21821       175  PMPG      H15R           23.9573319787      -52.4861551202        1.9113096157  MEMB      175             0.0000000000
     21822       175  PMPG      H15S           22.6124707629      -51.9541580661        1.0018490089  MEMB      175             0.0000000000
     21823       175  PMPG      C216           23.2841242076      -54.0626019232        1.0196359495  MEMB      175             0.0000000000
     21824       175  PMPG      H16R           22.5180961607      -54.4868357471        1.4567954109  MEMB      175             0.0000000000
     21825       175  PMPG      H16S           23.9630177289      -54.6256350443        1.6638427141  MEMB      175             0.0000000000
     21826       175  PMPG      H16T           23.2700470852      -54.0884357177       -0.0101232935  MEMB      175             0.0000000000
     21827       175  PMPG      C33            29.4057527836      -54.3328148220       10.4636239837  MEMB      175             0.0000000000
     21828       175  PMPG      H3X            28.6369157648      -54.9903341137       10.9135077538  MEMB      175             0.0000000000
     21829       175  PMPG      H3Y            30.3585679837      -54.5975442304       10.9540727575  MEMB      175             0.0000000000
     21830       175  PMPG      C34            29.4923336896      -54.5445348763        8.9917708697  MEMB      175             0.0000000000
     21831       175  PMPG      H4X            30.3374067322      -53.9701354492        8.5182793425  MEMB      175             0.0000000000
     21832       175  PMPG      H4Y            28.5478326931      -54.3803855430        8.4508741602  MEMB      175             0.0000000000
     21833       175  PMPG      C35            29.6669460301      -55.9550311205        8.8789661718  MEMB      175             0.0000000000
     21834       175  PMPG      H5X            28.9588633643      -56.7326126252        9.1987163569  MEMB      175             0.0000000000
     21835       175  PMPG      H5Y            30.6368853683      -56.0796298371        9.3592318104  MEMB      175             0.0000000000
     21836       175  PMPG      C36            29.9132553962      -56.2271023648        7.5833908763  MEMB      175             0.0000000000
     21837       175  PMPG      H6X            30.2327365392      -57.3145473371        8.1880180846  MEMB      175             0.0000000000
     21838       175  PMPG      H6Y            30.7778431481      -55.4454864822        7.2029990187  MEMB      175             0.0000000000
     21839       175  PMPG      C37            29.0501996747      -56.3073156174        6.3147687331  MEMB      175             0.0000000000
     21840       175  PMPG      H7X            28.6980006152      -55.3141126796        6.5361063193  MEMB      175             0.0000000000
     21841       175  PMPG      H7Y            28.3824022798      -57.1484546283        6.4378585209  MEMB      175             0.0000000000
     21842       175  PMPG      C38            29.5581411131      -56.1955649389        4.7907928040  MEMB      175             0.0000000000
     21843       175  PMPG      H8X            29.9123096085      -57.1310869177        4.4026466014  MEMB      175             0.0000000000
     21844       175  PMPG      H8Y            30.4684771498      -55.5290595681        4.5927985037  MEMB      175             0.0000000000
     21845       175  PMPG      C39            28.7639907449      -55.6928835970        3.7893829208  MEMB      175             0.0000000000
     21846       175  PMPG      H9X            28.1967402030      -56.5985593533        3.6480737989  MEMB      175             0.0000000000
     21847       175  PMPG      H9Y            29.4222640664      -55.5694130613        2.9121365668  MEMB      175             0.0000000000
     21848       175  PMPG      C310           28.0265995952      -54.5113538921        4.2922624942  MEMB      175             0.0000000000
     21849       175  PMPG      H10X           28.6611179195      -53.8135979118        4.8758100469  MEMB      175             0.0000000000
     21850       175  PMPG      H10Y           27.3379551867      -54.8902571492        5.0648707856  MEMB      175             0.0000000000
     21851       175  PMPG      C311           27.1804347487      -53.8694200280        3.2102184519  MEMB      175             0.0000000000
     21852       175  PMPG      H11X           26.5644304559      -53.1230528160        3.7304896192  MEMB      175             0.0000000000
     21853       175  PMPG      H11Y           26.5261957571      -54.4984457342        2.6687137874  MEMB      175             0.0000000000
     21854       175  PMPG      C312           27.9390388167      -53.3779765007        2.0433683738  MEMB      175             0.0000000000
     21855       175  PMPG      H12X           28.8041782151      -53.0898405960        2.5573500406  MEMB      175             0.0000000000
     21856       175  PMPG      H12Y           27.3609248365      -52.4975004177        2.0859633226  MEMB      175             0.0000000000
     21857       175  PMPG      C313           27.5819958429      -53.0326274995        0.6109841360  MEMB      175             0.0000000000
     21858       175  PMPG      H13X           28.2877586173      -52.2310614070        0.2380975687  MEMB      175             0.0000000000
     21859       175  PMPG      H13Y           26.5220831567      -52.6920149560        0.5602182351  MEMB      175             0.0000000000
     21860       175  PMPG      C314           27.7224980415      -54.2744744097       -0.0877345872  MEMB      175             0.0000000000
     21861       175  PMPG      H14X           27.4334903891      -55.1281120124        0.4784345062  MEMB      175             0.0000000000
     21862       175  PMPG      H14Y           28.6597348426      -54.4639206905       -0.2368115917  MEMB      175             0.0000000000
     21863       175  PMPG      C315           27.4499914100      -54.3712591843       -1.5123067509  MEMB      175             0.0000000000
     21864       175  PMPG      H15X           28.1016194835      -53.6140085687       -2.0514717628  MEMB      175             0.0000000000
     21865       175  PMPG      H15Y           26.4245682150      -54.0635776781       -1.5519077171  MEMB      175             0.0000000000
     21866       175  PMPG      C316           27.5824803688      -55.8332514011       -1.9429425363  MEMB      175             0.0000000000
     21867       175  PMPG      H16X           26.9624223560      -56.6596927403       -1.8852730218  MEMB      175             0.0000000000
     21868       175  PMPG      H16Y           28.5260376127      -56.3233848752       -1.4241820342  MEMB      175             0.0000000000
     21869       175  PMPG      H16Z           27.6934691776      -55.7030638363       -3.0792523251  MEMB      175             0.0000000000
     21870       176  QMPE      N              37.6977943019      -48.3027271282       20.1117634722  MEMB      176             0.0000000000
     21871       176  QMPE      HN1            38.6076184795      -48.8015133784       20.1684414373  MEMB      176             0.0000000000
     21872       176  QMPE      HN2            37.6376670942      -47.8595631864       21.0446857268  MEMB      176             0.0000000000
     21873       176  QMPE      HN3            36.9383043171      -48.9832374256       19.9401361906  MEMB      176             0.0000000000
     21874       176  QMPE      C12            37.6886976926      -47.3119882515       18.9743226012  MEMB      176             0.0000000000
     21875       176  QMPE      H12A           36.7842061263      -46.6612429018       19.0173934173  MEMB      176             0.0000000000
     21876       176  QMPE      H12B           37.6473557625      -47.8980467050       18.0292028573  MEMB      176             0.0000000000
     21877       176  QMPE      C11            38.9571204731      -46.4496533290       18.9901421571  MEMB      176             0.0000000000
     21878       176  QMPE      H11A           38.9715547088      -45.7577173162       19.8667601793  MEMB      176             0.0000000000
     21879       176  QMPE      H11B           38.9067033491      -45.8895171761       18.0241349348  MEMB      176             0.0000000000
     21880       176  QMPE      P              41.5045443465      -46.3050035905       18.8366608840  MEMB      176             0.0000000000
     21881       176  QMPE      O13            42.6498768686      -47.1691856092       19.1526002922  MEMB      176             0.0000000000
     21882       176  QMPE      O14            41.3174596752      -45.0378282804       19.5830938747  MEMB      176             0.0000000000
     21883       176  QMPE      O11            41.4674964041      -45.9807972992       17.3106442050  MEMB      176             0.0000000000
     21884       176  QMPE      O12            40.1628590900      -47.2062493937       19.0316828314  MEMB      176             0.0000000000
     21885       176  QMPE      C1             41.6728207687      -46.8086221596       16.1873289596  MEMB      176             0.0000000000
     21886       176  QMPE      HA             41.3465600319      -46.1630892585       15.3425325885  MEMB      176             0.0000000000
     21887       176  QMPE      HB             40.9965924444      -47.6930696273       16.2014568076  MEMB      176             0.0000000000
     21888       176  QMPE      C2             43.1744082865      -47.2035633067       15.8782288360  MEMB      176             0.0000000000
     21889       176  QMPE      HS             43.5170571503      -47.8987879652       16.6881296968  MEMB      176             0.0000000000
     21890       176  QMPE      O21            44.0045359990      -46.0363030045       15.9097805375  MEMB      176             0.0000000000
     21891       176  QMPE      C21            45.2864034841      -46.2708723046       16.1365008607  MEMB      176             0.0000000000
     21892       176  QMPE      O22            45.7774398032      -47.3927085722       16.1819237383  MEMB      176             0.0000000000
     21893       176  QMPE      C22            45.9463048670      -44.8502085013       16.2375864531  MEMB      176             0.0000000000
     21894       176  QMPE      H2R            47.0461633522      -44.7993250217       16.1675688070  MEMB      176             0.0000000000
     21895       176  QMPE      H2S            45.6613122577      -44.4069804364       17.2109485483  MEMB      176             0.0000000000
     21896       176  QMPE      C3             43.2528441785      -47.8256430997       14.4373973686  MEMB      176             0.0000000000
     21897       176  QMPE      HX             42.5277276025      -48.6784553688       14.4510610671  MEMB      176             0.0000000000
     21898       176  QMPE      HY             44.2860410851      -48.1929949117       14.2237841627  MEMB      176             0.0000000000
     21899       176  QMPE      O31            42.8290666699      -46.8469695459       13.4511615187  MEMB      176             0.0000000000
     21900       176  QMPE      C31            43.2042813200      -47.0271454891       12.1957531031  MEMB      176             0.0000000000
     21901       176  QMPE      O32            44.0173971953      -47.8442960100       11.7997603577  MEMB      176             0.0000000000
     21902       176  QMPE      C32            42.3279826653      -46.1459606701       11.2884940462  MEMB      176             0.0000000000
     21903       176  QMPE      H2X            41.6969639940      -45.4368699290       11.8595927018  MEMB      176             0.0000000000
     21904       176  QMPE      H2Y            43.0000916519      -45.5436940856       10.6474082368  MEMB      176             0.0000000000
     21905       176  QMPE      C23            45.7522960658      -43.9626829588       15.0781909836  MEMB      176             0.0000000000
     21906       176  QMPE      H3R            46.3906971978      -43.0560111454       15.2344447747  MEMB      176             0.0000000000
     21907       176  QMPE      H3S            44.6778123523      -43.8119671234       15.0884106262  MEMB      176             0.0000000000
     21908       176  QMPE      C24            46.1720877609      -44.6077086317       13.8153690657  MEMB      176             0.0000000000
     21909       176  QMPE      H4R            45.6678521271      -45.5361381245       13.5596508264  MEMB      176             0.0000000000
     21910       176  QMPE      H4S            47.1754827308      -44.9920825480       14.0272179838  MEMB      176             0.0000000000
     21911       176  QMPE      C25            46.0274586342      -43.6371487681       12.6639108011  MEMB      176             0.0000000000
     21912       176  QMPE      H5R            46.5194998989      -42.6639954447       12.5399710498  MEMB      176             0.0000000000
     21913       176  QMPE      H5S            45.1375879679      -43.4569203903       12.6866258615  MEMB      176             0.0000000000
     21914       176  QMPE      C26            45.9914600917      -44.1760347653       11.4139910869  MEMB      176             0.0000000000
     21915       176  QMPE      H6R            45.2687276624      -44.9711927163       11.2148687815  MEMB      176             0.0000000000
     21916       176  QMPE      H6S            46.9119319404      -44.8093257151       11.4578447223  MEMB      176             0.0000000000
     21917       176  QMPE      C27            46.0260321059      -43.1103596374       10.2813477645  MEMB      176             0.0000000000
     21918       176  QMPE      H7R            46.7123131306      -42.3231926169       10.0379312480  MEMB      176             0.0000000000
     21919       176  QMPE      H7S            45.2394805211      -43.0063036659        9.7704117496  MEMB      176             0.0000000000
     21920       176  QMPE      C28            46.2464537167      -43.4222550718        8.9955459926  MEMB      176             0.0000000000
     21921       176  QMPE      H8R            47.5190142864      -43.5343443907        8.9615090017  MEMB      176             0.0000000000
     21922       176  QMPE      H8S            46.6798555241      -42.8285705437        8.0728782799  MEMB      176             0.0000000000
     21923       176  QMPE      C29            44.6677008638      -45.0967665953        8.1978561068  MEMB      176             0.0000000000
     21924       176  QMPE      H9R            43.9496114008      -44.8221965654        8.8796985450  MEMB      176             0.0000000000
     21925       176  QMPE      C217           44.8961359982      -47.3657407480        8.3725592684  MEMB      176             0.0000000000
     21926       176  QMPE      H17R           45.8833186461      -47.7430232703        9.0868399919  MEMB      176             0.0000000000
     21927       176  QMPE      H17S           44.4115673186      -47.5073156680        9.2083391488  MEMB      176             0.0000000000
     21928       176  QMPE      C210           44.7820449106      -46.4986333394        7.2549997438  MEMB      176             0.0000000000
     21929       176  QMPE      H10R           43.8609287167      -46.6020204638        6.8691423316  MEMB      176             0.0000000000
     21930       176  QMPE      C211           45.8867178348      -47.1757025605        6.3744758352  MEMB      176             0.0000000000
     21931       176  QMPE      H11R           46.1302609456      -46.2941828150        6.4923854677  MEMB      176             0.0000000000
     21932       176  QMPE      H11S           47.0023582486      -47.1413682560        6.4204043339  MEMB      176             0.0000000000
     21933       176  QMPE      C212           45.6431383887      -47.3607028900        4.9705335445  MEMB      176             0.0000000000
     21934       176  QMPE      H12R           44.6694494015      -46.5256517978        5.0045293902  MEMB      176             0.0000000000
     21935       176  QMPE      H12S           45.2023498397      -48.1569389045        4.7462433845  MEMB      176             0.0000000000
     21936       176  QMPE      C213           47.0379854583      -46.9997990371        3.4217835932  MEMB      176             0.0000000000
     21937       176  QMPE      H13R           47.1416792018      -46.9939548145        2.4483326848  MEMB      176             0.0000000000
     21938       176  QMPE      H13S           47.6631947329      -46.8919241288        3.9353406404  MEMB      176             0.0000000000
     21939       176  QMPE      C214           46.6870246876      -44.4707110427        2.2211527594  MEMB      176             0.0000000000
     21940       176  QMPE      H14R           47.5305780190      -44.1457576103        2.1523580119  MEMB      176             0.0000000000
     21941       176  QMPE      H14S           46.7512537808      -43.5579494333        3.2485184040  MEMB      176             0.0000000000
     21942       176  QMPE      C215           45.4039565595      -44.1750751466        1.9941837407  MEMB      176             0.0000000000
     21943       176  QMPE      H15R           44.5105096652      -44.5549102652        2.4511559294  MEMB      176             0.0000000000
     21944       176  QMPE      H15S           45.8983524137      -45.0772571369        1.5036599346  MEMB      176             0.0000000000
     21945       176  QMPE      C216           45.4468868455      -42.8346929113        1.9176672199  MEMB      176             0.0000000000
     21946       176  QMPE      H16R           44.6384543830      -42.6508552483        2.4520715541  MEMB      176             0.0000000000
     21947       176  QMPE      H16S           45.0215333689      -42.4306032911        1.0990474645  MEMB      176             0.0000000000
     21948       176  QMPE      H16T           46.3320403506      -42.2578611996        1.9686138457  MEMB      176             0.0000000000
     21949       176  QMPE      C33            41.3708961531      -47.0190615063       10.4488377666  MEMB      176             0.0000000000
     21950       176  QMPE      H3X            40.6182781632      -47.5446775610       11.0909983955  MEMB      176             0.0000000000
     21951       176  QMPE      H3Y            41.9580903985      -47.7509118984        9.8484648558  MEMB      176             0.0000000000
     21952       176  QMPE      C34            40.6563591656      -46.2393071397        9.3527588732  MEMB      176             0.0000000000
     21953       176  QMPE      H4X            41.4515697403      -45.8292237713        8.6982757453  MEMB      176             0.0000000000
     21954       176  QMPE      H4Y            40.0950753282      -45.3738726884        9.7763749104  MEMB      176             0.0000000000
     21955       176  QMPE      C35            39.6249185013      -47.1083812660        8.6061322554  MEMB      176             0.0000000000
     21956       176  QMPE      H5X            39.0791456546      -46.4597184961        7.8908172759  MEMB      176             0.0000000000
     21957       176  QMPE      H5Y            38.8930426847      -47.3572450940        9.4071642221  MEMB      176             0.0000000000
     21958       176  QMPE      C36            40.0943285331      -48.3703472364        7.8327671936  MEMB      176             0.0000000000
     21959       176  QMPE      H6X            39.1779847733      -48.8425231282        7.4183397976  MEMB      176             0.0000000000
     21960       176  QMPE      H6Y            40.4725629590      -49.1674604409        8.5133233689  MEMB      176             0.0000000000
     21961       176  QMPE      C37            41.0759420890      -48.0783416185        6.6657343989  MEMB      176             0.0000000000
     21962       176  QMPE      H7X            42.0158120278      -47.6054957078        7.0265742497  MEMB      176             0.0000000000
     21963       176  QMPE      H7Y            41.3065988537      -49.0457320893        6.1652819289  MEMB      176             0.0000000000
     21964       176  QMPE      C38            40.5163600477      -47.2141384357        5.5382087589  MEMB      176             0.0000000000
     21965       176  QMPE      H8X            39.5175927513      -47.6286488856        5.2908421583  MEMB      176             0.0000000000
     21966       176  QMPE      H8Y            40.4958541327      -46.1444019464        5.8524848135  MEMB      176             0.0000000000
     21967       176  QMPE      C39            41.4303805900      -47.2219495309        4.3620664225  MEMB      176             0.0000000000
     21968       176  QMPE      H9X            41.7313044470      -48.2230984197        4.0059641257  MEMB      176             0.0000000000
     21969       176  QMPE      H9Y            42.2702995701      -46.6290330201        4.7408209702  MEMB      176             0.0000000000
     21970       176  QMPE      C310           40.8518244612      -46.6063235889        3.1965284719  MEMB      176             0.0000000000
     21971       176  QMPE      H10X           40.5650262670      -45.5705118632        3.4713940523  MEMB      176             0.0000000000
     21972       176  QMPE      H10Y           40.0831820749      -47.2948794210        2.8538906777  MEMB      176             0.0000000000
     21973       176  QMPE      C311           41.5816326306      -46.7577599688        1.9568347143  MEMB      176             0.0000000000
     21974       176  QMPE      H11X           42.0524026531      -47.5595143833        1.5104384401  MEMB      176             0.0000000000
     21975       176  QMPE      H11Y           42.1515639003      -46.1545444654        2.5425634405  MEMB      176             0.0000000000
     21976       176  QMPE      C312           41.7777222961      -45.9796826119        1.0048758935  MEMB      176             0.0000000000
     21977       176  QMPE      H12X           40.9088289214      -46.1310279710        0.8915497821  MEMB      176             0.0000000000
     21978       176  QMPE      H12Y           41.8943623144      -46.1427110926       -0.1061408551  MEMB      176             0.0000000000
     21979       176  QMPE      C313           42.1880804587      -44.6418305559        1.5008056101  MEMB      176             0.0000000000
     21980       176  QMPE      H13X           41.5231628998      -44.2776999028        2.4129051244  MEMB      176             0.0000000000
     21981       176  QMPE      H13Y           42.8490251069      -44.0771738506        1.2157130872  MEMB      176             0.0000000000
     21982       176  QMPE      C314           42.0202728720      -42.8515758068       -0.8907165435  MEMB      176             0.0000000000
     21983       176  QMPE      H14X           40.5881887825      -43.0647104716       -0.6097079813  MEMB      176             0.0000000000
     21984       176  QMPE      H14Y           41.1992172963      -43.1145152041       -1.0353212539  MEMB      176             0.0000000000
     21985       176  QMPE      C315           41.8813410037      -41.3528754161       -0.8393591106  MEMB      176             0.0000000000
     21986       176  QMPE      H15X           40.7869595683      -41.2381785643       -1.1271239189  MEMB      176             0.0000000000
     21987       176  QMPE      H15Y           40.7681593430      -41.0803628845        0.0408698721  MEMB      176             0.0000000000
     21988       176  QMPE      H15Z           43.1283226274      -40.7530786613       -0.3264793598  MEMB      176             0.0000000000
     21989       177  PMPE      N             -41.2511327604       47.7876263312       18.0460457684  MEMB      177             0.0000000000
     21990       177  PMPE      HN1           -42.2447729854       48.0569104535       18.1052814239  MEMB      177             0.0000000000
     21991       177  PMPE      HN2           -40.7374900616       48.6119583433       17.6693572583  MEMB      177             0.0000000000
     21992       177  PMPE      HN3           -41.1509531689       46.9141450311       17.4737812412  MEMB      177             0.0000000000
     21993       177  PMPE      C12           -40.7880772969       47.5523232222       19.4473121244  MEMB      177             0.0000000000
     21994       177  PMPE      H12A          -41.3956446565       48.2075576096       20.1001283156  MEMB      177             0.0000000000
     21995       177  PMPE      H12B          -39.7319183718       47.8999531504       19.4905020142  MEMB      177             0.0000000000
     21996       177  PMPE      C11           -40.8344673136       46.0768009499       19.9138764189  MEMB      177             0.0000000000
     21997       177  PMPE      H11A          -40.5277636138       46.1536288557       20.9872494562  MEMB      177             0.0000000000
     21998       177  PMPE      H11B          -40.0834778626       45.5157143928       19.3104082281  MEMB      177             0.0000000000
     21999       177  PMPE      P             -42.3644644721       44.1417009277       18.9287052981  MEMB      177             0.0000000000
     22000       177  PMPE      O13           -43.7174706856       43.7140675416       19.2882523933  MEMB      177             0.0000000000
     22001       177  PMPE      O14           -41.2119772286       43.2252734601       19.0419091697  MEMB      177             0.0000000000
     22002       177  PMPE      O11           -42.3306058110       44.8365620766       17.4835572626  MEMB      177             0.0000000000
     22003       177  PMPE      O12           -42.1004204766       45.4275805026       19.8531775870  MEMB      177             0.0000000000
     22004       177  PMPE      C1            -43.5228165839       44.7635509059       16.6911136061  MEMB      177             0.0000000000
     22005       177  PMPE      HA            -43.4408659616       45.5349946704       15.8874028316  MEMB      177             0.0000000000
     22006       177  PMPE      HB            -44.3977752749       45.0401550475       17.3202151311  MEMB      177             0.0000000000
     22007       177  PMPE      C2            -43.7859096122       43.3349822729       16.0858764126  MEMB      177             0.0000000000
     22008       177  PMPE      HS            -44.1507753523       42.6604808645       16.8941690921  MEMB      177             0.0000000000
     22009       177  PMPE      O21           -42.5410224256       42.8456284380       15.5947907620  MEMB      177             0.0000000000
     22010       177  PMPE      C21           -42.5232797185       41.5932727033       15.3037416792  MEMB      177             0.0000000000
     22011       177  PMPE      O22           -43.3570559751       40.7392383934       15.5205334499  MEMB      177             0.0000000000
     22012       177  PMPE      C22           -41.2327390957       41.3109012744       14.6302051846  MEMB      177             0.0000000000
     22013       177  PMPE      H2R           -41.4487864897       40.6439149378       13.8025915860  MEMB      177             0.0000000000
     22014       177  PMPE      H2S           -40.8583936204       40.8989585492       15.5581321906  MEMB      177             0.0000000000
     22015       177  PMPE      C3            -44.8738917600       43.3476107373       14.9622681367  MEMB      177             0.0000000000
     22016       177  PMPE      HX            -45.7309923387       43.8906755395       15.4293366696  MEMB      177             0.0000000000
     22017       177  PMPE      HY            -45.2369288866       42.3407881582       14.6623642738  MEMB      177             0.0000000000
     22018       177  PMPE      O31           -44.3498702436       43.9998869731       13.7950890783  MEMB      177             0.0000000000
     22019       177  PMPE      C31           -45.0604428330       45.0029063851       13.3255060008  MEMB      177             0.0000000000
     22020       177  PMPE      O32           -46.2158051923       45.2706496998       13.5853422184  MEMB      177             0.0000000000
     22021       177  PMPE      C32           -44.1544901341       45.8365531744       12.4695548952  MEMB      177             0.0000000000
     22022       177  PMPE      H2X           -43.5349165310       45.3402759908       11.7512649553  MEMB      177             0.0000000000
     22023       177  PMPE      H2Y           -43.5566417640       46.4525837822       13.1503143275  MEMB      177             0.0000000000
     22024       177  PMPE      C23           -40.3247395281       42.4642204783       14.2323625518  MEMB      177             0.0000000000
     22025       177  PMPE      H3R           -39.3097418049       42.1795350214       14.0529664664  MEMB      177             0.0000000000
     22026       177  PMPE      H3S           -40.2148587409       43.1299834231       15.0952584858  MEMB      177             0.0000000000
     22027       177  PMPE      C24           -40.7463205665       43.0980951828       12.9151270909  MEMB      177             0.0000000000
     22028       177  PMPE      H4R           -41.8172171845       43.3582371521       12.9612895876  MEMB      177             0.0000000000
     22029       177  PMPE      H4S           -40.6098865028       42.3714741887       12.0776267030  MEMB      177             0.0000000000
     22030       177  PMPE      C25           -40.1588272746       44.4612296770       12.5733085264  MEMB      177             0.0000000000
     22031       177  PMPE      H5R           -39.1216330485       44.4763435010       12.4341687518  MEMB      177             0.0000000000
     22032       177  PMPE      H5S           -40.3579042310       45.2432980050       13.3215762253  MEMB      177             0.0000000000
     22033       177  PMPE      C26           -40.5175503081       44.8848958270       11.1782513235  MEMB      177             0.0000000000
     22034       177  PMPE      H6R           -41.6008370694       44.9604400625       11.1064014430  MEMB      177             0.0000000000
     22035       177  PMPE      H6S           -40.1522748812       44.1039956513       10.4806646842  MEMB      177             0.0000000000
     22036       177  PMPE      C27           -39.9796751107       46.2312927674       10.7813272523  MEMB      177             0.0000000000
     22037       177  PMPE      H7R           -38.9472276046       46.3119152133       11.1277576909  MEMB      177             0.0000000000
     22038       177  PMPE      H7S           -40.5502777795       47.0127521560       11.3133093834  MEMB      177             0.0000000000
     22039       177  PMPE      C28           -40.1920614481       46.4658015100        9.2983475795  MEMB      177             0.0000000000
     22040       177  PMPE      H8R           -41.2735556368       46.6410679866        9.1179731744  MEMB      177             0.0000000000
     22041       177  PMPE      H8S           -39.8708545538       45.5962064324        8.6981477134  MEMB      177             0.0000000000
     22042       177  PMPE      C29           -39.4400722346       47.6684839815        8.8958940800  MEMB      177             0.0000000000
     22043       177  PMPE      H9R           -38.3081011243       47.6265081627        8.9590224098  MEMB      177             0.0000000000
     22044       177  PMPE      C217          -39.9826325146       48.8532068777        9.6574848795  MEMB      177             0.0000000000
     22045       177  PMPE      H17R          -39.1569680550       49.3564331894       10.1066036395  MEMB      177             0.0000000000
     22046       177  PMPE      H17S          -40.9011647505       48.8536276274       10.1273046753  MEMB      177             0.0000000000
     22047       177  PMPE      C210          -40.1865234549       48.7971796522        8.1687524856  MEMB      177             0.0000000000
     22048       177  PMPE      H10R          -39.8215325724       49.6638566616        7.7876636630  MEMB      177             0.0000000000
     22049       177  PMPE      C211          -41.3876655574       48.7996581158        7.2946575691  MEMB      177             0.0000000000
     22050       177  PMPE      H11R          -41.5218564884       49.8014162088        6.7878684596  MEMB      177             0.0000000000
     22051       177  PMPE      H11S          -42.1754034851       48.7499584979        8.0189917877  MEMB      177             0.0000000000
     22052       177  PMPE      C212          -41.4364009794       47.6681807130        6.2720994385  MEMB      177             0.0000000000
     22053       177  PMPE      H12R          -42.5228789795       47.6154862550        6.0495887802  MEMB      177             0.0000000000
     22054       177  PMPE      H12S          -41.1094810425       46.7055512799        6.7155290049  MEMB      177             0.0000000000
     22055       177  PMPE      C213          -40.7177037207       47.8777536838        4.9236209542  MEMB      177             0.0000000000
     22056       177  PMPE      H13R          -39.6109710045       47.8437636813        5.0591290063  MEMB      177             0.0000000000
     22057       177  PMPE      H13S          -41.0109830009       48.8615382823        4.5141016882  MEMB      177             0.0000000000
     22058       177  PMPE      C214          -41.1346569933       46.8521748598        3.8489063266  MEMB      177             0.0000000000
     22059       177  PMPE      H14R          -42.2413040634       46.7763148065        3.7123723713  MEMB      177             0.0000000000
     22060       177  PMPE      H14S          -40.7067337699       45.8776525820        4.1616555962  MEMB      177             0.0000000000
     22061       177  PMPE      C215          -40.6144156858       47.0455523056        2.4189263889  MEMB      177             0.0000000000
     22062       177  PMPE      H15R          -41.1469552516       46.2983681086        1.7911701302  MEMB      177             0.0000000000
     22063       177  PMPE      H15S          -39.5424265056       46.7681954421        2.4009187766  MEMB      177             0.0000000000
     22064       177  PMPE      C216          -40.8891246257       48.4068515841        1.8140997804  MEMB      177             0.0000000000
     22065       177  PMPE      H16R          -40.1700217912       49.1172879786        2.2112698653  MEMB      177             0.0000000000
     22066       177  PMPE      H16S          -40.8588951986       48.4182399953        0.7037561887  MEMB      177             0.0000000000
     22067       177  PMPE      H16T          -41.8757608421       48.7673498808        2.1533040792  MEMB      177             0.0000000000
     22068       177  PMPE      C33           -44.8416049339       46.7666849090       11.6071257502  MEMB      177             0.0000000000
     22069       177  PMPE      H3X           -44.2962507298       47.7150855445       11.4270074648  MEMB      177             0.0000000000
     22070       177  PMPE      H3Y           -45.4436176651       47.2002678049       12.3689375482  MEMB      177             0.0000000000
     22071       177  PMPE      C34           -45.5069464633       46.2081299086       10.3105359268  MEMB      177             0.0000000000
     22072       177  PMPE      H4X           -45.9948699231       47.0137360715        9.8765837168  MEMB      177             0.0000000000
     22073       177  PMPE      H4Y           -46.3773236777       45.5230365280       10.3668987929  MEMB      177             0.0000000000
     22074       177  PMPE      C35           -44.5584936552       45.9822506571        9.2066699837  MEMB      177             0.0000000000
     22075       177  PMPE      H5X           -44.4252954844       44.9013884994        9.2944920997  MEMB      177             0.0000000000
     22076       177  PMPE      H5Y           -43.6637202111       46.5752762879        9.4772622843  MEMB      177             0.0000000000
     22077       177  PMPE      C36           -44.9597334735       46.3712616152        7.7909054407  MEMB      177             0.0000000000
     22078       177  PMPE      H6X           -44.0394539942       46.3822982101        7.1829112306  MEMB      177             0.0000000000
     22079       177  PMPE      H6Y           -45.3225741273       47.3805782717        7.7595777028  MEMB      177             0.0000000000
     22080       177  PMPE      C37           -46.0122978691       45.4724217744        7.1913883077  MEMB      177             0.0000000000
     22081       177  PMPE      H7X           -46.9591816570       45.5720393369        7.7619064658  MEMB      177             0.0000000000
     22082       177  PMPE      H7Y           -45.6371473922       44.4340063622        7.3012497679  MEMB      177             0.0000000000
     22083       177  PMPE      C38           -46.3493569434       45.7441793397        5.7279135493  MEMB      177             0.0000000000
     22084       177  PMPE      H8X           -46.9457516976       46.6872022547        5.6300248924  MEMB      177             0.0000000000
     22085       177  PMPE      H8Y           -47.0851014706       44.9244643860        5.5548403775  MEMB      177             0.0000000000
     22086       177  PMPE      C39           -45.1241391906       45.6368014853        4.7640720677  MEMB      177             0.0000000000
     22087       177  PMPE      H9X           -44.3836244004       46.4622881599        4.8746817798  MEMB      177             0.0000000000
     22088       177  PMPE      H9Y           -45.4577522006       45.7379982708        3.7121472271  MEMB      177             0.0000000000
     22089       177  PMPE      C310          -44.3135021804       44.3140402300        4.8442988022  MEMB      177             0.0000000000
     22090       177  PMPE      H10X          -44.9861259146       43.4325453692        4.9397466086  MEMB      177             0.0000000000
     22091       177  PMPE      H10Y          -43.6562228139       44.3336354880        5.7391231533  MEMB      177             0.0000000000
     22092       177  PMPE      C311          -43.4521404892       44.0593892578        3.5929194078  MEMB      177             0.0000000000
     22093       177  PMPE      H11X          -42.5162647959       44.6590534430        3.5589819586  MEMB      177             0.0000000000
     22094       177  PMPE      H11Y          -44.0717321293       44.3007931591        2.6979985053  MEMB      177             0.0000000000
     22095       177  PMPE      C312          -42.8881230037       42.6389247255        3.5082904520  MEMB      177             0.0000000000
     22096       177  PMPE      H12X          -43.6302516013       41.8500238864        3.7665066713  MEMB      177             0.0000000000
     22097       177  PMPE      H12Y          -41.9970366090       42.6009322311        4.1864156388  MEMB      177             0.0000000000
     22098       177  PMPE      C313          -42.3451284471       42.3082936891        2.1156102310  MEMB      177             0.0000000000
     22099       177  PMPE      H13X          -43.0603788310       42.6494988529        1.3324217720  MEMB      177             0.0000000000
     22100       177  PMPE      H13Y          -42.1805186537       41.2006701132        2.0955010809  MEMB      177             0.0000000000
     22101       177  PMPE      C314          -40.9549105825       42.9248324337        1.9138731500  MEMB      177             0.0000000000
     22102       177  PMPE      H14X          -40.3437213063       42.5124544232        2.7373825130  MEMB      177             0.0000000000
     22103       177  PMPE      H14Y          -40.9478887385       44.0428503988        1.9251334676  MEMB      177             0.0000000000
     22104       177  PMPE      C315          -40.1241192035       42.5080435973        0.7078926559  MEMB      177             0.0000000000
     22105       177  PMPE      H15X          -40.2143709470       41.4651947696        0.3752516832  MEMB      177             0.0000000000
     22106       177  PMPE      H15Y          -39.0812942438       42.7807027332        0.8788565313  MEMB      177             0.0000000000
     22107       177  PMPE      C316          -40.4181824070       43.3460964276       -0.3760422201  MEMB      177             0.0000000000
     22108       177  PMPE      H16X          -40.1109531243       43.0720825419       -1.4121351989  MEMB      177             0.0000000000
     22109       177  PMPE      H16Y          -40.4402358740       44.4393978493       -0.2037218574  MEMB      177             0.0000000000
     22110       177  PMPE      H16Z          -41.4794239948       43.2402379792       -0.2656931663  MEMB      177             0.0000000000
     22111       178  OYPE      N              48.6032011882       36.0237148548       20.9938309602  MEMB      178             0.0000000000
     22112       178  OYPE      HN1            49.3165395877       36.5573582591       21.5430014918  MEMB      178             0.0000000000
     22113       178  OYPE      HN2            47.8110159532       36.6358246556       20.7418006913  MEMB      178             0.0000000000
     22114       178  OYPE      HN3            48.2586434536       35.1845633647       21.4985866483  MEMB      178             0.0000000000
     22115       178  OYPE      C12            49.2626090979       35.5339599199       19.7237883570  MEMB      178             0.0000000000
     22116       178  OYPE      H12A           48.8211729082       34.5489346494       19.4788809426  MEMB      178             0.0000000000
     22117       178  OYPE      H12B           50.3103222927       35.3015607255       20.0040884294  MEMB      178             0.0000000000
     22118       178  OYPE      C11            49.2396044756       36.5648887226       18.5537414382  MEMB      178             0.0000000000
     22119       178  OYPE      H11A           48.2471963876       36.9650508707       18.2491182193  MEMB      178             0.0000000000
     22120       178  OYPE      H11B           49.5874271500       36.0529814978       17.6274326779  MEMB      178             0.0000000000
     22121       178  OYPE      P              51.6321666832       37.6985038031       18.6105313852  MEMB      178             0.0000000000
     22122       178  OYPE      O13            52.1763720720       36.3783593315       18.9703742610  MEMB      178             0.0000000000
     22123       178  OYPE      O14            52.1262178247       38.8948557333       19.3127889928  MEMB      178             0.0000000000
     22124       178  OYPE      O11            51.7543641693       37.8471587923       17.0650231679  MEMB      178             0.0000000000
     22125       178  OYPE      O12            50.0529152612       37.6804610966       18.8617278217  MEMB      178             0.0000000000
     22126       178  OYPE      C1             51.0897431887       38.8716066608       16.3584389473  MEMB      178             0.0000000000
     22127       178  OYPE      HA             51.8148719924       39.2123331878       15.5965596689  MEMB      178             0.0000000000
     22128       178  OYPE      HB             50.8285840016       39.7590902837       16.9778107230  MEMB      178             0.0000000000
     22129       178  OYPE      C2             49.8350498002       38.3492742941       15.6457180653  MEMB      178             0.0000000000
     22130       178  OYPE      HS             48.9617241438       38.3572084598       16.3243835043  MEMB      178             0.0000000000
     22131       178  OYPE      O21            50.0401240068       37.0661634525       15.1965646854  MEMB      178             0.0000000000
     22132       178  OYPE      C21            48.9979013129       36.4348293986       14.8995526177  MEMB      178             0.0000000000
     22133       178  OYPE      O22            47.8233752405       36.5856234511       15.0940703121  MEMB      178             0.0000000000
     22134       178  OYPE      C22            49.4167591561       35.3407074231       14.3684018381  MEMB      178             0.0000000000
     22135       178  OYPE      H2R            50.3122363761       34.8655082361       14.7831060565  MEMB      178             0.0000000000
     22136       178  OYPE      H2S            50.1753322396       35.7356213263       13.4474872355  MEMB      178             0.0000000000
     22137       178  OYPE      C3             49.5120254670       39.1658612604       14.4255466389  MEMB      178             0.0000000000
     22138       178  OYPE      HX             49.4054879553       40.1219658265       14.8312026625  MEMB      178             0.0000000000
     22139       178  OYPE      HY             48.5681913107       38.8030312308       13.9713045968  MEMB      178             0.0000000000
     22140       178  OYPE      O31            50.5921673771       39.2923498019       13.5253538200  MEMB      178             0.0000000000
     22141       178  OYPE      C31            50.2386709494       39.4000429022       12.2774466932  MEMB      178             0.0000000000
     22142       178  OYPE      O32            49.1532292745       39.4651339583       11.7673296559  MEMB      178             0.0000000000
     22143       178  OYPE      C32            51.3652375675       39.3042785802       11.4009023333  MEMB      178             0.0000000000
     22144       178  OYPE      H2X            51.5409807490       40.3553896693       11.4969456491  MEMB      178             0.0000000000
     22145       178  OYPE      H2Y            52.2607068388       38.9069420378       11.8575612025  MEMB      178             0.0000000000
     22146       178  OYPE      C23            48.0396011856       34.1968875986       14.0794385430  MEMB      178             0.0000000000
     22147       178  OYPE      H3R            47.4774363861       34.1969939373       14.9253160933  MEMB      178             0.0000000000
     22148       178  OYPE      H3S            48.2172992256       33.0053606717       14.0437814694  MEMB      178             0.0000000000
     22149       178  OYPE      C24            47.5382511860       34.4611929439       12.6921311752  MEMB      178             0.0000000000
     22150       178  OYPE      H4R            47.2127936701       33.3119030123       12.6644153645  MEMB      178             0.0000000000
     22151       178  OYPE      H4S            48.4317406950       34.7973195372       11.9545058604  MEMB      178             0.0000000000
     22152       178  OYPE      C25            46.9062378936       35.6071823980       11.8642593041  MEMB      178             0.0000000000
     22153       178  OYPE      H5R            47.6017318317       36.4244781411       11.8367769472  MEMB      178             0.0000000000
     22154       178  OYPE      H5S            46.4178891399       35.4923380697       12.6848965746  MEMB      178             0.0000000000
     22155       178  OYPE      C26            45.9092576739       35.5128353681       10.6892214750  MEMB      178             0.0000000000
     22156       178  OYPE      H6R            45.4504758017       36.4806751368       10.6670853385  MEMB      178             0.0000000000
     22157       178  OYPE      H6S            45.1609605304       34.7016753594       10.8625216807  MEMB      178             0.0000000000
     22158       178  OYPE      C27            46.3878784909       35.4644654976        9.2396612325  MEMB      178             0.0000000000
     22159       178  OYPE      H7R            45.6752454626       34.9574448106        8.5746531997  MEMB      178             0.0000000000
     22160       178  OYPE      H7S            46.7903121557       34.5776137796        9.1908460182  MEMB      178             0.0000000000
     22161       178  OYPE      C28            47.6785442825       36.2139606123        8.7875431846  MEMB      178             0.0000000000
     22162       178  OYPE      H8R            48.0953063020       36.0168796415        7.7525632148  MEMB      178             0.0000000000
     22163       178  OYPE      H8S            48.5575205136       36.0151808376        9.4508441999  MEMB      178             0.0000000000
     22164       178  OYPE      C29            47.1989924425       37.5024172015        8.5054693744  MEMB      178             0.0000000000
     22165       178  OYPE      H9R            47.2940394688       38.1337253375        9.3684079531  MEMB      178             0.0000000000
     22166       178  OYPE      C210           46.6866064719       37.8142111988        7.3071285754  MEMB      178             0.0000000000
     22167       178  OYPE      H10R           46.5043979563       38.8448613548        7.0865780274  MEMB      178             0.0000000000
     22168       178  OYPE      C211           46.5249793085       36.9417093964        6.0968456237  MEMB      178             0.0000000000
     22169       178  OYPE      H11R           46.6293274558       35.8701790788        6.3080633357  MEMB      178             0.0000000000
     22170       178  OYPE      H11S           47.2671625010       37.2657415909        5.3411533377  MEMB      178             0.0000000000
     22171       178  OYPE      C212           45.1491192311       36.9778411700        5.4771724797  MEMB      178             0.0000000000
     22172       178  OYPE      H12R           44.7221991250       38.0191123432        5.4262377810  MEMB      178             0.0000000000
     22173       178  OYPE      H12S           44.4796387524       36.3647625312        6.1130666769  MEMB      178             0.0000000000
     22174       178  OYPE      C213           45.1934425069       36.2315901667        4.1376936247  MEMB      178             0.0000000000
     22175       178  OYPE      H13R           44.0555525280       36.2519487200        3.8483094021  MEMB      178             0.0000000000
     22176       178  OYPE      H13S           45.5276877094       35.2168079527        4.1056379745  MEMB      178             0.0000000000
     22177       178  OYPE      C214           46.2428384427       36.8776804140        3.0942245643  MEMB      178             0.0000000000
     22178       178  OYPE      H14R           47.1516934440       37.3509082101        3.2506489271  MEMB      178             0.0000000000
     22179       178  OYPE      H14S           46.2901532393       38.0281734523        3.0953610668  MEMB      178             0.0000000000
     22180       178  OYPE      C215           45.9490562224       36.2725631658        1.8194421879  MEMB      178             0.0000000000
     22181       178  OYPE      H15R           46.4644127262       36.8795980260        0.9242958997  MEMB      178             0.0000000000
     22182       178  OYPE      H15S           44.7648666962       36.0577159663        1.6851916575  MEMB      178             0.0000000000
     22183       178  OYPE      C216           46.6070419335       35.1908279460        1.7334886838  MEMB      178             0.0000000000
     22184       178  OYPE      H16R           46.0117288951       34.3762141662        2.1294301551  MEMB      178             0.0000000000
     22185       178  OYPE      H16S           47.5901484692       35.4220997816        2.0761054597  MEMB      178             0.0000000000
     22186       178  OYPE      H16T           46.6242329767       35.1562699908        0.6695301139  MEMB      178             0.0000000000
     22187       178  OYPE      C33            51.0195709696       38.7803708686        9.9364711378  MEMB      178             0.0000000000
     22188       178  OYPE      H3X            50.5639346413       39.5105691105        9.1927922242  MEMB      178             0.0000000000
     22189       178  OYPE      H3Y            50.2207128036       38.0811866406       10.0776429708  MEMB      178             0.0000000000
     22190       178  OYPE      C34            52.2119211886       38.1625912733        9.2008763216  MEMB      178             0.0000000000
     22191       178  OYPE      H4X            51.8210888037       37.7608010577        8.2439305230  MEMB      178             0.0000000000
     22192       178  OYPE      H4Y            52.9904715649       38.9008455277        8.8797458487  MEMB      178             0.0000000000
     22193       178  OYPE      C35            52.8656505741       37.0510041919       10.0210464484  MEMB      178             0.0000000000
     22194       178  OYPE      H5X            53.2415575376       37.3846224551       11.0139343463  MEMB      178             0.0000000000
     22195       178  OYPE      H5Y            53.7507140555       36.7468428203        9.4382749398  MEMB      178             0.0000000000
     22196       178  OYPE      C36            52.0697802577       35.7466965578       10.1687549846  MEMB      178             0.0000000000
     22197       178  OYPE      H6X            52.7921803285       34.9750231576       10.5092941709  MEMB      178             0.0000000000
     22198       178  OYPE      H6Y            51.2819832085       35.8433715229       10.9471338161  MEMB      178             0.0000000000
     22199       178  OYPE      C37            51.5253475827       35.2188084025        8.8394477030  MEMB      178             0.0000000000
     22200       178  OYPE      H7X            50.6032588531       35.8108370578        8.6422043344  MEMB      178             0.0000000000
     22201       178  OYPE      H7Y            52.2573343369       35.4588685402        8.0482794939  MEMB      178             0.0000000000
     22202       178  OYPE      C38            51.2747103349       33.6946555670        8.8524387318  MEMB      178             0.0000000000
     22203       178  OYPE      H8X            52.0727680945       33.0436791680        9.1530141342  MEMB      178             0.0000000000
     22204       178  OYPE      H8Y            50.6208509825       33.6179391058        9.6825183626  MEMB      178             0.0000000000
     22205       178  OYPE      C39            50.9893576902       32.8753215099        7.6235013083  MEMB      178             0.0000000000
     22206       178  OYPE      H9X            50.2386887173       32.0501216913        7.9522603918  MEMB      178             0.0000000000
     22207       178  OYPE      C310           50.8264956175       33.4002347269        6.3459472685  MEMB      178             0.0000000000
     22208       178  OYPE      H10X           50.1232479848       32.8770414874        5.6435645560  MEMB      178             0.0000000000
     22209       178  OYPE      C311           50.8060941462       34.8383638707        5.8210569270  MEMB      178             0.0000000000
     22210       178  OYPE      H11X           50.1576455511       35.6118255910        6.3930005383  MEMB      178             0.0000000000
     22211       178  OYPE      H11Y           51.8165421318       34.9927578963        5.7340941016  MEMB      178             0.0000000000
     22212       178  OYPE      C312           50.1404273177       35.0199085709        4.4344127403  MEMB      178             0.0000000000
     22213       178  OYPE      H12X           49.1302494883       34.7332612967        4.3159856202  MEMB      178             0.0000000000
     22214       178  OYPE      H12Y           50.6970368124       34.4032199904        3.7248482949  MEMB      178             0.0000000000
     22215       178  OYPE      C313           50.2143818178       36.2567502456        3.7371165738  MEMB      178             0.0000000000
     22216       178  OYPE      H13X           49.5793998940       36.2810437063        2.8151592938  MEMB      178             0.0000000000
     22217       178  OYPE      H13Y           49.8881044254       37.0079273472        4.4603858293  MEMB      178             0.0000000000
     22218       178  OYPE      C314           51.6818103927       36.3183151507        3.4580699240  MEMB      178             0.0000000000
     22219       178  OYPE      H14X           52.0114656213       35.4681652429        2.8148243034  MEMB      178             0.0000000000
     22220       178  OYPE      H14Y           52.2606469599       36.2092334455        4.3933796224  MEMB      178             0.0000000000
     22221       178  OYPE      C315           51.9904165007       37.6944639677        3.0589614509  MEMB      178             0.0000000000
     22222       178  OYPE      H15X           53.0651964362       37.7071344778        2.8448280016  MEMB      178             0.0000000000
     22223       178  OYPE      H15Y           51.8752333765       38.3337074894        3.9647720712  MEMB      178             0.0000000000
     22224       178  OYPE      C316           51.0285535827       38.1860910849        2.0291028373  MEMB      178             0.0000000000
     22225       178  OYPE      H16X           50.0589195700       38.5159801946        2.4451548274  MEMB      178             0.0000000000
     22226       178  OYPE      H16Y           50.8646794849       37.5446437092        1.1264554972  MEMB      178             0.0000000000
     22227       178  OYPE      C317           51.6650969734       39.4015947434        1.6523334155  MEMB      178             0.0000000000
     22228       178  OYPE      H17X           51.4115032304       40.3742012875        2.1025533286  MEMB      178             0.0000000000
     22229       178  OYPE      H17Y           50.8890582105       39.6546176719        0.9277941313  MEMB      178             0.0000000000
     22230       178  OYPE      C318           53.2431148194       39.1736252700        1.2806598600  MEMB      178             0.0000000000
     22231       178  OYPE      H18X           53.8577449691       40.1744977206        0.9623762857  MEMB      178             0.0000000000
     22232       178  OYPE      H18Y           54.0017308308       39.4029712768        1.9048265092  MEMB      178             0.0000000000
     22233       178  OYPE      H18Z           53.2960759947       38.4431682266        0.3801869803  MEMB      178             0.0000000000
     22234       179  QMPE      N             -35.8167186328      -52.3917504926       21.3541994474  MEMB      179             0.0000000000
     22235       179  QMPE      HN1           -35.6692345953      -52.5457633508       22.3713492160  MEMB      179             0.0000000000
     22236       179  QMPE      HN2           -36.5442868123      -51.6583787513       21.2470275645  MEMB      179             0.0000000000
     22237       179  QMPE      HN3           -36.1599403056      -53.2573617003       20.8969319741  MEMB      179             0.0000000000
     22238       179  QMPE      C12           -34.5085442061      -51.9663329856       20.7018178632  MEMB      179             0.0000000000
     22239       179  QMPE      H12A          -33.7195102125      -52.6675604815       21.0443908846  MEMB      179             0.0000000000
     22240       179  QMPE      H12B          -34.3465038244      -50.9366251053       21.0616891557  MEMB      179             0.0000000000
     22241       179  QMPE      C11           -34.4766897734      -51.9414174156       19.1649027276  MEMB      179             0.0000000000
     22242       179  QMPE      H11A          -33.4219752077      -51.7490491487       18.8201160431  MEMB      179             0.0000000000
     22243       179  QMPE      H11B          -35.0589621486      -51.0785848374       18.7844501183  MEMB      179             0.0000000000
     22244       179  QMPE      P             -34.0453975381      -54.3039617927       18.1825290044  MEMB      179             0.0000000000
     22245       179  QMPE      O13           -34.7955697779      -55.5580732604       18.3128644141  MEMB      179             0.0000000000
     22246       179  QMPE      O14           -32.7787133275      -54.1424490328       18.9292950060  MEMB      179             0.0000000000
     22247       179  QMPE      O11           -33.9014883449      -53.8488971433       16.6849334374  MEMB      179             0.0000000000
     22248       179  QMPE      O12           -35.0305471992      -53.1558989808       18.6752034054  MEMB      179             0.0000000000
     22249       179  QMPE      C1            -35.0295732399      -53.4689842396       15.8814435656  MEMB      179             0.0000000000
     22250       179  QMPE      HA            -35.1454927547      -52.3624093300       15.8533012170  MEMB      179             0.0000000000
     22251       179  QMPE      HB            -35.9739917139      -53.9762881277       16.2253581174  MEMB      179             0.0000000000
     22252       179  QMPE      C2            -34.8293717877      -53.8212982734       14.3866321653  MEMB      179             0.0000000000
     22253       179  QMPE      HS            -35.8498521735      -53.8495824294       13.9347079289  MEMB      179             0.0000000000
     22254       179  QMPE      O21           -34.0417674932      -55.0266249004       14.3110989274  MEMB      179             0.0000000000
     22255       179  QMPE      C21           -34.5445061033      -56.0966615837       13.7742810621  MEMB      179             0.0000000000
     22256       179  QMPE      O22           -35.7188176601      -56.2964705397       13.5201770077  MEMB      179             0.0000000000
     22257       179  QMPE      C22           -33.3656229329      -56.9536655471       13.2673440953  MEMB      179             0.0000000000
     22258       179  QMPE      H2R           -33.7778005424      -57.9213658975       12.9235264960  MEMB      179             0.0000000000
     22259       179  QMPE      H2S           -32.6968317585      -57.2558384467       14.0896239621  MEMB      179             0.0000000000
     22260       179  QMPE      C3            -34.1258805055      -52.6809691300       13.5646285424  MEMB      179             0.0000000000
     22261       179  QMPE      HX            -33.2340995009      -52.3196097048       14.1061814607  MEMB      179             0.0000000000
     22262       179  QMPE      HY            -34.7383587885      -51.7613272465       13.5290077211  MEMB      179             0.0000000000
     22263       179  QMPE      O31           -33.7160262792      -53.0826617116       12.2397350570  MEMB      179             0.0000000000
     22264       179  QMPE      C31           -34.6341345118      -53.2470367113       11.3034638774  MEMB      179             0.0000000000
     22265       179  QMPE      O32           -35.8372864124      -53.1257838283       11.4330559120  MEMB      179             0.0000000000
     22266       179  QMPE      C32           -33.8933055096      -53.5712380244        9.9972302793  MEMB      179             0.0000000000
     22267       179  QMPE      H2X           -32.8632892228      -53.1612986867       10.0524747355  MEMB      179             0.0000000000
     22268       179  QMPE      H2Y           -33.9314422759      -54.6692035390        9.8381352042  MEMB      179             0.0000000000
     22269       179  QMPE      C23           -32.5470987307      -56.1976084013       12.1776985560  MEMB      179             0.0000000000
     22270       179  QMPE      H3R           -32.1442415562      -55.2039728186       12.4605325964  MEMB      179             0.0000000000
     22271       179  QMPE      H3S           -33.1465835207      -56.1330929136       11.2512427711  MEMB      179             0.0000000000
     22272       179  QMPE      C24           -31.3076079110      -56.9108850097       11.8426749833  MEMB      179             0.0000000000
     22273       179  QMPE      H4R           -31.7506141521      -57.9367927280       11.7020711823  MEMB      179             0.0000000000
     22274       179  QMPE      H4S           -30.6368496585      -56.9490862231       12.7202327115  MEMB      179             0.0000000000
     22275       179  QMPE      C25           -30.5128148224      -56.3012578514       10.6439701436  MEMB      179             0.0000000000
     22276       179  QMPE      H5R           -29.4399897601      -56.6330014627       10.6040102591  MEMB      179             0.0000000000
     22277       179  QMPE      H5S           -30.5278560705      -55.2250931853       10.7770764919  MEMB      179             0.0000000000
     22278       179  QMPE      C26           -31.1615960142      -56.5056650272        9.2883101294  MEMB      179             0.0000000000
     22279       179  QMPE      H6R           -30.5238018211      -55.9974178365        8.5355603745  MEMB      179             0.0000000000
     22280       179  QMPE      H6S           -32.1464318045      -56.0627333455        9.2949862591  MEMB      179             0.0000000000
     22281       179  QMPE      C27           -31.5094788167      -57.8853427053        8.8917570105  MEMB      179             0.0000000000
     22282       179  QMPE      H7R           -31.7382954861      -58.6997308091        9.6125511282  MEMB      179             0.0000000000
     22283       179  QMPE      H7S           -30.7175423968      -58.3863096862        8.5537234071  MEMB      179             0.0000000000
     22284       179  QMPE      C28           -31.8868652609      -58.1161716598        7.5004149227  MEMB      179             0.0000000000
     22285       179  QMPE      H8R           -31.7251056606      -59.2596577210        7.5088625966  MEMB      179             0.0000000000
     22286       179  QMPE      H8S           -31.5876697378      -57.8490531581        6.5591351094  MEMB      179             0.0000000000
     22287       179  QMPE      C29           -33.4155861007      -57.4409686108        7.3721074309  MEMB      179             0.0000000000
     22288       179  QMPE      H9R           -33.3921630053      -56.4996552134        7.8561515558  MEMB      179             0.0000000000
     22289       179  QMPE      C217          -35.5138473138      -58.3380333202        7.9042819908  MEMB      179             0.0000000000
     22290       179  QMPE      H17R          -35.5848754588      -59.7834592408        8.1904075488  MEMB      179             0.0000000000
     22291       179  QMPE      H17S          -35.7756339393      -58.3438112002        8.8487635508  MEMB      179             0.0000000000
     22292       179  QMPE      C210          -34.1013210081      -57.9848207785        6.6983895604  MEMB      179             0.0000000000
     22293       179  QMPE      H10R          -34.7405999127      -57.2571646610        6.9370999730  MEMB      179             0.0000000000
     22294       179  QMPE      C211          -33.6159178830      -58.8436958788        5.3187990114  MEMB      179             0.0000000000
     22295       179  QMPE      H11R          -33.2141760894      -59.7635407773        5.6739202039  MEMB      179             0.0000000000
     22296       179  QMPE      H11S          -34.4354664889      -59.5682573620        4.5699603089  MEMB      179             0.0000000000
     22297       179  QMPE      C212          -33.3038543463      -58.0040862455        4.3044847273  MEMB      179             0.0000000000
     22298       179  QMPE      H12R          -32.4153275193      -57.6257400779        4.7367564804  MEMB      179             0.0000000000
     22299       179  QMPE      H12S          -33.9218306480      -57.3024910893        3.7219522251  MEMB      179             0.0000000000
     22300       179  QMPE      C213          -33.1983427893      -58.6580113024        3.3175969186  MEMB      179             0.0000000000
     22301       179  QMPE      H13R          -33.7345703181      -59.3777641706        2.6213467087  MEMB      179             0.0000000000
     22302       179  QMPE      H13S          -32.9329218697      -59.6527062789        3.7979032265  MEMB      179             0.0000000000
     22303       179  QMPE      C214          -31.8105135307      -57.6629075046        2.7987944817  MEMB      179             0.0000000000
     22304       179  QMPE      H14R          -32.0709197384      -56.6595200473        2.6430307829  MEMB      179             0.0000000000
     22305       179  QMPE      H14S          -32.0755945692      -58.3729833347        1.8513334862  MEMB      179             0.0000000000
     22306       179  QMPE      C215          -30.1754218933      -57.8729038079        3.2021796037  MEMB      179             0.0000000000
     22307       179  QMPE      H15R          -30.2856470473      -58.1391940970        4.1483514108  MEMB      179             0.0000000000
     22308       179  QMPE      H15S          -29.3540559015      -57.2397288870        3.0649721612  MEMB      179             0.0000000000
     22309       179  QMPE      C216          -29.0664348073      -59.0113803032        2.3972502302  MEMB      179             0.0000000000
     22310       179  QMPE      H16R          -29.1215597583      -59.5312909722        1.3766324560  MEMB      179             0.0000000000
     22311       179  QMPE      H16S          -29.2663175387      -60.1456856277        2.3645589641  MEMB      179             0.0000000000
     22312       179  QMPE      H16T          -28.3971378557      -59.1088720359        2.9301084461  MEMB      179             0.0000000000
     22313       179  QMPE      C33           -34.4239777371      -52.8782459987        8.7378681515  MEMB      179             0.0000000000
     22314       179  QMPE      H3X           -34.0960407276      -51.8078466105        8.7409089193  MEMB      179             0.0000000000
     22315       179  QMPE      H3Y           -35.5325330910      -52.9559652818        8.7616000420  MEMB      179             0.0000000000
     22316       179  QMPE      C34           -33.9339142462      -53.5369193439        7.4441885930  MEMB      179             0.0000000000
     22317       179  QMPE      H4X           -34.3490311866      -54.5608293626        7.3425027271  MEMB      179             0.0000000000
     22318       179  QMPE      H4Y           -32.8259846532      -53.6845082331        7.3991010383  MEMB      179             0.0000000000
     22319       179  QMPE      C35           -34.5051644500      -52.8311915665        6.2126302460  MEMB      179             0.0000000000
     22320       179  QMPE      H5X           -34.1730910790      -51.7768292579        6.1843392199  MEMB      179             0.0000000000
     22321       179  QMPE      H5Y           -35.6165584853      -52.7476077873        6.2890962940  MEMB      179             0.0000000000
     22322       179  QMPE      C36           -34.0824227543      -53.6796382784        5.0057047647  MEMB      179             0.0000000000
     22323       179  QMPE      H6X           -34.4342469694      -54.7248353739        5.1732416398  MEMB      179             0.0000000000
     22324       179  QMPE      H6Y           -33.0026785419      -53.6885404442        4.8626257523  MEMB      179             0.0000000000
     22325       179  QMPE      C37           -34.6111536216      -53.2609848442        3.6721248925  MEMB      179             0.0000000000
     22326       179  QMPE      H7X           -35.4145028669      -53.9683397375        3.7757131520  MEMB      179             0.0000000000
     22327       179  QMPE      H7Y           -34.8229740133      -52.1709560366        3.6992014400  MEMB      179             0.0000000000
     22328       179  QMPE      C38           -34.1944620123      -53.8996979668        2.3561010305  MEMB      179             0.0000000000
     22329       179  QMPE      H8X           -34.6254812213      -54.9140761486        2.3283860889  MEMB      179             0.0000000000
     22330       179  QMPE      H8Y           -34.6403569534      -53.3460254030        1.5012961306  MEMB      179             0.0000000000
     22331       179  QMPE      C39           -32.7291743561      -53.8711835991        2.2373517434  MEMB      179             0.0000000000
     22332       179  QMPE      H9X           -32.3193446911      -54.2098347972        1.2578490997  MEMB      179             0.0000000000
     22333       179  QMPE      H9Y           -32.2191965806      -54.5012332310        2.9864613462  MEMB      179             0.0000000000
     22334       179  QMPE      C310          -32.4874699971      -52.4528940583        2.5345385128  MEMB      179             0.0000000000
     22335       179  QMPE      H10X          -31.5367785742      -52.6636246509        3.1287315260  MEMB      179             0.0000000000
     22336       179  QMPE      H10Y          -32.6584733083      -51.8369479203        3.4003208115  MEMB      179             0.0000000000
     22337       179  QMPE      C311          -32.6364707594      -51.6159448080        1.2018115916  MEMB      179             0.0000000000
     22338       179  QMPE      H11X          -32.1229555735      -51.8980211969        0.2199003331  MEMB      179             0.0000000000
     22339       179  QMPE      H11Y          -32.0961931334      -50.8132202439        1.7349062157  MEMB      179             0.0000000000
     22340       179  QMPE      C312          -33.6482673129      -50.5738997861        1.0079453312  MEMB      179             0.0000000000
     22341       179  QMPE      H12X          -33.4169824814      -49.7026625140        1.7016911744  MEMB      179             0.0000000000
     22342       179  QMPE      H12Y          -34.4966800975      -51.1365015879        1.3733884219  MEMB      179             0.0000000000
     22343       179  QMPE      C313          -33.7805905755      -50.0315823197       -0.4181977930  MEMB      179             0.0000000000
     22344       179  QMPE      H13X          -34.6163695555      -49.3017393763       -0.3158492348  MEMB      179             0.0000000000
     22345       179  QMPE      H13Y          -32.8148802814      -49.5015612354       -0.5998619994  MEMB      179             0.0000000000
     22346       179  QMPE      C314          -34.0767062933      -50.9867270720       -1.6083468103  MEMB      179             0.0000000000
     22347       179  QMPE      H14X          -34.9209302939      -51.6768513243       -1.4115617681  MEMB      179             0.0000000000
     22348       179  QMPE      H14Y          -33.2349771863      -51.6652483972       -1.8177702442  MEMB      179             0.0000000000
     22349       179  QMPE      C315          -34.3710106093      -50.2638402390       -2.9284473339  MEMB      179             0.0000000000
     22350       179  QMPE      H15X          -35.0607973026      -49.4230641509       -2.7011274163  MEMB      179             0.0000000000
     22351       179  QMPE      H15Y          -33.4385027294      -49.9031629700       -3.4290414171  MEMB      179             0.0000000000
     22352       179  QMPE      H15Z          -34.8719314023      -50.9734340816       -3.6208163296  MEMB      179             0.0000000000
     22353       180  PMPE      N              53.2054805388       29.4508137795       16.9748131364  MEMB      180             0.0000000000
     22354       180  PMPE      HN1            52.3909146853       29.2482179798       17.5953582380  MEMB      180             0.0000000000
     22355       180  PMPE      HN2            52.8831815474       29.5103182012       15.9888739515  MEMB      180             0.0000000000
     22356       180  PMPE      HN3            53.9109215750       28.6930196100       17.0722336097  MEMB      180             0.0000000000
     22357       180  PMPE      C12            53.8777766619       30.6940763655       17.4898897117  MEMB      180             0.0000000000
     22358       180  PMPE      H12A           53.1225740820       31.5009073604       17.5973827250  MEMB      180             0.0000000000
     22359       180  PMPE      H12B           54.6882148433       30.9551668425       16.7729227898  MEMB      180             0.0000000000
     22360       180  PMPE      C11            54.5554957249       30.4188833563       18.8301130191  MEMB      180             0.0000000000
     22361       180  PMPE      H11A           53.8623996368       29.8891929395       19.5290595012  MEMB      180             0.0000000000
     22362       180  PMPE      H11B           54.9109267708       31.4033727605       19.2254128035  MEMB      180             0.0000000000
     22363       180  PMPE      P              56.7466104077       29.4437558842       19.7373562671  MEMB      180             0.0000000000
     22364       180  PMPE      O13            56.2656895161       29.7228112013       21.1127398077  MEMB      180             0.0000000000
     22365       180  PMPE      O14            57.9875659565       30.1380679057       19.3716231120  MEMB      180             0.0000000000
     22366       180  PMPE      O11            56.9027897861       27.8992817887       19.6833382044  MEMB      180             0.0000000000
     22367       180  PMPE      O12            55.6677346851       29.6041820892       18.6004675807  MEMB      180             0.0000000000
     22368       180  PMPE      C1             56.8717035507       27.0373370090       18.5852401960  MEMB      180             0.0000000000
     22369       180  PMPE      HA             55.9575181699       27.1969134580       17.9917453589  MEMB      180             0.0000000000
     22370       180  PMPE      HB             56.8981284058       25.9839144054       18.9589302643  MEMB      180             0.0000000000
     22371       180  PMPE      C2             58.0643757566       27.2770661439       17.6487127248  MEMB      180             0.0000000000
     22372       180  PMPE      HS             58.9716824250       27.1278378528       18.2851428959  MEMB      180             0.0000000000
     22373       180  PMPE      O21            57.9162521136       28.5686475300       17.0150897155  MEMB      180             0.0000000000
     22374       180  PMPE      C21            59.0383644076       29.1848067499       16.7007500713  MEMB      180             0.0000000000
     22375       180  PMPE      O22            60.1605431878       28.7346471005       16.8353872660  MEMB      180             0.0000000000
     22376       180  PMPE      C22            58.7542800109       30.5643712097       16.0981495124  MEMB      180             0.0000000000
     22377       180  PMPE      H2R            59.1533204805       31.2961368753       16.8443190199  MEMB      180             0.0000000000
     22378       180  PMPE      H2S            57.6975659527       30.8140420431       15.9276441084  MEMB      180             0.0000000000
     22379       180  PMPE      C3             58.1118178527       26.2498793849       16.5296023237  MEMB      180             0.0000000000
     22380       180  PMPE      HX             58.3583426256       25.2720067664       16.9410061638  MEMB      180             0.0000000000
     22381       180  PMPE      HY             58.9340354772       26.5731008861       15.8547863891  MEMB      180             0.0000000000
     22382       180  PMPE      O31            56.8730788399       26.2210588989       15.8270499099  MEMB      180             0.0000000000
     22383       180  PMPE      C31            56.0709224185       25.2762871554       16.1374017325  MEMB      180             0.0000000000
     22384       180  PMPE      O32            56.2375270469       24.3881409227       16.9791846349  MEMB      180             0.0000000000
     22385       180  PMPE      C32            54.9598533970       25.5389410695       15.1473436374  MEMB      180             0.0000000000
     22386       180  PMPE      H2X            54.1301480654       24.8680822577       15.1697561702  MEMB      180             0.0000000000
     22387       180  PMPE      H2Y            55.2046178374       25.5342537977       14.0673632938  MEMB      180             0.0000000000
     22388       180  PMPE      C23            59.4400758004       30.6824949625       14.7260150777  MEMB      180             0.0000000000
     22389       180  PMPE      H3R            60.4687871916       30.2414497591       14.7603173564  MEMB      180             0.0000000000
     22390       180  PMPE      H3S            59.4840690559       31.7792490847       14.5451635579  MEMB      180             0.0000000000
     22391       180  PMPE      C24            58.7449309523       29.9877502850       13.5389660566  MEMB      180             0.0000000000
     22392       180  PMPE      H4R            58.5533018410       28.9073367695       13.7565909743  MEMB      180             0.0000000000
     22393       180  PMPE      H4S            59.5065769851       30.0546159086       12.7274353600  MEMB      180             0.0000000000
     22394       180  PMPE      C25            57.4120620633       30.5908463869       13.0792258726  MEMB      180             0.0000000000
     22395       180  PMPE      H5R            57.5277195661       31.5820510941       12.5990781861  MEMB      180             0.0000000000
     22396       180  PMPE      H5S            56.7490197391       30.7599035673       13.9545895420  MEMB      180             0.0000000000
     22397       180  PMPE      C26            56.6964632276       29.6230858716       12.1338647288  MEMB      180             0.0000000000
     22398       180  PMPE      H6R            55.6283643214       29.9501348877       12.0775863852  MEMB      180             0.0000000000
     22399       180  PMPE      H6S            56.7898751938       28.5955618757       12.5593898002  MEMB      180             0.0000000000
     22400       180  PMPE      C27            57.2859660045       29.5583735178       10.7260187377  MEMB      180             0.0000000000
     22401       180  PMPE      H7R            56.6884160918       28.8288448867       10.1258439545  MEMB      180             0.0000000000
     22402       180  PMPE      H7S            58.3801299692       29.3153166803       10.7069678535  MEMB      180             0.0000000000
     22403       180  PMPE      C28            57.0334001690       30.8171890960        9.9159971640  MEMB      180             0.0000000000
     22404       180  PMPE      H8R            57.6697022965       31.6329581738       10.3045720879  MEMB      180             0.0000000000
     22405       180  PMPE      H8S            55.9772154305       31.1228874887       10.0512287256  MEMB      180             0.0000000000
     22406       180  PMPE      C29            57.2495537599       30.3930832995        8.4563804956  MEMB      180             0.0000000000
     22407       180  PMPE      H9R            57.1722329277       29.3204840943        8.2031971806  MEMB      180             0.0000000000
     22408       180  PMPE      C217           58.5614874215       30.8113187495        8.0676610517  MEMB      180             0.0000000000
     22409       180  PMPE      H17R           59.1503800793       29.9407908645        7.6784589711  MEMB      180             0.0000000000
     22410       180  PMPE      H17S           58.9776021982       31.6577329243        8.6692023146  MEMB      180             0.0000000000
     22411       180  PMPE      C210           57.5144349093       31.3143078056        7.2613713545  MEMB      180             0.0000000000
     22412       180  PMPE      H10R           57.6424348602       30.8647059016        6.2704178742  MEMB      180             0.0000000000
     22413       180  PMPE      C211           57.4456134901       32.8184043777        7.4532606438  MEMB      180             0.0000000000
     22414       180  PMPE      H11R           58.0883541900       33.1794450548        8.2862387866  MEMB      180             0.0000000000
     22415       180  PMPE      H11S           56.4130859573       32.9671134223        7.7849370902  MEMB      180             0.0000000000
     22416       180  PMPE      C212           57.7955232026       33.7251619564        6.2594753578  MEMB      180             0.0000000000
     22417       180  PMPE      H12R           58.8495716234       33.5725657397        5.9952596337  MEMB      180             0.0000000000
     22418       180  PMPE      H12S           57.7152275668       34.7383580633        6.7185518494  MEMB      180             0.0000000000
     22419       180  PMPE      C213           56.8172700505       33.6946704030        5.0831759226  MEMB      180             0.0000000000
     22420       180  PMPE      H13R           55.9058143493       34.0828788314        5.6018949935  MEMB      180             0.0000000000
     22421       180  PMPE      H13S           56.5954271518       32.6666859102        4.7283228462  MEMB      180             0.0000000000
     22422       180  PMPE      C214           57.2108164783       34.5680150192        3.8693851154  MEMB      180             0.0000000000
     22423       180  PMPE      H14R           58.0058691156       34.1453573184        3.2100886137  MEMB      180             0.0000000000
     22424       180  PMPE      H14S           57.5554210313       35.5435661550        4.2334181285  MEMB      180             0.0000000000
     22425       180  PMPE      C215           56.0542514945       34.9539301700        2.9801180070  MEMB      180             0.0000000000
     22426       180  PMPE      H15R           55.1961420331       35.3442143132        3.5304511707  MEMB      180             0.0000000000
     22427       180  PMPE      H15S           55.6648559525       34.0304816628        2.6975854028  MEMB      180             0.0000000000
     22428       180  PMPE      C216           56.4336961585       35.7986547151        1.7738781615  MEMB      180             0.0000000000
     22429       180  PMPE      H16R           56.5055001626       35.2641076789        0.8239096781  MEMB      180             0.0000000000
     22430       180  PMPE      H16S           55.6995896728       36.6158662575        1.6665602141  MEMB      180             0.0000000000
     22431       180  PMPE      H16T           57.4572713584       36.1588618131        1.9426070312  MEMB      180             0.0000000000
     22432       180  PMPE      C33            54.0375502910       26.3943354128       15.7776090943  MEMB      180             0.0000000000
     22433       180  PMPE      H3X            54.4707662577       27.3504707153       15.8649639727  MEMB      180             0.0000000000
     22434       180  PMPE      H3Y            53.4136208608       25.9770804085       16.6166450249  MEMB      180             0.0000000000
     22435       180  PMPE      C34            53.0514572884       26.6149990161       14.8615269856  MEMB      180             0.0000000000
     22436       180  PMPE      H4X            52.3499037100       27.2630346785       15.4352388720  MEMB      180             0.0000000000
     22437       180  PMPE      H4Y            52.6310870028       25.5602465232       14.7830039897  MEMB      180             0.0000000000
     22438       180  PMPE      C35            53.4672497006       27.2607745783       13.6074273469  MEMB      180             0.0000000000
     22439       180  PMPE      H5X            54.0345601360       26.5772534598       13.0484158571  MEMB      180             0.0000000000
     22440       180  PMPE      H5Y            53.8719254488       28.2326229685       13.7838363123  MEMB      180             0.0000000000
     22441       180  PMPE      C36            52.6823781613       28.2302762823       12.8673433538  MEMB      180             0.0000000000
     22442       180  PMPE      H6X            51.6966638942       28.1070677798       13.3435010946  MEMB      180             0.0000000000
     22443       180  PMPE      H6Y            52.6025110374       27.3436039721       12.3303657955  MEMB      180             0.0000000000
     22444       180  PMPE      C37            53.0008790283       28.8257809586       11.3448474336  MEMB      180             0.0000000000
     22445       180  PMPE      H7X            52.9936515199       29.7639600944       11.6469741635  MEMB      180             0.0000000000
     22446       180  PMPE      H7Y            52.2502173844       29.1930377995       10.5273918157  MEMB      180             0.0000000000
     22447       180  PMPE      C38            53.9122635500       28.1179618493       10.4873708844  MEMB      180             0.0000000000
     22448       180  PMPE      H8X            53.5999227861       27.1075136036       10.3846808267  MEMB      180             0.0000000000
     22449       180  PMPE      H8Y            54.6794667659       27.5866125227       10.9252029802  MEMB      180             0.0000000000
     22450       180  PMPE      C39            54.0437491722       28.8176663170        9.1174761698  MEMB      180             0.0000000000
     22451       180  PMPE      H9X            54.7169274008       29.5750208484        9.3625270446  MEMB      180             0.0000000000
     22452       180  PMPE      H9Y            53.0626768599       29.2260910156        8.7255202605  MEMB      180             0.0000000000
     22453       180  PMPE      C310           54.6641264621       27.9170793858        8.0237619168  MEMB      180             0.0000000000
     22454       180  PMPE      H10X           54.2391182573       26.8823175115        7.9258644984  MEMB      180             0.0000000000
     22455       180  PMPE      H10Y           55.6275692435       27.6703742638        8.3803833019  MEMB      180             0.0000000000
     22456       180  PMPE      C311           54.9502850128       28.6204554789        6.7156466535  MEMB      180             0.0000000000
     22457       180  PMPE      H11X           55.1132088563       29.6742543256        6.6411345072  MEMB      180             0.0000000000
     22458       180  PMPE      H11Y           54.1959556260       29.3063579380        6.4931134199  MEMB      180             0.0000000000
     22459       180  PMPE      C312           55.2970497682       27.7242689131        5.4964567226  MEMB      180             0.0000000000
     22460       180  PMPE      H12X           54.5475110342       26.9591254693        5.1480025675  MEMB      180             0.0000000000
     22461       180  PMPE      H12Y           56.1914929376       27.2524879169        5.8594263626  MEMB      180             0.0000000000
     22462       180  PMPE      C313           55.4846949848       28.5078932688        4.2206996382  MEMB      180             0.0000000000
     22463       180  PMPE      H13X           56.1897168555       29.2774316107        4.6175502036  MEMB      180             0.0000000000
     22464       180  PMPE      H13Y           54.5430440710       28.9728414684        3.8172696532  MEMB      180             0.0000000000
     22465       180  PMPE      C314           55.9851353907       27.7618499465        3.0234253857  MEMB      180             0.0000000000
     22466       180  PMPE      H14X           55.2548246333       27.0288221266        2.6168499192  MEMB      180             0.0000000000
     22467       180  PMPE      H14Y           56.8949783586       27.2373039703        3.3266774915  MEMB      180             0.0000000000
     22468       180  PMPE      C315           56.3518040973       28.7118675720        1.9244372011  MEMB      180             0.0000000000
     22469       180  PMPE      H15X           55.3807182777       29.0072102541        1.4505087200  MEMB      180             0.0000000000
     22470       180  PMPE      H15Y           56.9772148093       28.1985724533        1.1758082484  MEMB      180             0.0000000000
     22471       180  PMPE      C316           57.1900885688       29.8504733020        2.4132399744  MEMB      180             0.0000000000
     22472       180  PMPE      H16X           56.7683499889       30.4539894331        3.2894587675  MEMB      180             0.0000000000
     22473       180  PMPE      H16Y           57.2997164507       30.6010935174        1.5521104118  MEMB      180             0.0000000000
     22474       180  PMPE      H16Z           58.0813893600       29.7445830271        2.9046749988  MEMB      180             0.0000000000
     22475       181  QMPE      N              47.5569223318       46.0652776642       17.7802995946  MEMB      181             0.0000000000
     22476       181  QMPE      HN1            46.6282867198       46.0192856723       17.3099861867  MEMB      181             0.0000000000
     22477       181  QMPE      HN2            47.5915885359       47.0307369734       18.1845947768  MEMB      181             0.0000000000
     22478       181  QMPE      HN3            48.2964546443       45.8751938905       17.0711384255  MEMB      181             0.0000000000
     22479       181  QMPE      C12            47.6243021555       44.9740890413       18.8287451953  MEMB      181             0.0000000000
     22480       181  QMPE      H12A           48.5036638826       45.1672977711       19.4713000085  MEMB      181             0.0000000000
     22481       181  QMPE      H12B           47.7352042956       44.0078790029       18.2885255283  MEMB      181             0.0000000000
     22482       181  QMPE      C11            46.3998390898       44.9872557647       19.7481609666  MEMB      181             0.0000000000
     22483       181  QMPE      H11A           46.3173972840       46.0174847353       20.1590397657  MEMB      181             0.0000000000
     22484       181  QMPE      H11B           46.5238634664       44.3120674127       20.6286356513  MEMB      181             0.0000000000
     22485       181  QMPE      P              44.4289752858       43.2882586231       19.1988271042  MEMB      181             0.0000000000
     22486       181  QMPE      O13            43.2609853419       43.5185271677       20.0592480829  MEMB      181             0.0000000000
     22487       181  QMPE      O14            45.4104678697       42.2721527192       19.6172122879  MEMB      181             0.0000000000
     22488       181  QMPE      O11            43.9565441530       42.9480179390       17.7359748503  MEMB      181             0.0000000000
     22489       181  QMPE      O12            45.2225877788       44.6772138247       19.0194586056  MEMB      181             0.0000000000
     22490       181  QMPE      C1             43.3543155008       43.8397446550       16.8260764749  MEMB      181             0.0000000000
     22491       181  QMPE      HA             43.8178370583       44.8392567500       16.9698901057  MEMB      181             0.0000000000
     22492       181  QMPE      HB             42.2527339045       43.8578187634       17.0314156680  MEMB      181             0.0000000000
     22493       181  QMPE      C2             43.6599108835       43.4557180596       15.3447633982  MEMB      181             0.0000000000
     22494       181  QMPE      HS             43.3122944806       42.4233443957       15.1021246548  MEMB      181             0.0000000000
     22495       181  QMPE      O21            45.0763983366       43.5702021082       15.0926630957  MEMB      181             0.0000000000
     22496       181  QMPE      C21            45.7509620631       42.4713252785       15.3981224444  MEMB      181             0.0000000000
     22497       181  QMPE      O22            45.2967223773       41.3959383719       15.7328775532  MEMB      181             0.0000000000
     22498       181  QMPE      C22            47.2292892926       42.7851744803       15.2469908533  MEMB      181             0.0000000000
     22499       181  QMPE      H2R            47.6908321363       42.8347697765       16.2463951857  MEMB      181             0.0000000000
     22500       181  QMPE      H2S            47.3944363493       43.7462478189       14.7351707621  MEMB      181             0.0000000000
     22501       181  QMPE      C3             42.8508788941       44.3729976305       14.3881721182  MEMB      181             0.0000000000
     22502       181  QMPE      HX             43.1732829439       45.4299798345       14.5332446199  MEMB      181             0.0000000000
     22503       181  QMPE      HY             41.7817595280       44.2807157815       14.7004677831  MEMB      181             0.0000000000
     22504       181  QMPE      O31            43.0380824968       43.8949815660       13.0427433043  MEMB      181             0.0000000000
     22505       181  QMPE      C31            43.1278031338       44.7848397826       12.0780000211  MEMB      181             0.0000000000
     22506       181  QMPE      O32            42.8570874008       45.9667582430       12.1724564755  MEMB      181             0.0000000000
     22507       181  QMPE      C32            43.6741167777       44.0822210234       10.8227854399  MEMB      181             0.0000000000
     22508       181  QMPE      H2X            44.7569056061       44.3141279262       10.7771750191  MEMB      181             0.0000000000
     22509       181  QMPE      H2Y            43.5007688671       43.0019789919       10.8450955138  MEMB      181             0.0000000000
     22510       181  QMPE      C23            47.8938576597       41.6982326256       14.4656635852  MEMB      181             0.0000000000
     22511       181  QMPE      H3R            47.4471269878       40.6867907304       14.7536396513  MEMB      181             0.0000000000
     22512       181  QMPE      H3S            48.9870000186       41.8122654766       14.6909495132  MEMB      181             0.0000000000
     22513       181  QMPE      C24            47.7316047414       41.8276664935       12.9747715248  MEMB      181             0.0000000000
     22514       181  QMPE      H4R            46.6686236632       41.7258748124       12.7598815526  MEMB      181             0.0000000000
     22515       181  QMPE      H4S            48.1488856490       40.9447044653       12.6035555317  MEMB      181             0.0000000000
     22516       181  QMPE      C25            48.3417542808       43.0017889629       12.2151482532  MEMB      181             0.0000000000
     22517       181  QMPE      H5R            49.4527034758       42.9605587848       12.2735846659  MEMB      181             0.0000000000
     22518       181  QMPE      H5S            48.0109930993       43.9231961739       12.7187219035  MEMB      181             0.0000000000
     22519       181  QMPE      C26            47.8506756329       43.0622015939       10.7567691509  MEMB      181             0.0000000000
     22520       181  QMPE      H6R            46.7825327565       43.3954624817       10.7187553476  MEMB      181             0.0000000000
     22521       181  QMPE      H6S            47.8440166591       42.0273144893       10.3494005110  MEMB      181             0.0000000000
     22522       181  QMPE      C27            48.7146779110       43.9540786203        9.8690093997  MEMB      181             0.0000000000
     22523       181  QMPE      H7R            49.6809161602       43.4612402569        9.6176533490  MEMB      181             0.0000000000
     22524       181  QMPE      H7S            49.0145648014       44.9067437375       10.3606053679  MEMB      181             0.0000000000
     22525       181  QMPE      C28            47.9703588471       44.1652589782        8.5774437942  MEMB      181             0.0000000000
     22526       181  QMPE      H8R            47.1664616518       44.8947311214        8.5622569706  MEMB      181             0.0000000000
     22527       181  QMPE      H8S            47.7280543901       43.2443041066        8.0259515880  MEMB      181             0.0000000000
     22528       181  QMPE      C29            48.8215743012       44.5376642118        7.6650187411  MEMB      181             0.0000000000
     22529       181  QMPE      H9R            49.5855466934       43.7242257056        7.5207321908  MEMB      181             0.0000000000
     22530       181  QMPE      C217           48.9144185090       45.8729204407        7.6927688507  MEMB      181             0.0000000000
     22531       181  QMPE      H17R           48.8464405728       46.5033412415        8.4495503630  MEMB      181             0.0000000000
     22532       181  QMPE      H17S           49.6983238801       45.4857887662        7.6105401846  MEMB      181             0.0000000000
     22533       181  QMPE      C210           48.2463990550       45.5201194850        6.5454666136  MEMB      181             0.0000000000
     22534       181  QMPE      H10R           48.6929617466       45.6559141802        5.5137631283  MEMB      181             0.0000000000
     22535       181  QMPE      C211           47.3639209990       46.6605885424        6.6789543957  MEMB      181             0.0000000000
     22536       181  QMPE      H11R           46.9683911515       46.6598134759        7.6936437677  MEMB      181             0.0000000000
     22537       181  QMPE      H11S           47.7638998556       47.6857551623        6.5181992353  MEMB      181             0.0000000000
     22538       181  QMPE      C212           46.5270480141       46.1682053236        5.5392614675  MEMB      181             0.0000000000
     22539       181  QMPE      H12R           46.6359610701       45.0538024982        5.4174439064  MEMB      181             0.0000000000
     22540       181  QMPE      H12S           46.8786048541       46.6908879341        4.6261127375  MEMB      181             0.0000000000
     22541       181  QMPE      C213           45.0890646147       46.2878990589        5.8029803203  MEMB      181             0.0000000000
     22542       181  QMPE      H13R           44.8481955561       47.3569076566        5.7414369080  MEMB      181             0.0000000000
     22543       181  QMPE      H13S           44.9276398837       45.9030563604        6.8449981925  MEMB      181             0.0000000000
     22544       181  QMPE      C214           44.1911371520       45.5325636111        4.8511764252  MEMB      181             0.0000000000
     22545       181  QMPE      H14R           43.2007595045       45.3443226903        5.3217320124  MEMB      181             0.0000000000
     22546       181  QMPE      H14S           44.6451653435       44.5399478424        4.6323576231  MEMB      181             0.0000000000
     22547       181  QMPE      C215           44.0509190684       46.3140756651        3.5490554200  MEMB      181             0.0000000000
     22548       181  QMPE      H15R           44.2533652363       47.3949504236        3.6798315510  MEMB      181             0.0000000000
     22549       181  QMPE      H15S           43.0083163373       46.3080864489        3.1706962143  MEMB      181             0.0000000000
     22550       181  QMPE      C216           44.9899199793       45.7556141723        2.5047734825  MEMB      181             0.0000000000
     22551       181  QMPE      H16R           45.9308098260       45.3405280628        2.9352865475  MEMB      181             0.0000000000
     22552       181  QMPE      H16S           45.1787894787       46.5292402810        1.7200560041  MEMB      181             0.0000000000
     22553       181  QMPE      H16T           44.5048950341       44.8816981103        2.0296468396  MEMB      181             0.0000000000
     22554       181  QMPE      C33            42.9815803280       44.5306540619        9.5583063850  MEMB      181             0.0000000000
     22555       181  QMPE      H3X            43.1262722028       45.5789233810        9.7605432970  MEMB      181             0.0000000000
     22556       181  QMPE      H3Y            41.9206100117       44.2730140297        9.5456461327  MEMB      181             0.0000000000
     22557       181  QMPE      C34            43.6006473559       44.0618827610        8.2678187711  MEMB      181             0.0000000000
     22558       181  QMPE      H4X            44.6694641383       44.3488780501        8.2904084991  MEMB      181             0.0000000000
     22559       181  QMPE      H4Y            43.0963952976       44.4941428602        7.3627597894  MEMB      181             0.0000000000
     22560       181  QMPE      C35            43.5228073137       42.5675468975        8.1802439792  MEMB      181             0.0000000000
     22561       181  QMPE      H5X            42.4252377516       42.3229462179        8.3177905723  MEMB      181             0.0000000000
     22562       181  QMPE      H5Y            44.1001264180       42.0336532112        8.9753461855  MEMB      181             0.0000000000
     22563       181  QMPE      C36            44.0689449409       42.1000796672        6.8261902373  MEMB      181             0.0000000000
     22564       181  QMPE      H6X            43.3590327474       42.4120464596        5.9777122397  MEMB      181             0.0000000000
     22565       181  QMPE      H6Y            44.0691827066       40.9702038878        6.9599687613  MEMB      181             0.0000000000
     22566       181  QMPE      C37            45.4223143626       42.2794182612        6.3769399240  MEMB      181             0.0000000000
     22567       181  QMPE      H7X            45.4067138681       43.3520568191        6.2044460190  MEMB      181             0.0000000000
     22568       181  QMPE      H7Y            46.0344256166       42.0788696335        7.2595140265  MEMB      181             0.0000000000
     22569       181  QMPE      C38            45.7819513507       41.3924329840        5.1711408524  MEMB      181             0.0000000000
     22570       181  QMPE      H8X            45.3494862943       40.3610264514        5.2916432540  MEMB      181             0.0000000000
     22571       181  QMPE      H8Y            45.3811884088       41.8553093825        4.2333302959  MEMB      181             0.0000000000
     22572       181  QMPE      C39            47.2938534168       41.1935206674        5.0939685444  MEMB      181             0.0000000000
     22573       181  QMPE      H9X            47.5233834670       40.3647053360        4.3994247299  MEMB      181             0.0000000000
     22574       181  QMPE      H9Y            47.7078928640       40.8367962571        6.0587495085  MEMB      181             0.0000000000
     22575       181  QMPE      C310           48.0969325071       42.4363283787        4.7715448561  MEMB      181             0.0000000000
     22576       181  QMPE      H10X           48.6927804989       42.6444678134        5.6816341965  MEMB      181             0.0000000000
     22577       181  QMPE      H10Y           47.4762783049       43.3179072558        4.4801963527  MEMB      181             0.0000000000
     22578       181  QMPE      C311           49.1173672640       42.1396483951        3.7157190261  MEMB      181             0.0000000000
     22579       181  QMPE      H11X           49.3734293314       41.0987112021        3.5469037348  MEMB      181             0.0000000000
     22580       181  QMPE      H11Y           49.9806444331       42.6379721375        3.8573337936  MEMB      181             0.0000000000
     22581       181  QMPE      C312           48.8151424873       42.7787386258        2.4860288092  MEMB      181             0.0000000000
     22582       181  QMPE      H12X           48.4219994731       43.8057608061        2.4448931530  MEMB      181             0.0000000000
     22583       181  QMPE      H12Y           47.9557713787       42.0776992677        2.4219657516  MEMB      181             0.0000000000
     22584       181  QMPE      C313           49.7512291455       42.7085578169        1.2846300042  MEMB      181             0.0000000000
     22585       181  QMPE      H13X           50.5110269849       43.2488123602        1.4597445961  MEMB      181             0.0000000000
     22586       181  QMPE      H13Y           50.2882020607       41.7725427857        1.2698164379  MEMB      181             0.0000000000
     22587       181  QMPE      C314           49.4314429833       43.4168518770       -0.0781319912  MEMB      181             0.0000000000
     22588       181  QMPE      H14X           50.2347029905       43.5559377540       -0.8315712785  MEMB      181             0.0000000000
     22589       181  QMPE      H14Y           48.6088012001       44.1206763396       -0.1385796596  MEMB      181             0.0000000000
     22590       181  QMPE      C315           48.9353278706       42.6025067191       -0.5964124238  MEMB      181             0.0000000000
     22591       181  QMPE      H15X           49.3353353480       41.5439423146       -0.1265204135  MEMB      181             0.0000000000
     22592       181  QMPE      H15Y           47.9490321063       42.3002020170       -1.1214360639  MEMB      181             0.0000000000
     22593       181  QMPE      H15Z           47.9808788224       42.6340805610       -1.3311453124  MEMB      181             0.0000000000
     22594       182  QMPE      N             -51.0908514040      -36.8702516348       21.8614254490  MEMB      182             0.0000000000
     22595       182  QMPE      HN1           -51.5464303398      -37.4046530038       22.6353577860  MEMB      182             0.0000000000
     22596       182  QMPE      HN2           -50.1913693335      -37.3447593061       21.6191556872  MEMB      182             0.0000000000
     22597       182  QMPE      HN3           -50.8755607799      -35.9214917255       22.2137914285  MEMB      182             0.0000000000
     22598       182  QMPE      C12           -52.1054485923      -36.7238487949       20.7315736383  MEMB      182             0.0000000000
     22599       182  QMPE      H12A          -52.8098855054      -35.9284122678       21.0648755377  MEMB      182             0.0000000000
     22600       182  QMPE      H12B          -52.6537505728      -37.6791681003       20.6914890958  MEMB      182             0.0000000000
     22601       182  QMPE      C11           -51.5654019202      -36.4577547260       19.2965643574  MEMB      182             0.0000000000
     22602       182  QMPE      H11A          -50.9870257864      -35.5055647061       19.2987958594  MEMB      182             0.0000000000
     22603       182  QMPE      H11B          -52.4275123989      -36.3151786092       18.5985909531  MEMB      182             0.0000000000
     22604       182  QMPE      P             -51.1660401650      -38.7930960917       17.9785330982  MEMB      182             0.0000000000
     22605       182  QMPE      O13           -50.8313245734      -39.9458188759       18.8330956514  MEMB      182             0.0000000000
     22606       182  QMPE      O14           -50.6271025777      -38.7327382373       16.6024741577  MEMB      182             0.0000000000
     22607       182  QMPE      O11           -52.7213788773      -38.6373836555       17.9446196100  MEMB      182             0.0000000000
     22608       182  QMPE      O12           -50.7381199190      -37.5114214142       18.8168415200  MEMB      182             0.0000000000
     22609       182  QMPE      C1            -53.5869028175      -39.7836863812       17.9916490931  MEMB      182             0.0000000000
     22610       182  QMPE      HA            -54.4805028927      -39.5103518573       18.5820951752  MEMB      182             0.0000000000
     22611       182  QMPE      HB            -53.1729553254      -40.6692266706       18.5237195126  MEMB      182             0.0000000000
     22612       182  QMPE      C2            -54.0289201285      -40.2266291895       16.5997176865  MEMB      182             0.0000000000
     22613       182  QMPE      HS            -54.6016064264      -41.1940722621       16.6799405375  MEMB      182             0.0000000000
     22614       182  QMPE      O21           -52.9335094640      -40.3593166102       15.7424253744  MEMB      182             0.0000000000
     22615       182  QMPE      C21           -53.1010556405      -40.9087229433       14.5778992847  MEMB      182             0.0000000000
     22616       182  QMPE      O22           -54.1090909980      -41.4698175961       14.1657829642  MEMB      182             0.0000000000
     22617       182  QMPE      C22           -51.8293469347      -40.6233998446       13.8086988636  MEMB      182             0.0000000000
     22618       182  QMPE      H2R           -51.1233649151      -41.4196902124       14.0832084576  MEMB      182             0.0000000000
     22619       182  QMPE      H2S           -51.4356123777      -39.6239208907       14.1017344946  MEMB      182             0.0000000000
     22620       182  QMPE      C3            -54.8986703232      -39.1926154802       16.0014357951  MEMB      182             0.0000000000
     22621       182  QMPE      HX            -55.7644460919      -39.0887511111       16.7309547574  MEMB      182             0.0000000000
     22622       182  QMPE      HY            -55.1730013373      -39.6780436707       15.0119259938  MEMB      182             0.0000000000
     22623       182  QMPE      O31           -54.4307316888      -37.8648618674       15.7852825612  MEMB      182             0.0000000000
     22624       182  QMPE      C31           -53.8620521146      -37.5978944581       14.6170061368  MEMB      182             0.0000000000
     22625       182  QMPE      O32           -53.7044148742      -38.3769161205       13.6942139778  MEMB      182             0.0000000000
     22626       182  QMPE      C32           -53.7167897931      -36.0940553832       14.4984413292  MEMB      182             0.0000000000
     22627       182  QMPE      H2X           -54.6851755475      -35.5936519750       14.7438650153  MEMB      182             0.0000000000
     22628       182  QMPE      H2Y           -52.9024716769      -35.8278076637       15.2000404499  MEMB      182             0.0000000000
     22629       182  QMPE      C23           -52.0012167674      -40.7705287799       12.3099704752  MEMB      182             0.0000000000
     22630       182  QMPE      H3R           -52.5101274245      -39.8963661328       11.8531769315  MEMB      182             0.0000000000
     22631       182  QMPE      H3S           -52.6112918903      -41.6856457135       12.1469898071  MEMB      182             0.0000000000
     22632       182  QMPE      C24           -50.6954188533      -41.0914233352       11.6079158422  MEMB      182             0.0000000000
     22633       182  QMPE      H4R           -50.2531677566      -42.0314943927       12.0142718672  MEMB      182             0.0000000000
     22634       182  QMPE      H4S           -49.9699924954      -40.2696753978       11.7829166417  MEMB      182             0.0000000000
     22635       182  QMPE      C25           -51.0627138975      -41.3934352056       10.1626337737  MEMB      182             0.0000000000
     22636       182  QMPE      H5R           -51.6296390383      -40.5653772007        9.7004621093  MEMB      182             0.0000000000
     22637       182  QMPE      H5S           -51.7790634184      -42.2475050435       10.2039338683  MEMB      182             0.0000000000
     22638       182  QMPE      C26           -49.9077769140      -41.8753353291        9.3011379171  MEMB      182             0.0000000000
     22639       182  QMPE      H6R           -50.3518983226      -42.3035752246        8.3822407994  MEMB      182             0.0000000000
     22640       182  QMPE      H6S           -49.4196505880      -42.6950567319        9.8735230275  MEMB      182             0.0000000000
     22641       182  QMPE      C27           -48.7933404744      -40.8642637437        9.0320959353  MEMB      182             0.0000000000
     22642       182  QMPE      H7R           -47.9967749417      -41.3778027065        8.4591727099  MEMB      182             0.0000000000
     22643       182  QMPE      H7S           -48.3714460893      -40.6902519007       10.0504252139  MEMB      182             0.0000000000
     22644       182  QMPE      C28           -49.2315870708      -39.5750596604        8.3000376876  MEMB      182             0.0000000000
     22645       182  QMPE      H8R           -50.2155153990      -39.2157527476        8.6738546780  MEMB      182             0.0000000000
     22646       182  QMPE      H8S           -49.4051804187      -39.8014436963        7.2253573029  MEMB      182             0.0000000000
     22647       182  QMPE      C29           -48.1590823854      -38.4964413223        8.5072845027  MEMB      182             0.0000000000
     22648       182  QMPE      H9R           -48.1201057571      -38.0031638259        9.4997028625  MEMB      182             0.0000000000
     22649       182  QMPE      C217          -48.1045453153      -37.3532522725        7.4900689881  MEMB      182             0.0000000000
     22650       182  QMPE      H17R          -48.8726571875      -37.4949022941        6.7557613006  MEMB      182             0.0000000000
     22651       182  QMPE      H17S          -47.8679473928      -36.4316444045        8.0206548634  MEMB      182             0.0000000000
     22652       182  QMPE      C210          -47.0007403787      -38.3848467693        7.5492761383  MEMB      182             0.0000000000
     22653       182  QMPE      H10R          -46.1042288218      -37.9943349641        7.9953607651  MEMB      182             0.0000000000
     22654       182  QMPE      C211          -46.8152424258      -39.3108772814        6.3586717031  MEMB      182             0.0000000000
     22655       182  QMPE      H11R          -47.6938239578      -39.9391031431        6.1643806219  MEMB      182             0.0000000000
     22656       182  QMPE      H11S          -46.7747151439      -38.7900928787        5.4052006534  MEMB      182             0.0000000000
     22657       182  QMPE      C212          -45.4389416882      -39.9740305868        6.4768079385  MEMB      182             0.0000000000
     22658       182  QMPE      H12R          -45.3654638331      -40.2049262431        7.5695914839  MEMB      182             0.0000000000
     22659       182  QMPE      H12S          -44.5025394280      -39.5185284140        6.4783504506  MEMB      182             0.0000000000
     22660       182  QMPE      C213          -45.3627611258      -41.1054038247        5.4181721605  MEMB      182             0.0000000000
     22661       182  QMPE      H13R          -46.3945202773      -41.4253546374        5.7156119824  MEMB      182             0.0000000000
     22662       182  QMPE      H13S          -44.7152807298      -42.0757060350        5.4213405135  MEMB      182             0.0000000000
     22663       182  QMPE      C214          -45.3030733521      -40.9628998644        4.0025609849  MEMB      182             0.0000000000
     22664       182  QMPE      H14R          -44.3133802957      -40.6479044241        3.9090508120  MEMB      182             0.0000000000
     22665       182  QMPE      H14S          -46.2280949843      -40.4071160286        4.0086046236  MEMB      182             0.0000000000
     22666       182  QMPE      C215          -44.9813240203      -42.0690435378        3.0581288658  MEMB      182             0.0000000000
     22667       182  QMPE      H15R          -45.9717873158      -42.1258825186        3.1592929197  MEMB      182             0.0000000000
     22668       182  QMPE      H15S          -44.4367494069      -42.8820745416        3.5121857608  MEMB      182             0.0000000000
     22669       182  QMPE      C216          -45.1573007337      -42.1850658091        1.6033882568  MEMB      182             0.0000000000
     22670       182  QMPE      H16R          -45.9698365697      -41.5628590029        1.3408635479  MEMB      182             0.0000000000
     22671       182  QMPE      H16S          -45.5461699939      -43.1759874397        1.2673332774  MEMB      182             0.0000000000
     22672       182  QMPE      H16T          -44.1531578522      -41.9722485950        1.3795021030  MEMB      182             0.0000000000
     22673       182  QMPE      C33           -53.3307989861      -35.6240400981       13.0852760854  MEMB      182             0.0000000000
     22674       182  QMPE      H3X           -53.2840781465      -34.5177628250       13.1711253817  MEMB      182             0.0000000000
     22675       182  QMPE      H3Y           -54.0972869492      -35.8717970254       12.3156294525  MEMB      182             0.0000000000
     22676       182  QMPE      C34           -51.9632435495      -36.1710296306       12.6911600057  MEMB      182             0.0000000000
     22677       182  QMPE      H4X           -51.9544668279      -37.2621603624       12.8818217319  MEMB      182             0.0000000000
     22678       182  QMPE      H4Y           -51.1857082679      -35.7701193752       13.3719140985  MEMB      182             0.0000000000
     22679       182  QMPE      C35           -51.5287423855      -35.7687975687       11.2872404293  MEMB      182             0.0000000000
     22680       182  QMPE      H5X           -50.4973371355      -36.1266800184       11.1185241184  MEMB      182             0.0000000000
     22681       182  QMPE      H5Y           -51.4592475781      -34.6584777145       11.2449518053  MEMB      182             0.0000000000
     22682       182  QMPE      C36           -52.3709570979      -36.2565405251       10.1100791253  MEMB      182             0.0000000000
     22683       182  QMPE      H6X           -51.7778869524      -35.8837984765        9.2539032114  MEMB      182             0.0000000000
     22684       182  QMPE      H6Y           -53.3778436122      -35.8000366743       10.1289496306  MEMB      182             0.0000000000
     22685       182  QMPE      C37           -52.5580695436      -37.7576796793        9.9527008716  MEMB      182             0.0000000000
     22686       182  QMPE      H7X           -51.5570915779      -38.2064315004        9.7944825924  MEMB      182             0.0000000000
     22687       182  QMPE      H7Y           -52.9315950892      -38.0664028961       10.9528212288  MEMB      182             0.0000000000
     22688       182  QMPE      C38           -53.4743943181      -38.1242882616        8.7526691037  MEMB      182             0.0000000000
     22689       182  QMPE      H8X           -53.6298086294      -39.2267729813        8.7661534021  MEMB      182             0.0000000000
     22690       182  QMPE      H8Y           -54.4750423794      -37.6426903530        8.8513889829  MEMB      182             0.0000000000
     22691       182  QMPE      C39           -52.9221664562      -37.6858583014        7.3665955557  MEMB      182             0.0000000000
     22692       182  QMPE      H9X           -51.8753027505      -38.0550609071        7.2501925614  MEMB      182             0.0000000000
     22693       182  QMPE      H9Y           -52.8810211867      -36.5762919696        7.3430850244  MEMB      182             0.0000000000
     22694       182  QMPE      C310          -53.7902521067      -38.1599424828        6.1748471823  MEMB      182             0.0000000000
     22695       182  QMPE      H10X          -54.8189114810      -37.7391962852        6.2102470994  MEMB      182             0.0000000000
     22696       182  QMPE      H10Y          -53.8798054475      -39.2667873812        6.2789609917  MEMB      182             0.0000000000
     22697       182  QMPE      C311          -53.2212567483      -37.8759660050        4.7782639354  MEMB      182             0.0000000000
     22698       182  QMPE      H11X          -53.2980067494      -36.8264504324        4.4120206973  MEMB      182             0.0000000000
     22699       182  QMPE      H11Y          -53.8366839138      -38.4476499344        4.0500524205  MEMB      182             0.0000000000
     22700       182  QMPE      C312          -51.7630021666      -38.2864303207        4.6553838907  MEMB      182             0.0000000000
     22701       182  QMPE      H12X          -51.5947314227      -39.3355764734        4.9825897541  MEMB      182             0.0000000000
     22702       182  QMPE      H12Y          -51.1379241983      -37.6309198100        5.3055935501  MEMB      182             0.0000000000
     22703       182  QMPE      C313          -51.3850124788      -38.1155033509        3.1961582977  MEMB      182             0.0000000000
     22704       182  QMPE      H13X          -51.9528582166      -37.2459514936        2.7867996912  MEMB      182             0.0000000000
     22705       182  QMPE      H13Y          -50.3151768836      -37.8393885182        3.1284169099  MEMB      182             0.0000000000
     22706       182  QMPE      C314          -51.7257228861      -39.3444481560        2.3457365650  MEMB      182             0.0000000000
     22707       182  QMPE      H14X          -51.8855508793      -38.9613762010        1.3176510099  MEMB      182             0.0000000000
     22708       182  QMPE      H14Y          -52.6792557572      -39.8580849217        2.6497878636  MEMB      182             0.0000000000
     22709       182  QMPE      C315          -50.5639137952      -40.3069481382        2.1351512286  MEMB      182             0.0000000000
     22710       182  QMPE      H15X          -50.0780328427      -40.6201648603        3.0799725617  MEMB      182             0.0000000000
     22711       182  QMPE      H15Y          -50.9641428533      -41.1932221570        1.6160321496  MEMB      182             0.0000000000
     22712       182  QMPE      H15Z          -49.8090258127      -39.8839978288        1.4330484829  MEMB      182             0.0000000000
     22713       183  PMPE      N             -58.1012682020      -31.2466031339       21.2597535769  MEMB      183             0.0000000000
     22714       183  PMPE      HN1           -58.8090040106      -30.9185398423       20.5721195083  MEMB      183             0.0000000000
     22715       183  PMPE      HN2           -57.7517362824      -32.1824101271       20.9457749176  MEMB      183             0.0000000000
     22716       183  PMPE      HN3           -58.5703123567      -31.2396639026       22.1863775290  MEMB      183             0.0000000000
     22717       183  PMPE      C12           -56.9305809231      -30.3058635916       21.3919240360  MEMB      183             0.0000000000
     22718       183  PMPE      H12A          -56.1727146911      -30.8320445359       22.0069274190  MEMB      183             0.0000000000
     22719       183  PMPE      H12B          -57.2950539057      -29.4037268321       21.9280708061  MEMB      183             0.0000000000
     22720       183  PMPE      C11           -56.3679118957      -29.8825112956       20.0270203636  MEMB      183             0.0000000000
     22721       183  PMPE      H11A          -55.5514390986      -29.1880899887       20.0411237981  MEMB      183             0.0000000000
     22722       183  PMPE      H11B          -57.1142288798      -29.2855799666       19.5033498246  MEMB      183             0.0000000000
     22723       183  PMPE      P             -56.1128132363      -31.1512604625       17.7608777817  MEMB      183             0.0000000000
     22724       183  PMPE      O13           -57.5102601708      -31.6163037117       17.7311508498  MEMB      183             0.0000000000
     22725       183  PMPE      O14           -55.0540057323      -32.0286615793       17.2465656936  MEMB      183             0.0000000000
     22726       183  PMPE      O11           -55.9760298712      -29.6891117054       17.1791073272  MEMB      183             0.0000000000
     22727       183  PMPE      O12           -55.8402333264      -30.9617557119       19.3041636344  MEMB      183             0.0000000000
     22728       183  PMPE      C1            -57.0694030592      -28.8957122940       16.7202628908  MEMB      183             0.0000000000
     22729       183  PMPE      HA            -56.6465217810      -27.8782314253       16.5459938225  MEMB      183             0.0000000000
     22730       183  PMPE      HB            -57.8906397161      -28.8203848277       17.4726595864  MEMB      183             0.0000000000
     22731       183  PMPE      C2            -57.7346076942      -29.4569326466       15.4303458295  MEMB      183             0.0000000000
     22732       183  PMPE      HS            -58.5014183357      -30.2011148112       15.7651912897  MEMB      183             0.0000000000
     22733       183  PMPE      O21           -56.7583409891      -30.0479392106       14.5874779224  MEMB      183             0.0000000000
     22734       183  PMPE      C21           -56.9494483297      -31.2736836139       14.1820533324  MEMB      183             0.0000000000
     22735       183  PMPE      O22           -57.8096377588      -32.0548626370       14.5387585852  MEMB      183             0.0000000000
     22736       183  PMPE      C22           -55.9751138488      -31.4978000875       13.0404847982  MEMB      183             0.0000000000
     22737       183  PMPE      H2R           -55.0738391145      -32.0190064834       13.4314530593  MEMB      183             0.0000000000
     22738       183  PMPE      H2S           -55.7104088279      -30.5242428121       12.5695417554  MEMB      183             0.0000000000
     22739       183  PMPE      C3            -58.4271875300      -28.3382164590       14.6099313934  MEMB      183             0.0000000000
     22740       183  PMPE      HX            -59.0378443892      -27.7754496389       15.3369956602  MEMB      183             0.0000000000
     22741       183  PMPE      HY            -59.0923535583      -28.7441188413       13.8428750922  MEMB      183             0.0000000000
     22742       183  PMPE      O31           -57.5138908971      -27.4067920796       14.0262673005  MEMB      183             0.0000000000
     22743       183  PMPE      C31           -57.1176225667      -27.6190571724       12.7942444339  MEMB      183             0.0000000000
     22744       183  PMPE      O32           -57.5958464255      -28.4075887384       11.9935578366  MEMB      183             0.0000000000
     22745       183  PMPE      C32           -55.9654510061      -26.6794069786       12.5867784656  MEMB      183             0.0000000000
     22746       183  PMPE      H2X           -55.0612540129      -26.9968765119       13.1732265026  MEMB      183             0.0000000000
     22747       183  PMPE      H2Y           -56.2538213331      -25.6501987010       12.8881017666  MEMB      183             0.0000000000
     22748       183  PMPE      C23           -56.6477166635      -32.2536575575       11.9000200013  MEMB      183             0.0000000000
     22749       183  PMPE      H3R           -57.4438153535      -31.6096729351       11.4592217473  MEMB      183             0.0000000000
     22750       183  PMPE      H3S           -57.1982272940      -33.1392716964       12.3084181660  MEMB      183             0.0000000000
     22751       183  PMPE      C24           -55.5896503768      -32.6955278179       10.8751440246  MEMB      183             0.0000000000
     22752       183  PMPE      H4R           -56.0162582362      -32.7592866502        9.8717885299  MEMB      183             0.0000000000
     22753       183  PMPE      H4S           -55.2108806966      -33.6896534197       11.2133147997  MEMB      183             0.0000000000
     22754       183  PMPE      C25           -54.4351152936      -31.8074273255       10.4241789091  MEMB      183             0.0000000000
     22755       183  PMPE      H5R           -53.6681370384      -32.5079937836       10.0270119878  MEMB      183             0.0000000000
     22756       183  PMPE      H5S           -53.9825527919      -31.3081009850       11.2853594728  MEMB      183             0.0000000000
     22757       183  PMPE      C26           -54.7808157995      -30.7920291187        9.3217684126  MEMB      183             0.0000000000
     22758       183  PMPE      H6R           -55.5877508605      -30.1497753359        9.7341754645  MEMB      183             0.0000000000
     22759       183  PMPE      H6S           -55.2135063526      -31.2597811265        8.4081148816  MEMB      183             0.0000000000
     22760       183  PMPE      C27           -53.5568700448      -29.9966962570        8.8712206412  MEMB      183             0.0000000000
     22761       183  PMPE      H7R           -52.7754185885      -30.6962054497        8.4826643585  MEMB      183             0.0000000000
     22762       183  PMPE      H7S           -53.1395472857      -29.4430237777        9.7436968937  MEMB      183             0.0000000000
     22763       183  PMPE      C28           -53.9980150948      -29.0623979866        7.7813923288  MEMB      183             0.0000000000
     22764       183  PMPE      H8R           -54.6379476820      -28.2713958496        8.1780886581  MEMB      183             0.0000000000
     22765       183  PMPE      H8S           -54.4705246119      -29.5489208458        6.9330862716  MEMB      183             0.0000000000
     22766       183  PMPE      C29           -52.9166747938      -28.4638565567        7.2287824518  MEMB      183             0.0000000000
     22767       183  PMPE      H9R           -52.0266274992      -28.8528576458        7.5789616690  MEMB      183             0.0000000000
     22768       183  PMPE      C217          -53.0859964165      -26.9751659317        7.2980483829  MEMB      183             0.0000000000
     22769       183  PMPE      H17R          -52.2225690145      -26.0841984975        7.3046113764  MEMB      183             0.0000000000
     22770       183  PMPE      H17S          -54.1192356842      -26.7964715770        7.0776400374  MEMB      183             0.0000000000
     22771       183  PMPE      C210          -53.3093802997      -27.6880295490        6.1990238488  MEMB      183             0.0000000000
     22772       183  PMPE      H10R          -52.5193769115      -27.1634315186        6.1310790473  MEMB      183             0.0000000000
     22773       183  PMPE      C211          -54.1539771035      -28.1958814850        5.0965218093  MEMB      183             0.0000000000
     22774       183  PMPE      H11R          -53.8621395079      -27.5895013809        4.3066131867  MEMB      183             0.0000000000
     22775       183  PMPE      H11S          -55.1000519810      -27.9622105780        5.3884134090  MEMB      183             0.0000000000
     22776       183  PMPE      C212          -54.0009891254      -29.6912580125        4.5861915848  MEMB      183             0.0000000000
     22777       183  PMPE      H12R          -54.7782225960      -29.7356036623        3.7136862231  MEMB      183             0.0000000000
     22778       183  PMPE      H12S          -54.2671641004      -30.4490900905        5.1854846192  MEMB      183             0.0000000000
     22779       183  PMPE      C213          -52.5635352473      -30.2301768925        4.1368235653  MEMB      183             0.0000000000
     22780       183  PMPE      H13R          -52.1809716090      -30.2171256668        5.0609302117  MEMB      183             0.0000000000
     22781       183  PMPE      H13S          -51.6528618762      -30.0686271539        3.0241484682  MEMB      183             0.0000000000
     22782       183  PMPE      C214          -52.5830172967      -30.8334933445        3.6659504710  MEMB      183             0.0000000000
     22783       183  PMPE      H14R          -53.6088607634      -31.3238964260        3.1769421862  MEMB      183             0.0000000000
     22784       183  PMPE      H14S          -51.5362683448      -31.4046749920        4.2411703999  MEMB      183             0.0000000000
     22785       183  PMPE      C215          -51.5381045997      -30.7817303682        1.0041527302  MEMB      183             0.0000000000
     22786       183  PMPE      H15R          -50.9984140612      -29.9495184758        1.1357139353  MEMB      183             0.0000000000
     22787       183  PMPE      H15S          -52.5877488183      -30.8719602701        0.4569300505  MEMB      183             0.0000000000
     22788       183  PMPE      C216          -51.2274890885      -32.1387965359        0.2124078611  MEMB      183             0.0000000000
     22789       183  PMPE      H16R          -50.5390797782      -32.8502710400        0.7226643084  MEMB      183             0.0000000000
     22790       183  PMPE      H16S          -52.2752949242      -32.6308298938        0.6966720619  MEMB      183             0.0000000000
     22791       183  PMPE      H16T          -51.3363596104      -32.2171347563       -0.7945582286  MEMB      183             0.0000000000
     22792       183  PMPE      C33           -55.7162238440      -26.7522166352       11.1110423590  MEMB      183             0.0000000000
     22793       183  PMPE      H3X           -55.4452738976      -27.7425737379       10.7461158043  MEMB      183             0.0000000000
     22794       183  PMPE      H3Y           -54.8136045684      -26.3383357435       11.1925256873  MEMB      183             0.0000000000
     22795       183  PMPE      C34           -56.4855476558      -25.7621661168       10.2774931795  MEMB      183             0.0000000000
     22796       183  PMPE      H4X           -56.1809966552      -25.5165361296        9.2914083531  MEMB      183             0.0000000000
     22797       183  PMPE      H4Y           -56.4623042311      -24.7621735375       10.7180748234  MEMB      183             0.0000000000
     22798       183  PMPE      C35           -57.7702612382      -26.2197704982        9.7675101564  MEMB      183             0.0000000000
     22799       183  PMPE      H5X           -58.1726051733      -25.3831492543        9.1702612037  MEMB      183             0.0000000000
     22800       183  PMPE      H5Y           -58.4912566346      -26.4252534370       10.5671081937  MEMB      183             0.0000000000
     22801       183  PMPE      C36           -57.5868276855      -27.3657846737        8.8165964192  MEMB      183             0.0000000000
     22802       183  PMPE      H6X           -58.4940006547      -27.7591242720        9.1074255701  MEMB      183             0.0000000000
     22803       183  PMPE      H6Y           -56.8487214021      -28.1228332431        9.0969807872  MEMB      183             0.0000000000
     22804       183  PMPE      C37           -57.6998168913      -26.9226859936        7.3863211291  MEMB      183             0.0000000000
     22805       183  PMPE      H7X           -56.8018217526      -26.3233315507        7.2285187266  MEMB      183             0.0000000000
     22806       183  PMPE      H7Y           -58.6338955906      -26.3300532241        7.2505690363  MEMB      183             0.0000000000
     22807       183  PMPE      C38           -57.4309553802      -27.9664772903        6.3374828241  MEMB      183             0.0000000000
     22808       183  PMPE      H8X           -56.6650283683      -28.6417694380        6.7080510547  MEMB      183             0.0000000000
     22809       183  PMPE      H8Y           -57.3440909673      -27.5472688366        5.3447617321  MEMB      183             0.0000000000
     22810       183  PMPE      C39           -58.4889147580      -28.8030911721        6.1021644569  MEMB      183             0.0000000000
     22811       183  PMPE      H9X           -59.2523575983      -27.9144907854        6.0019879576  MEMB      183             0.0000000000
     22812       183  PMPE      H9Y           -58.4408143797      -29.3958856979        7.0925659300  MEMB      183             0.0000000000
     22813       183  PMPE      C310          -58.8367548743      -29.7159878062        4.9475526671  MEMB      183             0.0000000000
     22814       183  PMPE      H10X          -58.7534596064      -29.0491730835        4.1078465157  MEMB      183             0.0000000000
     22815       183  PMPE      H10Y          -59.8160072201      -30.2084494892        4.8419221785  MEMB      183             0.0000000000
     22816       183  PMPE      C311          -58.0555477416      -30.9713410488        4.9824034209  MEMB      183             0.0000000000
     22817       183  PMPE      H11X          -58.4928676518      -31.6671019060        5.7435690682  MEMB      183             0.0000000000
     22818       183  PMPE      H11Y          -57.0433555745      -30.6364069932        5.2634793910  MEMB      183             0.0000000000
     22819       183  PMPE      C312          -58.0965275246      -31.6609440459        3.6372858860  MEMB      183             0.0000000000
     22820       183  PMPE      H12X          -59.1051599444      -32.0877863160        3.4584213759  MEMB      183             0.0000000000
     22821       183  PMPE      H12Y          -57.4390208681      -32.5505663700        3.6782825156  MEMB      183             0.0000000000
     22822       183  PMPE      C313          -57.6578533984      -30.7648859958        2.4682040844  MEMB      183             0.0000000000
     22823       183  PMPE      H13X          -56.7090715951      -30.2510324745        2.6869561093  MEMB      183             0.0000000000
     22824       183  PMPE      H13Y          -58.3463697813      -29.9308279349        2.2414142541  MEMB      183             0.0000000000
     22825       183  PMPE      C314          -57.4401793773      -31.6474074671        1.2477825905  MEMB      183             0.0000000000
     22826       183  PMPE      H14X          -58.3945217605      -32.1634380330        1.0767026418  MEMB      183             0.0000000000
     22827       183  PMPE      H14Y          -56.6957125872      -32.4113675701        1.5561541462  MEMB      183             0.0000000000
     22828       183  PMPE      C315          -57.1224731624      -30.9143845280       -0.0435886765  MEMB      183             0.0000000000
     22829       183  PMPE      H15X          -57.9819192828      -30.2290603871       -0.2227269966  MEMB      183             0.0000000000
     22830       183  PMPE      H15Y          -57.0510325926      -31.5981203847       -0.9231071425  MEMB      183             0.0000000000
     22831       183  PMPE      C316          -55.8251179147      -30.1939017025        0.0736589110  MEMB      183             0.0000000000
     22832       183  PMPE      H16X          -55.4492703582      -29.8596534563       -0.9155336656  MEMB      183             0.0000000000
     22833       183  PMPE      H16Y          -54.9961576980      -30.7857531008        0.2883914965  MEMB      183             0.0000000000
     22834       183  PMPE      H16Z          -55.8940528070      -29.2706321239        0.7340623668  MEMB      183             0.0000000000
     22835       184  OYPE      N              35.7089603261      -51.8330255941       17.4486328493  MEMB      184             0.0000000000
     22836       184  OYPE      HN1            36.4650365326      -52.4628693324       17.0957682769  MEMB      184             0.0000000000
     22837       184  OYPE      HN2            34.9996595416      -51.8436289110       16.6930099096  MEMB      184             0.0000000000
     22838       184  OYPE      HN3            36.1212157565      -50.9081233934       17.6523539399  MEMB      184             0.0000000000
     22839       184  OYPE      C12            35.0064331644      -52.3596119485       18.6722858369  MEMB      184             0.0000000000
     22840       184  OYPE      H12A           34.5408071654      -53.3011578522       18.3402105625  MEMB      184             0.0000000000
     22841       184  OYPE      H12B           34.1658256674      -51.6757987004       18.9412762780  MEMB      184             0.0000000000
     22842       184  OYPE      C11            35.9806877662      -52.6443856214       19.8360792640  MEMB      184             0.0000000000
     22843       184  OYPE      H11A           35.3884145167      -53.1184598949       20.6609243592  MEMB      184             0.0000000000
     22844       184  OYPE      H11B           36.4271806489      -51.7117106110       20.1873359376  MEMB      184             0.0000000000
     22845       184  OYPE      P              36.8746970782      -55.0016377277       19.2477569299  MEMB      184             0.0000000000
     22846       184  OYPE      O13            35.7411564805      -55.4198300964       20.0966678887  MEMB      184             0.0000000000
     22847       184  OYPE      O14            38.0953290840      -55.8235549819       19.3927002566  MEMB      184             0.0000000000
     22848       184  OYPE      O11            36.4093648495      -54.8907405885       17.7274665812  MEMB      184             0.0000000000
     22849       184  OYPE      O12            37.0967711772      -53.4497180676       19.4799856805  MEMB      184             0.0000000000
     22850       184  OYPE      C1             36.5617674092      -56.0602760969       16.9352932088  MEMB      184             0.0000000000
     22851       184  OYPE      HA             35.6209079631      -56.1833785361       16.3544244628  MEMB      184             0.0000000000
     22852       184  OYPE      HB             36.7184417097      -56.9819388132       17.5485576320  MEMB      184             0.0000000000
     22853       184  OYPE      C2             37.8554316311      -56.0241442144       16.0719257218  MEMB      184             0.0000000000
     22854       184  OYPE      HS             38.7453602125      -55.9171504501       16.7235959854  MEMB      184             0.0000000000
     22855       184  OYPE      O21            37.8238879924      -54.9255510112       15.1458959290  MEMB      184             0.0000000000
     22856       184  OYPE      C21            38.9916013048      -54.5766175604       14.6054876206  MEMB      184             0.0000000000
     22857       184  OYPE      O22            40.0942930001      -54.9468710635       14.9629729118  MEMB      184             0.0000000000
     22858       184  OYPE      C22            38.6171219564      -53.6723186805       13.4105016989  MEMB      184             0.0000000000
     22859       184  OYPE      H2R            38.3904129630      -52.6535357755       13.7834088068  MEMB      184             0.0000000000
     22860       184  OYPE      H2S            37.6639052509      -54.0834569711       13.0142472105  MEMB      184             0.0000000000
     22861       184  OYPE      C3             38.0015950730      -57.3711468992       15.3336762620  MEMB      184             0.0000000000
     22862       184  OYPE      HX             38.0147256493      -58.2350593462       16.0477305919  MEMB      184             0.0000000000
     22863       184  OYPE      HY             38.9723224046      -57.3685465656       14.8217597140  MEMB      184             0.0000000000
     22864       184  OYPE      O31            36.9819662592      -57.4215418031       14.3356721110  MEMB      184             0.0000000000
     22865       184  OYPE      C31            37.0352182481      -58.4835833205       13.5741586755  MEMB      184             0.0000000000
     22866       184  OYPE      O32            37.3120287652      -59.5864267739       13.9915567317  MEMB      184             0.0000000000
     22867       184  OYPE      C32            36.2930681369      -58.2031161780       12.2828313271  MEMB      184             0.0000000000
     22868       184  OYPE      H2X            36.3637393809      -58.7812562457       11.3453253029  MEMB      184             0.0000000000
     22869       184  OYPE      H2Y            35.3381735539      -58.6112455443       12.4933774582  MEMB      184             0.0000000000
     22870       184  OYPE      C23            39.6531877973      -53.6402168151       12.2555768629  MEMB      184             0.0000000000
     22871       184  OYPE      H3R            40.1386577292      -54.6321108955       12.1392243221  MEMB      184             0.0000000000
     22872       184  OYPE      H3S            40.4331972125      -52.9033795875       12.4875281137  MEMB      184             0.0000000000
     22873       184  OYPE      C24            39.1256910492      -53.2440083115       10.8608818550  MEMB      184             0.0000000000
     22874       184  OYPE      H4R            38.3049822412      -53.9292782364       10.5821268237  MEMB      184             0.0000000000
     22875       184  OYPE      H4S            39.9230230748      -53.3656333561       10.0918583540  MEMB      184             0.0000000000
     22876       184  OYPE      C25            38.6140479540      -51.7984160192       10.7841578793  MEMB      184             0.0000000000
     22877       184  OYPE      H5R            39.2212344309      -51.1908677109       11.4887194505  MEMB      184             0.0000000000
     22878       184  OYPE      H5S            37.5254154529      -51.8257684687       11.0346568976  MEMB      184             0.0000000000
     22879       184  OYPE      C26            38.6887694893      -51.1114530340        9.4151507519  MEMB      184             0.0000000000
     22880       184  OYPE      H6R            39.7456480733      -51.0498494513        9.0726839245  MEMB      184             0.0000000000
     22881       184  OYPE      H6S            38.3676534125      -50.0419097132        9.4638365464  MEMB      184             0.0000000000
     22882       184  OYPE      C27            37.8185380791      -51.8902543920        8.4218780787  MEMB      184             0.0000000000
     22883       184  OYPE      H7R            36.8654920845      -52.2383415903        8.8964450131  MEMB      184             0.0000000000
     22884       184  OYPE      H7S            38.3958327634      -52.8000172952        8.1445772019  MEMB      184             0.0000000000
     22885       184  OYPE      C28            37.5084283927      -51.0893200602        7.1576962952  MEMB      184             0.0000000000
     22886       184  OYPE      H8R            37.1818357812      -50.0628044351        7.4519814078  MEMB      184             0.0000000000
     22887       184  OYPE      H8S            36.6789864030      -51.5590750426        6.5992691018  MEMB      184             0.0000000000
     22888       184  OYPE      C29            38.7031641798      -51.0890442805        6.2464685476  MEMB      184             0.0000000000
     22889       184  OYPE      H9R            39.3861255231      -50.2522103643        6.3154717789  MEMB      184             0.0000000000
     22890       184  OYPE      C210           39.1177445285      -52.0486941355        5.4272962063  MEMB      184             0.0000000000
     22891       184  OYPE      H10R           40.0872997658      -51.8726468631        4.9548306132  MEMB      184             0.0000000000
     22892       184  OYPE      C211           38.4955362626      -53.3901590174        5.2065376215  MEMB      184             0.0000000000
     22893       184  OYPE      H11R           38.0195987707      -53.5114587431        4.2096814894  MEMB      184             0.0000000000
     22894       184  OYPE      H11S           37.7105808704      -53.5794399509        5.9757076918  MEMB      184             0.0000000000
     22895       184  OYPE      C212           39.5304812198      -54.5098469833        5.3929766036  MEMB      184             0.0000000000
     22896       184  OYPE      H12R           38.8759883779      -55.4130160572        5.3554432458  MEMB      184             0.0000000000
     22897       184  OYPE      H12S           40.0222728733      -54.4633337959        6.3881585175  MEMB      184             0.0000000000
     22898       184  OYPE      C213           40.7583891819      -54.6477133279        4.4529694690  MEMB      184             0.0000000000
     22899       184  OYPE      H13R           41.1913584165      -55.6518999168        4.6247121138  MEMB      184             0.0000000000
     22900       184  OYPE      H13S           41.4678644714      -53.8483487939        4.4354880331  MEMB      184             0.0000000000
     22901       184  OYPE      C214           40.5935057295      -54.5153963210        3.0301090717  MEMB      184             0.0000000000
     22902       184  OYPE      H14R           39.8209254875      -53.6685154791        2.8527351457  MEMB      184             0.0000000000
     22903       184  OYPE      H14S           40.2392783247      -55.5894152689        3.1519796356  MEMB      184             0.0000000000
     22904       184  OYPE      C215           41.4485109569      -54.6900341581        1.8001384127  MEMB      184             0.0000000000
     22905       184  OYPE      H15R           41.7851065191      -53.6884019932        1.9735670415  MEMB      184             0.0000000000
     22906       184  OYPE      H15S           41.0111982722      -54.7925922752        0.7507208624  MEMB      184             0.0000000000
     22907       184  OYPE      C216           42.3442806411      -55.7785302346        2.0683428047  MEMB      184             0.0000000000
     22908       184  OYPE      H16R           43.0288650887      -55.9247578409        1.2497992218  MEMB      184             0.0000000000
     22909       184  OYPE      H16S           41.7445886557      -56.6371802447        2.1527278591  MEMB      184             0.0000000000
     22910       184  OYPE      H16T           42.8760001819      -55.5888685426        3.0067297368  MEMB      184             0.0000000000
     22911       184  OYPE      C33            36.5444955686      -56.8052071570       11.7753946254  MEMB      184             0.0000000000
     22912       184  OYPE      H3X            37.5865393848      -56.3980829956       11.8058713926  MEMB      184             0.0000000000
     22913       184  OYPE      H3Y            35.9274887799      -56.2631506610       12.5061144293  MEMB      184             0.0000000000
     22914       184  OYPE      C34            35.8288234532      -56.5811519636       10.4630631463  MEMB      184             0.0000000000
     22915       184  OYPE      H4X            36.3972405417      -56.8369114441        9.5629817307  MEMB      184             0.0000000000
     22916       184  OYPE      H4Y            35.1061501062      -57.3876120009       10.4240723784  MEMB      184             0.0000000000
     22917       184  OYPE      C35            35.2658004656      -55.1553715804       10.4972397413  MEMB      184             0.0000000000
     22918       184  OYPE      H5X            36.1450751955      -54.5119494551       10.7236337209  MEMB      184             0.0000000000
     22919       184  OYPE      H5Y            34.5585005519      -55.0404613069       11.3528087041  MEMB      184             0.0000000000
     22920       184  OYPE      C36            34.5232486363      -54.6562266653        9.2547266878  MEMB      184             0.0000000000
     22921       184  OYPE      H6X            33.4532926208      -54.9167587268        9.3502665358  MEMB      184             0.0000000000
     22922       184  OYPE      H6Y            34.5377381409      -53.5449727152        9.2359772431  MEMB      184             0.0000000000
     22923       184  OYPE      C37            35.0872987486      -55.1897770223        7.9465752356  MEMB      184             0.0000000000
     22924       184  OYPE      H7X            36.1461785232      -54.8595787145        7.8952346283  MEMB      184             0.0000000000
     22925       184  OYPE      H7Y            35.0603152593      -56.2973142079        7.8931819388  MEMB      184             0.0000000000
     22926       184  OYPE      C38            34.3921542838      -54.5628543617        6.7524255465  MEMB      184             0.0000000000
     22927       184  OYPE      H8X            33.3282441019      -54.8505349784        6.7499603901  MEMB      184             0.0000000000
     22928       184  OYPE      H8Y            34.3864217636      -53.4674328220        6.9343442167  MEMB      184             0.0000000000
     22929       184  OYPE      C39            35.1596354927      -54.9815604150        5.5203422316  MEMB      184             0.0000000000
     22930       184  OYPE      H9X            35.8516067343      -55.8152877570        5.6212953238  MEMB      184             0.0000000000
     22931       184  OYPE      C310           35.1271831624      -54.4384402437        4.3266783421  MEMB      184             0.0000000000
     22932       184  OYPE      H10X           35.6643393857      -54.8875407838        3.4877737564  MEMB      184             0.0000000000
     22933       184  OYPE      C311           34.3119130945      -53.3152096388        3.9790395442  MEMB      184             0.0000000000
     22934       184  OYPE      H11X           34.0079100457      -53.8038077517        3.0988963909  MEMB      184             0.0000000000
     22935       184  OYPE      H11Y           33.4374837308      -53.3249627071        4.6445832470  MEMB      184             0.0000000000
     22936       184  OYPE      C312           34.9793053058      -51.9409934719        3.7584297741  MEMB      184             0.0000000000
     22937       184  OYPE      H12X           35.5296546083      -51.6470213400        4.6691400523  MEMB      184             0.0000000000
     22938       184  OYPE      H12Y           34.2361640026      -51.1551197826        3.4660016334  MEMB      184             0.0000000000
     22939       184  OYPE      C313           36.0013641285      -51.8867382933        2.6537783904  MEMB      184             0.0000000000
     22940       184  OYPE      H13X           36.8334557040      -51.2214691681        2.8595033934  MEMB      184             0.0000000000
     22941       184  OYPE      H13Y           36.4763908252      -52.8977942055        2.5240959264  MEMB      184             0.0000000000
     22942       184  OYPE      C314           35.3953239590      -51.2193368151        1.4171478934  MEMB      184             0.0000000000
     22943       184  OYPE      H14X           35.1194599236      -50.2860649119        1.1733404672  MEMB      184             0.0000000000
     22944       184  OYPE      H14Y           34.3130090871      -51.3023034092        1.2500650324  MEMB      184             0.0000000000
     22945       184  OYPE      C315           36.1015208842      -51.6289845036        0.2834075773  MEMB      184             0.0000000000
     22946       184  OYPE      H15X           36.3594876864      -52.6805669642        0.4017251456  MEMB      184             0.0000000000
     22947       184  OYPE      H15Y           37.0038920347      -51.1499002396        0.5982875594  MEMB      184             0.0000000000
     22948       184  OYPE      C316           35.4656108303      -51.6024745199       -1.0768058779  MEMB      184             0.0000000000
     22949       184  OYPE      H16X           35.2634646709      -50.7327894160       -1.6133228463  MEMB      184             0.0000000000
     22950       184  OYPE      H16Y           34.6350938516      -52.1452083721       -1.2632569979  MEMB      184             0.0000000000
     22951       184  OYPE      C317           35.7097940806      -52.6609945198       -1.9042238109  MEMB      184             0.0000000000
     22952       184  OYPE      H17X           36.6363616902      -52.2307611331       -1.8658536634  MEMB      184             0.0000000000
     22953       184  OYPE      H17Y           35.1620649684      -52.5067013211       -2.8317907700  MEMB      184             0.0000000000
     22954       184  OYPE      C318           35.2057598787      -53.8975402581       -1.9785770173  MEMB      184             0.0000000000
     22955       184  OYPE      H18X           35.7547402392      -54.4090839026       -1.0783535469  MEMB      184             0.0000000000
     22956       184  OYPE      H18Y           34.7165002352      -54.5590808523       -2.5823929244  MEMB      184             0.0000000000
     22957       184  OYPE      H18Z           35.4844038111      -54.2829015852       -3.0165513618  MEMB      184             0.0000000000
     22958       185  PMPE      N             -40.3389099222       53.7888465499       20.7460777350  MEMB      185             0.0000000000
     22959       185  PMPE      HN1           -41.2938802666       54.1565946095       20.8848904352  MEMB      185             0.0000000000
     22960       185  PMPE      HN2           -40.3688185816       52.8302541573       20.3503759194  MEMB      185             0.0000000000
     22961       185  PMPE      HN3           -39.8218032058       53.7139307399       21.6428498689  MEMB      185             0.0000000000
     22962       185  PMPE      C12           -39.6353182635       54.6682341643       19.7537289438  MEMB      185             0.0000000000
     22963       185  PMPE      H12A          -39.6499783671       55.7049185503       20.1295497221  MEMB      185             0.0000000000
     22964       185  PMPE      H12B          -40.2294447643       54.7177502001       18.8167887787  MEMB      185             0.0000000000
     22965       185  PMPE      C11           -38.2363372542       54.0845950632       19.5153606688  MEMB      185             0.0000000000
     22966       185  PMPE      H11A          -37.6513182985       54.0323122862       20.4652393135  MEMB      185             0.0000000000
     22967       185  PMPE      H11B          -37.7068421514       54.7932179419       18.8358359370  MEMB      185             0.0000000000
     22968       185  PMPE      P             -37.0690623707       51.9714754423       18.4128563935  MEMB      185             0.0000000000
     22969       185  PMPE      O13           -37.4825799137       50.5461338815       18.4588050551  MEMB      185             0.0000000000
     22970       185  PMPE      O14           -35.8773284568       52.3773899860       19.1942980091  MEMB      185             0.0000000000
     22971       185  PMPE      O11           -36.9206471261       52.3660066572       16.9126686234  MEMB      185             0.0000000000
     22972       185  PMPE      O12           -38.3562584088       52.7783281958       18.9484585486  MEMB      185             0.0000000000
     22973       185  PMPE      C1            -37.9806590570       52.0732617491       16.0033924744  MEMB      185             0.0000000000
     22974       185  PMPE      HA            -38.8990428277       52.6317079022       16.2930765013  MEMB      185             0.0000000000
     22975       185  PMPE      HB            -38.2638038410       50.9949675884       15.9687998502  MEMB      185             0.0000000000
     22976       185  PMPE      C2            -37.5532367678       52.4800266123       14.5751786168  MEMB      185             0.0000000000
     22977       185  PMPE      HS            -38.3535729037       52.1517723580       13.8626834851  MEMB      185             0.0000000000
     22978       185  PMPE      O21           -36.2445624094       51.9750196424       14.2041744251  MEMB      185             0.0000000000
     22979       185  PMPE      C21           -36.2751935248       50.8501404979       13.5415493258  MEMB      185             0.0000000000
     22980       185  PMPE      O22           -37.2239831854       50.0893697924       13.4452627530  MEMB      185             0.0000000000
     22981       185  PMPE      C22           -34.9833236632       50.6356200388       12.7741547146  MEMB      185             0.0000000000
     22982       185  PMPE      H2R           -34.8921730558       49.5297681101       12.8115730803  MEMB      185             0.0000000000
     22983       185  PMPE      H2S           -34.1041478499       51.1551514620       13.2202296702  MEMB      185             0.0000000000
     22984       185  PMPE      C3            -37.5044337989       54.0168592884       14.4876410121  MEMB      185             0.0000000000
     22985       185  PMPE      HX            -36.7122290864       54.4246935010       15.1670122151  MEMB      185             0.0000000000
     22986       185  PMPE      HY            -38.4403882949       54.4148494436       14.9224231222  MEMB      185             0.0000000000
     22987       185  PMPE      O31           -37.3268798621       54.3966478790       13.1060049354  MEMB      185             0.0000000000
     22988       185  PMPE      C31           -38.4147597687       54.7767183552       12.4630297575  MEMB      185             0.0000000000
     22989       185  PMPE      O32           -39.5343648653       54.7762586048       12.9358541746  MEMB      185             0.0000000000
     22990       185  PMPE      C32           -38.0077241594       55.1577603268       11.0290392301  MEMB      185             0.0000000000
     22991       185  PMPE      H2X           -37.1522096934       54.5598971397       10.6899386828  MEMB      185             0.0000000000
     22992       185  PMPE      H2Y           -37.7888398000       56.2505764399       11.0213665657  MEMB      185             0.0000000000
     22993       185  PMPE      C23           -35.1378100543       51.0674271087       11.3067347864  MEMB      185             0.0000000000
     22994       185  PMPE      H3R           -35.5116725158       52.1075805362       11.2814938043  MEMB      185             0.0000000000
     22995       185  PMPE      H3S           -35.8905017753       50.4583270592       10.7724009247  MEMB      185             0.0000000000
     22996       185  PMPE      C24           -33.8128107404       51.0295212841       10.5761632476  MEMB      185             0.0000000000
     22997       185  PMPE      H4R           -33.3810363277       50.0628171466       10.3804933890  MEMB      185             0.0000000000
     22998       185  PMPE      H4S           -33.0952167610       51.6474727257       11.0961186328  MEMB      185             0.0000000000
     22999       185  PMPE      C25           -33.7876456313       51.6157442711        9.2659990132  MEMB      185             0.0000000000
     23000       185  PMPE      H5R           -34.6015758757       51.1416415986        8.6506067284  MEMB      185             0.0000000000
     23001       185  PMPE      H5S           -32.7834919366       51.5277486105        8.7877644898  MEMB      185             0.0000000000
     23002       185  PMPE      C26           -33.9627329334       52.9884771568        9.6176678388  MEMB      185             0.0000000000
     23003       185  PMPE      H6R           -33.3717965633       53.8004668011       10.0451843301  MEMB      185             0.0000000000
     23004       185  PMPE      H6S           -35.0109197928       53.1777146760        9.8659033955  MEMB      185             0.0000000000
     23005       185  PMPE      C27           -33.7088694028       53.3547872534        8.4112203066  MEMB      185             0.0000000000
     23006       185  PMPE      H7R           -33.3731361608       53.0452140978        7.4902948021  MEMB      185             0.0000000000
     23007       185  PMPE      H7S           -34.0490392327       54.8699163507        9.0555056893  MEMB      185             0.0000000000
     23008       185  PMPE      C28           -35.4511188099       52.9800996659        6.2892119223  MEMB      185             0.0000000000
     23009       185  PMPE      H8R           -36.3272211558       52.7491571418        6.7011261231  MEMB      185             0.0000000000
     23010       185  PMPE      H8S           -34.7599412242       52.3023834368        6.2169785334  MEMB      185             0.0000000000
     23011       185  PMPE      C29           -35.8658519273       54.7141049268        5.3489101004  MEMB      185             0.0000000000
     23012       185  PMPE      H9R           -35.0899509543       55.6380139022        5.0782517272  MEMB      185             0.0000000000
     23013       185  PMPE      C217          -36.6201497903       55.9243795957        6.1266196990  MEMB      185             0.0000000000
     23014       185  PMPE      H17R          -35.9601521491       56.8238485720        6.1306068510  MEMB      185             0.0000000000
     23015       185  PMPE      H17S          -36.8513915270       55.7420401994        7.1228489216  MEMB      185             0.0000000000
     23016       185  PMPE      C210          -36.9213643046       55.0953426911        4.9379704038  MEMB      185             0.0000000000
     23017       185  PMPE      H10R          -36.5565960427       55.4409050203        3.9610540894  MEMB      185             0.0000000000
     23018       185  PMPE      C211          -37.7010887295       53.9617844050        5.2556779524  MEMB      185             0.0000000000
     23019       185  PMPE      H11R          -38.5969371382       54.4838165657        5.0081495403  MEMB      185             0.0000000000
     23020       185  PMPE      H11S          -37.7952665685       53.7044754467        6.3288384146  MEMB      185             0.0000000000
     23021       185  PMPE      C212          -37.4250244377       52.7603899297        4.3864272027  MEMB      185             0.0000000000
     23022       185  PMPE      H12R          -37.5765008811       51.8640391319        5.0295308047  MEMB      185             0.0000000000
     23023       185  PMPE      H12S          -36.3936252335       52.7039159630        3.9756132307  MEMB      185             0.0000000000
     23024       185  PMPE      C213          -38.4239729234       52.8733902361        3.2953069572  MEMB      185             0.0000000000
     23025       185  PMPE      H13R          -38.3631053953       53.8883148477        2.8515834749  MEMB      185             0.0000000000
     23026       185  PMPE      H13S          -39.3945939583       52.8556724725        3.8271949872  MEMB      185             0.0000000000
     23027       185  PMPE      C214          -38.3540316603       51.7155009434        2.3282701787  MEMB      185             0.0000000000
     23028       185  PMPE      H14R          -37.9055145604       50.8447164138        2.8776951046  MEMB      185             0.0000000000
     23029       185  PMPE      H14S          -37.6966050699       51.9184611013        1.4603315365  MEMB      185             0.0000000000
     23030       185  PMPE      C215          -39.7273769208       51.3974046639        1.7193229660  MEMB      185             0.0000000000
     23031       185  PMPE      H15R          -40.3149759756       50.8663887779        2.4928209112  MEMB      185             0.0000000000
     23032       185  PMPE      H15S          -39.5084358754       50.7340042753        0.8517699436  MEMB      185             0.0000000000
     23033       185  PMPE      C216          -40.6018295195       52.5624017491        1.2364958135  MEMB      185             0.0000000000
     23034       185  PMPE      H16R          -41.5096258031       52.2711040646        0.6559986529  MEMB      185             0.0000000000
     23035       185  PMPE      H16S          -40.9121741866       53.1826165064        2.0978947753  MEMB      185             0.0000000000
     23036       185  PMPE      H16T          -40.0175822504       53.2107272578        0.5697119470  MEMB      185             0.0000000000
     23037       185  PMPE      C33           -39.0489368798       54.8684165995        9.9623808830  MEMB      185             0.0000000000
     23038       185  PMPE      H3X           -38.8971574383       55.3617122358        8.9995138298  MEMB      185             0.0000000000
     23039       185  PMPE      H3Y           -39.7463245832       55.4729395614       10.2690605278  MEMB      185             0.0000000000
     23040       185  PMPE      C34           -39.6201923491       53.4850240877        9.8390002506  MEMB      185             0.0000000000
     23041       185  PMPE      H4X           -40.5166852435       53.5554339628        9.1838365979  MEMB      185             0.0000000000
     23042       185  PMPE      H4Y           -39.9494504204       53.0508154357       10.8155558536  MEMB      185             0.0000000000
     23043       185  PMPE      C35           -38.4701886049       52.7483612430        9.1814363533  MEMB      185             0.0000000000
     23044       185  PMPE      H5X           -37.6452530699       52.7370853913        9.9211925869  MEMB      185             0.0000000000
     23045       185  PMPE      H5Y           -38.1178406385       53.2487125870        8.2715706823  MEMB      185             0.0000000000
     23046       185  PMPE      C36           -38.7847827371       51.4478922006        8.5388694425  MEMB      185             0.0000000000
     23047       185  PMPE      H6X           -39.6934032848       51.4854825920        7.9023442387  MEMB      185             0.0000000000
     23048       185  PMPE      H6Y           -39.1410006694       50.9302417373        9.3727325957  MEMB      185             0.0000000000
     23049       185  PMPE      C37           -37.6142841844       50.6096589595        7.9230586346  MEMB      185             0.0000000000
     23050       185  PMPE      H7X           -36.9669288469       50.3068585642        8.7599631682  MEMB      185             0.0000000000
     23051       185  PMPE      H7Y           -37.1405900535       51.2795864249        7.2269348506  MEMB      185             0.0000000000
     23052       185  PMPE      C38           -37.8953571743       49.4779441353        6.8992899001  MEMB      185             0.0000000000
     23053       185  PMPE      H8X           -38.6748561263       49.8638895114        6.2113132560  MEMB      185             0.0000000000
     23054       185  PMPE      H8Y           -38.2840783931       48.5802343098        7.3356568507  MEMB      185             0.0000000000
     23055       185  PMPE      C39           -36.8801042163       48.6289326608        6.3622749302  MEMB      185             0.0000000000
     23056       185  PMPE      H9X           -37.3266716769       47.7805639434        5.7731461725  MEMB      185             0.0000000000
     23057       185  PMPE      H9Y           -36.3758684163       48.2363049446        7.2522832271  MEMB      185             0.0000000000
     23058       185  PMPE      C310          -36.0552868835       49.5287314095        5.5593788279  MEMB      185             0.0000000000
     23059       185  PMPE      H10X          -35.5902861912       50.3254105479        6.1822677325  MEMB      185             0.0000000000
     23060       185  PMPE      H10Y          -36.6487364231       49.9144726118        4.7296806898  MEMB      185             0.0000000000
     23061       185  PMPE      C311          -35.1162675072       48.7806533967        4.7631869737  MEMB      185             0.0000000000
     23062       185  PMPE      H11X          -35.3725477323       48.0764935116        4.0187116568  MEMB      185             0.0000000000
     23063       185  PMPE      H11Y          -35.2354310412       47.8516640708        5.3240675969  MEMB      185             0.0000000000
     23064       185  PMPE      C312          -33.8860229576       49.6318631957        4.4723959935  MEMB      185             0.0000000000
     23065       185  PMPE      H12X          -33.1463651408       49.0630181168        4.0017243583  MEMB      185             0.0000000000
     23066       185  PMPE      H12Y          -33.3936879238       50.1760853287        5.2945873052  MEMB      185             0.0000000000
     23067       185  PMPE      C313          -34.1980483150       50.4439932443        3.2985296814  MEMB      185             0.0000000000
     23068       185  PMPE      H13X          -33.4305527040       51.0052428073        3.0976157833  MEMB      185             0.0000000000
     23069       185  PMPE      H13Y          -34.9702270589       51.1626346324        3.5355298245  MEMB      185             0.0000000000
     23070       185  PMPE      C314          -34.4145105545       49.6681707763        2.0387134355  MEMB      185             0.0000000000
     23071       185  PMPE      H14X          -35.2188668998       48.9606266505        2.3083932798  MEMB      185             0.0000000000
     23072       185  PMPE      H14Y          -33.5706653239       49.0348137594        1.6969933023  MEMB      185             0.0000000000
     23073       185  PMPE      C315          -34.7678677080       50.6897851667        0.9745773923  MEMB      185             0.0000000000
     23074       185  PMPE      H15X          -33.9156259558       50.9387383644        0.2914121100  MEMB      185             0.0000000000
     23075       185  PMPE      H15Y          -35.1768496235       51.6088259860        1.3497120869  MEMB      185             0.0000000000
     23076       185  PMPE      C316          -35.8918265225       50.3364134982        0.1555944462  MEMB      185             0.0000000000
     23077       185  PMPE      H16X          -36.8194314708       49.8014612564        0.4639045297  MEMB      185             0.0000000000
     23078       185  PMPE      H16Y          -35.2270572089       49.5637577193       -0.1591277118  MEMB      185             0.0000000000
     23079       185  PMPE      H16Z          -35.9927341473       50.8717737023       -0.8069441274  MEMB      185             0.0000000000
     23080       186  PMPE      N             -45.1145335134      -47.6324675988       17.9330418967  MEMB      186             0.0000000000
     23081       186  PMPE      HN1           -44.4215313106      -46.9169403100       18.2135187848  MEMB      186             0.0000000000
     23082       186  PMPE      HN2           -45.5831514208      -48.0123092374       18.7893059835  MEMB      186             0.0000000000
     23083       186  PMPE      HN3           -44.6535803228      -48.3752838156       17.3657304502  MEMB      186             0.0000000000
     23084       186  PMPE      C12           -46.1463104369      -46.9157612765       17.1014467229  MEMB      186             0.0000000000
     23085       186  PMPE      H12A          -46.6775980606      -47.6808357565       16.4933388382  MEMB      186             0.0000000000
     23086       186  PMPE      H12B          -45.6146999025      -46.2387665499       16.4002430773  MEMB      186             0.0000000000
     23087       186  PMPE      C11           -47.0979449676      -46.1093788996       18.0181728171  MEMB      186             0.0000000000
     23088       186  PMPE      H11A          -47.5993498167      -46.7966331166       18.7413363545  MEMB      186             0.0000000000
     23089       186  PMPE      H11B          -47.8956401481      -45.6525685610       17.3950174002  MEMB      186             0.0000000000
     23090       186  PMPE      P             -47.2166477298      -44.2964013313       19.9013516205  MEMB      186             0.0000000000
     23091       186  PMPE      O13           -46.2972900200      -43.2289526729       20.3668376814  MEMB      186             0.0000000000
     23092       186  PMPE      O14           -47.6776369946      -45.3600759714       20.8156379061  MEMB      186             0.0000000000
     23093       186  PMPE      O11           -48.4504221939      -43.6871070724       19.1129584391  MEMB      186             0.0000000000
     23094       186  PMPE      O12           -46.4179027793      -45.0678657154       18.7156402535  MEMB      186             0.0000000000
     23095       186  PMPE      C1            -48.2012819363      -42.5333271724       18.2962733462  MEMB      186             0.0000000000
     23096       186  PMPE      HA            -47.1489949459      -42.5239952615       17.9198422285  MEMB      186             0.0000000000
     23097       186  PMPE      HB            -48.2670906747      -41.5927979275       18.8843170878  MEMB      186             0.0000000000
     23098       186  PMPE      C2            -49.1403148994      -42.4918967744       17.0528326325  MEMB      186             0.0000000000
     23099       186  PMPE      HS            -50.2171275113      -42.3406656783       17.3284903236  MEMB      186             0.0000000000
     23100       186  PMPE      O21           -48.9315929885      -43.7203984245       16.3104141042  MEMB      186             0.0000000000
     23101       186  PMPE      C21           -49.8181963428      -43.9811652848       15.3518968219  MEMB      186             0.0000000000
     23102       186  PMPE      O22           -50.8592908099      -43.3820531410       15.1890176263  MEMB      186             0.0000000000
     23103       186  PMPE      C22           -49.2561798893      -45.0755619096       14.4047984910  MEMB      186             0.0000000000
     23104       186  PMPE      H2R           -49.4793171946      -46.0997755061       14.7723123085  MEMB      186             0.0000000000
     23105       186  PMPE      H2S           -48.1533030400      -44.9474540481       14.3796348750  MEMB      186             0.0000000000
     23106       186  PMPE      C3            -48.7966552202      -41.2774623095       16.1709262255  MEMB      186             0.0000000000
     23107       186  PMPE      HX            -49.0540766346      -40.3474690323       16.6952264857  MEMB      186             0.0000000000
     23108       186  PMPE      HY            -49.4035798248      -41.3269914293       15.2486665730  MEMB      186             0.0000000000
     23109       186  PMPE      O31           -47.4163553891      -41.2353363577       15.9169556412  MEMB      186             0.0000000000
     23110       186  PMPE      C31           -47.0846748652      -41.2880943879       14.7171994534  MEMB      186             0.0000000000
     23111       186  PMPE      O32           -47.7235862565      -41.4362679088       13.6811715597  MEMB      186             0.0000000000
     23112       186  PMPE      C32           -45.7205530423      -41.0879860021       14.8460942245  MEMB      186             0.0000000000
     23113       186  PMPE      H2X           -45.1369607688      -40.5882683415       15.6151200137  MEMB      186             0.0000000000
     23114       186  PMPE      H2Y           -45.7051149653      -40.0581103327       14.2704351432  MEMB      186             0.0000000000
     23115       186  PMPE      C23           -49.8243119545      -44.9574588411       12.9522315781  MEMB      186             0.0000000000
     23116       186  PMPE      H3R           -49.4566262014      -44.0331856655       12.4399485996  MEMB      186             0.0000000000
     23117       186  PMPE      H3S           -50.9394447044      -44.9719950401       12.9922907701  MEMB      186             0.0000000000
     23118       186  PMPE      C24           -49.5005812424      -46.1084786494       11.9740973004  MEMB      186             0.0000000000
     23119       186  PMPE      H4R           -50.0486112439      -47.0302153318       12.2512108456  MEMB      186             0.0000000000
     23120       186  PMPE      H4S           -48.4126040998      -46.3218144331       12.0018931975  MEMB      186             0.0000000000
     23121       186  PMPE      C25           -49.8911581940      -45.7816287678       10.5187614859  MEMB      186             0.0000000000
     23122       186  PMPE      H5R           -49.2212505521      -44.9577481436       10.1783776952  MEMB      186             0.0000000000
     23123       186  PMPE      H5S           -50.9695083319      -45.5004915342       10.4134305545  MEMB      186             0.0000000000
     23124       186  PMPE      C26           -49.6951963170      -46.9015212426        9.4895967979  MEMB      186             0.0000000000
     23125       186  PMPE      H6R           -49.8609212130      -46.3870410071        8.5053656168  MEMB      186             0.0000000000
     23126       186  PMPE      H6S           -50.4595580199      -47.6915713796        9.6289085814  MEMB      186             0.0000000000
     23127       186  PMPE      C27           -48.3430424278      -47.6209271160        9.5378901800  MEMB      186             0.0000000000
     23128       186  PMPE      H7R           -48.3594323610      -48.5096662741       10.2143430210  MEMB      186             0.0000000000
     23129       186  PMPE      H7S           -47.6028363408      -46.9347863922        9.9882441246  MEMB      186             0.0000000000
     23130       186  PMPE      C28           -47.8430721806      -47.9551123433        8.1299801571  MEMB      186             0.0000000000
     23131       186  PMPE      H8R           -47.7320612041      -47.0040907425        7.5719383032  MEMB      186             0.0000000000
     23132       186  PMPE      H8S           -48.5774567283      -48.5663851298        7.5831030489  MEMB      186             0.0000000000
     23133       186  PMPE      C29           -46.5845706168      -48.7413093265        8.2450659251  MEMB      186             0.0000000000
     23134       186  PMPE      H9R           -46.5430154799      -49.4866516272        8.9993463161  MEMB      186             0.0000000000
     23135       186  PMPE      C217          -45.4273150086      -47.8354448817        8.3544759414  MEMB      186             0.0000000000
     23136       186  PMPE      H17R          -44.7136180405      -48.0492771422        9.1521538959  MEMB      186             0.0000000000
     23137       186  PMPE      H17S          -45.5345608500      -46.8564526126        7.9245287708  MEMB      186             0.0000000000
     23138       186  PMPE      C210          -45.5976094736      -48.8466345115        7.1888352210  MEMB      186             0.0000000000
     23139       186  PMPE      H10R          -44.8368638661      -49.6520133149        7.2588000187  MEMB      186             0.0000000000
     23140       186  PMPE      C211          -45.9406935739      -48.3037711043        5.7583183059  MEMB      186             0.0000000000
     23141       186  PMPE      H11R          -45.1764377826      -48.4379123471        4.8876936057  MEMB      186             0.0000000000
     23142       186  PMPE      H11S          -46.0718423424      -47.2092288709        5.8077730791  MEMB      186             0.0000000000
     23143       186  PMPE      C212          -46.8113595683      -49.2811077211        5.2917224048  MEMB      186             0.0000000000
     23144       186  PMPE      H12R          -47.5333711570      -49.5804634431        6.1001750090  MEMB      186             0.0000000000
     23145       186  PMPE      H12S          -46.3539278577      -50.2527506085        4.9923351083  MEMB      186             0.0000000000
     23146       186  PMPE      C213          -47.4185681860      -48.5082695767        4.1514637386  MEMB      186             0.0000000000
     23147       186  PMPE      H13R          -46.8519899671      -48.3465678589        3.2431081705  MEMB      186             0.0000000000
     23148       186  PMPE      H13S          -48.0409569720      -47.6674170104        4.5320950086  MEMB      186             0.0000000000
     23149       186  PMPE      C214          -48.2941344623      -49.2258561868        3.4695127484  MEMB      186             0.0000000000
     23150       186  PMPE      H14R          -48.4570580820      -49.7439847110        4.5466003466  MEMB      186             0.0000000000
     23151       186  PMPE      H14S          -48.0956187279      -50.2684114647        3.0563914150  MEMB      186             0.0000000000
     23152       186  PMPE      C215          -49.5344293109      -48.1788844478        2.6421902266  MEMB      186             0.0000000000
     23153       186  PMPE      H15R          -50.1840121881      -48.6127755971        1.5700072923  MEMB      186             0.0000000000
     23154       186  PMPE      H15S          -49.0834851415      -48.2109617218        1.9358645113  MEMB      186             0.0000000000
     23155       186  PMPE      C216          -50.6764556192      -47.3223823630        3.1277738251  MEMB      186             0.0000000000
     23156       186  PMPE      H16R          -51.5859024629      -47.8455900489        3.5515707647  MEMB      186             0.0000000000
     23157       186  PMPE      H16S          -50.1269774438      -46.7533184512        3.8584689189  MEMB      186             0.0000000000
     23158       186  PMPE      H16T          -50.9911089708      -46.8453686357        2.1997726585  MEMB      186             0.0000000000
     23159       186  PMPE      C33           -45.3013534749      -42.6111284145       14.4492865400  MEMB      186             0.0000000000
     23160       186  PMPE      H3X           -45.0082425116      -43.2499627449       15.3091104560  MEMB      186             0.0000000000
     23161       186  PMPE      H3Y           -44.4463588939      -42.3405502761       13.9438680057  MEMB      186             0.0000000000
     23162       186  PMPE      C34           -45.1194447696      -43.4395602239       13.1287912901  MEMB      186             0.0000000000
     23163       186  PMPE      H4X           -46.0501362499      -43.9507898983       13.1156704400  MEMB      186             0.0000000000
     23164       186  PMPE      H4Y           -44.2840140693      -44.1927398114       13.1791539473  MEMB      186             0.0000000000
     23165       186  PMPE      C35           -44.9757519234      -42.8509711838       11.7535682646  MEMB      186             0.0000000000
     23166       186  PMPE      H5X           -43.9444308446      -42.3452668432       11.6433171079  MEMB      186             0.0000000000
     23167       186  PMPE      H5Y           -45.7708078265      -42.0867348190       11.5217240396  MEMB      186             0.0000000000
     23168       186  PMPE      C36           -44.8571174723      -43.8653834183       10.8354109097  MEMB      186             0.0000000000
     23169       186  PMPE      H6X           -45.7162109462      -44.3675725370       10.4300589277  MEMB      186             0.0000000000
     23170       186  PMPE      H6Y           -43.9668862450      -44.4624993062       11.1206032564  MEMB      186             0.0000000000
     23171       186  PMPE      C37           -44.5175368442      -43.2754973873        9.6977006526  MEMB      186             0.0000000000
     23172       186  PMPE      H7X           -44.1858190694      -44.2376995430        9.1120746363  MEMB      186             0.0000000000
     23173       186  PMPE      H7Y           -43.6517394189      -42.6256952766        9.9973043478  MEMB      186             0.0000000000
     23174       186  PMPE      C38           -45.3075719019      -42.1760947818        9.0374936437  MEMB      186             0.0000000000
     23175       186  PMPE      H8X           -44.7962571421      -41.1524024067        9.0837007812  MEMB      186             0.0000000000
     23176       186  PMPE      H8Y           -46.2403586871      -42.0164632488        9.4518195557  MEMB      186             0.0000000000
     23177       186  PMPE      C39           -45.6262199120      -42.4539074483        7.6101928430  MEMB      186             0.0000000000
     23178       186  PMPE      H9X           -44.7164677260      -42.0427192317        7.1385783276  MEMB      186             0.0000000000
     23179       186  PMPE      H9Y           -46.3941033513      -41.7295030396        7.4781299061  MEMB      186             0.0000000000
     23180       186  PMPE      C310          -46.2229027826      -43.6751463424        6.9743213806  MEMB      186             0.0000000000
     23181       186  PMPE      H10X          -47.0246366358      -43.7261654246        7.7096577958  MEMB      186             0.0000000000
     23182       186  PMPE      H10Y          -45.5234738174      -44.4999584782        6.9220187256  MEMB      186             0.0000000000
     23183       186  PMPE      C311          -47.1163129212      -43.6730445861        5.7361479867  MEMB      186             0.0000000000
     23184       186  PMPE      H11X          -47.8299816651      -42.8174374635        5.8395193879  MEMB      186             0.0000000000
     23185       186  PMPE      H11Y          -47.5416090923      -44.6063774663        5.3904978888  MEMB      186             0.0000000000
     23186       186  PMPE      C312          -46.4233007946      -43.7953885982        4.4585260099  MEMB      186             0.0000000000
     23187       186  PMPE      H12X          -45.3146885424      -44.0212258505        4.5870035107  MEMB      186             0.0000000000
     23188       186  PMPE      H12Y          -46.3635285874      -42.8240646846        4.7018008093  MEMB      186             0.0000000000
     23189       186  PMPE      C313          -47.2776456568      -43.6714865341        3.0456065556  MEMB      186             0.0000000000
     23190       186  PMPE      H13X          -47.2030292678      -42.9415073473        2.1168492081  MEMB      186             0.0000000000
     23191       186  PMPE      H13Y          -48.0319566246      -42.8861313664        3.1196171725  MEMB      186             0.0000000000
     23192       186  PMPE      C314          -46.8749257681      -44.8768660059        2.3572727800  MEMB      186             0.0000000000
     23193       186  PMPE      H14X          -47.0305511328      -44.7038470544        1.3005885837  MEMB      186             0.0000000000
     23194       186  PMPE      H14Y          -47.6808060624      -45.3765557067        2.8963190920  MEMB      186             0.0000000000
     23195       186  PMPE      C315          -45.4631876808      -45.5228203332        2.5552535473  MEMB      186             0.0000000000
     23196       186  PMPE      H15X          -45.6348442100      -46.5243726036        2.1871509259  MEMB      186             0.0000000000
     23197       186  PMPE      H15Y          -45.2078622539      -45.6977680562        3.6114776525  MEMB      186             0.0000000000
     23198       186  PMPE      C316          -44.2428623867      -44.9752381204        1.7883784264  MEMB      186             0.0000000000
     23199       186  PMPE      H16X          -43.3543351587      -45.5767604837        1.7980446917  MEMB      186             0.0000000000
     23200       186  PMPE      H16Y          -43.9482430214      -44.0483116080        2.2631527255  MEMB      186             0.0000000000
     23201       186  PMPE      H16Z          -44.4485815333      -44.7145483852        0.7304018761  MEMB      186             0.0000000000
     23202       187  OYPE      N              51.9307586356      -35.5052822057       18.7601258498  MEMB      187             0.0000000000
     23203       187  OYPE      HN1            51.4409385783      -35.4768362027       17.8442083947  MEMB      187             0.0000000000
     23204       187  OYPE      HN2            51.9098396856      -34.5964751656       19.2629106960  MEMB      187             0.0000000000
     23205       187  OYPE      HN3            52.9146579274      -35.7882613358       18.5591664309  MEMB      187             0.0000000000
     23206       187  OYPE      C12            51.2521999761      -36.5059096885       19.6486168992  MEMB      187             0.0000000000
     23207       187  OYPE      H12A           50.1713218634      -36.2894781941       19.5618214009  MEMB      187             0.0000000000
     23208       187  OYPE      H12B           51.5705986543      -36.2189555960       20.6785115002  MEMB      187             0.0000000000
     23209       187  OYPE      C11            51.6012170359      -37.9282410421       19.1575405954  MEMB      187             0.0000000000
     23210       187  OYPE      H11A           51.3072512379      -38.0579440504       18.0902822845  MEMB      187             0.0000000000
     23211       187  OYPE      H11B           51.0589540221      -38.7417001999       19.6817801603  MEMB      187             0.0000000000
     23212       187  OYPE      P              53.6722633447      -39.4785607812       18.9297283032  MEMB      187             0.0000000000
     23213       187  OYPE      O13            52.8286753275      -40.5481547261       19.4632860002  MEMB      187             0.0000000000
     23214       187  OYPE      O14            55.0905542015      -39.3953807273       19.3401817888  MEMB      187             0.0000000000
     23215       187  OYPE      O11            53.5553239631      -39.4743431268       17.3359356185  MEMB      187             0.0000000000
     23216       187  OYPE      O12            53.0052438728      -38.0913429469       19.2989710446  MEMB      187             0.0000000000
     23217       187  OYPE      C1             54.2205156754      -38.3899434327       16.7124987846  MEMB      187             0.0000000000
     23218       187  OYPE      HA             55.2589943400      -38.3096133378       17.1049881052  MEMB      187             0.0000000000
     23219       187  OYPE      HB             53.6828163744      -37.4476718412       16.9411254965  MEMB      187             0.0000000000
     23220       187  OYPE      C2             54.3505075009      -38.5183430814       15.1581844285  MEMB      187             0.0000000000
     23221       187  OYPE      HS             54.7914534741      -37.5394884906       14.8590097971  MEMB      187             0.0000000000
     23222       187  OYPE      O21            53.1813774581      -38.8712579942       14.4686054346  MEMB      187             0.0000000000
     23223       187  OYPE      C21            52.3146836553      -37.9184287280       14.4722645417  MEMB      187             0.0000000000
     23224       187  OYPE      O22            52.4817285349      -36.7747609379       14.8702149706  MEMB      187             0.0000000000
     23225       187  OYPE      C22            51.0175209913      -38.5239393868       13.9917926749  MEMB      187             0.0000000000
     23226       187  OYPE      H2R            50.1975535286      -38.1580361328       14.6366281686  MEMB      187             0.0000000000
     23227       187  OYPE      H2S            51.0308401994      -39.6328627259       14.0498779813  MEMB      187             0.0000000000
     23228       187  OYPE      C3             55.2863128425      -39.6020634463       14.7269305199  MEMB      187             0.0000000000
     23229       187  OYPE      HX             55.0202235189      -40.5780961852       15.1098327333  MEMB      187             0.0000000000
     23230       187  OYPE      HY             55.9656444640      -39.2458743893       15.3621382939  MEMB      187             0.0000000000
     23231       187  OYPE      O31            55.7554532144      -39.6708713811       13.3749019419  MEMB      187             0.0000000000
     23232       187  OYPE      C31            56.5849474463      -38.7597148779       12.9395369666  MEMB      187             0.0000000000
     23233       187  OYPE      O32            56.7242916842      -37.6831592359       13.4938963737  MEMB      187             0.0000000000
     23234       187  OYPE      C32            57.2119192093      -39.1354057747       11.5765961540  MEMB      187             0.0000000000
     23235       187  OYPE      H2X            56.8435455211      -38.3398430239       10.9016567218  MEMB      187             0.0000000000
     23236       187  OYPE      H2Y            58.3180813802      -39.0751978435       11.6313491712  MEMB      187             0.0000000000
     23237       187  OYPE      C23            50.6228902239      -38.0165130189       12.6090854242  MEMB      187             0.0000000000
     23238       187  OYPE      H3R            50.4351059692      -36.9190685949       12.6670723586  MEMB      187             0.0000000000
     23239       187  OYPE      H3S            49.6303614288      -38.4853330891       12.4498118640  MEMB      187             0.0000000000
     23240       187  OYPE      C24            51.4895850440      -38.5177883772       11.4407768188  MEMB      187             0.0000000000
     23241       187  OYPE      H4R            50.8244233379      -38.5527485531       10.5530682845  MEMB      187             0.0000000000
     23242       187  OYPE      H4S            51.7926200119      -39.5772810911       11.6018543790  MEMB      187             0.0000000000
     23243       187  OYPE      C25            52.6865092087      -37.6108788142       11.1283611772  MEMB      187             0.0000000000
     23244       187  OYPE      H5R            53.2257614399      -37.8988257809       10.2015079856  MEMB      187             0.0000000000
     23245       187  OYPE      H5S            53.4353142149      -37.7463946258       11.9355999845  MEMB      187             0.0000000000
     23246       187  OYPE      C26            52.2925052870      -36.1307416502       10.9983375147  MEMB      187             0.0000000000
     23247       187  OYPE      H6R            52.6039274126      -35.6421052159       11.9543746736  MEMB      187             0.0000000000
     23248       187  OYPE      H6S            51.1867990755      -36.0540511357       10.9148581141  MEMB      187             0.0000000000
     23249       187  OYPE      C27            52.9874813839      -35.4688304897        9.8043136075  MEMB      187             0.0000000000
     23250       187  OYPE      H7R            52.5760167009      -34.4373109983        9.6734562334  MEMB      187             0.0000000000
     23251       187  OYPE      H7S            52.8308583625      -36.0638148051        8.8682402412  MEMB      187             0.0000000000
     23252       187  OYPE      C28            54.4847465962      -35.5080984067       10.0648081059  MEMB      187             0.0000000000
     23253       187  OYPE      H8R            54.8306331333      -36.5268498040        9.8635911490  MEMB      187             0.0000000000
     23254       187  OYPE      H8S            54.7081347642      -35.3349216703       11.1497520049  MEMB      187             0.0000000000
     23255       187  OYPE      C29            55.2194696260      -34.5601697634        9.2227855904  MEMB      187             0.0000000000
     23256       187  OYPE      H9R            55.6634222447      -33.9520207792        9.9467115796  MEMB      187             0.0000000000
     23257       187  OYPE      C210           55.4766027192      -34.5146011062        7.9097809521  MEMB      187             0.0000000000
     23258       187  OYPE      H10R           55.9215582736      -33.6168407257        7.4520194434  MEMB      187             0.0000000000
     23259       187  OYPE      C211           55.0000845992      -35.5517963298        6.9388939682  MEMB      187             0.0000000000
     23260       187  OYPE      H11R           54.3518150967      -36.3201801970        7.4238167301  MEMB      187             0.0000000000
     23261       187  OYPE      H11S           55.8999009420      -36.0046044636        6.4590837594  MEMB      187             0.0000000000
     23262       187  OYPE      C212           54.1221366091      -35.0418079517        5.8031212454  MEMB      187             0.0000000000
     23263       187  OYPE      H12R           54.0363466815      -35.8599096712        5.0505206053  MEMB      187             0.0000000000
     23264       187  OYPE      H12S           54.6155373795      -34.1718111659        5.3241026010  MEMB      187             0.0000000000
     23265       187  OYPE      C213           52.7068987642      -34.7007325060        6.2311178343  MEMB      187             0.0000000000
     23266       187  OYPE      H13R           52.7273589900      -33.8500064652        6.9458326871  MEMB      187             0.0000000000
     23267       187  OYPE      H13S           52.2127871700      -35.5236498483        6.7920029326  MEMB      187             0.0000000000
     23268       187  OYPE      C214           51.8827859061      -34.3333490964        5.0109214474  MEMB      187             0.0000000000
     23269       187  OYPE      H14R           52.3595876213      -33.5240397748        4.4074043561  MEMB      187             0.0000000000
     23270       187  OYPE      H14S           50.9846756059      -33.9945692607        5.5399275173  MEMB      187             0.0000000000
     23271       187  OYPE      C215           51.3581898089      -35.4986032223        4.1597410109  MEMB      187             0.0000000000
     23272       187  OYPE      H15R           50.6261339764      -36.0380062567        4.7896389090  MEMB      187             0.0000000000
     23273       187  OYPE      H15S           52.1230925137      -36.2341548618        3.9207655303  MEMB      187             0.0000000000
     23274       187  OYPE      C216           50.6005311518      -35.1251418229        2.9043144291  MEMB      187             0.0000000000
     23275       187  OYPE      H16R           49.8835198134      -35.8873444456        2.5447660878  MEMB      187             0.0000000000
     23276       187  OYPE      H16S           51.2029392462      -34.7516267155        2.0685354255  MEMB      187             0.0000000000
     23277       187  OYPE      H16T           50.0595868990      -34.3106954386        3.2822989623  MEMB      187             0.0000000000
     23278       187  OYPE      C33            56.9040631121      -40.5165673638       10.9675815598  MEMB      187             0.0000000000
     23279       187  OYPE      H3X            57.1670500704      -41.3411043595       11.6692901931  MEMB      187             0.0000000000
     23280       187  OYPE      H3Y            57.5295321727      -40.5820783628       10.0423317465  MEMB      187             0.0000000000
     23281       187  OYPE      C34            55.4627126039      -40.7105011493       10.6047140133  MEMB      187             0.0000000000
     23282       187  OYPE      H4X            54.8924652637      -40.7466702824       11.5603272308  MEMB      187             0.0000000000
     23283       187  OYPE      H4Y            55.0524116990      -39.8608015689       10.0342044360  MEMB      187             0.0000000000
     23284       187  OYPE      C35            55.3309715674      -41.9826546378        9.8513592549  MEMB      187             0.0000000000
     23285       187  OYPE      H5X            55.7143239056      -42.8463484192       10.4181699886  MEMB      187             0.0000000000
     23286       187  OYPE      H5Y            55.6507166256      -42.1252819076        8.8188498130  MEMB      187             0.0000000000
     23287       187  OYPE      C36            53.9472493407      -42.1491929363        9.7689092564  MEMB      187             0.0000000000
     23288       187  OYPE      H6X            53.9471706767      -43.1805533367        9.4369367072  MEMB      187             0.0000000000
     23289       187  OYPE      H6Y            53.6711963780      -42.4242962129       10.6707923874  MEMB      187             0.0000000000
     23290       187  OYPE      C37            52.8680996721      -41.1380345779        9.0841198544  MEMB      187             0.0000000000
     23291       187  OYPE      H7X            51.8373248535      -41.5433580411        8.9487071758  MEMB      187             0.0000000000
     23292       187  OYPE      H7Y            52.7943965743      -40.4019165404        9.8220641160  MEMB      187             0.0000000000
     23293       187  OYPE      C38            53.0758161447      -40.4392203582        7.7676501676  MEMB      187             0.0000000000
     23294       187  OYPE      H8X            54.1556457228      -40.2416914211        7.6088834469  MEMB      187             0.0000000000
     23295       187  OYPE      H8Y            52.7582697986      -41.1213738424        7.0268264573  MEMB      187             0.0000000000
     23296       187  OYPE      C39            52.0731152921      -39.6825059353        7.1174727834  MEMB      187             0.0000000000
     23297       187  OYPE      H9X            52.3800427265      -38.7596245357        7.5062463537  MEMB      187             0.0000000000
     23298       187  OYPE      C310           51.0229065541      -39.9752878664        6.3069590294  MEMB      187             0.0000000000
     23299       187  OYPE      H10X           50.3149431612      -39.2437359328        6.0882690916  MEMB      187             0.0000000000
     23300       187  OYPE      C311           50.5318155774      -41.2538012498        5.7851758282  MEMB      187             0.0000000000
     23301       187  OYPE      H11X           51.4300487145      -41.4067587652        5.3596065566  MEMB      187             0.0000000000
     23302       187  OYPE      H11Y           50.4808054523      -42.1323419256        6.4431342935  MEMB      187             0.0000000000
     23303       187  OYPE      C312           49.5782132139      -41.2463033700        4.6028251923  MEMB      187             0.0000000000
     23304       187  OYPE      H12X           48.6361397755      -40.8154208757        4.9824887047  MEMB      187             0.0000000000
     23305       187  OYPE      H12Y           49.3508807623      -42.3017231760        4.3486191828  MEMB      187             0.0000000000
     23306       187  OYPE      C313           49.9817328351      -40.3726890864        3.3756717831  MEMB      187             0.0000000000
     23307       187  OYPE      H13X           49.1735522741      -40.5221347802        2.6403540809  MEMB      187             0.0000000000
     23308       187  OYPE      H13Y           50.1003655505      -39.3430850931        3.6759434478  MEMB      187             0.0000000000
     23309       187  OYPE      C314           51.3076363075      -40.5190925658        2.6777561945  MEMB      187             0.0000000000
     23310       187  OYPE      H14X           50.9213029033      -41.4691177439        2.5366028484  MEMB      187             0.0000000000
     23311       187  OYPE      H14Y           52.2252384397      -40.4960270354        3.2990729996  MEMB      187             0.0000000000
     23312       187  OYPE      C315           51.6884792951      -40.1532763361        1.2663425807  MEMB      187             0.0000000000
     23313       187  OYPE      H15X           50.9746547906      -40.6079209895        0.5665216934  MEMB      187             0.0000000000
     23314       187  OYPE      H15Y           52.6607010111      -40.5289677616        0.9915017621  MEMB      187             0.0000000000
     23315       187  OYPE      C316           51.9678387151      -38.6937953833        1.2660075240  MEMB      187             0.0000000000
     23316       187  OYPE      H16X           51.0174068997      -38.2427734050        1.5938370006  MEMB      187             0.0000000000
     23317       187  OYPE      H16Y           52.2821541647      -38.2592522555        0.3007391288  MEMB      187             0.0000000000
     23318       187  OYPE      C317           53.0591673064      -38.3108699575        2.2663745127  MEMB      187             0.0000000000
     23319       187  OYPE      H17X           52.7574313702      -38.5858850089        3.2962163203  MEMB      187             0.0000000000
     23320       187  OYPE      H17Y           53.1202115507      -37.2013287578        2.2658245115  MEMB      187             0.0000000000
     23321       187  OYPE      C318           54.4328302187      -38.9261520380        2.0003253053  MEMB      187             0.0000000000
     23322       187  OYPE      H18X           54.7343813740      -38.7763287462        0.9402857932  MEMB      187             0.0000000000
     23323       187  OYPE      H18Y           55.1237791141      -38.4146540225        2.6924033482  MEMB      187             0.0000000000
     23324       187  OYPE      H18Z           54.4910622125      -40.0037075172        2.2423831528  MEMB      187             0.0000000000
     23325       188  PMPE      N             -55.3329439822       38.3072219418       21.1522214935  MEMB      188             0.0000000000
     23326       188  PMPE      HN1           -54.6853180211       39.0976150997       20.9461714807  MEMB      188             0.0000000000
     23327       188  PMPE      HN2           -56.3278103467       38.4517019528       20.8376214987  MEMB      188             0.0000000000
     23328       188  PMPE      HN3           -55.3470745438       38.1063387551       22.1826101043  MEMB      188             0.0000000000
     23329       188  PMPE      C12           -54.7500833057       37.1101154254       20.4342747589  MEMB      188             0.0000000000
     23330       188  PMPE      H12A          -55.3226727648       36.1713560384       20.5523226785  MEMB      188             0.0000000000
     23331       188  PMPE      H12B          -53.8004453428       36.9277462751       20.9425845120  MEMB      188             0.0000000000
     23332       188  PMPE      C11           -54.5387305529       37.4167895781       18.9780070335  MEMB      188             0.0000000000
     23333       188  PMPE      H11A          -55.4934904148       37.7016169451       18.4786254798  MEMB      188             0.0000000000
     23334       188  PMPE      H11B          -54.2441145793       36.4595629790       18.4823041911  MEMB      188             0.0000000000
     23335       188  PMPE      P             -52.1068853320       38.1067071337       18.2532239152  MEMB      188             0.0000000000
     23336       188  PMPE      O13           -52.4021511670       37.3384182928       17.0434882816  MEMB      188             0.0000000000
     23337       188  PMPE      O14           -51.2921542920       37.5443443872       19.3306460709  MEMB      188             0.0000000000
     23338       188  PMPE      O11           -51.5896198078       39.5317665746       17.8835045952  MEMB      188             0.0000000000
     23339       188  PMPE      O12           -53.5518081070       38.4522932953       18.9033251216  MEMB      188             0.0000000000
     23340       188  PMPE      C1            -52.5607930659       40.3569369148       17.3425981201  MEMB      188             0.0000000000
     23341       188  PMPE      HA            -51.9307314045       41.1396745263       17.1874279117  MEMB      188             0.0000000000
     23342       188  PMPE      HB            -53.3636162107       40.5657690470       18.0754734388  MEMB      188             0.0000000000
     23343       188  PMPE      C2            -52.7639493986       40.3408001714       15.8133438136  MEMB      188             0.0000000000
     23344       188  PMPE      HS            -52.8974979859       39.2964602948       15.5298843419  MEMB      188             0.0000000000
     23345       188  PMPE      O21           -51.6428385629       40.9538048310       15.0968649908  MEMB      188             0.0000000000
     23346       188  PMPE      C21           -50.8046270697       40.1488105815       14.4366260666  MEMB      188             0.0000000000
     23347       188  PMPE      O22           -50.6548752177       38.9605653807       14.6038900053  MEMB      188             0.0000000000
     23348       188  PMPE      C22           -50.1242561362       40.9381342975       13.2982264707  MEMB      188             0.0000000000
     23349       188  PMPE      H2R           -49.0799361349       40.5732191780       13.1389802014  MEMB      188             0.0000000000
     23350       188  PMPE      H2S           -50.1158041512       42.0102887747       13.5837255303  MEMB      188             0.0000000000
     23351       188  PMPE      C3            -54.0550729481       41.1209057160       15.4500514789  MEMB      188             0.0000000000
     23352       188  PMPE      HX            -53.8829975883       42.1695426629       15.7728801456  MEMB      188             0.0000000000
     23353       188  PMPE      HY            -54.9575703333       40.7430761485       16.0010596365  MEMB      188             0.0000000000
     23354       188  PMPE      O31           -54.1956962541       41.1886789240       14.0261459538  MEMB      188             0.0000000000
     23355       188  PMPE      C31           -54.8723244888       40.2414416822       13.4144791590  MEMB      188             0.0000000000
     23356       188  PMPE      O32           -55.4764830323       39.3243556340       13.9351875374  MEMB      188             0.0000000000
     23357       188  PMPE      C32           -54.8365930050       40.5045224892       11.9168663740  MEMB      188             0.0000000000
     23358       188  PMPE      H2X           -53.8810264316       40.2066036803       11.4405941255  MEMB      188             0.0000000000
     23359       188  PMPE      H2Y           -55.0298106579       41.5815465105       11.7739255464  MEMB      188             0.0000000000
     23360       188  PMPE      C23           -50.9077095268       40.8837258837       11.9713856426  MEMB      188             0.0000000000
     23361       188  PMPE      H3R           -51.8687162880       41.4201004468       12.0663291461  MEMB      188             0.0000000000
     23362       188  PMPE      H3S           -51.1730487658       39.8552219651       11.6798236319  MEMB      188             0.0000000000
     23363       188  PMPE      C24           -50.1061572373       41.5900429778       10.8859094752  MEMB      188             0.0000000000
     23364       188  PMPE      H4R           -49.0803075454       41.1837550834       10.9199147384  MEMB      188             0.0000000000
     23365       188  PMPE      H4S           -49.8833579710       42.6176967886       11.1722588856  MEMB      188             0.0000000000
     23366       188  PMPE      C25           -50.7631963857       41.4966516605        9.4950094545  MEMB      188             0.0000000000
     23367       188  PMPE      H5R           -51.8127228974       41.7166130844        9.7534389290  MEMB      188             0.0000000000
     23368       188  PMPE      H5S           -50.9514947721       40.5266440208        9.0865914686  MEMB      188             0.0000000000
     23369       188  PMPE      C26           -50.0873544289       42.4498661981        8.4723132632  MEMB      188             0.0000000000
     23370       188  PMPE      H6R           -49.8319141638       43.4022764489        9.0051119086  MEMB      188             0.0000000000
     23371       188  PMPE      H6S           -50.8941905483       42.7261379592        7.7458610277  MEMB      188             0.0000000000
     23372       188  PMPE      C27           -48.8875693365       42.1074312593        7.7721540966  MEMB      188             0.0000000000
     23373       188  PMPE      H7R           -48.1971713152       41.5040606312        8.4161080225  MEMB      188             0.0000000000
     23374       188  PMPE      H7S           -48.3669755201       42.9898840779        7.3791666368  MEMB      188             0.0000000000
     23375       188  PMPE      C28           -49.2994541165       41.4302005868        6.5448823884  MEMB      188             0.0000000000
     23376       188  PMPE      H8R           -49.9727666863       41.7645256728        5.8007079395  MEMB      188             0.0000000000
     23377       188  PMPE      H8S           -50.1002999880       40.6421023760        6.7972861843  MEMB      188             0.0000000000
     23378       188  PMPE      C29           -47.8508084588       41.0001008134        5.9503263511  MEMB      188             0.0000000000
     23379       188  PMPE      H9R           -47.4570632122       40.1818473676        6.5171431633  MEMB      188             0.0000000000
     23380       188  PMPE      C217          -47.2473511861       41.8956189054        5.0949624183  MEMB      188             0.0000000000
     23381       188  PMPE      H17R          -46.2120881652       41.8159838627        5.2567352615  MEMB      188             0.0000000000
     23382       188  PMPE      H17S          -48.0255897941       42.5446846350        4.7796840443  MEMB      188             0.0000000000
     23383       188  PMPE      C210          -47.6159620227       40.8297606154        4.1845442040  MEMB      188             0.0000000000
     23384       188  PMPE      H10R          -46.9050737828       39.9727161456        3.8719138009  MEMB      188             0.0000000000
     23385       188  PMPE      C211          -49.0599340351       40.8336143051        3.2653075152  MEMB      188             0.0000000000
     23386       188  PMPE      H11R          -49.4735416072       41.7641004747        3.3795806096  MEMB      188             0.0000000000
     23387       188  PMPE      H11S          -50.1033137141       40.4795261908        3.7063967950  MEMB      188             0.0000000000
     23388       188  PMPE      C212          -48.8232711444       39.8799816634        1.9636192073  MEMB      188             0.0000000000
     23389       188  PMPE      H12R          -48.3981898501       38.9075138921        1.9348511305  MEMB      188             0.0000000000
     23390       188  PMPE      H12S          -47.7004999814       39.9695391003        1.8202680366  MEMB      188             0.0000000000
     23391       188  PMPE      C213          -49.9724147356       40.0204052516        1.0066577765  MEMB      188             0.0000000000
     23392       188  PMPE      H13R          -50.1624674156       41.0290796935        1.4062934895  MEMB      188             0.0000000000
     23393       188  PMPE      H13S          -50.7623499046       39.4298570901        1.3760049347  MEMB      188             0.0000000000
     23394       188  PMPE      C214          -49.7398329549       39.8078412950       -0.5925868190  MEMB      188             0.0000000000
     23395       188  PMPE      H14R          -50.3380557067       39.3954552773       -1.1895704928  MEMB      188             0.0000000000
     23396       188  PMPE      H14S          -49.2528607837       38.6304948986       -0.7151134400  MEMB      188             0.0000000000
     23397       188  PMPE      C215          -48.8292976106       41.0583969854       -1.7298028794  MEMB      188             0.0000000000
     23398       188  PMPE      H15R          -47.8740321210       41.1326786052       -2.0583700299  MEMB      188             0.0000000000
     23399       188  PMPE      H15S          -47.2330553521       41.3286499821       -1.4151760711  MEMB      188             0.0000000000
     23400       188  PMPE      C216          -49.6247766266       42.0113834556       -1.8272738121  MEMB      188             0.0000000000
     23401       188  PMPE      H16R          -48.9208463162       42.7435199038       -2.2140020068  MEMB      188             0.0000000000
     23402       188  PMPE      H16S          -50.3209748389       41.5522501758       -2.3547749119  MEMB      188             0.0000000000
     23403       188  PMPE      H16T          -50.0053134545       42.5944936284       -0.9903987009  MEMB      188             0.0000000000
     23404       188  PMPE      C33           -55.8935770645       39.6061595041       11.2732855784  MEMB      188             0.0000000000
     23405       188  PMPE      H3X           -56.9000425633       39.8588845507       11.6681411252  MEMB      188             0.0000000000
     23406       188  PMPE      H3Y           -55.7020239005       38.5354806354       11.4795563088  MEMB      188             0.0000000000
     23407       188  PMPE      C34           -55.8432673811       39.5585396264        9.7902468444  MEMB      188             0.0000000000
     23408       188  PMPE      H4X           -56.4053555986       38.6439523969        9.4594082565  MEMB      188             0.0000000000
     23409       188  PMPE      H4Y           -54.8137481673       39.5125543380        9.4047579835  MEMB      188             0.0000000000
     23410       188  PMPE      C35           -56.4155008748       40.7656295228        9.2746936026  MEMB      188             0.0000000000
     23411       188  PMPE      H5X           -56.0667387462       41.7892034037        9.5856753601  MEMB      188             0.0000000000
     23412       188  PMPE      H5Y           -57.4826727910       40.6579127620        9.6121318981  MEMB      188             0.0000000000
     23413       188  PMPE      C36           -56.1584971154       40.5886766670        7.8127692710  MEMB      188             0.0000000000
     23414       188  PMPE      H6X           -56.5060596022       41.6095606500        7.8433277070  MEMB      188             0.0000000000
     23415       188  PMPE      H6Y           -56.8367020277       39.9136998795        7.2244595691  MEMB      188             0.0000000000
     23416       188  PMPE      C37           -54.9732615927       41.1084087400        7.0176640778  MEMB      188             0.0000000000
     23417       188  PMPE      H7X           -54.3234660042       40.2852998225        7.1879778368  MEMB      188             0.0000000000
     23418       188  PMPE      H7Y           -54.6207395826       42.0563651053        7.4498887219  MEMB      188             0.0000000000
     23419       188  PMPE      C38           -54.9767509896       41.3394963421        5.4940699344  MEMB      188             0.0000000000
     23420       188  PMPE      H8X           -54.1899186376       42.0204532950        5.2183534251  MEMB      188             0.0000000000
     23421       188  PMPE      H8Y           -55.7948539021       41.9315709485        5.1949488145  MEMB      188             0.0000000000
     23422       188  PMPE      C39           -55.2688861840       40.2266580501        4.5209592318  MEMB      188             0.0000000000
     23423       188  PMPE      H9X           -55.7250347867       40.6865519059        3.6230875374  MEMB      188             0.0000000000
     23424       188  PMPE      H9Y           -56.0739983614       39.5637718924        4.8834930830  MEMB      188             0.0000000000
     23425       188  PMPE      C310          -54.0022709220       39.4954879322        4.1280809291  MEMB      188             0.0000000000
     23426       188  PMPE      H10X          -54.2399974866       38.6050018388        3.5187124955  MEMB      188             0.0000000000
     23427       188  PMPE      H10Y          -53.5130369658       39.1627548447        5.0666795668  MEMB      188             0.0000000000
     23428       188  PMPE      C311          -53.1010543881       40.2656068091        3.1633867738  MEMB      188             0.0000000000
     23429       188  PMPE      H11X          -52.2793405524       39.6061814135        2.8179485171  MEMB      188             0.0000000000
     23430       188  PMPE      H11Y          -52.5854945267       41.0607859302        3.7253154732  MEMB      188             0.0000000000
     23431       188  PMPE      C312          -53.9065719569       40.7206532759        1.9353580351  MEMB      188             0.0000000000
     23432       188  PMPE      H12X          -54.6149384705       41.5272783162        2.2039650575  MEMB      188             0.0000000000
     23433       188  PMPE      H12Y          -54.4952383390       39.8469119298        1.5565791957  MEMB      188             0.0000000000
     23434       188  PMPE      C313          -53.0294883739       41.1815218957        0.8042510961  MEMB      188             0.0000000000
     23435       188  PMPE      H13X          -52.5870492373       40.2100439240        0.5000205180  MEMB      188             0.0000000000
     23436       188  PMPE      H13Y          -52.2465058953       41.8476440212        1.2034976109  MEMB      188             0.0000000000
     23437       188  PMPE      C314          -53.8239072736       41.9491606077       -0.2653150308  MEMB      188             0.0000000000
     23438       188  PMPE      H14X          -53.1738856428       42.3931213508       -0.9823483076  MEMB      188             0.0000000000
     23439       188  PMPE      H14Y          -54.4662400858       42.6761071111        0.1505141033  MEMB      188             0.0000000000
     23440       188  PMPE      C315          -54.9347705153       41.2921596538       -1.0397403090  MEMB      188             0.0000000000
     23441       188  PMPE      H15X          -55.2802005093       41.7323906210       -1.9859735279  MEMB      188             0.0000000000
     23442       188  PMPE      H15Y          -55.5453172914       40.4765372724       -0.5872768910  MEMB      188             0.0000000000
     23443       188  PMPE      C316          -54.3137383409       40.5883412130       -1.6595586173  MEMB      188             0.0000000000
     23444       188  PMPE      H16X          -54.7893658661       39.6653192803       -2.2617926345  MEMB      188             0.0000000000
     23445       188  PMPE      H16Y          -53.9039983915       40.0609727546       -0.9222805953  MEMB      188             0.0000000000
     23446       188  PMPE      H16Z          -53.2900513269       41.0566225252       -2.0606730771  MEMB      188             0.0000000000
     23447       189  PMPE      N              38.6063726256       53.4625280436       19.7238082505  MEMB      189             0.0000000000
     23448       189  PMPE      HN1            38.5182926167       54.3246004481       20.3205475312  MEMB      189             0.0000000000
     23449       189  PMPE      HN2            39.3414988621       53.6165822270       18.9966697536  MEMB      189             0.0000000000
     23450       189  PMPE      HN3            37.6946108390       53.2177909825       19.3023153579  MEMB      189             0.0000000000
     23451       189  PMPE      C12            39.0920295160       52.2916186642       20.5001854787  MEMB      189             0.0000000000
     23452       189  PMPE      H12A           38.2262917170       51.8346154328       21.0212776775  MEMB      189             0.0000000000
     23453       189  PMPE      H12B           39.8057256423       52.6747053167       21.2583058798  MEMB      189             0.0000000000
     23454       189  PMPE      C11            39.8135886105       51.2908003298       19.5819613767  MEMB      189             0.0000000000
     23455       189  PMPE      H11A           39.3023938435       51.0394042113       18.6200889636  MEMB      189             0.0000000000
     23456       189  PMPE      H11B           39.8545639147       50.3953021657       20.2343718039  MEMB      189             0.0000000000
     23457       189  PMPE      P              42.1985992442       50.9066553409       18.4787219104  MEMB      189             0.0000000000
     23458       189  PMPE      O13            42.1530078863       49.4856986060       18.8674680250  MEMB      189             0.0000000000
     23459       189  PMPE      O14            43.4715245794       51.6446755358       18.4809736877  MEMB      189             0.0000000000
     23460       189  PMPE      O11            41.5046321396       51.0209404003       17.0827429472  MEMB      189             0.0000000000
     23461       189  PMPE      O12            41.1351608930       51.7340584425       19.3374980631  MEMB      189             0.0000000000
     23462       189  PMPE      C1             41.3815908240       52.1856046094       16.2940568238  MEMB      189             0.0000000000
     23463       189  PMPE      HA             42.3733411771       52.4286474452       15.8480272234  MEMB      189             0.0000000000
     23464       189  PMPE      HB             41.0348908757       53.0589610325       16.8898297611  MEMB      189             0.0000000000
     23465       189  PMPE      C2             40.3979223397       51.9367671288       15.1235273298  MEMB      189             0.0000000000
     23466       189  PMPE      HS             39.3843588742       51.6941531481       15.5403070513  MEMB      189             0.0000000000
     23467       189  PMPE      O21            40.9632924633       50.9075032493       14.2867486506  MEMB      189             0.0000000000
     23468       189  PMPE      C21            40.1324345572       50.2098208606       13.5513650054  MEMB      189             0.0000000000
     23469       189  PMPE      O22            38.9130737918       50.2882564856       13.6073324258  MEMB      189             0.0000000000
     23470       189  PMPE      C22            40.9376109879       49.2637403826       12.6620772022  MEMB      189             0.0000000000
     23471       189  PMPE      H2R            41.2170360190       48.3747172315       13.2686673831  MEMB      189             0.0000000000
     23472       189  PMPE      H2S            41.8761710391       49.6902370768       12.2694747205  MEMB      189             0.0000000000
     23473       189  PMPE      C3             40.3366055456       53.2580097121       14.3520971970  MEMB      189             0.0000000000
     23474       189  PMPE      HX             41.2920403854       53.4926935604       13.9308647086  MEMB      189             0.0000000000
     23475       189  PMPE      HY             40.0796656959       54.0637644248       15.0552126766  MEMB      189             0.0000000000
     23476       189  PMPE      O31            39.4456484116       53.2942327761       13.2925260219  MEMB      189             0.0000000000
     23477       189  PMPE      C31            39.5866500483       52.9215991247       12.0743617257  MEMB      189             0.0000000000
     23478       189  PMPE      O32            40.6294298820       52.6353147614       11.5481489349  MEMB      189             0.0000000000
     23479       189  PMPE      C32            38.3015076709       53.0301122338       11.2742505493  MEMB      189             0.0000000000
     23480       189  PMPE      H2X            38.2017021182       54.1436608270       11.3196676149  MEMB      189             0.0000000000
     23481       189  PMPE      H2Y            37.4422248898       52.4224829809       11.6993487576  MEMB      189             0.0000000000
     23482       189  PMPE      C23            40.1090314266       48.9519346763       11.4695967228  MEMB      189             0.0000000000
     23483       189  PMPE      H3R            39.7375272515       49.7853383671       10.8302739143  MEMB      189             0.0000000000
     23484       189  PMPE      H3S            39.2306120419       48.3781664076       11.8815000443  MEMB      189             0.0000000000
     23485       189  PMPE      C24            40.9014638489       48.1429395256       10.5392752166  MEMB      189             0.0000000000
     23486       189  PMPE      H4R            39.9404333751       48.0763764487        9.9941742600  MEMB      189             0.0000000000
     23487       189  PMPE      H4S            41.3778751344       47.2009576901       10.9480366176  MEMB      189             0.0000000000
     23488       189  PMPE      C25            41.9370250255       48.5546215553        9.6411690050  MEMB      189             0.0000000000
     23489       189  PMPE      H5R            42.7277633148       48.7437543849       10.3581933313  MEMB      189             0.0000000000
     23490       189  PMPE      H5S            41.4234719614       49.3831552471        9.1739352370  MEMB      189             0.0000000000
     23491       189  PMPE      C26            42.4949250846       47.6589801939        8.5855122472  MEMB      189             0.0000000000
     23492       189  PMPE      H6R            41.7852990548       47.3641877206        7.9762038195  MEMB      189             0.0000000000
     23493       189  PMPE      H6S            42.5958330428       46.6288993178        8.5794032047  MEMB      189             0.0000000000
     23494       189  PMPE      C27            43.6397659912       48.1444495680        7.9220083436  MEMB      189             0.0000000000
     23495       189  PMPE      H7R            43.9495123798       47.3384949262        7.3262701928  MEMB      189             0.0000000000
     23496       189  PMPE      H7S            44.3493292694       48.3025714339        8.7355188725  MEMB      189             0.0000000000
     23497       189  PMPE      C28            43.2511219531       49.3310428983        7.1240990376  MEMB      189             0.0000000000
     23498       189  PMPE      H8R            43.1327065874       50.1441361696        7.8553165592  MEMB      189             0.0000000000
     23499       189  PMPE      H8S            42.2391567777       49.2544227381        6.6789780992  MEMB      189             0.0000000000
     23500       189  PMPE      C29            44.2028254235       49.5247313099        5.9644360221  MEMB      189             0.0000000000
     23501       189  PMPE      H9R            44.0273876154       48.9560153878        5.0552963955  MEMB      189             0.0000000000
     23502       189  PMPE      C217           45.6373690088       49.7044727576        6.2766068794  MEMB      189             0.0000000000
     23503       189  PMPE      H17R           46.4319832897       49.4614296477        5.5688232576  MEMB      189             0.0000000000
     23504       189  PMPE      H17S           45.7923983114       49.8790079916        7.2826145375  MEMB      189             0.0000000000
     23505       189  PMPE      C210           44.8004648551       50.8690424732        5.7523451973  MEMB      189             0.0000000000
     23506       189  PMPE      H10R           44.9586693583       51.0908460121        4.6938189257  MEMB      189             0.0000000000
     23507       189  PMPE      C211           44.2274628764       51.9484651159        6.6885112921  MEMB      189             0.0000000000
     23508       189  PMPE      H11R           44.7113794568       52.9410127668        6.6171912756  MEMB      189             0.0000000000
     23509       189  PMPE      H11S           44.3438119998       51.6408963240        7.7453544328  MEMB      189             0.0000000000
     23510       189  PMPE      C212           42.8316757531       52.3428439782        6.3379154709  MEMB      189             0.0000000000
     23511       189  PMPE      H12R           42.5195467353       53.2227406208        6.9363902969  MEMB      189             0.0000000000
     23512       189  PMPE      H12S           42.1797477470       51.5006599167        6.6053947362  MEMB      189             0.0000000000
     23513       189  PMPE      C213           42.6220806435       52.6456685951        4.8659137383  MEMB      189             0.0000000000
     23514       189  PMPE      H13R           41.5592372404       52.9453695134        4.8320742775  MEMB      189             0.0000000000
     23515       189  PMPE      H13S           42.7426247950       51.7269520338        4.2587509346  MEMB      189             0.0000000000
     23516       189  PMPE      C214           43.4317635709       53.7965356013        4.2692132273  MEMB      189             0.0000000000
     23517       189  PMPE      H14R           44.5078942488       53.5185258828        4.2231343123  MEMB      189             0.0000000000
     23518       189  PMPE      H14S           43.2816387239       54.6764951426        4.9423702428  MEMB      189             0.0000000000
     23519       189  PMPE      C215           43.0452565935       54.0289852923        2.8053715284  MEMB      189             0.0000000000
     23520       189  PMPE      H15R           43.3498858237       53.1309165732        2.2348102092  MEMB      189             0.0000000000
     23521       189  PMPE      H15S           43.6400756332       54.8533455994        2.3399234586  MEMB      189             0.0000000000
     23522       189  PMPE      C216           41.5485548017       54.0819558055        2.5114664435  MEMB      189             0.0000000000
     23523       189  PMPE      H16R           41.0179398011       54.7974039642        3.2039710201  MEMB      189             0.0000000000
     23524       189  PMPE      H16S           41.4889157670       54.4387262414        1.4406496577  MEMB      189             0.0000000000
     23525       189  PMPE      H16T           41.0632903575       53.1218766314        2.6080132578  MEMB      189             0.0000000000
     23526       189  PMPE      C33            38.3124052699       52.8772612680        9.7558223769  MEMB      189             0.0000000000
     23527       189  PMPE      H3X            37.2542871168       52.8793906586        9.3881420253  MEMB      189             0.0000000000
     23528       189  PMPE      H3Y            38.7839323934       51.9033707253        9.5660716126  MEMB      189             0.0000000000
     23529       189  PMPE      C34            39.0092844011       54.0571651178        9.0601504813  MEMB      189             0.0000000000
     23530       189  PMPE      H4X            40.0326171248       54.1765628392        9.4761602777  MEMB      189             0.0000000000
     23531       189  PMPE      H4Y            38.3730634576       54.9562924639        9.2500957055  MEMB      189             0.0000000000
     23532       189  PMPE      C35            39.2594949988       53.9549029166        7.5460953010  MEMB      189             0.0000000000
     23533       189  PMPE      H5X            39.9111427151       53.0920952060        7.2955735437  MEMB      189             0.0000000000
     23534       189  PMPE      H5Y            39.6862709371       54.8964360859        7.1610339512  MEMB      189             0.0000000000
     23535       189  PMPE      C36            38.0127188983       53.7927333350        6.7534350999  MEMB      189             0.0000000000
     23536       189  PMPE      H6X            37.3672460191       54.6851228544        6.7024661374  MEMB      189             0.0000000000
     23537       189  PMPE      H6Y            37.5209197036       53.1491920128        7.4513210799  MEMB      189             0.0000000000
     23538       189  PMPE      C37            38.1266320755       53.1121957861        5.3901691721  MEMB      189             0.0000000000
     23539       189  PMPE      H7X            38.7960203839       53.6363514085        4.6976266144  MEMB      189             0.0000000000
     23540       189  PMPE      H7Y            37.0861184285       53.1299078016        5.0119799135  MEMB      189             0.0000000000
     23541       189  PMPE      C38            38.5844192707       51.6649617213        5.3032342202  MEMB      189             0.0000000000
     23542       189  PMPE      H8X            38.0026802150       51.0571418393        6.0342756368  MEMB      189             0.0000000000
     23543       189  PMPE      H8Y            39.6665196951       51.7211429670        5.5175563842  MEMB      189             0.0000000000
     23544       189  PMPE      C39            38.3467619806       51.2073071361        3.8654375114  MEMB      189             0.0000000000
     23545       189  PMPE      H9X            38.7819940644       51.8471160327        3.0957257688  MEMB      189             0.0000000000
     23546       189  PMPE      H9Y            37.2821347578       51.1336919829        3.7538744987  MEMB      189             0.0000000000
     23547       189  PMPE      C310           38.7959224230       49.8766036979        3.4497137860  MEMB      189             0.0000000000
     23548       189  PMPE      H10X           38.1678571174       49.4718226225        2.5979819617  MEMB      189             0.0000000000
     23549       189  PMPE      H10Y           38.5193113500       49.3575792155        4.3873310604  MEMB      189             0.0000000000
     23550       189  PMPE      C311           40.2645599342       49.8089092349        3.0593607911  MEMB      189             0.0000000000
     23551       189  PMPE      H11X           40.8381499857       48.8729583119        3.0319916126  MEMB      189             0.0000000000
     23552       189  PMPE      H11Y           40.7897199962       50.4561690481        3.7474074178  MEMB      189             0.0000000000
     23553       189  PMPE      C312           40.5285593187       50.2398135516        1.6544658211  MEMB      189             0.0000000000
     23554       189  PMPE      H12X           40.0946273391       51.2407056975        1.5286711554  MEMB      189             0.0000000000
     23555       189  PMPE      H12Y           40.0444630373       49.5552207623        0.9352011670  MEMB      189             0.0000000000
     23556       189  PMPE      C313           42.0062137547       50.2534062195        1.3453191889  MEMB      189             0.0000000000
     23557       189  PMPE      H13X           42.4413159444       49.2291149466        1.4173731410  MEMB      189             0.0000000000
     23558       189  PMPE      H13Y           42.5772505353       50.9348842001        2.0257354157  MEMB      189             0.0000000000
     23559       189  PMPE      C314           42.1740568746       50.8641931229       -0.0260533766  MEMB      189             0.0000000000
     23560       189  PMPE      H14X           41.7343275191       51.8872735268        0.0567189642  MEMB      189             0.0000000000
     23561       189  PMPE      H14Y           41.6553858657       50.3471551081       -0.8588014959  MEMB      189             0.0000000000
     23562       189  PMPE      C315           43.6467515979       51.0012895932       -0.3106406828  MEMB      189             0.0000000000
     23563       189  PMPE      H15X           43.9939766576       51.6578815650        0.5120768960  MEMB      189             0.0000000000
     23564       189  PMPE      H15Y           43.7867035673       51.4987503694       -1.2899065342  MEMB      189             0.0000000000
     23565       189  PMPE      C316           44.4839631541       49.7286951606       -0.2345746937  MEMB      189             0.0000000000
     23566       189  PMPE      H16X           45.5093844470       49.9505592757       -0.5814792095  MEMB      189             0.0000000000
     23567       189  PMPE      H16Y           44.1135224865       48.9023489288       -0.8715823377  MEMB      189             0.0000000000
     23568       189  PMPE      H16Z           44.5442126296       49.3920421030        0.8217915781  MEMB      189             0.0000000000
     23569       190  PMPE      N              48.2806401604      -45.6763915774       21.7287903788  MEMB      190             0.0000000000
     23570       190  PMPE      HN1            47.3112347090      -45.9880355702       21.4741636518  MEMB      190             0.0000000000
     23571       190  PMPE      HN2            48.3804849648      -45.5684485358       22.7577811444  MEMB      190             0.0000000000
     23572       190  PMPE      HN3            48.5335322273      -44.7787483989       21.2737342953  MEMB      190             0.0000000000
     23573       190  PMPE      C12            49.2185299397      -46.7569106041       21.2776729360  MEMB      190             0.0000000000
     23574       190  PMPE      H12A           48.6050696866      -47.6856776915       21.2445339168  MEMB      190             0.0000000000
     23575       190  PMPE      H12B           50.0648197264      -46.7748288809       21.9853581961  MEMB      190             0.0000000000
     23576       190  PMPE      C11            49.8422076764      -46.5990648270       19.9190447221  MEMB      190             0.0000000000
     23577       190  PMPE      H11A           50.4588616925      -47.4991733114       19.7314583798  MEMB      190             0.0000000000
     23578       190  PMPE      H11B           50.4623921916      -45.6773487778       19.8518978842  MEMB      190             0.0000000000
     23579       190  PMPE      P              48.7366105192      -45.6359964178       17.8929033225  MEMB      190             0.0000000000
     23580       190  PMPE      O13            48.9195680527      -44.2419648366       18.3552286957  MEMB      190             0.0000000000
     23581       190  PMPE      O14            47.4563886862      -46.2015855047       17.6439016766  MEMB      190             0.0000000000
     23582       190  PMPE      O11            49.7413706092      -46.0601798988       16.8746564297  MEMB      190             0.0000000000
     23583       190  PMPE      O12            48.8218107541      -46.6355694742       19.0275981981  MEMB      190             0.0000000000
     23584       190  PMPE      C1             49.7398478651      -47.3811837343       16.5063588700  MEMB      190             0.0000000000
     23585       190  PMPE      HA             48.9172124867      -47.7172181387       15.8694477138  MEMB      190             0.0000000000
     23586       190  PMPE      HB             50.0127644284      -48.1487343790       17.2735377120  MEMB      190             0.0000000000
     23587       190  PMPE      C2             50.7945205789      -47.4316305846       15.7331951220  MEMB      190             0.0000000000
     23588       190  PMPE      HS             51.7370082276      -47.4015594958       16.3849280812  MEMB      190             0.0000000000
     23589       190  PMPE      O21            51.0423803373      -46.3111654810       14.8041707838  MEMB      190             0.0000000000
     23590       190  PMPE      C21            51.7629408452      -45.2733743321       15.1090231008  MEMB      190             0.0000000000
     23591       190  PMPE      O22            52.4195809902      -45.0063590480       16.0788249435  MEMB      190             0.0000000000
     23592       190  PMPE      C22            51.6530485015      -44.4316064096       14.0186648635  MEMB      190             0.0000000000
     23593       190  PMPE      H2R            51.6548157229      -45.0895786451       13.0529479772  MEMB      190             0.0000000000
     23594       190  PMPE      H2S            52.5077016198      -43.7035910553       14.1654844528  MEMB      190             0.0000000000
     23595       190  PMPE      C3             50.3870214724      -49.0350743202       15.0439210465  MEMB      190             0.0000000000
     23596       190  PMPE      HX             50.6531586914      -49.8298974197       15.7158818735  MEMB      190             0.0000000000
     23597       190  PMPE      HY             51.0452393196      -49.8203644940       14.4078566231  MEMB      190             0.0000000000
     23598       190  PMPE      O31            49.5263956466      -49.2026764444       14.0390661368  MEMB      190             0.0000000000
     23599       190  PMPE      C31            49.4149106795      -48.8159417983       12.8497499182  MEMB      190             0.0000000000
     23600       190  PMPE      O32            49.8743648179      -48.1124242962       12.0549223159  MEMB      190             0.0000000000
     23601       190  PMPE      C32            48.3578830582      -48.9271846813       12.2044047957  MEMB      190             0.0000000000
     23602       190  PMPE      H2X            48.0694230957      -47.8437343632       12.4285072001  MEMB      190             0.0000000000
     23603       190  PMPE      H2Y            47.9388385668      -49.7139064717       12.7361075957  MEMB      190             0.0000000000
     23604       190  PMPE      C23            50.5855172078      -43.4700234549       13.7987646192  MEMB      190             0.0000000000
     23605       190  PMPE      H3R            50.7312269417      -42.6745971450       13.0116241803  MEMB      190             0.0000000000
     23606       190  PMPE      H3S            50.4457058074      -42.9257182552       14.7151847906  MEMB      190             0.0000000000
     23607       190  PMPE      C24            49.5049815808      -44.3659600650       13.4952575487  MEMB      190             0.0000000000
     23608       190  PMPE      H4R            49.0275720752      -44.6417901037       14.4636758567  MEMB      190             0.0000000000
     23609       190  PMPE      H4S            49.7962171479      -45.3215313969       13.0015942855  MEMB      190             0.0000000000
     23610       190  PMPE      C25            48.6552284316      -43.5416230621       12.7068708012  MEMB      190             0.0000000000
     23611       190  PMPE      H5R            48.1565467405      -42.7266450309       13.2780161172  MEMB      190             0.0000000000
     23612       190  PMPE      H5S            48.0366261405      -44.3696035240       12.6274859348  MEMB      190             0.0000000000
     23613       190  PMPE      C26            48.8258270477      -43.3571420537       11.2595086631  MEMB      190             0.0000000000
     23614       190  PMPE      H6R            49.2317426045      -42.3842020202       11.0904077525  MEMB      190             0.0000000000
     23615       190  PMPE      H6S            47.9897900640      -43.0822205577       10.8755935393  MEMB      190             0.0000000000
     23616       190  PMPE      C27            49.1812312994      -44.5115610611       10.3211531153  MEMB      190             0.0000000000
     23617       190  PMPE      H7R            50.0165306093      -44.9074736996       10.8532729029  MEMB      190             0.0000000000
     23618       190  PMPE      H7S            49.4643879228      -44.0102979503        9.3744720552  MEMB      190             0.0000000000
     23619       190  PMPE      C28            48.4425007309      -45.8015476347        9.9894603340  MEMB      190             0.0000000000
     23620       190  PMPE      H8R            48.1524219999      -46.3516869484       10.9051706295  MEMB      190             0.0000000000
     23621       190  PMPE      H8S            48.8722478434      -46.3953947248        9.2132495396  MEMB      190             0.0000000000
     23622       190  PMPE      C29            47.3674755726      -45.4637088733        9.2887575578  MEMB      190             0.0000000000
     23623       190  PMPE      H9R            46.7341400422      -45.2606999174        9.8753934182  MEMB      190             0.0000000000
     23624       190  PMPE      C217           46.6787457993      -45.9758934986        8.8451660641  MEMB      190             0.0000000000
     23625       190  PMPE      H17R           45.4116014972      -46.0203646164        9.6860996108  MEMB      190             0.0000000000
     23626       190  PMPE      H17S           47.1211397039      -46.7505628306        8.1938856187  MEMB      190             0.0000000000
     23627       190  PMPE      C210           47.0129230571      -45.0494604374        7.6849071188  MEMB      190             0.0000000000
     23628       190  PMPE      H10R           46.1548772616      -44.2994723072        7.1800863468  MEMB      190             0.0000000000
     23629       190  PMPE      C211           48.0592312313      -44.7928277719        6.9015214421  MEMB      190             0.0000000000
     23630       190  PMPE      H11R           48.3980413323      -45.8087431180        7.0773225449  MEMB      190             0.0000000000
     23631       190  PMPE      H11S           48.6244263471      -43.9537658527        7.2662962215  MEMB      190             0.0000000000
     23632       190  PMPE      C212           47.5088296790      -44.1848254150        5.5953240799  MEMB      190             0.0000000000
     23633       190  PMPE      H12R           48.2611396979      -44.2445584203        4.8323690163  MEMB      190             0.0000000000
     23634       190  PMPE      H12S           46.7027127448      -43.4416514872        5.6704783950  MEMB      190             0.0000000000
     23635       190  PMPE      C213           46.5861661735      -44.9995110649        5.0884901193  MEMB      190             0.0000000000
     23636       190  PMPE      H13R           45.5177355981      -45.0081054234        5.5877513744  MEMB      190             0.0000000000
     23637       190  PMPE      H13S           47.3320010882      -45.8506540339        5.2147034055  MEMB      190             0.0000000000
     23638       190  PMPE      C214           45.9557632140      -45.2190511724        4.1322758643  MEMB      190             0.0000000000
     23639       190  PMPE      H14R           47.5420764700      -45.2104851533        3.6642643051  MEMB      190             0.0000000000
     23640       190  PMPE      H14S           45.2018802184      -44.6912293606        4.0030811311  MEMB      190             0.0000000000
     23641       190  PMPE      C215           44.9975878384      -46.6454058975        2.7344585549  MEMB      190             0.0000000000
     23642       190  PMPE      H15R           45.2601492676      -47.8236133911        2.8673024489  MEMB      190             0.0000000000
     23643       190  PMPE      H15S           45.5702698474      -46.7740238146        1.7488668542  MEMB      190             0.0000000000
     23644       190  PMPE      C216           43.9684820041      -47.0862583717        2.9069528502  MEMB      190             0.0000000000
     23645       190  PMPE      H16R           43.7632356393      -46.0875385382        2.6544182972  MEMB      190             0.0000000000
     23646       190  PMPE      H16S           43.4432079687      -47.9728579608        2.6889467170  MEMB      190             0.0000000000
     23647       190  PMPE      H16T           43.5946137361      -46.9252166997        3.7839840384  MEMB      190             0.0000000000
     23648       190  PMPE      C33            48.7846313017      -49.2580781834       10.7316846630  MEMB      190             0.0000000000
     23649       190  PMPE      H3X            49.3714990029      -50.1942391773       10.6527624642  MEMB      190             0.0000000000
     23650       190  PMPE      H3Y            49.2854489897      -48.4693862823       10.1161825262  MEMB      190             0.0000000000
     23651       190  PMPE      C34            47.6036736575      -49.2420937170       10.0657668923  MEMB      190             0.0000000000
     23652       190  PMPE      H4X            46.9016312449      -48.5116057336       10.3932900839  MEMB      190             0.0000000000
     23653       190  PMPE      H4Y            47.1692163840      -49.9975145783       10.6646381854  MEMB      190             0.0000000000
     23654       190  PMPE      C35            47.7789153235      -49.6089353962        8.6643087155  MEMB      190             0.0000000000
     23655       190  PMPE      H5X            46.6013051953      -49.4688990320        8.5849357476  MEMB      190             0.0000000000
     23656       190  PMPE      H5Y            48.3873609646      -50.6885900429        8.6731307842  MEMB      190             0.0000000000
     23657       190  PMPE      C36            48.5596167711      -49.1328539207        7.6260140231  MEMB      190             0.0000000000
     23658       190  PMPE      H6X            49.3469880094      -48.6993142127        8.2002246208  MEMB      190             0.0000000000
     23659       190  PMPE      H6Y            47.8914548999      -48.4688086750        7.1473995876  MEMB      190             0.0000000000
     23660       190  PMPE      C37            48.9469179252      -50.2128039252        6.6895479406  MEMB      190             0.0000000000
     23661       190  PMPE      H7X            48.0035382250      -50.6325873470        6.2734834484  MEMB      190             0.0000000000
     23662       190  PMPE      H7Y            49.6653812376      -50.9716809023        7.1562356285  MEMB      190             0.0000000000
     23663       190  PMPE      C38            49.2960736946      -49.7739560538        5.3863433269  MEMB      190             0.0000000000
     23664       190  PMPE      H8X            49.6117977475      -50.6807364209        4.9321582138  MEMB      190             0.0000000000
     23665       190  PMPE      H8Y            50.1489491788      -49.2727578075        5.5995680021  MEMB      190             0.0000000000
     23666       190  PMPE      C39            48.3525059334      -49.2430346263        4.3856941167  MEMB      190             0.0000000000
     23667       190  PMPE      H9X            47.6871337126      -48.6152948178        4.9863957379  MEMB      190             0.0000000000
     23668       190  PMPE      H9Y            47.8436049094      -50.1419789685        4.0207672683  MEMB      190             0.0000000000
     23669       190  PMPE      C310           48.8971999895      -48.5113534681        3.1263108504  MEMB      190             0.0000000000
     23670       190  PMPE      H10X           48.1070972897      -48.4968933807        2.3811248545  MEMB      190             0.0000000000
     23671       190  PMPE      H10Y           49.4090498582      -48.8533484689        2.2609780867  MEMB      190             0.0000000000
     23672       190  PMPE      C311           49.6055400088      -47.2624266332        3.4917183381  MEMB      190             0.0000000000
     23673       190  PMPE      H11X           50.0554779297      -47.2744560046        4.3062229434  MEMB      190             0.0000000000
     23674       190  PMPE      H11Y           49.2093900155      -46.3358260967        3.9701378551  MEMB      190             0.0000000000
     23675       190  PMPE      C312           50.3112373210      -46.9429162823        2.4993240954  MEMB      190             0.0000000000
     23676       190  PMPE      H12X           49.5969500162      -46.9772967925        1.7346011616  MEMB      190             0.0000000000
     23677       190  PMPE      H12Y           51.1561399503      -47.4942237509        2.2143017198  MEMB      190             0.0000000000
     23678       190  PMPE      C313           50.7529071169      -45.7451857153        2.7926152554  MEMB      190             0.0000000000
     23679       190  PMPE      H13X           51.1720228922      -45.8005363899        3.7454714055  MEMB      190             0.0000000000
     23680       190  PMPE      H13Y           49.4355265606      -45.0806478886        2.8008126654  MEMB      190             0.0000000000
     23681       190  PMPE      C314           52.4791588018      -44.3602248478        1.3303595400  MEMB      190             0.0000000000
     23682       190  PMPE      H14X           51.8234588110      -43.7055241311        0.6306360093  MEMB      190             0.0000000000
     23683       190  PMPE      H14Y           52.5727806014      -45.2055065400        1.6195857696  MEMB      190             0.0000000000
     23684       190  PMPE      C315           52.9597992866      -42.8934199831        1.6483500114  MEMB      190             0.0000000000
     23685       190  PMPE      H15X           53.5751651270      -42.6829190252        2.6216397579  MEMB      190             0.0000000000
     23686       190  PMPE      H15Y           52.2757840829      -42.3595196567        2.0761505048  MEMB      190             0.0000000000
     23687       190  PMPE      C316           53.7374625854      -42.3924672973        0.8681618282  MEMB      190             0.0000000000
     23688       190  PMPE      H16X           54.3196606194      -43.0331776872        1.1556552240  MEMB      190             0.0000000000
     23689       190  PMPE      H16Y           54.0410409461      -41.5592231002        1.4960279502  MEMB      190             0.0000000000
     23690       190  PMPE      H16Z           53.2155423611      -42.5823350755       -0.0319915508  MEMB      190             0.0000000000
     23691       191  PMPE      N             -42.8074330322      -51.6068656406       21.9110331604  MEMB      191             0.0000000000
     23692       191  PMPE      HN1           -43.2043840187      -51.0212544754       22.6745790320  MEMB      191             0.0000000000
     23693       191  PMPE      HN2           -43.4606753139      -52.3854657526       21.6516270160  MEMB      191             0.0000000000
     23694       191  PMPE      HN3           -41.9244370435      -52.0173792566       22.2648604772  MEMB      191             0.0000000000
     23695       191  PMPE      C12           -42.5173616745      -50.7428799119       20.6998199296  MEMB      191             0.0000000000
     23696       191  PMPE      H12A          -41.4289289267      -50.5496795608       20.5801407151  MEMB      191             0.0000000000
     23697       191  PMPE      H12B          -43.0358006512      -49.7877499330       20.8870972640  MEMB      191             0.0000000000
     23698       191  PMPE      C11           -42.9670200118      -51.3798822104       19.3842045029  MEMB      191             0.0000000000
     23699       191  PMPE      H11A          -43.0821570548      -50.6060159896       18.5924931651  MEMB      191             0.0000000000
     23700       191  PMPE      H11B          -43.9875366791      -51.7926896287       19.4744283498  MEMB      191             0.0000000000
     23701       191  PMPE      P             -42.1848052829      -53.4693519389       17.9382159772  MEMB      191             0.0000000000
     23702       191  PMPE      O13           -41.3063441107      -54.6116244015       18.2920429956  MEMB      191             0.0000000000
     23703       191  PMPE      O14           -42.0125094721      -52.8420609198       16.6134854977  MEMB      191             0.0000000000
     23704       191  PMPE      O11           -43.7027456039      -53.8325172657       18.2010430375  MEMB      191             0.0000000000
     23705       191  PMPE      O12           -41.9881230246      -52.3494065323       19.0342227308  MEMB      191             0.0000000000
     23706       191  PMPE      C1            -44.1649016395      -55.1372998906       18.4229060993  MEMB      191             0.0000000000
     23707       191  PMPE      HA            -44.5770056351      -55.3121427466       19.4629167630  MEMB      191             0.0000000000
     23708       191  PMPE      HB            -43.3896739934      -55.8896790623       18.1580739469  MEMB      191             0.0000000000
     23709       191  PMPE      C2            -45.2617759360      -55.3927985524       17.4253590101  MEMB      191             0.0000000000
     23710       191  PMPE      HS            -45.7176896735      -56.2268591689       17.6847523950  MEMB      191             0.0000000000
     23711       191  PMPE      O21           -44.8876277247      -55.2482498682       16.0488447635  MEMB      191             0.0000000000
     23712       191  PMPE      C21           -44.1453900970      -56.2201122105       15.6121034621  MEMB      191             0.0000000000
     23713       191  PMPE      O22           -44.1095589048      -57.2491924751       16.2288671532  MEMB      191             0.0000000000
     23714       191  PMPE      C22           -43.3380379584      -55.7525546856       14.4017978720  MEMB      191             0.0000000000
     23715       191  PMPE      H2R           -42.3591823762      -55.4453960590       14.8134372106  MEMB      191             0.0000000000
     23716       191  PMPE      H2S           -43.8472753035      -54.8929860322       13.9575591618  MEMB      191             0.0000000000
     23717       191  PMPE      C3            -46.5338969238      -54.6042653116       17.5868526449  MEMB      191             0.0000000000
     23718       191  PMPE      HX            -46.8864240328      -54.7226118494       18.6407428250  MEMB      191             0.0000000000
     23719       191  PMPE      HY            -47.2758523561      -55.1327571224       16.9323200633  MEMB      191             0.0000000000
     23720       191  PMPE      O31           -46.2707802198      -53.2504345800       17.2740812324  MEMB      191             0.0000000000
     23721       191  PMPE      C31           -46.6029978572      -52.8383503084       16.0485584799  MEMB      191             0.0000000000
     23722       191  PMPE      O32           -47.3307208592      -53.4398216419       15.3013318030  MEMB      191             0.0000000000
     23723       191  PMPE      C32           -46.0333482401      -51.4697826968       15.7422047593  MEMB      191             0.0000000000
     23724       191  PMPE      H2X           -44.9496353324      -51.4520933789       15.9434470064  MEMB      191             0.0000000000
     23725       191  PMPE      H2Y           -46.4622381047      -50.7575132303       16.4716374653  MEMB      191             0.0000000000
     23726       191  PMPE      C23           -43.1090223700      -56.6541510179       13.2281479421  MEMB      191             0.0000000000
     23727       191  PMPE      H3R           -44.0038853264      -56.7459743355       12.5532333375  MEMB      191             0.0000000000
     23728       191  PMPE      H3S           -42.7178325417      -57.5017029525       13.7550671908  MEMB      191             0.0000000000
     23729       191  PMPE      C24           -41.8940635185      -56.3415374340       12.4727720402  MEMB      191             0.0000000000
     23730       191  PMPE      H4R           -40.9258387514      -56.4740485762       12.9958584055  MEMB      191             0.0000000000
     23731       191  PMPE      H4S           -42.0060643953      -55.2685983554       12.3152068091  MEMB      191             0.0000000000
     23732       191  PMPE      C25           -41.9376025755      -57.1097552629       11.2129788687  MEMB      191             0.0000000000
     23733       191  PMPE      H5R           -41.9269939926      -58.2172547088       11.2792586542  MEMB      191             0.0000000000
     23734       191  PMPE      H5S           -41.0468585734      -56.6696459569       10.9144258697  MEMB      191             0.0000000000
     23735       191  PMPE      C26           -42.7991952232      -56.5511691057       10.1600682182  MEMB      191             0.0000000000
     23736       191  PMPE      H6R           -42.8606796159      -55.4511985837       10.1156226052  MEMB      191             0.0000000000
     23737       191  PMPE      H6S           -43.8302230312      -56.8849980169       10.3883770449  MEMB      191             0.0000000000
     23738       191  PMPE      C27           -42.2656961787      -57.0501002689        8.8440887263  MEMB      191             0.0000000000
     23739       191  PMPE      H7R           -43.1890161588      -56.7419569608        8.4398868069  MEMB      191             0.0000000000
     23740       191  PMPE      H7S           -42.0492231635      -58.1314151139        8.8598749962  MEMB      191             0.0000000000
     23741       191  PMPE      C28           -41.4178175110      -56.1975602728        7.9332769911  MEMB      191             0.0000000000
     23742       191  PMPE      H8R           -40.4683465227      -56.4541932235        8.3926035720  MEMB      191             0.0000000000
     23743       191  PMPE      H8S           -41.6322403035      -55.1336525436        8.1277143031  MEMB      191             0.0000000000
     23744       191  PMPE      C29           -41.4925158584      -56.4916042508        6.4175936503  MEMB      191             0.0000000000
     23745       191  PMPE      H9R           -42.4674940668      -56.6393508178        5.9112129777  MEMB      191             0.0000000000
     23746       191  PMPE      C217          -40.5018702348      -57.5449460855        5.9687637536  MEMB      191             0.0000000000
     23747       191  PMPE      H17R          -40.9383410930      -58.2601258158        5.2802587389  MEMB      191             0.0000000000
     23748       191  PMPE      H17S          -39.7482497736      -57.8539537105        6.6726707756  MEMB      191             0.0000000000
     23749       191  PMPE      C210          -40.3183781664      -56.0739909266        5.5532603259  MEMB      191             0.0000000000
     23750       191  PMPE      H10R          -40.6192129845      -55.7482388766        4.5533446989  MEMB      191             0.0000000000
     23751       191  PMPE      C211          -39.3283502283      -55.1707172656        6.3016375525  MEMB      191             0.0000000000
     23752       191  PMPE      H11R          -38.9689926348      -55.7319306008        7.1856540846  MEMB      191             0.0000000000
     23753       191  PMPE      H11S          -39.8157661854      -54.2158042931        6.6184409119  MEMB      191             0.0000000000
     23754       191  PMPE      C212          -38.1214034295      -54.7245689347        5.4685807541  MEMB      191             0.0000000000
     23755       191  PMPE      H12R          -37.6547190242      -55.5455782547        4.9367556640  MEMB      191             0.0000000000
     23756       191  PMPE      H12S          -37.4132000868      -54.2400878920        6.1826866800  MEMB      191             0.0000000000
     23757       191  PMPE      C213          -38.5070685818      -53.9156655555        4.2600513607  MEMB      191             0.0000000000
     23758       191  PMPE      H13R          -38.8849239986      -52.9960921904        4.6882626836  MEMB      191             0.0000000000
     23759       191  PMPE      H13S          -39.2467890525      -54.4907494907        3.6919259997  MEMB      191             0.0000000000
     23760       191  PMPE      C214          -37.4331443433      -53.5382585831        3.3058222925  MEMB      191             0.0000000000
     23761       191  PMPE      H14R          -36.9817518253      -54.5539462886        3.0341713118  MEMB      191             0.0000000000
     23762       191  PMPE      H14S          -36.8139250618      -52.8361114914        3.9277197152  MEMB      191             0.0000000000
     23763       191  PMPE      C215          -37.6823715259      -52.8372288602        2.0044686341  MEMB      191             0.0000000000
     23764       191  PMPE      H15R          -36.7094405899      -52.6414359677        1.4866936711  MEMB      191             0.0000000000
     23765       191  PMPE      H15S          -38.1946053017      -51.8641712098        2.1154699641  MEMB      191             0.0000000000
     23766       191  PMPE      C216          -38.4686510874      -53.8036812522        1.2199971684  MEMB      191             0.0000000000
     23767       191  PMPE      H16R          -38.0512848863      -54.8229002189        1.2447951358  MEMB      191             0.0000000000
     23768       191  PMPE      H16S          -39.5217143378      -53.8930191093        1.6132174928  MEMB      191             0.0000000000
     23769       191  PMPE      H16T          -38.4686596137      -53.5624894288        0.1385983779  MEMB      191             0.0000000000
     23770       191  PMPE      C33           -46.2765766716      -51.1252889544       14.2373450789  MEMB      191             0.0000000000
     23771       191  PMPE      H3X           -46.1116389276      -50.0402868978       14.1308302106  MEMB      191             0.0000000000
     23772       191  PMPE      H3Y           -47.3031821218      -51.3572886641       13.8622610794  MEMB      191             0.0000000000
     23773       191  PMPE      C34           -45.2650528390      -51.7951013434       13.2710829310  MEMB      191             0.0000000000
     23774       191  PMPE      H4X           -45.5959356300      -52.8401253309       13.0790241544  MEMB      191             0.0000000000
     23775       191  PMPE      H4Y           -44.3101960339      -51.9126584427       13.8168488895  MEMB      191             0.0000000000
     23776       191  PMPE      C35           -44.9924383768      -51.0705651867       11.9062379896  MEMB      191             0.0000000000
     23777       191  PMPE      H5X           -44.7166328262      -50.0025888193       12.0109804066  MEMB      191             0.0000000000
     23778       191  PMPE      H5Y           -45.9231169783      -51.1114459738       11.2983892443  MEMB      191             0.0000000000
     23779       191  PMPE      C36           -43.8688214354      -51.7448718918       11.0845942777  MEMB      191             0.0000000000
     23780       191  PMPE      H6X           -44.1166153755      -52.8206460569       11.1515470207  MEMB      191             0.0000000000
     23781       191  PMPE      H6Y           -42.8567876786      -51.6157964253       11.5302186709  MEMB      191             0.0000000000
     23782       191  PMPE      C37           -43.7296532702      -51.3819479966        9.5920597060  MEMB      191             0.0000000000
     23783       191  PMPE      H7X           -42.9547334200      -52.0538607650        9.1676208204  MEMB      191             0.0000000000
     23784       191  PMPE      H7Y           -43.4163188510      -50.3240122953        9.4707802453  MEMB      191             0.0000000000
     23785       191  PMPE      C38           -44.9499160311      -51.6849848578        8.7404886289  MEMB      191             0.0000000000
     23786       191  PMPE      H8X           -45.4618966251      -50.7897529875        8.6221847846  MEMB      191             0.0000000000
     23787       191  PMPE      H8Y           -45.6169961363      -52.3815131486        9.2505681042  MEMB      191             0.0000000000
     23788       191  PMPE      C39           -44.7126093444      -52.1083568369        7.2978260388  MEMB      191             0.0000000000
     23789       191  PMPE      H9X           -43.8330208452      -51.5338733431        6.9415674225  MEMB      191             0.0000000000
     23790       191  PMPE      H9Y           -45.5799650540      -51.8413494631        6.6286161862  MEMB      191             0.0000000000
     23791       191  PMPE      C310          -44.4850615516      -53.6106956968        7.3069104729  MEMB      191             0.0000000000
     23792       191  PMPE      H10X          -45.3200197641      -54.0335200715        7.9028487634  MEMB      191             0.0000000000
     23793       191  PMPE      H10Y          -43.5837861274      -53.8706372010        7.9204858364  MEMB      191             0.0000000000
     23794       191  PMPE      C311          -44.5949817077      -54.2709998185        5.9099475537  MEMB      191             0.0000000000
     23795       191  PMPE      H11X          -45.5645148562      -54.0864982652        5.4019285605  MEMB      191             0.0000000000
     23796       191  PMPE      H11Y          -44.4840093242      -55.3595369706        6.0549520932  MEMB      191             0.0000000000
     23797       191  PMPE      C312          -43.5063314003      -53.8640591285        4.9262909741  MEMB      191             0.0000000000
     23798       191  PMPE      H12X          -42.6896708421      -54.5801112878        5.1231226065  MEMB      191             0.0000000000
     23799       191  PMPE      H12Y          -43.1746004359      -52.8409096717        5.2029536164  MEMB      191             0.0000000000
     23800       191  PMPE      C313          -43.7255583446      -53.9947233752        3.4039957040  MEMB      191             0.0000000000
     23801       191  PMPE      H13X          -44.3009468507      -54.8295403482        2.9824868240  MEMB      191             0.0000000000
     23802       191  PMPE      H13Y          -42.6749455291      -54.1077769787        3.0291657121  MEMB      191             0.0000000000
     23803       191  PMPE      C314          -44.2801839009      -52.7413265409        2.8308703475  MEMB      191             0.0000000000
     23804       191  PMPE      H14X          -45.3388269792      -52.5356722248        3.1403448030  MEMB      191             0.0000000000
     23805       191  PMPE      H14Y          -44.5333971677      -52.8571206748        1.7425775152  MEMB      191             0.0000000000
     23806       191  PMPE      C315          -43.1897914919      -51.6494964780        3.2196805877  MEMB      191             0.0000000000
     23807       191  PMPE      H15X          -43.3667764919      -51.0949923678        4.1542283260  MEMB      191             0.0000000000
     23808       191  PMPE      H15Y          -43.1494845735      -50.6379571557        2.8272206527  MEMB      191             0.0000000000
     23809       191  PMPE      C316          -41.9819455017      -51.5800393934        2.3959947465  MEMB      191             0.0000000000
     23810       191  PMPE      H16X          -42.0365329032      -51.1610738520        1.3805717055  MEMB      191             0.0000000000
     23811       191  PMPE      H16Y          -41.6679569723      -52.5828754693        2.2686944064  MEMB      191             0.0000000000
     23812       191  PMPE      H16Z          -41.3425743625      -50.9083232283        2.9826013868  MEMB      191             0.0000000000
     23813       192  PMPE      N             -53.4040978467       43.4494867293       18.6914892142  MEMB      192             0.0000000000
     23814       192  PMPE      HN1           -53.7275447592       44.4259038666       18.6234770751  MEMB      192             0.0000000000
     23815       192  PMPE      HN2           -54.0009362327       42.8522299492       18.0931053366  MEMB      192             0.0000000000
     23816       192  PMPE      HN3           -53.4566896788       43.0946130215       19.6649731265  MEMB      192             0.0000000000
     23817       192  PMPE      C12           -52.0194599393       43.4749559201       18.1487268910  MEMB      192             0.0000000000
     23818       192  PMPE      H12A          -51.9521527851       43.9143731608       17.1556921787  MEMB      192             0.0000000000
     23819       192  PMPE      H12B          -51.8231086240       42.5075394165       18.0350101566  MEMB      192             0.0000000000
     23820       192  PMPE      C11           -50.9223202695       43.7622043074       19.1273975211  MEMB      192             0.0000000000
     23821       192  PMPE      H11A          -49.9543090860       43.3134949641       18.7785380207  MEMB      192             0.0000000000
     23822       192  PMPE      H11B          -51.1837022323       43.2673677769       20.0924137574  MEMB      192             0.0000000000
     23823       192  PMPE      P             -49.5039050860       45.9895717275       19.2683141926  MEMB      192             0.0000000000
     23824       192  PMPE      O13           -48.5428502237       45.3011176638       18.3776274948  MEMB      192             0.0000000000
     23825       192  PMPE      O14           -49.1276884119       46.1477491705       20.6829613146  MEMB      192             0.0000000000
     23826       192  PMPE      O11           -49.8954376908       47.3840154419       18.6392589917  MEMB      192             0.0000000000
     23827       192  PMPE      O12           -50.8816039186       45.1682372460       19.2223568613  MEMB      192             0.0000000000
     23828       192  PMPE      C1            -51.2541115722       47.8004395039       18.4638831357  MEMB      192             0.0000000000
     23829       192  PMPE      HA            -51.3326071305       48.9115048913       18.5927238570  MEMB      192             0.0000000000
     23830       192  PMPE      HB            -51.9807699361       47.3029071615       19.1390396687  MEMB      192             0.0000000000
     23831       192  PMPE      C2            -51.7206259431       47.4838255311       17.0556104696  MEMB      192             0.0000000000
     23832       192  PMPE      HS            -51.7319698016       46.3963779318       16.8963810492  MEMB      192             0.0000000000
     23833       192  PMPE      O21           -50.7750312292       48.1625429985       16.2572303939  MEMB      192             0.0000000000
     23834       192  PMPE      C21           -50.3192316992       47.4796174372       15.2255308486  MEMB      192             0.0000000000
     23835       192  PMPE      O22           -50.5938642356       46.3626700757       14.8975006342  MEMB      192             0.0000000000
     23836       192  PMPE      C22           -49.3915489012       48.2687067915       14.4562551384  MEMB      192             0.0000000000
     23837       192  PMPE      H2R           -48.8630890208       48.2230607454       15.4070881399  MEMB      192             0.0000000000
     23838       192  PMPE      H2S           -49.7695842936       49.2074592736       14.1362629657  MEMB      192             0.0000000000
     23839       192  PMPE      C3            -53.1685972722       47.9626009187       16.8395306279  MEMB      192             0.0000000000
     23840       192  PMPE      HX            -52.9743012253       49.0167572186       16.9217227661  MEMB      192             0.0000000000
     23841       192  PMPE      HY            -53.9243496726       47.6408886619       17.5669917756  MEMB      192             0.0000000000
     23842       192  PMPE      O31           -53.7467519558       47.7244995764       15.6128161159  MEMB      192             0.0000000000
     23843       192  PMPE      C31           -53.7507766182       46.4740634517       15.2906753823  MEMB      192             0.0000000000
     23844       192  PMPE      O32           -53.8541289968       45.4872485982       15.9970596317  MEMB      192             0.0000000000
     23845       192  PMPE      C32           -53.5027252881       46.4423241438       13.8521812204  MEMB      192             0.0000000000
     23846       192  PMPE      H2X           -53.1471614049       46.9232144056       13.0119825394  MEMB      192             0.0000000000
     23847       192  PMPE      H2Y           -53.7975691044       47.5674172352       13.6497417302  MEMB      192             0.0000000000
     23848       192  PMPE      C23           -48.6961209945       47.8245722789       13.2190459086  MEMB      192             0.0000000000
     23849       192  PMPE      H3R           -49.4200076568       48.2174600994       12.4833413044  MEMB      192             0.0000000000
     23850       192  PMPE      H3S           -48.7107813774       46.7379896182       13.2178483759  MEMB      192             0.0000000000
     23851       192  PMPE      C24           -47.3369395404       48.3826568130       12.8299788145  MEMB      192             0.0000000000
     23852       192  PMPE      H4R           -46.5430850291       47.9429828630       13.5176348675  MEMB      192             0.0000000000
     23853       192  PMPE      H4S           -47.1132058321       49.4496760586       12.9741636485  MEMB      192             0.0000000000
     23854       192  PMPE      C25           -47.2185557062       48.0169036352       11.4128097458  MEMB      192             0.0000000000
     23855       192  PMPE      H5R           -47.3700749290       46.8888074402       11.4007262088  MEMB      192             0.0000000000
     23856       192  PMPE      H5S           -46.1877509542       48.3970514353       11.1257133793  MEMB      192             0.0000000000
     23857       192  PMPE      C26           -47.6958576680       48.7899906299       10.2721021325  MEMB      192             0.0000000000
     23858       192  PMPE      H6R           -47.3096777503       49.8221707618       10.4073520024  MEMB      192             0.0000000000
     23859       192  PMPE      H6S           -48.7449308422       48.6143133103       10.4019089285  MEMB      192             0.0000000000
     23860       192  PMPE      C27           -47.3136253999       48.3475271574        8.8773040366  MEMB      192             0.0000000000
     23861       192  PMPE      H7R           -47.7629205517       47.3818954145        8.5652596502  MEMB      192             0.0000000000
     23862       192  PMPE      H7S           -46.2164440317       48.4347923031        8.8200862274  MEMB      192             0.0000000000
     23863       192  PMPE      C28           -47.7391727034       49.2414637688        7.9370114520  MEMB      192             0.0000000000
     23864       192  PMPE      H8R           -47.4131434396       49.0368664566        6.9012017426  MEMB      192             0.0000000000
     23865       192  PMPE      H8S           -47.2975842998       50.2312647998        8.2794513786  MEMB      192             0.0000000000
     23866       192  PMPE      C29           -49.2302721704       49.1141282682        7.9822704250  MEMB      192             0.0000000000
     23867       192  PMPE      H9R           -49.7131288730       49.4606004005        8.9251887946  MEMB      192             0.0000000000
     23868       192  PMPE      C217          -49.8412933326       48.0203828210        7.2264974196  MEMB      192             0.0000000000
     23869       192  PMPE      H17R          -50.7059583228       47.6019434861        7.7046480039  MEMB      192             0.0000000000
     23870       192  PMPE      H17S          -49.0728559777       47.6170466204        6.6680319029  MEMB      192             0.0000000000
     23871       192  PMPE      C210          -49.9404361186       49.3338594074        6.5996783663  MEMB      192             0.0000000000
     23872       192  PMPE      H10R          -50.4102195560       50.0973379542        6.7808107456  MEMB      192             0.0000000000
     23873       192  PMPE      C211          -49.6808975828       49.7658525458        5.1683386913  MEMB      192             0.0000000000
     23874       192  PMPE      H11R          -48.9456147537       49.1308864118        5.0060744410  MEMB      192             0.0000000000
     23875       192  PMPE      H11S          -48.9891250451       50.5373515014        4.7679137899  MEMB      192             0.0000000000
     23876       192  PMPE      C212          -50.5127859001       50.7885015491        4.5876913691  MEMB      192             0.0000000000
     23877       192  PMPE      H12R          -51.2615716023       51.3098971746        5.2288217595  MEMB      192             0.0000000000
     23878       192  PMPE      H12S          -50.6645468761       49.8138585563        4.1068351591  MEMB      192             0.0000000000
     23879       192  PMPE      C213          -50.2590880051       51.3786576545        3.3221717660  MEMB      192             0.0000000000
     23880       192  PMPE      H13R          -49.7835275928       50.6418382201        2.6424553063  MEMB      192             0.0000000000
     23881       192  PMPE      H13S          -49.5939761938       52.1156835207        3.6992903309  MEMB      192             0.0000000000
     23882       192  PMPE      C214          -51.2951085806       52.3618238175        2.9142496715  MEMB      192             0.0000000000
     23883       192  PMPE      H14R          -50.7254857356       53.2782703234        2.8447347255  MEMB      192             0.0000000000
     23884       192  PMPE      H14S          -52.1690551948       52.3719568479        3.6207540233  MEMB      192             0.0000000000
     23885       192  PMPE      C215          -51.7790754643       52.2658216179        1.5074582580  MEMB      192             0.0000000000
     23886       192  PMPE      H15R          -50.9736393904       51.8827777827        0.8226635934  MEMB      192             0.0000000000
     23887       192  PMPE      H15S          -52.2906430930       53.0890806660        1.0796331621  MEMB      192             0.0000000000
     23888       192  PMPE      C216          -53.1100643106       51.9058242442        1.2408355316  MEMB      192             0.0000000000
     23889       192  PMPE      H16R          -52.5825644400       51.1024238416        2.4585383379  MEMB      192             0.0000000000
     23890       192  PMPE      H16S          -54.1944510932       51.6751025232        1.3204218308  MEMB      192             0.0000000000
     23891       192  PMPE      H16T          -53.2626611836       51.3138415266        0.0323122739  MEMB      192             0.0000000000
     23892       192  PMPE      C33           -54.0460656123       45.1818687468       13.3534214943  MEMB      192             0.0000000000
     23893       192  PMPE      H3X           -54.8875263911       44.7293568616       14.0462587760  MEMB      192             0.0000000000
     23894       192  PMPE      H3Y           -53.6707136957       44.2268048715       13.7113970866  MEMB      192             0.0000000000
     23895       192  PMPE      C34           -54.0925971040       45.3160826105       11.6069500353  MEMB      192             0.0000000000
     23896       192  PMPE      H4X           -54.9169091258       46.1475782430       11.6104868227  MEMB      192             0.0000000000
     23897       192  PMPE      H4Y           -54.4318071642       44.1996357409       10.8675466858  MEMB      192             0.0000000000
     23898       192  PMPE      C35           -53.3265525345       45.2488145208       10.5533609033  MEMB      192             0.0000000000
     23899       192  PMPE      H5X           -53.1267787119       46.1956819607       11.0830311837  MEMB      192             0.0000000000
     23900       192  PMPE      H5Y           -53.9672417532       45.2537642608        9.6051802110  MEMB      192             0.0000000000
     23901       192  PMPE      C36           -52.7235946319       43.9312562315       10.5183812667  MEMB      192             0.0000000000
     23902       192  PMPE      H6X           -53.4004174631       43.0588574571       10.1184650508  MEMB      192             0.0000000000
     23903       192  PMPE      H6Y           -52.5160600556       43.6315140481       11.5312037111  MEMB      192             0.0000000000
     23904       192  PMPE      C37           -51.8394232743       44.4135466491        9.5869729407  MEMB      192             0.0000000000
     23905       192  PMPE      H7X           -51.6636679181       43.4700084618        9.3457755732  MEMB      192             0.0000000000
     23906       192  PMPE      H7Y           -50.9771182802       44.9263101248       10.0029865462  MEMB      192             0.0000000000
     23907       192  PMPE      C38           -52.2155475042       44.9040793774        8.2030034565  MEMB      192             0.0000000000
     23908       192  PMPE      H8X           -51.2343744708       44.8491002209        7.7100196192  MEMB      192             0.0000000000
     23909       192  PMPE      H8Y           -52.4587791110       45.9705758454        8.2368630097  MEMB      192             0.0000000000
     23910       192  PMPE      C39           -53.1573864642       44.0558386677        7.3391202458  MEMB      192             0.0000000000
     23911       192  PMPE      H9X           -54.2238947410       44.2570118184        7.5683512411  MEMB      192             0.0000000000
     23912       192  PMPE      H9Y           -52.9311142678       42.9658753535        7.4828769464  MEMB      192             0.0000000000
     23913       192  PMPE      C310          -52.9119149229       44.3219818029        5.8517212988  MEMB      192             0.0000000000
     23914       192  PMPE      H10X          -53.5422231474       43.7051261399        5.2112335851  MEMB      192             0.0000000000
     23915       192  PMPE      H10Y          -51.8743982952       44.0308106163        5.6107496495  MEMB      192             0.0000000000
     23916       192  PMPE      C311          -53.1704499218       45.7066575040        5.3020133418  MEMB      192             0.0000000000
     23917       192  PMPE      H11X          -52.4051357327       46.4503301380        5.6155798378  MEMB      192             0.0000000000
     23918       192  PMPE      H11Y          -54.1398907901       46.1495007358        5.6367942735  MEMB      192             0.0000000000
     23919       192  PMPE      C312          -53.2356584261       45.5874836999        3.7584416944  MEMB      192             0.0000000000
     23920       192  PMPE      H12X          -53.6932871533       46.4081992579        3.2602479647  MEMB      192             0.0000000000
     23921       192  PMPE      H12Y          -54.0967346215       45.0230372756        3.4339402865  MEMB      192             0.0000000000
     23922       192  PMPE      C313          -51.9406658139       45.1724418515        3.0096838535  MEMB      192             0.0000000000
     23923       192  PMPE      H13X          -52.1416301888       45.2032205249        1.9086603040  MEMB      192             0.0000000000
     23924       192  PMPE      H13Y          -51.8832331735       44.1189196812        3.2751476112  MEMB      192             0.0000000000
     23925       192  PMPE      C314          -50.5657852337       45.8832320898        3.3881681940  MEMB      192             0.0000000000
     23926       192  PMPE      H14X          -49.7325438849       45.4224093081        2.8360577754  MEMB      192             0.0000000000
     23927       192  PMPE      H14Y          -50.4513679897       45.9176184393        4.4785714085  MEMB      192             0.0000000000
     23928       192  PMPE      C315          -50.1285284035       47.2959263751        2.9794011552  MEMB      192             0.0000000000
     23929       192  PMPE      H15X          -49.3439058482       47.8182262982        3.4678198510  MEMB      192             0.0000000000
     23930       192  PMPE      H15Y          -50.8262747355       47.9339523928        3.5217950680  MEMB      192             0.0000000000
     23931       192  PMPE      C316          -50.1333311399       47.4417087456        1.4536113094  MEMB      192             0.0000000000
     23932       192  PMPE      H16X          -51.1606712998       47.1388210214        0.9660901739  MEMB      192             0.0000000000
     23933       192  PMPE      H16Y          -49.4638894152       47.1328419554        0.7823924511  MEMB      192             0.0000000000
     23934       192  PMPE      H16Z          -49.9351291139       48.5510107539        1.2567995042  MEMB      192             0.0000000000
     23935       193  QMPE      N              43.7704699488      -54.3477411587       21.9236373826  MEMB      193             0.0000000000
     23936       193  QMPE      HN1            43.5048152813      -55.0823605688       22.6117771631  MEMB      193             0.0000000000
     23937       193  QMPE      HN2            43.7707892722      -53.4303041986       22.4193231502  MEMB      193             0.0000000000
     23938       193  QMPE      HN3            43.1007404821      -54.2979576487       21.1226556461  MEMB      193             0.0000000000
     23939       193  QMPE      C12            45.1294954265      -54.5845616227       21.3172146614  MEMB      193             0.0000000000
     23940       193  QMPE      H12A           45.1944295824      -55.6257541889       20.9244313471  MEMB      193             0.0000000000
     23941       193  QMPE      H12B           45.8234934272      -54.4328574387       22.1621253623  MEMB      193             0.0000000000
     23942       193  QMPE      C11            45.4146311187      -53.5858282871       20.1937631579  MEMB      193             0.0000000000
     23943       193  QMPE      H11A           46.4802216520      -53.7629818873       19.8745392647  MEMB      193             0.0000000000
     23944       193  QMPE      H11B           45.2956184206      -52.5533710188       20.5947216720  MEMB      193             0.0000000000
     23945       193  QMPE      P              44.8836735875      -53.3351820953       17.6659400898  MEMB      193             0.0000000000
     23946       193  QMPE      O13            45.6081739506      -52.0465023859       17.6787270342  MEMB      193             0.0000000000
     23947       193  QMPE      O14            43.6701755378      -53.4785708993       16.8538709540  MEMB      193             0.0000000000
     23948       193  QMPE      O11            45.9340869486      -54.4208053771       17.2946381353  MEMB      193             0.0000000000
     23949       193  QMPE      O12            44.4708937635      -53.7824392574       19.1508886859  MEMB      193             0.0000000000
     23950       193  QMPE      C1             45.8607869179      -55.8092095307       17.5383561023  MEMB      193             0.0000000000
     23951       193  QMPE      HA             44.8950583821      -56.2077159291       17.1547782979  MEMB      193             0.0000000000
     23952       193  QMPE      HB             45.8615799496      -55.9918003969       18.6363506248  MEMB      193             0.0000000000
     23953       193  QMPE      C2             47.1209608451      -56.5281014900       16.9024803109  MEMB      193             0.0000000000
     23954       193  QMPE      HS             47.4089244241      -57.3975279091       17.5447399621  MEMB      193             0.0000000000
     23955       193  QMPE      O21            48.2464260676      -55.6433767424       16.7639827953  MEMB      193             0.0000000000
     23956       193  QMPE      C21            48.7833945984      -55.3464236727       17.9318276712  MEMB      193             0.0000000000
     23957       193  QMPE      O22            48.5713922077      -55.9338068299       18.9870150797  MEMB      193             0.0000000000
     23958       193  QMPE      C22            49.8007020026      -54.2138890820       17.8451504810  MEMB      193             0.0000000000
     23959       193  QMPE      H2R            50.5576050303      -54.5735266197       18.5465913144  MEMB      193             0.0000000000
     23960       193  QMPE      H2S            49.4409727430      -53.2041967269       18.1523673102  MEMB      193             0.0000000000
     23961       193  QMPE      C3             46.8872673903      -57.1406973290       15.4928684285  MEMB      193             0.0000000000
     23962       193  QMPE      HX             46.2274343328      -58.0252596491       15.5734798266  MEMB      193             0.0000000000
     23963       193  QMPE      HY             47.8596058507      -57.5177868757       15.0804509175  MEMB      193             0.0000000000
     23964       193  QMPE      O31            46.3653600487      -56.2146206252       14.5638338307  MEMB      193             0.0000000000
     23965       193  QMPE      C31            45.0831953393      -56.2806268975       14.2726655736  MEMB      193             0.0000000000
     23966       193  QMPE      O32            44.3247722753      -57.2003362499       14.5012253365  MEMB      193             0.0000000000
     23967       193  QMPE      C32            44.7470352549      -54.9960709023       13.6050754569  MEMB      193             0.0000000000
     23968       193  QMPE      H2X            45.2512482621      -54.2278331847       14.2283077326  MEMB      193             0.0000000000
     23969       193  QMPE      H2Y            45.1758308554      -55.0070069612       12.5831162437  MEMB      193             0.0000000000
     23970       193  QMPE      C23            50.3931694580      -54.0434678170       16.4510761621  MEMB      193             0.0000000000
     23971       193  QMPE      H3R            50.5429193377      -55.0309000604       15.9655569355  MEMB      193             0.0000000000
     23972       193  QMPE      H3S            51.3603030172      -53.5717331267       16.6625559550  MEMB      193             0.0000000000
     23973       193  QMPE      C24            49.4978326967      -53.0528546627       15.6863102705  MEMB      193             0.0000000000
     23974       193  QMPE      H4R            49.7499633581      -52.0221167832       16.0262813907  MEMB      193             0.0000000000
     23975       193  QMPE      H4S            48.4527850915      -53.2827718215       16.0028932976  MEMB      193             0.0000000000
     23976       193  QMPE      C25            49.4282127704      -53.1115997294       14.1490269357  MEMB      193             0.0000000000
     23977       193  QMPE      H5R            50.4019315172      -52.7914106831       13.7433220043  MEMB      193             0.0000000000
     23978       193  QMPE      H5S            48.6579544151      -52.3755446827       13.8054598432  MEMB      193             0.0000000000
     23979       193  QMPE      C26            49.0678876312      -54.5107436499       13.6013045707  MEMB      193             0.0000000000
     23980       193  QMPE      H6R            48.3312116096      -54.9297901765       14.3053305387  MEMB      193             0.0000000000
     23981       193  QMPE      H6S            49.9223082845      -55.2094253020       13.6807873269  MEMB      193             0.0000000000
     23982       193  QMPE      C27            48.5403526236      -54.5535519676       12.1446252670  MEMB      193             0.0000000000
     23983       193  QMPE      H7R            49.3138641316      -54.0344107714       11.5325433628  MEMB      193             0.0000000000
     23984       193  QMPE      H7S            47.5748773553      -54.0027816943       12.0723876609  MEMB      193             0.0000000000
     23985       193  QMPE      C28            48.3293579136      -55.9625644991       11.5296905629  MEMB      193             0.0000000000
     23986       193  QMPE      H8R            47.5916344504      -56.6020026957       12.0856329243  MEMB      193             0.0000000000
     23987       193  QMPE      H8S            49.3197660930      -56.4746834523       11.4864189177  MEMB      193             0.0000000000
     23988       193  QMPE      C29            47.8290317426      -55.8839012767       10.0864875897  MEMB      193             0.0000000000
     23989       193  QMPE      H9R            46.7969133560      -55.5874738401        9.8636536084  MEMB      193             0.0000000000
     23990       193  QMPE      C217           48.3005692792      -57.0900522472        9.3579038818  MEMB      193             0.0000000000
     23991       193  QMPE      H17R           49.0428951820      -57.6998047349        9.8688581990  MEMB      193             0.0000000000
     23992       193  QMPE      H17S           47.6184202662      -57.4157057977        8.5833301395  MEMB      193             0.0000000000
     23993       193  QMPE      C210           48.7385672791      -55.7068460515        8.8905415325  MEMB      193             0.0000000000
     23994       193  QMPE      H10R           48.2291213515      -55.3888660474        7.9525674895  MEMB      193             0.0000000000
     23995       193  QMPE      C211           50.1850207208      -55.3309403889        9.1066034904  MEMB      193             0.0000000000
     23996       193  QMPE      H11R           50.2669541679      -54.2404077967        9.2544404052  MEMB      193             0.0000000000
     23997       193  QMPE      H11S           50.6091988633      -55.9340810337        9.9482915479  MEMB      193             0.0000000000
     23998       193  QMPE      C212           51.0194158935      -55.5804363082        7.8723578632  MEMB      193             0.0000000000
     23999       193  QMPE      H12R           50.9895966457      -56.6538756960        7.8214604128  MEMB      193             0.0000000000
     24000       193  QMPE      H12S           52.0871543420      -55.6508187715        8.0827273823  MEMB      193             0.0000000000
     24001       193  QMPE      C213           50.7591082063      -54.6735226732        6.6308627596  MEMB      193             0.0000000000
     24002       193  QMPE      H13R           51.2504228167      -53.7141318966        6.8175534425  MEMB      193             0.0000000000
     24003       193  QMPE      H13S           49.7009522231      -54.4591938757        6.3669480861  MEMB      193             0.0000000000
     24004       193  QMPE      C214           51.4947576971      -55.1803373561        5.4181873508  MEMB      193             0.0000000000
     24005       193  QMPE      H14R           50.7955718007      -55.8771951492        5.0412107380  MEMB      193             0.0000000000
     24006       193  QMPE      H14S           52.4657042814      -55.6719118649        5.6661490488  MEMB      193             0.0000000000
     24007       193  QMPE      C215           51.5370154986      -54.5264129685        4.0465504167  MEMB      193             0.0000000000
     24008       193  QMPE      H15R           52.4672684822      -54.7461056652        3.4797065488  MEMB      193             0.0000000000
     24009       193  QMPE      H15S           51.4481023230      -53.5746592366        4.3548968877  MEMB      193             0.0000000000
     24010       193  QMPE      C216           50.3436717882      -54.5095941296        3.1066087705  MEMB      193             0.0000000000
     24011       193  QMPE      H16R           50.1084172114      -55.4716433433        2.7060899689  MEMB      193             0.0000000000
     24012       193  QMPE      H16S           50.6051164820      -53.9195005118        2.2152373286  MEMB      193             0.0000000000
     24013       193  QMPE      H16T           49.4004002674      -54.1881721632        3.5655277131  MEMB      193             0.0000000000
     24014       193  QMPE      C33            43.2704176252      -54.6510089855       13.4349484345  MEMB      193             0.0000000000
     24015       193  QMPE      H3X            42.6333247836      -54.7344477244       14.3569396496  MEMB      193             0.0000000000
     24016       193  QMPE      H3Y            42.8984929816      -55.3516343179       12.6459330965  MEMB      193             0.0000000000
     24017       193  QMPE      C34            43.2535161348      -53.1590823274       13.0471098401  MEMB      193             0.0000000000
     24018       193  QMPE      H4X            43.4854862823      -52.5706358135       13.9743737946  MEMB      193             0.0000000000
     24019       193  QMPE      H4Y            42.2323916910      -52.8913368406       12.7735457241  MEMB      193             0.0000000000
     24020       193  QMPE      C35            44.1418154903      -52.7671439208       11.8281332838  MEMB      193             0.0000000000
     24021       193  QMPE      H5X            43.8361602665      -53.3813927052       10.9532662848  MEMB      193             0.0000000000
     24022       193  QMPE      H5Y            45.2350122340      -52.9123671960       11.9825138071  MEMB      193             0.0000000000
     24023       193  QMPE      C36            43.9601814579      -51.3167123174       11.3606430964  MEMB      193             0.0000000000
     24024       193  QMPE      H6X            43.9663467217      -50.6726010507       12.2661659098  MEMB      193             0.0000000000
     24025       193  QMPE      H6Y            43.0124056035      -51.1643927215       10.8391678148  MEMB      193             0.0000000000
     24026       193  QMPE      C37            45.0109298295      -50.7856299979       10.3995752671  MEMB      193             0.0000000000
     24027       193  QMPE      H7X            44.7648444798      -49.7858875046        9.9755992466  MEMB      193             0.0000000000
     24028       193  QMPE      H7Y            45.6581097691      -50.5162505756       11.2336184329  MEMB      193             0.0000000000
     24029       193  QMPE      C38            45.5393454880      -51.8886787741        9.4344024047  MEMB      193             0.0000000000
     24030       193  QMPE      H8X            46.0878221216      -52.7036067935        9.9718439133  MEMB      193             0.0000000000
     24031       193  QMPE      H8Y            44.7653967784      -52.1784601361        8.7647217767  MEMB      193             0.0000000000
     24032       193  QMPE      C39            46.4159688353      -51.6271258673        8.3124856965  MEMB      193             0.0000000000
     24033       193  QMPE      H9X            46.9701146305      -51.3826235457        9.3406459630  MEMB      193             0.0000000000
     24034       193  QMPE      H9Y            46.1221414757      -50.8148916248        7.5390021550  MEMB      193             0.0000000000
     24035       193  QMPE      C310           47.2719906455      -52.5108716511        7.4735500367  MEMB      193             0.0000000000
     24036       193  QMPE      H10X           47.8572864046      -53.1581930060        8.0701353244  MEMB      193             0.0000000000
     24037       193  QMPE      H10Y           48.2120359510      -52.2146909171        7.0344416563  MEMB      193             0.0000000000
     24038       193  QMPE      C311           46.4107657063      -52.9434556455        6.3426429909  MEMB      193             0.0000000000
     24039       193  QMPE      H11X           45.9238032605      -52.0898779810        5.8019621096  MEMB      193             0.0000000000
     24040       193  QMPE      H11Y           45.6448664967      -53.5382905813        6.8749513309  MEMB      193             0.0000000000
     24041       193  QMPE      C312           47.1485017302      -53.7956091809        5.3444293720  MEMB      193             0.0000000000
     24042       193  QMPE      H12X           47.6708075746      -54.6011123784        5.8994794816  MEMB      193             0.0000000000
     24043       193  QMPE      H12Y           47.8747461967      -53.1488241129        4.7990463208  MEMB      193             0.0000000000
     24044       193  QMPE      C313           46.1424059755      -54.3430893721        4.3550630710  MEMB      193             0.0000000000
     24045       193  QMPE      H13X           46.4984745590      -55.2551613803        3.8255686520  MEMB      193             0.0000000000
     24046       193  QMPE      H13Y           45.2295966777      -54.6155581913        4.9294689855  MEMB      193             0.0000000000
     24047       193  QMPE      C314           45.7091846543      -53.2082108699        3.4319093865  MEMB      193             0.0000000000
     24048       193  QMPE      H14X           46.5801658043      -52.5605024571        3.1842802913  MEMB      193             0.0000000000
     24049       193  QMPE      H14Y           44.9784000615      -52.5870917445        4.0058092405  MEMB      193             0.0000000000
     24050       193  QMPE      C315           45.0277200551      -53.6995537639        2.1750720076  MEMB      193             0.0000000000
     24051       193  QMPE      H15X           45.7259534547      -54.2684560931        1.5236368186  MEMB      193             0.0000000000
     24052       193  QMPE      H15Y           44.1953121957      -54.3406835231        2.4685036438  MEMB      193             0.0000000000
     24053       193  QMPE      H15Z           44.5513916351      -52.8713087177        1.6233268544  MEMB      193             0.0000000000
     24054       194  PMPE      N              51.0177294715       44.3945019572       19.5557288518  MEMB      194             0.0000000000
     24055       194  PMPE      HN1            51.2296641681       44.0293191027       18.5959206292  MEMB      194             0.0000000000
     24056       194  PMPE      HN2            51.2483243693       43.6649996549       20.2698786424  MEMB      194             0.0000000000
     24057       194  PMPE      HN3            50.0265341559       44.5965230430       19.7043894983  MEMB      194             0.0000000000
     24058       194  PMPE      C12            51.8574492238       45.6232774431       19.7668515816  MEMB      194             0.0000000000
     24059       194  PMPE      H12A           51.4117302083       46.1825346994       20.5974653710  MEMB      194             0.0000000000
     24060       194  PMPE      H12B           51.9082474456       46.2508573503       18.8473067820  MEMB      194             0.0000000000
     24061       194  PMPE      C11            53.2394197790       45.1611640740       20.1223449914  MEMB      194             0.0000000000
     24062       194  PMPE      H11A           53.1778090695       44.4355816187       20.9619284115  MEMB      194             0.0000000000
     24063       194  PMPE      H11B           53.8743087368       46.0334565710       20.4081762501  MEMB      194             0.0000000000
     24064       194  PMPE      P              55.2157901971       44.4516022205       18.5653499211  MEMB      194             0.0000000000
     24065       194  PMPE      O13            55.8750817932       43.3367819507       19.2675963897  MEMB      194             0.0000000000
     24066       194  PMPE      O14            55.7785940087       45.7939818461       18.7563102160  MEMB      194             0.0000000000
     24067       194  PMPE      O11            55.1594177743       44.0806867906       17.0351987613  MEMB      194             0.0000000000
     24068       194  PMPE      O12            53.6941219830       44.4941494356       18.9692289303  MEMB      194             0.0000000000
     24069       194  PMPE      C1             53.9305612551       43.6097845328       16.4601199701  MEMB      194             0.0000000000
     24070       194  PMPE      HA             53.1760942570       44.4321780665       16.4631394489  MEMB      194             0.0000000000
     24071       194  PMPE      HB             53.6106380726       42.6709935054       16.9307338887  MEMB      194             0.0000000000
     24072       194  PMPE      C2             54.0210961133       43.2483874299       15.0119786272  MEMB      194             0.0000000000
     24073       194  PMPE      HS             54.7040395126       42.3611893822       14.9032459422  MEMB      194             0.0000000000
     24074       194  PMPE      O21            54.6292944542       44.3484230946       14.6063099387  MEMB      194             0.0000000000
     24075       194  PMPE      C21            54.5965279770       44.1610098898       13.5363080137  MEMB      194             0.0000000000
     24076       194  PMPE      O22            54.9286172248       43.0438470134       12.9817895324  MEMB      194             0.0000000000
     24077       194  PMPE      C22            55.1928618755       45.6635900445       13.7690007266  MEMB      194             0.0000000000
     24078       194  PMPE      H2R            56.4780286576       45.6987199168       13.7275314656  MEMB      194             0.0000000000
     24079       194  PMPE      H2S            56.2279972119       45.5792465039       14.3240102111  MEMB      194             0.0000000000
     24080       194  PMPE      C3             52.6095146793       43.0901313749       14.2262069540  MEMB      194             0.0000000000
     24081       194  PMPE      HX             52.0311101253       43.9832758553       14.5015683006  MEMB      194             0.0000000000
     24082       194  PMPE      HY             52.2006640115       42.1856866778       14.6114578778  MEMB      194             0.0000000000
     24083       194  PMPE      O31            52.5359258755       43.1385511329       12.7532339730  MEMB      194             0.0000000000
     24084       194  PMPE      C31            52.8408021834       42.0487255075       12.1120967482  MEMB      194             0.0000000000
     24085       194  PMPE      O32            53.1623897296       40.9947239299       12.6453251879  MEMB      194             0.0000000000
     24086       194  PMPE      C32            52.6435236269       42.3934257505       10.6247026461  MEMB      194             0.0000000000
     24087       194  PMPE      H2X            53.5739808101       42.8264388350       10.2445685461  MEMB      194             0.0000000000
     24088       194  PMPE      H2Y            51.7743568276       43.0834999247       10.5482414520  MEMB      194             0.0000000000
     24089       194  PMPE      C23            54.6547706365       46.8310050957       12.9441919540  MEMB      194             0.0000000000
     24090       194  PMPE      H3R            55.0962322983       47.7591421685       12.6286157182  MEMB      194             0.0000000000
     24091       194  PMPE      H3S            54.3247023228       47.0584298937       13.8542169411  MEMB      194             0.0000000000
     24092       194  PMPE      C24            53.7528302947       46.7917868350       12.0137573415  MEMB      194             0.0000000000
     24093       194  PMPE      H4R            53.2881890697       47.7619350077       12.2140064095  MEMB      194             0.0000000000
     24094       194  PMPE      H4S            53.2116171104       45.9458836531       12.2534027818  MEMB      194             0.0000000000
     24095       194  PMPE      C25            54.3381168119       46.9030531922       10.7532617493  MEMB      194             0.0000000000
     24096       194  PMPE      H5R            55.2753681763       46.6396127243       10.4676912289  MEMB      194             0.0000000000
     24097       194  PMPE      H5S            54.6798403323       47.9641864074       10.8552365030  MEMB      194             0.0000000000
     24098       194  PMPE      C26            53.4723478640       46.3826564990        9.6823099802  MEMB      194             0.0000000000
     24099       194  PMPE      H6R            52.6249770998       46.9636818898       10.0816480439  MEMB      194             0.0000000000
     24100       194  PMPE      H6S            53.3035394625       45.2937395427        9.6257395336  MEMB      194             0.0000000000
     24101       194  PMPE      C27            53.5411456225       46.8327795179        8.2160214216  MEMB      194             0.0000000000
     24102       194  PMPE      H7R            54.3604552849       46.4818512806        7.9246086393  MEMB      194             0.0000000000
     24103       194  PMPE      H7S            53.6357908020       47.9134510689        8.0162704170  MEMB      194             0.0000000000
     24104       194  PMPE      C28            53.0932817117       46.0687396191        7.1172575370  MEMB      194             0.0000000000
     24105       194  PMPE      H8R            52.9518177790       45.0296490993        7.2984942752  MEMB      194             0.0000000000
     24106       194  PMPE      H8S            53.2512677966       46.3756448798        6.0373542460  MEMB      194             0.0000000000
     24107       194  PMPE      C29            51.9682359029       46.5816385550        7.5884234471  MEMB      194             0.0000000000
     24108       194  PMPE      H9R            51.8481415954       47.6810094700        8.2222719771  MEMB      194             0.0000000000
     24109       194  PMPE      C217           51.1724435605       46.2569355388        8.5798405596  MEMB      194             0.0000000000
     24110       194  PMPE      H17R           50.4284845862       46.9984157580        9.1725464985  MEMB      194             0.0000000000
     24111       194  PMPE      H17S           51.0528910059       45.2317249409        8.9443411477  MEMB      194             0.0000000000
     24112       194  PMPE      C210           51.0685231345       46.1262618767        6.4625857921  MEMB      194             0.0000000000
     24113       194  PMPE      H10R           50.1129063069       46.7418012838        5.9996792661  MEMB      194             0.0000000000
     24114       194  PMPE      C211           50.7679574081       44.6335894770        5.8948973472  MEMB      194             0.0000000000
     24115       194  PMPE      H11R           49.7110174547       44.1727712465        5.7087445617  MEMB      194             0.0000000000
     24116       194  PMPE      H11S           51.2218653350       44.0452513332        6.6955774730  MEMB      194             0.0000000000
     24117       194  PMPE      C212           51.1633691410       44.4609539555        4.5927708744  MEMB      194             0.0000000000
     24118       194  PMPE      H12R           51.2924564570       43.3934490806        4.5660062928  MEMB      194             0.0000000000
     24119       194  PMPE      H12S           52.1323242087       44.8917421602        4.6512375881  MEMB      194             0.0000000000
     24120       194  PMPE      C213           50.2791358233       45.1965811354        3.6224337456  MEMB      194             0.0000000000
     24121       194  PMPE      H13R           50.3113032263       46.2444852733        3.9130787939  MEMB      194             0.0000000000
     24122       194  PMPE      H13S           49.2190157186       44.8897189873        3.6372181441  MEMB      194             0.0000000000
     24123       194  PMPE      C214           50.9409999346       45.2504775336        2.2823278779  MEMB      194             0.0000000000
     24124       194  PMPE      H14R           51.4665047566       44.3000905185        2.2858192626  MEMB      194             0.0000000000
     24125       194  PMPE      H14S           51.8552919785       45.8149940091        2.2427084723  MEMB      194             0.0000000000
     24126       194  PMPE      C215           50.0379225764       45.6990642089        1.1358333712  MEMB      194             0.0000000000
     24127       194  PMPE      H15R           49.0050360620       45.2875593675        1.2659444473  MEMB      194             0.0000000000
     24128       194  PMPE      H15S           50.3613722327       45.3436373178        0.1325487808  MEMB      194             0.0000000000
     24129       194  PMPE      C216           50.0110535660       47.1865657584        1.0191448469  MEMB      194             0.0000000000
     24130       194  PMPE      H16R           51.0216987667       47.5966352158        0.7694497182  MEMB      194             0.0000000000
     24131       194  PMPE      H16S           49.2484363617       47.4673261443        0.2713445826  MEMB      194             0.0000000000
     24132       194  PMPE      H16T           49.6758687350       47.5918977507        1.9853118216  MEMB      194             0.0000000000
     24133       194  PMPE      C33            52.6200586634       41.2054343062        9.7082256366  MEMB      194             0.0000000000
     24134       194  PMPE      H3X            51.6670169509       40.8180917679        9.8358131062  MEMB      194             0.0000000000
     24135       194  PMPE      H3Y            53.3582049475       40.4517430285       10.0487215142  MEMB      194             0.0000000000
     24136       194  PMPE      C34            52.1139507125       41.3091217068        8.3044706904  MEMB      194             0.0000000000
     24137       194  PMPE      H4X            51.1214547140       41.7962251870        8.3125372505  MEMB      194             0.0000000000
     24138       194  PMPE      H4Y            52.0143734057       40.3030821113        7.8209995597  MEMB      194             0.0000000000
     24139       194  PMPE      C35            52.9922068983       42.1316161904        7.5278821574  MEMB      194             0.0000000000
     24140       194  PMPE      H5X            53.2996042807       43.1112152777        7.9611365588  MEMB      194             0.0000000000
     24141       194  PMPE      H5Y            52.6907174985       42.1579563010        6.4851871564  MEMB      194             0.0000000000
     24142       194  PMPE      C36            54.2089414069       41.4849492670        7.4627960067  MEMB      194             0.0000000000
     24143       194  PMPE      H6X            54.2338505205       40.3571224937        7.5098889786  MEMB      194             0.0000000000
     24144       194  PMPE      H6Y            54.5978764012       41.8373123672        8.4595388527  MEMB      194             0.0000000000
     24145       194  PMPE      C37            55.0157195887       42.1232934444        6.2718412789  MEMB      194             0.0000000000
     24146       194  PMPE      H7X            54.5702133038       41.9683673532        5.3408960409  MEMB      194             0.0000000000
     24147       194  PMPE      H7Y            55.6449708155       41.2756087856        5.9956330705  MEMB      194             0.0000000000
     24148       194  PMPE      C38            55.8974297714       43.4449304961        6.5470945784  MEMB      194             0.0000000000
     24149       194  PMPE      H8X            56.6657987870       43.4682838434        7.3841734491  MEMB      194             0.0000000000
     24150       194  PMPE      H8Y            55.1170656775       44.0897941464        6.9342373767  MEMB      194             0.0000000000
     24151       194  PMPE      C39            56.5873099765       44.0925376488        5.3142333792  MEMB      194             0.0000000000
     24152       194  PMPE      H9X            57.4830009824       43.6024150131        4.9137053166  MEMB      194             0.0000000000
     24153       194  PMPE      H9Y            57.0335676431       45.0258612842        5.6395163037  MEMB      194             0.0000000000
     24154       194  PMPE      C310           55.6878489887       44.2388341394        4.0960259296  MEMB      194             0.0000000000
     24155       194  PMPE      H10X           56.0797231543       45.1527274188        3.6007287964  MEMB      194             0.0000000000
     24156       194  PMPE      H10Y           54.6645319210       44.3896494406        4.4912248709  MEMB      194             0.0000000000
     24157       194  PMPE      C311           55.7334839749       43.0771338325        3.0795684593  MEMB      194             0.0000000000
     24158       194  PMPE      H11X           55.8815339944       42.1370861959        3.6337938891  MEMB      194             0.0000000000
     24159       194  PMPE      H11Y           56.6382107171       43.1763992010        2.4467337075  MEMB      194             0.0000000000
     24160       194  PMPE      C312           54.5761536762       43.0044879227        2.0695499474  MEMB      194             0.0000000000
     24161       194  PMPE      H12X           53.5964665129       42.7719833036        2.5328037724  MEMB      194             0.0000000000
     24162       194  PMPE      H12Y           54.8051426102       42.1380151235        1.4041487840  MEMB      194             0.0000000000
     24163       194  PMPE      C313           54.4511331772       44.2498110198        1.2219700987  MEMB      194             0.0000000000
     24164       194  PMPE      H13X           55.4656078675       44.6509249097        0.9902088392  MEMB      194             0.0000000000
     24165       194  PMPE      H13Y           53.9787483527       45.1044632062        1.7531181307  MEMB      194             0.0000000000
     24166       194  PMPE      C314           53.6014401620       43.8868388485        0.0519121148  MEMB      194             0.0000000000
     24167       194  PMPE      H14X           52.5165268870       43.8579207035        0.1826736788  MEMB      194             0.0000000000
     24168       194  PMPE      H14Y           53.9429238734       43.1009976543       -0.6612415261  MEMB      194             0.0000000000
     24169       194  PMPE      C315           53.6483648103       44.9094294847       -0.5740262130  MEMB      194             0.0000000000
     24170       194  PMPE      H15X           53.2738076826       45.9509836793       -0.1083515574  MEMB      194             0.0000000000
     24171       194  PMPE      H15Y           53.0077872645       44.7209580631       -1.3794388631  MEMB      194             0.0000000000
     24172       194  PMPE      C316           55.0102209178       44.8454676177       -1.1483964177  MEMB      194             0.0000000000
     24173       194  PMPE      H16X           54.8522328756       45.4476123260       -1.7778247344  MEMB      194             0.0000000000
     24174       194  PMPE      H16Y           55.3984807539       44.4242187141       -2.0698561730  MEMB      194             0.0000000000
     24175       194  PMPE      H16Z           55.6057296818       45.5101440633       -0.5802682315  MEMB      194             0.0000000000
     24176       195  POPE      N             -47.5152585459       54.7812422617       17.2463242554  MEMB      195             0.0000000000
     24177       195  POPE      HN1           -48.2104062307       54.3588740861       17.8880186779  MEMB      195             0.0000000000
     24178       195  POPE      HN2           -47.7722100758       55.7368455564       16.9250097433  MEMB      195             0.0000000000
     24179       195  POPE      HN3           -47.3530290346       54.2120486756       16.3948531075  MEMB      195             0.0000000000
     24180       195  POPE      C12           -46.3202566873       54.6890836228       18.1340361134  MEMB      195             0.0000000000
     24181       195  POPE      H12A          -46.4343134139       55.4544811607       18.9446252995  MEMB      195             0.0000000000
     24182       195  POPE      H12B          -45.4845577823       54.9257455800       17.5041852076  MEMB      195             0.0000000000
     24183       195  POPE      C11           -45.8027809806       53.3567556827       18.4150444719  MEMB      195             0.0000000000
     24184       195  POPE      H11A          -44.7769403628       53.3965993019       18.8682997733  MEMB      195             0.0000000000
     24185       195  POPE      H11B          -45.7883174029       52.8235984744       17.4413215735  MEMB      195             0.0000000000
     24186       195  POPE      P             -46.4294252467       51.2902197347       19.7490587785  MEMB      195             0.0000000000
     24187       195  POPE      O13           -47.7228736961       50.6540437463       19.9750296108  MEMB      195             0.0000000000
     24188       195  POPE      O14           -45.4363172648       51.3642886751       20.8483390934  MEMB      195             0.0000000000
     24189       195  POPE      O11           -45.7410312141       50.6759838555       18.4655413349  MEMB      195             0.0000000000
     24190       195  POPE      O12           -46.7310165318       52.7835180304       19.2548104662  MEMB      195             0.0000000000
     24191       195  POPE      C1            -44.5924335508       49.8456063140       18.4166493700  MEMB      195             0.0000000000
     24192       195  POPE      HA            -44.7958626040       48.8705878566       18.9231148526  MEMB      195             0.0000000000
     24193       195  POPE      HB            -43.7615190768       50.3226357420       18.9823943470  MEMB      195             0.0000000000
     24194       195  POPE      C2            -44.0882381805       49.7591227635       16.9304915608  MEMB      195             0.0000000000
     24195       195  POPE      HS            -43.3327421645       48.9598001243       16.8613513519  MEMB      195             0.0000000000
     24196       195  POPE      O21           -43.4631147328       51.0319035479       16.6522693132  MEMB      195             0.0000000000
     24197       195  POPE      C21           -42.6609420598       51.1323247372       15.5848079333  MEMB      195             0.0000000000
     24198       195  POPE      O22           -42.4063663980       50.2160059318       14.8269910032  MEMB      195             0.0000000000
     24199       195  POPE      C22           -42.1417902819       52.5356045232       15.4120571752  MEMB      195             0.0000000000
     24200       195  POPE      H2R           -41.5191326393       52.6973713189       14.5081678380  MEMB      195             0.0000000000
     24201       195  POPE      H2S           -41.4785564956       52.7945096223       16.2662628444  MEMB      195             0.0000000000
     24202       195  POPE      C3            -45.1907088663       49.4684535854       15.9011849930  MEMB      195             0.0000000000
     24203       195  POPE      HX            -45.5434413511       48.3956115474       16.1118545242  MEMB      195             0.0000000000
     24204       195  POPE      HY            -44.8060112070       49.3630320282       14.8522181407  MEMB      195             0.0000000000
     24205       195  POPE      O31           -46.1316711216       50.6371618349       16.0509036330  MEMB      195             0.0000000000
     24206       195  POPE      C31           -47.2956160726       50.2072921250       15.7277231195  MEMB      195             0.0000000000
     24207       195  POPE      O32           -47.2313932259       49.1718970427       15.1559699522  MEMB      195             0.0000000000
     24208       195  POPE      C32           -48.4718969695       51.2083606112       16.0539098444  MEMB      195             0.0000000000
     24209       195  POPE      H2X           -48.0033199471       52.1414617513       15.7189884122  MEMB      195             0.0000000000
     24210       195  POPE      H2Y           -48.5519224484       51.2517446274       17.1612258813  MEMB      195             0.0000000000
     24211       195  POPE      C23           -43.3343438374       53.4328298096       15.2836526313  MEMB      195             0.0000000000
     24212       195  POPE      H3R           -42.7088120473       54.3356943896       15.5270927106  MEMB      195             0.0000000000
     24213       195  POPE      H3S           -44.1849811035       53.3013149938       16.0070868130  MEMB      195             0.0000000000
     24214       195  POPE      C24           -44.0158839928       53.6108981110       13.9179377669  MEMB      195             0.0000000000
     24215       195  POPE      H4R           -43.2394513797       53.7744943768       13.1217720789  MEMB      195             0.0000000000
     24216       195  POPE      H4S           -44.8044701319       54.4210510276       13.9625636203  MEMB      195             0.0000000000
     24217       195  POPE      C25           -44.6403350154       52.3964298553       13.4150217360  MEMB      195             0.0000000000
     24218       195  POPE      H5R           -45.2249101453       52.1079762012       14.3006545859  MEMB      195             0.0000000000
     24219       195  POPE      H5S           -43.8196690902       51.6682648228       13.3137897983  MEMB      195             0.0000000000
     24220       195  POPE      C26           -45.4456578161       52.5866910238       12.1160382369  MEMB      195             0.0000000000
     24221       195  POPE      H6R           -46.0423514253       53.5315054624       12.1324781741  MEMB      195             0.0000000000
     24222       195  POPE      H6S           -46.1901369120       51.7692483666       12.1149129305  MEMB      195             0.0000000000
     24223       195  POPE      C27           -44.6637930980       52.3206009187       10.7965486780  MEMB      195             0.0000000000
     24224       195  POPE      H7R           -44.3436505091       51.2489895196       10.7796540486  MEMB      195             0.0000000000
     24225       195  POPE      H7S           -43.7163072045       52.8986842748       10.7889935873  MEMB      195             0.0000000000
     24226       195  POPE      C28           -45.4908589091       52.5499606577        9.5026142183  MEMB      195             0.0000000000
     24227       195  POPE      H8R           -45.9543056333       53.5739195900        9.5331696218  MEMB      195             0.0000000000
     24228       195  POPE      H8S           -46.2928609373       51.7751978669        9.4873946336  MEMB      195             0.0000000000
     24229       195  POPE      C29           -44.6247679347       52.3282053248        8.2838928487  MEMB      195             0.0000000000
     24230       195  POPE      H91           -44.2675960004       51.3138109351        8.1095721098  MEMB      195             0.0000000000
     24231       195  POPE      C210          -44.2076059258       53.2563887978        7.4403423676  MEMB      195             0.0000000000
     24232       195  POPE      H101          -43.5507532812       53.0311061235        6.5833784043  MEMB      195             0.0000000000
     24233       195  POPE      C211          -44.5464893552       54.6678456828        7.5990895491  MEMB      195             0.0000000000
     24234       195  POPE      H11R          -43.6347288438       55.0513516564        7.0889386172  MEMB      195             0.0000000000
     24235       195  POPE      H11S          -44.6406824064       54.9695054553        8.7035325808  MEMB      195             0.0000000000
     24236       195  POPE      C212          -45.6572597916       55.3684116688        6.8679570845  MEMB      195             0.0000000000
     24237       195  POPE      H12R          -45.6640324722       56.4690781896        7.0257283475  MEMB      195             0.0000000000
     24238       195  POPE      H12S          -46.5426526112       54.9627948556        7.3828947447  MEMB      195             0.0000000000
     24239       195  POPE      C213          -45.7359613132       55.0641593471        5.3628992726  MEMB      195             0.0000000000
     24240       195  POPE      H13R          -45.8896015519       53.9784981673        5.2510479162  MEMB      195             0.0000000000
     24241       195  POPE      H13S          -44.7879900283       55.2337924038        4.8094138144  MEMB      195             0.0000000000
     24242       195  POPE      C214          -46.8663227143       55.8456621526        4.6682644569  MEMB      195             0.0000000000
     24243       195  POPE      H14R          -46.9451499229       55.5815000663        3.5960582567  MEMB      195             0.0000000000
     24244       195  POPE      H14S          -46.6127224693       56.9261625762        4.6824448441  MEMB      195             0.0000000000
     24245       195  POPE      C215          -48.2271212033       55.6133264843        5.2888263799  MEMB      195             0.0000000000
     24246       195  POPE      H15R          -48.1840442683       55.9089102294        6.3559433247  MEMB      195             0.0000000000
     24247       195  POPE      H15S          -48.5516063782       54.5500598772        5.2332221351  MEMB      195             0.0000000000
     24248       195  POPE      C216          -49.3566880774       56.3172260708        4.6206812798  MEMB      195             0.0000000000
     24249       195  POPE      H16R          -49.5076656523       57.3948210178        4.9519883994  MEMB      195             0.0000000000
     24250       195  POPE      H16S          -50.2257750570       55.7189419892        4.9793504442  MEMB      195             0.0000000000
     24251       195  POPE      C217          -49.4325422832       56.2512647560        3.1146103576  MEMB      195             0.0000000000
     24252       195  POPE      H17R          -49.4168921541       55.3973814457        2.6137825461  MEMB      195             0.0000000000
     24253       195  POPE      H17S          -48.4174629428       56.8325222253        3.0590153194  MEMB      195             0.0000000000
     24254       195  POPE      C218          -50.7792682984       56.6357332526        2.0086444712  MEMB      195             0.0000000000
     24255       195  POPE      H18R          -51.2003051234       57.8649337101        2.6203219578  MEMB      195             0.0000000000
     24256       195  POPE      H18S          -51.5418554126       57.2027934080        1.9390459488  MEMB      195             0.0000000000
     24257       195  POPE      H18T          -50.6587623954       57.0927543441        1.0511446988  MEMB      195             0.0000000000
     24258       195  POPE      C33           -49.9508732355       51.0263239013       15.5740454365  MEMB      195             0.0000000000
     24259       195  POPE      H3X           -50.7179407586       51.0983166415       16.3519706556  MEMB      195             0.0000000000
     24260       195  POPE      H3Y           -50.1996366025       50.0164613181       15.5902490390  MEMB      195             0.0000000000
     24261       195  POPE      C34           -50.3928503074       51.6915036342       14.2780030821  MEMB      195             0.0000000000
     24262       195  POPE      H4X           -50.3174482447       52.7837171413       14.4321258651  MEMB      195             0.0000000000
     24263       195  POPE      H4Y           -51.4919626743       51.4955781481       14.1508918430  MEMB      195             0.0000000000
     24264       195  POPE      C35           -49.5176041861       51.3285308858       13.0535955515  MEMB      195             0.0000000000
     24265       195  POPE      H5X           -49.6590177611       50.2835192471       12.7143123725  MEMB      195             0.0000000000
     24266       195  POPE      H5Y           -48.4538403430       51.5327291769       13.2147741433  MEMB      195             0.0000000000
     24267       195  POPE      C36           -49.8776681428       52.2230104234       11.9221981955  MEMB      195             0.0000000000
     24268       195  POPE      H6X           -49.9884743121       53.2307467945       12.2727744008  MEMB      195             0.0000000000
     24269       195  POPE      H6Y           -50.8383065119       51.9105405657       11.9642534741  MEMB      195             0.0000000000
     24270       195  POPE      C37           -49.2952932114       51.9950944149       10.5510884816  MEMB      195             0.0000000000
     24271       195  POPE      H7X           -49.3667168405       50.9308242596       10.3153728861  MEMB      195             0.0000000000
     24272       195  POPE      H7Y           -48.2690850454       52.3124490792       10.5162320556  MEMB      195             0.0000000000
     24273       195  POPE      C38           -49.9466730012       52.6991536341        9.4112420514  MEMB      195             0.0000000000
     24274       195  POPE      H8X           -49.8471542617       53.5936470431        9.4512572816  MEMB      195             0.0000000000
     24275       195  POPE      H8Y           -50.9728433743       52.9232070616        9.5605283446  MEMB      195             0.0000000000
     24276       195  POPE      C39           -49.2924458098       52.9565604854        8.1269361153  MEMB      195             0.0000000000
     24277       195  POPE      H9X           -48.2395225177       53.1722327816        8.2864329038  MEMB      195             0.0000000000
     24278       195  POPE      H9Y           -49.7804509681       53.4832833057        7.2791269570  MEMB      195             0.0000000000
     24279       195  POPE      C310          -49.2823978177       51.7365182590        7.7044495512  MEMB      195             0.0000000000
     24280       195  POPE      H10X          -50.3508176088       51.4851534405        7.7588352550  MEMB      195             0.0000000000
     24281       195  POPE      H10Y          -48.8062480105       51.1413866562        8.4009806837  MEMB      195             0.0000000000
     24282       195  POPE      C311          -48.5731192428       51.7493089700        6.4599423547  MEMB      195             0.0000000000
     24283       195  POPE      H11X          -49.2496713278       52.2147994953        5.7083370819  MEMB      195             0.0000000000
     24284       195  POPE      H11Y          -48.3119683292       50.6629619870        6.4107763072  MEMB      195             0.0000000000
     24285       195  POPE      C312          -47.1502841822       51.4999316894        6.0593781633  MEMB      195             0.0000000000
     24286       195  POPE      H12X          -46.6169888586       50.9274069799        6.7966935150  MEMB      195             0.0000000000
     24287       195  POPE      H12Y          -46.8160031017       52.4817467729        6.1122488204  MEMB      195             0.0000000000
     24288       195  POPE      C313          -46.6987358902       50.7013635219        4.7933446977  MEMB      195             0.0000000000
     24289       195  POPE      H13X          -47.1852633210       49.7058647982        4.7286953830  MEMB      195             0.0000000000
     24290       195  POPE      H13Y          -45.6086804584       50.5480681082        4.9050311900  MEMB      195             0.0000000000
     24291       195  POPE      C314          -47.0188734443       51.4235793309        3.5034684212  MEMB      195             0.0000000000
     24292       195  POPE      H14X          -46.4596751544       52.3560965642        3.4392729691  MEMB      195             0.0000000000
     24293       195  POPE      H14Y          -47.9507011508       51.8385279596        3.6782621527  MEMB      195             0.0000000000
     24294       195  POPE      C315          -46.9833484083       50.6278027147        2.2009826822  MEMB      195             0.0000000000
     24295       195  POPE      H15X          -47.1006665136       51.3625696163        1.3691079359  MEMB      195             0.0000000000
     24296       195  POPE      H15Y          -47.8391888633       49.9209114610        2.0905107297  MEMB      195             0.0000000000
     24297       195  POPE      C316          -45.6207752216       49.9481039337        2.0935854128  MEMB      195             0.0000000000
     24298       195  POPE      H16X          -45.5445931176       49.0201384885        2.6975790426  MEMB      195             0.0000000000
     24299       195  POPE      H16Y          -44.8670330368       50.6570406663        2.5040944224  MEMB      195             0.0000000000
     24300       195  POPE      H16Z          -45.3509833197       49.7072678562        1.0467772295  MEMB      195             0.0000000000
     24301       196  PMPE      N              50.0813673842       51.3047219169       21.5339820681  MEMB      196             0.0000000000
     24302       196  PMPE      HN1            50.9598766811       51.8366587401       21.5050630009  MEMB      196             0.0000000000
     24303       196  PMPE      HN2            49.9294975005       50.8773757981       22.4586097369  MEMB      196             0.0000000000
     24304       196  PMPE      HN3            50.1096688663       50.5224658231       20.8387488016  MEMB      196             0.0000000000
     24305       196  PMPE      C12            49.0114681193       52.3266263352       21.2784777878  MEMB      196             0.0000000000
     24306       196  PMPE      H12A           49.1173905544       53.1595673305       22.0078545204  MEMB      196             0.0000000000
     24307       196  PMPE      H12B           48.0589759117       51.7887002155       21.4224303323  MEMB      196             0.0000000000
     24308       196  PMPE      C11            48.9883089290       52.7753583260       19.8279206722  MEMB      196             0.0000000000
     24309       196  PMPE      H11A           49.9743288866       53.2369832004       19.5496381249  MEMB      196             0.0000000000
     24310       196  PMPE      H11B           48.1716574836       53.5107605114       19.6680634040  MEMB      196             0.0000000000
     24311       196  PMPE      P              49.5171532591       51.2875174598       17.8016576665  MEMB      196             0.0000000000
     24312       196  PMPE      O13            48.9357825366       50.1020723296       17.1238975896  MEMB      196             0.0000000000
     24313       196  PMPE      O14            50.8997518953       51.2198696708       18.3211804477  MEMB      196             0.0000000000
     24314       196  PMPE      O11            49.1983127900       52.6471859838       17.0642857815  MEMB      196             0.0000000000
     24315       196  PMPE      O12            48.6281905317       51.6327268768       19.0567957882  MEMB      196             0.0000000000
     24316       196  PMPE      C1             47.9611334238       52.7251089124       16.3553048154  MEMB      196             0.0000000000
     24317       196  PMPE      HA             47.5042399248       53.7040283046       16.4952653043  MEMB      196             0.0000000000
     24318       196  PMPE      HB             47.2147608123       51.9879463286       16.7136986696  MEMB      196             0.0000000000
     24319       196  PMPE      C2             48.1632788138       52.4595754607       14.8595114623  MEMB      196             0.0000000000
     24320       196  PMPE      HS             48.2820508049       51.3508905900       14.7410751068  MEMB      196             0.0000000000
     24321       196  PMPE      O21            49.2463152706       53.2712706519       14.3609079449  MEMB      196             0.0000000000
     24322       196  PMPE      C21            50.4163004307       52.6946848646       14.3304260795  MEMB      196             0.0000000000
     24323       196  PMPE      O22            50.6703773300       51.5371704028       14.6114111827  MEMB      196             0.0000000000
     24324       196  PMPE      C22            51.4547434601       53.7413847945       13.9293407906  MEMB      196             0.0000000000
     24325       196  PMPE      H2R            51.9677714580       53.9991268804       14.8818199807  MEMB      196             0.0000000000
     24326       196  PMPE      H2S            51.0203236497       54.6482791203       13.4970763938  MEMB      196             0.0000000000
     24327       196  PMPE      C3             46.8972955028       52.7465962766       14.0432541961  MEMB      196             0.0000000000
     24328       196  PMPE      HX             46.7669233975       53.8154303948       13.7620347549  MEMB      196             0.0000000000
     24329       196  PMPE      HY             46.0236779449       52.5000493210       14.6772814671  MEMB      196             0.0000000000
     24330       196  PMPE      O31            46.8924987536       51.8901880414       12.9037164859  MEMB      196             0.0000000000
     24331       196  PMPE      C31            47.5451104863       52.4271782116       11.8894111797  MEMB      196             0.0000000000
     24332       196  PMPE      O32            48.2591730075       53.4082392494       11.8992080115  MEMB      196             0.0000000000
     24333       196  PMPE      C32            46.9932636023       51.7905724455       10.6514729145  MEMB      196             0.0000000000
     24334       196  PMPE      H2X            46.3253171263       52.5707830030       10.2082820329  MEMB      196             0.0000000000
     24335       196  PMPE      H2Y            46.4274021248       50.8756968834       10.9544674105  MEMB      196             0.0000000000
     24336       196  PMPE      C23            52.4830409257       53.1635752814       12.9762607055  MEMB      196             0.0000000000
     24337       196  PMPE      H3R            52.6753228704       52.2196273280       13.4977033962  MEMB      196             0.0000000000
     24338       196  PMPE      H3S            53.3867316023       53.8171870710       12.8686120024  MEMB      196             0.0000000000
     24339       196  PMPE      C24            52.0950983418       52.7612933314       11.5597506245  MEMB      196             0.0000000000
     24340       196  PMPE      H4R            51.7780444631       53.7217756139       11.1205530821  MEMB      196             0.0000000000
     24341       196  PMPE      H4S            51.2482110282       52.0527308430       11.5557504612  MEMB      196             0.0000000000
     24342       196  PMPE      C25            53.2793668375       52.2133514561       10.7273904577  MEMB      196             0.0000000000
     24343       196  PMPE      H5R            53.5820482682       51.1634419885       10.9823298590  MEMB      196             0.0000000000
     24344       196  PMPE      H5S            54.1424561230       52.8746482228       10.9963457673  MEMB      196             0.0000000000
     24345       196  PMPE      C26            53.0986710829       52.0002665813        9.2478436970  MEMB      196             0.0000000000
     24346       196  PMPE      H6R            54.1006130569       51.8025860457        8.8315022319  MEMB      196             0.0000000000
     24347       196  PMPE      H6S            52.7201118502       52.9049489419        8.7589623223  MEMB      196             0.0000000000
     24348       196  PMPE      C27            52.2029217011       50.7911820437        8.9427732454  MEMB      196             0.0000000000
     24349       196  PMPE      H7R            51.2954930194       50.8554480651        9.5857285075  MEMB      196             0.0000000000
     24350       196  PMPE      H7S            52.7647487283       49.8554637300        9.1789978518  MEMB      196             0.0000000000
     24351       196  PMPE      C28            51.7944814768       50.7945751336        7.4597843121  MEMB      196             0.0000000000
     24352       196  PMPE      H8R            52.6786694783       50.7160460293        6.8225006170  MEMB      196             0.0000000000
     24353       196  PMPE      H8S            51.1759722050       51.6879111218        7.2432406170  MEMB      196             0.0000000000
     24354       196  PMPE      C29            50.8732241505       49.7064367261        7.0491298447  MEMB      196             0.0000000000
     24355       196  PMPE      H9R            50.0735015202       49.4828114937        7.8073913239  MEMB      196             0.0000000000
     24356       196  PMPE      C217           51.5090786123       48.5548709709        6.4231630820  MEMB      196             0.0000000000
     24357       196  PMPE      H17R           50.5617897758       47.9996594511        7.1053226375  MEMB      196             0.0000000000
     24358       196  PMPE      H17S           52.6820191001       48.5663145626        6.5718686724  MEMB      196             0.0000000000
     24359       196  PMPE      C210           50.6955108270       49.1306469423        5.6481628303  MEMB      196             0.0000000000
     24360       196  PMPE      H10R           49.7800303456       48.5612357756        5.5239880195  MEMB      196             0.0000000000
     24361       196  PMPE      C211           51.4892766800       49.4303509149        4.5350859801  MEMB      196             0.0000000000
     24362       196  PMPE      H11R           51.7201378098       48.6593049234        3.7993906066  MEMB      196             0.0000000000
     24363       196  PMPE      H11S           52.4777254334       49.5222716882        4.8414310333  MEMB      196             0.0000000000
     24364       196  PMPE      C212           50.8729765469       50.6815261195        4.0523189533  MEMB      196             0.0000000000
     24365       196  PMPE      H12R           51.5093168989       50.9896458117        3.2246365622  MEMB      196             0.0000000000
     24366       196  PMPE      H12S           50.9057806024       51.5068551353        4.7935435476  MEMB      196             0.0000000000
     24367       196  PMPE      C213           49.5010567290       50.4269688945        3.4486212238  MEMB      196             0.0000000000
     24368       196  PMPE      H13R           48.7479160302       50.8082240668        4.1754563970  MEMB      196             0.0000000000
     24369       196  PMPE      H13S           49.3596124777       49.3140131420        3.3834043271  MEMB      196             0.0000000000
     24370       196  PMPE      C214           49.3564612867       51.0604629792        2.0401379943  MEMB      196             0.0000000000
     24371       196  PMPE      H14R           50.0982369477       50.6177704671        1.3351013191  MEMB      196             0.0000000000
     24372       196  PMPE      H14S           49.4903704293       52.1741075021        2.0479394022  MEMB      196             0.0000000000
     24373       196  PMPE      C215           47.9606525540       50.7459204121        1.5665564109  MEMB      196             0.0000000000
     24374       196  PMPE      H15R           47.6461775832       49.7667412707        1.8113844805  MEMB      196             0.0000000000
     24375       196  PMPE      H15S           47.6842590915       50.9004547445        0.5323486219  MEMB      196             0.0000000000
     24376       196  PMPE      C216           46.9779561121       51.5061146272        2.2894919999  MEMB      196             0.0000000000
     24377       196  PMPE      H16R           45.9145180169       51.3170432425        2.0515562810  MEMB      196             0.0000000000
     24378       196  PMPE      H16S           47.1754571989       51.9939506984        3.2178169849  MEMB      196             0.0000000000
     24379       196  PMPE      H16T           47.3957835159       52.2252342593        1.6313182090  MEMB      196             0.0000000000
     24380       196  PMPE      C33            48.1404203037       51.3359653333        9.7455427422  MEMB      196             0.0000000000
     24381       196  PMPE      H3X            48.7656119677       50.6348551945       10.3376693437  MEMB      196             0.0000000000
     24382       196  PMPE      H3Y            48.7981196910       52.1693331963        9.4213776153  MEMB      196             0.0000000000
     24383       196  PMPE      C34            47.5811793846       50.6426190769        8.5331849314  MEMB      196             0.0000000000
     24384       196  PMPE      H4X            46.4781297045       50.6163331044        8.7240234956  MEMB      196             0.0000000000
     24385       196  PMPE      H4Y            47.9681806371       49.6071105176        8.3954703513  MEMB      196             0.0000000000
     24386       196  PMPE      C35            47.9043399883       51.3596520078        7.2180355166  MEMB      196             0.0000000000
     24387       196  PMPE      H5X            47.6057655507       50.7057052872        6.4035086921  MEMB      196             0.0000000000
     24388       196  PMPE      H5Y            48.9646337801       51.4792351866        7.0383567857  MEMB      196             0.0000000000
     24389       196  PMPE      C36            47.2587684680       52.7150096862        7.0706292146  MEMB      196             0.0000000000
     24390       196  PMPE      H6X            46.9800147486       53.0841297361        8.0636715536  MEMB      196             0.0000000000
     24391       196  PMPE      H6Y            46.3667022825       52.4340933339        6.6189535164  MEMB      196             0.0000000000
     24392       196  PMPE      C37            47.8954717730       53.7116079192        6.1127242968  MEMB      196             0.0000000000
     24393       196  PMPE      H7X            47.1602810372       54.4911283236        5.8103443325  MEMB      196             0.0000000000
     24394       196  PMPE      H7Y            48.2352057857       53.2289499470        5.1748120935  MEMB      196             0.0000000000
     24395       196  PMPE      C38            49.1336706541       54.2952449806        6.7030388039  MEMB      196             0.0000000000
     24396       196  PMPE      H8X            49.7463891366       53.5554886838        7.2160666573  MEMB      196             0.0000000000
     24397       196  PMPE      H8Y            48.9317180315       54.9885653236        7.4528164473  MEMB      196             0.0000000000
     24398       196  PMPE      C39            49.8657004942       55.1241023973        5.7297890365  MEMB      196             0.0000000000
     24399       196  PMPE      H9X            50.5984597743       55.6327458904        6.2796910395  MEMB      196             0.0000000000
     24400       196  PMPE      H9Y            49.2488221436       55.9739610049        5.3608688468  MEMB      196             0.0000000000
     24401       196  PMPE      C310           50.7928480229       54.4432411413        4.7067988479  MEMB      196             0.0000000000
     24402       196  PMPE      H10X           50.1343503874       53.8860127881        4.0549487565  MEMB      196             0.0000000000
     24403       196  PMPE      H10Y           51.5016978630       53.7610451237        5.1886362669  MEMB      196             0.0000000000
     24404       196  PMPE      C311           51.6129303162       55.3462963151        3.7945600741  MEMB      196             0.0000000000
     24405       196  PMPE      H11X           52.3337062267       55.9132841576        4.3554217490  MEMB      196             0.0000000000
     24406       196  PMPE      H11Y           50.9135121880       56.0178385765        3.3755833420  MEMB      196             0.0000000000
     24407       196  PMPE      C312           52.4791969367       54.9388127172        2.7024099078  MEMB      196             0.0000000000
     24408       196  PMPE      H12X           53.2737334333       54.3024335830        3.0986317246  MEMB      196             0.0000000000
     24409       196  PMPE      H12Y           52.9284901861       55.8731997440        2.2716994541  MEMB      196             0.0000000000
     24410       196  PMPE      C313           51.7174347802       54.1686466896        1.7321892759  MEMB      196             0.0000000000
     24411       196  PMPE      H13X           50.9250200957       54.8356811195        1.2988640116  MEMB      196             0.0000000000
     24412       196  PMPE      H13Y           51.1179647969       53.3417628077        2.0993943716  MEMB      196             0.0000000000
     24413       196  PMPE      C314           52.7225452043       53.5638061152        0.7799794081  MEMB      196             0.0000000000
     24414       196  PMPE      H14X           53.7593203770       53.3608911422        0.9602299403  MEMB      196             0.0000000000
     24415       196  PMPE      H14Y           53.1050567398       54.4889190934        0.4733149645  MEMB      196             0.0000000000
     24416       196  PMPE      C315           51.8238783790       52.6719283825       -0.0531826954  MEMB      196             0.0000000000
     24417       196  PMPE      H15X           50.7725213385       52.9444529468       -0.3572723158  MEMB      196             0.0000000000
     24418       196  PMPE      H15Y           52.2038503582       51.6933641706        0.1108279849  MEMB      196             0.0000000000
     24419       196  PMPE      C316           51.9792589070       52.1057826786       -1.2304157191  MEMB      196             0.0000000000
     24420       196  PMPE      H16X           51.5256026154       52.5377008898       -2.1038154278  MEMB      196             0.0000000000
     24421       196  PMPE      H16Y           52.9109463552       51.3893144026       -1.4049468365  MEMB      196             0.0000000000
     24422       196  PMPE      H16Z           52.2559888648       53.0393192466       -1.4414453943  MEMB      196             0.0000000000
     24423       197  POPE      N              57.6926807257      -48.5244457374       20.0050935485  MEMB      197             0.0000000000
     24424       197  POPE      HN1            56.7303428222      -48.4118387583       20.3366156362  MEMB      197             0.0000000000
     24425       197  POPE      HN2            57.3274118669      -48.4522187555       18.9842965230  MEMB      197             0.0000000000
     24426       197  POPE      HN3            57.9118458898      -49.5670828889       19.9789393193  MEMB      197             0.0000000000
     24427       197  POPE      C12            58.7727260022      -47.6068681411       20.0012778330  MEMB      197             0.0000000000
     24428       197  POPE      H12A           59.6629459117      -48.1288921078       19.5579328886  MEMB      197             0.0000000000
     24429       197  POPE      H12B           58.8131906155      -47.4798004571       21.0854732823  MEMB      197             0.0000000000
     24430       197  POPE      C11            58.4724689525      -46.3062191965       19.2497134692  MEMB      197             0.0000000000
     24431       197  POPE      H11A           58.5732030553      -46.4968073169       18.1635613091  MEMB      197             0.0000000000
     24432       197  POPE      H11B           59.2843649863      -45.6163129921       19.5664470586  MEMB      197             0.0000000000
     24433       197  POPE      P              56.8087769244      -44.3865129805       18.6411907884  MEMB      197             0.0000000000
     24434       197  POPE      O13            58.0018012568      -43.9054997564       17.9338148082  MEMB      197             0.0000000000
     24435       197  POPE      O14            56.0533936400      -43.4958442350       19.5120945356  MEMB      197             0.0000000000
     24436       197  POPE      O11            55.8227314754      -44.9576752120       17.5715073845  MEMB      197             0.0000000000
     24437       197  POPE      O12            57.2094201116      -45.7010597708       19.5076190168  MEMB      197             0.0000000000
     24438       197  POPE      C1             56.4483007584      -45.8876578563       16.7560514962  MEMB      197             0.0000000000
     24439       197  POPE      HA             56.4170777176      -46.8845455205       17.3333155057  MEMB      197             0.0000000000
     24440       197  POPE      HB             57.4583349732      -45.7802011595       16.3917725657  MEMB      197             0.0000000000
     24441       197  POPE      C2             55.5515201321      -45.9315849087       15.4815562341  MEMB      197             0.0000000000
     24442       197  POPE      HS             56.2891027909      -46.5303641158       14.8338247368  MEMB      197             0.0000000000
     24443       197  POPE      O21            54.9475259823      -44.9869819558       14.7169721912  MEMB      197             0.0000000000
     24444       197  POPE      C21            55.7136832794      -44.1315145649       14.3572826144  MEMB      197             0.0000000000
     24445       197  POPE      O22            56.9298326639      -44.2127999398       14.3211903644  MEMB      197             0.0000000000
     24446       197  POPE      C22            54.8564456001      -42.9612036453       13.9867100051  MEMB      197             0.0000000000
     24447       197  POPE      H2R            55.5027163948      -42.0863306682       14.0472069022  MEMB      197             0.0000000000
     24448       197  POPE      H2S            54.0086839195      -42.7901173123       14.6561105260  MEMB      197             0.0000000000
     24449       197  POPE      C3             54.3997774863      -46.5050245352       15.8411053988  MEMB      197             0.0000000000
     24450       197  POPE      HX             53.8921380535      -46.3997558553       16.7720367408  MEMB      197             0.0000000000
     24451       197  POPE      HY             55.2422458966      -47.1325254580       16.0712544184  MEMB      197             0.0000000000
     24452       197  POPE      O31            53.3610362351      -47.1442886251       15.0308032794  MEMB      197             0.0000000000
     24453       197  POPE      C31            52.7386893273      -48.4028140046       14.6719603431  MEMB      197             0.0000000000
     24454       197  POPE      O32            52.7089812334      -49.4781357814       15.2594702909  MEMB      197             0.0000000000
     24455       197  POPE      C32            51.9418467659      -48.2868241463       13.2454611792  MEMB      197             0.0000000000
     24456       197  POPE      H2X            51.2187998390      -47.4814332933       13.2978918890  MEMB      197             0.0000000000
     24457       197  POPE      H2Y            51.6357673713      -49.3463447676       12.8457524310  MEMB      197             0.0000000000
     24458       197  POPE      C23            54.3681725123      -43.0292757734       12.5870025788  MEMB      197             0.0000000000
     24459       197  POPE      H3R            55.1602217418      -43.4031444136       11.9698737857  MEMB      197             0.0000000000
     24460       197  POPE      H3S            53.8907505163      -42.0456945658       12.3777451046  MEMB      197             0.0000000000
     24461       197  POPE      C24            53.2911448598      -43.9427613753       12.1769153770  MEMB      197             0.0000000000
     24462       197  POPE      H4R            52.3695353273      -43.3460267067       12.2843559381  MEMB      197             0.0000000000
     24463       197  POPE      H4S            53.4698076113      -44.7407492917       12.9447551747  MEMB      197             0.0000000000
     24464       197  POPE      C25            52.6478682403      -44.4586388038       10.9119465458  MEMB      197             0.0000000000
     24465       197  POPE      H5R            52.1223415881      -45.3814101450       11.0455418971  MEMB      197             0.0000000000
     24466       197  POPE      H5S            53.4608734159      -44.6343187791       10.3533467139  MEMB      197             0.0000000000
     24467       197  POPE      C26            51.8085175833      -43.5506791786       10.1216465670  MEMB      197             0.0000000000
     24468       197  POPE      H6R            51.9216552677      -42.5193928023       10.4931479824  MEMB      197             0.0000000000
     24469       197  POPE      H6S            51.0104392455      -43.1802079307       10.6654145287  MEMB      197             0.0000000000
     24470       197  POPE      C27            51.8695718720      -43.8010230784        8.5561421628  MEMB      197             0.0000000000
     24471       197  POPE      H7R            51.2007915247      -43.0563448716        8.1159603406  MEMB      197             0.0000000000
     24472       197  POPE      H7S            51.3791735663      -44.7552307827        8.6222136569  MEMB      197             0.0000000000
     24473       197  POPE      C28            53.1586445836      -44.0013253381        7.5819491240  MEMB      197             0.0000000000
     24474       197  POPE      H8R            52.8503228705      -44.5978708492        6.7716376959  MEMB      197             0.0000000000
     24475       197  POPE      H8S            54.0009700930      -44.4455025952        8.1252836462  MEMB      197             0.0000000000
     24476       197  POPE      C29            53.9733078684      -42.8947382301        7.0120089258  MEMB      197             0.0000000000
     24477       197  POPE      H91            54.1447391185      -42.2941895511        7.7692783010  MEMB      197             0.0000000000
     24478       197  POPE      C210           54.3790724597      -42.1984314790        5.9517904281  MEMB      197             0.0000000000
     24479       197  POPE      H101           54.4258862581      -41.0513576513        5.8637382059  MEMB      197             0.0000000000
     24480       197  POPE      C211           53.8693185237      -42.6386103794        4.7854078768  MEMB      197             0.0000000000
     24481       197  POPE      H11R           54.2539341380      -43.6454445658        4.8052840385  MEMB      197             0.0000000000
     24482       197  POPE      H11S           54.5083063460      -42.0315010939        4.1139542980  MEMB      197             0.0000000000
     24483       197  POPE      C212           52.4621005023      -42.9827190459        4.4632776761  MEMB      197             0.0000000000
     24484       197  POPE      H12R           52.1259092071      -42.1438314448        3.9075004433  MEMB      197             0.0000000000
     24485       197  POPE      H12S           51.5740394407      -43.2064467818        5.0186649003  MEMB      197             0.0000000000
     24486       197  POPE      C213           52.2731308675      -44.0257431987        3.6280087564  MEMB      197             0.0000000000
     24487       197  POPE      H13R           52.8623411052      -44.8859685745        3.5059599240  MEMB      197             0.0000000000
     24488       197  POPE      H13S           53.4724138137      -44.2837364828        3.1042768439  MEMB      197             0.0000000000
     24489       197  POPE      C214           50.6111203914      -43.5988278979        2.3303728363  MEMB      197             0.0000000000
     24490       197  POPE      H14R           50.4330736493      -42.8798336826        1.7502053187  MEMB      197             0.0000000000
     24491       197  POPE      H14S           50.7951301913      -43.7688326032        3.4190200549  MEMB      197             0.0000000000
     24492       197  POPE      C215           50.5154420527      -45.1724314060        0.5781501926  MEMB      197             0.0000000000
     24493       197  POPE      H15R           51.3068321433      -46.1408931541        0.8233880395  MEMB      197             0.0000000000
     24494       197  POPE      H15S           51.3630218768      -45.1651892263       -0.2755506164  MEMB      197             0.0000000000
     24495       197  POPE      C216           49.4023282070      -45.4626081903        0.1565698597  MEMB      197             0.0000000000
     24496       197  POPE      H16R           49.3155344105      -44.4972038996       -0.3072225135  MEMB      197             0.0000000000
     24497       197  POPE      H16S           48.7839489128      -45.4890259061        1.0786297329  MEMB      197             0.0000000000
     24498       197  POPE      C217           49.8038926101      -46.7312516653       -0.5587523731  MEMB      197             0.0000000000
     24499       197  POPE      H17R           50.1541949420      -47.5970999447        0.0798712981  MEMB      197             0.0000000000
     24500       197  POPE      H17S           50.6852923890      -46.6092976424       -1.2310779093  MEMB      197             0.0000000000
     24501       197  POPE      C218           48.5517975912      -47.1050198516       -1.2194763743  MEMB      197             0.0000000000
     24502       197  POPE      H18R           48.2299200536      -46.4285673989       -2.0252622155  MEMB      197             0.0000000000
     24503       197  POPE      H18S           47.7440490652      -47.1462478216       -0.4571890182  MEMB      197             0.0000000000
     24504       197  POPE      H18T           48.7153303753      -48.0816634313       -1.6636404200  MEMB      197             0.0000000000
     24505       197  POPE      C33            52.2557814215      -48.3476759296       11.8860266724  MEMB      197             0.0000000000
     24506       197  POPE      H3X            53.0381801803      -49.1833457742       11.7539042802  MEMB      197             0.0000000000
     24507       197  POPE      H3Y            52.3191286079      -47.1375907598       12.0050624008  MEMB      197             0.0000000000
     24508       197  POPE      C34            51.7036946940      -48.5771489484       10.5726807933  MEMB      197             0.0000000000
     24509       197  POPE      H4X            51.0527736527      -47.7579668281       10.3933492468  MEMB      197             0.0000000000
     24510       197  POPE      H4Y            51.2815638617      -49.5664917968       10.7967558391  MEMB      197             0.0000000000
     24511       197  POPE      C35            52.4943436192      -48.2914049072        9.4275748556  MEMB      197             0.0000000000
     24512       197  POPE      H5X            53.4772680749      -48.6292085968        9.8149825939  MEMB      197             0.0000000000
     24513       197  POPE      H5Y            52.8870912541      -47.3880327213        9.1979657143  MEMB      197             0.0000000000
     24514       197  POPE      C36            51.8708850795      -48.5716776983        8.0850214837  MEMB      197             0.0000000000
     24515       197  POPE      H6X            51.2444309161      -49.4544971143        8.1836633994  MEMB      197             0.0000000000
     24516       197  POPE      H6Y            52.6018395542      -48.8309394448        7.3525673691  MEMB      197             0.0000000000
     24517       197  POPE      C37            51.4778280147      -47.2919485177        7.4770635917  MEMB      197             0.0000000000
     24518       197  POPE      H7X            52.2918192927      -46.5468262861        7.4129373391  MEMB      197             0.0000000000
     24519       197  POPE      H7Y            50.6009351589      -47.0435934266        8.0794690284  MEMB      197             0.0000000000
     24520       197  POPE      C38            51.0815246833      -47.3146235491        6.1144447213  MEMB      197             0.0000000000
     24521       197  POPE      H8X            50.8815031684      -46.3648163198        5.6505895169  MEMB      197             0.0000000000
     24522       197  POPE      H8Y            50.0398283500      -47.6537650428        6.1564604022  MEMB      197             0.0000000000
     24523       197  POPE      C39            51.9564605024      -48.0039533520        5.1401468107  MEMB      197             0.0000000000
     24524       197  POPE      H9X            51.5364201744      -48.1999857027        4.1052046575  MEMB      197             0.0000000000
     24525       197  POPE      H9Y            52.1558892704      -48.9300572170        5.6476204560  MEMB      197             0.0000000000
     24526       197  POPE      C310           53.2508100241      -47.5141326116        4.9496550996  MEMB      197             0.0000000000
     24527       197  POPE      H10X           54.0007177402      -47.7933662530        5.6928783034  MEMB      197             0.0000000000
     24528       197  POPE      H10Y           53.1717141514      -46.5006546448        4.5668250344  MEMB      197             0.0000000000
     24529       197  POPE      C311           53.8506288080      -48.1101649912        3.9963986158  MEMB      197             0.0000000000
     24530       197  POPE      H11X           53.2351321451      -48.2797725844        2.9975041785  MEMB      197             0.0000000000
     24531       197  POPE      H11Y           54.1380839966      -49.2496669551        3.8702623622  MEMB      197             0.0000000000
     24532       197  POPE      C312           55.2121941230      -46.9183223584        3.3871968508  MEMB      197             0.0000000000
     24533       197  POPE      H12X           55.4580513652      -48.9632974216        1.4856610011  MEMB      197             0.0000000000
     24534       197  POPE      H12Y           55.3766406852      -47.2246871670        4.3144212966  MEMB      197             0.0000000000
     24535       197  POPE      C313           55.3721359614      -45.6891688016        2.8831165056  MEMB      197             0.0000000000
     24536       197  POPE      H13X           55.6911455544      -45.2365559364        3.7643515702  MEMB      197             0.0000000000
     24537       197  POPE      H13Y           54.3264472747      -45.8693079998        2.8850837875  MEMB      197             0.0000000000
     24538       197  POPE      C314           56.2893996083      -45.2544909378        1.6821696170  MEMB      197             0.0000000000
     24539       197  POPE      H14X           56.3630867161      -45.8302708875        0.7700781974  MEMB      197             0.0000000000
     24540       197  POPE      H14Y           57.4011872343      -45.3665326059        1.6274623270  MEMB      197             0.0000000000
     24541       197  POPE      C315           56.0198983581      -44.1070269192        1.3767440206  MEMB      197             0.0000000000
     24542       197  POPE      H15X           55.0518273219      -44.4554720924        1.1389839660  MEMB      197             0.0000000000
     24543       197  POPE      H15Y           56.1805676232      -43.5583630368        0.4798544203  MEMB      197             0.0000000000
     24544       197  POPE      C316           56.5551175345      -43.1206881098        2.0916580310  MEMB      197             0.0000000000
     24545       197  POPE      H16X           55.8998663999      -43.1865197657        2.9341769929  MEMB      197             0.0000000000
     24546       197  POPE      H16Y           56.4727583369      -42.1939515704        1.4749932452  MEMB      197             0.0000000000
     24547       197  POPE      H16Z           57.5888816259      -43.3964743059        2.2827281462  MEMB      197             0.0000000000
     24548       198  POPE      N             -49.6777793507      -53.2217673962       21.6077308435  MEMB      198             0.0000000000
     24549       198  POPE      HN1           -48.8579897275      -52.5924186320       21.5555421305  MEMB      198             0.0000000000
     24550       198  POPE      HN2           -50.5479930783      -52.6541955534       21.5174453947  MEMB      198             0.0000000000
     24551       198  POPE      HN3           -49.6911466482      -53.7468820584       22.5087085041  MEMB      198             0.0000000000
     24552       198  POPE      C12           -49.6154547392      -54.0930892213       20.3910080305  MEMB      198             0.0000000000
     24553       198  POPE      H12A          -49.1814830399      -55.0665083551       20.6736813269  MEMB      198             0.0000000000
     24554       198  POPE      H12B          -48.9245692609      -53.6325093589       19.6514282894  MEMB      198             0.0000000000
     24555       198  POPE      C11           -51.0383057499      -54.3505594591       19.9017668128  MEMB      198             0.0000000000
     24556       198  POPE      H11A          -51.6403887034      -54.7347245348       20.7472019495  MEMB      198             0.0000000000
     24557       198  POPE      H11B          -51.0324434735      -55.2006252705       19.1843172777  MEMB      198             0.0000000000
     24558       198  POPE      P             -51.3207738712      -52.5449614792       17.9950677511  MEMB      198             0.0000000000
     24559       198  POPE      O13           -50.0623539322      -51.7730174874       18.1318102407  MEMB      198             0.0000000000
     24560       198  POPE      O14           -52.5167033104      -51.8163881143       17.5555426788  MEMB      198             0.0000000000
     24561       198  POPE      O11           -51.1289238650      -53.8147182155       17.0913651661  MEMB      198             0.0000000000
     24562       198  POPE      O12           -51.6707529607      -53.1691687700       19.4225615149  MEMB      198             0.0000000000
     24563       198  POPE      C1            -49.8734106891      -54.3251601805       16.7146628179  MEMB      198             0.0000000000
     24564       198  POPE      HA            -49.2705173319      -54.4881237263       17.6200561789  MEMB      198             0.0000000000
     24565       198  POPE      HB            -49.3289669395      -53.5574601320       16.1425382568  MEMB      198             0.0000000000
     24566       198  POPE      C2            -50.0414780951      -55.6388385805       15.8972974968  MEMB      198             0.0000000000
     24567       198  POPE      HS            -49.0343609383      -56.0745299553       15.7030449555  MEMB      198             0.0000000000
     24568       198  POPE      O21           -50.7333647774      -55.3900411395       14.6629807502  MEMB      198             0.0000000000
     24569       198  POPE      C21           -50.1596136661      -54.6909193388       13.6861401800  MEMB      198             0.0000000000
     24570       198  POPE      O22           -49.0049585476      -54.3329322818       13.6497941806  MEMB      198             0.0000000000
     24571       198  POPE      C22           -51.1453724332      -54.5937553374       12.5110516247  MEMB      198             0.0000000000
     24572       198  POPE      H2R           -50.7614873978      -53.9811848904       11.6698830926  MEMB      198             0.0000000000
     24573       198  POPE      H2S           -52.1158892636      -54.1726421051       12.8194078342  MEMB      198             0.0000000000
     24574       198  POPE      C3            -50.8033474626      -56.7655531455       16.7054781427  MEMB      198             0.0000000000
     24575       198  POPE      HX            -50.1776205389      -57.0360627660       17.5770456023  MEMB      198             0.0000000000
     24576       198  POPE      HY            -50.8170928320      -57.7114178319       16.1244310918  MEMB      198             0.0000000000
     24577       198  POPE      O31           -52.1142011584      -56.3946609892       17.1897596999  MEMB      198             0.0000000000
     24578       198  POPE      C31           -53.0936499201      -56.5906095499       16.3163313810  MEMB      198             0.0000000000
     24579       198  POPE      O32           -53.0087343594      -57.2496357439       15.2909880804  MEMB      198             0.0000000000
     24580       198  POPE      C32           -54.3613996172      -55.9264597079       16.8007469670  MEMB      198             0.0000000000
     24581       198  POPE      H2X           -54.2173454124      -55.0068182379       17.4035263439  MEMB      198             0.0000000000
     24582       198  POPE      H2Y           -54.8531670509      -56.7044473693       17.4070242524  MEMB      198             0.0000000000
     24583       198  POPE      C23           -51.3875300112      -55.9834264372       11.9498828603  MEMB      198             0.0000000000
     24584       198  POPE      H3R           -52.0185684650      -55.8722421838       11.0457612600  MEMB      198             0.0000000000
     24585       198  POPE      H3S           -51.9062952073      -56.6241336740       12.6959193859  MEMB      198             0.0000000000
     24586       198  POPE      C24           -50.0630139983      -56.5708371742       11.5680907445  MEMB      198             0.0000000000
     24587       198  POPE      H4R           -49.5224861662      -56.9924501428       12.4279237887  MEMB      198             0.0000000000
     24588       198  POPE      H4S           -49.4106742256      -55.8344858142       11.0633492469  MEMB      198             0.0000000000
     24589       198  POPE      C25           -50.2201412006      -57.6914992239       10.7063797037  MEMB      198             0.0000000000
     24590       198  POPE      H5R           -50.8279100500      -58.5371750180       11.1008988633  MEMB      198             0.0000000000
     24591       198  POPE      H5S           -49.1672004722      -58.1609934075       10.6228337463  MEMB      198             0.0000000000
     24592       198  POPE      C26           -50.9362420688      -57.4046441290        9.3326016496  MEMB      198             0.0000000000
     24593       198  POPE      H6R           -51.9457710726      -57.1383894199        9.6086182687  MEMB      198             0.0000000000
     24594       198  POPE      H6S           -51.1061454498      -58.2478153376        8.5912476882  MEMB      198             0.0000000000
     24595       198  POPE      C27           -50.1054034604      -56.5148119291        8.4995874750  MEMB      198             0.0000000000
     24596       198  POPE      H7R           -49.0378464151      -56.8502986279        8.5414809078  MEMB      198             0.0000000000
     24597       198  POPE      H7S           -50.2330470535      -55.5019495713        8.8841336693  MEMB      198             0.0000000000
     24598       198  POPE      C28           -50.5316931151      -56.5464168598        7.0932576382  MEMB      198             0.0000000000
     24599       198  POPE      H8R           -50.2607802779      -57.5763067414        6.7047981553  MEMB      198             0.0000000000
     24600       198  POPE      H8S           -49.8133996963      -55.8224780816        6.6863334365  MEMB      198             0.0000000000
     24601       198  POPE      C29           -51.9443168996      -56.1213543629        6.7935353004  MEMB      198             0.0000000000
     24602       198  POPE      H91           -52.6505680550      -56.4102680945        7.5355178237  MEMB      198             0.0000000000
     24603       198  POPE      C210          -52.5106755106      -55.3182452740        5.9011889687  MEMB      198             0.0000000000
     24604       198  POPE      H101          -53.5768226530      -55.1483354166        5.8481145312  MEMB      198             0.0000000000
     24605       198  POPE      C211          -51.9180273913      -54.5489416652        4.8626545780  MEMB      198             0.0000000000
     24606       198  POPE      H11R          -50.9036907786      -54.1596699167        4.9355939953  MEMB      198             0.0000000000
     24607       198  POPE      H11S          -52.5832105334      -53.9154917714        4.2242906771  MEMB      198             0.0000000000
     24608       198  POPE      C212          -51.7065313497      -55.6374602306        4.1558921237  MEMB      198             0.0000000000
     24609       198  POPE      H12R          -52.5976487331      -55.6624987308        3.2625150899  MEMB      198             0.0000000000
     24610       198  POPE      H12S          -51.4918156565      -56.6414750959        3.9863724407  MEMB      198             0.0000000000
     24611       198  POPE      C213          -49.5661299939      -54.2420772328        2.5433297899  MEMB      198             0.0000000000
     24612       198  POPE      H13R          -49.0440016201      -55.0692553429        1.6864507632  MEMB      198             0.0000000000
     24613       198  POPE      H13S          -49.2494905051      -54.3058881119        3.3869945737  MEMB      198             0.0000000000
     24614       198  POPE      C214          -50.6039514882      -53.3559459595        1.7734300457  MEMB      198             0.0000000000
     24615       198  POPE      H14R          -50.8495801945      -52.7030577162        2.4918306260  MEMB      198             0.0000000000
     24616       198  POPE      H14S          -51.6269955988      -53.8798969264        1.6265658214  MEMB      198             0.0000000000
     24617       198  POPE      C215          -50.1048079685      -53.2714297054        0.8139654400  MEMB      198             0.0000000000
     24618       198  POPE      H15R          -50.6866285137      -52.3601308057        0.5556189707  MEMB      198             0.0000000000
     24619       198  POPE      H15S          -50.7558595461      -53.8028075799       -0.0405783111  MEMB      198             0.0000000000
     24620       198  POPE      C216          -48.2324473193      -53.1906277871        0.9037554497  MEMB      198             0.0000000000
     24621       198  POPE      H16R          -47.6614914015      -54.0258838990        1.2962557491  MEMB      198             0.0000000000
     24622       198  POPE      H16S          -48.1050450554      -52.2487172461        1.4118418515  MEMB      198             0.0000000000
     24623       198  POPE      C217          -47.1035619981      -53.3872549531       -0.4931680724  MEMB      198             0.0000000000
     24624       198  POPE      H17R          -47.5741468181      -53.2860443534       -1.8151449400  MEMB      198             0.0000000000
     24625       198  POPE      H17S          -47.2629808756      -53.7587370210       -1.3807358885  MEMB      198             0.0000000000
     24626       198  POPE      C218          -45.7531923166      -53.1854598861       -0.5369806081  MEMB      198             0.0000000000
     24627       198  POPE      H18R          -45.4763604013      -54.1953603331       -0.3903182885  MEMB      198             0.0000000000
     24628       198  POPE      H18S          -45.6285644761      -52.4024304437        0.2171091040  MEMB      198             0.0000000000
     24629       198  POPE      H18T          -45.5209561001      -52.8069537986       -1.5524799816  MEMB      198             0.0000000000
     24630       198  POPE      C33           -55.2931900481      -55.6803469110       15.6407281701  MEMB      198             0.0000000000
     24631       198  POPE      H3X           -56.2936474078      -55.3555625890       16.0098206834  MEMB      198             0.0000000000
     24632       198  POPE      H3Y           -55.3393553346      -56.4732682209       14.9022751968  MEMB      198             0.0000000000
     24633       198  POPE      C34           -54.8246031286      -54.6582494326       14.7568127769  MEMB      198             0.0000000000
     24634       198  POPE      H4X           -53.8044910896      -54.5191498376       14.4139920129  MEMB      198             0.0000000000
     24635       198  POPE      H4Y           -54.7759585142      -53.9909598015       15.5138265831  MEMB      198             0.0000000000
     24636       198  POPE      C35           -55.8486680476      -54.2616441877       13.7578534008  MEMB      198             0.0000000000
     24637       198  POPE      H5X           -56.8327902102      -54.0566052845       14.3649197864  MEMB      198             0.0000000000
     24638       198  POPE      H5Y           -55.9367029243      -54.8845622164       12.9247741946  MEMB      198             0.0000000000
     24639       198  POPE      C36           -55.5358362169      -53.2597301941       12.6325464944  MEMB      198             0.0000000000
     24640       198  POPE      H6X           -55.8185722385      -52.8926652543       13.6624963987  MEMB      198             0.0000000000
     24641       198  POPE      H6Y           -56.2803977435      -53.1075403651       11.8217048537  MEMB      198             0.0000000000
     24642       198  POPE      C37           -54.4757142640      -52.7104065275       11.8067276760  MEMB      198             0.0000000000
     24643       198  POPE      H7X           -53.6407957278      -52.5012182377       12.4718490370  MEMB      198             0.0000000000
     24644       198  POPE      H7Y           -54.7907173202      -51.7346852387       11.2742356684  MEMB      198             0.0000000000
     24645       198  POPE      C38           -54.5078921996      -53.7532235951       10.8297933069  MEMB      198             0.0000000000
     24646       198  POPE      H8X           -55.4908575174      -53.6836249743       10.2825773154  MEMB      198             0.0000000000
     24647       198  POPE      H8Y           -54.4457251729      -54.6789703438       11.4478988919  MEMB      198             0.0000000000
     24648       198  POPE      C39           -53.3143537373      -53.4815330735       10.0264079341  MEMB      198             0.0000000000
     24649       198  POPE      H9X           -53.1578009080      -54.3756355859        9.4043731862  MEMB      198             0.0000000000
     24650       198  POPE      H9Y           -52.4736084177      -53.3323126830       10.7432021393  MEMB      198             0.0000000000
     24651       198  POPE      C310          -53.4772181773      -52.2353668420        9.1600551848  MEMB      198             0.0000000000
     24652       198  POPE      H10X          -53.6090920935      -51.3266139656        9.7834555081  MEMB      198             0.0000000000
     24653       198  POPE      H10Y          -54.4393912206      -52.3277702584        8.6203917842  MEMB      198             0.0000000000
     24654       198  POPE      C311          -52.2239520393      -52.0548202759        8.2949292253  MEMB      198             0.0000000000
     24655       198  POPE      H11X          -51.7657612907      -53.0406938646        8.0699399585  MEMB      198             0.0000000000
     24656       198  POPE      H11Y          -51.5275876515      -51.4320966086        8.8968887634  MEMB      198             0.0000000000
     24657       198  POPE      C312          -52.3801026340      -51.3561961988        6.9606668778  MEMB      198             0.0000000000
     24658       198  POPE      H12X          -52.8550801916      -50.3924650161        7.1835264416  MEMB      198             0.0000000000
     24659       198  POPE      H12Y          -53.0889169620      -51.9200931653        6.3125200569  MEMB      198             0.0000000000
     24660       198  POPE      C313          -51.0546849306      -51.0467449048        6.2692575950  MEMB      198             0.0000000000
     24661       198  POPE      H13X          -50.5858677280      -52.0255031912        6.0173623781  MEMB      198             0.0000000000
     24662       198  POPE      H13Y          -50.3188699827      -50.4685587146        6.8822725152  MEMB      198             0.0000000000
     24663       198  POPE      C314          -51.4433613614      -50.2821180077        5.0478929883  MEMB      198             0.0000000000
     24664       198  POPE      H14X          -51.8681349855      -49.2647872792        5.1491823110  MEMB      198             0.0000000000
     24665       198  POPE      H14Y          -52.0283045695      -50.8709762917        4.3544094572  MEMB      198             0.0000000000
     24666       198  POPE      C315          -50.4096296534      -50.1548180061        4.2501621757  MEMB      198             0.0000000000
     24667       198  POPE      H15X          -49.6134878465      -51.0158859249        4.1656489354  MEMB      198             0.0000000000
     24668       198  POPE      H15Y          -50.0374714796      -49.0142794826        4.7049975260  MEMB      198             0.0000000000
     24669       198  POPE      C316          -50.6012111298      -50.3385916554        2.7636203332  MEMB      198             0.0000000000
     24670       198  POPE      H16X          -49.5776508498      -50.2079645070        2.0425812149  MEMB      198             0.0000000000
     24671       198  POPE      H16Y          -51.3643545593      -49.5059254713        2.6403310011  MEMB      198             0.0000000000
     24672       198  POPE      H16Z          -50.7344933543      -50.9653761777        2.0625967975  MEMB      198             0.0000000000
     24673       199  OYPE      N              52.9561541147      -51.1553506483       21.4198387209  MEMB      199             0.0000000000
     24674       199  OYPE      HN1            52.5687562400      -50.3737705344       21.9748994673  MEMB      199             0.0000000000
     24675       199  OYPE      HN2            53.6433177773      -51.6755460745       21.9904845400  MEMB      199             0.0000000000
     24676       199  OYPE      HN3            53.4038784855      -50.7659079691       20.5567235196  MEMB      199             0.0000000000
     24677       199  OYPE      C12            51.8511739346      -52.1325058260       21.1087716007  MEMB      199             0.0000000000
     24678       199  OYPE      H12A           50.9425584251      -51.5691973777       20.8343944976  MEMB      199             0.0000000000
     24679       199  OYPE      H12B           51.5610019714      -52.6551993597       22.0451225615  MEMB      199             0.0000000000
     24680       199  OYPE      C11            52.2737533650      -53.1155306761       20.0079279869  MEMB      199             0.0000000000
     24681       199  OYPE      H11A           51.3966577482      -53.7575875452       19.8792422417  MEMB      199             0.0000000000
     24682       199  OYPE      H11B           53.1003202272      -53.7725398113       20.3430339090  MEMB      199             0.0000000000
     24683       199  OYPE      P              53.8552539367      -52.8117683624       17.8850154398  MEMB      199             0.0000000000
     24684       199  OYPE      O13            53.4550463143      -53.6576734320       16.7633105303  MEMB      199             0.0000000000
     24685       199  OYPE      O14            54.9598533233      -53.2396579157       18.7710715589  MEMB      199             0.0000000000
     24686       199  OYPE      O11            54.1735200222      -51.4022406704       17.3855346776  MEMB      199             0.0000000000
     24687       199  OYPE      O12            52.5821921593      -52.4474419504       18.7925896163  MEMB      199             0.0000000000
     24688       199  OYPE      C1             54.0398777768      -50.2940729203       18.2149376136  MEMB      199             0.0000000000
     24689       199  OYPE      HA             53.9423489556      -50.3544076745       19.2447680260  MEMB      199             0.0000000000
     24690       199  OYPE      HB             53.0305760254      -49.8368812632       17.9560408058  MEMB      199             0.0000000000
     24691       199  OYPE      C2             55.3234823378      -49.3973162946       17.8761793800  MEMB      199             0.0000000000
     24692       199  OYPE      HS             55.0657403168      -48.3362569868       18.3956902851  MEMB      199             0.0000000000
     24693       199  OYPE      O21            55.7359916729      -49.2903385482       16.4855529750  MEMB      199             0.0000000000
     24694       199  OYPE      C21            54.8119902496      -49.0436705876       16.0321780900  MEMB      199             0.0000000000
     24695       199  OYPE      O22            53.8987846473      -48.4896751368       16.8054958306  MEMB      199             0.0000000000
     24696       199  OYPE      C22            55.2696783380      -48.5521143564       14.3019196603  MEMB      199             0.0000000000
     24697       199  OYPE      H2R            55.7822436267      -49.2523528286       13.9714578857  MEMB      199             0.0000000000
     24698       199  OYPE      H2S            55.4046391298      -47.5565413326       13.8588195988  MEMB      199             0.0000000000
     24699       199  OYPE      C3             56.4978903199      -49.9212678814       18.3754324384  MEMB      199             0.0000000000
     24700       199  OYPE      HX             56.2409286308      -50.0533803071       19.4510140771  MEMB      199             0.0000000000
     24701       199  OYPE      HY             57.3884139714      -49.2773984747       18.1022083957  MEMB      199             0.0000000000
     24702       199  OYPE      O31            56.9370223088      -51.0840678236       17.8400221929  MEMB      199             0.0000000000
     24703       199  OYPE      C31            57.6514112695      -50.9042343089       16.7131761703  MEMB      199             0.0000000000
     24704       199  OYPE      O32            58.0909515977      -49.8635225192       16.2488930955  MEMB      199             0.0000000000
     24705       199  OYPE      C32            57.6493695412      -52.0844388071       16.1200205590  MEMB      199             0.0000000000
     24706       199  OYPE      H2X            58.2087806498      -52.7915461388       16.8165824065  MEMB      199             0.0000000000
     24707       199  OYPE      H2Y            56.6400613465      -52.6021714887       16.0541937783  MEMB      199             0.0000000000
     24708       199  OYPE      C23            54.4647319037      -48.1109033379       13.0441631745  MEMB      199             0.0000000000
     24709       199  OYPE      H3R            53.7769448052      -47.0957501404       13.1943587238  MEMB      199             0.0000000000
     24710       199  OYPE      H3S            53.9582902882      -49.2256119959       13.2174045265  MEMB      199             0.0000000000
     24711       199  OYPE      C24            54.6118602392      -47.6307676637       11.6615468924  MEMB      199             0.0000000000
     24712       199  OYPE      H4R            53.7065138386      -47.2897337304       10.9891201199  MEMB      199             0.0000000000
     24713       199  OYPE      H4S            54.7595634596      -48.5199934461       11.1790250165  MEMB      199             0.0000000000
     24714       199  OYPE      C25            54.8669038187      -46.3351029340       11.5134964526  MEMB      199             0.0000000000
     24715       199  OYPE      H5R            55.6341143541      -46.3138489301       12.2289020971  MEMB      199             0.0000000000
     24716       199  OYPE      H5S            54.0147849398      -45.9252392151       11.9300064068  MEMB      199             0.0000000000
     24717       199  OYPE      C26            54.9458584518      -46.1149817477       10.0556524368  MEMB      199             0.0000000000
     24718       199  OYPE      H6R            55.1742251800      -45.0674448091       10.0060398327  MEMB      199             0.0000000000
     24719       199  OYPE      H6S            53.9489090359      -46.1476266907        9.5754316582  MEMB      199             0.0000000000
     24720       199  OYPE      C27            55.9974094556      -46.9405738463        9.5245603806  MEMB      199             0.0000000000
     24721       199  OYPE      H7R            55.6955355929      -48.0077478535        9.5830647062  MEMB      199             0.0000000000
     24722       199  OYPE      H7S            56.8085278154      -46.6073390737       10.2172783231  MEMB      199             0.0000000000
     24723       199  OYPE      C28            56.3710867786      -46.5683673036        8.1167028525  MEMB      199             0.0000000000
     24724       199  OYPE      H8R            56.5399804550      -45.4650005441        8.1096217470  MEMB      199             0.0000000000
     24725       199  OYPE      H8S            55.4970245951      -46.8452233172        7.4899238055  MEMB      199             0.0000000000
     24726       199  OYPE      C29            57.6086530744      -47.2887999513        7.6443335875  MEMB      199             0.0000000000
     24727       199  OYPE      H9R            58.4846814055      -47.3033438688        8.2787957780  MEMB      199             0.0000000000
     24728       199  OYPE      C210           57.7913234109      -47.9878443922        6.5348985605  MEMB      199             0.0000000000
     24729       199  OYPE      H10R           58.7141743355      -48.4802946161        6.3042309468  MEMB      199             0.0000000000
     24730       199  OYPE      C211           56.8645436341      -48.2493350087        5.4790187184  MEMB      199             0.0000000000
     24731       199  OYPE      H11R           55.9678414873      -47.6639702806        5.8053244382  MEMB      199             0.0000000000
     24732       199  OYPE      H11S           56.5263894664      -49.2719776855        5.3222832511  MEMB      199             0.0000000000
     24733       199  OYPE      C212           57.4473594017      -48.0294266340        4.0834289359  MEMB      199             0.0000000000
     24734       199  OYPE      H12R           58.3292841388      -48.4222676996        3.6056670844  MEMB      199             0.0000000000
     24735       199  OYPE      H12S           57.6926508330      -46.8950588086        4.1717446497  MEMB      199             0.0000000000
     24736       199  OYPE      C213           56.4460423022      -48.7208132889        3.0279164090  MEMB      199             0.0000000000
     24737       199  OYPE      H13R           54.7943172337      -48.3003991525        2.4499299623  MEMB      199             0.0000000000
     24738       199  OYPE      H13S           56.5290238181      -49.6212797011        2.6405661004  MEMB      199             0.0000000000
     24739       199  OYPE      C214           56.7904887716      -47.6847384812        1.6372701285  MEMB      199             0.0000000000
     24740       199  OYPE      H14R           57.4614432789      -47.6600454915        0.9101156255  MEMB      199             0.0000000000
     24741       199  OYPE      H14S           57.1884907678      -46.9798374098        2.2926855705  MEMB      199             0.0000000000
     24742       199  OYPE      C215           55.1103418853      -47.3760822023        0.5104939573  MEMB      199             0.0000000000
     24743       199  OYPE      H15R           54.7158482772      -48.3065628390        0.1170379008  MEMB      199             0.0000000000
     24744       199  OYPE      H15S           55.2632400510      -47.0879170556       -0.4282940230  MEMB      199             0.0000000000
     24745       199  OYPE      C216           53.7941304393      -46.7782583998        0.8549097002  MEMB      199             0.0000000000
     24746       199  OYPE      H16R           54.0704774827      -45.7956827607        1.1051469741  MEMB      199             0.0000000000
     24747       199  OYPE      H16S           53.2563273395      -46.9471038469        1.7939965578  MEMB      199             0.0000000000
     24748       199  OYPE      H16T           53.1287428553      -46.4427663062        0.0924274937  MEMB      199             0.0000000000
     24749       199  OYPE      C33            58.3783431570      -51.7392485275       14.7644910928  MEMB      199             0.0000000000
     24750       199  OYPE      H3X            58.6565379694      -52.6624000175       14.2556711630  MEMB      199             0.0000000000
     24751       199  OYPE      H3Y            59.4475334260      -51.7811834653       14.6628467945  MEMB      199             0.0000000000
     24752       199  OYPE      C34            57.3718801266      -50.9523031799       13.6372480824  MEMB      199             0.0000000000
     24753       199  OYPE      H4X            57.1505107047      -50.1326024192       13.9658154718  MEMB      199             0.0000000000
     24754       199  OYPE      H4Y            58.0622064585      -50.7752694982       12.7833167698  MEMB      199             0.0000000000
     24755       199  OYPE      C35            55.5466257598      -51.6390448723       13.2425859455  MEMB      199             0.0000000000
     24756       199  OYPE      H5X            55.1430681464      -51.9320928747       14.1893619461  MEMB      199             0.0000000000
     24757       199  OYPE      H5Y            55.2626548154      -52.9017549285       13.0804401495  MEMB      199             0.0000000000
     24758       199  OYPE      C36            55.1872269664      -51.3561788326       11.8514164379  MEMB      199             0.0000000000
     24759       199  OYPE      H6X            55.1474201594      -50.3155937311       12.0825325869  MEMB      199             0.0000000000
     24760       199  OYPE      H6Y            56.0134186724      -51.4709613396       11.0907810826  MEMB      199             0.0000000000
     24761       199  OYPE      C37            54.1087296663      -52.3426291418       11.5270906628  MEMB      199             0.0000000000
     24762       199  OYPE      H7X            54.3521467482      -53.4547211879       11.6102769860  MEMB      199             0.0000000000
     24763       199  OYPE      H7Y            53.3137601968      -52.1099817439       12.2535601125  MEMB      199             0.0000000000
     24764       199  OYPE      C38            53.7755364901      -52.2808035473       10.1204708993  MEMB      199             0.0000000000
     24765       199  OYPE      H8X            54.6034068217      -52.6467002346        9.4981348987  MEMB      199             0.0000000000
     24766       199  OYPE      H8Y            52.8877990229      -52.8647583327        9.9822184932  MEMB      199             0.0000000000
     24767       199  OYPE      C39            53.3413324880      -51.0290119250        9.6939078777  MEMB      199             0.0000000000
     24768       199  OYPE      H9X            52.7109862766      -50.5278896877       10.4194952154  MEMB      199             0.0000000000
     24769       199  OYPE      C310           53.9752337126      -50.4666567424        8.6949313531  MEMB      199             0.0000000000
     24770       199  OYPE      H10X           53.7662298466      -49.5381109772        8.3579756473  MEMB      199             0.0000000000
     24771       199  OYPE      C311           55.0075870556      -50.5532949397        7.7478722223  MEMB      199             0.0000000000
     24772       199  OYPE      H11X           55.7187514254      -49.6984702043        7.9201268373  MEMB      199             0.0000000000
     24773       199  OYPE      H11Y           55.4753576394      -51.4717783673        7.9478472621  MEMB      199             0.0000000000
     24774       199  OYPE      C312           54.2791803453      -50.4758587144        6.4167145564  MEMB      199             0.0000000000
     24775       199  OYPE      H12X           55.0543947802      -50.5137494361        5.6579355676  MEMB      199             0.0000000000
     24776       199  OYPE      H12Y           53.8407030428      -49.5077405185        6.2853022470  MEMB      199             0.0000000000
     24777       199  OYPE      C313           53.2876120249      -51.5784227829        6.0514443119  MEMB      199             0.0000000000
     24778       199  OYPE      H13X           53.8536207662      -52.5188606550        6.2277498778  MEMB      199             0.0000000000
     24779       199  OYPE      H13Y           52.3964109969      -51.6193924300        6.7131497367  MEMB      199             0.0000000000
     24780       199  OYPE      C314           52.8694839463      -51.4500190560        4.5820112530  MEMB      199             0.0000000000
     24781       199  OYPE      H14X           52.2939461757      -52.2053601939        4.3118754591  MEMB      199             0.0000000000
     24782       199  OYPE      H14Y           53.6274777109      -51.3957159575        3.8314919041  MEMB      199             0.0000000000
     24783       199  OYPE      C315           51.7949293163      -50.5770871896        4.2515505939  MEMB      199             0.0000000000
     24784       199  OYPE      H15X           52.3489638037      -49.7658972394        3.9308531441  MEMB      199             0.0000000000
     24785       199  OYPE      H15Y           51.3946450317      -50.4882407742        5.2688700607  MEMB      199             0.0000000000
     24786       199  OYPE      C316           50.9116238738      -50.6526792539        3.0850082264  MEMB      199             0.0000000000
     24787       199  OYPE      H16X           50.3302073719      -49.9002178724        3.3083935753  MEMB      199             0.0000000000
     24788       199  OYPE      H16Y           50.1605112702      -51.3846191555        3.2792177573  MEMB      199             0.0000000000
     24789       199  OYPE      C317           51.5065863987      -50.5117110998        1.7801095790  MEMB      199             0.0000000000
     24790       199  OYPE      H17X           52.1698203506      -51.3842366057        1.6668433251  MEMB      199             0.0000000000
     24791       199  OYPE      H17Y           52.0602830460      -49.5769051396        1.5686454998  MEMB      199             0.0000000000
     24792       199  OYPE      C318           50.5206318532      -50.5124107817        0.7509477037  MEMB      199             0.0000000000
     24793       199  OYPE      H18X           51.2773688773      -50.5620140144       -0.1014837642  MEMB      199             0.0000000000
     24794       199  OYPE      H18Y           49.7625366452      -51.3589416373        0.6945155094  MEMB      199             0.0000000000
     24795       199  OYPE      H18Z           49.9835826254      -49.5831498438        0.4820322943  MEMB      199             0.0000000000
     24796       200  PYPG      C13           -58.0428794215       53.0318510366       19.5131561330  MEMB      200             0.0000000000
     24797       200  PYPG      H13A          -58.5194843838       52.0916400164       19.9670125387  MEMB      200             0.0000000000
     24798       200  PYPG      H13B          -58.5532380098       53.9376826209       19.8820615027  MEMB      200             0.0000000000
     24799       200  PYPG      OC3           -58.3841386163       52.7948649469       18.1965386148  MEMB      200             0.0000000000
     24800       200  PYPG      HO3           -57.8149606905       52.0331664058       18.0469060107  MEMB      200             0.0000000000
     24801       200  PYPG      C12           -56.4581828658       53.2046439604       19.8571915765  MEMB      200             0.0000000000
     24802       200  PYPG      H12A          -56.2784677508       53.6194404279       20.9046271042  MEMB      200             0.0000000000
     24803       200  PYPG      OC2           -55.8039912911       54.2333503068       19.2416746711  MEMB      200             0.0000000000
     24804       200  PYPG      HO2           -54.9396790448       54.0789001096       19.6213122026  MEMB      200             0.0000000000
     24805       200  PYPG      C11           -55.7013465962       51.8552336942       20.1426885758  MEMB      200             0.0000000000
     24806       200  PYPG      H11A          -56.3207781158       51.1542298052       20.7656026561  MEMB      200             0.0000000000
     24807       200  PYPG      H11B          -54.7654431946       51.9678506914       20.7384514311  MEMB      200             0.0000000000
     24808       200  PYPG      P             -54.6683313432       50.1317320508       18.4943784912  MEMB      200             0.0000000000
     24809       200  PYPG      O13           -53.8448470931       49.5584188474       19.5737996404  MEMB      200             0.0000000000
     24810       200  PYPG      O14           -54.0117934076       50.7424367384       17.3228721280  MEMB      200             0.0000000000
     24811       200  PYPG      O11           -55.6877008871       49.0160626871       17.9839209926  MEMB      200             0.0000000000
     24812       200  PYPG      O12           -55.5915045565       51.2665828044       18.9221075237  MEMB      200             0.0000000000
     24813       200  PYPG      C1            -56.9199158203       49.5154415703       17.4623599454  MEMB      200             0.0000000000
     24814       200  PYPG      HA            -56.7236827135       50.4172206510       16.8409682604  MEMB      200             0.0000000000
     24815       200  PYPG      HB            -57.5515442131       49.7438194080       18.3182124477  MEMB      200             0.0000000000
     24816       200  PYPG      C2            -57.7224917014       48.5512855973       16.6105702416  MEMB      200             0.0000000000
     24817       200  PYPG      HS            -58.0212025947       47.7082370792       17.3207905105  MEMB      200             0.0000000000
     24818       200  PYPG      O21           -56.7612715416       48.2981628083       15.6237100218  MEMB      200             0.0000000000
     24819       200  PYPG      C21           -56.9613521611       47.3692382365       15.3014185579  MEMB      200             0.0000000000
     24820       200  PYPG      O22           -57.8952876045       46.5703333395       15.8098854432  MEMB      200             0.0000000000
     24821       200  PYPG      C22           -55.9545837667       47.4657026131       13.4624718896  MEMB      200             0.0000000000
     24822       200  PYPG      H2R           -55.4545141873       47.0978637100       14.1147147288  MEMB      200             0.0000000000
     24823       200  PYPG      H2S           -56.0110716740       47.6223822321       12.5308885860  MEMB      200             0.0000000000
     24824       200  PYPG      C3            -59.0189839864       49.0750556189       15.9199819022  MEMB      200             0.0000000000
     24825       200  PYPG      HX            -59.6240814098       49.2904383869       16.8036193557  MEMB      200             0.0000000000
     24826       200  PYPG      HY            -59.6138147654       48.3083385144       15.3376675429  MEMB      200             0.0000000000
     24827       200  PYPG      O31           -58.7497230316       50.3227007394       15.2500516465  MEMB      200             0.0000000000
     24828       200  PYPG      C31           -58.4678049012       50.2711614516       13.9952976507  MEMB      200             0.0000000000
     24829       200  PYPG      O32           -58.6395557568       49.3845703236       13.2411341515  MEMB      200             0.0000000000
     24830       200  PYPG      C32           -58.0103602806       51.5406308492       13.4524880541  MEMB      200             0.0000000000
     24831       200  PYPG      H2X           -58.4247361935       51.5390542459       12.4787980012  MEMB      200             0.0000000000
     24832       200  PYPG      H2Y           -58.4676111109       52.3155937666       14.0592452042  MEMB      200             0.0000000000
     24833       200  PYPG      C23           -56.4805777706       45.0774916730       11.9826761868  MEMB      200             0.0000000000
     24834       200  PYPG      H3R           -57.5087409759       45.1301712657       11.7277690078  MEMB      200             0.0000000000
     24835       200  PYPG      H3S           -56.3063004470       44.2714780940       13.1658076460  MEMB      200             0.0000000000
     24836       200  PYPG      C24           -56.1953984625       44.0264615605       11.5620088321  MEMB      200             0.0000000000
     24837       200  PYPG      H4R           -55.5546183658       43.2851861064       12.1343681964  MEMB      200             0.0000000000
     24838       200  PYPG      H4S           -55.1700825449       43.7867525130       12.2569138451  MEMB      200             0.0000000000
     24839       200  PYPG      C25           -56.1224993179       45.0799477432       10.0499595749  MEMB      200             0.0000000000
     24840       200  PYPG      H5R           -57.1346484858       45.0006668151       10.0591214427  MEMB      200             0.0000000000
     24841       200  PYPG      H5S           -55.6779521878       44.3412487988        9.4426699982  MEMB      200             0.0000000000
     24842       200  PYPG      C26           -55.4733775577       46.7532537850        9.7501495285  MEMB      200             0.0000000000
     24843       200  PYPG      H6R           -54.3352731128       47.0366114850        9.8386221487  MEMB      200             0.0000000000
     24844       200  PYPG      H6S           -55.5750997348       47.5356801867       10.5450422258  MEMB      200             0.0000000000
     24845       200  PYPG      C27           -55.3055923181       47.1203789287        8.4187891768  MEMB      200             0.0000000000
     24846       200  PYPG      H7R           -54.8832674044       46.2721136575        7.8524652856  MEMB      200             0.0000000000
     24847       200  PYPG      H7S           -54.7956257943       48.0855934445        8.4336091771  MEMB      200             0.0000000000
     24848       200  PYPG      C28           -56.5416176466       47.3877794867        7.9713852055  MEMB      200             0.0000000000
     24849       200  PYPG      H8R           -56.8495059675       46.2581780403        7.9353664295  MEMB      200             0.0000000000
     24850       200  PYPG      H8S           -56.5831403792       47.7703290821        7.0044211938  MEMB      200             0.0000000000
     24851       200  PYPG      C29           -57.1595339562       48.4906295144        8.7737993020  MEMB      200             0.0000000000
     24852       200  PYPG      H9R           -57.8844340432       48.0148679321        9.1813923310  MEMB      200             0.0000000000
     24853       200  PYPG      C210          -57.3063174259       49.7601202056        8.9557572397  MEMB      200             0.0000000000
     24854       200  PYPG      H10R          -58.0129603624       50.1539549163        9.7281762878  MEMB      200             0.0000000000
     24855       200  PYPG      C211          -56.5845943863       50.6398647732        8.0373291065  MEMB      200             0.0000000000
     24856       200  PYPG      H11R          -55.6813851767       50.1398443864        7.6443043183  MEMB      200             0.0000000000
     24857       200  PYPG      H11S          -56.2613618344       51.4980192835        8.6382348575  MEMB      200             0.0000000000
     24858       200  PYPG      C212          -57.3130713009       51.0609174378        6.7623432282  MEMB      200             0.0000000000
     24859       200  PYPG      H12R          -56.7323233043       51.8964711361        6.3107134755  MEMB      200             0.0000000000
     24860       200  PYPG      H12S          -58.3019483403       51.4269395006        7.0727171324  MEMB      200             0.0000000000
     24861       200  PYPG      C213          -57.5018327928       49.9150069838        5.7408772138  MEMB      200             0.0000000000
     24862       200  PYPG      H13R          -58.0475545590       49.0982625589        6.2682051282  MEMB      200             0.0000000000
     24863       200  PYPG      H13S          -56.5432905711       49.5091200104        5.3740531424  MEMB      200             0.0000000000
     24864       200  PYPG      C214          -58.2679256742       50.2960829984        4.4734481163  MEMB      200             0.0000000000
     24865       200  PYPG      H14R          -59.1742583541       50.7525432667        4.9116090802  MEMB      200             0.0000000000
     24866       200  PYPG      H14S          -57.8661701669       51.1700935315        3.9606685063  MEMB      200             0.0000000000
     24867       200  PYPG      C215          -58.5123140246       49.1114548546        3.4741536928  MEMB      200             0.0000000000
     24868       200  PYPG      H15R          -59.3727397354       49.3969159822        2.8128182508  MEMB      200             0.0000000000
     24869       200  PYPG      H15S          -58.8108291493       48.2021772028        4.0559192983  MEMB      200             0.0000000000
     24870       200  PYPG      C216          -57.3591296427       48.6982886212        2.5683469872  MEMB      200             0.0000000000
     24871       200  PYPG      H16R          -57.1232638879       49.5170683909        1.8469247552  MEMB      200             0.0000000000
     24872       200  PYPG      H16S          -57.6065322868       47.7845440113        1.9780773883  MEMB      200             0.0000000000
     24873       200  PYPG      H16T          -56.4791777806       48.3782390258        3.1239400391  MEMB      200             0.0000000000
     24874       200  PYPG      C33           -56.5564373836       51.8204143796       13.4612496005  MEMB      200             0.0000000000
     24875       200  PYPG      H3X           -56.0820534686       51.4013202377       14.3693545926  MEMB      200             0.0000000000
     24876       200  PYPG      H3Y           -56.4730268130       52.9219249742       13.5820846960  MEMB      200             0.0000000000
     24877       200  PYPG      C34           -55.9131454915       51.3799820357       12.1607734017  MEMB      200             0.0000000000
     24878       200  PYPG      H4X           -56.2074567810       52.0423673026       11.3203306634  MEMB      200             0.0000000000
     24879       200  PYPG      H4Y           -56.2325995100       50.3569016769       11.8835838176  MEMB      200             0.0000000000
     24880       200  PYPG      C35           -54.4072368056       51.3691301035       12.2744717522  MEMB      200             0.0000000000
     24881       200  PYPG      H5X           -54.1402461110       50.8178101403       13.2017807228  MEMB      200             0.0000000000
     24882       200  PYPG      H5Y           -54.1170805898       52.4410050394       12.3698833507  MEMB      200             0.0000000000
     24883       200  PYPG      C36           -53.7999386861       50.7389894079       11.0359546323  MEMB      200             0.0000000000
     24884       200  PYPG      H6X           -54.3733155825       51.1201812446       10.1660833626  MEMB      200             0.0000000000
     24885       200  PYPG      H6Y           -53.7780786549       49.6284053813       11.0569411884  MEMB      200             0.0000000000
     24886       200  PYPG      C37           -52.4111414551       51.1388688424       10.7938836355  MEMB      200             0.0000000000
     24887       200  PYPG      H7X           -52.3045981835       52.2438203550       11.0574085981  MEMB      200             0.0000000000
     24888       200  PYPG      H7Y           -51.7130636894       50.4467828148       11.3922914470  MEMB      200             0.0000000000
     24889       200  PYPG      C38           -51.9762823175       50.9740003328        9.3894410769  MEMB      200             0.0000000000
     24890       200  PYPG      H8X           -50.9430745452       50.6729876745        9.4293105605  MEMB      200             0.0000000000
     24891       200  PYPG      H8Y           -52.0080841399       51.8407549668        8.6938095794  MEMB      200             0.0000000000
     24892       200  PYPG      C39           -52.8020676883       50.1025794789        8.6388953150  MEMB      200             0.0000000000
     24893       200  PYPG      H9X           -53.7499045745       50.5599934822        8.4509050723  MEMB      200             0.0000000000
     24894       200  PYPG      H9Y           -52.6907709675       49.1399923161        9.1504049868  MEMB      200             0.0000000000
     24895       200  PYPG      C310          -52.3754180626       49.9669540364        7.3317193005  MEMB      200             0.0000000000
     24896       200  PYPG      H10X          -51.7293111769       49.1269093008        7.6926546442  MEMB      200             0.0000000000
     24897       200  PYPG      H10Y          -51.9702744067       50.9447639932        6.9165566420  MEMB      200             0.0000000000
     24898       200  PYPG      C311          -53.0335770300       49.3852848918        6.2070044087  MEMB      200             0.0000000000
     24899       200  PYPG      H11X          -53.7032210130       50.2220566040        6.0562597584  MEMB      200             0.0000000000
     24900       200  PYPG      H11Y          -53.2635212172       48.4204141253        6.5838355901  MEMB      200             0.0000000000
     24901       200  PYPG      C312          -52.4069596640       49.0200602375        4.9462056257  MEMB      200             0.0000000000
     24902       200  PYPG      H12X          -52.4709983340       50.0553211619        4.4761430730  MEMB      200             0.0000000000
     24903       200  PYPG      H12Y          -51.4549749355       48.4072110560        5.1283684643  MEMB      200             0.0000000000
     24904       200  PYPG      C313          -53.1943955722       48.5023878430        3.8507265724  MEMB      200             0.0000000000
     24905       200  PYPG      H13X          -53.6124436949       47.7406720345        4.4606087878  MEMB      200             0.0000000000
     24906       200  PYPG      H13Y          -53.9893056344       49.1400678561        3.6156975814  MEMB      200             0.0000000000
     24907       200  PYPG      C314          -52.7218892061       48.1572386077        2.4232444381  MEMB      200             0.0000000000
     24908       200  PYPG      H14X          -52.2098722202       47.2949408953        2.5627306829  MEMB      200             0.0000000000
     24909       200  PYPG      H14Y          -53.2158892502       47.4368791887        1.7892991819  MEMB      200             0.0000000000
     24910       200  PYPG      C315          -52.0294658545       49.0574176003        1.5692999116  MEMB      200             0.0000000000
     24911       200  PYPG      H15X          -51.2067095515       49.6369594286        2.0822187371  MEMB      200             0.0000000000
     24912       200  PYPG      H15Y          -51.6290695589       48.7426050203        0.4877893815  MEMB      200             0.0000000000
     24913       200  PYPG      C316          -53.0550266034       49.5398536224        1.2589169429  MEMB      200             0.0000000000
     24914       200  PYPG      H16X          -53.8868585382       49.4977981051        0.7234905291  MEMB      200             0.0000000000
     24915       200  PYPG      H16Y          -52.0817369111       50.2556423451        0.5516967937  MEMB      200             0.0000000000
     24916       200  PYPG      H16Z          -53.8647406965       50.1696482584        2.2172187762  MEMB      200             0.0000000000
     24917       201  PMPG      C13             1.1214183681       -0.8655042404      -21.1584097499  MEMB      201             0.0000000000
     24918       201  PMPG      H13A            2.1305569177       -0.4284823838      -21.1681452385  MEMB      201             0.0000000000
     24919       201  PMPG      H13B            0.9097248122       -1.5638241307      -22.0113202616  MEMB      201             0.0000000000
     24920       201  PMPG      OC3             0.1879234310        0.2077214278      -21.2929011319  MEMB      201             0.0000000000
     24921       201  PMPG      HO3            -0.5491303094        0.0441202774      -20.6743361449  MEMB      201             0.0000000000
     24922       201  PMPG      C12             1.0892292680       -1.6451760852      -19.8586474757  MEMB      201             0.0000000000
     24923       201  PMPG      H12A            1.6657105932       -2.5691083441      -19.8983726907  MEMB      201             0.0000000000
     24924       201  PMPG      OC2            -0.1256033500       -2.0642269440      -19.8466545174  MEMB      201             0.0000000000
     24925       201  PMPG      HO2            -0.3861827868       -2.3544864537      -18.9058790488  MEMB      201             0.0000000000
     24926       201  PMPG      C11             1.3605501330       -0.9850029933      -18.5496203858  MEMB      201             0.0000000000
     24927       201  PMPG      H11A            2.4617197395       -0.9489483864      -18.4969979007  MEMB      201             0.0000000000
     24928       201  PMPG      H11B            0.9550287047       -1.5804851550      -17.7131333155  MEMB      201             0.0000000000
     24929       201  PMPG      P              -0.5436917357        0.5375007039      -17.8746452265  MEMB      201             0.0000000000
     24930       201  PMPG      O13            -0.8480437880        1.6978536088      -18.6817768582  MEMB      201             0.0000000000
     24931       201  PMPG      O14            -0.3284449831        0.5730344717      -16.4132626910  MEMB      201             0.0000000000
     24932       201  PMPG      O11            -1.5628556716       -0.5790921011      -18.2482604377  MEMB      201             0.0000000000
     24933       201  PMPG      O12             0.8229714509        0.2820061036      -18.5135753452  MEMB      201             0.0000000000
     24934       201  PMPG      C1             -2.6048254193       -0.5365576144      -19.2146190381  MEMB      201             0.0000000000
     24935       201  PMPG      HA             -2.3055550172       -0.4414451701      -20.2588401237  MEMB      201             0.0000000000
     24936       201  PMPG      HB             -3.1990852613        0.2797254600      -19.1506169102  MEMB      201             0.0000000000
     24937       201  PMPG      C2             -3.7051255588       -1.5029556847      -18.8839789281  MEMB      201             0.0000000000
     24938       201  PMPG      HS             -4.6295403210       -1.1925690346      -19.4310800616  MEMB      201             0.0000000000
     24939       201  PMPG      O21            -3.9243243775       -1.6276074068      -17.4667219033  MEMB      201             0.0000000000
     24940       201  PMPG      C21            -4.3963113352       -0.6732053272      -16.6990798005  MEMB      201             0.0000000000
     24941       201  PMPG      O22            -4.8539111307        0.3698137512      -17.0288229525  MEMB      201             0.0000000000
     24942       201  PMPG      C22            -4.5409920430       -1.0283436374      -15.2437470767  MEMB      201             0.0000000000
     24943       201  PMPG      H2R            -4.8218540343       -2.0713851798      -15.1801170778  MEMB      201             0.0000000000
     24944       201  PMPG      H2S            -5.3692285209       -0.4394195972      -14.7888525329  MEMB      201             0.0000000000
     24945       201  PMPG      C3             -3.2301885833       -2.8463870322      -19.3910893476  MEMB      201             0.0000000000
     24946       201  PMPG      HX             -3.1484190638       -2.8994486530      -20.4717643601  MEMB      201             0.0000000000
     24947       201  PMPG      HY             -4.0554694305       -3.5601934929      -19.0461138874  MEMB      201             0.0000000000
     24948       201  PMPG      O31            -1.8169360074       -3.0685944842      -19.0367659974  MEMB      201             0.0000000000
     24949       201  PMPG      C31            -1.5357904134       -3.6293376512      -17.9628571131  MEMB      201             0.0000000000
     24950       201  PMPG      O32            -2.5390977428       -3.9059696502      -17.6764263312  MEMB      201             0.0000000000
     24951       201  PMPG      C32            -0.3104520822       -3.9947448785      -17.1846894561  MEMB      201             0.0000000000
     24952       201  PMPG      H2X             0.4446727773       -3.6388476610      -17.8243808162  MEMB      201             0.0000000000
     24953       201  PMPG      H2Y            -0.1882012025       -5.1015438332      -17.0732700620  MEMB      201             0.0000000000
     24954       201  PMPG      C23            -3.2787991445       -0.7334541655      -14.4352670951  MEMB      201             0.0000000000
     24955       201  PMPG      H3R            -3.1049019659        0.3671155196      -14.4331599113  MEMB      201             0.0000000000
     24956       201  PMPG      H3S            -2.4412973847       -1.2661139869      -14.9175964643  MEMB      201             0.0000000000
     24957       201  PMPG      C24            -3.4417121297       -1.0821537311      -12.9650790293  MEMB      201             0.0000000000
     24958       201  PMPG      H4R            -4.4413573559       -0.7203977054      -12.7735228422  MEMB      201             0.0000000000
     24959       201  PMPG      H4S            -2.6657964426       -0.6091492184      -12.3247005067  MEMB      201             0.0000000000
     24960       201  PMPG      C25            -3.4274388145       -2.5311235363      -12.5923499852  MEMB      201             0.0000000000
     24961       201  PMPG      H5R            -2.6391137511       -2.7769154708      -13.2128371100  MEMB      201             0.0000000000
     24962       201  PMPG      H5S            -4.3235905889       -3.0820638504      -12.8971963817  MEMB      201             0.0000000000
     24963       201  PMPG      C26            -2.8727605661       -2.8778690228      -11.2385164683  MEMB      201             0.0000000000
     24964       201  PMPG      H6R            -3.6959616035       -2.9374482230      -10.6623882376  MEMB      201             0.0000000000
     24965       201  PMPG      H6S            -2.1158240015       -2.2000288992      -10.8471362241  MEMB      201             0.0000000000
     24966       201  PMPG      C27            -2.4402353363       -4.2413001455      -10.9044068366  MEMB      201             0.0000000000
     24967       201  PMPG      H7R            -1.4825376233       -4.1880586724      -11.4972265372  MEMB      201             0.0000000000
     24968       201  PMPG      H7S            -3.1587107749       -5.0542595583      -11.2351384491  MEMB      201             0.0000000000
     24969       201  PMPG      C28            -2.0464596654       -4.6274856531       -9.4770467734  MEMB      201             0.0000000000
     24970       201  PMPG      H8R            -1.5829920170       -5.6358159758       -9.5355275924  MEMB      201             0.0000000000
     24971       201  PMPG      H8S            -2.9324846528       -4.6715974576       -8.8281056842  MEMB      201             0.0000000000
     24972       201  PMPG      C29            -1.0329062306       -3.6398123416       -8.9393712471  MEMB      201             0.0000000000
     24973       201  PMPG      H9R            -0.2824745025       -3.3008585425       -9.6506613076  MEMB      201             0.0000000000
     24974       201  PMPG      C217           -1.6229009516       -2.7027044054       -7.8872645431  MEMB      201             0.0000000000
     24975       201  PMPG      H17R           -1.1894263157       -1.7369071928       -7.7373722502  MEMB      201             0.0000000000
     24976       201  PMPG      H17S           -2.5857238401       -3.0448780334       -7.4936627806  MEMB      201             0.0000000000
     24977       201  PMPG      C210           -0.5033414099       -3.6321125717       -7.5441759191  MEMB      201             0.0000000000
     24978       201  PMPG      H10R            0.4833340792       -3.2550390556       -7.3056541559  MEMB      201             0.0000000000
     24979       201  PMPG      C211           -1.0374219335       -4.5009732808       -6.5954385105  MEMB      201             0.0000000000
     24980       201  PMPG      H11R           -2.1039871739       -4.6965294149       -6.5189027318  MEMB      201             0.0000000000
     24981       201  PMPG      H11S           -0.9094773526       -5.2587822252       -7.2800656106  MEMB      201             0.0000000000
     24982       201  PMPG      C212           -0.3083817435       -4.6620332478       -5.2842740160  MEMB      201             0.0000000000
     24983       201  PMPG      H12R           -0.0958890693       -3.7546346169       -4.8332420951  MEMB      201             0.0000000000
     24984       201  PMPG      H12S            0.8061011602       -4.8938873337       -5.2854163295  MEMB      201             0.0000000000
     24985       201  PMPG      C213           -1.0916620280       -5.4479314604       -4.2758934332  MEMB      201             0.0000000000
     24986       201  PMPG      H13R           -1.0562770546       -6.5695684425       -4.5060101771  MEMB      201             0.0000000000
     24987       201  PMPG      H13S           -2.1341922138       -5.4949405577       -4.0778623124  MEMB      201             0.0000000000
     24988       201  PMPG      C214           -0.2465925511       -5.2326005320       -3.0381946750  MEMB      201             0.0000000000
     24989       201  PMPG      H14R            0.9451000762       -5.3778032630       -3.0419842767  MEMB      201             0.0000000000
     24990       201  PMPG      H14S           -0.7066353961       -6.1731510363       -2.8538439788  MEMB      201             0.0000000000
     24991       201  PMPG      C215            0.1498826508       -4.2611545201       -2.0778569454  MEMB      201             0.0000000000
     24992       201  PMPG      H15R           -0.9324891681       -4.0921944949       -2.0512221944  MEMB      201             0.0000000000
     24993       201  PMPG      H15S            0.7563044834       -3.6779398002       -2.6767024299  MEMB      201             0.0000000000
     24994       201  PMPG      C216            0.9271902499       -4.4605182756       -0.6639289612  MEMB      201             0.0000000000
     24995       201  PMPG      H16R            1.6423476748       -5.2784499261       -0.4475316596  MEMB      201             0.0000000000
     24996       201  PMPG      H16S            0.1832622723       -4.7060907186        0.1856783364  MEMB      201             0.0000000000
     24997       201  PMPG      H16T            0.8971019391       -3.7115272685       -0.0166829195  MEMB      201             0.0000000000
     24998       201  PMPG      C33            -0.1507533340       -3.2264547360      -15.8869384648  MEMB      201             0.0000000000
     24999       201  PMPG      H3X            -0.4275397015       -3.8971099098      -15.2192125955  MEMB      201             0.0000000000
     25000       201  PMPG      H3Y            -0.7293744594       -2.3394295197      -15.7127795275  MEMB      201             0.0000000000
     25001       201  PMPG      C34             1.2065524049       -2.8658390857      -15.5917083728  MEMB      201             0.0000000000
     25002       201  PMPG      H4X             1.6966584350       -2.8814936755      -16.5264076887  MEMB      201             0.0000000000
     25003       201  PMPG      H4Y             1.7829908742       -3.5001818972      -15.1091318438  MEMB      201             0.0000000000
     25004       201  PMPG      C35             1.6702703913       -1.9868305786      -14.4948461514  MEMB      201             0.0000000000
     25005       201  PMPG      H5X             1.2562278624       -1.0617075358      -14.8710598028  MEMB      201             0.0000000000
     25006       201  PMPG      H5Y             2.7522233811       -1.8722352183      -14.5587122978  MEMB      201             0.0000000000
     25007       201  PMPG      C36             1.2668570587       -2.3062439485      -13.0478460109  MEMB      201             0.0000000000
     25008       201  PMPG      H6X             1.8354424073       -3.0851353169      -12.4828473758  MEMB      201             0.0000000000
     25009       201  PMPG      H6Y             0.2354457000       -2.6456860513      -13.0383105899  MEMB      201             0.0000000000
     25010       201  PMPG      C37             1.3530708423       -0.9697747418      -12.3535845022  MEMB      201             0.0000000000
     25011       201  PMPG      H7X             0.9484380235       -0.1364180578      -12.9445845615  MEMB      201             0.0000000000
     25012       201  PMPG      H7Y             2.3621637576       -0.8791905239      -12.5316634910  MEMB      201             0.0000000000
     25013       201  PMPG      C38             1.0755928784       -0.8557663864      -10.8739633114  MEMB      201             0.0000000000
     25014       201  PMPG      H8X             1.4476864283       -1.7433215341      -10.3259540658  MEMB      201             0.0000000000
     25015       201  PMPG      H8Y            -0.0241419610       -0.8349324549      -10.8831145583  MEMB      201             0.0000000000
     25016       201  PMPG      C39             1.5271796351        0.4255373804      -10.1782565422  MEMB      201             0.0000000000
     25017       201  PMPG      H9X             1.1652731366        1.3199159542      -10.7144515540  MEMB      201             0.0000000000
     25018       201  PMPG      H9Y             2.5676441908        0.5638944575      -10.0996637700  MEMB      201             0.0000000000
     25019       201  PMPG      C310            1.1204596516        0.4622218782       -8.7352714310  MEMB      201             0.0000000000
     25020       201  PMPG      H10X            0.0938190891        0.0639859962       -8.8205236041  MEMB      201             0.0000000000
     25021       201  PMPG      H10Y            1.0869193432        1.5343602829       -8.4736761291  MEMB      201             0.0000000000
     25022       201  PMPG      C311            2.0075813374       -0.3259513555       -7.7534089644  MEMB      201             0.0000000000
     25023       201  PMPG      H11X            3.0632945678       -0.0456252936       -7.7441644918  MEMB      201             0.0000000000
     25024       201  PMPG      H11Y            1.9366339603       -1.3959505081       -8.0185018502  MEMB      201             0.0000000000
     25025       201  PMPG      C312            1.6149697052       -0.1450202737       -6.2970990913  MEMB      201             0.0000000000
     25026       201  PMPG      H12X            0.6047842563       -0.5460652883       -6.1770302893  MEMB      201             0.0000000000
     25027       201  PMPG      H12Y            1.6465232475        0.9331234567       -6.0280233708  MEMB      201             0.0000000000
     25028       201  PMPG      C313            2.4604274174       -0.9538371092       -5.3533014131  MEMB      201             0.0000000000
     25029       201  PMPG      H13X            3.4289971931       -0.5985656281       -5.5407977531  MEMB      201             0.0000000000
     25030       201  PMPG      H13Y            2.4602131693       -2.0309579025       -5.5634722330  MEMB      201             0.0000000000
     25031       201  PMPG      C314            2.2619737081       -0.7172270769       -3.8646577956  MEMB      201             0.0000000000
     25032       201  PMPG      H14X            2.4671285240        0.3559239682       -3.5905114216  MEMB      201             0.0000000000
     25033       201  PMPG      H14Y            2.9748679936       -1.4322885451       -3.3860093035  MEMB      201             0.0000000000
     25034       201  PMPG      C315            0.8931150702       -0.7139935796       -3.3266187245  MEMB      201             0.0000000000
     25035       201  PMPG      H15X            0.4189996708       -1.6605316746       -3.5953171395  MEMB      201             0.0000000000
     25036       201  PMPG      H15Y            0.3716898979        0.1261325176       -3.8352826651  MEMB      201             0.0000000000
     25037       201  PMPG      C316            0.9074469068       -0.5851721541       -1.8221654335  MEMB      201             0.0000000000
     25038       201  PMPG      H16X            1.1133825066       -1.5835664967       -1.3998331487  MEMB      201             0.0000000000
     25039       201  PMPG      H16Y           -0.0758919801       -0.2837081537       -1.3799839505  MEMB      201             0.0000000000
     25040       201  PMPG      H16Z            1.7805944577        0.0004416796       -1.4420302294  MEMB      201             0.0000000000
     25041       202  OYPE      N               6.7511071901       -2.4817516238      -18.9750917639  MEMB      202             0.0000000000
     25042       202  OYPE      HN1             7.7391728074       -2.3869197488      -18.6444608650  MEMB      202             0.0000000000
     25043       202  OYPE      HN2             6.1075657543       -2.2541151123      -18.1846597547  MEMB      202             0.0000000000
     25044       202  OYPE      HN3             6.6121958991       -3.4595168598      -19.2891543786  MEMB      202             0.0000000000
     25045       202  OYPE      C12             6.5858895587       -1.5456914788      -20.1409597023  MEMB      202             0.0000000000
     25046       202  OYPE      H12A            5.6039289721       -1.0432656195      -20.0632711410  MEMB      202             0.0000000000
     25047       202  OYPE      H12B            6.5743293262       -2.1924457106      -21.0311161023  MEMB      202             0.0000000000
     25048       202  OYPE      C11             7.7116823438       -0.5288638446      -20.1684146209  MEMB      202             0.0000000000
     25049       202  OYPE      H11A            7.6828341741        0.0991596662      -21.0961579838  MEMB      202             0.0000000000
     25050       202  OYPE      H11B            8.6856314321       -1.0543000373      -20.1662164850  MEMB      202             0.0000000000
     25051       202  OYPE      P               8.8499207760        1.0944486061      -18.5607877058  MEMB      202             0.0000000000
     25052       202  OYPE      O13             9.4612455275        1.7380335804      -19.7365971544  MEMB      202             0.0000000000
     25053       202  OYPE      O14             9.6406096666        0.1491302264      -17.7480610421  MEMB      202             0.0000000000
     25054       202  OYPE      O11             8.1617100559        2.2034388622      -17.6986237637  MEMB      202             0.0000000000
     25055       202  OYPE      O12             7.5674909536        0.2649970396      -19.0039574890  MEMB      202             0.0000000000
     25056       202  OYPE      C1              6.9848044007        1.9457737862      -16.9436873039  MEMB      202             0.0000000000
     25057       202  OYPE      HA              6.9349659891        0.8998520116      -16.5400998516  MEMB      202             0.0000000000
     25058       202  OYPE      HB              6.0644098480        2.1815268158      -17.5218599030  MEMB      202             0.0000000000
     25059       202  OYPE      C2              7.0922481327        2.9118159180      -15.7813400781  MEMB      202             0.0000000000
     25060       202  OYPE      HS              7.3155525669        3.9116023242      -16.2382092590  MEMB      202             0.0000000000
     25061       202  OYPE      O21             8.1752072145        2.3804767729      -15.0163708008  MEMB      202             0.0000000000
     25062       202  OYPE      C21             8.7706182657        3.1741496344      -14.2400315496  MEMB      202             0.0000000000
     25063       202  OYPE      O22             8.7256552325        4.3868074724      -14.2837714004  MEMB      202             0.0000000000
     25064       202  OYPE      C22             9.5253820572        2.3326594194      -13.2089129234  MEMB      202             0.0000000000
     25065       202  OYPE      H2R             9.3753727997        2.7334861989      -12.1486245008  MEMB      202             0.0000000000
     25066       202  OYPE      H2S            10.6056172702        2.3917368715      -13.5046423139  MEMB      202             0.0000000000
     25067       202  OYPE      C3              5.8062939896        3.0536956130      -14.9251100878  MEMB      202             0.0000000000
     25068       202  OYPE      HX              4.9790144752        3.4216651748      -15.5684977214  MEMB      202             0.0000000000
     25069       202  OYPE      HY              5.9448660049        3.8428900142      -14.1542122836  MEMB      202             0.0000000000
     25070       202  OYPE      O31             5.4596154605        1.8055842288      -14.3153934616  MEMB      202             0.0000000000
     25071       202  OYPE      C31             4.2128547016        1.7563248148      -13.9551579725  MEMB      202             0.0000000000
     25072       202  OYPE      O32             3.3412064319        2.5933935801      -14.1176832089  MEMB      202             0.0000000000
     25073       202  OYPE      C32             4.0457902072        0.4379995479      -13.2871644100  MEMB      202             0.0000000000
     25074       202  OYPE      H2X             3.0513745703        0.2028452532      -13.7287201791  MEMB      202             0.0000000000
     25075       202  OYPE      H2Y             4.7829416195       -0.3162292767      -13.5831117095  MEMB      202             0.0000000000
     25076       202  OYPE      C23             9.0182855611        1.0300326936      -12.8318527008  MEMB      202             0.0000000000
     25077       202  OYPE      H3R             9.3970138521        0.3462081649      -13.5928800557  MEMB      202             0.0000000000
     25078       202  OYPE      H3S             7.9116959029        1.0620773544      -12.7863350380  MEMB      202             0.0000000000
     25079       202  OYPE      C24             9.6403931629        0.5529380281      -11.5315800223  MEMB      202             0.0000000000
     25080       202  OYPE      H4R            10.7463396646        0.6399907714      -11.4881310430  MEMB      202             0.0000000000
     25081       202  OYPE      H4S             9.3662744938       -0.5261984289      -11.5623920062  MEMB      202             0.0000000000
     25082       202  OYPE      C25             9.0920217706        1.1624442349      -10.2480955155  MEMB      202             0.0000000000
     25083       202  OYPE      H5R             7.9886356274        1.1148379348      -10.3698302503  MEMB      202             0.0000000000
     25084       202  OYPE      H5S             9.3610323985        2.2274218063      -10.0530097442  MEMB      202             0.0000000000
     25085       202  OYPE      C26             9.6091086019        0.2977752678       -9.0988123789  MEMB      202             0.0000000000
     25086       202  OYPE      H6R            10.7182987479        0.2643846151       -9.0910763076  MEMB      202             0.0000000000
     25087       202  OYPE      H6S             9.3675927034       -0.7450446339       -9.3915003626  MEMB      202             0.0000000000
     25088       202  OYPE      C27             9.0210695562        0.7154738247       -7.7338187734  MEMB      202             0.0000000000
     25089       202  OYPE      H7R             8.0030352926        1.1367667813       -7.8904430558  MEMB      202             0.0000000000
     25090       202  OYPE      H7S             9.5920750030        1.5264518202       -7.2427091060  MEMB      202             0.0000000000
     25091       202  OYPE      C28             8.8731602828       -0.3907622385       -6.7048625004  MEMB      202             0.0000000000
     25092       202  OYPE      H8R             8.6528530394        0.0339360864       -5.7091442726  MEMB      202             0.0000000000
     25093       202  OYPE      H8S             9.7676485800       -1.0483021304       -6.6617492926  MEMB      202             0.0000000000
     25094       202  OYPE      C29             7.7604341038       -1.2260375945       -7.1735656977  MEMB      202             0.0000000000
     25095       202  OYPE      H9R             7.9038634073       -1.4927901996       -8.2478679958  MEMB      202             0.0000000000
     25096       202  OYPE      C210            6.6699036927       -1.6967403694       -6.5132998843  MEMB      202             0.0000000000
     25097       202  OYPE      H10R            6.1527241965       -2.6230414435       -6.8931333832  MEMB      202             0.0000000000
     25098       202  OYPE      C211            6.4003114536       -1.4005467479       -5.0951216583  MEMB      202             0.0000000000
     25099       202  OYPE      H11R            7.3217124861       -1.2427347284       -4.5296550350  MEMB      202             0.0000000000
     25100       202  OYPE      H11S            5.8594856536       -2.1830225546       -4.5440252470  MEMB      202             0.0000000000
     25101       202  OYPE      C212            5.6529216590       -0.0942665585       -5.1128149995  MEMB      202             0.0000000000
     25102       202  OYPE      H12R            4.9831873905       -0.0242764756       -5.9957858623  MEMB      202             0.0000000000
     25103       202  OYPE      H12S            6.2215752208        0.7891304942       -5.3566596660  MEMB      202             0.0000000000
     25104       202  OYPE      C213            4.9162193475        0.0427898977       -3.8124893895  MEMB      202             0.0000000000
     25105       202  OYPE      H13R            4.7346582759       -0.9716656681       -3.3781762440  MEMB      202             0.0000000000
     25106       202  OYPE      H13S            4.0681118900        0.5854029861       -4.2425079071  MEMB      202             0.0000000000
     25107       202  OYPE      C214            5.1501108576        1.1025251858       -2.7831012141  MEMB      202             0.0000000000
     25108       202  OYPE      H14R            6.0764835174        0.8003371384       -2.3036230379  MEMB      202             0.0000000000
     25109       202  OYPE      H14S            4.3635648091        0.9863256933       -1.9974288970  MEMB      202             0.0000000000
     25110       202  OYPE      C215            5.2232369177        2.5297276107       -3.3652196577  MEMB      202             0.0000000000
     25111       202  OYPE      H15R            4.2380982556        2.8227266647       -3.7995093253  MEMB      202             0.0000000000
     25112       202  OYPE      H15S            5.9358276061        2.5594367952       -4.2245765618  MEMB      202             0.0000000000
     25113       202  OYPE      C216            5.6208941244        3.5952631775       -2.3307651151  MEMB      202             0.0000000000
     25114       202  OYPE      H16R            5.0012460606        3.5019045335       -1.4154973340  MEMB      202             0.0000000000
     25115       202  OYPE      H16S            5.4267789710        4.6094328469       -2.7419134618  MEMB      202             0.0000000000
     25116       202  OYPE      H16T            6.6928725777        3.5196688681       -2.0336721765  MEMB      202             0.0000000000
     25117       202  OYPE      C33             4.0078578373        0.5436618760      -11.7664838021  MEMB      202             0.0000000000
     25118       202  OYPE      H3X             3.4888625757       -0.3517070610      -11.3548512721  MEMB      202             0.0000000000
     25119       202  OYPE      H3Y             3.3993715542        1.4409548152      -11.4996842196  MEMB      202             0.0000000000
     25120       202  OYPE      C34             5.1829021122        0.2058157473      -10.8692802092  MEMB      202             0.0000000000
     25121       202  OYPE      H4X             5.3486704767       -0.8927325693      -10.8079497651  MEMB      202             0.0000000000
     25122       202  OYPE      H4Y             6.0931445724        0.5897046152      -11.3044268836  MEMB      202             0.0000000000
     25123       202  OYPE      C35             4.9743707644        0.6881409506       -9.4372498899  MEMB      202             0.0000000000
     25124       202  OYPE      H5X             5.6992555896        0.1857436813       -8.7880730373  MEMB      202             0.0000000000
     25125       202  OYPE      H5Y             4.0342414305        0.3050952640       -9.1231951477  MEMB      202             0.0000000000
     25126       202  OYPE      C36             5.0205678086        2.1965839718       -9.3352980190  MEMB      202             0.0000000000
     25127       202  OYPE      H6X             5.9760084324        2.4636343995       -9.8468810892  MEMB      202             0.0000000000
     25128       202  OYPE      H6Y             4.1325792446        2.6132010764       -9.8525081208  MEMB      202             0.0000000000
     25129       202  OYPE      C37             5.0425497170        2.7459196113       -7.9178235130  MEMB      202             0.0000000000
     25130       202  OYPE      H7X             4.1489910362        2.4144257338       -7.3406422569  MEMB      202             0.0000000000
     25131       202  OYPE      H7Y             5.9479895289        2.3138632717       -7.4495449529  MEMB      202             0.0000000000
     25132       202  OYPE      C38             5.1672812782        4.2800382835       -7.8227003875  MEMB      202             0.0000000000
     25133       202  OYPE      H8X             4.1848268905        4.7437293785       -8.0481104980  MEMB      202             0.0000000000
     25134       202  OYPE      H8Y             5.3756110537        4.4908971180       -6.7560282306  MEMB      202             0.0000000000
     25135       202  OYPE      C39             6.2330510727        4.9364338989       -8.6658166520  MEMB      202             0.0000000000
     25136       202  OYPE      H9X             6.0220485681        5.0014002044       -9.7418580469  MEMB      202             0.0000000000
     25137       202  OYPE      C310            7.3528663256        5.5250207301       -8.2172825188  MEMB      202             0.0000000000
     25138       202  OYPE      H10X            7.9951816973        6.0544264018       -8.9361419634  MEMB      202             0.0000000000
     25139       202  OYPE      C311            7.7764367493        5.6491789148       -6.7813157551  MEMB      202             0.0000000000
     25140       202  OYPE      H11X            8.2268136166        6.6602116398       -6.6688050332  MEMB      202             0.0000000000
     25141       202  OYPE      H11Y            6.8908312681        5.6298318879       -6.1065528037  MEMB      202             0.0000000000
     25142       202  OYPE      C312            8.8121282617        4.5522172210       -6.4038554288  MEMB      202             0.0000000000
     25143       202  OYPE      H12X            9.8108264134        4.9228428741       -6.7072953562  MEMB      202             0.0000000000
     25144       202  OYPE      H12Y            8.6328956953        3.6155584872       -6.9860835927  MEMB      202             0.0000000000
     25145       202  OYPE      C313            8.8228042849        4.1431961127       -4.9141801766  MEMB      202             0.0000000000
     25146       202  OYPE      H13X            8.8388312676        5.0498438053       -4.2638995664  MEMB      202             0.0000000000
     25147       202  OYPE      H13Y            7.8613764845        3.6064563124       -4.7610952099  MEMB      202             0.0000000000
     25148       202  OYPE      C314            9.9477121724        3.1712272440       -4.4863032422  MEMB      202             0.0000000000
     25149       202  OYPE      H14X           10.9358436958        3.6919053285       -4.5439570678  MEMB      202             0.0000000000
     25150       202  OYPE      H14Y            9.9694950099        2.2431615567       -5.1088236683  MEMB      202             0.0000000000
     25151       202  OYPE      C315            9.8818542205        2.7693395895       -3.0041573710  MEMB      202             0.0000000000
     25152       202  OYPE      H15X            9.4333256388        3.5798461896       -2.3954115425  MEMB      202             0.0000000000
     25153       202  OYPE      H15Y           10.9618982477        2.7752462092       -2.7102328639  MEMB      202             0.0000000000
     25154       202  OYPE      C316            9.0235159457        1.5131998083       -2.6864474122  MEMB      202             0.0000000000
     25155       202  OYPE      H16X            9.2472846072        0.6123512197       -3.2933640735  MEMB      202             0.0000000000
     25156       202  OYPE      H16Y            7.9407602317        1.7659745326       -2.8691431828  MEMB      202             0.0000000000
     25157       202  OYPE      C317            9.2778553944        0.9301971597       -1.2772727490  MEMB      202             0.0000000000
     25158       202  OYPE      H17X            8.5980018577        0.0631371387       -1.1058998299  MEMB      202             0.0000000000
     25159       202  OYPE      H17Y            8.9932124681        1.6787840785       -0.5150550958  MEMB      202             0.0000000000
     25160       202  OYPE      C318           10.7132674220        0.4213640247       -1.0012152001  MEMB      202             0.0000000000
     25161       202  OYPE      H18X           11.4799491972        1.2262349320       -1.0343073960  MEMB      202             0.0000000000
     25162       202  OYPE      H18Y           10.7463581866       -0.0278063746        0.0154081822  MEMB      202             0.0000000000
     25163       202  OYPE      H18Z           11.0162705125       -0.3727418150       -1.7200203642  MEMB      202             0.0000000000
     25164       203  PMPE      N              -7.7347901099       -4.2240118819      -19.1924145793  MEMB      203             0.0000000000
     25165       203  PMPE      HN1            -7.3293666980       -3.7983743960      -18.3350370652  MEMB      203             0.0000000000
     25166       203  PMPE      HN2            -7.9914786198       -5.2169365929      -18.9962427510  MEMB      203             0.0000000000
     25167       203  PMPE      HN3            -6.9962761722       -4.1712292440      -19.9162522683  MEMB      203             0.0000000000
     25168       203  PMPE      C12            -8.9664413357       -3.4663928527      -19.6044818280  MEMB      203             0.0000000000
     25169       203  PMPE      H12A           -9.7083693833       -3.5686936790      -18.7814354922  MEMB      203             0.0000000000
     25170       203  PMPE      H12B           -9.3937380183       -3.9743826569      -20.4989983639  MEMB      203             0.0000000000
     25171       203  PMPE      C11            -8.6792814454       -1.9763359087      -19.9236419297  MEMB      203             0.0000000000
     25172       203  PMPE      H11A           -9.7157838702       -1.5876987571      -20.0403197606  MEMB      203             0.0000000000
     25173       203  PMPE      H11B           -8.1857981530       -1.8287725283      -20.9070594326  MEMB      203             0.0000000000
     25174       203  PMPE      P              -8.0947416720        0.2977547728      -18.6926590104  MEMB      203             0.0000000000
     25175       203  PMPE      O13            -8.0544978936        1.0276218172      -19.9781000682  MEMB      203             0.0000000000
     25176       203  PMPE      O14            -7.1381567121        0.6788180997      -17.6716608629  MEMB      203             0.0000000000
     25177       203  PMPE      O11            -9.5536457938        0.4109478840      -18.0854686566  MEMB      203             0.0000000000
     25178       203  PMPE      O12            -7.9219092014       -1.2899379438      -18.9240792091  MEMB      203             0.0000000000
     25179       203  PMPE      C1            -10.1342830642       -0.5544364133      -17.2128756466  MEMB      203             0.0000000000
     25180       203  PMPE      HA             -9.6532355267       -1.5358201039      -17.3172026408  MEMB      203             0.0000000000
     25181       203  PMPE      HB            -11.2181901546       -0.7051567939      -17.4274593144  MEMB      203             0.0000000000
     25182       203  PMPE      C2            -10.1719203015       -0.1360168436      -15.7460063077  MEMB      203             0.0000000000
     25183       203  PMPE      HS            -11.1092316909        0.4943587599      -15.6974140603  MEMB      203             0.0000000000
     25184       203  PMPE      O21            -8.9583426127        0.4764516394      -15.3521267069  MEMB      203             0.0000000000
     25185       203  PMPE      C21            -9.1277831539        1.6565020668      -15.2468614942  MEMB      203             0.0000000000
     25186       203  PMPE      O22           -10.2032310120        2.2638432731      -15.4971941016  MEMB      203             0.0000000000
     25187       203  PMPE      C22            -7.8204138962        1.9583269073      -14.3213180352  MEMB      203             0.0000000000
     25188       203  PMPE      H2R            -7.6248964769        2.8897409656      -14.4693173266  MEMB      203             0.0000000000
     25189       203  PMPE      H2S            -6.9148530995        1.5115913088      -14.6527452576  MEMB      203             0.0000000000
     25190       203  PMPE      C3            -10.3669998768       -1.3334778897      -14.8065957808  MEMB      203             0.0000000000
     25191       203  PMPE      HX             -9.6305660430       -2.1420344262      -14.9734137400  MEMB      203             0.0000000000
     25192       203  PMPE      HY            -11.3530532326       -1.7739501204      -15.0751008436  MEMB      203             0.0000000000
     25193       203  PMPE      O31           -10.2353639384       -0.9120003253      -13.4308041410  MEMB      203             0.0000000000
     25194       203  PMPE      C31           -11.2577689541       -0.1700051786      -13.0679872676  MEMB      203             0.0000000000
     25195       203  PMPE      O32           -12.3222343163       -0.1158850010      -13.6620627665  MEMB      203             0.0000000000
     25196       203  PMPE      C32           -10.9173321014        0.6299466653      -11.8351241268  MEMB      203             0.0000000000
     25197       203  PMPE      H2X           -10.9217910964        1.6976688859      -12.0428397786  MEMB      203             0.0000000000
     25198       203  PMPE      H2Y            -9.9449072166        0.3453457916      -11.4147293950  MEMB      203             0.0000000000
     25199       203  PMPE      C23            -7.5688959963        2.7642146983      -12.9874274938  MEMB      203             0.0000000000
     25200       203  PMPE      H3R            -8.4912455873        3.1559555990      -12.4465521486  MEMB      203             0.0000000000
     25201       203  PMPE      H3S            -6.8317022754        3.5990342970      -12.9786782316  MEMB      203             0.0000000000
     25202       203  PMPE      C24            -7.3478835681        1.7622191660      -12.1783698190  MEMB      203             0.0000000000
     25203       203  PMPE      H4R            -8.1700366439        1.0772893133      -12.5449271693  MEMB      203             0.0000000000
     25204       203  PMPE      H4S            -7.5941183638        2.2234074005      -11.2100024106  MEMB      203             0.0000000000
     25205       203  PMPE      C25            -5.9590506555        1.2543287541      -12.3531291310  MEMB      203             0.0000000000
     25206       203  PMPE      H5R            -5.2101554670        2.0734739902      -12.5612498013  MEMB      203             0.0000000000
     25207       203  PMPE      H5S            -6.0191935814        0.5732352537      -13.2359610046  MEMB      203             0.0000000000
     25208       203  PMPE      C26            -5.7014361089        0.3904265620      -11.1191064917  MEMB      203             0.0000000000
     25209       203  PMPE      H6R            -5.6072854172        0.9436945822      -10.1812578975  MEMB      203             0.0000000000
     25210       203  PMPE      H6S            -4.7521617513       -0.1456825892      -11.1317927921  MEMB      203             0.0000000000
     25211       203  PMPE      C27            -6.8471466571       -0.6120975014      -10.9083405353  MEMB      203             0.0000000000
     25212       203  PMPE      H7R            -6.9224677867       -1.2381077413      -11.8192952093  MEMB      203             0.0000000000
     25213       203  PMPE      H7S            -7.7793321239       -0.0267356550      -10.8401254315  MEMB      203             0.0000000000
     25214       203  PMPE      C28            -6.7681162982       -1.4443946583       -9.6013304720  MEMB      203             0.0000000000
     25215       203  PMPE      H8R            -7.7373239705       -1.8543635723       -9.3099018739  MEMB      203             0.0000000000
     25216       203  PMPE      H8S            -6.4037031987       -0.7674278908       -8.7986837391  MEMB      203             0.0000000000
     25217       203  PMPE      C29            -5.7544779111       -2.5386265938       -9.7400212769  MEMB      203             0.0000000000
     25218       203  PMPE      H9R            -4.8805695408       -1.9800612226       -9.9618949810  MEMB      203             0.0000000000
     25219       203  PMPE      C217           -6.3104592305       -3.7149286056      -10.5374949990  MEMB      203             0.0000000000
     25220       203  PMPE      H17R           -5.6624034402       -4.1119424482      -11.3087605272  MEMB      203             0.0000000000
     25221       203  PMPE      H17S           -7.3888460595       -3.7054861221      -10.5128128144  MEMB      203             0.0000000000
     25222       203  PMPE      C210           -5.7035678495       -3.9494919136       -9.1723772755  MEMB      203             0.0000000000
     25223       203  PMPE      H10R           -4.7850758341       -4.5487036131       -9.2872568735  MEMB      203             0.0000000000
     25224       203  PMPE      C211           -6.5906027189       -4.2202587043       -7.9722285106  MEMB      203             0.0000000000
     25225       203  PMPE      H11R           -6.6762180613       -5.3079466549       -7.7527019001  MEMB      203             0.0000000000
     25226       203  PMPE      H11S           -7.6272973641       -3.8562569277       -8.1215356650  MEMB      203             0.0000000000
     25227       203  PMPE      C212           -6.0044798957       -3.4514829969       -6.7919047461  MEMB      203             0.0000000000
     25228       203  PMPE      H12R           -5.8252044571       -2.3835623942       -7.0629497608  MEMB      203             0.0000000000
     25229       203  PMPE      H12S           -4.9887436914       -3.8249951944       -6.5388707648  MEMB      203             0.0000000000
     25230       203  PMPE      C213           -6.8642931331       -3.5872529415       -5.5374738601  MEMB      203             0.0000000000
     25231       203  PMPE      H13R           -6.9528282398       -4.6657058942       -5.2524296605  MEMB      203             0.0000000000
     25232       203  PMPE      H13S           -7.8957883048       -3.1781197863       -5.6721829896  MEMB      203             0.0000000000
     25233       203  PMPE      C214           -6.2096395800       -2.7374950974       -4.4507219993  MEMB      203             0.0000000000
     25234       203  PMPE      H14R           -6.2451597266       -1.6850502433       -4.8186008527  MEMB      203             0.0000000000
     25235       203  PMPE      H14S           -5.1374145656       -3.0153792704       -4.3083086952  MEMB      203             0.0000000000
     25236       203  PMPE      C215           -6.9556832874       -2.7721042262       -3.1209463315  MEMB      203             0.0000000000
     25237       203  PMPE      H15R           -6.9132740376       -3.7939347308       -2.6930247063  MEMB      203             0.0000000000
     25238       203  PMPE      H15S           -8.0396996660       -2.5936987644       -3.2877116978  MEMB      203             0.0000000000
     25239       203  PMPE      C216           -6.4775204217       -1.7341239486       -2.0992524345  MEMB      203             0.0000000000
     25240       203  PMPE      H16R           -6.7934792060       -2.0857405675       -1.0959401641  MEMB      203             0.0000000000
     25241       203  PMPE      H16S           -5.3786676121       -1.5989615150       -2.0520940853  MEMB      203             0.0000000000
     25242       203  PMPE      H16T           -6.9266364811       -0.7403434192       -2.3274587106  MEMB      203             0.0000000000
     25243       203  PMPE      C33           -11.8707715543        0.3235980143      -10.7665070822  MEMB      203             0.0000000000
     25244       203  PMPE      H3X           -11.9805962279       -0.7629055638      -10.8952505849  MEMB      203             0.0000000000
     25245       203  PMPE      H3Y           -12.9082748646        0.7653623992      -10.8682971468  MEMB      203             0.0000000000
     25246       203  PMPE      C34           -11.2690383104        0.4340567213       -9.3565106059  MEMB      203             0.0000000000
     25247       203  PMPE      H4X           -11.8662679074        0.1100010074       -8.5070498785  MEMB      203             0.0000000000
     25248       203  PMPE      H4Y           -11.0988573378        1.4035515626       -9.0837961022  MEMB      203             0.0000000000
     25249       203  PMPE      C35            -9.9412557287        0.1375152250       -8.9348179742  MEMB      203             0.0000000000
     25250       203  PMPE      H5X            -9.3541317665        0.9578414140       -9.3838475705  MEMB      203             0.0000000000
     25251       203  PMPE      H5Y            -9.7243821505       -0.8504506346       -9.2991950843  MEMB      203             0.0000000000
     25252       203  PMPE      C36            -9.8105939373        0.1023088899       -7.4165441233  MEMB      203             0.0000000000
     25253       203  PMPE      H6X            -8.7676721582       -0.0336136191       -7.1903675661  MEMB      203             0.0000000000
     25254       203  PMPE      H6Y           -10.4474587841       -0.7170925096       -7.0404581293  MEMB      203             0.0000000000
     25255       203  PMPE      C37           -10.1977163693        1.3208511680       -6.6977537365  MEMB      203             0.0000000000
     25256       203  PMPE      H7X           -11.2755691608        1.1338489183       -6.7685995556  MEMB      203             0.0000000000
     25257       203  PMPE      H7Y            -9.6584333199        2.1633871509       -7.1723432857  MEMB      203             0.0000000000
     25258       203  PMPE      C38            -9.9464576805        1.7065800986       -5.3090055273  MEMB      203             0.0000000000
     25259       203  PMPE      H8X           -10.5131115507        2.5346668236       -4.9562576429  MEMB      203             0.0000000000
     25260       203  PMPE      H8Y            -8.8895346215        1.9379004733       -5.3488134517  MEMB      203             0.0000000000
     25261       203  PMPE      C39           -10.2792519893        0.6240913881       -4.4097305520  MEMB      203             0.0000000000
     25262       203  PMPE      H9X            -9.5997172043       -0.1154056643       -4.8588110847  MEMB      203             0.0000000000
     25263       203  PMPE      H9Y           -11.3305844076        0.3360135075       -4.5927627286  MEMB      203             0.0000000000
     25264       203  PMPE      C310           -9.9148165722        0.7697654849       -2.9429899886  MEMB      203             0.0000000000
     25265       203  PMPE      H10X          -10.3181805354        1.6905019927       -2.4467119417  MEMB      203             0.0000000000
     25266       203  PMPE      H10Y           -8.8102916497        0.7870791278       -2.8551874601  MEMB      203             0.0000000000
     25267       203  PMPE      C311          -10.2981142482       -0.4800936971       -2.1484148010  MEMB      203             0.0000000000
     25268       203  PMPE      H11X          -10.0661184872       -0.2583193139       -1.1046036990  MEMB      203             0.0000000000
     25269       203  PMPE      H11Y           -9.8793883344       -1.4587362843       -2.4229530932  MEMB      203             0.0000000000
     25270       203  PMPE      C312          -11.6971076773       -0.7992461620       -2.2011841057  MEMB      203             0.0000000000
     25271       203  PMPE      H12X          -12.0073572448       -1.0289814849       -3.2726071337  MEMB      203             0.0000000000
     25272       203  PMPE      H12Y          -12.2174405627        0.0856353309       -1.7337972637  MEMB      203             0.0000000000
     25273       203  PMPE      C313          -12.2825896614       -2.0356847725       -1.4355353402  MEMB      203             0.0000000000
     25274       203  PMPE      H13X          -11.7011919417       -1.8537635585       -0.5425497788  MEMB      203             0.0000000000
     25275       203  PMPE      H13Y          -12.0255042916       -2.9181361956       -2.0194417101  MEMB      203             0.0000000000
     25276       203  PMPE      C314          -13.8752656469       -2.3946290172       -0.9034347750  MEMB      203             0.0000000000
     25277       203  PMPE      H14X          -14.1707684338       -3.3421386554       -0.5382333607  MEMB      203             0.0000000000
     25278       203  PMPE      H14Y          -14.5469167345       -2.6041080160       -1.6750226204  MEMB      203             0.0000000000
     25279       203  PMPE      C315          -14.3659350202       -1.3348925865        0.1569738950  MEMB      203             0.0000000000
     25280       203  PMPE      H15X          -15.3992838748       -1.2399752558        0.2533172662  MEMB      203             0.0000000000
     25281       203  PMPE      H15Y          -13.9615897638       -0.5993252015       -0.3562748225  MEMB      203             0.0000000000
     25282       203  PMPE      C316          -13.6757464395       -0.5650665872        1.2366654473  MEMB      203             0.0000000000
     25283       203  PMPE      H16X          -12.6203213570       -0.3311514628        0.9468454712  MEMB      203             0.0000000000
     25284       203  PMPE      H16Y          -13.8405258511       -1.2778147490        2.0031471614  MEMB      203             0.0000000000
     25285       203  PMPE      H16Z          -14.2367798134        0.3908078052        1.4380854228  MEMB      203             0.0000000000
     25286       204  PMPE      N              -7.2481115343        7.0581396531      -20.7157994860  MEMB      204             0.0000000000
     25287       204  PMPE      HN1            -6.4331707075        6.4642082030      -20.9742977622  MEMB      204             0.0000000000
     25288       204  PMPE      HN2            -8.1447211164        6.5854062332      -20.9312641189  MEMB      204             0.0000000000
     25289       204  PMPE      HN3            -7.1367710773        7.9819906296      -21.1684538455  MEMB      204             0.0000000000
     25290       204  PMPE      C12            -7.2462417530        7.0699354620      -19.2218257175  MEMB      204             0.0000000000
     25291       204  PMPE      H12A           -7.3487090880        5.9869535484      -18.9882505451  MEMB      204             0.0000000000
     25292       204  PMPE      H12B           -8.1366484542        7.6294789497      -18.8625319835  MEMB      204             0.0000000000
     25293       204  PMPE      C11            -5.9011188107        7.4923670124      -18.6343508621  MEMB      204             0.0000000000
     25294       204  PMPE      H11A           -5.9023433678        7.1255906376      -17.5663219378  MEMB      204             0.0000000000
     25295       204  PMPE      H11B           -5.7292155847        8.5861915588      -18.6382781877  MEMB      204             0.0000000000
     25296       204  PMPE      P              -3.4730904501        6.6614840376      -18.6750044719  MEMB      204             0.0000000000
     25297       204  PMPE      O13            -3.4429110325        7.4738279170      -17.4351772727  MEMB      204             0.0000000000
     25298       204  PMPE      O14            -2.3895270552        6.7357919643      -19.6571363134  MEMB      204             0.0000000000
     25299       204  PMPE      O11            -3.7078570236        5.2067731384      -18.2777822162  MEMB      204             0.0000000000
     25300       204  PMPE      O12            -4.8604396683        6.9281928374      -19.4246846918  MEMB      204             0.0000000000
     25301       204  PMPE      C1             -4.3417913612        4.3273649599      -19.2174904398  MEMB      204             0.0000000000
     25302       204  PMPE      HA             -3.7274072812        4.1774556563      -20.1308581148  MEMB      204             0.0000000000
     25303       204  PMPE      HB             -5.3257232095        4.6993736619      -19.5264320537  MEMB      204             0.0000000000
     25304       204  PMPE      C2             -4.6471651972        3.0016801707      -18.5546167998  MEMB      204             0.0000000000
     25305       204  PMPE      HS             -5.3598450724        2.3879734783      -19.1616941909  MEMB      204             0.0000000000
     25306       204  PMPE      O21            -5.1394921427        3.2655930109      -17.2903776787  MEMB      204             0.0000000000
     25307       204  PMPE      C21            -6.3662310472        3.5754697488      -17.3383344740  MEMB      204             0.0000000000
     25308       204  PMPE      O22            -7.1760213235        3.7003751072      -18.2297175752  MEMB      204             0.0000000000
     25309       204  PMPE      C22            -6.7904006202        3.7345794872      -16.0757862785  MEMB      204             0.0000000000
     25310       204  PMPE      H2R            -6.2196838978        4.0103702258      -15.1595505379  MEMB      204             0.0000000000
     25311       204  PMPE      H2S            -6.5381693004        2.5765159381      -16.0198753349  MEMB      204             0.0000000000
     25312       204  PMPE      C3             -3.3646064146        2.3220165018      -18.4193019433  MEMB      204             0.0000000000
     25313       204  PMPE      HX             -2.9541026228        2.0202881443      -19.4235500554  MEMB      204             0.0000000000
     25314       204  PMPE      HY             -3.3852012279        1.4188956828      -17.8463506050  MEMB      204             0.0000000000
     25315       204  PMPE      O31            -2.4512166453        3.1866308212      -17.7805823129  MEMB      204             0.0000000000
     25316       204  PMPE      C31            -2.0029697161        2.8524545878      -16.6043607753  MEMB      204             0.0000000000
     25317       204  PMPE      O32            -2.4721005326        1.9929084029      -15.8720893917  MEMB      204             0.0000000000
     25318       204  PMPE      C32            -0.6540088687        3.5665775872      -16.4462452474  MEMB      204             0.0000000000
     25319       204  PMPE      H2X            -0.1415456861        3.6657396987      -17.4397788439  MEMB      204             0.0000000000
     25320       204  PMPE      H2Y             0.0417893550        2.9412969121      -15.8440125377  MEMB      204             0.0000000000
     25321       204  PMPE      C23            -8.4237234133        4.2042637126      -15.8714228659  MEMB      204             0.0000000000
     25322       204  PMPE      H3R            -8.9840542632        3.5685326927      -16.5971022275  MEMB      204             0.0000000000
     25323       204  PMPE      H3S            -8.5088736724        5.1904800876      -16.1471590350  MEMB      204             0.0000000000
     25324       204  PMPE      C24            -9.1789844966        4.3333069064      -14.3569309389  MEMB      204             0.0000000000
     25325       204  PMPE      H4R            -9.5003624013        3.3413570293      -13.8468045828  MEMB      204             0.0000000000
     25326       204  PMPE      H4S           -10.2194975305        4.2420184607      -14.2957492270  MEMB      204             0.0000000000
     25327       204  PMPE      C25            -8.4040352772        5.2173355301      -13.3245484548  MEMB      204             0.0000000000
     25328       204  PMPE      H5R            -7.2863482583        5.2717208120      -13.4459300695  MEMB      204             0.0000000000
     25329       204  PMPE      H5S            -8.5276923502        4.9648314006      -12.2284400475  MEMB      204             0.0000000000
     25330       204  PMPE      C26            -8.8335275281        6.5004565675      -13.6554164431  MEMB      204             0.0000000000
     25331       204  PMPE      H6R            -9.9255056488        6.3805839547      -13.6609014742  MEMB      204             0.0000000000
     25332       204  PMPE      H6S            -8.4047323510        6.7428896034      -14.6563331080  MEMB      204             0.0000000000
     25333       204  PMPE      C27            -8.3976269825        7.5139664429      -12.6646587121  MEMB      204             0.0000000000
     25334       204  PMPE      H7R            -8.8129949358        8.4304890993      -13.1282867906  MEMB      204             0.0000000000
     25335       204  PMPE      H7S            -7.3013553377        7.5039395850      -12.7146443718  MEMB      204             0.0000000000
     25336       204  PMPE      C28            -8.7730920321        7.2682894119      -11.2071428960  MEMB      204             0.0000000000
     25337       204  PMPE      H8R            -8.6500723373        6.2370041124      -10.8642392607  MEMB      204             0.0000000000
     25338       204  PMPE      H8S            -9.7928984436        7.3352473400      -11.1509565500  MEMB      204             0.0000000000
     25339       204  PMPE      C29            -8.1627457995        8.2722021063      -10.2622103974  MEMB      204             0.0000000000
     25340       204  PMPE      H9R            -7.9738490438        9.2978498276      -10.6112873215  MEMB      204             0.0000000000
     25341       204  PMPE      C217           -6.8220907123        7.7264164016       -9.7713437466  MEMB      204             0.0000000000
     25342       204  PMPE      H17R           -6.0937459833        8.5138087007       -9.6536311133  MEMB      204             0.0000000000
     25343       204  PMPE      H17S           -6.6044055956        6.7661116907      -10.2244532429  MEMB      204             0.0000000000
     25344       204  PMPE      C210           -7.9982277678        7.9074292597       -8.8252847724  MEMB      204             0.0000000000
     25345       204  PMPE      H10R           -8.0361340326        8.8215339249       -8.2033837976  MEMB      204             0.0000000000
     25346       204  PMPE      C211           -8.7952142035        6.7193191253       -8.3351502916  MEMB      204             0.0000000000
     25347       204  PMPE      H11R           -8.7721647121        5.8181571811       -8.9651341629  MEMB      204             0.0000000000
     25348       204  PMPE      H11S           -9.8606234954        7.0687713397       -8.3404857972  MEMB      204             0.0000000000
     25349       204  PMPE      C212           -8.0862222824        6.3501087121       -7.0293603205  MEMB      204             0.0000000000
     25350       204  PMPE      H12R           -8.0648704600        7.1931455703       -6.3445860702  MEMB      204             0.0000000000
     25351       204  PMPE      H12S           -7.0664876838        6.1105114693       -7.1148653015  MEMB      204             0.0000000000
     25352       204  PMPE      C213           -8.5593150498        5.1032084581       -6.4473119025  MEMB      204             0.0000000000
     25353       204  PMPE      H13R           -8.8339321809        4.3215325895       -7.1548589337  MEMB      204             0.0000000000
     25354       204  PMPE      H13S           -9.4796167561        5.5677540941       -6.4367658061  MEMB      204             0.0000000000
     25355       204  PMPE      C214           -8.1483787840        4.5426068068       -5.0745197752  MEMB      204             0.0000000000
     25356       204  PMPE      H14R           -7.1319083667        4.3252301731       -5.3428016098  MEMB      204             0.0000000000
     25357       204  PMPE      H14S           -8.5681725237        3.5782374695       -4.8765881629  MEMB      204             0.0000000000
     25358       204  PMPE      C215           -8.3738906470        5.3227968158       -3.7859068721  MEMB      204             0.0000000000
     25359       204  PMPE      H15R           -9.4489814205        5.4813210383       -3.6821620495  MEMB      204             0.0000000000
     25360       204  PMPE      H15S           -7.8618757783        6.2871521196       -3.9642686331  MEMB      204             0.0000000000
     25361       204  PMPE      C216           -7.8226873575        4.7499745670       -2.5012150036  MEMB      204             0.0000000000
     25362       204  PMPE      H16R           -7.8058539962        3.6394375227       -2.5118693214  MEMB      204             0.0000000000
     25363       204  PMPE      H16S           -6.7783937164        5.0995657774       -2.4320748234  MEMB      204             0.0000000000
     25364       204  PMPE      H16T           -8.3616865517        5.1720523714       -1.6228109186  MEMB      204             0.0000000000
     25365       204  PMPE      C33            -0.9950886563        4.9456956832      -15.8829655665  MEMB      204             0.0000000000
     25366       204  PMPE      H3X            -1.8733787607        5.4304876870      -16.3809527731  MEMB      204             0.0000000000
     25367       204  PMPE      H3Y            -0.1214781310        5.5956310540      -16.1271318298  MEMB      204             0.0000000000
     25368       204  PMPE      C34            -1.2086892468        4.9203632749      -14.3583059072  MEMB      204             0.0000000000
     25369       204  PMPE      H4X            -0.9889836473        5.9501695051      -14.0345332739  MEMB      204             0.0000000000
     25370       204  PMPE      H4Y            -0.4772479671        4.2622332624      -13.8439914840  MEMB      204             0.0000000000
     25371       204  PMPE      C35            -2.6267085157        4.6572731421      -13.8162687928  MEMB      204             0.0000000000
     25372       204  PMPE      H5X            -3.0469337542        3.7585470826      -14.3201772473  MEMB      204             0.0000000000
     25373       204  PMPE      H5Y            -3.2739579871        5.5366374545      -14.0413796395  MEMB      204             0.0000000000
     25374       204  PMPE      C36            -2.5995015060        4.4435582118      -12.2840799019  MEMB      204             0.0000000000
     25375       204  PMPE      H6X            -1.7750802387        5.0806404954      -11.8733542828  MEMB      204             0.0000000000
     25376       204  PMPE      H6Y            -2.3525261798        3.3733083161      -12.1246724612  MEMB      204             0.0000000000
     25377       204  PMPE      C37            -3.9276149959        4.8079324851      -11.5934613831  MEMB      204             0.0000000000
     25378       204  PMPE      H7X            -4.7041079211        4.8796605553      -12.4020165462  MEMB      204             0.0000000000
     25379       204  PMPE      H7Y            -3.8138675247        5.8315550246      -11.1882648135  MEMB      204             0.0000000000
     25380       204  PMPE      C38            -4.4268196886        3.9597570882      -10.3828698965  MEMB      204             0.0000000000
     25381       204  PMPE      H8X            -4.8026584264        2.9861804959      -10.7519544866  MEMB      204             0.0000000000
     25382       204  PMPE      H8Y            -5.3240942007        4.5080023554      -10.0255650664  MEMB      204             0.0000000000
     25383       204  PMPE      C39            -3.5464744834        3.7637555127       -9.1109045565  MEMB      204             0.0000000000
     25384       204  PMPE      H9X            -2.6319731093        3.1640261130       -9.3470025386  MEMB      204             0.0000000000
     25385       204  PMPE      H9Y            -4.1417312501        3.2604710337       -8.2974172183  MEMB      204             0.0000000000
     25386       204  PMPE      C310           -3.0304498863        5.0102688934       -8.3637932825  MEMB      204             0.0000000000
     25387       204  PMPE      H10X           -2.1821235382        5.4331765233       -8.9457414677  MEMB      204             0.0000000000
     25388       204  PMPE      H10Y           -2.5922811657        4.5411330256       -7.4527808943  MEMB      204             0.0000000000
     25389       204  PMPE      C311           -4.0941520626        6.0756881774       -7.9678976440  MEMB      204             0.0000000000
     25390       204  PMPE      H11X           -5.0661600733        5.6137721506       -7.6856269141  MEMB      204             0.0000000000
     25391       204  PMPE      H11Y           -4.2423330822        6.7074527910       -8.8759857118  MEMB      204             0.0000000000
     25392       204  PMPE      C312           -3.6965747178        7.0301113714       -6.8184121865  MEMB      204             0.0000000000
     25393       204  PMPE      H12X           -2.8289739623        7.5873761013       -7.2193546947  MEMB      204             0.0000000000
     25394       204  PMPE      H12Y           -3.3789248697        6.4954082601       -5.8897559852  MEMB      204             0.0000000000
     25395       204  PMPE      C313           -4.7664078576        8.0633472626       -6.4086131328  MEMB      204             0.0000000000
     25396       204  PMPE      H13X           -5.4997705473        7.4892926656       -5.7973303588  MEMB      204             0.0000000000
     25397       204  PMPE      H13Y           -5.3141949389        8.4681395401       -7.2939551775  MEMB      204             0.0000000000
     25398       204  PMPE      C314           -4.1337075357        9.2611977861       -5.6669580706  MEMB      204             0.0000000000
     25399       204  PMPE      H14X           -4.9449105764        9.9582920979       -5.3546137915  MEMB      204             0.0000000000
     25400       204  PMPE      H14Y           -3.5124558583        9.8078595775       -6.4243674935  MEMB      204             0.0000000000
     25401       204  PMPE      C315           -3.2517158395        8.8753518665       -4.4648025282  MEMB      204             0.0000000000
     25402       204  PMPE      H15X           -2.4210734602        9.5802054253       -4.4782784282  MEMB      204             0.0000000000
     25403       204  PMPE      H15Y           -2.7177079006        7.9136911838       -4.5704370970  MEMB      204             0.0000000000
     25404       204  PMPE      C316           -4.0120522839        8.8190316880       -3.1244393317  MEMB      204             0.0000000000
     25405       204  PMPE      H16X           -4.5951868458        7.9231038110       -3.0767265240  MEMB      204             0.0000000000
     25406       204  PMPE      H16Y           -4.5145188470        9.7761393704       -2.8916547465  MEMB      204             0.0000000000
     25407       204  PMPE      H16Z           -3.4202780087        8.6068340190       -2.2181285431  MEMB      204             0.0000000000
     25408       205  PMPG      C13             1.9003701864        6.2539138293      -21.3006599952  MEMB      205             0.0000000000
     25409       205  PMPG      H13A            2.4487241925        5.2865295354      -21.1768547352  MEMB      205             0.0000000000
     25410       205  PMPG      H13B            0.8489428877        6.0904802655      -21.5804454037  MEMB      205             0.0000000000
     25411       205  PMPG      OC3             2.3640855933        6.9228763449      -22.4643184200  MEMB      205             0.0000000000
     25412       205  PMPG      HO3             2.2721629321        6.2566953469      -23.1357620994  MEMB      205             0.0000000000
     25413       205  PMPG      C12             1.9586390364        7.0888939402      -19.9986681701  MEMB      205             0.0000000000
     25414       205  PMPG      H12A            1.3168621939        6.5784614339      -19.2339495161  MEMB      205             0.0000000000
     25415       205  PMPG      OC2             1.3437979012        8.3690190038      -20.2168912329  MEMB      205             0.0000000000
     25416       205  PMPG      HO2             1.5358193056        8.8586545819      -19.4213645561  MEMB      205             0.0000000000
     25417       205  PMPG      C11             3.4277790157        7.1961700164      -19.4631354485  MEMB      205             0.0000000000
     25418       205  PMPG      H11A            4.0480694728        7.7340204368      -20.2139701281  MEMB      205             0.0000000000
     25419       205  PMPG      H11B            3.9166661359        6.2045147488      -19.3076356024  MEMB      205             0.0000000000
     25420       205  PMPG      P               4.6921315488        8.0832183997      -17.3394017410  MEMB      205             0.0000000000
     25421       205  PMPG      O13             5.9772789662        8.2277540225      -18.0645606608  MEMB      205             0.0000000000
     25422       205  PMPG      O14             4.6159240032        7.0929024471      -16.2531096847  MEMB      205             0.0000000000
     25423       205  PMPG      O11             4.2586252913        9.4245405455      -16.7388936836  MEMB      205             0.0000000000
     25424       205  PMPG      O12             3.4182307467        7.8913016125      -18.2399519700  MEMB      205             0.0000000000
     25425       205  PMPG      C1              3.9825711677       10.5709682154      -17.5194366007  MEMB      205             0.0000000000
     25426       205  PMPG      HA              2.9560484980       10.5850416853      -17.9278475998  MEMB      205             0.0000000000
     25427       205  PMPG      HB              4.6723971357       10.7208627293      -18.3876716535  MEMB      205             0.0000000000
     25428       205  PMPG      C2              4.1764034011       11.7116502339      -16.5699624012  MEMB      205             0.0000000000
     25429       205  PMPG      HS              4.4619885960       12.5537115503      -17.2185228272  MEMB      205             0.0000000000
     25430       205  PMPG      O21             5.1815279631       11.5215528870      -15.6485655261  MEMB      205             0.0000000000
     25431       205  PMPG      C21             6.2640173452       11.1366829486      -16.1322690671  MEMB      205             0.0000000000
     25432       205  PMPG      O22             6.7714303493       11.2256136688      -17.2305319993  MEMB      205             0.0000000000
     25433       205  PMPG      C22             6.9348366743       10.8913561155      -14.9674216503  MEMB      205             0.0000000000
     25434       205  PMPG      H2R             7.5706695276       11.7856114829      -15.2979275532  MEMB      205             0.0000000000
     25435       205  PMPG      H2S             7.3681461014        9.9812104133      -14.9725482991  MEMB      205             0.0000000000
     25436       205  PMPG      C3              2.9666850457       11.9617771487      -15.6923078514  MEMB      205             0.0000000000
     25437       205  PMPG      HX              2.0950335111       12.3633098400      -16.2187228310  MEMB      205             0.0000000000
     25438       205  PMPG      HY              3.3423126594       12.7957726122      -15.0145923853  MEMB      205             0.0000000000
     25439       205  PMPG      O31             2.5689967631       10.7292351332      -15.1069000667  MEMB      205             0.0000000000
     25440       205  PMPG      C31             2.0344938827       10.7221897492      -13.9419257763  MEMB      205             0.0000000000
     25441       205  PMPG      O32             1.2429956447       11.5013320970      -13.5234449132  MEMB      205             0.0000000000
     25442       205  PMPG      C32             1.9576191675        9.4900001888      -13.2028979557  MEMB      205             0.0000000000
     25443       205  PMPG      H2X             1.0146451492        9.1584021371      -13.7015330351  MEMB      205             0.0000000000
     25444       205  PMPG      H2Y             1.6716917763        9.6385957980      -12.1264176910  MEMB      205             0.0000000000
     25445       205  PMPG      C23             6.3420199252       10.6788008470      -13.6100159147  MEMB      205             0.0000000000
     25446       205  PMPG      H3R             5.5483170604       10.0057453337      -13.6105658799  MEMB      205             0.0000000000
     25447       205  PMPG      H3S             5.9601119490       11.6715168361      -13.6678302904  MEMB      205             0.0000000000
     25448       205  PMPG      C24             7.2891107270       10.4044927420      -12.4955177210  MEMB      205             0.0000000000
     25449       205  PMPG      H4R             8.1686369095       10.9480829961      -12.8632379235  MEMB      205             0.0000000000
     25450       205  PMPG      H4S             7.8127595373        9.5086247710      -12.2523239474  MEMB      205             0.0000000000
     25451       205  PMPG      C25             6.6490176257       10.8034155144      -11.2123388797  MEMB      205             0.0000000000
     25452       205  PMPG      H5R             7.2584905757       10.5814492647      -10.3524207317  MEMB      205             0.0000000000
     25453       205  PMPG      H5S             5.7581389203       10.2776070205      -10.9607905687  MEMB      205             0.0000000000
     25454       205  PMPG      C26             6.3885425046       12.1687697486      -11.5071379108  MEMB      205             0.0000000000
     25455       205  PMPG      H6R             5.6279876440       12.5639255243      -12.2932400421  MEMB      205             0.0000000000
     25456       205  PMPG      H6S             7.0081744744       12.8973033636      -11.2281530726  MEMB      205             0.0000000000
     25457       205  PMPG      C27             6.1622399493       12.7817830042      -10.4456009391  MEMB      205             0.0000000000
     25458       205  PMPG      H7R             5.9544605793       13.9942276737      -10.7792369199  MEMB      205             0.0000000000
     25459       205  PMPG      H7S             6.6587462419       13.5493879395       -9.8334330024  MEMB      205             0.0000000000
     25460       205  PMPG      C28             4.1144789261       11.7578519610       -9.0216938753  MEMB      205             0.0000000000
     25461       205  PMPG      H8R             4.4509410131       10.8346733179       -8.9452456478  MEMB      205             0.0000000000
     25462       205  PMPG      H8S             3.1463145620       11.7442368597       -9.5624906501  MEMB      205             0.0000000000
     25463       205  PMPG      C29             3.2085762736       12.5800280852       -8.0875001295  MEMB      205             0.0000000000
     25464       205  PMPG      H9R             2.6659529338       13.5632297582       -8.4178783408  MEMB      205             0.0000000000
     25465       205  PMPG      C217            2.8432801212       11.8352424567       -7.2628478100  MEMB      205             0.0000000000
     25466       205  PMPG      H17R            1.8272643931       12.1814551310       -7.2740762445  MEMB      205             0.0000000000
     25467       205  PMPG      H17S            3.1446222004       10.8741548156       -7.3871715151  MEMB      205             0.0000000000
     25468       205  PMPG      C210            4.0537287237       12.8862189749       -6.8480755818  MEMB      205             0.0000000000
     25469       205  PMPG      H10R            3.9281556076       13.9734242175       -6.4753692790  MEMB      205             0.0000000000
     25470       205  PMPG      C211            5.1693060171       12.1029814050       -5.9832684375  MEMB      205             0.0000000000
     25471       205  PMPG      H11R            5.5904778493       11.2438664227       -6.4524447269  MEMB      205             0.0000000000
     25472       205  PMPG      H11S            5.8675108685       12.8744921426       -5.6140788907  MEMB      205             0.0000000000
     25473       205  PMPG      C212            5.1953976553       11.3579871468       -4.8041499008  MEMB      205             0.0000000000
     25474       205  PMPG      H12R            4.3840034650       10.6626633228       -4.9221886013  MEMB      205             0.0000000000
     25475       205  PMPG      H12S            4.9614060690       12.0801436406       -3.9748272637  MEMB      205             0.0000000000
     25476       205  PMPG      C213            6.2178168371       11.4458799443       -3.9049641635  MEMB      205             0.0000000000
     25477       205  PMPG      H13R            6.5910555887       12.4767004383       -3.7053373387  MEMB      205             0.0000000000
     25478       205  PMPG      H13S            6.9446302459       11.0394031426       -4.4539472934  MEMB      205             0.0000000000
     25479       205  PMPG      C214            5.5661787465       10.4865823706       -3.0012931303  MEMB      205             0.0000000000
     25480       205  PMPG      H14R            6.2282102899       10.1708879393       -2.4532551084  MEMB      205             0.0000000000
     25481       205  PMPG      H14S            5.2466240065        9.5089691818       -3.3348232487  MEMB      205             0.0000000000
     25482       205  PMPG      C215            4.9420658657       10.8758979073       -1.7813132399  MEMB      205             0.0000000000
     25483       205  PMPG      H15R            3.9221230657       10.7794564523       -2.2440137097  MEMB      205             0.0000000000
     25484       205  PMPG      H15S            5.2623422960       11.9016160532       -1.4073461808  MEMB      205             0.0000000000
     25485       205  PMPG      C216            5.1176318934        9.7476379893       -0.8191245320  MEMB      205             0.0000000000
     25486       205  PMPG      H16R            4.5722304579        9.5486431379        0.1465495792  MEMB      205             0.0000000000
     25487       205  PMPG      H16S            5.8292280459       10.0253826905       -0.1341574813  MEMB      205             0.0000000000
     25488       205  PMPG      H16T            4.4125834211        8.9983392158       -1.0190822139  MEMB      205             0.0000000000
     25489       205  PMPG      C33             3.0799308977        8.5585843485      -13.4919807742  MEMB      205             0.0000000000
     25490       205  PMPG      H3X             4.0370641854        8.8297410662      -13.0155006643  MEMB      205             0.0000000000
     25491       205  PMPG      H3Y             3.2855910203        8.5574122500      -14.5877689328  MEMB      205             0.0000000000
     25492       205  PMPG      C34             2.6154506047        7.1690012497      -13.0854182779  MEMB      205             0.0000000000
     25493       205  PMPG      H4X             3.3902388552        6.4345120152      -13.3622513951  MEMB      205             0.0000000000
     25494       205  PMPG      H4Y             1.7460760790        6.9171942559      -13.7299959993  MEMB      205             0.0000000000
     25495       205  PMPG      C35             2.1529843431        7.0475517756      -11.6136807343  MEMB      205             0.0000000000
     25496       205  PMPG      H5X             1.7704604366        6.0104908301      -11.4929227533  MEMB      205             0.0000000000
     25497       205  PMPG      H5Y             1.3013628223        7.7440404147      -11.4867113751  MEMB      205             0.0000000000
     25498       205  PMPG      C36             3.2580027313        7.4142047205      -10.6016037090  MEMB      205             0.0000000000
     25499       205  PMPG      H6X             3.5925176001        8.4573639517      -10.8156874217  MEMB      205             0.0000000000
     25500       205  PMPG      H6Y             4.0872738995        6.7056165081      -10.7883475342  MEMB      205             0.0000000000
     25501       205  PMPG      C37             2.9974655045        7.2803157646       -9.0855598259  MEMB      205             0.0000000000
     25502       205  PMPG      H7X             2.9673577083        6.2138202982       -8.7817204921  MEMB      205             0.0000000000
     25503       205  PMPG      H7Y             2.0206569766        7.7402838225       -8.8421741950  MEMB      205             0.0000000000
     25504       205  PMPG      C38             4.0896638455        7.9613590422       -8.2227715523  MEMB      205             0.0000000000
     25505       205  PMPG      H8X             4.3077734403        8.9417491348       -8.6841978578  MEMB      205             0.0000000000
     25506       205  PMPG      H8Y             5.0543152696        7.4152987872       -8.1901051952  MEMB      205             0.0000000000
     25507       205  PMPG      C39             3.7203917696        8.2168674033       -6.7581171205  MEMB      205             0.0000000000
     25508       205  PMPG      H9X             2.8524844354        8.9169969858       -6.7592888269  MEMB      205             0.0000000000
     25509       205  PMPG      H9Y             4.6258387688        8.6747744613       -6.2816717324  MEMB      205             0.0000000000
     25510       205  PMPG      C310            3.3916651741        6.9809852359       -5.9196923973  MEMB      205             0.0000000000
     25511       205  PMPG      H10X            4.2031312650        6.2308767214       -5.9576316630  MEMB      205             0.0000000000
     25512       205  PMPG      H10Y            2.4343522399        6.5047291142       -6.2334628915  MEMB      205             0.0000000000
     25513       205  PMPG      C311            3.1425150318        7.3248503785       -4.4818459070  MEMB      205             0.0000000000
     25514       205  PMPG      H11X            4.0305770809        7.7665894637       -3.9515546310  MEMB      205             0.0000000000
     25515       205  PMPG      H11Y            2.7895523859        6.3678529274       -4.0211729016  MEMB      205             0.0000000000
     25516       205  PMPG      C312            2.0157722692        8.3011017724       -4.4513335262  MEMB      205             0.0000000000
     25517       205  PMPG      H12X            1.0363315437        7.9539322557       -4.8214344968  MEMB      205             0.0000000000
     25518       205  PMPG      H12Y            2.2669291269        9.3268175050       -4.7690644237  MEMB      205             0.0000000000
     25519       205  PMPG      C313            1.7906920576        8.5365709406       -3.1161357138  MEMB      205             0.0000000000
     25520       205  PMPG      H13X            2.7667998578        8.6258541051       -2.5958412897  MEMB      205             0.0000000000
     25521       205  PMPG      H13Y            1.2959751876        7.6044810472       -2.7350508789  MEMB      205             0.0000000000
     25522       205  PMPG      C314            1.1050673694        9.9571656647       -2.8931516955  MEMB      205             0.0000000000
     25523       205  PMPG      H14X            0.1782055868        9.4248435773       -3.2906287760  MEMB      205             0.0000000000
     25524       205  PMPG      H14Y            1.0770580745       10.7015853122       -3.5574023677  MEMB      205             0.0000000000
     25525       205  PMPG      C315            1.0485959469       11.1639860444       -1.3090732068  MEMB      205             0.0000000000
     25526       205  PMPG      H15X            1.9654202493       10.8884720905       -1.1119561306  MEMB      205             0.0000000000
     25527       205  PMPG      H15Y            0.5664066240       10.7391625012       -0.0948082083  MEMB      205             0.0000000000
     25528       205  PMPG      C316           -0.1517364853       12.3741487056       -0.9211393426  MEMB      205             0.0000000000
     25529       205  PMPG      H16X           -0.1935291535       12.1949143892        0.1690622046  MEMB      205             0.0000000000
     25530       205  PMPG      H16Y           -1.2177752752       12.1969415922       -1.3551009799  MEMB      205             0.0000000000
     25531       205  PMPG      H16Z            0.3335333281       12.9055550725       -1.6722119446  MEMB      205             0.0000000000
     25532       206  PMPG      C13            -2.1732630717      -10.7516060824      -20.1356866163  MEMB      206             0.0000000000
     25533       206  PMPG      H13A           -2.0570531702      -10.9709970744      -21.1878596316  MEMB      206             0.0000000000
     25534       206  PMPG      H13B           -1.3038000465      -11.2061761665      -19.6335901390  MEMB      206             0.0000000000
     25535       206  PMPG      OC3            -3.3570250900      -11.3580228696      -19.6321373496  MEMB      206             0.0000000000
     25536       206  PMPG      HO3            -4.0352680097      -11.1952252670      -20.2990467979  MEMB      206             0.0000000000
     25537       206  PMPG      C12            -2.2315156754       -9.2164777522      -20.0253184684  MEMB      206             0.0000000000
     25538       206  PMPG      H12A           -3.2607718339       -8.8946880825      -20.3109299952  MEMB      206             0.0000000000
     25539       206  PMPG      OC2            -1.3080816696       -8.6181266067      -20.9337248781  MEMB      206             0.0000000000
     25540       206  PMPG      HO2            -1.3294185379       -7.6896733126      -20.6766357110  MEMB      206             0.0000000000
     25541       206  PMPG      C11            -1.9452250675       -8.7495712677      -18.5820494455  MEMB      206             0.0000000000
     25542       206  PMPG      H11A           -0.9621181029       -9.1356227558      -18.2636723058  MEMB      206             0.0000000000
     25543       206  PMPG      H11B           -2.7290997952       -9.2016441970      -17.9331602933  MEMB      206             0.0000000000
     25544       206  PMPG      P              -3.1294276386       -6.4771582443      -18.1590215718  MEMB      206             0.0000000000
     25545       206  PMPG      O13            -4.4250033873       -7.1224550440      -18.1228761980  MEMB      206             0.0000000000
     25546       206  PMPG      O14            -3.0081234053       -5.5741959948      -19.3468470569  MEMB      206             0.0000000000
     25547       206  PMPG      O11            -2.8846507481       -5.9184251191      -16.5646492973  MEMB      206             0.0000000000
     25548       206  PMPG      O12            -1.8664667048       -7.3568596393      -18.4387076069  MEMB      206             0.0000000000
     25549       206  PMPG      C1             -3.5912393313       -4.7361018152      -15.9509529964  MEMB      206             0.0000000000
     25550       206  PMPG      HA             -4.3038326934       -4.2850004501      -16.7807540633  MEMB      206             0.0000000000
     25551       206  PMPG      HB             -2.7887614826       -3.8051192151      -15.7608980558  MEMB      206             0.0000000000
     25552       206  PMPG      C2             -4.0609690594       -4.7331371682      -14.7138774705  MEMB      206             0.0000000000
     25553       206  PMPG      HS             -4.0129471857       -3.6266631320      -14.5381810314  MEMB      206             0.0000000000
     25554       206  PMPG      O21            -3.2767467882       -5.5751880863      -13.8982270781  MEMB      206             0.0000000000
     25555       206  PMPG      C21            -2.0749538470       -5.2764253691      -13.6189992283  MEMB      206             0.0000000000
     25556       206  PMPG      O22            -1.5087431736       -4.2487547170      -13.7117956961  MEMB      206             0.0000000000
     25557       206  PMPG      C22            -1.4394374275       -6.2245502923      -12.7026631660  MEMB      206             0.0000000000
     25558       206  PMPG      H2R            -1.8116662411       -7.2035846817      -12.7499907388  MEMB      206             0.0000000000
     25559       206  PMPG      H2S            -1.6107630100       -6.0285831466      -11.6870423858  MEMB      206             0.0000000000
     25560       206  PMPG      C3             -5.4368417079       -5.2966608186      -14.8787453487  MEMB      206             0.0000000000
     25561       206  PMPG      HX             -5.9946898729       -4.6873703127      -15.6291411022  MEMB      206             0.0000000000
     25562       206  PMPG      HY             -5.8413473948       -5.2489801785      -13.8611639722  MEMB      206             0.0000000000
     25563       206  PMPG      O31            -5.3796831629       -6.6582484582      -15.3187095176  MEMB      206             0.0000000000
     25564       206  PMPG      C31            -6.5629250919       -7.2078894365      -15.5358274321  MEMB      206             0.0000000000
     25565       206  PMPG      O32            -7.6282532733       -6.6131278420      -15.4479190126  MEMB      206             0.0000000000
     25566       206  PMPG      C32            -6.4145896877       -8.6638692272      -15.9535141089  MEMB      206             0.0000000000
     25567       206  PMPG      H2X            -6.2676159134       -8.6181542731      -17.0578792025  MEMB      206             0.0000000000
     25568       206  PMPG      H2Y            -7.3487673626       -9.1922576565      -15.7086151815  MEMB      206             0.0000000000
     25569       206  PMPG      C23            -0.0105948922       -6.0090887156      -12.5216013510  MEMB      206             0.0000000000
     25570       206  PMPG      H3R             0.4775163578       -5.4397397011      -11.7109602268  MEMB      206             0.0000000000
     25571       206  PMPG      H3S             0.2703631641       -5.4382551879      -13.3594281760  MEMB      206             0.0000000000
     25572       206  PMPG      C24             0.5104918707       -7.3083858935      -12.5647710587  MEMB      206             0.0000000000
     25573       206  PMPG      H4R             1.4558903024       -6.7254947072      -12.7009348878  MEMB      206             0.0000000000
     25574       206  PMPG      H4S             0.3391779467       -8.0393546356      -13.3945931693  MEMB      206             0.0000000000
     25575       206  PMPG      C25             0.6170700300       -8.1763505709      -11.3521241713  MEMB      206             0.0000000000
     25576       206  PMPG      H5R             0.9739726709       -9.2361824966      -11.4964739270  MEMB      206             0.0000000000
     25577       206  PMPG      H5S            -0.4244421276       -8.2255237047      -11.1467907363  MEMB      206             0.0000000000
     25578       206  PMPG      C26             1.3871610041       -7.5048080709      -10.2832533863  MEMB      206             0.0000000000
     25579       206  PMPG      H6R             0.9984981531       -6.5371463582      -10.0608195520  MEMB      206             0.0000000000
     25580       206  PMPG      H6S             2.4045532341       -7.2473680436      -10.6828597177  MEMB      206             0.0000000000
     25581       206  PMPG      C27             1.3494513836       -8.4577059237       -9.1063810323  MEMB      206             0.0000000000
     25582       206  PMPG      H7R             2.2093212571       -8.0831102108       -8.7948669819  MEMB      206             0.0000000000
     25583       206  PMPG      H7S             1.7049348001       -9.4607322304       -9.1446736951  MEMB      206             0.0000000000
     25584       206  PMPG      C28             0.2356887751       -8.4917215446       -8.1476119098  MEMB      206             0.0000000000
     25585       206  PMPG      H8R             0.3898888179       -9.1971797934       -7.3085005698  MEMB      206             0.0000000000
     25586       206  PMPG      H8S            -0.6498216356       -8.7031531681       -8.7459055699  MEMB      206             0.0000000000
     25587       206  PMPG      C29            -0.0931353813       -7.2239913271       -7.6746582466  MEMB      206             0.0000000000
     25588       206  PMPG      H9R            -0.2797831331       -6.4562069048       -8.4297885317  MEMB      206             0.0000000000
     25589       206  PMPG      C217           -1.0202644396       -7.2828794128       -6.5312705724  MEMB      206             0.0000000000
     25590       206  PMPG      H17R           -1.7633924711       -6.5630259329       -6.2483433194  MEMB      206             0.0000000000
     25591       206  PMPG      H17S           -1.2226505574       -8.0087110791       -5.8212348158  MEMB      206             0.0000000000
     25592       206  PMPG      C210            0.5188092269       -6.8065866831       -6.4484701635  MEMB      206             0.0000000000
     25593       206  PMPG      H10R            1.0335667616       -5.8632481217       -6.8129210695  MEMB      206             0.0000000000
     25594       206  PMPG      C211            1.2078148634       -7.7708187954       -5.5773371248  MEMB      206             0.0000000000
     25595       206  PMPG      H11R            0.7069921818       -8.6394713898       -5.4064540830  MEMB      206             0.0000000000
     25596       206  PMPG      H11S            1.8773228238       -8.2702103113       -6.1297350242  MEMB      206             0.0000000000
     25597       206  PMPG      C212            1.7293272225       -7.4545769727       -4.1395421201  MEMB      206             0.0000000000
     25598       206  PMPG      H12R            2.2137791481       -6.4659392021       -4.2430642437  MEMB      206             0.0000000000
     25599       206  PMPG      H12S            2.4744924915       -8.0817008283       -3.6774523552  MEMB      206             0.0000000000
     25600       206  PMPG      C213            0.7314592063       -7.5578594920       -3.3296580900  MEMB      206             0.0000000000
     25601       206  PMPG      H13R           -0.2716979417       -7.9231320776       -3.5361565357  MEMB      206             0.0000000000
     25602       206  PMPG      H13S            0.6344149984       -6.6678033870       -4.1517962235  MEMB      206             0.0000000000
     25603       206  PMPG      C214            0.8731264132       -7.1208878196       -1.7262462167  MEMB      206             0.0000000000
     25604       206  PMPG      H14R            1.8005184834       -6.5056355484       -1.7138801469  MEMB      206             0.0000000000
     25605       206  PMPG      H14S            1.0151705239       -8.0350229229       -1.3507288104  MEMB      206             0.0000000000
     25606       206  PMPG      C215           -0.4307754814       -6.6085230145       -0.7760790175  MEMB      206             0.0000000000
     25607       206  PMPG      H15R           -0.9279461095       -5.5611977013       -0.8067678256  MEMB      206             0.0000000000
     25608       206  PMPG      H15S           -0.0592674932       -6.5642357588        0.2715285882  MEMB      206             0.0000000000
     25609       206  PMPG      C216           -1.8759251839       -6.6330850107       -1.2295991539  MEMB      206             0.0000000000
     25610       206  PMPG      H16R           -2.1995483667       -6.9314457728       -2.1988657152  MEMB      206             0.0000000000
     25611       206  PMPG      H16S           -2.5178489911       -5.9997346394       -0.5334224174  MEMB      206             0.0000000000
     25612       206  PMPG      H16T           -1.9678263014       -7.6784811389       -1.1539818348  MEMB      206             0.0000000000
     25613       206  PMPG      C33            -5.2094525943       -9.4280490886      -15.3546569108  MEMB      206             0.0000000000
     25614       206  PMPG      H3X            -4.3801894334       -8.7037237817      -15.1934336025  MEMB      206             0.0000000000
     25615       206  PMPG      H3Y            -4.8861591397      -10.1656492330      -16.1228731746  MEMB      206             0.0000000000
     25616       206  PMPG      C34            -5.4163641460      -10.1867923077      -14.0320621513  MEMB      206             0.0000000000
     25617       206  PMPG      H4X            -4.4567973785      -10.6823471285      -13.7848644691  MEMB      206             0.0000000000
     25618       206  PMPG      H4Y            -6.1669628972      -11.0125992568      -14.0598038025  MEMB      206             0.0000000000
     25619       206  PMPG      C35            -5.5474298249       -9.2418058002      -12.8346197129  MEMB      206             0.0000000000
     25620       206  PMPG      H5X            -6.5030505730       -8.7599989783      -12.7858985411  MEMB      206             0.0000000000
     25621       206  PMPG      H5Y            -4.9357912370       -8.3409044997      -12.9496433804  MEMB      206             0.0000000000
     25622       206  PMPG      C36            -5.2808402497       -9.9143554621      -11.4901308829  MEMB      206             0.0000000000
     25623       206  PMPG      H6X            -4.3180539731      -10.4706178529      -11.5243989184  MEMB      206             0.0000000000
     25624       206  PMPG      H6Y            -6.0478826259      -10.7063614357      -11.3476685701  MEMB      206             0.0000000000
     25625       206  PMPG      C37            -5.2338165029       -8.8969136180      -10.3215685294  MEMB      206             0.0000000000
     25626       206  PMPG      H7X            -6.1632882107       -8.2877535262      -10.1868470371  MEMB      206             0.0000000000
     25627       206  PMPG      H7Y            -4.3425108702       -8.2425552608      -10.4512327777  MEMB      206             0.0000000000
     25628       206  PMPG      C38            -5.1080241247       -9.5980757030       -8.9691888694  MEMB      206             0.0000000000
     25629       206  PMPG      H8X            -4.2014442626      -10.2365102386       -8.9287755310  MEMB      206             0.0000000000
     25630       206  PMPG      H8Y            -6.0029511867      -10.2550883898       -8.9411199781  MEMB      206             0.0000000000
     25631       206  PMPG      C39            -5.1114415529       -8.7088973694       -7.7128925472  MEMB      206             0.0000000000
     25632       206  PMPG      H9X            -6.1216079127       -8.2880160375       -7.5083424472  MEMB      206             0.0000000000
     25633       206  PMPG      H9Y            -4.4195987816       -7.8378540156       -7.8154034069  MEMB      206             0.0000000000
     25634       206  PMPG      C310           -4.6741231569       -9.5024875541       -6.4675459698  MEMB      206             0.0000000000
     25635       206  PMPG      H10X           -3.6962551606       -9.9734036324       -6.6813811723  MEMB      206             0.0000000000
     25636       206  PMPG      H10Y           -5.3662372862      -10.3317217675       -6.1937226654  MEMB      206             0.0000000000
     25637       206  PMPG      C311           -4.6824218483       -8.5633529278       -5.2616668650  MEMB      206             0.0000000000
     25638       206  PMPG      H11X           -5.7557983440       -8.2878708285       -5.2445360240  MEMB      206             0.0000000000
     25639       206  PMPG      H11Y           -4.0800264806       -7.6518572575       -5.4704576867  MEMB      206             0.0000000000
     25640       206  PMPG      C312           -4.2847238612       -9.1810593424       -3.9210331631  MEMB      206             0.0000000000
     25641       206  PMPG      H12X           -4.8736505208      -10.0977927658       -3.7137690817  MEMB      206             0.0000000000
     25642       206  PMPG      H12Y           -4.4888368359       -8.5332380688       -3.0341576527  MEMB      206             0.0000000000
     25643       206  PMPG      C313           -2.8141618432       -9.5381174178       -3.9331285026  MEMB      206             0.0000000000
     25644       206  PMPG      H13X           -2.4255153125       -9.2902488710       -2.9701941637  MEMB      206             0.0000000000
     25645       206  PMPG      H13Y           -2.1333318559       -9.0021239492       -4.5509379849  MEMB      206             0.0000000000
     25646       206  PMPG      C314           -2.5663969851      -10.9456508197       -4.1862704676  MEMB      206             0.0000000000
     25647       206  PMPG      H14X           -3.3303333206      -11.4765491533       -4.8150450519  MEMB      206             0.0000000000
     25648       206  PMPG      H14Y           -2.8450856044      -11.2066642324       -3.1561173814  MEMB      206             0.0000000000
     25649       206  PMPG      C315           -1.1208499367      -11.4167079712       -4.4224502900  MEMB      206             0.0000000000
     25650       206  PMPG      H15X           -0.6216699878      -10.8793327999       -5.2403342426  MEMB      206             0.0000000000
     25651       206  PMPG      H15Y           -1.1034698674      -12.4899061819       -4.6155013763  MEMB      206             0.0000000000
     25652       206  PMPG      C316           -0.1982254987      -11.2273455229       -3.3072424695  MEMB      206             0.0000000000
     25653       206  PMPG      H16X            0.7996798433      -11.5246813875       -3.3859844504  MEMB      206             0.0000000000
     25654       206  PMPG      H16Y           -0.5162460028      -11.6929314940       -2.3260915599  MEMB      206             0.0000000000
     25655       206  PMPG      H16Z            0.0368139311      -10.1258765110       -3.3096701236  MEMB      206             0.0000000000
     25656       207  PMPE      N               2.6381131121       -6.2089519874      -21.0257861308  MEMB      207             0.0000000000
     25657       207  PMPE      HN1             3.2925739415       -5.4323564187      -21.2469404961  MEMB      207             0.0000000000
     25658       207  PMPE      HN2             1.8105623240       -6.2158450811      -21.6718403987  MEMB      207             0.0000000000
     25659       207  PMPE      HN3             2.3319271390       -6.1107907611      -20.0471371068  MEMB      207             0.0000000000
     25660       207  PMPE      C12             3.3401102295       -7.5369348204      -21.0941337694  MEMB      207             0.0000000000
     25661       207  PMPE      H12A            3.6027676143       -7.6450325445      -22.1601466599  MEMB      207             0.0000000000
     25662       207  PMPE      H12B            2.6701289245       -8.3459750932      -20.7128821503  MEMB      207             0.0000000000
     25663       207  PMPE      C11             4.6313913206       -7.5574537479      -20.2971051124  MEMB      207             0.0000000000
     25664       207  PMPE      H11A            5.2058260000       -6.6323894712      -20.4477140102  MEMB      207             0.0000000000
     25665       207  PMPE      H11B            5.2065008816       -8.4533791887      -20.6656765570  MEMB      207             0.0000000000
     25666       207  PMPE      P               5.4590406201       -7.9511195231      -17.9368108387  MEMB      207             0.0000000000
     25667       207  PMPE      O13             6.6908149106       -8.1336973746      -18.7307797292  MEMB      207             0.0000000000
     25668       207  PMPE      O14             4.7740338620       -9.0338490966      -17.2745687979  MEMB      207             0.0000000000
     25669       207  PMPE      O11             5.5668204672       -6.6724575624      -16.9884038833  MEMB      207             0.0000000000
     25670       207  PMPE      O12             4.3264408171       -7.5985256101      -18.9320832499  MEMB      207             0.0000000000
     25671       207  PMPE      C1              5.4969894016       -5.4053930898      -17.6414464368  MEMB      207             0.0000000000
     25672       207  PMPE      HA              4.7659059863       -5.4735826520      -18.4664715054  MEMB      207             0.0000000000
     25673       207  PMPE      HB              6.5053143256       -5.1247237268      -17.9972508165  MEMB      207             0.0000000000
     25674       207  PMPE      C2              5.0052337267       -4.2671344755      -16.7438733102  MEMB      207             0.0000000000
     25675       207  PMPE      HS              5.3001139375       -3.2637058997      -17.1440717176  MEMB      207             0.0000000000
     25676       207  PMPE      O21             5.5549850551       -4.4965280253      -15.4487244697  MEMB      207             0.0000000000
     25677       207  PMPE      C21             5.2044610491       -3.7689547582      -14.4136321676  MEMB      207             0.0000000000
     25678       207  PMPE      O22             4.6127357690       -2.7203866472      -14.4583199779  MEMB      207             0.0000000000
     25679       207  PMPE      C22             5.8598463186       -4.2623695921      -13.1569903669  MEMB      207             0.0000000000
     25680       207  PMPE      H2R             6.6758741827       -3.5391063436      -12.9466874716  MEMB      207             0.0000000000
     25681       207  PMPE      H2S             6.2980144370       -5.2629147697      -13.3237961436  MEMB      207             0.0000000000
     25682       207  PMPE      C3              3.4949184839       -4.2735057162      -16.7747309119  MEMB      207             0.0000000000
     25683       207  PMPE      HX              3.0977081959       -3.9936121002      -17.7816184106  MEMB      207             0.0000000000
     25684       207  PMPE      HY              3.3301686475       -3.4773827689      -16.0701042156  MEMB      207             0.0000000000
     25685       207  PMPE      O31             2.9217650953       -5.5194449731      -16.4268767470  MEMB      207             0.0000000000
     25686       207  PMPE      C31             2.1087459878       -5.8016077275      -15.4354823222  MEMB      207             0.0000000000
     25687       207  PMPE      O32             1.9298534362       -5.2506004491      -14.4058260389  MEMB      207             0.0000000000
     25688       207  PMPE      C32             1.5443839425       -7.1090806233      -15.4584948131  MEMB      207             0.0000000000
     25689       207  PMPE      H2X             1.1734763858       -7.3957340703      -16.4224634767  MEMB      207             0.0000000000
     25690       207  PMPE      H2Y             0.6018270137       -7.0954880120      -14.8963877007  MEMB      207             0.0000000000
     25691       207  PMPE      C23             4.8956111837       -4.3289327175      -11.9594660648  MEMB      207             0.0000000000
     25692       207  PMPE      H3R             4.0042380908       -4.9624112925      -12.2163953773  MEMB      207             0.0000000000
     25693       207  PMPE      H3S             4.5202407500       -3.3189647061      -11.6810931998  MEMB      207             0.0000000000
     25694       207  PMPE      C24             5.6472390561       -4.9397187182      -10.7730421680  MEMB      207             0.0000000000
     25695       207  PMPE      H4R             6.3508786177       -5.7432663081      -11.1141594134  MEMB      207             0.0000000000
     25696       207  PMPE      H4S             4.9250923254       -5.3111338931      -10.0239716672  MEMB      207             0.0000000000
     25697       207  PMPE      C25             6.4740823502       -3.9880624030       -9.9199101550  MEMB      207             0.0000000000
     25698       207  PMPE      H5R             5.8187106355       -3.2271720689       -9.4149228280  MEMB      207             0.0000000000
     25699       207  PMPE      H5S             7.2430276697       -3.5392194092      -10.5896013368  MEMB      207             0.0000000000
     25700       207  PMPE      C26             7.1950365514       -4.7658533149       -8.7998129740  MEMB      207             0.0000000000
     25701       207  PMPE      H6R             7.7967084228       -5.5959646784       -9.1770657268  MEMB      207             0.0000000000
     25702       207  PMPE      H6S             6.4403036175       -5.1188164595       -8.0526517946  MEMB      207             0.0000000000
     25703       207  PMPE      C27             8.2056606363       -3.9155497584       -8.0739234986  MEMB      207             0.0000000000
     25704       207  PMPE      H7R             7.4334795841       -3.2652479848       -7.9074265274  MEMB      207             0.0000000000
     25705       207  PMPE      H7S             8.9135659783       -3.3090231346       -8.6384526668  MEMB      207             0.0000000000
     25706       207  PMPE      C28             8.7427758438       -4.3615851694       -6.7317051814  MEMB      207             0.0000000000
     25707       207  PMPE      H8R             7.8705402182       -4.8338291385       -6.2374212159  MEMB      207             0.0000000000
     25708       207  PMPE      H8S             9.0739858921       -3.4899708434       -6.1103725853  MEMB      207             0.0000000000
     25709       207  PMPE      C29             9.9277298624       -5.2624307488       -7.0407554308  MEMB      207             0.0000000000
     25710       207  PMPE      H9R            10.6845120141       -4.8905037098       -7.7528020728  MEMB      207             0.0000000000
     25711       207  PMPE      C217            9.5236813950       -6.6646422775       -7.3925180366  MEMB      207             0.0000000000
     25712       207  PMPE      H17R           10.0752398956       -7.2673209324       -8.0515152853  MEMB      207             0.0000000000
     25713       207  PMPE      H17S            8.5429244667       -6.9217379055       -7.1372924486  MEMB      207             0.0000000000
     25714       207  PMPE      C210           10.2566998340       -6.4118925336       -6.1239691518  MEMB      207             0.0000000000
     25715       207  PMPE      H10R           11.3159994563       -6.6745729263       -6.0712067135  MEMB      207             0.0000000000
     25716       207  PMPE      C211            9.4242724247       -6.5872682211       -4.8757623089  MEMB      207             0.0000000000
     25717       207  PMPE      H11R            8.3303020463       -6.6527216832       -5.0937136318  MEMB      207             0.0000000000
     25718       207  PMPE      H11S            9.6624753576       -5.6894963945       -4.2704850619  MEMB      207             0.0000000000
     25719       207  PMPE      C212            9.9883178743       -7.7746523509       -4.1000805709  MEMB      207             0.0000000000
     25720       207  PMPE      H12R           11.0810990033       -7.5266177696       -3.9635835817  MEMB      207             0.0000000000
     25721       207  PMPE      H12S            9.9255775023       -8.7062252568       -4.6915187995  MEMB      207             0.0000000000
     25722       207  PMPE      C213            9.2479290797       -8.1348519074       -2.7984780234  MEMB      207             0.0000000000
     25723       207  PMPE      H13R            9.9134758876       -8.9394862645       -2.3424775065  MEMB      207             0.0000000000
     25724       207  PMPE      H13S            8.3147532429       -8.6391364425       -2.9047676042  MEMB      207             0.0000000000
     25725       207  PMPE      C214            8.9529344051       -6.9361062128       -1.8440892217  MEMB      207             0.0000000000
     25726       207  PMPE      H14R            8.4695061873       -6.0434550581       -2.0981847810  MEMB      207             0.0000000000
     25727       207  PMPE      H14S            9.7816440781       -6.1951063057       -1.9438666826  MEMB      207             0.0000000000
     25728       207  PMPE      C215            8.6075081318       -7.5115496913       -0.4938433889  MEMB      207             0.0000000000
     25729       207  PMPE      H15R            8.9318147556       -6.6227895987        0.2096475258  MEMB      207             0.0000000000
     25730       207  PMPE      H15S            9.2091519844       -8.0988016956        0.2887087626  MEMB      207             0.0000000000
     25731       207  PMPE      C216            7.0284295067       -8.2510953158       -0.5715776923  MEMB      207             0.0000000000
     25732       207  PMPE      H16R            6.6059039020       -7.3157790804       -1.0747986273  MEMB      207             0.0000000000
     25733       207  PMPE      H16S            7.1861255063       -9.1304353817       -0.9823037911  MEMB      207             0.0000000000
     25734       207  PMPE      H16T            6.4072102309       -8.5749399433        0.5792020365  MEMB      207             0.0000000000
     25735       207  PMPE      C33             2.6758285801       -7.9778790776      -14.8786283798  MEMB      207             0.0000000000
     25736       207  PMPE      H3X             3.7109561287       -7.7260349390      -15.1860265788  MEMB      207             0.0000000000
     25737       207  PMPE      H3Y             2.3433992483       -8.9856350142      -15.1499545235  MEMB      207             0.0000000000
     25738       207  PMPE      C34             3.0080581663       -7.9430290187      -13.4174851713  MEMB      207             0.0000000000
     25739       207  PMPE      H4X             2.1813847718       -8.4550209277      -12.9388683317  MEMB      207             0.0000000000
     25740       207  PMPE      H4Y             3.2506108977       -6.9206289277      -13.0466457405  MEMB      207             0.0000000000
     25741       207  PMPE      C35             3.7710907517       -8.9609825526      -12.7561076822  MEMB      207             0.0000000000
     25742       207  PMPE      H5X             4.7437022307       -8.7329886429      -13.1222432688  MEMB      207             0.0000000000
     25743       207  PMPE      H5Y             3.2377853396       -9.8068906973      -13.1631469440  MEMB      207             0.0000000000
     25744       207  PMPE      C36             3.7372054150       -8.9167294619      -11.2707238193  MEMB      207             0.0000000000
     25745       207  PMPE      H6X             2.7411920066       -9.1291503254      -10.8912083898  MEMB      207             0.0000000000
     25746       207  PMPE      H6Y             4.1592357693       -7.9839996351      -10.8924496933  MEMB      207             0.0000000000
     25747       207  PMPE      C37             4.3242735047       -9.9940551230      -10.5710352223  MEMB      207             0.0000000000
     25748       207  PMPE      H7X             5.2996903786      -10.2519946413      -10.7919631477  MEMB      207             0.0000000000
     25749       207  PMPE      H7Y             3.9428152022      -10.7870297285      -11.1654152800  MEMB      207             0.0000000000
     25750       207  PMPE      C38             4.0338389987       -9.9550657171       -9.0895259530  MEMB      207             0.0000000000
     25751       207  PMPE      H8X             4.5631667003      -10.9007623039       -8.9229985158  MEMB      207             0.0000000000
     25752       207  PMPE      H8Y             3.1744765098      -10.0633375694       -8.4756617064  MEMB      207             0.0000000000
     25753       207  PMPE      C39             4.6377036992       -8.9326143862       -8.3380472485  MEMB      207             0.0000000000
     25754       207  PMPE      H9X             5.3638568507       -8.8551423218       -9.1766524426  MEMB      207             0.0000000000
     25755       207  PMPE      H9Y             4.7764309925       -9.6070332541       -7.5134576551  MEMB      207             0.0000000000
     25756       207  PMPE      C310            4.5769174706       -7.4812559755       -8.1196191170  MEMB      207             0.0000000000
     25757       207  PMPE      H10X            4.6591026712       -7.1238624723       -9.1418193291  MEMB      207             0.0000000000
     25758       207  PMPE      H10Y            5.4410339141       -7.0762728541       -7.4996489666  MEMB      207             0.0000000000
     25759       207  PMPE      C311            3.6138050440       -7.0709805525       -7.2201532454  MEMB      207             0.0000000000
     25760       207  PMPE      H11X            2.8647707161       -7.7282079649       -7.3599740173  MEMB      207             0.0000000000
     25761       207  PMPE      H11Y            3.1149761215       -6.1483052058       -7.4731588938  MEMB      207             0.0000000000
     25762       207  PMPE      C312            4.0218446961       -7.5400086884       -5.8625425142  MEMB      207             0.0000000000
     25763       207  PMPE      H12X            3.8246393454       -8.6116321965       -5.5967512430  MEMB      207             0.0000000000
     25764       207  PMPE      H12Y            3.2665377114       -7.1664269478       -5.4233091841  MEMB      207             0.0000000000
     25765       207  PMPE      C313            4.6121357342       -6.5492166660       -4.8977037812  MEMB      207             0.0000000000
     25766       207  PMPE      H13X            5.4097394561       -6.2239590960       -5.5338044929  MEMB      207             0.0000000000
     25767       207  PMPE      H13Y            4.8881003589       -7.2534269703       -4.1108053233  MEMB      207             0.0000000000
     25768       207  PMPE      C314            3.9191641190       -5.3177824411       -4.2119159375  MEMB      207             0.0000000000
     25769       207  PMPE      H14X            3.3959239819       -5.6587561619       -3.2491308271  MEMB      207             0.0000000000
     25770       207  PMPE      H14Y            3.1276007430       -4.8806178114       -4.8854718328  MEMB      207             0.0000000000
     25771       207  PMPE      C315            4.8439833706       -4.2655878725       -3.7800072667  MEMB      207             0.0000000000
     25772       207  PMPE      H15X            4.2871848451       -3.3510351215       -3.4707893567  MEMB      207             0.0000000000
     25773       207  PMPE      H15Y            5.4681898738       -4.0397235234       -4.6553312122  MEMB      207             0.0000000000
     25774       207  PMPE      C316            5.8156937840       -4.7406079695       -2.7307560339  MEMB      207             0.0000000000
     25775       207  PMPE      H16X            5.2793038381       -4.9238808583       -1.7800120899  MEMB      207             0.0000000000
     25776       207  PMPE      H16Y            6.6113974715       -3.9786711039       -2.5985755230  MEMB      207             0.0000000000
     25777       207  PMPE      H16Z            6.3004192877       -5.6804994566       -3.0743314556  MEMB      207             0.0000000000
     25778       208  PYPG      C13            11.8250728163        7.3777618473      -21.3599708431  MEMB      208             0.0000000000
     25779       208  PYPG      H13A           11.4469122447        7.0698549173      -22.3608077491  MEMB      208             0.0000000000
     25780       208  PYPG      H13B           11.1973947503        8.1896172221      -20.8938812915  MEMB      208             0.0000000000
     25781       208  PYPG      OC3            13.1534745556        7.8028348110      -21.7019309951  MEMB      208             0.0000000000
     25782       208  PYPG      HO3            13.5378109088        8.3698451228      -21.0130047538  MEMB      208             0.0000000000
     25783       208  PYPG      C12            11.8349285558        6.1267807130      -20.4227384031  MEMB      208             0.0000000000
     25784       208  PYPG      H12A           12.5864884308        5.4156235874      -20.8338825641  MEMB      208             0.0000000000
     25785       208  PYPG      OC2            10.5950982835        5.4233266052      -20.4584400042  MEMB      208             0.0000000000
     25786       208  PYPG      HO2            10.6131381209        4.7661365211      -19.7474506653  MEMB      208             0.0000000000
     25787       208  PYPG      C11            12.2357093289        6.4882385136      -18.9574110794  MEMB      208             0.0000000000
     25788       208  PYPG      H11A           13.2147228044        7.0029064796      -19.0271525674  MEMB      208             0.0000000000
     25789       208  PYPG      H11B           12.4254354566        5.5779193760      -18.3482563728  MEMB      208             0.0000000000
     25790       208  PYPG      P              11.6716765536        8.6033571556      -17.4548512563  MEMB      208             0.0000000000
     25791       208  PYPG      O13            11.8744661751        9.7413370734      -18.3668096719  MEMB      208             0.0000000000
     25792       208  PYPG      O14            12.7901280673        8.2389222912      -16.5487577573  MEMB      208             0.0000000000
     25793       208  PYPG      O11            10.4136178883        8.8393576573      -16.5899389690  MEMB      208             0.0000000000
     25794       208  PYPG      O12            11.2648076302        7.3166246695      -18.3099871415  MEMB      208             0.0000000000
     25795       208  PYPG      C1              9.7373247695        7.7674621834      -15.9914661488  MEMB      208             0.0000000000
     25796       208  PYPG      HA             10.4373499250        7.0772585901      -15.5020393994  MEMB      208             0.0000000000
     25797       208  PYPG      HB              9.0831865694        7.2803867054      -16.7534686753  MEMB      208             0.0000000000
     25798       208  PYPG      C2              8.7854890769        8.2444861325      -14.9264480212  MEMB      208             0.0000000000
     25799       208  PYPG      HS              7.9123044384        8.4977068563      -15.5709815886  MEMB      208             0.0000000000
     25800       208  PYPG      O21             9.3100759816        9.3191230546      -14.1099585149  MEMB      208             0.0000000000
     25801       208  PYPG      C21             9.5288440650       10.4383755921      -14.7574568425  MEMB      208             0.0000000000
     25802       208  PYPG      O22             9.2629153262       10.7942144391      -15.8752371785  MEMB      208             0.0000000000
     25803       208  PYPG      C22            10.2575205719       11.2490666242      -14.0233039251  MEMB      208             0.0000000000
     25804       208  PYPG      H2R             9.9638381299       11.4746238251      -13.0530714630  MEMB      208             0.0000000000
     25805       208  PYPG      H2S            10.4916321590       12.0765646407      -14.7257005123  MEMB      208             0.0000000000
     25806       208  PYPG      C3              8.2792236159        7.2015671350      -13.9531959611  MEMB      208             0.0000000000
     25807       208  PYPG      HX              7.8947137914        6.3262436653      -14.5103855891  MEMB      208             0.0000000000
     25808       208  PYPG      HY              7.4280593271        7.6414198088      -13.3806190393  MEMB      208             0.0000000000
     25809       208  PYPG      O31             9.3714800667        6.8612663855      -13.0921613385  MEMB      208             0.0000000000
     25810       208  PYPG      C31             9.0161439077        6.0651037299      -12.1199231967  MEMB      208             0.0000000000
     25811       208  PYPG      O32             7.8865269828        5.6459840432      -11.9211457652  MEMB      208             0.0000000000
     25812       208  PYPG      C32            10.2887339589        5.6029591204      -11.3927943489  MEMB      208             0.0000000000
     25813       208  PYPG      H2X            11.0323446342        6.3809892553      -11.2631067262  MEMB      208             0.0000000000
     25814       208  PYPG      H2Y            10.0201002882        5.2564844616      -10.3871066345  MEMB      208             0.0000000000
     25815       208  PYPG      C23            11.4889514811       10.7557807052      -14.0449392610  MEMB      208             0.0000000000
     25816       208  PYPG      H3R            11.8842708721       11.1184820748      -15.0527246046  MEMB      208             0.0000000000
     25817       208  PYPG      H3S            11.4794236443        9.6970912299      -13.9393345630  MEMB      208             0.0000000000
     25818       208  PYPG      C24            12.0753250225       11.1763626122      -12.7774146253  MEMB      208             0.0000000000
     25819       208  PYPG      H4R            11.9546604532       12.3748817903      -12.5216617440  MEMB      208             0.0000000000
     25820       208  PYPG      H4S            13.0790661851       10.6634770661      -13.0875651089  MEMB      208             0.0000000000
     25821       208  PYPG      C25            12.0460761008       10.6610318904      -11.4056707214  MEMB      208             0.0000000000
     25822       208  PYPG      H5R            11.4452446634       11.5859929463      -11.0934849966  MEMB      208             0.0000000000
     25823       208  PYPG      H5S            13.1731714140       10.3092925535      -10.8957813378  MEMB      208             0.0000000000
     25824       208  PYPG      C26            11.4716280334        9.5110161673      -11.4046485390  MEMB      208             0.0000000000
     25825       208  PYPG      H6R            12.2339166710        9.0296380802      -12.0476464228  MEMB      208             0.0000000000
     25826       208  PYPG      H6S            10.4805421373        9.7282141201      -11.8066680707  MEMB      208             0.0000000000
     25827       208  PYPG      C27            11.5718835151        9.1263602887       -9.9953329875  MEMB      208             0.0000000000
     25828       208  PYPG      H7R            12.2757197304        9.8214331919       -9.4353964837  MEMB      208             0.0000000000
     25829       208  PYPG      H7S            12.1147732033        8.2084259099       -9.9881184625  MEMB      208             0.0000000000
     25830       208  PYPG      C28            10.2881492844        8.7579255363       -9.3376307578  MEMB      208             0.0000000000
     25831       208  PYPG      H8R            10.3138586900        8.5731152962       -8.3197275409  MEMB      208             0.0000000000
     25832       208  PYPG      H8S             9.4209985723        8.3659525164       -9.8738526144  MEMB      208             0.0000000000
     25833       208  PYPG      C29            10.1797205395       10.0510369276       -9.2986376487  MEMB      208             0.0000000000
     25834       208  PYPG      H9R             9.2708000839       10.1381040935      -10.0065403168  MEMB      208             0.0000000000
     25835       208  PYPG      C210           10.7993960069       11.2165894165       -8.5281509829  MEMB      208             0.0000000000
     25836       208  PYPG      H10R           10.4928867357       12.5033774006       -8.4861440259  MEMB      208             0.0000000000
     25837       208  PYPG      C211           11.4203899683       11.8335627630       -7.7842684377  MEMB      208             0.0000000000
     25838       208  PYPG      H11R           10.8455142543       11.7525980816       -7.1491608200  MEMB      208             0.0000000000
     25839       208  PYPG      H11S           10.6387421178       11.0455977840       -7.5692933408  MEMB      208             0.0000000000
     25840       208  PYPG      C212           10.4724730478       11.9352042609       -5.5754344188  MEMB      208             0.0000000000
     25841       208  PYPG      H12R           10.4477844104       12.8178789525       -5.4386663120  MEMB      208             0.0000000000
     25842       208  PYPG      H12S           11.0301832681       11.9724333810       -4.9092819913  MEMB      208             0.0000000000
     25843       208  PYPG      C213            9.5586981320       10.8734697007       -4.5112490295  MEMB      208             0.0000000000
     25844       208  PYPG      H13R            8.5646145035       11.3092604001       -4.6352234042  MEMB      208             0.0000000000
     25845       208  PYPG      H13S            9.3397883109       11.5065326353       -3.9389834995  MEMB      208             0.0000000000
     25846       208  PYPG      C214            9.3608297995        9.3536824842       -4.4667087641  MEMB      208             0.0000000000
     25847       208  PYPG      H14R            9.3262796336        8.8255237794       -5.4336885151  MEMB      208             0.0000000000
     25848       208  PYPG      H14S           10.3178163636        9.1490492130       -4.0793030847  MEMB      208             0.0000000000
     25849       208  PYPG      C215            8.2346809263        8.7075572076       -3.8142164599  MEMB      208             0.0000000000
     25850       208  PYPG      H15R            8.3992521967        7.6269893684       -3.8300577218  MEMB      208             0.0000000000
     25851       208  PYPG      H15S            7.3152993548        8.8902290039       -4.4144828190  MEMB      208             0.0000000000
     25852       208  PYPG      C216            8.0210246518        9.1369221422       -2.4409055620  MEMB      208             0.0000000000
     25853       208  PYPG      H16R            7.0224115996        8.6185035337       -2.1914087997  MEMB      208             0.0000000000
     25854       208  PYPG      H16S            7.9248342061       10.2701339250       -2.4989227896  MEMB      208             0.0000000000
     25855       208  PYPG      H16T            8.6777780177        9.0573142508       -1.6275355315  MEMB      208             0.0000000000
     25856       208  PYPG      C33            11.0273249617        4.6437419784      -12.3027807867  MEMB      208             0.0000000000
     25857       208  PYPG      H3X            11.0916166291        4.9286191775      -13.3597053855  MEMB      208             0.0000000000
     25858       208  PYPG      H3Y            10.2142532681        4.1604664791      -12.5573510287  MEMB      208             0.0000000000
     25859       208  PYPG      C34            12.1219028879        3.7569060009      -11.7549947949  MEMB      208             0.0000000000
     25860       208  PYPG      H4X            11.8633813348        2.6727086558      -11.6945196678  MEMB      208             0.0000000000
     25861       208  PYPG      H4Y            12.3393318696        4.0955889313      -10.7289039145  MEMB      208             0.0000000000
     25862       208  PYPG      C35            13.3929043980        3.9322938543      -12.5739741856  MEMB      208             0.0000000000
     25863       208  PYPG      H5X            13.1977774915        3.6089641168      -13.6115031018  MEMB      208             0.0000000000
     25864       208  PYPG      H5Y            14.1931412980        3.3554088504      -12.0514112264  MEMB      208             0.0000000000
     25865       208  PYPG      C36            13.8127373980        5.3470616242      -12.7688294458  MEMB      208             0.0000000000
     25866       208  PYPG      H6X            12.9801849920        5.9776147381      -13.1677395629  MEMB      208             0.0000000000
     25867       208  PYPG      H6Y            14.7363261031        5.3999942245      -13.4342874184  MEMB      208             0.0000000000
     25868       208  PYPG      C37            14.1835150490        5.8441228108      -11.3951307783  MEMB      208             0.0000000000
     25869       208  PYPG      H7X            13.3807166612        6.0660804840      -10.7234832509  MEMB      208             0.0000000000
     25870       208  PYPG      H7Y            15.0771378893        5.3180051357      -10.9823375685  MEMB      208             0.0000000000
     25871       208  PYPG      C38            14.4695772439        7.1717932795      -11.4848888702  MEMB      208             0.0000000000
     25872       208  PYPG      H8X            13.8570848343        7.8661829903      -12.0440309193  MEMB      208             0.0000000000
     25873       208  PYPG      H8Y            15.1888548134        6.6576349689      -12.1995713539  MEMB      208             0.0000000000
     25874       208  PYPG      C39            15.1050976656        7.9075275468      -10.3758764427  MEMB      208             0.0000000000
     25875       208  PYPG      H9X            15.4167651165        8.9371187474      -10.8964225280  MEMB      208             0.0000000000
     25876       208  PYPG      H9Y            15.9051892653        7.1832882456      -10.1284613480  MEMB      208             0.0000000000
     25877       208  PYPG      C310           14.5923749488        7.9184751128       -8.9937168501  MEMB      208             0.0000000000
     25878       208  PYPG      H10X           14.0283942933        7.0312924469       -9.1877182726  MEMB      208             0.0000000000
     25879       208  PYPG      H10Y           14.0891391650        8.8453191324       -9.1307060077  MEMB      208             0.0000000000
     25880       208  PYPG      C311           15.2070687152        7.5664111567       -7.5691389752  MEMB      208             0.0000000000
     25881       208  PYPG      H11X           16.2007017471        8.0694272297       -7.3251069763  MEMB      208             0.0000000000
     25882       208  PYPG      H11Y           15.4112410013        6.5010029298       -7.4237661156  MEMB      208             0.0000000000
     25883       208  PYPG      C312           14.7840186311        8.2445136781       -6.5012693916  MEMB      208             0.0000000000
     25884       208  PYPG      H12X           13.7732987166        7.9978070430       -6.5369991809  MEMB      208             0.0000000000
     25885       208  PYPG      H12Y           15.3807626120        8.1267710941       -5.5596839644  MEMB      208             0.0000000000
     25886       208  PYPG      C313           14.7064373923        9.5301602026       -6.9960456843  MEMB      208             0.0000000000
     25887       208  PYPG      H13X           15.6784069718        9.6776191401       -7.0454177801  MEMB      208             0.0000000000
     25888       208  PYPG      H13Y           14.7419080815        9.9994259250       -7.9915462223  MEMB      208             0.0000000000
     25889       208  PYPG      C314           14.3581660115       10.2926075568       -5.8105880817  MEMB      208             0.0000000000
     25890       208  PYPG      H14X           14.0944239277       11.1724982781       -6.4495097512  MEMB      208             0.0000000000
     25891       208  PYPG      H14Y           13.6821005124       10.8836464491       -5.8864993285  MEMB      208             0.0000000000
     25892       208  PYPG      C315           15.1612208828       10.3576015211       -4.1951948618  MEMB      208             0.0000000000
     25893       208  PYPG      H15X           15.2617297992        9.3995335228       -3.9320093727  MEMB      208             0.0000000000
     25894       208  PYPG      H15Y           16.2107842845       10.4206543069       -3.9563005072  MEMB      208             0.0000000000
     25895       208  PYPG      C316           15.1459586828       11.3315879234       -3.4573580895  MEMB      208             0.0000000000
     25896       208  PYPG      H16X           15.2769135375       11.4916475890       -2.1800456002  MEMB      208             0.0000000000
     25897       208  PYPG      H16Y           13.8707907982       11.8429422639       -3.7853212951  MEMB      208             0.0000000000
     25898       208  PYPG      H16Z           15.7757721741       11.8640837678       -2.8655144902  MEMB      208             0.0000000000
     25899       209  PMPE      N             -12.7349645264        3.0033131190      -18.4823493312  MEMB      209             0.0000000000
     25900       209  PMPE      HN1           -12.8900112939        2.0645937939      -18.0458765237  MEMB      209             0.0000000000
     25901       209  PMPE      HN2           -11.8300830988        2.9279663961      -18.9697646111  MEMB      209             0.0000000000
     25902       209  PMPE      HN3           -12.6311962131        3.7469521371      -17.7591044377  MEMB      209             0.0000000000
     25903       209  PMPE      C12           -13.7314525908        3.5506626421      -19.4811157730  MEMB      209             0.0000000000
     25904       209  PMPE      H12A          -14.7519474814        3.4447735209      -19.0693465798  MEMB      209             0.0000000000
     25905       209  PMPE      H12B          -13.6875781880        2.9415625450      -20.4029764822  MEMB      209             0.0000000000
     25906       209  PMPE      C11           -13.4123850659        5.0261957513      -19.8128819557  MEMB      209             0.0000000000
     25907       209  PMPE      H11A          -14.1871328043        5.3857167650      -20.5379959582  MEMB      209             0.0000000000
     25908       209  PMPE      H11B          -12.4106793738        5.0944701758      -20.2905832466  MEMB      209             0.0000000000
     25909       209  PMPE      P             -13.1447701078        7.4021174039      -18.9095911302  MEMB      209             0.0000000000
     25910       209  PMPE      O13           -13.8472840008        7.7815377407      -20.1415353499  MEMB      209             0.0000000000
     25911       209  PMPE      O14           -11.6749048075        7.6337527424      -18.8912218167  MEMB      209             0.0000000000
     25912       209  PMPE      O11           -13.8406359992        7.9892394160      -17.6235590067  MEMB      209             0.0000000000
     25913       209  PMPE      O12           -13.3927312399        5.8420760211      -18.6511471046  MEMB      209             0.0000000000
     25914       209  PMPE      C1            -14.6644348634        7.2360032938      -16.7318301455  MEMB      209             0.0000000000
     25915       209  PMPE      HA            -15.2079889015        6.3482850694      -17.1546906133  MEMB      209             0.0000000000
     25916       209  PMPE      HB            -15.4227443836        7.9227912169      -16.3658219894  MEMB      209             0.0000000000
     25917       209  PMPE      C2            -13.9522148326        6.8047706602      -15.4357903420  MEMB      209             0.0000000000
     25918       209  PMPE      HS            -14.7473157390        6.7418048524      -14.6535745388  MEMB      209             0.0000000000
     25919       209  PMPE      O21           -12.9377086552        7.7201787745      -15.0058365118  MEMB      209             0.0000000000
     25920       209  PMPE      C21           -13.3260684682        8.8200455061      -14.4637921043  MEMB      209             0.0000000000
     25921       209  PMPE      O22           -14.4320161242        9.1809498382      -14.2325508948  MEMB      209             0.0000000000
     25922       209  PMPE      C22           -12.2296422797        9.6511815853      -13.9659610503  MEMB      209             0.0000000000
     25923       209  PMPE      H2R           -12.6354645365       10.4943358026      -13.3758890967  MEMB      209             0.0000000000
     25924       209  PMPE      H2S           -11.7487137734       10.0445165320      -14.8647490807  MEMB      209             0.0000000000
     25925       209  PMPE      C3            -13.2425185778        5.4477176454      -15.6759121191  MEMB      209             0.0000000000
     25926       209  PMPE      HX            -12.5326982613        5.5880792108      -16.5136278689  MEMB      209             0.0000000000
     25927       209  PMPE      HY            -13.8813187324        4.6026706679      -16.0191959951  MEMB      209             0.0000000000
     25928       209  PMPE      O31           -12.4147976183        5.0990639634      -14.5704985323  MEMB      209             0.0000000000
     25929       209  PMPE      C31           -13.0379024787        4.5771731058      -13.5501081554  MEMB      209             0.0000000000
     25930       209  PMPE      O32           -14.2280278034        4.3295637867      -13.4614515156  MEMB      209             0.0000000000
     25931       209  PMPE      C32           -12.0201093625        4.2411478254      -12.4824948104  MEMB      209             0.0000000000
     25932       209  PMPE      H2X           -11.5551475801        5.1604546036      -12.0699299338  MEMB      209             0.0000000000
     25933       209  PMPE      H2Y           -11.2736119666        3.6079323246      -12.9768723858  MEMB      209             0.0000000000
     25934       209  PMPE      C23           -11.3107577959        8.8449460681      -13.0737488126  MEMB      209             0.0000000000
     25935       209  PMPE      H3R           -10.5304582152        9.5321408323      -12.6886741898  MEMB      209             0.0000000000
     25936       209  PMPE      H3S           -10.8315646007        8.0892529830      -13.7389745127  MEMB      209             0.0000000000
     25937       209  PMPE      C24           -12.0276809118        8.1831791298      -11.8804636535  MEMB      209             0.0000000000
     25938       209  PMPE      H4R           -11.4094857408        7.7063247292      -11.1694165974  MEMB      209             0.0000000000
     25939       209  PMPE      H4S           -12.5914334982        7.3320935387      -12.2580914715  MEMB      209             0.0000000000
     25940       209  PMPE      C25           -12.9506320394        9.0187404093      -10.9848421575  MEMB      209             0.0000000000
     25941       209  PMPE      H5R           -13.9350315564        9.0539305971      -11.4823701947  MEMB      209             0.0000000000
     25942       209  PMPE      H5S           -12.5378061673       10.0403825442      -10.9834883367  MEMB      209             0.0000000000
     25943       209  PMPE      C26           -13.2255426399        8.4444687324       -9.5738330504  MEMB      209             0.0000000000
     25944       209  PMPE      H6R           -13.7060033893        9.1797511332       -8.8768971052  MEMB      209             0.0000000000
     25945       209  PMPE      H6S           -12.2922962187        8.0997158391       -9.0807935579  MEMB      209             0.0000000000
     25946       209  PMPE      C27           -14.2759263116        7.3322592836       -9.5986179801  MEMB      209             0.0000000000
     25947       209  PMPE      H7R           -13.9679918433        6.4601980912      -10.2040999610  MEMB      209             0.0000000000
     25948       209  PMPE      H7S           -15.1705472626        7.7431388984      -10.1151732867  MEMB      209             0.0000000000
     25949       209  PMPE      C28           -14.6078823799        6.9651562327       -8.1462807127  MEMB      209             0.0000000000
     25950       209  PMPE      H8R           -14.6199632484        7.9051332675       -7.5619477500  MEMB      209             0.0000000000
     25951       209  PMPE      H8S           -13.8902894897        6.2690115487       -7.6972483226  MEMB      209             0.0000000000
     25952       209  PMPE      C29           -15.8571385519        6.2196668677       -7.9531144760  MEMB      209             0.0000000000
     25953       209  PMPE      H9R           -16.1513849667        5.5001479185       -8.7582290876  MEMB      209             0.0000000000
     25954       209  PMPE      C217          -16.8730702064        6.9900853774       -7.0916116136  MEMB      209             0.0000000000
     25955       209  PMPE      H17R          -17.5442667256        7.0465100362       -7.7539122368  MEMB      209             0.0000000000
     25956       209  PMPE      H17S          -16.7027608962        7.9491226601       -6.7373959402  MEMB      209             0.0000000000
     25957       209  PMPE      C210          -16.2731313027        5.7378387122       -6.6495013338  MEMB      209             0.0000000000
     25958       209  PMPE      H10R          -17.0922334572        5.0012995374       -6.6000388812  MEMB      209             0.0000000000
     25959       209  PMPE      C211          -15.3980864486        6.1461997787       -5.5239082228  MEMB      209             0.0000000000
     25960       209  PMPE      H11R          -15.4463771149        7.2289908392       -5.3459418512  MEMB      209             0.0000000000
     25961       209  PMPE      H11S          -14.3347780414        5.8879309905       -5.5793362771  MEMB      209             0.0000000000
     25962       209  PMPE      C212          -15.9191038040        5.4627702337       -4.4156828083  MEMB      209             0.0000000000
     25963       209  PMPE      H12R          -15.6663767888        4.3807592721       -4.5727893774  MEMB      209             0.0000000000
     25964       209  PMPE      H12S          -17.0364058229        5.4929175194       -4.5384579873  MEMB      209             0.0000000000
     25965       209  PMPE      C213          -15.5713366533        6.1067363095       -3.0789919822  MEMB      209             0.0000000000
     25966       209  PMPE      H13R          -15.4743042760        5.2159691007       -2.4482168926  MEMB      209             0.0000000000
     25967       209  PMPE      H13S          -16.3984027780        6.7296856410       -2.6420445623  MEMB      209             0.0000000000
     25968       209  PMPE      C214          -14.2703654082        6.3871054230       -2.6012479444  MEMB      209             0.0000000000
     25969       209  PMPE      H14R          -13.9927132987        7.1443254349       -3.2956353195  MEMB      209             0.0000000000
     25970       209  PMPE      H14S          -13.6746448738        5.5170335978       -2.6764016254  MEMB      209             0.0000000000
     25971       209  PMPE      C215          -14.2004494692        6.7381787184       -1.1420899070  MEMB      209             0.0000000000
     25972       209  PMPE      H15R          -14.6778192280        5.9332802480       -0.5466163543  MEMB      209             0.0000000000
     25973       209  PMPE      H15S          -14.7716039189        7.6782528621       -1.1153138576  MEMB      209             0.0000000000
     25974       209  PMPE      C216          -12.7751643510        6.9024374040       -0.6900840034  MEMB      209             0.0000000000
     25975       209  PMPE      H16R          -12.1915992363        5.9598273591       -0.7254450853  MEMB      209             0.0000000000
     25976       209  PMPE      H16S          -12.2494386980        7.6771445055       -1.3056724327  MEMB      209             0.0000000000
     25977       209  PMPE      H16T          -12.6171205815        7.2481122406        0.3467589937  MEMB      209             0.0000000000
     25978       209  PMPE      C33           -12.7151930515        3.5283956065      -11.3245705344  MEMB      209             0.0000000000
     25979       209  PMPE      H3X           -13.0450794590        2.5225225884      -11.6183087539  MEMB      209             0.0000000000
     25980       209  PMPE      H3Y           -13.6850015583        4.0273597093      -11.1080766863  MEMB      209             0.0000000000
     25981       209  PMPE      C34           -11.8545820088        3.5335981020      -10.0724944401  MEMB      209             0.0000000000
     25982       209  PMPE      H4X           -11.7221963373        4.5858009595       -9.7713375103  MEMB      209             0.0000000000
     25983       209  PMPE      H4Y           -10.8014890560        3.1775958717      -10.2576165758  MEMB      209             0.0000000000
     25984       209  PMPE      C35           -12.6069841861        2.8785711265       -8.9108150941  MEMB      209             0.0000000000
     25985       209  PMPE      H5X           -12.9074634235        1.8332497912       -9.1184638799  MEMB      209             0.0000000000
     25986       209  PMPE      H5Y           -13.6020957201        3.0495776500       -8.7296448851  MEMB      209             0.0000000000
     25987       209  PMPE      C36           -11.8928304886        3.1152921260       -7.6336103950  MEMB      209             0.0000000000
     25988       209  PMPE      H6X           -10.8534491458        3.0436016833       -8.0344056018  MEMB      209             0.0000000000
     25989       209  PMPE      H6Y           -12.3649085020        2.4713103045       -6.8238313119  MEMB      209             0.0000000000
     25990       209  PMPE      C37           -11.9194419624        4.4280258719       -7.0121737417  MEMB      209             0.0000000000
     25991       209  PMPE      H7X           -12.9426069208        4.3815602575       -6.6709447270  MEMB      209             0.0000000000
     25992       209  PMPE      H7Y           -11.6543278316        5.1357027828       -7.8008166897  MEMB      209             0.0000000000
     25993       209  PMPE      C38           -11.2318457770        4.6424437607       -5.7013519529  MEMB      209             0.0000000000
     25994       209  PMPE      H8X           -10.3451730519        4.0685393667       -5.9330024456  MEMB      209             0.0000000000
     25995       209  PMPE      H8Y           -11.4415350841        4.0035324752       -4.8954784493  MEMB      209             0.0000000000
     25996       209  PMPE      C39           -11.2491070965        6.0991596924       -5.0649261014  MEMB      209             0.0000000000
     25997       209  PMPE      H9X           -11.1428372910        5.9863249369       -3.9805518329  MEMB      209             0.0000000000
     25998       209  PMPE      H9Y           -12.2589426303        6.4056326264       -5.2491800544  MEMB      209             0.0000000000
     25999       209  PMPE      C310          -10.2786829459        7.2690426611       -5.4445966503  MEMB      209             0.0000000000
     26000       209  PMPE      H10X          -10.3383311371        7.2713371425       -6.5541076676  MEMB      209             0.0000000000
     26001       209  PMPE      H10Y           -9.2856219757        6.9733681788       -5.0604452227  MEMB      209             0.0000000000
     26002       209  PMPE      C311          -10.3971470985        8.6644677627       -4.9763737859  MEMB      209             0.0000000000
     26003       209  PMPE      H11X           -9.5639888292        9.2720621627       -5.4107783224  MEMB      209             0.0000000000
     26004       209  PMPE      H11Y          -10.2855240307        8.6445354857       -3.8804252443  MEMB      209             0.0000000000
     26005       209  PMPE      C312          -11.7066821446        9.1594437905       -5.5099768546  MEMB      209             0.0000000000
     26006       209  PMPE      H12X          -12.5029419472        8.4740909402       -5.1160951186  MEMB      209             0.0000000000
     26007       209  PMPE      H12Y          -11.5824521379        9.0884452774       -6.6259053342  MEMB      209             0.0000000000
     26008       209  PMPE      C313          -12.0153801703       10.5888341089       -5.0936996932  MEMB      209             0.0000000000
     26009       209  PMPE      H13X          -12.8250626837       10.9361181680       -5.7630436099  MEMB      209             0.0000000000
     26010       209  PMPE      H13Y          -11.1294108843       11.2484220150       -5.2301626845  MEMB      209             0.0000000000
     26011       209  PMPE      C314          -12.6422042870       10.6411694154       -3.6963769527  MEMB      209             0.0000000000
     26012       209  PMPE      H14X          -11.9259577528       10.1782893399       -2.9790675688  MEMB      209             0.0000000000
     26013       209  PMPE      H14Y          -13.5851907711       10.0507220068       -3.7880489517  MEMB      209             0.0000000000
     26014       209  PMPE      C315          -12.9371229958       12.0264076492       -3.1293800567  MEMB      209             0.0000000000
     26015       209  PMPE      H15X          -13.8356032429       12.5131718585       -3.5620300180  MEMB      209             0.0000000000
     26016       209  PMPE      H15Y          -12.0467839754       12.6161544153       -3.2978225952  MEMB      209             0.0000000000
     26017       209  PMPE      C316          -13.1777289244       12.0390821087       -1.6702371379  MEMB      209             0.0000000000
     26018       209  PMPE      H16X          -14.1508130869       11.5789363823       -1.6136745048  MEMB      209             0.0000000000
     26019       209  PMPE      H16Y          -13.1069600655       13.0333723214       -1.1844571086  MEMB      209             0.0000000000
     26020       209  PMPE      H16Z          -12.6238822862       11.3562309965       -1.0942654731  MEMB      209             0.0000000000
     26021       210  OYPE      N              14.5748832690       -5.7740106418      -21.1876639114  MEMB      210             0.0000000000
     26022       210  OYPE      HN1            14.5692361389       -6.0404875688      -22.1839102126  MEMB      210             0.0000000000
     26023       210  OYPE      HN2            13.6491482474       -5.3543558289      -20.9337493850  MEMB      210             0.0000000000
     26024       210  OYPE      HN3            15.3830799548       -5.1508250206      -20.9700386027  MEMB      210             0.0000000000
     26025       210  OYPE      C12            14.7233058277       -7.0418505271      -20.3985910075  MEMB      210             0.0000000000
     26026       210  OYPE      H12A           15.7993085625       -7.3231746531      -20.4571041871  MEMB      210             0.0000000000
     26027       210  OYPE      H12B           14.0444049978       -7.7824647372      -20.8745372058  MEMB      210             0.0000000000
     26028       210  OYPE      C11            14.3748099508       -6.8721461728      -18.9153306407  MEMB      210             0.0000000000
     26029       210  OYPE      H11A           15.1503362486       -6.2071372294      -18.4832940958  MEMB      210             0.0000000000
     26030       210  OYPE      H11B           14.4484999864       -7.8837323416      -18.4127770756  MEMB      210             0.0000000000
     26031       210  OYPE      P              11.8611356959       -7.1558832202      -18.3375023029  MEMB      210             0.0000000000
     26032       210  OYPE      O13            11.8342482332       -8.2580351302      -19.3297919032  MEMB      210             0.0000000000
     26033       210  OYPE      O14            10.6656357286       -6.3025526444      -18.1717367147  MEMB      210             0.0000000000
     26034       210  OYPE      O11            12.2930823733       -7.7553877914      -16.9498384194  MEMB      210             0.0000000000
     26035       210  OYPE      O12            13.1148195296       -6.2239712680      -18.7381540053  MEMB      210             0.0000000000
     26036       210  OYPE      C1             12.9208892536       -6.9428180929      -15.9759526595  MEMB      210             0.0000000000
     26037       210  OYPE      HA             12.3851415881       -5.9743380140      -15.8533222543  MEMB      210             0.0000000000
     26038       210  OYPE      HB             13.9540789835       -6.7555525901      -16.3411192020  MEMB      210             0.0000000000
     26039       210  OYPE      C2             12.8715513306       -7.6457971342      -14.5917999166  MEMB      210             0.0000000000
     26040       210  OYPE      HS             12.5720251844       -8.7112448216      -14.7260336010  MEMB      210             0.0000000000
     26041       210  OYPE      O21            11.9669402429       -7.0151176679      -13.6818556944  MEMB      210             0.0000000000
     26042       210  OYPE      C21            10.6898369769       -7.3152182321      -13.7531570946  MEMB      210             0.0000000000
     26043       210  OYPE      O22            10.1315157288       -8.0316505085      -14.5516003897  MEMB      210             0.0000000000
     26044       210  OYPE      C22             9.9978235961       -6.6427878852      -12.5728289274  MEMB      210             0.0000000000
     26045       210  OYPE      H2R             8.9852004827       -6.3217022263      -12.9120554792  MEMB      210             0.0000000000
     26046       210  OYPE      H2S            10.6246240055       -5.7797472418      -12.2861397515  MEMB      210             0.0000000000
     26047       210  OYPE      C3             14.2293602393       -7.6631575332      -13.8557380397  MEMB      210             0.0000000000
     26048       210  OYPE      HX             14.5917057741       -6.6353389044      -13.6494927138  MEMB      210             0.0000000000
     26049       210  OYPE      HY             14.9986054739       -8.1090173562      -14.5191005251  MEMB      210             0.0000000000
     26050       210  OYPE      O31            14.0803853463       -8.3538066369      -12.5970827022  MEMB      210             0.0000000000
     26051       210  OYPE      C31            13.6964738656       -9.6307405743      -12.7217547194  MEMB      210             0.0000000000
     26052       210  OYPE      O32            13.7242490649      -10.2847426298      -13.7650727726  MEMB      210             0.0000000000
     26053       210  OYPE      C32            13.8956256576      -10.2207654605      -11.3025764069  MEMB      210             0.0000000000
     26054       210  OYPE      H2X            14.8234139598      -10.6920036819      -11.3065006129  MEMB      210             0.0000000000
     26055       210  OYPE      H2Y            13.9972370510       -9.4988001608      -10.4890283567  MEMB      210             0.0000000000
     26056       210  OYPE      C23             9.8836985704       -7.5872586516      -11.3686395318  MEMB      210             0.0000000000
     26057       210  OYPE      H3R             9.4326762120       -8.5283712683      -11.7279434840  MEMB      210             0.0000000000
     26058       210  OYPE      H3S             9.1839315736       -7.0950513775      -10.6468191994  MEMB      210             0.0000000000
     26059       210  OYPE      C24            11.2231822364       -7.9316430537      -10.6837932895  MEMB      210             0.0000000000
     26060       210  OYPE      H4R            12.0460125814       -8.2290015059      -11.3567554149  MEMB      210             0.0000000000
     26061       210  OYPE      H4S            11.0844899487       -8.8036860016      -10.0151758346  MEMB      210             0.0000000000
     26062       210  OYPE      C25            11.8209776630       -6.7667685879       -9.9095293680  MEMB      210             0.0000000000
     26063       210  OYPE      H5R            11.3687025325       -6.6200385194       -8.9743114345  MEMB      210             0.0000000000
     26064       210  OYPE      H5S            11.6009554484       -5.8143979369      -10.4143281524  MEMB      210             0.0000000000
     26065       210  OYPE      C26            13.2644929241       -6.9584811806       -9.4440158727  MEMB      210             0.0000000000
     26066       210  OYPE      H6R            13.8581002776       -6.8022537650      -10.3637387864  MEMB      210             0.0000000000
     26067       210  OYPE      H6S            13.4083165478       -7.9836596112       -9.0144324735  MEMB      210             0.0000000000
     26068       210  OYPE      C27            13.7073507553       -5.9628887531       -8.3542112457  MEMB      210             0.0000000000
     26069       210  OYPE      H7R            13.2212150667       -6.2178500409       -7.3902491923  MEMB      210             0.0000000000
     26070       210  OYPE      H7S            13.3646050456       -4.9497679803       -8.6504863131  MEMB      210             0.0000000000
     26071       210  OYPE      C28            15.1973851835       -6.0450655073       -8.0151528358  MEMB      210             0.0000000000
     26072       210  OYPE      H8R            15.7893572481       -5.6493739492       -8.8019817690  MEMB      210             0.0000000000
     26073       210  OYPE      H8S            15.4560477992       -7.1165699041       -7.8677077121  MEMB      210             0.0000000000
     26074       210  OYPE      C29            15.6610731204       -5.2567171874       -6.8541703502  MEMB      210             0.0000000000
     26075       210  OYPE      H9R            16.2505591969       -4.3553286228       -7.0763914973  MEMB      210             0.0000000000
     26076       210  OYPE      C210           15.4249524461       -5.6105486058       -5.6117077526  MEMB      210             0.0000000000
     26077       210  OYPE      H10R           16.0236981910       -5.1433134500       -4.8350893315  MEMB      210             0.0000000000
     26078       210  OYPE      C211           14.6909796983       -6.8027013286       -5.1758003075  MEMB      210             0.0000000000
     26079       210  OYPE      H11R           14.6574319113       -7.6216618872       -5.9333410900  MEMB      210             0.0000000000
     26080       210  OYPE      H11S           13.6986137894       -6.6786937740       -4.7233704733  MEMB      210             0.0000000000
     26081       210  OYPE      C212           15.5440212809       -7.1062866046       -4.0446551671  MEMB      210             0.0000000000
     26082       210  OYPE      H12R           16.6230583293       -7.3503173389       -4.3844709963  MEMB      210             0.0000000000
     26083       210  OYPE      H12S           14.8056795698       -7.9131903299       -3.6924869864  MEMB      210             0.0000000000
     26084       210  OYPE      C213           15.7170825131       -6.4685562719       -2.6886999592  MEMB      210             0.0000000000
     26085       210  OYPE      H13R           14.6989362547       -6.2810979732       -2.3347975249  MEMB      210             0.0000000000
     26086       210  OYPE      H13S           16.2528641030       -5.5625339181       -2.9777661935  MEMB      210             0.0000000000
     26087       210  OYPE      C214           16.5957699357       -7.1834084218       -1.6079356063  MEMB      210             0.0000000000
     26088       210  OYPE      H14R           17.5947534356       -7.3883077931       -2.0661802734  MEMB      210             0.0000000000
     26089       210  OYPE      H14S           16.1636732451       -8.1521971092       -1.2627686723  MEMB      210             0.0000000000
     26090       210  OYPE      C215           16.7974627303       -6.2779990262       -0.3913659271  MEMB      210             0.0000000000
     26091       210  OYPE      H15R           15.7941664738       -6.0690243144        0.0518649966  MEMB      210             0.0000000000
     26092       210  OYPE      H15S           17.1572180981       -5.3076113558       -0.7991332297  MEMB      210             0.0000000000
     26093       210  OYPE      C216           17.7618372686       -6.7867471964        0.6989562788  MEMB      210             0.0000000000
     26094       210  OYPE      H16R           17.4336516216       -7.7415254985        1.1516126868  MEMB      210             0.0000000000
     26095       210  OYPE      H16S           17.8183569913       -6.0372422160        1.4985203836  MEMB      210             0.0000000000
     26096       210  OYPE      H16T           18.8076894259       -6.9333307594        0.3769189525  MEMB      210             0.0000000000
     26097       210  OYPE      C33            13.2293016469      -11.5439087113      -11.1470272980  MEMB      210             0.0000000000
     26098       210  OYPE      H3X            13.4071747838      -12.2426167486      -11.9815534884  MEMB      210             0.0000000000
     26099       210  OYPE      H3Y            12.2159022332      -11.1739417563      -11.2529426151  MEMB      210             0.0000000000
     26100       210  OYPE      C34            13.3053276065      -12.2448969942       -9.8229190575  MEMB      210             0.0000000000
     26101       210  OYPE      H4X            12.4234780634      -12.8934173258       -9.8773850408  MEMB      210             0.0000000000
     26102       210  OYPE      H4Y            14.1964172670      -12.8961600666       -9.6672130618  MEMB      210             0.0000000000
     26103       210  OYPE      C35            13.2251483278      -11.1983226429       -8.7486854039  MEMB      210             0.0000000000
     26104       210  OYPE      H5X            12.4377393904      -10.4575902815       -8.8120092643  MEMB      210             0.0000000000
     26105       210  OYPE      H5Y            14.1551933541      -10.7652159695       -8.6928973638  MEMB      210             0.0000000000
     26106       210  OYPE      C36            13.0198790237      -11.7307651231       -7.4953857199  MEMB      210             0.0000000000
     26107       210  OYPE      H6X            12.0432906761      -12.0141936224       -7.9032984144  MEMB      210             0.0000000000
     26108       210  OYPE      H6Y            13.7196571740      -12.5267839407       -7.4766033297  MEMB      210             0.0000000000
     26109       210  OYPE      C37            12.8970214624      -10.8912568519       -6.2497131858  MEMB      210             0.0000000000
     26110       210  OYPE      H7X            13.8626038215      -10.6588837677       -6.0795665998  MEMB      210             0.0000000000
     26111       210  OYPE      H7Y            12.2094125949      -10.1169790296       -6.4586141626  MEMB      210             0.0000000000
     26112       210  OYPE      C38            12.5005946771      -11.2120700296       -4.8828804394  MEMB      210             0.0000000000
     26113       210  OYPE      H8X            12.2265123768      -10.5634586126       -4.0943648138  MEMB      210             0.0000000000
     26114       210  OYPE      H8Y            11.4192946693      -11.6104410835       -4.9651348663  MEMB      210             0.0000000000
     26115       210  OYPE      C39            13.6425637098      -11.8982981413       -4.1741670177  MEMB      210             0.0000000000
     26116       210  OYPE      H9X            13.7585869485      -12.8824340179       -4.5625393167  MEMB      210             0.0000000000
     26117       210  OYPE      C310           13.9551093196      -11.8672696158       -2.9014404044  MEMB      210             0.0000000000
     26118       210  OYPE      H10X           14.5367951031      -12.5770058888       -2.4728682051  MEMB      210             0.0000000000
     26119       210  OYPE      C311           13.4450210844      -11.2551478164       -1.7149357354  MEMB      210             0.0000000000
     26120       210  OYPE      H11X           12.5338017062      -10.7534453279       -2.0526876066  MEMB      210             0.0000000000
     26121       210  OYPE      H11Y           13.3939070293      -11.8200196862       -0.7347093668  MEMB      210             0.0000000000
     26122       210  OYPE      C312           14.3625879982      -10.4239916648       -1.2826666531  MEMB      210             0.0000000000
     26123       210  OYPE      H12X           14.0995191561       -9.8211068877       -2.1629567733  MEMB      210             0.0000000000
     26124       210  OYPE      H12Y           15.3036942812      -10.9805312520       -1.2215275229  MEMB      210             0.0000000000
     26125       210  OYPE      C313           13.9560559159       -9.6923771301       -0.0820400163  MEMB      210             0.0000000000
     26126       210  OYPE      H13X           14.1444192309      -10.3240983625        0.7970015087  MEMB      210             0.0000000000
     26127       210  OYPE      H13Y           14.5425382354       -8.7782750181       -0.1143569693  MEMB      210             0.0000000000
     26128       210  OYPE      C314           12.6288258775       -9.0458866406       -0.0412185822  MEMB      210             0.0000000000
     26129       210  OYPE      H14X           12.4463473671       -8.4920523459        0.8893253541  MEMB      210             0.0000000000
     26130       210  OYPE      H14Y           11.8682769505       -9.7135924441       -0.1695400291  MEMB      210             0.0000000000
     26131       210  OYPE      C315           12.2471075319       -8.3615987656       -1.2659436004  MEMB      210             0.0000000000
     26132       210  OYPE      H15X           11.7716471696       -9.0699367783       -2.0295902806  MEMB      210             0.0000000000
     26133       210  OYPE      H15Y           12.8765391474       -7.6795099224       -1.7587268978  MEMB      210             0.0000000000
     26134       210  OYPE      C316           11.2727194681       -7.4593652385       -0.8538076685  MEMB      210             0.0000000000
     26135       210  OYPE      H16X           10.6613202467       -8.2259805352       -0.5099432597  MEMB      210             0.0000000000
     26136       210  OYPE      H16Y           11.0733638483       -7.4016500823       -1.9151654685  MEMB      210             0.0000000000
     26137       210  OYPE      C317           11.2042527644       -6.0173257956       -0.3051221313  MEMB      210             0.0000000000
     26138       210  OYPE      H17X           11.5618810154       -6.2895634043        0.6724149511  MEMB      210             0.0000000000
     26139       210  OYPE      H17Y           10.1963108477       -5.4654680668       -0.2135131667  MEMB      210             0.0000000000
     26140       210  OYPE      C318           11.8547234962       -5.0273647415       -1.2423701410  MEMB      210             0.0000000000
     26141       210  OYPE      H18X           12.1072841260       -4.1031394522       -0.7181089992  MEMB      210             0.0000000000
     26142       210  OYPE      H18Y           12.7587312499       -5.5002346137       -1.6159864841  MEMB      210             0.0000000000
     26143       210  OYPE      H18Z           11.2085889450       -4.7845192489       -2.1324504363  MEMB      210             0.0000000000
     26144       211  QMPE      N              -0.7244411178       12.3455990744      -19.0786295778  MEMB      211             0.0000000000
     26145       211  QMPE      HN1            -1.0588445268       12.4401651892      -20.0592287719  MEMB      211             0.0000000000
     26146       211  QMPE      HN2            -0.2220081194       11.4393092184      -18.9911659584  MEMB      211             0.0000000000
     26147       211  QMPE      HN3            -1.5230369490       12.3290355835      -18.4139382786  MEMB      211             0.0000000000
     26148       211  QMPE      C12             0.1738222632       13.5089574582      -18.7743996555  MEMB      211             0.0000000000
     26149       211  QMPE      H12A            0.7816259684       13.7387403953      -19.6728803266  MEMB      211             0.0000000000
     26150       211  QMPE      H12B            0.7768147033       13.1531792542      -17.9533090567  MEMB      211             0.0000000000
     26151       211  QMPE      C11            -0.5002941684       14.7689794398      -18.2245567137  MEMB      211             0.0000000000
     26152       211  QMPE      H11A            0.2993693035       15.4936651536      -17.9654714767  MEMB      211             0.0000000000
     26153       211  QMPE      H11B           -1.0504965358       14.6049807911      -17.2702548477  MEMB      211             0.0000000000
     26154       211  QMPE      P              -2.8245389144       15.4474667740      -19.2743280138  MEMB      211             0.0000000000
     26155       211  QMPE      O13            -3.2602199896       14.1067768507      -19.7116024127  MEMB      211             0.0000000000
     26156       211  QMPE      O14            -3.2725559470       16.6460927620      -20.0199548586  MEMB      211             0.0000000000
     26157       211  QMPE      O11            -3.1611646579       15.6272590220      -17.7348318603  MEMB      211             0.0000000000
     26158       211  QMPE      O12            -1.2728040454       15.3580209623      -19.2370363362  MEMB      211             0.0000000000
     26159       211  QMPE      C1             -4.5323760805       15.4641093492      -17.3781413535  MEMB      211             0.0000000000
     26160       211  QMPE      HA             -4.8769383650       14.4588309355      -17.7059511925  MEMB      211             0.0000000000
     26161       211  QMPE      HB             -5.1525786444       16.2200077840      -17.9219159765  MEMB      211             0.0000000000
     26162       211  QMPE      C2             -4.7166536793       15.4760862773      -15.8276767340  MEMB      211             0.0000000000
     26163       211  QMPE      HS             -5.8037738960       15.6226079541      -15.6015303851  MEMB      211             0.0000000000
     26164       211  QMPE      O21            -3.9128485237       16.4643770564      -15.1682179367  MEMB      211             0.0000000000
     26165       211  QMPE      C21            -4.3500050643       17.7020927983      -15.1499486977  MEMB      211             0.0000000000
     26166       211  QMPE      O22            -5.3793692408       18.1043878791      -15.6647226195  MEMB      211             0.0000000000
     26167       211  QMPE      C22            -3.3880591832       18.4912614222      -14.2343340860  MEMB      211             0.0000000000
     26168       211  QMPE      H2R            -2.4626576359       18.6632145431      -14.8076224738  MEMB      211             0.0000000000
     26169       211  QMPE      H2S            -3.1327919657       17.8974006752      -13.3359805422  MEMB      211             0.0000000000
     26170       211  QMPE      C3             -4.3457980606       14.1078602757      -15.1831702506  MEMB      211             0.0000000000
     26171       211  QMPE      HX             -3.3272803334       13.7076609023      -15.3982625012  MEMB      211             0.0000000000
     26172       211  QMPE      HY             -5.1122023936       13.4153118043      -15.6126044093  MEMB      211             0.0000000000
     26173       211  QMPE      O31            -4.5779273735       14.1703755215      -13.7725334876  MEMB      211             0.0000000000
     26174       211  QMPE      C31            -3.7125271954       14.7327380177      -12.9303505468  MEMB      211             0.0000000000
     26175       211  QMPE      O32            -2.5579227073       15.0358973722      -13.1387304917  MEMB      211             0.0000000000
     26176       211  QMPE      C32            -4.4911132096       15.0553151568      -11.6497593560  MEMB      211             0.0000000000
     26177       211  QMPE      H2X            -5.3968225771       15.5751814716      -12.0101330713  MEMB      211             0.0000000000
     26178       211  QMPE      H2Y            -4.8225143350       14.1614849396      -11.0917654371  MEMB      211             0.0000000000
     26179       211  QMPE      C23            -3.7299527039       19.9446032568      -13.8858623682  MEMB      211             0.0000000000
     26180       211  QMPE      H3R            -3.7701181610       20.5055384378      -14.8542501091  MEMB      211             0.0000000000
     26181       211  QMPE      H3S            -2.9797029888       20.3927188599      -13.2025655384  MEMB      211             0.0000000000
     26182       211  QMPE      C24            -4.9799658519       20.1789496589      -13.1232832020  MEMB      211             0.0000000000
     26183       211  QMPE      H4R            -5.6807230032       20.0204422162      -13.8281055013  MEMB      211             0.0000000000
     26184       211  QMPE      H4S            -5.1056551118       21.2400564375      -12.9030323538  MEMB      211             0.0000000000
     26185       211  QMPE      C25            -5.3654143957       19.3816057374      -11.9230020834  MEMB      211             0.0000000000
     26186       211  QMPE      H5R            -5.3936345468       18.2940684258      -12.0993278426  MEMB      211             0.0000000000
     26187       211  QMPE      H5S            -6.3974989091       19.7178314970      -11.7059946455  MEMB      211             0.0000000000
     26188       211  QMPE      C26            -4.4403611287       19.7606714859      -10.8205269707  MEMB      211             0.0000000000
     26189       211  QMPE      H6R            -4.1422000905       20.8375340311      -10.9417647580  MEMB      211             0.0000000000
     26190       211  QMPE      H6S            -3.5408739769       19.1442291802      -10.8830883248  MEMB      211             0.0000000000
     26191       211  QMPE      C27            -5.0505843367       19.4245775323       -9.5138403799  MEMB      211             0.0000000000
     26192       211  QMPE      H7R            -5.6040921583       18.5154099167       -9.3869579073  MEMB      211             0.0000000000
     26193       211  QMPE      H7S            -5.9405032450       20.1348146268       -9.5027157639  MEMB      211             0.0000000000
     26194       211  QMPE      C28            -3.9399124199       19.4601961187       -8.3823974415  MEMB      211             0.0000000000
     26195       211  QMPE      H8R            -3.3297925465       18.6108141213       -8.2711223575  MEMB      211             0.0000000000
     26196       211  QMPE      H8S            -4.4970269095       19.3663192026       -7.3677231965  MEMB      211             0.0000000000
     26197       211  QMPE      C29            -3.0630609336       20.7719451810       -8.5908814069  MEMB      211             0.0000000000
     26198       211  QMPE      H9R            -3.3920766344       21.8041578551       -8.7046710290  MEMB      211             0.0000000000
     26199       211  QMPE      C217           -1.6877200179       21.0628842123       -8.7635716828  MEMB      211             0.0000000000
     26200       211  QMPE      H17R           -1.3700095183       20.1414634214       -9.1333228379  MEMB      211             0.0000000000
     26201       211  QMPE      H17S           -1.6628688695       22.0670680864       -9.2179574533  MEMB      211             0.0000000000
     26202       211  QMPE      C210           -2.1915716987       20.9558525994       -7.3308547422  MEMB      211             0.0000000000
     26203       211  QMPE      H10R           -2.6114060179       21.7305372469       -6.6605261333  MEMB      211             0.0000000000
     26204       211  QMPE      C211           -1.8596760334       19.7658086207       -6.5035021978  MEMB      211             0.0000000000
     26205       211  QMPE      H11R           -2.6670849349       19.5856981112       -5.7475540851  MEMB      211             0.0000000000
     26206       211  QMPE      H11S           -1.8105939148       18.8971543225       -7.1320365178  MEMB      211             0.0000000000
     26207       211  QMPE      C212           -0.4722891348       19.8919279708       -5.9105762976  MEMB      211             0.0000000000
     26208       211  QMPE      H12R           -0.5642331094       20.4525975671       -5.0942713349  MEMB      211             0.0000000000
     26209       211  QMPE      H12S            0.2755536888       20.4216072680       -6.5237999666  MEMB      211             0.0000000000
     26210       211  QMPE      C213           -0.1377853778       18.8327668684       -4.8810129576  MEMB      211             0.0000000000
     26211       211  QMPE      H13R            0.2145515632       18.0464277728       -5.4725573190  MEMB      211             0.0000000000
     26212       211  QMPE      H13S           -0.9903645573       18.5536103690       -4.2580226185  MEMB      211             0.0000000000
     26213       211  QMPE      C214            0.9943934612       18.9711942836       -3.9571156696  MEMB      211             0.0000000000
     26214       211  QMPE      H14R            0.9353031659       19.7336223959       -3.2745465592  MEMB      211             0.0000000000
     26215       211  QMPE      H14S            1.7584227434       19.4564111327       -4.6230527944  MEMB      211             0.0000000000
     26216       211  QMPE      C215            1.3816942517       17.7242930897       -3.0877151916  MEMB      211             0.0000000000
     26217       211  QMPE      H15R            2.3509564870       17.7322447701       -2.5224307616  MEMB      211             0.0000000000
     26218       211  QMPE      H15S            1.4759673343       16.9418350418       -3.8357373855  MEMB      211             0.0000000000
     26219       211  QMPE      C216            0.5316282161       17.3811873762       -1.9305884600  MEMB      211             0.0000000000
     26220       211  QMPE      H16R            0.9100688158       16.4934791895       -1.4056616282  MEMB      211             0.0000000000
     26221       211  QMPE      H16S           -0.4213317671       17.1625901161       -2.4040688729  MEMB      211             0.0000000000
     26222       211  QMPE      H16T            0.5058788280       18.1763181075       -1.1742047864  MEMB      211             0.0000000000
     26223       211  QMPE      C33            -3.6918550095       15.9335267508      -10.6851339050  MEMB      211             0.0000000000
     26224       211  QMPE      H3X            -4.2742636895       16.2419615425       -9.7890582807  MEMB      211             0.0000000000
     26225       211  QMPE      H3Y            -3.3394721317       16.8588145670      -11.1713873945  MEMB      211             0.0000000000
     26226       211  QMPE      C34            -2.5199771941       15.2149999376      -10.1167904417  MEMB      211             0.0000000000
     26227       211  QMPE      H4X            -1.6089678837       15.4748787832      -10.6918130278  MEMB      211             0.0000000000
     26228       211  QMPE      H4Y            -2.7004878152       14.1040091665      -10.1430834381  MEMB      211             0.0000000000
     26229       211  QMPE      C35            -2.3474201638       15.7382799576       -8.7410781484  MEMB      211             0.0000000000
     26230       211  QMPE      H5X            -3.2368000492       15.6812310862       -8.0968739179  MEMB      211             0.0000000000
     26231       211  QMPE      H5Y            -1.7356317455       16.6730462573       -8.6527778839  MEMB      211             0.0000000000
     26232       211  QMPE      C36            -1.7317923916       14.6892736527       -8.1129657127  MEMB      211             0.0000000000
     26233       211  QMPE      H6X            -0.6872785383       14.7133839905       -8.8193732054  MEMB      211             0.0000000000
     26234       211  QMPE      H6Y            -1.9930139248       13.6774524163       -8.3786217237  MEMB      211             0.0000000000
     26235       211  QMPE      C37            -1.8057077380       14.9606709392       -6.3255506144  MEMB      211             0.0000000000
     26236       211  QMPE      H7X            -1.2982630942       14.3005481359       -6.0447184252  MEMB      211             0.0000000000
     26237       211  QMPE      H7Y            -0.9075014405       15.3760486340       -5.5400339790  MEMB      211             0.0000000000
     26238       211  QMPE      C38            -2.7331865877       14.6791888706       -5.4511092642  MEMB      211             0.0000000000
     26239       211  QMPE      H8X            -3.1046946525       15.6936827582       -5.6455765097  MEMB      211             0.0000000000
     26240       211  QMPE      H8Y            -3.1351982024       13.8186061845       -5.9824207709  MEMB      211             0.0000000000
     26241       211  QMPE      C39            -2.1940614950       14.5438526665       -4.0226262751  MEMB      211             0.0000000000
     26242       211  QMPE      H9X            -1.7511813547       15.4932590603       -3.7293771529  MEMB      211             0.0000000000
     26243       211  QMPE      H9Y            -1.3296579718       13.9558499482       -3.6779424405  MEMB      211             0.0000000000
     26244       211  QMPE      C310           -3.2312140155       13.8560231254       -3.2081105548  MEMB      211             0.0000000000
     26245       211  QMPE      H10X           -2.8613971615       13.7346122568       -2.1754884826  MEMB      211             0.0000000000
     26246       211  QMPE      H10Y           -3.2039361458       12.8445678734       -3.6961354395  MEMB      211             0.0000000000
     26247       211  QMPE      C311           -4.5945302023       14.5656775214       -3.1353321845  MEMB      211             0.0000000000
     26248       211  QMPE      H11X           -5.1995883849       14.0331075188       -2.3650050939  MEMB      211             0.0000000000
     26249       211  QMPE      H11Y           -5.0528315228       14.5053786533       -4.1484901221  MEMB      211             0.0000000000
     26250       211  QMPE      C312           -4.5364327177       16.0389068374       -2.6541698460  MEMB      211             0.0000000000
     26251       211  QMPE      H12X           -3.8132658803       16.5461926279       -3.3194568185  MEMB      211             0.0000000000
     26252       211  QMPE      H12Y           -4.1129201172       16.0495792845       -1.6218498078  MEMB      211             0.0000000000
     26253       211  QMPE      C313           -5.8555749982       16.8705324481       -2.7093565369  MEMB      211             0.0000000000
     26254       211  QMPE      H13X           -6.3775470280       16.6773689131       -3.6664364719  MEMB      211             0.0000000000
     26255       211  QMPE      H13Y           -6.5301426655       16.5342504899       -1.8839872911  MEMB      211             0.0000000000
     26256       211  QMPE      C314           -5.6387785790       18.4070942581       -2.7174117505  MEMB      211             0.0000000000
     26257       211  QMPE      H14X           -6.5821891268       18.9996331657       -2.7718462855  MEMB      211             0.0000000000
     26258       211  QMPE      H14Y           -4.9452657658       18.7041199303       -3.5336089422  MEMB      211             0.0000000000
     26259       211  QMPE      C315           -4.9980791953       18.8795281195       -1.4905277473  MEMB      211             0.0000000000
     26260       211  QMPE      H15X           -5.7200828952       18.6455194751       -0.6620861169  MEMB      211             0.0000000000
     26261       211  QMPE      H15Y           -4.0100795306       18.3630147015       -1.3575866806  MEMB      211             0.0000000000
     26262       211  QMPE      H15Z           -4.8486452910       19.9752226365       -1.3856028283  MEMB      211             0.0000000000
     26263       212  PMPG      C13           -14.8185003415      -10.2285368205      -18.5512061068  MEMB      212             0.0000000000
     26264       212  PMPG      H13A          -15.7700255852       -9.9975521910      -19.0885376264  MEMB      212             0.0000000000
     26265       212  PMPG      H13B          -14.7626702292      -11.3211793661      -18.3541265773  MEMB      212             0.0000000000
     26266       212  PMPG      OC3           -14.7538356773       -9.5733723505      -17.2832111240  MEMB      212             0.0000000000
     26267       212  PMPG      HO3           -14.6599069261       -8.6322616542      -17.4306856862  MEMB      212             0.0000000000
     26268       212  PMPG      C12           -13.6117921165       -9.8210783372      -19.4173048902  MEMB      212             0.0000000000
     26269       212  PMPG      H12A          -13.6596952766       -8.7218763814      -19.5763122178  MEMB      212             0.0000000000
     26270       212  PMPG      OC2           -13.6574875494      -10.4443901134      -20.6982107125  MEMB      212             0.0000000000
     26271       212  PMPG      HO2           -12.7650904636      -10.2604293508      -21.0519564505  MEMB      212             0.0000000000
     26272       212  PMPG      C11           -12.2764472465      -10.1117410039      -18.7087018210  MEMB      212             0.0000000000
     26273       212  PMPG      H11A          -12.2897273643      -11.1026053338      -18.1984713508  MEMB      212             0.0000000000
     26274       212  PMPG      H11B          -12.1736067898       -9.3243245737      -17.9209771017  MEMB      212             0.0000000000
     26275       212  PMPG      P              -9.8004816964       -9.6312941261      -19.1147044655  MEMB      212             0.0000000000
     26276       212  PMPG      O13            -9.7996567048       -8.1486923142      -18.9597724984  MEMB      212             0.0000000000
     26277       212  PMPG      O14            -8.7941685657      -10.2402818079      -19.9946566910  MEMB      212             0.0000000000
     26278       212  PMPG      O11            -9.7957778824      -10.3404438096      -17.6789575954  MEMB      212             0.0000000000
     26279       212  PMPG      O12           -11.2095934242      -10.0540773337      -19.6478097156  MEMB      212             0.0000000000
     26280       212  PMPG      C1             -9.2691345089      -11.6713131684      -17.5015731566  MEMB      212             0.0000000000
     26281       212  PMPG      HA             -8.1635019904      -11.6444067295      -17.6425700174  MEMB      212             0.0000000000
     26282       212  PMPG      HB             -9.6714719728      -12.3911081438      -18.2499604339  MEMB      212             0.0000000000
     26283       212  PMPG      C2             -9.6228061883      -12.2367646427      -16.0870846413  MEMB      212             0.0000000000
     26284       212  PMPG      HS             -9.2887302224      -13.2910426167      -15.9536491736  MEMB      212             0.0000000000
     26285       212  PMPG      O21           -11.0588813284      -12.1424929513      -15.9115277112  MEMB      212             0.0000000000
     26286       212  PMPG      C21           -11.6296560763      -12.7571181011      -14.8758987220  MEMB      212             0.0000000000
     26287       212  PMPG      O22           -11.0400331468      -13.4685853593      -14.0930875679  MEMB      212             0.0000000000
     26288       212  PMPG      C22           -13.0986292523      -12.3666286803      -14.7061366332  MEMB      212             0.0000000000
     26289       212  PMPG      H2R           -13.7258713813      -13.0641071388      -15.2974031023  MEMB      212             0.0000000000
     26290       212  PMPG      H2S           -13.2222765068      -11.3135006857      -15.0494009296  MEMB      212             0.0000000000
     26291       212  PMPG      C3             -8.8429384489      -11.4098316748      -15.0492354199  MEMB      212             0.0000000000
     26292       212  PMPG      HX             -7.8390772380      -11.1780964376      -15.5068077023  MEMB      212             0.0000000000
     26293       212  PMPG      HY             -8.7192675808      -12.0430382695      -14.1334735246  MEMB      212             0.0000000000
     26294       212  PMPG      O31            -9.6427874684      -10.2253248022      -14.8183462950  MEMB      212             0.0000000000
     26295       212  PMPG      C31            -9.1996578493       -9.4544079371      -13.8588681913  MEMB      212             0.0000000000
     26296       212  PMPG      O32            -8.1962500729       -9.6899207105      -13.2558273445  MEMB      212             0.0000000000
     26297       212  PMPG      C32           -10.1865769318       -8.3603702700      -13.4743016633  MEMB      212             0.0000000000
     26298       212  PMPG      H2X           -10.5526672304       -7.9768228818      -14.4509594552  MEMB      212             0.0000000000
     26299       212  PMPG      H2Y            -9.6831584832       -7.5330588515      -12.9330171271  MEMB      212             0.0000000000
     26300       212  PMPG      C23           -13.5641659024      -12.4812493983      -13.2332330273  MEMB      212             0.0000000000
     26301       212  PMPG      H3R           -14.4678938461      -11.8553445258      -13.0753969735  MEMB      212             0.0000000000
     26302       212  PMPG      H3S           -12.7845514077      -12.1258787558      -12.5352954107  MEMB      212             0.0000000000
     26303       212  PMPG      C24           -13.9258404076      -13.8835971859      -12.7997795383  MEMB      212             0.0000000000
     26304       212  PMPG      H4R           -12.9992125280      -14.5059520159      -12.8297542118  MEMB      212             0.0000000000
     26305       212  PMPG      H4S           -14.6821359067      -14.3269032093      -13.4768063508  MEMB      212             0.0000000000
     26306       212  PMPG      C25           -14.5360541911      -13.8880256025      -11.4344173736  MEMB      212             0.0000000000
     26307       212  PMPG      H5R           -15.2453087213      -14.7678518878      -11.3385925877  MEMB      212             0.0000000000
     26308       212  PMPG      H5S           -15.3150899012      -13.2510948810      -11.2323137943  MEMB      212             0.0000000000
     26309       212  PMPG      C26           -13.5168179421      -13.6689525324      -10.3295059045  MEMB      212             0.0000000000
     26310       212  PMPG      H6R           -13.0912141133      -12.6875493004      -10.2587043778  MEMB      212             0.0000000000
     26311       212  PMPG      H6S           -12.7179087751      -14.4425195135      -10.3697940834  MEMB      212             0.0000000000
     26312       212  PMPG      C27           -14.2508240752      -13.7442165943       -9.0923151838  MEMB      212             0.0000000000
     26313       212  PMPG      H7R           -13.5791004612      -14.4969269201       -8.4717512811  MEMB      212             0.0000000000
     26314       212  PMPG      H7S           -15.3546996284      -14.0439218268       -9.5556098803  MEMB      212             0.0000000000
     26315       212  PMPG      C28           -14.7800532440      -12.8371690687       -8.0922010305  MEMB      212             0.0000000000
     26316       212  PMPG      H8R           -15.3596230835      -13.4032595465       -7.3087636078  MEMB      212             0.0000000000
     26317       212  PMPG      H8S           -15.4706268661      -12.2430428816       -8.6913544270  MEMB      212             0.0000000000
     26318       212  PMPG      C29           -13.5708911293      -12.1641053907       -7.5527840581  MEMB      212             0.0000000000
     26319       212  PMPG      H9R           -12.5829671144      -12.4976559423       -7.9211243720  MEMB      212             0.0000000000
     26320       212  PMPG      C217          -13.7382695863      -10.6709584545       -7.3183859488  MEMB      212             0.0000000000
     26321       212  PMPG      H17R          -12.8165520395      -10.1519365767       -7.5024331112  MEMB      212             0.0000000000
     26322       212  PMPG      H17S          -14.6847028877      -10.3539815738       -7.7232487431  MEMB      212             0.0000000000
     26323       212  PMPG      C210          -13.6292172426      -11.6334235878       -6.1479616603  MEMB      212             0.0000000000
     26324       212  PMPG      H10R          -12.6647946012      -11.5726027327       -5.6134008101  MEMB      212             0.0000000000
     26325       212  PMPG      C211          -14.8571751292      -11.9276546975       -5.2850851111  MEMB      212             0.0000000000
     26326       212  PMPG      H11R          -15.8330420537      -11.8580860808       -5.8038985655  MEMB      212             0.0000000000
     26327       212  PMPG      H11S          -14.6677951278      -13.0036624416       -5.0895736634  MEMB      212             0.0000000000
     26328       212  PMPG      C212          -14.9503461017      -11.0586049562       -4.0078737793  MEMB      212             0.0000000000
     26329       212  PMPG      H12R          -15.1903289259      -10.0053436055       -4.2247205006  MEMB      212             0.0000000000
     26330       212  PMPG      H12S          -13.9772412685      -10.8471691201       -3.6405412688  MEMB      212             0.0000000000
     26331       212  PMPG      C213          -15.9532074236      -11.5236826977       -2.9310079146  MEMB      212             0.0000000000
     26332       212  PMPG      H13R          -16.9346016026      -11.6755917876       -3.4179274080  MEMB      212             0.0000000000
     26333       212  PMPG      H13S          -16.0720926156      -10.6398512219       -2.2750510665  MEMB      212             0.0000000000
     26334       212  PMPG      C214          -15.5091459156      -12.7687568506       -2.1556270045  MEMB      212             0.0000000000
     26335       212  PMPG      H14R          -14.5401865990      -12.5134702899       -1.7008468008  MEMB      212             0.0000000000
     26336       212  PMPG      H14S          -15.3565624117      -13.5437843802       -2.9145972036  MEMB      212             0.0000000000
     26337       212  PMPG      C215          -16.4844216505      -13.3985817624       -1.1724101396  MEMB      212             0.0000000000
     26338       212  PMPG      H15R          -17.4348517569      -13.7733126977       -1.4298037311  MEMB      212             0.0000000000
     26339       212  PMPG      H15S          -17.0824841483      -12.5868876965       -0.8548873478  MEMB      212             0.0000000000
     26340       212  PMPG      C216          -15.8509482796      -14.3194455640       -0.1127773949  MEMB      212             0.0000000000
     26341       212  PMPG      H16R          -16.4374494642      -14.5032661486        0.7735303031  MEMB      212             0.0000000000
     26342       212  PMPG      H16S          -14.8794561154      -13.9052015080        0.2251487284  MEMB      212             0.0000000000
     26343       212  PMPG      H16T          -15.7755269671      -15.3177371038       -0.4622622070  MEMB      212             0.0000000000
     26344       212  PMPG      C33           -11.2911195496       -8.9440252255      -12.5475185621  MEMB      212             0.0000000000
     26345       212  PMPG      H3X           -11.7935509566       -9.7541358628      -13.1363196157  MEMB      212             0.0000000000
     26346       212  PMPG      H3Y           -12.0581338062       -8.1774939105      -12.2787148007  MEMB      212             0.0000000000
     26347       212  PMPG      C34           -10.8698804765       -9.4748286971      -11.1454626332  MEMB      212             0.0000000000
     26348       212  PMPG      H4X           -10.0182488765      -10.1873087590      -11.1840469982  MEMB      212             0.0000000000
     26349       212  PMPG      H4Y           -11.8043482268      -10.0074981613      -10.8209614661  MEMB      212             0.0000000000
     26350       212  PMPG      C35           -10.3757795930       -8.4157236491      -10.1180504062  MEMB      212             0.0000000000
     26351       212  PMPG      H5X           -11.0967951483       -7.5699797239      -10.0844275209  MEMB      212             0.0000000000
     26352       212  PMPG      H5Y            -9.3999277560       -8.0269452227      -10.5057950093  MEMB      212             0.0000000000
     26353       212  PMPG      C36           -10.1326995110       -8.9510839450       -8.6726140645  MEMB      212             0.0000000000
     26354       212  PMPG      H6X            -9.1669402849       -9.5021336106       -8.6257018812  MEMB      212             0.0000000000
     26355       212  PMPG      H6Y           -10.9076369718       -9.6977300859       -8.4024200648  MEMB      212             0.0000000000
     26356       212  PMPG      C37           -10.0977239576       -7.8523841867       -7.5776726849  MEMB      212             0.0000000000
     26357       212  PMPG      H7X           -10.9577553821       -7.1568406041       -7.6823835082  MEMB      212             0.0000000000
     26358       212  PMPG      H7Y            -9.2088064863       -7.2086943908       -7.7205923852  MEMB      212             0.0000000000
     26359       212  PMPG      C38           -10.1586388388       -8.3620756079       -6.1178286618  MEMB      212             0.0000000000
     26360       212  PMPG      H8X            -9.2700792567       -8.9437406629       -5.7964430266  MEMB      212             0.0000000000
     26361       212  PMPG      H8Y           -11.0255772122       -9.0485749630       -6.0423793468  MEMB      212             0.0000000000
     26362       212  PMPG      C39           -10.2773117733       -7.1879644883       -5.1379269583  MEMB      212             0.0000000000
     26363       212  PMPG      H9X           -11.1472280130       -6.5500626075       -5.3908280032  MEMB      212             0.0000000000
     26364       212  PMPG      H9Y            -9.3742861323       -6.5564389285       -5.3012084713  MEMB      212             0.0000000000
     26365       212  PMPG      C310          -10.3131034136       -7.5376943100       -3.6523875362  MEMB      212             0.0000000000
     26366       212  PMPG      H10X          -10.1435541992       -6.5611271157       -3.1529936727  MEMB      212             0.0000000000
     26367       212  PMPG      H10Y           -9.4916556128       -8.2103481308       -3.3215980148  MEMB      212             0.0000000000
     26368       212  PMPG      C311          -11.6301186518       -8.0424112783       -3.1051985228  MEMB      212             0.0000000000
     26369       212  PMPG      H11X          -11.8889593121       -9.0399533219       -3.5482553861  MEMB      212             0.0000000000
     26370       212  PMPG      H11Y          -12.4531705988       -7.3178806253       -3.2654497882  MEMB      212             0.0000000000
     26371       212  PMPG      C312          -11.4251191321       -8.1686373583       -1.6364530355  MEMB      212             0.0000000000
     26372       212  PMPG      H12X          -11.2401460123       -7.3057716513       -0.9931210175  MEMB      212             0.0000000000
     26373       212  PMPG      H12Y          -10.5004073768       -8.7664457635       -1.5173072334  MEMB      212             0.0000000000
     26374       212  PMPG      C313          -12.5391797978       -8.8662158185       -1.0934017179  MEMB      212             0.0000000000
     26375       212  PMPG      H13X          -12.6865359013       -9.7607875256       -1.6760834137  MEMB      212             0.0000000000
     26376       212  PMPG      H13Y          -13.5505539939       -8.5847097321       -0.9087535498  MEMB      212             0.0000000000
     26377       212  PMPG      C314          -12.2326860155       -9.2234183012        0.1641098491  MEMB      212             0.0000000000
     26378       212  PMPG      H14X          -11.7570985279       -8.7328334613        1.0371391523  MEMB      212             0.0000000000
     26379       212  PMPG      H14Y          -10.9694032948       -9.5111415942        0.0294545584  MEMB      212             0.0000000000
     26380       212  PMPG      C315          -13.7847436298      -10.2983046683        0.3975349868  MEMB      212             0.0000000000
     26381       212  PMPG      H15X          -12.8547154589      -12.5365508472        2.0262821422  MEMB      212             0.0000000000
     26382       212  PMPG      H15Y          -13.9763440316      -11.5344235907       -0.2332339204  MEMB      212             0.0000000000
     26383       212  PMPG      C316          -14.8315788812       -9.4847269482        1.5905045978  MEMB      212             0.0000000000
     26384       212  PMPG      H16X          -14.3609255570       -9.4360309390        2.6141748213  MEMB      212             0.0000000000
     26385       212  PMPG      H16Y          -15.0706858328      -10.4626738640        2.0284041751  MEMB      212             0.0000000000
     26386       212  PMPG      H16Z          -15.1227368385       -9.8634330235        0.7349997746  MEMB      212             0.0000000000
     26387       213  PMPE      N              -1.1716003090      -15.6756048536      -16.5747868542  MEMB      213             0.0000000000
     26388       213  PMPE      HN1            -1.9901910912      -16.1681201100      -16.9983206242  MEMB      213             0.0000000000
     26389       213  PMPE      HN2            -1.3037222368      -15.6290190853      -15.5325768134  MEMB      213             0.0000000000
     26390       213  PMPE      HN3            -1.1186130058      -14.7229709387      -17.0092957109  MEMB      213             0.0000000000
     26391       213  PMPE      C12             0.1305072405      -16.3453432344      -16.9683110872  MEMB      213             0.0000000000
     26392       213  PMPE      H12A            0.1065930920      -17.4176077814      -16.6938452986  MEMB      213             0.0000000000
     26393       213  PMPE      H12B            0.9720142368      -15.8332902591      -16.4630976990  MEMB      213             0.0000000000
     26394       213  PMPE      C11             0.4679850076      -16.2738117028      -18.4628935124  MEMB      213             0.0000000000
     26395       213  PMPE      H11A           -0.3184365775      -16.7856667321      -19.0627193998  MEMB      213             0.0000000000
     26396       213  PMPE      H11B            1.4201976921      -16.8595351930      -18.5350016124  MEMB      213             0.0000000000
     26397       213  PMPE      P               1.6493743985      -14.6479919055      -20.1247886883  MEMB      213             0.0000000000
     26398       213  PMPE      O13             1.7206384330      -13.1997155593      -20.3593599326  MEMB      213             0.0000000000
     26399       213  PMPE      O14             1.3394301809      -15.5612117426      -21.2384531043  MEMB      213             0.0000000000
     26400       213  PMPE      O11             2.9721059448      -15.1543373431      -19.5166074055  MEMB      213             0.0000000000
     26401       213  PMPE      O12             0.6666181630      -14.9295104739      -18.8876288942  MEMB      213             0.0000000000
     26402       213  PMPE      C1              3.4149303264      -14.2970864657      -18.6013761231  MEMB      213             0.0000000000
     26403       213  PMPE      HA              2.8031707276      -13.7238177626      -17.8786860750  MEMB      213             0.0000000000
     26404       213  PMPE      HB              4.1869951013      -13.5733284800      -19.0940517312  MEMB      213             0.0000000000
     26405       213  PMPE      C2              3.9055006103      -15.2851570151      -17.5329643873  MEMB      213             0.0000000000
     26406       213  PMPE      HS              4.6687678439      -15.7829228814      -18.2257410442  MEMB      213             0.0000000000
     26407       213  PMPE      O21             3.2672940495      -16.1749420592      -16.7730880333  MEMB      213             0.0000000000
     26408       213  PMPE      C21             3.9169398076      -17.1079263868      -16.0585637396  MEMB      213             0.0000000000
     26409       213  PMPE      O22             5.0793569734      -17.4648633848      -16.1171159617  MEMB      213             0.0000000000
     26410       213  PMPE      C22             2.8540807011      -17.3995919405      -15.0728013160  MEMB      213             0.0000000000
     26411       213  PMPE      H2R             2.3511970334      -18.3135050439      -15.5606514652  MEMB      213             0.0000000000
     26412       213  PMPE      H2S             2.0462167649      -16.7418256985      -14.9733097219  MEMB      213             0.0000000000
     26413       213  PMPE      C3              4.4035464130      -14.8396664614      -16.4742280143  MEMB      213             0.0000000000
     26414       213  PMPE      HX              4.7386202186      -13.9288215422      -17.4804092758  MEMB      213             0.0000000000
     26415       213  PMPE      HY              5.2619764658      -15.4009849105      -16.2784543357  MEMB      213             0.0000000000
     26416       213  PMPE      O31             4.0180277699      -14.2008701075      -15.0868926685  MEMB      213             0.0000000000
     26417       213  PMPE      C31             4.3586072965      -13.7578644461      -13.8550838083  MEMB      213             0.0000000000
     26418       213  PMPE      O32             5.2627606324      -13.8814892723      -13.0485728338  MEMB      213             0.0000000000
     26419       213  PMPE      C32             3.1290168005      -13.4965981824      -13.3442978873  MEMB      213             0.0000000000
     26420       213  PMPE      H2X             3.4135538856      -13.8339382965      -12.3260580118  MEMB      213             0.0000000000
     26421       213  PMPE      H2Y             2.3469164603      -14.0888065358      -13.8311611072  MEMB      213             0.0000000000
     26422       213  PMPE      C23             3.4517933686      -17.3556056984      -13.5802475409  MEMB      213             0.0000000000
     26423       213  PMPE      H3R             4.4113849012      -16.9032153056      -13.5782355890  MEMB      213             0.0000000000
     26424       213  PMPE      H3S             3.9621062374      -18.1967131630      -13.1217157612  MEMB      213             0.0000000000
     26425       213  PMPE      C24             2.5464226983      -17.2936831766      -12.4160210688  MEMB      213             0.0000000000
     26426       213  PMPE      H4R             2.1784035156      -16.3411722959      -12.5102403354  MEMB      213             0.0000000000
     26427       213  PMPE      H4S             3.1593276279      -16.9555168269      -11.5597814841  MEMB      213             0.0000000000
     26428       213  PMPE      C25             1.6546818605      -18.4754399170      -11.9935435428  MEMB      213             0.0000000000
     26429       213  PMPE      H5R             2.0854769325      -19.4272744785      -11.6180294067  MEMB      213             0.0000000000
     26430       213  PMPE      H5S             1.1487785354      -18.8475423158      -12.8928347515  MEMB      213             0.0000000000
     26431       213  PMPE      C26             0.6303389371      -17.9266958860      -10.9918908277  MEMB      213             0.0000000000
     26432       213  PMPE      H6R            -0.0327394747      -18.6915932077      -10.7618464836  MEMB      213             0.0000000000
     26433       213  PMPE      H6S             0.1309414740      -17.1113201126      -11.4993583928  MEMB      213             0.0000000000
     26434       213  PMPE      C27             0.8956233566      -16.9690397100       -9.8502721648  MEMB      213             0.0000000000
     26435       213  PMPE      H7R             1.7674172593      -16.3578667426       -9.9473941171  MEMB      213             0.0000000000
     26436       213  PMPE      H7S             1.4649674616      -17.3363099482       -9.0896400774  MEMB      213             0.0000000000
     26437       213  PMPE      C28             0.0349585519      -16.8849538931       -8.6923401834  MEMB      213             0.0000000000
     26438       213  PMPE      H8R            -0.4861717392      -16.0087200710       -8.7556275647  MEMB      213             0.0000000000
     26439       213  PMPE      H8S             0.8268021563      -16.3895014807       -7.8722698973  MEMB      213             0.0000000000
     26440       213  PMPE      C29            -0.8993326295      -18.3512527022       -8.3223882697  MEMB      213             0.0000000000
     26441       213  PMPE      H9R            -0.5645934649      -19.5543253434       -8.1813037099  MEMB      213             0.0000000000
     26442       213  PMPE      C217           -1.9958004663      -18.2581499480       -8.9340951085  MEMB      213             0.0000000000
     26443       213  PMPE      H17R           -2.1499047541      -19.1289990995       -9.3658270140  MEMB      213             0.0000000000
     26444       213  PMPE      H17S           -2.0736537798      -17.3141645945       -9.3204898400  MEMB      213             0.0000000000
     26445       213  PMPE      C210           -2.0102375072      -18.1878998693       -7.4149962097  MEMB      213             0.0000000000
     26446       213  PMPE      H10R           -2.1614071065      -19.1783514111       -6.9618669080  MEMB      213             0.0000000000
     26447       213  PMPE      C211           -2.1628485796      -16.7473017618       -6.7442155924  MEMB      213             0.0000000000
     26448       213  PMPE      H11R           -3.1776271825      -16.6167326811       -6.5939405826  MEMB      213             0.0000000000
     26449       213  PMPE      H11S           -1.9898642988      -16.0564265943       -7.5433489670  MEMB      213             0.0000000000
     26450       213  PMPE      C212           -1.3990215792      -16.2268165831       -5.5042770953  MEMB      213             0.0000000000
     26451       213  PMPE      H12R           -0.3549195563      -15.8040224298       -5.7651971380  MEMB      213             0.0000000000
     26452       213  PMPE      H12S           -1.1384687510      -17.1459053525       -4.8807885729  MEMB      213             0.0000000000
     26453       213  PMPE      C213           -1.5314517246      -14.8797344495       -5.1174867114  MEMB      213             0.0000000000
     26454       213  PMPE      H13R           -2.4420643300      -14.4944792499       -5.5190334197  MEMB      213             0.0000000000
     26455       213  PMPE      H13S           -0.6286216657      -14.2429095395       -5.0726990816  MEMB      213             0.0000000000
     26456       213  PMPE      C214           -1.6827459607      -15.0608278183       -3.8650499303  MEMB      213             0.0000000000
     26457       213  PMPE      H14R           -1.0464977884      -15.9734273924       -3.5724603588  MEMB      213             0.0000000000
     26458       213  PMPE      H14S           -2.6700862821      -15.3118377390       -3.7201683983  MEMB      213             0.0000000000
     26459       213  PMPE      C215           -1.9634742664      -13.8975453188       -3.0099136113  MEMB      213             0.0000000000
     26460       213  PMPE      H15R           -1.1678250030      -13.8702413828       -2.2582859368  MEMB      213             0.0000000000
     26461       213  PMPE      H15S           -2.7695422909      -14.2467096880       -2.4779884061  MEMB      213             0.0000000000
     26462       213  PMPE      C216           -3.3247608057      -13.2631260673       -2.8722148437  MEMB      213             0.0000000000
     26463       213  PMPE      H16R           -3.3754254914      -12.5561768687       -1.9719778499  MEMB      213             0.0000000000
     26464       213  PMPE      H16S           -2.9244423813      -12.9937299022       -3.8111935144  MEMB      213             0.0000000000
     26465       213  PMPE      H16T           -4.2701710223      -13.7178912343       -3.1171147321  MEMB      213             0.0000000000
     26466       213  PMPE      C33             2.7747828409      -12.0753289669      -13.3979467563  MEMB      213             0.0000000000
     26467       213  PMPE      H3X             2.5897869131      -11.7955584418      -14.4564893199  MEMB      213             0.0000000000
     26468       213  PMPE      H3Y             3.5874522195      -11.4708970185      -12.9768629383  MEMB      213             0.0000000000
     26469       213  PMPE      C34             1.5655021662      -11.8115544589      -12.5231833351  MEMB      213             0.0000000000
     26470       213  PMPE      H4X             0.6618411551      -12.0804152877      -13.1072343874  MEMB      213             0.0000000000
     26471       213  PMPE      H4Y             1.5535824718      -10.7195754392      -12.4284435760  MEMB      213             0.0000000000
     26472       213  PMPE      C35             1.5866832040      -12.5824688194      -11.1699290193  MEMB      213             0.0000000000
     26473       213  PMPE      H5X             1.6314382613      -13.6591611204      -11.4020358435  MEMB      213             0.0000000000
     26474       213  PMPE      H5Y             0.7122206711      -12.3655691222      -10.5386702582  MEMB      213             0.0000000000
     26475       213  PMPE      C36             2.6940407019      -12.2660048764      -10.1843677930  MEMB      213             0.0000000000
     26476       213  PMPE      H6X             2.4836346994      -11.1735818801      -10.1107479363  MEMB      213             0.0000000000
     26477       213  PMPE      H6Y             3.6756496489      -12.5655507309      -10.6370651362  MEMB      213             0.0000000000
     26478       213  PMPE      C37             2.6102484757      -12.6647700089       -8.7142336101  MEMB      213             0.0000000000
     26479       213  PMPE      H7X             2.3468464367      -13.7239544387       -8.8120715241  MEMB      213             0.0000000000
     26480       213  PMPE      H7Y             1.7961935856      -12.0364835888       -8.2724668807  MEMB      213             0.0000000000
     26481       213  PMPE      C38             3.8935606857      -12.6287319303       -7.8233713024  MEMB      213             0.0000000000
     26482       213  PMPE      H8X             4.1246032466      -11.6258319921       -7.3633873868  MEMB      213             0.0000000000
     26483       213  PMPE      H8Y             4.8030025103      -12.9017110007       -8.4204989072  MEMB      213             0.0000000000
     26484       213  PMPE      C39             3.7801539175      -13.2507340206       -6.4761633665  MEMB      213             0.0000000000
     26485       213  PMPE      H9X             4.5885921597      -12.9227576725       -5.8571320646  MEMB      213             0.0000000000
     26486       213  PMPE      H9Y             3.9329395071      -14.3190786879       -6.5338363297  MEMB      213             0.0000000000
     26487       213  PMPE      C310            2.5633592568      -12.7623804074       -5.7213001286  MEMB      213             0.0000000000
     26488       213  PMPE      H10X            1.6409738985      -12.9965537030       -6.2697431498  MEMB      213             0.0000000000
     26489       213  PMPE      H10Y            2.6749240275      -11.6568193786       -5.5988956248  MEMB      213             0.0000000000
     26490       213  PMPE      C311            2.3966206976      -13.3954833728       -4.3717927163  MEMB      213             0.0000000000
     26491       213  PMPE      H11X            1.5934843869      -12.9188104675       -3.8878641715  MEMB      213             0.0000000000
     26492       213  PMPE      H11Y            3.2641002112      -13.1718022159       -3.8288444410  MEMB      213             0.0000000000
     26493       213  PMPE      C312            2.2196642821      -14.8807364946       -4.3559153282  MEMB      213             0.0000000000
     26494       213  PMPE      H12X            3.0611638662      -15.2760388481       -4.9569511782  MEMB      213             0.0000000000
     26495       213  PMPE      H12Y            1.3237290069      -15.1714044205       -4.9089050127  MEMB      213             0.0000000000
     26496       213  PMPE      C313            2.2361204964      -15.5023058793       -2.9644198527  MEMB      213             0.0000000000
     26497       213  PMPE      H13X            1.4887100810      -15.1252666040       -2.2463387466  MEMB      213             0.0000000000
     26498       213  PMPE      H13Y            3.2256573896      -15.2218324292       -2.5335649453  MEMB      213             0.0000000000
     26499       213  PMPE      C314            1.9407154663      -16.9710569114       -3.1428266058  MEMB      213             0.0000000000
     26500       213  PMPE      H14X            2.3455686945      -17.2209702148       -4.1446351824  MEMB      213             0.0000000000
     26501       213  PMPE      H14Y            0.8685857270      -17.2252199168       -3.1232371484  MEMB      213             0.0000000000
     26502       213  PMPE      C315            2.6142545338      -17.7623627553       -2.1416234854  MEMB      213             0.0000000000
     26503       213  PMPE      H15X            2.4276751672      -17.5484284176       -1.0693292584  MEMB      213             0.0000000000
     26504       213  PMPE      H15Y            3.6120193929      -17.8446135328       -2.5366107576  MEMB      213             0.0000000000
     26505       213  PMPE      C316            2.6040387810      -19.0638912817       -2.2094471997  MEMB      213             0.0000000000
     26506       213  PMPE      H16X            2.5807004573      -19.4854031833       -3.2017580799  MEMB      213             0.0000000000
     26507       213  PMPE      H16Y            1.6600444641      -19.2429516299       -1.6149968625  MEMB      213             0.0000000000
     26508       213  PMPE      H16Z            3.4263649305      -19.6596969601       -1.7456448511  MEMB      213             0.0000000000
     26509       214  PYPG      C13           -13.3948698854       -1.9360872782      -19.3118551836  MEMB      214             0.0000000000
     26510       214  PYPG      H13A          -13.1192429553       -2.0266813007      -18.2386073808  MEMB      214             0.0000000000
     26511       214  PYPG      H13B          -12.6318186523       -2.4260494377      -19.9664816404  MEMB      214             0.0000000000
     26512       214  PYPG      OC3           -13.4399768111       -0.5201247779      -19.5379638151  MEMB      214             0.0000000000
     26513       214  PYPG      HO3           -12.7457842372       -0.3200269861      -20.1779101538  MEMB      214             0.0000000000
     26514       214  PYPG      C12           -14.7576742734       -2.6413987995      -19.5804598709  MEMB      214             0.0000000000
     26515       214  PYPG      H12A          -14.6802425259       -3.7112898361      -19.2896941359  MEMB      214             0.0000000000
     26516       214  PYPG      OC2           -15.0810960739       -2.6017912033      -20.9692635149  MEMB      214             0.0000000000
     26517       214  PYPG      HO2           -16.0093145025       -2.8719037457      -20.9901779487  MEMB      214             0.0000000000
     26518       214  PYPG      C11           -15.9030202402       -2.0080227633      -18.7691343390  MEMB      214             0.0000000000
     26519       214  PYPG      H11A          -15.8768587025       -0.9221441611      -18.9637781253  MEMB      214             0.0000000000
     26520       214  PYPG      H11B          -15.7134739342       -2.0972876444      -17.6757649417  MEMB      214             0.0000000000
     26521       214  PYPG      P             -18.4400105144       -1.9533757962      -18.4191743428  MEMB      214             0.0000000000
     26522       214  PYPG      O13           -19.6179460797       -2.5579718178      -19.0600524741  MEMB      214             0.0000000000
     26523       214  PYPG      O14           -18.3753993093       -0.4926953586      -18.2338589752  MEMB      214             0.0000000000
     26524       214  PYPG      O11           -18.1878170705       -2.5610499146      -16.9736168302  MEMB      214             0.0000000000
     26525       214  PYPG      O12           -17.1645067093       -2.5307258937      -19.1703383409  MEMB      214             0.0000000000
     26526       214  PYPG      C1            -18.8969598952       -3.7200333846      -16.5862656477  MEMB      214             0.0000000000
     26527       214  PYPG      HA            -18.3046231040       -4.5745890804      -16.9578317744  MEMB      214             0.0000000000
     26528       214  PYPG      HB            -19.9202526813       -3.7959798364      -17.0457297019  MEMB      214             0.0000000000
     26529       214  PYPG      C2            -18.9854347084       -3.8389703720      -15.0356656855  MEMB      214             0.0000000000
     26530       214  PYPG      HS            -19.7819327868       -4.5708748985      -14.7679546191  MEMB      214             0.0000000000
     26531       214  PYPG      O21           -19.2322917406       -2.6236109783      -14.3345774829  MEMB      214             0.0000000000
     26532       214  PYPG      C21           -20.3117777183       -2.0018715795      -14.6427600881  MEMB      214             0.0000000000
     26533       214  PYPG      O22           -21.3097864191       -2.4170677036      -15.2073465629  MEMB      214             0.0000000000
     26534       214  PYPG      C22           -20.2447549326       -0.7540737679      -13.8415077598  MEMB      214             0.0000000000
     26535       214  PYPG      H2R           -19.9020574185        0.1185043897      -14.3673466578  MEMB      214             0.0000000000
     26536       214  PYPG      H2S           -19.6242993786       -0.9127874038      -12.9464576374  MEMB      214             0.0000000000
     26537       214  PYPG      C3            -17.6603533686       -4.3638150559      -14.4347251792  MEMB      214             0.0000000000
     26538       214  PYPG      HX            -17.3557992988       -5.3227352709      -14.9149564809  MEMB      214             0.0000000000
     26539       214  PYPG      HY            -17.9292427861       -4.6054947664      -13.3868709649  MEMB      214             0.0000000000
     26540       214  PYPG      O31           -16.6099868491       -3.3569903193      -14.3925318577  MEMB      214             0.0000000000
     26541       214  PYPG      C31           -15.4897183772       -3.9112348424      -13.9399342063  MEMB      214             0.0000000000
     26542       214  PYPG      O32           -15.2815443035       -5.1118020430      -13.9522359695  MEMB      214             0.0000000000
     26543       214  PYPG      C32           -14.5190812383       -2.8932879182      -13.3671512904  MEMB      214             0.0000000000
     26544       214  PYPG      H2X           -13.7698770849       -3.5325864397      -12.8435943718  MEMB      214             0.0000000000
     26545       214  PYPG      H2Y           -13.9929870963       -2.3590862816      -14.1830259070  MEMB      214             0.0000000000
     26546       214  PYPG      C23           -21.6069849559       -0.5168931549      -13.5472380045  MEMB      214             0.0000000000
     26547       214  PYPG      H3R           -22.0087147400       -1.5130298462      -13.3570134222  MEMB      214             0.0000000000
     26548       214  PYPG      H3S           -22.2842378469        0.2319650570      -14.0530380648  MEMB      214             0.0000000000
     26549       214  PYPG      C24           -21.6303679336       -0.0307249353      -12.3305493820  MEMB      214             0.0000000000
     26550       214  PYPG      H4R           -22.5913449577        0.6320119906      -12.2090240882  MEMB      214             0.0000000000
     26551       214  PYPG      H4S           -20.8293939914        0.6324117956      -12.2912380676  MEMB      214             0.0000000000
     26552       214  PYPG      C25           -21.0368410498       -1.0041010238      -11.3297854344  MEMB      214             0.0000000000
     26553       214  PYPG      H5R           -20.5909026683       -1.9032566830      -11.2308572683  MEMB      214             0.0000000000
     26554       214  PYPG      H5S           -21.9541645491       -1.6774779377      -11.3817043753  MEMB      214             0.0000000000
     26555       214  PYPG      C26           -20.4072241992       -0.3100392240      -10.1014927907  MEMB      214             0.0000000000
     26556       214  PYPG      H6R           -20.2416570048       -0.8334976185       -9.2998460333  MEMB      214             0.0000000000
     26557       214  PYPG      H6S           -20.9516701222        0.4031063305       -9.5164889044  MEMB      214             0.0000000000
     26558       214  PYPG      C27           -19.0617238177       -0.1587079058       -9.8508966945  MEMB      214             0.0000000000
     26559       214  PYPG      H7R           -18.8733622126        0.7024356884      -10.4246561001  MEMB      214             0.0000000000
     26560       214  PYPG      H7S           -18.8499328217       -1.1346702703      -10.3224443376  MEMB      214             0.0000000000
     26561       214  PYPG      C28           -18.5318086948       -0.2422523855       -8.4419206154  MEMB      214             0.0000000000
     26562       214  PYPG      H8R           -17.5274856366       -0.0151731538       -8.4988467356  MEMB      214             0.0000000000
     26563       214  PYPG      H8S           -18.5244603222       -1.1523594726       -7.9282461698  MEMB      214             0.0000000000
     26564       214  PYPG      C29           -18.5523311883        0.5118616528       -7.4051213035  MEMB      214             0.0000000000
     26565       214  PYPG      H9R           -18.7979657146        1.5668327032       -7.9175490281  MEMB      214             0.0000000000
     26566       214  PYPG      C210          -19.3176825042       -0.0287322633       -6.2757753816  MEMB      214             0.0000000000
     26567       214  PYPG      H10R          -20.7088913382        0.3064682491       -6.4771554255  MEMB      214             0.0000000000
     26568       214  PYPG      C211          -20.0796538012       -0.7675436961       -5.3821333866  MEMB      214             0.0000000000
     26569       214  PYPG      H11R          -20.1174341931       -1.5679741249       -5.8551181122  MEMB      214             0.0000000000
     26570       214  PYPG      H11S          -21.1245581462       -0.6215230774       -5.2585787387  MEMB      214             0.0000000000
     26571       214  PYPG      C212          -19.5792055834       -0.9763178265       -4.0947682668  MEMB      214             0.0000000000
     26572       214  PYPG      H12R          -18.7126242973       -1.6323608223       -4.2431699172  MEMB      214             0.0000000000
     26573       214  PYPG      H12S          -20.3388676055       -1.6377380604       -3.7034811951  MEMB      214             0.0000000000
     26574       214  PYPG      C213          -19.7638918899        0.2317197334       -3.2476786017  MEMB      214             0.0000000000
     26575       214  PYPG      H13R          -20.6512296539        0.8694181157       -3.2217802777  MEMB      214             0.0000000000
     26576       214  PYPG      H13S          -19.0626681926        0.9823086552       -3.6191931959  MEMB      214             0.0000000000
     26577       214  PYPG      C214          -19.6184670380       -0.1257389021       -1.8740620224  MEMB      214             0.0000000000
     26578       214  PYPG      H14R          -20.1046002439       -0.7316026422       -1.2820260517  MEMB      214             0.0000000000
     26579       214  PYPG      H14S          -18.6173989112       -0.7186257437       -1.8645741899  MEMB      214             0.0000000000
     26580       214  PYPG      C215          -20.1792283456        0.8885046541       -0.7194400899  MEMB      214             0.0000000000
     26581       214  PYPG      H15R          -20.1885416265        2.0051797114       -1.0541035893  MEMB      214             0.0000000000
     26582       214  PYPG      H15S          -19.6354584998        1.5143230808       -0.7069482235  MEMB      214             0.0000000000
     26583       214  PYPG      C216          -19.2862776983        0.5704807211        0.7221991126  MEMB      214             0.0000000000
     26584       214  PYPG      H16R          -18.7074931408        1.3362099008        0.9942957324  MEMB      214             0.0000000000
     26585       214  PYPG      H16S          -18.2271919179        0.1289858739        0.8847368921  MEMB      214             0.0000000000
     26586       214  PYPG      H16T          -20.1369352971        0.3407964422        1.0288989911  MEMB      214             0.0000000000
     26587       214  PYPG      C33           -15.2141925796       -1.8729370892      -12.4417364262  MEMB      214             0.0000000000
     26588       214  PYPG      H3X           -16.0252180217       -2.2989938302      -11.8202539506  MEMB      214             0.0000000000
     26589       214  PYPG      H3Y           -15.6852144621       -1.0613911503      -13.0439989017  MEMB      214             0.0000000000
     26590       214  PYPG      C34           -14.2265349935       -1.2475474361      -11.5040838499  MEMB      214             0.0000000000
     26591       214  PYPG      H4X           -14.6229874751       -0.2408040273      -11.2618078578  MEMB      214             0.0000000000
     26592       214  PYPG      H4Y           -13.3136843833       -1.0949196008      -12.0754620410  MEMB      214             0.0000000000
     26593       214  PYPG      C35           -13.9258674400       -2.1078542905      -10.2652007303  MEMB      214             0.0000000000
     26594       214  PYPG      H5X           -13.2664520375       -2.9556859052      -10.5182112677  MEMB      214             0.0000000000
     26595       214  PYPG      H5Y           -14.8533498339       -2.4692252250       -9.8422341074  MEMB      214             0.0000000000
     26596       214  PYPG      C36           -13.2534879588       -1.4210061780       -9.1364049048  MEMB      214             0.0000000000
     26597       214  PYPG      H6X           -13.5188962382       -0.3196842390       -9.2654026912  MEMB      214             0.0000000000
     26598       214  PYPG      H6Y           -12.1337915914       -1.6185040246       -9.2938500421  MEMB      214             0.0000000000
     26599       214  PYPG      C37           -13.5267052607       -1.7119112818       -7.6938086898  MEMB      214             0.0000000000
     26600       214  PYPG      H7X           -13.2660607083       -2.7668341661       -7.4759155329  MEMB      214             0.0000000000
     26601       214  PYPG      H7Y           -12.9503964309       -0.9865887648       -7.0584299456  MEMB      214             0.0000000000
     26602       214  PYPG      C38           -14.9644754095       -1.4943161529       -7.3025105401  MEMB      214             0.0000000000
     26603       214  PYPG      H8X           -15.6116281136       -2.0931560957       -7.9676169921  MEMB      214             0.0000000000
     26604       214  PYPG      H8Y           -15.2524634976       -0.4332800282       -7.4452999101  MEMB      214             0.0000000000
     26605       214  PYPG      C39           -15.1923044402       -2.0071080073       -5.8959497667  MEMB      214             0.0000000000
     26606       214  PYPG      H9X           -14.5626760636       -2.9201905445       -5.7080305069  MEMB      214             0.0000000000
     26607       214  PYPG      H9Y           -16.2427398277       -2.3511615240       -5.8213156821  MEMB      214             0.0000000000
     26608       214  PYPG      C310          -14.9547468604       -0.9727037290       -4.8436768031  MEMB      214             0.0000000000
     26609       214  PYPG      H10X          -15.7785243196       -0.2544792503       -4.6342062088  MEMB      214             0.0000000000
     26610       214  PYPG      H10Y          -14.0954722988       -0.2768354967       -5.0235786455  MEMB      214             0.0000000000
     26611       214  PYPG      C311          -14.7322997420       -1.7546845156       -3.6417337462  MEMB      214             0.0000000000
     26612       214  PYPG      H11X          -13.8696326397       -2.4708115692       -3.6464874980  MEMB      214             0.0000000000
     26613       214  PYPG      H11Y          -15.5661387962       -2.3461121920       -3.2018280243  MEMB      214             0.0000000000
     26614       214  PYPG      C312          -14.3116483439       -0.6255807877       -2.8684846714  MEMB      214             0.0000000000
     26615       214  PYPG      H12X          -13.8009297575       -0.7965218463       -2.1230297827  MEMB      214             0.0000000000
     26616       214  PYPG      H12Y          -13.5197804198       -0.0687525067       -3.1039339625  MEMB      214             0.0000000000
     26617       214  PYPG      C313          -14.9817439440        0.0669002286       -2.0074566231  MEMB      214             0.0000000000
     26618       214  PYPG      H13X          -15.3424101009        0.5225005448       -2.8377713401  MEMB      214             0.0000000000
     26619       214  PYPG      H13Y          -15.7926203738       -0.5436608774       -1.4329356430  MEMB      214             0.0000000000
     26620       214  PYPG      C314          -14.3825402932        1.2884530125       -1.1088058402  MEMB      214             0.0000000000
     26621       214  PYPG      H14X          -15.1607543602        1.4051220320       -0.4539452642  MEMB      214             0.0000000000
     26622       214  PYPG      H14Y          -13.7768783066        1.1760337111       -0.1983047881  MEMB      214             0.0000000000
     26623       214  PYPG      C315          -13.4753664229        2.2899435014       -1.5585564907  MEMB      214             0.0000000000
     26624       214  PYPG      H15X          -13.0063511111        2.8763848956       -0.7353161689  MEMB      214             0.0000000000
     26625       214  PYPG      H15Y          -12.7383767563        1.7726464544       -2.1243970715  MEMB      214             0.0000000000
     26626       214  PYPG      C316          -14.1013368628        3.1427941558       -2.4454939151  MEMB      214             0.0000000000
     26627       214  PYPG      H16X          -13.4196322985        3.8417819611       -2.8117896886  MEMB      214             0.0000000000
     26628       214  PYPG      H16Y          -14.7829347807        3.7109107247       -1.8255316967  MEMB      214             0.0000000000
     26629       214  PYPG      H16Z          -14.6045315432        2.6541337477       -3.3077130838  MEMB      214             0.0000000000
     26630       215  PMPE      N              15.6665962867        2.9954302062      -19.6601961027  MEMB      215             0.0000000000
     26631       215  PMPE      HN1            16.3372378941        2.5281427864      -20.3199419089  MEMB      215             0.0000000000
     26632       215  PMPE      HN2            14.7031888091        2.8281866484      -20.0129487508  MEMB      215             0.0000000000
     26633       215  PMPE      HN3            15.8922007743        4.0064474592      -19.5722667766  MEMB      215             0.0000000000
     26634       215  PMPE      C12            15.9110018099        2.4826242451      -18.2641009400  MEMB      215             0.0000000000
     26635       215  PMPE      H12A           15.3205988615        3.0942473293      -17.5440968098  MEMB      215             0.0000000000
     26636       215  PMPE      H12B           16.9873349222        2.6603412737      -18.0654385203  MEMB      215             0.0000000000
     26637       215  PMPE      C11            15.6396566839        0.9785388233      -18.0652199809  MEMB      215             0.0000000000
     26638       215  PMPE      H11A           14.5564323856        0.8182796970      -17.8623778969  MEMB      215             0.0000000000
     26639       215  PMPE      H11B           16.1404211619        0.6788630524      -17.1216641955  MEMB      215             0.0000000000
     26640       215  PMPE      P              17.6111515658       -0.3234943086      -19.2787916386  MEMB      215             0.0000000000
     26641       215  PMPE      O13            18.4732153784        0.8645761084      -19.4310670769  MEMB      215             0.0000000000
     26642       215  PMPE      O14            17.6571598958       -1.3911137276      -20.3047727352  MEMB      215             0.0000000000
     26643       215  PMPE      O11            17.9301385893       -0.9548649758      -17.8762488282  MEMB      215             0.0000000000
     26644       215  PMPE      O12            16.0848807028        0.1530204166      -19.1435586419  MEMB      215             0.0000000000
     26645       215  PMPE      C1             17.3301735177       -2.1999814704      -17.5648206870  MEMB      215             0.0000000000
     26646       215  PMPE      HA             17.9121736871       -2.9817640031      -18.1047241555  MEMB      215             0.0000000000
     26647       215  PMPE      HB             16.3054777802       -2.3495045667      -17.9548827632  MEMB      215             0.0000000000
     26648       215  PMPE      C2             17.1760440174       -2.2302362489      -16.0382465201  MEMB      215             0.0000000000
     26649       215  PMPE      HS             16.4439181184       -1.5981847262      -15.5727534181  MEMB      215             0.0000000000
     26650       215  PMPE      O21            18.5202991578       -2.0883965827      -15.5110592057  MEMB      215             0.0000000000
     26651       215  PMPE      C21            18.6109556489       -1.4441608462      -14.3685041955  MEMB      215             0.0000000000
     26652       215  PMPE      O22            17.6681515279       -0.8914060030      -13.8352545099  MEMB      215             0.0000000000
     26653       215  PMPE      C22            20.0087785722       -1.6878551548      -13.7044854309  MEMB      215             0.0000000000
     26654       215  PMPE      H2R            20.6139258935       -1.1701690884      -14.1780765219  MEMB      215             0.0000000000
     26655       215  PMPE      H2S            20.6433778741       -2.5306326480      -14.0297622227  MEMB      215             0.0000000000
     26656       215  PMPE      C3             16.4442583929       -3.4790389267      -15.5977586092  MEMB      215             0.0000000000
     26657       215  PMPE      HX             16.8958460783       -4.3295311267      -15.8974702914  MEMB      215             0.0000000000
     26658       215  PMPE      HY             15.7413974550       -3.9881634591      -16.1833978167  MEMB      215             0.0000000000
     26659       215  PMPE      O31            16.1052622165       -3.4849555635      -14.2477777200  MEMB      215             0.0000000000
     26660       215  PMPE      C31            14.8877016884       -3.4206776788      -13.8527020207  MEMB      215             0.0000000000
     26661       215  PMPE      O32            13.9627280415       -3.0994420070      -14.5434066761  MEMB      215             0.0000000000
     26662       215  PMPE      C32            14.6275361946       -3.7747177705      -12.4230201289  MEMB      215             0.0000000000
     26663       215  PMPE      H2X            15.0455045632       -4.7686786198      -12.2840056550  MEMB      215             0.0000000000
     26664       215  PMPE      H2Y            13.9441855089       -4.5036527238      -12.0212855888  MEMB      215             0.0000000000
     26665       215  PMPE      C23            20.1524625168       -1.4732311960      -12.2093708290  MEMB      215             0.0000000000
     26666       215  PMPE      H3R            21.1845606004       -1.5641021746      -11.9665247536  MEMB      215             0.0000000000
     26667       215  PMPE      H3S            19.8443610597       -2.3863588787      -11.7198636366  MEMB      215             0.0000000000
     26668       215  PMPE      C24            19.3455884547       -0.3287060424      -11.6230808074  MEMB      215             0.0000000000
     26669       215  PMPE      H4R            18.3329012575       -0.7790928499      -11.4848605667  MEMB      215             0.0000000000
     26670       215  PMPE      H4S            19.3013332378        0.4752285096      -12.3883685285  MEMB      215             0.0000000000
     26671       215  PMPE      C25            19.8213934535        0.2839739018      -10.3013206737  MEMB      215             0.0000000000
     26672       215  PMPE      H5R            19.1086173251        1.0749304912       -9.9615645538  MEMB      215             0.0000000000
     26673       215  PMPE      H5S            20.7939736725        0.7710991333      -10.4856491030  MEMB      215             0.0000000000
     26674       215  PMPE      C26            20.0370158542       -0.7266733772       -9.1832663008  MEMB      215             0.0000000000
     26675       215  PMPE      H6R            20.5665311698       -1.6302058327       -9.5785322969  MEMB      215             0.0000000000
     26676       215  PMPE      H6S            19.0358318192       -1.0221587245       -8.8076150757  MEMB      215             0.0000000000
     26677       215  PMPE      C27            20.7853274602       -0.1449569938       -7.9806644919  MEMB      215             0.0000000000
     26678       215  PMPE      H7R            20.6765199569        0.9577152996       -7.8705664962  MEMB      215             0.0000000000
     26679       215  PMPE      H7S            21.8565868888       -0.3252224305       -8.1600645425  MEMB      215             0.0000000000
     26680       215  PMPE      C28            20.3528748918       -0.8194226408       -6.6726629653  MEMB      215             0.0000000000
     26681       215  PMPE      H8R            19.2722798132       -1.0316489980       -6.6246328360  MEMB      215             0.0000000000
     26682       215  PMPE      H8S            20.6494458674       -0.1614045884       -5.8300777245  MEMB      215             0.0000000000
     26683       215  PMPE      C29            21.1023435671       -2.0857792693       -6.4829081678  MEMB      215             0.0000000000
     26684       215  PMPE      H9R            22.1225688797       -2.0014713888       -6.5390616206  MEMB      215             0.0000000000
     26685       215  PMPE      C217           20.6160335029       -3.2564874786       -7.1795349012  MEMB      215             0.0000000000
     26686       215  PMPE      H17R           21.3709208198       -3.8228830403       -7.7436327375  MEMB      215             0.0000000000
     26687       215  PMPE      H17S           19.6395601005       -3.0246287098       -7.5490644071  MEMB      215             0.0000000000
     26688       215  PMPE      C210           20.6072640781       -3.2423573257       -5.6858444405  MEMB      215             0.0000000000
     26689       215  PMPE      H10R           21.3818154387       -3.8149828280       -5.2461246457  MEMB      215             0.0000000000
     26690       215  PMPE      C211           19.2303893311       -3.2210774216       -5.0463459111  MEMB      215             0.0000000000
     26691       215  PMPE      H11R           18.9669360953       -4.2515681184       -4.7334284137  MEMB      215             0.0000000000
     26692       215  PMPE      H11S           18.4798888290       -2.9456797371       -5.7991297749  MEMB      215             0.0000000000
     26693       215  PMPE      C212           19.0734342936       -2.3453150021       -3.8133049585  MEMB      215             0.0000000000
     26694       215  PMPE      H12R           18.0031943632       -2.3476696511       -3.5427369319  MEMB      215             0.0000000000
     26695       215  PMPE      H12S           19.3450259411       -1.2861292238       -3.9698235462  MEMB      215             0.0000000000
     26696       215  PMPE      C213           19.7891643951       -3.0330185772       -2.6989019050  MEMB      215             0.0000000000
     26697       215  PMPE      H13R           20.8524802693       -3.0247292751       -2.9438598954  MEMB      215             0.0000000000
     26698       215  PMPE      H13S           19.4266152417       -4.0246476277       -2.4497987064  MEMB      215             0.0000000000
     26699       215  PMPE      C214           19.5968420938       -2.4159307492       -1.3873915316  MEMB      215             0.0000000000
     26700       215  PMPE      H14R           18.6955899421       -1.9671211823       -1.0840680324  MEMB      215             0.0000000000
     26701       215  PMPE      H14S           20.1722305310       -1.6822946978       -1.7887166252  MEMB      215             0.0000000000
     26702       215  PMPE      C215           19.9122006971       -2.8701345771        0.0377229898  MEMB      215             0.0000000000
     26703       215  PMPE      H15R           20.8140356819       -3.1369581472        0.3088446791  MEMB      215             0.0000000000
     26704       215  PMPE      H15S           19.5545007900       -3.8413554906        0.2080064407  MEMB      215             0.0000000000
     26705       215  PMPE      C216           20.8907451674       -2.3143129665        1.0947507240  MEMB      215             0.0000000000
     26706       215  PMPE      H16R           19.9999356421       -1.8215167518        1.4709099546  MEMB      215             0.0000000000
     26707       215  PMPE      H16S           21.3484582998       -2.7601609075        1.8776347489  MEMB      215             0.0000000000
     26708       215  PMPE      H16T           21.7905707689       -1.7820003377        0.7938771122  MEMB      215             0.0000000000
     26709       215  PMPE      C33            14.8698224493       -2.5863566517      -11.4104438736  MEMB      215             0.0000000000
     26710       215  PMPE      H3X            15.7870851521       -1.9216743675      -11.4640715453  MEMB      215             0.0000000000
     26711       215  PMPE      H3Y            14.8820514260       -2.9935564823      -10.3581981778  MEMB      215             0.0000000000
     26712       215  PMPE      C34            13.7386012643       -1.7155347009      -11.5596021041  MEMB      215             0.0000000000
     26713       215  PMPE      H4X            12.8942415697       -2.2846837543      -11.1146000010  MEMB      215             0.0000000000
     26714       215  PMPE      H4Y            13.5759230814       -1.5862323739      -12.6476208212  MEMB      215             0.0000000000
     26715       215  PMPE      C35            13.9902547582       -0.3872257593      -10.8759215362  MEMB      215             0.0000000000
     26716       215  PMPE      H5X            12.9658740243        0.0058202320      -10.8145381924  MEMB      215             0.0000000000
     26717       215  PMPE      H5Y            14.5798015496        0.3293679787      -11.4954195484  MEMB      215             0.0000000000
     26718       215  PMPE      C36            14.5583514241       -0.5150193130       -9.4449208397  MEMB      215             0.0000000000
     26719       215  PMPE      H6X            15.5817835524       -0.9483044290       -9.4961988254  MEMB      215             0.0000000000
     26720       215  PMPE      H6Y            13.8885145432       -1.2157211794       -8.8869426429  MEMB      215             0.0000000000
     26721       215  PMPE      C37            14.6543306690        0.8275399957       -8.6907672390  MEMB      215             0.0000000000
     26722       215  PMPE      H7X            13.6558654595        1.3129974483       -8.7730483974  MEMB      215             0.0000000000
     26723       215  PMPE      H7Y            15.4209908451        1.4894227117       -9.1440853254  MEMB      215             0.0000000000
     26724       215  PMPE      C38            14.9429859599        0.7412741370       -7.1876354345  MEMB      215             0.0000000000
     26725       215  PMPE      H8X            14.2351990359       -0.0008847756       -6.7686775332  MEMB      215             0.0000000000
     26726       215  PMPE      H8Y            14.7674903188        1.7263487679       -6.6980827457  MEMB      215             0.0000000000
     26727       215  PMPE      C39            16.3441107447        0.3176718218       -6.7664440805  MEMB      215             0.0000000000
     26728       215  PMPE      H9X            17.0649504288        1.0996305450       -7.0913644829  MEMB      215             0.0000000000
     26729       215  PMPE      H9Y            16.5912415525       -0.6003901350       -7.3473452070  MEMB      215             0.0000000000
     26730       215  PMPE      C310           16.3124871504        0.0125630694       -5.2377930853  MEMB      215             0.0000000000
     26731       215  PMPE      H10X           17.1524796645       -0.6337706874       -4.9437676801  MEMB      215             0.0000000000
     26732       215  PMPE      H10Y           15.4709720637       -0.6997174706       -5.1112908054  MEMB      215             0.0000000000
     26733       215  PMPE      C311           16.0542165902        1.2084391281       -4.2586114108  MEMB      215             0.0000000000
     26734       215  PMPE      H11X           15.8683956373        0.8732154566       -3.2099112832  MEMB      215             0.0000000000
     26735       215  PMPE      H11Y           15.1105117150        1.7049600240       -4.5959823306  MEMB      215             0.0000000000
     26736       215  PMPE      C312           17.1563220107        2.3036668965       -4.2247265965  MEMB      215             0.0000000000
     26737       215  PMPE      H12X           16.7235575180        3.2549661936       -3.8321029894  MEMB      215             0.0000000000
     26738       215  PMPE      H12Y           17.4645828532        2.4526031073       -5.2774928260  MEMB      215             0.0000000000
     26739       215  PMPE      C313           18.4438173036        1.9930718167       -3.4237055470  MEMB      215             0.0000000000
     26740       215  PMPE      H13X           19.3492176541        1.9691705936       -4.0851918003  MEMB      215             0.0000000000
     26741       215  PMPE      H13Y           18.2965560852        0.9568311396       -3.0639834243  MEMB      215             0.0000000000
     26742       215  PMPE      C314           18.7188850387        2.9427751794       -2.2214582808  MEMB      215             0.0000000000
     26743       215  PMPE      H14X           17.7963356295        3.0322080609       -1.6325178855  MEMB      215             0.0000000000
     26744       215  PMPE      H14Y           19.1225972217        3.9112588860       -2.5867587258  MEMB      215             0.0000000000
     26745       215  PMPE      C315           19.7587775018        2.6045585951       -1.2001739958  MEMB      215             0.0000000000
     26746       215  PMPE      H15X           19.3634246640        1.7905033696       -0.5414333807  MEMB      215             0.0000000000
     26747       215  PMPE      H15Y           20.0689349044        3.3327916632       -0.4763838653  MEMB      215             0.0000000000
     26748       215  PMPE      C316           21.0946232585        2.5736338852       -1.8802858744  MEMB      215             0.0000000000
     26749       215  PMPE      H16X           21.4459660113        2.7030660250       -2.8849406305  MEMB      215             0.0000000000
     26750       215  PMPE      H16Y           20.5877644477        1.7916065679       -2.2373068476  MEMB      215             0.0000000000
     26751       215  PMPE      H16Z           21.9126169359        2.0670426805       -1.2996304061  MEMB      215             0.0000000000
     26752       216  PMPE      N              -9.6778498506       10.7000235704      -20.7698939547  MEMB      216             0.0000000000
     26753       216  PMPE      HN1           -10.2114171497       10.0623834628      -21.3828306458  MEMB      216             0.0000000000
     26754       216  PMPE      HN2            -8.8216880096       11.0041518820      -21.2634004899  MEMB      216             0.0000000000
     26755       216  PMPE      HN3            -9.4596887502       10.2001996398      -19.8799891475  MEMB      216             0.0000000000
     26756       216  PMPE      C12           -10.6003354769       11.8361093131      -20.4673675302  MEMB      216             0.0000000000
     26757       216  PMPE      H12A          -11.4856997898       11.3325962085      -20.0298455709  MEMB      216             0.0000000000
     26758       216  PMPE      H12B          -10.8986517512       12.2861470300      -21.4411519010  MEMB      216             0.0000000000
     26759       216  PMPE      C11            -9.8602750181       12.7690648355      -19.4929105697  MEMB      216             0.0000000000
     26760       216  PMPE      H11A           -8.8699927477       13.0134212468      -19.9546962640  MEMB      216             0.0000000000
     26761       216  PMPE      H11B           -9.6685302187       12.2470537839      -18.5278233276  MEMB      216             0.0000000000
     26762       216  PMPE      P              -9.9050240438       15.0976883298      -18.2847525739  MEMB      216             0.0000000000
     26763       216  PMPE      O13           -10.1927199879       16.4153354749      -18.8357694899  MEMB      216             0.0000000000
     26764       216  PMPE      O14            -8.4738434326       14.7554328116      -18.1363915468  MEMB      216             0.0000000000
     26765       216  PMPE      O11           -10.6468133914       14.9613637259      -16.8870247682  MEMB      216             0.0000000000
     26766       216  PMPE      O12           -10.5973041604       13.9472397783      -19.2065233884  MEMB      216             0.0000000000
     26767       216  PMPE      C1            -12.0824305266       15.0191065007      -16.9578988846  MEMB      216             0.0000000000
     26768       216  PMPE      HA            -12.4826208302       14.2546475650      -17.6602915680  MEMB      216             0.0000000000
     26769       216  PMPE      HB            -12.4307033470       16.0427261068      -17.2511651030  MEMB      216             0.0000000000
     26770       216  PMPE      C2            -12.7413860562       14.6822238114      -15.6176517068  MEMB      216             0.0000000000
     26771       216  PMPE      HS            -13.8348494935       14.5826724213      -15.7697355540  MEMB      216             0.0000000000
     26772       216  PMPE      O21           -12.4829251169       15.7584860749      -14.7580328389  MEMB      216             0.0000000000
     26773       216  PMPE      C21           -13.0825107770       15.6488480614      -13.6317653761  MEMB      216             0.0000000000
     26774       216  PMPE      O22           -14.2750760854       15.4188950851      -13.4441856868  MEMB      216             0.0000000000
     26775       216  PMPE      C22           -12.1825783805       16.4535649334      -12.7329863025  MEMB      216             0.0000000000
     26776       216  PMPE      H2R           -13.0935737576       16.6482964785      -11.9539769106  MEMB      216             0.0000000000
     26777       216  PMPE      H2S           -11.6533142932       17.4094026060      -13.3711750237  MEMB      216             0.0000000000
     26778       216  PMPE      C3            -12.2081722757       13.3695020578      -14.9866942783  MEMB      216             0.0000000000
     26779       216  PMPE      HX            -12.2688709932       12.5953497052      -15.7794299879  MEMB      216             0.0000000000
     26780       216  PMPE      HY            -12.9019569427       13.0360413842      -14.1734822522  MEMB      216             0.0000000000
     26781       216  PMPE      O31           -10.8591482536       13.6008305410      -14.4969830051  MEMB      216             0.0000000000
     26782       216  PMPE      C31            -9.9355595062       12.6701833002      -14.7042895135  MEMB      216             0.0000000000
     26783       216  PMPE      O32           -10.1522098062       11.5640606851      -15.1542470959  MEMB      216             0.0000000000
     26784       216  PMPE      C32            -8.5677427437       13.0973172315      -14.1400649779  MEMB      216             0.0000000000
     26785       216  PMPE      H2X            -8.4721456466       14.1959076229      -14.0616713844  MEMB      216             0.0000000000
     26786       216  PMPE      H2Y            -7.7723300919       12.7146738002      -14.8293968037  MEMB      216             0.0000000000
     26787       216  PMPE      C23           -10.7622543971       16.4774286299      -12.1717823346  MEMB      216             0.0000000000
     26788       216  PMPE      H3R           -10.1765366580       16.3840003460      -13.0912943818  MEMB      216             0.0000000000
     26789       216  PMPE      H3S           -11.0257935704       15.5886789946      -11.6490355826  MEMB      216             0.0000000000
     26790       216  PMPE      C24           -10.1099146254       17.5853917854      -11.1813680126  MEMB      216             0.0000000000
     26791       216  PMPE      H4R           -10.6430730246       18.3241482864      -10.5210776200  MEMB      216             0.0000000000
     26792       216  PMPE      H4S            -9.6839063524       18.4188636662      -11.7285951807  MEMB      216             0.0000000000
     26793       216  PMPE      C25            -9.6171078817       16.9842367931       -9.9720279559  MEMB      216             0.0000000000
     26794       216  PMPE      H5R           -10.0331986193       15.9612453077      -10.0008404810  MEMB      216             0.0000000000
     26795       216  PMPE      H5S            -9.9655102614       17.4493637922       -9.0080689530  MEMB      216             0.0000000000
     26796       216  PMPE      C26            -8.1503559863       17.0345305034      -10.1927329233  MEMB      216             0.0000000000
     26797       216  PMPE      H6R            -7.8058086242       18.0529449759      -10.5034887000  MEMB      216             0.0000000000
     26798       216  PMPE      H6S            -7.8881871479       16.3714788670      -11.0491937606  MEMB      216             0.0000000000
     26799       216  PMPE      C27            -7.5326800217       16.5677051033       -8.8986817493  MEMB      216             0.0000000000
     26800       216  PMPE      H7R            -8.0376606932       17.0398172270       -8.0369237240  MEMB      216             0.0000000000
     26801       216  PMPE      H7S            -6.5030821824       16.9375812976       -8.8358718213  MEMB      216             0.0000000000
     26802       216  PMPE      C28            -7.6923222874       15.0553354841       -8.6565306647  MEMB      216             0.0000000000
     26803       216  PMPE      H8R            -7.2836168237       14.4951267530       -9.5251610828  MEMB      216             0.0000000000
     26804       216  PMPE      H8S            -8.7624086460       14.7701100175       -8.6143039968  MEMB      216             0.0000000000
     26805       216  PMPE      C29            -7.0477561881       14.6309217423       -7.3324767549  MEMB      216             0.0000000000
     26806       216  PMPE      H9R            -5.9541810445       14.4586596661       -7.2767876163  MEMB      216             0.0000000000
     26807       216  PMPE      C217           -7.8090141461       13.6588628918       -6.4342406747  MEMB      216             0.0000000000
     26808       216  PMPE      H17R           -7.1187020036       12.9980078745       -5.9384640588  MEMB      216             0.0000000000
     26809       216  PMPE      H17S           -8.8514722237       13.4474378769       -6.6274217538  MEMB      216             0.0000000000
     26810       216  PMPE      C210           -7.5814642188       15.0971627100       -5.9956370879  MEMB      216             0.0000000000
     26811       216  PMPE      H10R           -6.7843742832       15.2388158500       -5.2535289639  MEMB      216             0.0000000000
     26812       216  PMPE      C211           -8.8396607696       15.9108095679       -5.7702120410  MEMB      216             0.0000000000
     26813       216  PMPE      H11R           -9.7188009800       15.6005357381       -6.3424420088  MEMB      216             0.0000000000
     26814       216  PMPE      H11S           -8.5979984983       16.9352102003       -6.0768944589  MEMB      216             0.0000000000
     26815       216  PMPE      C212           -9.2113454355       15.8768412785       -4.2842489118  MEMB      216             0.0000000000
     26816       216  PMPE      H12R           -9.6724648219       16.8248563502       -4.1606722418  MEMB      216             0.0000000000
     26817       216  PMPE      H12S           -8.2826630622       15.8719360563       -3.7050485430  MEMB      216             0.0000000000
     26818       216  PMPE      C213          -10.0500586715       14.6958647386       -3.7939069511  MEMB      216             0.0000000000
     26819       216  PMPE      H13R           -9.2874221309       13.9119606661       -3.6148866601  MEMB      216             0.0000000000
     26820       216  PMPE      H13S          -10.6844372999       14.3284054531       -4.6146343553  MEMB      216             0.0000000000
     26821       216  PMPE      C214          -10.9380908981       14.8065153409       -2.5328952760  MEMB      216             0.0000000000
     26822       216  PMPE      H14R          -11.1747288405       13.7695603781       -2.2866515165  MEMB      216             0.0000000000
     26823       216  PMPE      H14S          -11.9058496930       15.2924328687       -2.7090848233  MEMB      216             0.0000000000
     26824       216  PMPE      C215          -10.2583340193       15.2374186361       -1.2441017612  MEMB      216             0.0000000000
     26825       216  PMPE      H15R           -9.9808864266       16.3065386805       -1.3133777310  MEMB      216             0.0000000000
     26826       216  PMPE      H15S           -9.3384860089       14.6329766929       -1.1739315203  MEMB      216             0.0000000000
     26827       216  PMPE      C216          -11.0608158407       15.0312908274        0.0458972835  MEMB      216             0.0000000000
     26828       216  PMPE      H16R          -11.9203658191       15.6999981349        0.0537627614  MEMB      216             0.0000000000
     26829       216  PMPE      H16S          -11.5134813354       14.0524420757        0.1818712677  MEMB      216             0.0000000000
     26830       216  PMPE      H16T          -10.4615489641       15.3554309748        0.9283336642  MEMB      216             0.0000000000
     26831       216  PMPE      C33            -8.3455689710       12.4858124084      -12.7303140402  MEMB      216             0.0000000000
     26832       216  PMPE      H3X            -7.4900630745       12.9682792931      -12.2052990315  MEMB      216             0.0000000000
     26833       216  PMPE      H3Y            -8.0509903219       11.4293330704      -12.9080272541  MEMB      216             0.0000000000
     26834       216  PMPE      C34            -9.5412922031       12.5737859555      -11.7479665392  MEMB      216             0.0000000000
     26835       216  PMPE      H4X           -10.4489527163       12.1100510552      -12.1711082676  MEMB      216             0.0000000000
     26836       216  PMPE      H4Y            -9.8383519785       13.6261130817      -11.5925485964  MEMB      216             0.0000000000
     26837       216  PMPE      C35            -9.1864621863       11.9461443578      -10.3929102511  MEMB      216             0.0000000000
     26838       216  PMPE      H5X            -8.1649824459       12.3157596793      -10.1105211865  MEMB      216             0.0000000000
     26839       216  PMPE      H5Y            -9.1875823522       10.8493548108      -10.5020107080  MEMB      216             0.0000000000
     26840       216  PMPE      C36           -10.0522334066       12.3156942345       -9.1874483971  MEMB      216             0.0000000000
     26841       216  PMPE      H6X           -10.1686178796       13.4064472654       -9.1893385759  MEMB      216             0.0000000000
     26842       216  PMPE      H6Y            -9.4300633315       11.9826787333       -8.3168205582  MEMB      216             0.0000000000
     26843       216  PMPE      C37           -11.4683820134       11.7566310207       -9.0437802091  MEMB      216             0.0000000000
     26844       216  PMPE      H7X           -11.7265703347       11.7914155797       -7.9631862968  MEMB      216             0.0000000000
     26845       216  PMPE      H7Y           -11.5082244431       10.7077434190       -9.3994363283  MEMB      216             0.0000000000
     26846       216  PMPE      C38           -12.6203890294       12.5445975576       -9.6910467503  MEMB      216             0.0000000000
     26847       216  PMPE      H8X           -13.5540397536       12.0322711901       -9.3712428741  MEMB      216             0.0000000000
     26848       216  PMPE      H8Y           -12.5019445531       12.4302503241      -10.7835920106  MEMB      216             0.0000000000
     26849       216  PMPE      C39           -12.7682924007       14.0334130035       -9.3995956805  MEMB      216             0.0000000000
     26850       216  PMPE      H9X           -13.3933153364       14.5211446082      -10.1884474059  MEMB      216             0.0000000000
     26851       216  PMPE      H9Y           -11.7720622989       14.5311308251       -9.4446433669  MEMB      216             0.0000000000
     26852       216  PMPE      C310          -13.4268314239       14.3700470331       -8.0891654127  MEMB      216             0.0000000000
     26853       216  PMPE      H10X          -13.1049818851       13.8066275080       -7.2089473852  MEMB      216             0.0000000000
     26854       216  PMPE      H10Y          -14.5458733346       14.3294254153       -8.0979332183  MEMB      216             0.0000000000
     26855       216  PMPE      C311          -12.9900386504       15.7348757535       -7.9519209803  MEMB      216             0.0000000000
     26856       216  PMPE      H11X          -13.7189021142       16.2329050192       -8.6063794224  MEMB      216             0.0000000000
     26857       216  PMPE      H11Y          -12.0562106202       16.2173000761       -8.2354083558  MEMB      216             0.0000000000
     26858       216  PMPE      C312          -12.8255105399       16.1661773592       -6.7070915172  MEMB      216             0.0000000000
     26859       216  PMPE      H12X          -12.2817000412       15.6208002348       -5.8614606242  MEMB      216             0.0000000000
     26860       216  PMPE      H12Y          -13.6739821475       15.8278876289       -5.7931246989  MEMB      216             0.0000000000
     26861       216  PMPE      C313          -12.7128983507       18.1462667954       -7.0944842913  MEMB      216             0.0000000000
     26862       216  PMPE      H13X          -13.3180619297       18.8038394360       -7.3278870864  MEMB      216             0.0000000000
     26863       216  PMPE      H13Y          -11.6549788443       18.2080106229       -6.8538790724  MEMB      216             0.0000000000
     26864       216  PMPE      C314          -13.9084059148       19.6580530178       -5.3160704325  MEMB      216             0.0000000000
     26865       216  PMPE      H14X          -14.6386299133       19.5003006331       -4.5303279594  MEMB      216             0.0000000000
     26866       216  PMPE      H14Y          -13.2872252629       20.1892548161       -5.5494849331  MEMB      216             0.0000000000
     26867       216  PMPE      C315          -12.6157763190       17.6172194888       -2.8554783491  MEMB      216             0.0000000000
     26868       216  PMPE      H15X          -11.4995352766       17.3402571285       -3.8696630762  MEMB      216             0.0000000000
     26869       216  PMPE      H15Y          -12.9546408019       16.7908099047       -3.0667577566  MEMB      216             0.0000000000
     26870       216  PMPE      C316          -13.3863937360       18.7982887318       -2.2137410621  MEMB      216             0.0000000000
     26871       216  PMPE      H16X          -12.6362328095       19.1403866948       -1.8640886765  MEMB      216             0.0000000000
     26872       216  PMPE      H16Y          -14.2837736728       19.0905137535       -2.0749964682  MEMB      216             0.0000000000
     26873       216  PMPE      H16Z          -13.0581125671       19.9277581657       -2.3891354339  MEMB      216             0.0000000000
     26874       217  OYPE      N               7.6142143316       16.2167793153      -20.9083241339  MEMB      217             0.0000000000
     26875       217  OYPE      HN1             8.6516065356       16.1978176930      -20.9875049880  MEMB      217             0.0000000000
     26876       217  OYPE      HN2             7.1673023516       16.1688004490      -21.8427067459  MEMB      217             0.0000000000
     26877       217  OYPE      HN3             7.2279481043       17.0553570847      -20.4148987645  MEMB      217             0.0000000000
     26878       217  OYPE      C12             7.2495287916       15.0289464522      -20.0869674167  MEMB      217             0.0000000000
     26879       217  OYPE      H12A            7.6162359200       15.2193775244      -19.0701719212  MEMB      217             0.0000000000
     26880       217  OYPE      H12B            7.7485008293       14.1534134263      -20.5233531621  MEMB      217             0.0000000000
     26881       217  OYPE      C11             5.7589505930       14.7795441146      -20.0988788358  MEMB      217             0.0000000000
     26882       217  OYPE      H11A            5.5433087066       13.8562315298      -19.4969191014  MEMB      217             0.0000000000
     26883       217  OYPE      H11B            5.4277396487       14.5525528112      -21.1309699774  MEMB      217             0.0000000000
     26884       217  OYPE      P               4.6347038871       15.9677012416      -18.1161873236  MEMB      217             0.0000000000
     26885       217  OYPE      O13             4.1638350315       17.2979098776      -17.7511867483  MEMB      217             0.0000000000
     26886       217  OYPE      O14             5.5554457614       15.2783374699      -17.2253547866  MEMB      217             0.0000000000
     26887       217  OYPE      O11             3.4347796284       14.9925396575      -18.2260725987  MEMB      217             0.0000000000
     26888       217  OYPE      O12             5.1197631939       15.9622279859      -19.6305177137  MEMB      217             0.0000000000
     26889       217  OYPE      C1              2.9594803901       14.4124569480      -17.0479676393  MEMB      217             0.0000000000
     26890       217  OYPE      HA              3.7955966976       14.0205299255      -16.4453976244  MEMB      217             0.0000000000
     26891       217  OYPE      HB              2.3746493766       13.6181378195      -17.4582550626  MEMB      217             0.0000000000
     26892       217  OYPE      C2              2.1194295922       15.2739676321      -16.0782445300  MEMB      217             0.0000000000
     26893       217  OYPE      HS              1.6495337858       16.0412265749      -16.7004816644  MEMB      217             0.0000000000
     26894       217  OYPE      O21             3.0321148471       15.8688101096      -15.1707927348  MEMB      217             0.0000000000
     26895       217  OYPE      C21             2.6569359320       16.9090359669      -14.4576421974  MEMB      217             0.0000000000
     26896       217  OYPE      O22             1.5348009549       17.3658392446      -14.3294233660  MEMB      217             0.0000000000
     26897       217  OYPE      C22             3.9620389513       17.5127011991      -13.9209195157  MEMB      217             0.0000000000
     26898       217  OYPE      H2R             4.3669782267       18.0228124565      -14.8108219704  MEMB      217             0.0000000000
     26899       217  OYPE      H2S             4.7160022931       16.7707805193      -13.6597227037  MEMB      217             0.0000000000
     26900       217  OYPE      C3              1.0151349717       14.5147822135      -15.2989700536  MEMB      217             0.0000000000
     26901       217  OYPE      HX              0.4053310341       13.9088713695      -15.9943830059  MEMB      217             0.0000000000
     26902       217  OYPE      HY              0.3950826971       15.1466058314      -14.6729395432  MEMB      217             0.0000000000
     26903       217  OYPE      O31             1.5796115946       13.6145239697      -14.4260676156  MEMB      217             0.0000000000
     26904       217  OYPE      C31             1.9459239817       13.8919555096      -13.1557543479  MEMB      217             0.0000000000
     26905       217  OYPE      O32             1.4857701482       14.8295765224      -12.5472806808  MEMB      217             0.0000000000
     26906       217  OYPE      C32             2.9391079285       12.8505411476      -12.5012617995  MEMB      217             0.0000000000
     26907       217  OYPE      H2X             2.4644250890       11.9700399251      -11.8787933770  MEMB      217             0.0000000000
     26908       217  OYPE      H2Y             3.6503875007       12.4151201762      -13.2345272728  MEMB      217             0.0000000000
     26909       217  OYPE      C23             3.8360677814       18.4376173630      -12.7049685299  MEMB      217             0.0000000000
     26910       217  OYPE      H3R             3.0568681793       19.1310591164      -13.0102752731  MEMB      217             0.0000000000
     26911       217  OYPE      H3S             4.7785840098       19.0137701559      -12.4926789288  MEMB      217             0.0000000000
     26912       217  OYPE      C24             3.3162420986       17.7522003821      -11.4859101405  MEMB      217             0.0000000000
     26913       217  OYPE      H4R             3.9387670952       16.8504082497      -11.4381940315  MEMB      217             0.0000000000
     26914       217  OYPE      H4S             2.2787386986       17.4561295085      -11.7493599768  MEMB      217             0.0000000000
     26915       217  OYPE      C25             3.3870919843       18.5289922999      -10.1704933799  MEMB      217             0.0000000000
     26916       217  OYPE      H5R             3.0196791771       19.4984972768      -10.3524341450  MEMB      217             0.0000000000
     26917       217  OYPE      H5S             4.4093377130       18.6410096763       -9.7844468453  MEMB      217             0.0000000000
     26918       217  OYPE      C26             2.5318480261       18.0271024564       -9.0419276856  MEMB      217             0.0000000000
     26919       217  OYPE      H6R             1.4706523568       18.3218187792       -9.2314319487  MEMB      217             0.0000000000
     26920       217  OYPE      H6S             2.9127204215       18.4291284788       -8.0668039919  MEMB      217             0.0000000000
     26921       217  OYPE      C27             2.6941815600       16.5365799216       -8.8704736291  MEMB      217             0.0000000000
     26922       217  OYPE      H7R             3.7762550186       16.3743277647       -9.0007825801  MEMB      217             0.0000000000
     26923       217  OYPE      H7S             2.1441158800       15.9881244919       -9.6705346557  MEMB      217             0.0000000000
     26924       217  OYPE      C28             2.3655790170       16.1299979580       -7.4637233125  MEMB      217             0.0000000000
     26925       217  OYPE      H8R             2.9566713842       16.5919288428       -6.6957070386  MEMB      217             0.0000000000
     26926       217  OYPE      H8S             2.4511270470       15.0437144150       -7.3059859087  MEMB      217             0.0000000000
     26927       217  OYPE      C29             1.0632040055       16.6785209951       -7.3674381992  MEMB      217             0.0000000000
     26928       217  OYPE      H9R             0.6354596773       17.6304110169       -7.1065773125  MEMB      217             0.0000000000
     26929       217  OYPE      C210            0.3235812534       15.7981322058       -7.1981375912  MEMB      217             0.0000000000
     26930       217  OYPE      H10R           -0.7146618816       16.4706007990       -7.0471740901  MEMB      217             0.0000000000
     26931       217  OYPE      C211            0.4703535375       14.0372908914       -7.0532710333  MEMB      217             0.0000000000
     26932       217  OYPE      H11R            0.8409243998       13.6238481019       -7.9326490333  MEMB      217             0.0000000000
     26933       217  OYPE      H11S           -0.4524086082       13.2505077144       -7.2964977787  MEMB      217             0.0000000000
     26934       217  OYPE      C212            0.3235747608       13.1296007006       -5.7096128845  MEMB      217             0.0000000000
     26935       217  OYPE      H12R           -0.0701737068       12.1277667563       -5.8724647339  MEMB      217             0.0000000000
     26936       217  OYPE      H12S           -0.5240312632       13.2112328513       -5.0199882995  MEMB      217             0.0000000000
     26937       217  OYPE      C213            1.2441317276       13.7478996726       -4.8590538253  MEMB      217             0.0000000000
     26938       217  OYPE      H13R            0.9566277433       13.6255341097       -3.8427222011  MEMB      217             0.0000000000
     26939       217  OYPE      H13S            1.5555639567       14.8039317411       -5.1599679812  MEMB      217             0.0000000000
     26940       217  OYPE      C214            2.1938983587       12.8150779662       -4.9847803891  MEMB      217             0.0000000000
     26941       217  OYPE      H14R            2.3423917543       13.3261930577       -5.8910461802  MEMB      217             0.0000000000
     26942       217  OYPE      H14S            2.0054160796       11.7186337852       -5.2369080585  MEMB      217             0.0000000000
     26943       217  OYPE      C215            3.2357847467       13.3033949815       -4.2231660153  MEMB      217             0.0000000000
     26944       217  OYPE      H15R            4.1236095114       13.9210061823       -4.4252353744  MEMB      217             0.0000000000
     26945       217  OYPE      H15S            3.5413866611       12.5598963879       -4.8081332952  MEMB      217             0.0000000000
     26946       217  OYPE      C216            3.0229231730       12.8257366806       -2.9443341347  MEMB      217             0.0000000000
     26947       217  OYPE      H16R            3.8947246310       12.6018071977       -2.4211105899  MEMB      217             0.0000000000
     26948       217  OYPE      H16S            2.2711004674       12.0472715126       -2.8668121162  MEMB      217             0.0000000000
     26949       217  OYPE      H16T            2.8084151958       13.6776355786       -2.3641345472  MEMB      217             0.0000000000
     26950       217  OYPE      C33             3.3289842577       13.6231262996      -11.5121105129  MEMB      217             0.0000000000
     26951       217  OYPE      H3X             2.6984531613       13.6166515397      -10.5778328526  MEMB      217             0.0000000000
     26952       217  OYPE      H3Y             3.9947449246       14.4408438784      -11.8117476113  MEMB      217             0.0000000000
     26953       217  OYPE      C34             3.9971438248       13.0008570486      -10.9184250731  MEMB      217             0.0000000000
     26954       217  OYPE      H4X             4.1606054885       11.7114826767      -11.1197413073  MEMB      217             0.0000000000
     26955       217  OYPE      H4Y             4.4775581406       11.8649178150      -10.9222712049  MEMB      217             0.0000000000
     26956       217  OYPE      C35             4.7079494808       14.0109639619       -9.2805154270  MEMB      217             0.0000000000
     26957       217  OYPE      H5X             4.3976513225       13.9926374140       -8.6252555424  MEMB      217             0.0000000000
     26958       217  OYPE      H5Y             5.4190715944       14.8244677277       -9.2086158856  MEMB      217             0.0000000000
     26959       217  OYPE      C36             6.0645445127       12.6367652397       -8.1923859730  MEMB      217             0.0000000000
     26960       217  OYPE      H6X             5.8805966815       11.5231567688       -8.0616931834  MEMB      217             0.0000000000
     26961       217  OYPE      H6Y             6.5694081088       11.7357095207       -8.7989228446  MEMB      217             0.0000000000
     26962       217  OYPE      C37             6.7757418209       13.5876791094       -7.5346415730  MEMB      217             0.0000000000
     26963       217  OYPE      H7X             6.1927779973       14.1430697335       -6.9540109230  MEMB      217             0.0000000000
     26964       217  OYPE      H7Y             6.9865705064       12.7654179246       -6.8714675784  MEMB      217             0.0000000000
     26965       217  OYPE      C38             7.7198956825       14.3710588920       -8.3434528611  MEMB      217             0.0000000000
     26966       217  OYPE      H8X             8.5545026570       13.8389456893       -8.3974095197  MEMB      217             0.0000000000
     26967       217  OYPE      H8Y             7.3509886520       15.0072438251       -9.0445296536  MEMB      217             0.0000000000
     26968       217  OYPE      C39             8.4700121917       15.0447877710       -7.8478965648  MEMB      217             0.0000000000
     26969       217  OYPE      H9X             9.5773426799       14.4165844542       -7.3981933675  MEMB      217             0.0000000000
     26970       217  OYPE      C310            8.0283468919       16.4937857149       -7.5826658161  MEMB      217             0.0000000000
     26971       217  OYPE      H10X            8.4269553651       17.1517432650       -6.5370887036  MEMB      217             0.0000000000
     26972       217  OYPE      C311            7.1888515236       17.4201989066       -7.7310061382  MEMB      217             0.0000000000
     26973       217  OYPE      H11X            8.0292905131       18.1408573600       -8.0083118005  MEMB      217             0.0000000000
     26974       217  OYPE      H11Y            7.0993871695       16.9955304574       -8.6968751349  MEMB      217             0.0000000000
     26975       217  OYPE      C312            6.3596611312       17.8416236784       -6.6929743255  MEMB      217             0.0000000000
     26976       217  OYPE      H12X            5.7214133614       16.9437594245       -6.6620957748  MEMB      217             0.0000000000
     26977       217  OYPE      H12Y            6.0082281789       18.7482776205       -7.2043634595  MEMB      217             0.0000000000
     26978       217  OYPE      C313            6.9115309473       18.1858432885       -5.3199328803  MEMB      217             0.0000000000
     26979       217  OYPE      H13X            7.0661950949       17.2713839462       -4.8072827789  MEMB      217             0.0000000000
     26980       217  OYPE      H13Y            7.8988433878       18.6810815771       -5.3132109386  MEMB      217             0.0000000000
     26981       217  OYPE      C314            6.0020477079       18.9930717133       -4.4705771700  MEMB      217             0.0000000000
     26982       217  OYPE      H14X            6.0718106863       20.0137444925       -4.9005128436  MEMB      217             0.0000000000
     26983       217  OYPE      H14Y            6.3623102704       18.9585160460       -3.4080310958  MEMB      217             0.0000000000
     26984       217  OYPE      C315            4.5699293459       18.5550979606       -4.4764921173  MEMB      217             0.0000000000
     26985       217  OYPE      H15X            4.4621037400       17.4582514128       -4.3371277574  MEMB      217             0.0000000000
     26986       217  OYPE      H15Y            4.0079911632       18.7200663769       -5.4239195583  MEMB      217             0.0000000000
     26987       217  OYPE      C316            3.9245506251       19.3151119634       -3.3333220267  MEMB      217             0.0000000000
     26988       217  OYPE      H16X            3.9488809428       18.9353786585       -2.3075785754  MEMB      217             0.0000000000
     26989       217  OYPE      H16Y            3.0710819535       18.9218247544       -3.5960016891  MEMB      217             0.0000000000
     26990       217  OYPE      C317            3.5496672322       20.7650051665       -3.4869561078  MEMB      217             0.0000000000
     26991       217  OYPE      H17X            2.4707773678       20.9606348298       -3.3755655560  MEMB      217             0.0000000000
     26992       217  OYPE      H17Y            3.7561899325       21.0854924987       -4.5183171655  MEMB      217             0.0000000000
     26993       217  OYPE      C318            4.3366730671       21.5603221689       -2.4820971232  MEMB      217             0.0000000000
     26994       217  OYPE      H18X            4.0303937284       22.6157286660       -2.5138425044  MEMB      217             0.0000000000
     26995       217  OYPE      H18Y            4.1749415017       21.2348078998       -1.4208376193  MEMB      217             0.0000000000
     26996       217  OYPE      H18Z            5.3789313180       21.4927413924       -2.8076615695  MEMB      217             0.0000000000
     26997       218  PMPE      N              11.5996393498      -13.0622522000      -19.7613840997  MEMB      218             0.0000000000
     26998       218  PMPE      HN1            11.5630123711      -12.0758519735      -20.0906686217  MEMB      218             0.0000000000
     26999       218  PMPE      HN2            12.5778670486      -13.3406805975      -19.5820315438  MEMB      218             0.0000000000
     27000       218  PMPE      HN3            11.2106388797      -13.6511214386      -20.5166311867  MEMB      218             0.0000000000
     27001       218  PMPE      C12            10.7452828850      -13.1707272167      -18.5113553333  MEMB      218             0.0000000000
     27002       218  PMPE      H12A            9.7985033535      -12.6310810657      -18.7261653038  MEMB      218             0.0000000000
     27003       218  PMPE      H12B           11.3009907724      -12.6179699830      -17.7198590138  MEMB      218             0.0000000000
     27004       218  PMPE      C11            10.4575194535      -14.6408598379      -18.0669666463  MEMB      218             0.0000000000
     27005       218  PMPE      H11A            9.9905940592      -14.6494086261      -17.0513283196  MEMB      218             0.0000000000
     27006       218  PMPE      H11B           11.4143259140      -15.1857269784      -17.9609363360  MEMB      218             0.0000000000
     27007       218  PMPE      P               8.1851779452      -15.2294094496      -19.2962461490  MEMB      218             0.0000000000
     27008       218  PMPE      O13             7.5610324140      -16.4043723013      -19.9165408656  MEMB      218             0.0000000000
     27009       218  PMPE      O14             7.9529504831      -13.8915539470      -19.8875087486  MEMB      218             0.0000000000
     27010       218  PMPE      O11             7.8429983367      -15.1799333812      -17.8221062482  MEMB      218             0.0000000000
     27011       218  PMPE      O12             9.6985180876      -15.4046116502      -19.0038763769  MEMB      218             0.0000000000
     27012       218  PMPE      C1              6.6348736783      -14.6748947977      -17.6721846022  MEMB      218             0.0000000000
     27013       218  PMPE      HA              6.3053783578      -15.8711875175      -17.5328350724  MEMB      218             0.0000000000
     27014       218  PMPE      HB              6.0054758630      -14.3740952075      -18.6329887189  MEMB      218             0.0000000000
     27015       218  PMPE      C2              6.2602916889      -13.4447548555      -16.2649983317  MEMB      218             0.0000000000
     27016       218  PMPE      HS              4.8211242473      -12.9952253454      -16.2552261414  MEMB      218             0.0000000000
     27017       218  PMPE      O21             6.8694206076      -12.3875400703      -16.4829324108  MEMB      218             0.0000000000
     27018       218  PMPE      C21             5.9645668180      -11.3736674478      -16.5128391343  MEMB      218             0.0000000000
     27019       218  PMPE      O22             4.7659435535      -11.1905314030      -16.3407573431  MEMB      218             0.0000000000
     27020       218  PMPE      C22             6.9564120980      -10.4864364442      -16.4867775800  MEMB      218             0.0000000000
     27021       218  PMPE      H2R             6.5402894582       -9.5376335257      -16.3004160564  MEMB      218             0.0000000000
     27022       218  PMPE      H2S             7.3882436979      -10.5967938537      -17.5052622122  MEMB      218             0.0000000000
     27023       218  PMPE      C3              6.6950151634      -14.6292712229      -15.0317156653  MEMB      218             0.0000000000
     27024       218  PMPE      HX              6.0094909321      -15.5816338368      -14.7432031980  MEMB      218             0.0000000000
     27025       218  PMPE      HY              6.2925670392      -13.8419008051      -14.7435055094  MEMB      218             0.0000000000
     27026       218  PMPE      O31             8.0031211114      -14.7382241329      -14.9862684680  MEMB      218             0.0000000000
     27027       218  PMPE      C31             8.3374701212      -15.9414341243      -14.7783661655  MEMB      218             0.0000000000
     27028       218  PMPE      O32             7.6683258765      -16.9517558843      -14.7695061909  MEMB      218             0.0000000000
     27029       218  PMPE      C32             9.7749986264      -15.8500233079      -14.4380848009  MEMB      218             0.0000000000
     27030       218  PMPE      H2X            10.3243677298      -15.9811988271      -15.4007291591  MEMB      218             0.0000000000
     27031       218  PMPE      H2Y             9.9652049807      -16.6592348027      -13.7209795028  MEMB      218             0.0000000000
     27032       218  PMPE      C23             7.8635017131      -10.6576700785      -15.2755047464  MEMB      218             0.0000000000
     27033       218  PMPE      H3R             8.5017219037       -9.7612335231      -15.3196017885  MEMB      218             0.0000000000
     27034       218  PMPE      H3S             8.4948485915      -11.5576501133      -15.4046625860  MEMB      218             0.0000000000
     27035       218  PMPE      C24             7.1589018972      -10.7225079598      -13.9115876557  MEMB      218             0.0000000000
     27036       218  PMPE      H4R             6.4732462932      -11.5953196836      -13.8551315961  MEMB      218             0.0000000000
     27037       218  PMPE      H4S             6.5252333248       -9.8281745116      -13.7690817521  MEMB      218             0.0000000000
     27038       218  PMPE      C25             8.1743841181      -10.7127010937      -12.7619560470  MEMB      218             0.0000000000
     27039       218  PMPE      H5R             8.9341035441       -9.9391718760      -12.9776061140  MEMB      218             0.0000000000
     27040       218  PMPE      H5S             8.7323515865      -11.6647432927      -12.7471638891  MEMB      218             0.0000000000
     27041       218  PMPE      C26             7.5425012302      -10.4370603698      -11.3960439066  MEMB      218             0.0000000000
     27042       218  PMPE      H6R             6.7249245600      -11.1825699499      -11.2825278657  MEMB      218             0.0000000000
     27043       218  PMPE      H6S             7.1422670297       -9.3986214291      -11.3580926262  MEMB      218             0.0000000000
     27044       218  PMPE      C27             8.5166894718      -10.6910339333      -10.2602779375  MEMB      218             0.0000000000
     27045       218  PMPE      H7R             9.3134501468       -9.9221538503      -10.2085933444  MEMB      218             0.0000000000
     27046       218  PMPE      H7S             8.8979316605      -11.6956639431      -10.5228168742  MEMB      218             0.0000000000
     27047       218  PMPE      C28             8.0280947359      -10.9068460597       -8.8414870423  MEMB      218             0.0000000000
     27048       218  PMPE      H8R             8.8912289570      -10.7849409678       -8.2155365603  MEMB      218             0.0000000000
     27049       218  PMPE      H8S             7.4678173542      -11.8724957897       -8.7091270835  MEMB      218             0.0000000000
     27050       218  PMPE      C29             7.0185625053      -10.0006533865       -8.4462179646  MEMB      218             0.0000000000
     27051       218  PMPE      H9R             6.2900975437      -10.4013046873       -9.1623153649  MEMB      218             0.0000000000
     27052       218  PMPE      C217            7.2601657621       -8.4900871299       -8.1482098799  MEMB      218             0.0000000000
     27053       218  PMPE      H17R            6.6916226246       -7.7335365074       -8.6725235956  MEMB      218             0.0000000000
     27054       218  PMPE      H17S            8.1807016657       -8.2112092510       -8.4077016510  MEMB      218             0.0000000000
     27055       218  PMPE      C210            6.8589603639       -9.4618078866       -7.0101189166  MEMB      218             0.0000000000
     27056       218  PMPE      H10R            5.9771742081       -9.3096666617       -6.3296328727  MEMB      218             0.0000000000
     27057       218  PMPE      C211            7.8240451845       -9.7085251597       -5.9883131065  MEMB      218             0.0000000000
     27058       218  PMPE      H11R            7.6955152430       -8.9310268325       -5.2024697986  MEMB      218             0.0000000000
     27059       218  PMPE      H11S            8.7648706554       -9.5682681525       -6.5164978943  MEMB      218             0.0000000000
     27060       218  PMPE      C212            7.6588992153      -11.1348444922       -5.4765948527  MEMB      218             0.0000000000
     27061       218  PMPE      H12R            8.4681535209      -11.3519531107       -4.7664471894  MEMB      218             0.0000000000
     27062       218  PMPE      H12S            7.7032715830      -11.8002835267       -6.3618154716  MEMB      218             0.0000000000
     27063       218  PMPE      C213            6.3892355741      -11.5737201865       -4.7659019774  MEMB      218             0.0000000000
     27064       218  PMPE      H13R            5.7314556829      -11.6862504928       -5.6002727957  MEMB      218             0.0000000000
     27065       218  PMPE      H13S            5.9742732066      -10.7046383716       -4.2374061514  MEMB      218             0.0000000000
     27066       218  PMPE      C214            6.6877982389      -12.8768587191       -3.9908582587  MEMB      218             0.0000000000
     27067       218  PMPE      H14R            7.4700603173      -12.5651911310       -3.2728408286  MEMB      218             0.0000000000
     27068       218  PMPE      H14S            7.1340438704      -13.6777083700       -4.6290567868  MEMB      218             0.0000000000
     27069       218  PMPE      C215            5.5638725339      -13.5292962617       -3.2245261513  MEMB      218             0.0000000000
     27070       218  PMPE      H15R            6.0102700191      -14.3335959387       -2.5968275847  MEMB      218             0.0000000000
     27071       218  PMPE      H15S            4.8926763760      -14.0221689210       -3.9621559536  MEMB      218             0.0000000000
     27072       218  PMPE      C216            4.8083426014      -12.5454740525       -2.3564689079  MEMB      218             0.0000000000
     27073       218  PMPE      H16R            5.3890566638      -12.2765882784       -1.4658751010  MEMB      218             0.0000000000
     27074       218  PMPE      H16S            4.5126157434      -11.6174788108       -2.8531729797  MEMB      218             0.0000000000
     27075       218  PMPE      H16T            3.8754783172      -13.0855241719       -2.0391679330  MEMB      218             0.0000000000
     27076       218  PMPE      C33            10.1553570599      -14.5364090672      -13.7160799343  MEMB      218             0.0000000000
     27077       218  PMPE      H3X             9.9958082189      -13.6822148521      -14.4057518031  MEMB      218             0.0000000000
     27078       218  PMPE      H3Y            11.2418154962      -14.5917354002      -13.5184778406  MEMB      218             0.0000000000
     27079       218  PMPE      C34             9.4373582865      -14.1684718098      -12.3975612190  MEMB      218             0.0000000000
     27080       218  PMPE      H4X             8.3717123355      -13.9101607013      -12.6311159055  MEMB      218             0.0000000000
     27081       218  PMPE      H4Y            10.0089283137      -13.2734335887      -12.0230102460  MEMB      218             0.0000000000
     27082       218  PMPE      C35             9.4078715076      -15.2101279837      -11.2717109222  MEMB      218             0.0000000000
     27083       218  PMPE      H5X            10.4080479254      -15.6757702690      -11.1585127466  MEMB      218             0.0000000000
     27084       218  PMPE      H5Y             8.6790921991      -16.0192034247      -11.5052083452  MEMB      218             0.0000000000
     27085       218  PMPE      C36             9.0400134047      -14.5579883181       -9.9258827565  MEMB      218             0.0000000000
     27086       218  PMPE      H6X             7.9599835156      -14.2924024365       -9.9257335298  MEMB      218             0.0000000000
     27087       218  PMPE      H6Y             9.5896543742      -13.5969787829       -9.8367187966  MEMB      218             0.0000000000
     27088       218  PMPE      C37             9.3027716685      -15.4463019764       -8.6994698101  MEMB      218             0.0000000000
     27089       218  PMPE      H7X            10.0856485545      -16.2167094302       -8.8595054800  MEMB      218             0.0000000000
     27090       218  PMPE      H7Y             8.3555496762      -15.9559275330       -8.4338200422  MEMB      218             0.0000000000
     27091       218  PMPE      C38             9.8104824929      -14.7224056718       -7.4820572711  MEMB      218             0.0000000000
     27092       218  PMPE      H8X            10.0181821651      -15.4510223357       -6.6688030085  MEMB      218             0.0000000000
     27093       218  PMPE      H8Y             9.1464183510      -13.9139974886       -7.1473662787  MEMB      218             0.0000000000
     27094       218  PMPE      C39            11.0645548958      -14.0605871136       -7.7080182217  MEMB      218             0.0000000000
     27095       218  PMPE      H9X            11.0662074164      -13.3877240957       -8.5754658630  MEMB      218             0.0000000000
     27096       218  PMPE      H9Y            11.7693876140      -14.6843635089       -8.1033086171  MEMB      218             0.0000000000
     27097       218  PMPE      C310           11.5968253997      -13.5621878888       -6.4043949607  MEMB      218             0.0000000000
     27098       218  PMPE      H10X           11.2340345254      -12.5392744485       -6.4206466626  MEMB      218             0.0000000000
     27099       218  PMPE      H10Y           12.5849694411      -13.7293674471       -6.6994925014  MEMB      218             0.0000000000
     27100       218  PMPE      C311           11.4231771702      -14.1724315220       -5.1268797799  MEMB      218             0.0000000000
     27101       218  PMPE      H11X           11.8702549134      -15.0986687314       -5.0272603860  MEMB      218             0.0000000000
     27102       218  PMPE      H11Y           10.3913273593      -14.0892990006       -5.1090585743  MEMB      218             0.0000000000
     27103       218  PMPE      C312           11.6878006076      -13.7141169256       -3.7925411924  MEMB      218             0.0000000000
     27104       218  PMPE      H12X           11.7590986689      -12.8001624924       -3.8147403663  MEMB      218             0.0000000000
     27105       218  PMPE      H12Y           12.5263746106      -13.6351548924       -3.3735641542  MEMB      218             0.0000000000
     27106       218  PMPE      C313           10.8962156125      -13.4397771400       -2.6590381910  MEMB      218             0.0000000000
     27107       218  PMPE      H13X           10.7776768825      -14.4759806615       -2.6086554773  MEMB      218             0.0000000000
     27108       218  PMPE      H13Y           10.2089342834      -12.6930343306       -3.0532997059  MEMB      218             0.0000000000
     27109       218  PMPE      C314           11.5150895983      -13.0366990100       -1.3721490328  MEMB      218             0.0000000000
     27110       218  PMPE      H14X           11.5066747610      -12.0628993429       -1.6720367382  MEMB      218             0.0000000000
     27111       218  PMPE      H14Y           12.4681420143      -13.2579519630       -1.0025450366  MEMB      218             0.0000000000
     27112       218  PMPE      C315           10.8968776493      -12.8011839089       -0.1333029933  MEMB      218             0.0000000000
     27113       218  PMPE      H15X           11.0779550590      -13.5942858189        0.5727071622  MEMB      218             0.0000000000
     27114       218  PMPE      H15Y            9.8743867797      -12.5598631162       -0.4098777828  MEMB      218             0.0000000000
     27115       218  PMPE      C316           11.3772563797      -11.7153537825        0.6545667964  MEMB      218             0.0000000000
     27116       218  PMPE      H16X           10.7584863110      -10.8896546034        0.2219767492  MEMB      218             0.0000000000
     27117       218  PMPE      H16Y           12.4391174105      -11.5009576067        0.9388416584  MEMB      218             0.0000000000
     27118       218  PMPE      H16Z           10.8608661831      -11.9227973346        1.5871900430  MEMB      218             0.0000000000
     27119       219  PMPG      C13            -9.2677740768      -15.6315489440      -21.2741466570  MEMB      219             0.0000000000
     27120       219  PMPG      H13A           -8.7654017943      -16.3513235740      -21.9575264424  MEMB      219             0.0000000000
     27121       219  PMPG      H13B          -10.2607315297      -16.0695424832      -21.0010949484  MEMB      219             0.0000000000
     27122       219  PMPG      OC3            -9.4316970049      -14.4520205439      -22.0469227282  MEMB      219             0.0000000000
     27123       219  PMPG      HO3            -8.5091316799      -14.1661755906      -22.1509544466  MEMB      219             0.0000000000
     27124       219  PMPG      C12            -8.3980239970      -15.2670447082      -20.0290692151  MEMB      219             0.0000000000
     27125       219  PMPG      H12A           -9.0880622167      -14.8916603189      -19.2370368222  MEMB      219             0.0000000000
     27126       219  PMPG      OC2            -7.4520856753      -14.2285065790      -20.3365735289  MEMB      219             0.0000000000
     27127       219  PMPG      HO2            -6.9093415466      -14.1528470352      -19.5443396124  MEMB      219             0.0000000000
     27128       219  PMPG      C11            -7.6213004588      -16.4873888635      -19.4746903962  MEMB      219             0.0000000000
     27129       219  PMPG      H11A           -7.0936166239      -16.9835803906      -20.3082821224  MEMB      219             0.0000000000
     27130       219  PMPG      H11B           -8.3972956480      -17.2304133278      -19.1750975509  MEMB      219             0.0000000000
     27131       219  PMPG      P              -6.1755322119      -17.2539321877      -17.3983859939  MEMB      219             0.0000000000
     27132       219  PMPG      O13            -4.6926724998      -17.1534074468      -17.3311880254  MEMB      219             0.0000000000
     27133       219  PMPG      O14            -6.8130466517      -18.5326249319      -17.7404981979  MEMB      219             0.0000000000
     27134       219  PMPG      O11            -6.7984631835      -16.7441228356      -16.0248744257  MEMB      219             0.0000000000
     27135       219  PMPG      O12            -6.6670215764      -16.1407399918      -18.4471454753  MEMB      219             0.0000000000
     27136       219  PMPG      C1             -7.1361038475      -15.3571067039      -15.9279529582  MEMB      219             0.0000000000
     27137       219  PMPG      HA             -7.9573490470      -15.0729200126      -16.6390009976  MEMB      219             0.0000000000
     27138       219  PMPG      HB             -6.2574759241      -14.7147824263      -16.1471876991  MEMB      219             0.0000000000
     27139       219  PMPG      C2             -7.6365441907      -15.0326094710      -14.5087689875  MEMB      219             0.0000000000
     27140       219  PMPG      HS             -7.8584842639      -13.9484602179      -14.4663324921  MEMB      219             0.0000000000
     27141       219  PMPG      O21            -6.6772872141      -15.4011599849      -13.4980657733  MEMB      219             0.0000000000
     27142       219  PMPG      C21            -5.6482906637      -14.5906080364      -13.3812205573  MEMB      219             0.0000000000
     27143       219  PMPG      O22            -5.5153893136      -13.4982993207      -13.9050450752  MEMB      219             0.0000000000
     27144       219  PMPG      C22            -4.5750912842      -15.2508113385      -12.5040144398  MEMB      219             0.0000000000
     27145       219  PMPG      H2R            -3.7691201131      -14.5027450061      -12.3850739094  MEMB      219             0.0000000000
     27146       219  PMPG      H2S            -4.1756378325      -16.1428875894      -13.0290292324  MEMB      219             0.0000000000
     27147       219  PMPG      C3             -8.9767998057      -15.7706074396      -14.3102068063  MEMB      219             0.0000000000
     27148       219  PMPG      HX             -8.8268326307      -16.8708597211      -14.3963316205  MEMB      219             0.0000000000
     27149       219  PMPG      HY             -9.6433204728      -15.4516306384      -15.1342704597  MEMB      219             0.0000000000
     27150       219  PMPG      O31            -9.6103836000      -15.3484462503      -13.1042037115  MEMB      219             0.0000000000
     27151       219  PMPG      C31            -9.9124831568      -16.3150561442      -12.2924022788  MEMB      219             0.0000000000
     27152       219  PMPG      O32            -9.7493467893      -17.5067603904      -12.5101601787  MEMB      219             0.0000000000
     27153       219  PMPG      C32           -10.3878419718      -15.7777722812      -10.9627211799  MEMB      219             0.0000000000
     27154       219  PMPG      H2X           -11.4503516246      -15.6941969092      -10.8421623363  MEMB      219             0.0000000000
     27155       219  PMPG      H2Y           -10.0670851241      -14.7705451577      -10.7345834865  MEMB      219             0.0000000000
     27156       219  PMPG      C23            -5.0830555556      -15.6814711023      -11.1066742725  MEMB      219             0.0000000000
     27157       219  PMPG      H3R            -5.9142817292      -16.3976755598      -11.2517528412  MEMB      219             0.0000000000
     27158       219  PMPG      H3S            -5.5069542639      -14.8101848236      -10.5689244925  MEMB      219             0.0000000000
     27159       219  PMPG      C24            -3.9865823341      -16.2584762592      -10.2041744845  MEMB      219             0.0000000000
     27160       219  PMPG      H4R            -3.3459125976      -15.3833142103       -9.9420470364  MEMB      219             0.0000000000
     27161       219  PMPG      H4S            -3.3305688261      -16.9547493819      -10.7864111897  MEMB      219             0.0000000000
     27162       219  PMPG      C25            -4.5128569050      -16.9938490332       -8.9313574199  MEMB      219             0.0000000000
     27163       219  PMPG      H5R            -5.1211482017      -16.4267414121       -8.2387309826  MEMB      219             0.0000000000
     27164       219  PMPG      H5S            -3.7484904835      -17.2473437119       -8.2649731623  MEMB      219             0.0000000000
     27165       219  PMPG      C26            -5.1587471895      -18.3463786328       -9.1850329355  MEMB      219             0.0000000000
     27166       219  PMPG      H6R            -4.4077488595      -18.9211543274       -9.6773151093  MEMB      219             0.0000000000
     27167       219  PMPG      H6S            -6.0030171602      -18.1337145170       -9.8655426945  MEMB      219             0.0000000000
     27168       219  PMPG      C27            -5.6708734364      -19.1611920342       -7.9690802325  MEMB      219             0.0000000000
     27169       219  PMPG      H7R            -6.3866183704      -19.9140658075       -8.3348754660  MEMB      219             0.0000000000
     27170       219  PMPG      H7S            -6.2356758831      -18.4473611670       -7.3650873079  MEMB      219             0.0000000000
     27171       219  PMPG      C28            -4.6998798748      -19.8344257572       -6.9786619718  MEMB      219             0.0000000000
     27172       219  PMPG      H8R            -3.8662032710      -19.2413049839       -7.0724973496  MEMB      219             0.0000000000
     27173       219  PMPG      H8S            -4.3560182274      -20.8592337724       -7.1809131556  MEMB      219             0.0000000000
     27174       219  PMPG      C29            -5.1826300062      -19.9761861223       -5.5798760028  MEMB      219             0.0000000000
     27175       219  PMPG      H9R            -5.9408624884      -20.7398006030       -5.4568771425  MEMB      219             0.0000000000
     27176       219  PMPG      C217           -4.1121966634      -20.0268059615       -4.4942271365  MEMB      219             0.0000000000
     27177       219  PMPG      H17R           -4.3899717303      -20.7176831189       -3.7132389833  MEMB      219             0.0000000000
     27178       219  PMPG      H17S           -3.1354406463      -19.9552126068       -4.9626105741  MEMB      219             0.0000000000
     27179       219  PMPG      C210           -5.1133745785      -18.8682294383       -4.5994568050  MEMB      219             0.0000000000
     27180       219  PMPG      H10R           -5.9103748701      -18.7945347279       -3.8648048259  MEMB      219             0.0000000000
     27181       219  PMPG      C211           -4.5910814186      -17.6102895907       -5.0902451364  MEMB      219             0.0000000000
     27182       219  PMPG      H11R           -3.6594992303      -17.9403506014       -5.5474371972  MEMB      219             0.0000000000
     27183       219  PMPG      H11S           -5.2446026195      -17.0018397090       -5.7518618216  MEMB      219             0.0000000000
     27184       219  PMPG      C212           -4.1771366944      -16.7005394281       -4.0287623701  MEMB      219             0.0000000000
     27185       219  PMPG      H12R           -4.9090250255      -16.1186938346       -3.4649341025  MEMB      219             0.0000000000
     27186       219  PMPG      H12S           -3.8599101931      -15.8922815136       -4.7822134859  MEMB      219             0.0000000000
     27187       219  PMPG      C213           -3.0929838069      -17.3459594572       -3.0602225622  MEMB      219             0.0000000000
     27188       219  PMPG      H13R           -2.1929109563      -17.7360536211       -3.5586257451  MEMB      219             0.0000000000
     27189       219  PMPG      H13S           -3.5945219596      -18.0864940327       -2.4740091384  MEMB      219             0.0000000000
     27190       219  PMPG      C214           -2.4405010745      -16.5849277830       -1.9304847096  MEMB      219             0.0000000000
     27191       219  PMPG      H14R           -1.7334447386      -15.7847748599       -1.8972524725  MEMB      219             0.0000000000
     27192       219  PMPG      H14S           -1.3835793768      -16.5389745011       -2.0153624459  MEMB      219             0.0000000000
     27193       219  PMPG      C215           -3.1562632312      -15.7049790213       -1.1837369524  MEMB      219             0.0000000000
     27194       219  PMPG      H15R           -3.5747278016      -16.5914990346       -0.8185780024  MEMB      219             0.0000000000
     27195       219  PMPG      H15S           -4.1048726574      -15.3991969409       -1.6088649887  MEMB      219             0.0000000000
     27196       219  PMPG      C216           -2.4304129192      -14.1834046453       -0.5085461851  MEMB      219             0.0000000000
     27197       219  PMPG      H16R           -1.4339417591      -14.5595103027       -0.6565044475  MEMB      219             0.0000000000
     27198       219  PMPG      H16S           -2.6224449850      -14.0708679791        0.3804411012  MEMB      219             0.0000000000
     27199       219  PMPG      H16T           -2.2348187504      -13.1723545781       -0.6673216996  MEMB      219             0.0000000000
     27200       219  PMPG      C33            -9.9313618389      -16.7914820132       -9.9288386710  MEMB      219             0.0000000000
     27201       219  PMPG      H3X            -8.8339159822      -16.8147719934       -9.9890115047  MEMB      219             0.0000000000
     27202       219  PMPG      H3Y           -10.2656802215      -17.7750643633      -10.2591315618  MEMB      219             0.0000000000
     27203       219  PMPG      C34           -10.5097539506      -16.5847640913       -8.5345213393  MEMB      219             0.0000000000
     27204       219  PMPG      H4X           -11.5931536951      -16.6847371995       -8.6572600368  MEMB      219             0.0000000000
     27205       219  PMPG      H4Y           -10.3134314350      -15.5706450979       -8.1335560443  MEMB      219             0.0000000000
     27206       219  PMPG      C35           -10.0890574120      -17.6822274867       -7.5524671838  MEMB      219             0.0000000000
     27207       219  PMPG      H5X           -10.0829185115      -18.6621211302       -8.0743431813  MEMB      219             0.0000000000
     27208       219  PMPG      H5Y           -10.8839912565      -17.7386378078       -6.7848309647  MEMB      219             0.0000000000
     27209       219  PMPG      C36            -8.7583977424      -17.4284625229       -6.8463646149  MEMB      219             0.0000000000
     27210       219  PMPG      H6X            -7.9802682059      -17.2459819106       -7.6282965440  MEMB      219             0.0000000000
     27211       219  PMPG      H6Y            -8.4754388623      -18.3222202501       -6.2447809490  MEMB      219             0.0000000000
     27212       219  PMPG      C37            -8.8415244884      -16.3189806433       -5.7896093797  MEMB      219             0.0000000000
     27213       219  PMPG      H7X            -9.0855333788      -15.3538570710       -6.2712592401  MEMB      219             0.0000000000
     27214       219  PMPG      H7Y            -7.8320131229      -16.1910433825       -5.3615573586  MEMB      219             0.0000000000
     27215       219  PMPG      C38            -9.7378812571      -16.6543622717       -4.5879504522  MEMB      219             0.0000000000
     27216       219  PMPG      H8X            -9.3757100568      -17.5835010631       -4.0876213325  MEMB      219             0.0000000000
     27217       219  PMPG      H8Y           -10.7873653355      -16.8465461658       -4.9129477637  MEMB      219             0.0000000000
     27218       219  PMPG      C39            -9.8239719713      -15.5283082724       -3.5521560565  MEMB      219             0.0000000000
     27219       219  PMPG      H9X           -10.1552970670      -14.6247985021       -4.0958619605  MEMB      219             0.0000000000
     27220       219  PMPG      H9Y            -8.8653006710      -15.2317278154       -3.0607046476  MEMB      219             0.0000000000
     27221       219  PMPG      C310          -10.8194536517      -16.0019845833       -2.4960580873  MEMB      219             0.0000000000
     27222       219  PMPG      H10X          -11.8230605255      -16.1960388392       -2.9327173112  MEMB      219             0.0000000000
     27223       219  PMPG      H10Y          -10.9963743117      -15.2154292529       -1.7293378693  MEMB      219             0.0000000000
     27224       219  PMPG      C311          -10.3536838748      -17.3487450610       -1.8756504948  MEMB      219             0.0000000000
     27225       219  PMPG      H11X          -10.5328959034      -18.2277351909       -2.4742701746  MEMB      219             0.0000000000
     27226       219  PMPG      H11Y          -11.0239541742      -17.5688941321       -1.0109952919  MEMB      219             0.0000000000
     27227       219  PMPG      C312           -8.8460832834      -17.4479679122       -1.4678087126  MEMB      219             0.0000000000
     27228       219  PMPG      H12X           -8.1741502285      -17.2754173392       -2.3086042914  MEMB      219             0.0000000000
     27229       219  PMPG      H12Y           -8.7184142200      -18.4167589533       -0.9233061226  MEMB      219             0.0000000000
     27230       219  PMPG      C313           -8.1602685945      -16.4270760623       -0.6024715139  MEMB      219             0.0000000000
     27231       219  PMPG      H13X           -8.5865368082      -16.7859570580        0.2485691981  MEMB      219             0.0000000000
     27232       219  PMPG      H13Y           -8.5103405464      -15.3904696124       -0.6702729417  MEMB      219             0.0000000000
     27233       219  PMPG      C314           -6.9300662873      -16.9003321809        0.0154079063  MEMB      219             0.0000000000
     27234       219  PMPG      H14X           -6.3180876849      -16.8129098369       -0.8725844275  MEMB      219             0.0000000000
     27235       219  PMPG      H14Y           -7.0168225031      -17.9711703506        0.2591952712  MEMB      219             0.0000000000
     27236       219  PMPG      C315           -6.7035244255      -16.1331703012        1.2592835386  MEMB      219             0.0000000000
     27237       219  PMPG      H15X           -5.8497015903      -16.4785440179        1.5901266248  MEMB      219             0.0000000000
     27238       219  PMPG      H15Y           -6.8190822913      -16.5651943346        2.2554009259  MEMB      219             0.0000000000
     27239       219  PMPG      C316           -6.9297136644      -14.6055202118        1.0926482498  MEMB      219             0.0000000000
     27240       219  PMPG      H16X           -7.8857890630      -14.2526601264        1.2965142685  MEMB      219             0.0000000000
     27241       219  PMPG      H16Y           -6.3570579505      -14.0192099979        0.3363358455  MEMB      219             0.0000000000
     27242       219  PMPG      H16Z           -6.3369348587      -14.1298729563        1.7427510009  MEMB      219             0.0000000000
     27243       220  PMPE      N             -24.2891470630        5.3705739190      -19.7944865885  MEMB      220             0.0000000000
     27244       220  PMPE      HN1           -25.2697351640        5.0227503837      -19.8446362496  MEMB      220             0.0000000000
     27245       220  PMPE      HN2           -24.1128980469        5.7874138955      -18.8636751493  MEMB      220             0.0000000000
     27246       220  PMPE      HN3           -24.0382948401        6.0930015977      -20.5065944298  MEMB      220             0.0000000000
     27247       220  PMPE      C12           -23.3081504439        4.2782583094      -20.1140546528  MEMB      220             0.0000000000
     27248       220  PMPE      H12A          -23.7265573033        3.7440607941      -20.9929276445  MEMB      220             0.0000000000
     27249       220  PMPE      H12B          -23.2572104520        3.6054792645      -19.2446938266  MEMB      220             0.0000000000
     27250       220  PMPE      C11           -21.9639697198        4.8885845440      -20.5163117971  MEMB      220             0.0000000000
     27251       220  PMPE      H11A          -22.2759130747        5.6447047032      -21.2543742385  MEMB      220             0.0000000000
     27252       220  PMPE      H11B          -21.2864811893        4.1589359199      -21.0149793336  MEMB      220             0.0000000000
     27253       220  PMPE      P             -20.5334368153        4.8566878628      -18.2985175040  MEMB      220             0.0000000000
     27254       220  PMPE      O13           -19.5358505742        5.7603639534      -17.6952502636  MEMB      220             0.0000000000
     27255       220  PMPE      O14           -20.0878726600        3.5442609225      -18.7534017969  MEMB      220             0.0000000000
     27256       220  PMPE      O11           -21.7419906065        4.5661692885      -17.3320057251  MEMB      220             0.0000000000
     27257       220  PMPE      O12           -21.3166394195        5.5936719511      -19.4747438754  MEMB      220             0.0000000000
     27258       220  PMPE      C1            -22.2671324075        5.4962787353      -16.4259372170  MEMB      220             0.0000000000
     27259       220  PMPE      HA            -23.3529048478        5.4906750292      -16.5926772806  MEMB      220             0.0000000000
     27260       220  PMPE      HB            -21.9027681618        6.5307554391      -16.6508216177  MEMB      220             0.0000000000
     27261       220  PMPE      C2            -22.0058790994        5.0493349560      -14.9556882512  MEMB      220             0.0000000000
     27262       220  PMPE      HS            -22.3760405056        5.8403476659      -14.2739815877  MEMB      220             0.0000000000
     27263       220  PMPE      O21           -20.6456217401        4.7420672938      -14.7063903135  MEMB      220             0.0000000000
     27264       220  PMPE      C21           -19.7951473456        5.6901459734      -14.7645901144  MEMB      220             0.0000000000
     27265       220  PMPE      O22           -20.0371319890        6.8607524271      -14.9826314238  MEMB      220             0.0000000000
     27266       220  PMPE      C22           -18.4970708430        4.9949086284      -14.3499899632  MEMB      220             0.0000000000
     27267       220  PMPE      H2R           -18.0977803801        4.5511571074      -15.2515361837  MEMB      220             0.0000000000
     27268       220  PMPE      H2S           -18.7341486672        4.3163950047      -13.5161952262  MEMB      220             0.0000000000
     27269       220  PMPE      C3            -22.7115982912        3.7659990843      -14.5004567591  MEMB      220             0.0000000000
     27270       220  PMPE      HX            -22.4067442132        2.9715104468      -15.2053883974  MEMB      220             0.0000000000
     27271       220  PMPE      HY            -23.8071728977        3.8389871173      -14.5756180602  MEMB      220             0.0000000000
     27272       220  PMPE      O31           -22.3566859183        3.5273855228      -13.1139179391  MEMB      220             0.0000000000
     27273       220  PMPE      C31           -21.3867432174        2.7276725165      -12.9880968826  MEMB      220             0.0000000000
     27274       220  PMPE      O32           -20.9323057965        2.0330825077      -13.8746037953  MEMB      220             0.0000000000
     27275       220  PMPE      C32           -20.8391948514        2.8218524795      -11.5846345046  MEMB      220             0.0000000000
     27276       220  PMPE      H2X           -21.0272692466        3.7547791293      -11.0999892098  MEMB      220             0.0000000000
     27277       220  PMPE      H2Y           -19.7948283155        2.3778412429      -11.5619237732  MEMB      220             0.0000000000
     27278       220  PMPE      C23           -17.3215847845        5.7825578518      -13.9976935321  MEMB      220             0.0000000000
     27279       220  PMPE      H3R           -17.1517935809        6.3441309789      -14.9301728617  MEMB      220             0.0000000000
     27280       220  PMPE      H3S           -16.3322904356        5.6045333557      -13.7205712964  MEMB      220             0.0000000000
     27281       220  PMPE      C24           -17.6696654329        6.1692514095      -12.7016831538  MEMB      220             0.0000000000
     27282       220  PMPE      H4R           -18.5060562055        6.6592496461      -13.0309668337  MEMB      220             0.0000000000
     27283       220  PMPE      H4S           -17.7781916758        7.0615852188      -12.7477277551  MEMB      220             0.0000000000
     27284       220  PMPE      C25           -17.1000617844        5.9216549059      -11.3454639197  MEMB      220             0.0000000000
     27285       220  PMPE      H5R           -16.0219861915        6.0899824738      -11.2808612586  MEMB      220             0.0000000000
     27286       220  PMPE      H5S           -17.4906593001        4.9041128121      -11.3195377834  MEMB      220             0.0000000000
     27287       220  PMPE      C26           -17.6845054455        6.6061316309      -10.1590966387  MEMB      220             0.0000000000
     27288       220  PMPE      H6R           -17.6283430384        7.6754819262      -10.0632889932  MEMB      220             0.0000000000
     27289       220  PMPE      H6S           -17.1287497133        6.8499483862       -9.4276508113  MEMB      220             0.0000000000
     27290       220  PMPE      C27           -18.6625565073        5.7518236069       -9.3556164761  MEMB      220             0.0000000000
     27291       220  PMPE      H7R           -18.7742405729        4.7631440568       -9.1963569674  MEMB      220             0.0000000000
     27292       220  PMPE      H7S           -19.2326097430        5.5616297590      -10.3699397708  MEMB      220             0.0000000000
     27293       220  PMPE      C28           -19.4704116641        6.3376831172       -7.9226286244  MEMB      220             0.0000000000
     27294       220  PMPE      H8R           -19.4332174779        7.5866429222       -7.9673530889  MEMB      220             0.0000000000
     27295       220  PMPE      H8S           -19.1769967363        6.6795938449       -7.0453660013  MEMB      220             0.0000000000
     27296       220  PMPE      C29           -21.0025082827        5.6610435553       -7.3858589118  MEMB      220             0.0000000000
     27297       220  PMPE      H9R           -20.7949867509        4.6953534215       -8.0116997786  MEMB      220             0.0000000000
     27298       220  PMPE      C217          -23.3738414614        6.2941663755       -8.5916209053  MEMB      220             0.0000000000
     27299       220  PMPE      H17R          -23.2758054981        5.4103566219       -9.2163262181  MEMB      220             0.0000000000
     27300       220  PMPE      H17S          -23.1371023092        6.7911689827       -9.8736798271  MEMB      220             0.0000000000
     27301       220  PMPE      C210          -22.3639929226        6.3827504289       -6.9799648318  MEMB      220             0.0000000000
     27302       220  PMPE      H10R          -22.9110821877        5.6549009776       -6.5511787339  MEMB      220             0.0000000000
     27303       220  PMPE      C211          -22.2406062873        7.7366151747       -6.0136425694  MEMB      220             0.0000000000
     27304       220  PMPE      H11R          -23.0669365825        8.4478669625       -6.0817937916  MEMB      220             0.0000000000
     27305       220  PMPE      H11S          -22.0649193087        8.7193431653       -6.3133211393  MEMB      220             0.0000000000
     27306       220  PMPE      C212          -21.0614089131        7.9429086349       -5.3095639507  MEMB      220             0.0000000000
     27307       220  PMPE      H12R          -21.0417234039        8.9927742764       -4.8604633841  MEMB      220             0.0000000000
     27308       220  PMPE      H12S          -20.1172290474        7.5847737270       -5.7372113641  MEMB      220             0.0000000000
     27309       220  PMPE      C213          -21.5839880846        7.1433574028       -4.4565259494  MEMB      220             0.0000000000
     27310       220  PMPE      H13R          -21.6080750003        6.0834278027       -4.7314425039  MEMB      220             0.0000000000
     27311       220  PMPE      H13S          -22.7165016398        7.2866836993       -4.2676334966  MEMB      220             0.0000000000
     27312       220  PMPE      C214          -20.4683847578        7.7116144880       -3.5578081098  MEMB      220             0.0000000000
     27313       220  PMPE      H14R          -19.5736771218        7.1575741316       -3.5705729176  MEMB      220             0.0000000000
     27314       220  PMPE      H14S          -21.1391078918        7.0390239945       -3.3221332470  MEMB      220             0.0000000000
     27315       220  PMPE      C215          -20.5020068423        8.8238916577       -2.4259549432  MEMB      220             0.0000000000
     27316       220  PMPE      H15R          -21.2997809555        9.6247231242       -2.4291638780  MEMB      220             0.0000000000
     27317       220  PMPE      H15S          -20.1142674680        9.4284922040       -2.9474707456  MEMB      220             0.0000000000
     27318       220  PMPE      C216          -19.8600052489        8.7646406996       -1.0244080701  MEMB      220             0.0000000000
     27319       220  PMPE      H16R          -20.2434962617        9.5835029968       -0.4492931695  MEMB      220             0.0000000000
     27320       220  PMPE      H16S          -20.1679129096        8.0324545838       -0.2715436964  MEMB      220             0.0000000000
     27321       220  PMPE      H16T          -18.8176249709        8.7133158173       -1.2682413638  MEMB      220             0.0000000000
     27322       220  PMPE      C33           -21.7402771315        2.2567318014      -10.5206481594  MEMB      220             0.0000000000
     27323       220  PMPE      H3X           -21.2813495099        2.1913971361       -9.5581309506  MEMB      220             0.0000000000
     27324       220  PMPE      H3Y           -21.2912269288        1.4321794241      -10.8187373031  MEMB      220             0.0000000000
     27325       220  PMPE      C34           -23.3488142025        2.2326550319      -10.5128076755  MEMB      220             0.0000000000
     27326       220  PMPE      H4X           -23.6657048488        2.1530693422      -11.5616272711  MEMB      220             0.0000000000
     27327       220  PMPE      H4Y           -23.3444207839        3.1139844360       -9.9359078048  MEMB      220             0.0000000000
     27328       220  PMPE      C35           -24.5738024403        1.4317079779       -9.6013563192  MEMB      220             0.0000000000
     27329       220  PMPE      H5X           -24.9751393953        0.3450306819       -9.6146726832  MEMB      220             0.0000000000
     27330       220  PMPE      H5Y           -25.4599139654        1.2879781099      -10.1723517790  MEMB      220             0.0000000000
     27331       220  PMPE      C36           -24.1028417862        0.9624860319       -8.2166273897  MEMB      220             0.0000000000
     27332       220  PMPE      H6X           -23.0237607843        0.8709390375       -8.3107796459  MEMB      220             0.0000000000
     27333       220  PMPE      H6Y           -24.4609521176       -0.0189300649       -7.8075810851  MEMB      220             0.0000000000
     27334       220  PMPE      C37           -23.6395743554        2.0974470616       -7.4777258894  MEMB      220             0.0000000000
     27335       220  PMPE      H7X           -24.5568418105        2.5161282933       -7.7544138662  MEMB      220             0.0000000000
     27336       220  PMPE      H7Y           -22.8945194434        2.7308089937       -7.9519677792  MEMB      220             0.0000000000
     27337       220  PMPE      C38           -23.6432182372        1.9111527704       -6.0272098863  MEMB      220             0.0000000000
     27338       220  PMPE      H8X           -24.3551517344        1.0659302595       -6.0896821835  MEMB      220             0.0000000000
     27339       220  PMPE      H8Y           -24.0045687784        2.8364234155       -5.5563361605  MEMB      220             0.0000000000
     27340       220  PMPE      C39           -22.4697093023        1.4547465293       -5.2757169055  MEMB      220             0.0000000000
     27341       220  PMPE      H9X           -22.5138548899        0.4037222589       -5.7151439461  MEMB      220             0.0000000000
     27342       220  PMPE      H9Y           -22.6512300029        0.8824869756       -4.3024923167  MEMB      220             0.0000000000
     27343       220  PMPE      C310          -21.3052392848        2.6713076987       -5.3762486848  MEMB      220             0.0000000000
     27344       220  PMPE      H10X          -21.3490157538        2.8286326201       -4.3211826440  MEMB      220             0.0000000000
     27345       220  PMPE      H10Y          -20.7599599600        3.6828430215       -5.7039581892  MEMB      220             0.0000000000
     27346       220  PMPE      C311          -20.1416068290        2.1974036993       -5.8829023687  MEMB      220             0.0000000000
     27347       220  PMPE      H11X          -20.2695556791        1.7544855519       -7.0097190972  MEMB      220             0.0000000000
     27348       220  PMPE      H11Y          -20.2007666283        1.4772261225       -4.9855056203  MEMB      220             0.0000000000
     27349       220  PMPE      C312          -18.6727632492        2.5991419650       -5.8684287113  MEMB      220             0.0000000000
     27350       220  PMPE      H12X          -18.6809299826        3.0672544616       -6.8372393600  MEMB      220             0.0000000000
     27351       220  PMPE      H12Y          -17.7412301633        1.9100842181       -5.9468143749  MEMB      220             0.0000000000
     27352       220  PMPE      C313          -18.2668701144        3.4627889698       -4.9342719361  MEMB      220             0.0000000000
     27353       220  PMPE      H13X          -19.0195415349        4.0821471633       -4.5072507797  MEMB      220             0.0000000000
     27354       220  PMPE      H13Y          -17.3386709770        3.8369900858       -5.2458606238  MEMB      220             0.0000000000
     27355       220  PMPE      C314          -17.6144892448        2.8665424521       -3.9608262743  MEMB      220             0.0000000000
     27356       220  PMPE      H14X          -17.3421414619        1.8079858758       -4.2309489874  MEMB      220             0.0000000000
     27357       220  PMPE      H14Y          -18.4861283247        2.7334986827       -3.4465927766  MEMB      220             0.0000000000
     27358       220  PMPE      C315          -17.0095022228        3.6694820057       -2.8113697560  MEMB      220             0.0000000000
     27359       220  PMPE      H15X          -16.1087397645        3.5536195210       -3.1542093389  MEMB      220             0.0000000000
     27360       220  PMPE      H15Y          -16.4808591792        3.2575013758       -1.9021660891  MEMB      220             0.0000000000
     27361       220  PMPE      C316          -17.6240667445        4.9022811791       -2.1743577880  MEMB      220             0.0000000000
     27362       220  PMPE      H16X          -16.9109100380        5.2255325261       -1.3560093559  MEMB      220             0.0000000000
     27363       220  PMPE      H16Y          -18.5157283102        4.9625002084       -1.6698778492  MEMB      220             0.0000000000
     27364       220  PMPE      H16Z          -17.7899407480        5.4000525082       -3.0096561547  MEMB      220             0.0000000000
     27365       221  PMPE      N              21.5364434564       10.4477568715      -16.9913497599  MEMB      221             0.0000000000
     27366       221  PMPE      HN1            21.9282964270       10.9535054603      -17.8129076678  MEMB      221             0.0000000000
     27367       221  PMPE      HN2            20.5021718315       10.5141922782      -17.1155157570  MEMB      221             0.0000000000
     27368       221  PMPE      HN3            21.8083269530       10.9552581980      -16.1280880234  MEMB      221             0.0000000000
     27369       221  PMPE      C12            21.9737416060        8.9954389982      -16.9296518810  MEMB      221             0.0000000000
     27370       221  PMPE      H12A           22.0286013529        8.7429316189      -15.8532714263  MEMB      221             0.0000000000
     27371       221  PMPE      H12B           23.0107882979        8.9597160379      -17.3188396107  MEMB      221             0.0000000000
     27372       221  PMPE      C11            21.1060681794        8.0328220119      -17.7785399934  MEMB      221             0.0000000000
     27373       221  PMPE      H11A           20.1736779269        7.6749607862      -17.2770613849  MEMB      221             0.0000000000
     27374       221  PMPE      H11B           21.6885266390        7.1134392581      -17.9425810918  MEMB      221             0.0000000000
     27375       221  PMPE      P              20.1387088513        7.7240885827      -20.1833947155  MEMB      221             0.0000000000
     27376       221  PMPE      O13            20.7914319340        6.4014093174      -20.2521961761  MEMB      221             0.0000000000
     27377       221  PMPE      O14            19.9645682496        8.5185555964      -21.4148351528  MEMB      221             0.0000000000
     27378       221  PMPE      O11            18.7478027551        7.6231004230      -19.4246098291  MEMB      221             0.0000000000
     27379       221  PMPE      O12            20.8713409060        8.6039873092      -19.0623073084  MEMB      221             0.0000000000
     27380       221  PMPE      C1             17.5249499195        7.8099236271      -20.1278333989  MEMB      221             0.0000000000
     27381       221  PMPE      HA             17.4042366316        6.9359171543      -20.7800570727  MEMB      221             0.0000000000
     27382       221  PMPE      HB             17.5294185561        8.7385573857      -20.7458440710  MEMB      221             0.0000000000
     27383       221  PMPE      C2             16.2831200713        7.8518199104      -19.1924118451  MEMB      221             0.0000000000
     27384       221  PMPE      HS             15.4105775826        8.2553324024      -19.7672183018  MEMB      221             0.0000000000
     27385       221  PMPE      O21            16.5189347488        8.5899920153      -18.0196720055  MEMB      221             0.0000000000
     27386       221  PMPE      C21            16.3960558036        9.7829461504      -18.2348025993  MEMB      221             0.0000000000
     27387       221  PMPE      O22            16.1712593040       10.3571304537      -19.2988132782  MEMB      221             0.0000000000
     27388       221  PMPE      C22            16.8214916008       10.2699918962      -16.8824782183  MEMB      221             0.0000000000
     27389       221  PMPE      H2R            16.8756420803       11.2871033027      -17.0945370864  MEMB      221             0.0000000000
     27390       221  PMPE      H2S            17.7902167844        9.8281562658      -16.6073476199  MEMB      221             0.0000000000
     27391       221  PMPE      C3             15.9549051089        6.4309585042      -18.7289362733  MEMB      221             0.0000000000
     27392       221  PMPE      HX             15.9883473182        5.8362574402      -19.6636744822  MEMB      221             0.0000000000
     27393       221  PMPE      HY             14.9545721223        6.3030396686      -18.2822490370  MEMB      221             0.0000000000
     27394       221  PMPE      O31            16.9831007474        5.9146843935      -17.8920450949  MEMB      221             0.0000000000
     27395       221  PMPE      C31            16.8885914248        5.8576397089      -16.5802329269  MEMB      221             0.0000000000
     27396       221  PMPE      O32            15.8974594165        6.0367535558      -15.9007830868  MEMB      221             0.0000000000
     27397       221  PMPE      C32            18.2343716284        5.3972843940      -16.0879754408  MEMB      221             0.0000000000
     27398       221  PMPE      H2X            19.0113218291        6.1062915879      -16.4449994446  MEMB      221             0.0000000000
     27399       221  PMPE      H2Y            18.3891346113        4.3973671618      -16.5504359615  MEMB      221             0.0000000000
     27400       221  PMPE      C23            15.9855119424       10.6012903773      -15.6958422430  MEMB      221             0.0000000000
     27401       221  PMPE      H3R            15.1959372602       11.1854402663      -15.9683740242  MEMB      221             0.0000000000
     27402       221  PMPE      H3S            16.3131972547       11.2294527675      -14.8930974994  MEMB      221             0.0000000000
     27403       221  PMPE      C24            15.5190154421        9.4165968301      -15.0856798931  MEMB      221             0.0000000000
     27404       221  PMPE      H4R            15.3790573159        8.6515306087      -15.8652696809  MEMB      221             0.0000000000
     27405       221  PMPE      H4S            14.5232883002        9.7039991580      -14.6805156034  MEMB      221             0.0000000000
     27406       221  PMPE      C25            16.5633628817        9.1177993609      -14.0541916356  MEMB      221             0.0000000000
     27407       221  PMPE      H5R            16.7803966579        9.9843538116      -13.4091583129  MEMB      221             0.0000000000
     27408       221  PMPE      H5S            17.4314559941        8.5066112048      -14.3066741814  MEMB      221             0.0000000000
     27409       221  PMPE      C26            16.0510674821        8.3004987787      -13.1027790977  MEMB      221             0.0000000000
     27410       221  PMPE      H6R            15.4295848269        7.5274169717      -13.7250652957  MEMB      221             0.0000000000
     27411       221  PMPE      H6S            15.2081650298        8.9628678978      -12.6868979228  MEMB      221             0.0000000000
     27412       221  PMPE      C27            17.1278622052        7.6742878704      -11.9582374609  MEMB      221             0.0000000000
     27413       221  PMPE      H7R            17.8674437600        6.9988988555      -12.2154748731  MEMB      221             0.0000000000
     27414       221  PMPE      H7S            16.7968161051        6.6387443466      -11.5130482157  MEMB      221             0.0000000000
     27415       221  PMPE      C28            17.5784647943        8.5897053080      -10.6970355520  MEMB      221             0.0000000000
     27416       221  PMPE      H8R            16.8588831695        9.0602883616       -9.9729693564  MEMB      221             0.0000000000
     27417       221  PMPE      H8S            17.8366137617        9.4901426725      -11.1784806231  MEMB      221             0.0000000000
     27418       221  PMPE      C29            18.3599318657        7.8336843063       -9.7028324693  MEMB      221             0.0000000000
     27419       221  PMPE      H9R            19.0329363433        7.1100758409      -10.0447810792  MEMB      221             0.0000000000
     27420       221  PMPE      C217           17.7227910222        7.1268673864       -8.5674945384  MEMB      221             0.0000000000
     27421       221  PMPE      H17R           17.9241647267        6.4184010071       -7.8294944289  MEMB      221             0.0000000000
     27422       221  PMPE      H17S           16.8253973632        7.1966154360       -8.7286297623  MEMB      221             0.0000000000
     27423       221  PMPE      C210           18.3723599497        8.4717544431       -8.3631128111  MEMB      221             0.0000000000
     27424       221  PMPE      H10R           19.2652066002        8.3185993125       -7.8465820386  MEMB      221             0.0000000000
     27425       221  PMPE      C211           17.6784226191        9.8000787413       -8.0466990966  MEMB      221             0.0000000000
     27426       221  PMPE      H11R           16.6531554179        9.7449970256       -8.4017976180  MEMB      221             0.0000000000
     27427       221  PMPE      H11S           18.0159643801       10.6469475368       -8.6096065654  MEMB      221             0.0000000000
     27428       221  PMPE      C212           17.8750978925       10.0894662644       -6.5827964943  MEMB      221             0.0000000000
     27429       221  PMPE      H12R           18.8208848146       10.1314651616       -6.1882808754  MEMB      221             0.0000000000
     27430       221  PMPE      H12S           17.4243477252        9.1556936270       -6.0696934768  MEMB      221             0.0000000000
     27431       221  PMPE      C213           17.4113275683       11.4817080827       -5.9762955760  MEMB      221             0.0000000000
     27432       221  PMPE      H13R           17.2016965713       12.3624477326       -6.5657953177  MEMB      221             0.0000000000
     27433       221  PMPE      H13S           17.3100778878       11.5114932775       -4.8803745130  MEMB      221             0.0000000000
     27434       221  PMPE      C214           16.1762504949       11.6697617135       -6.0848016812  MEMB      221             0.0000000000
     27435       221  PMPE      H14R           16.3347529688       10.4226247539       -5.7094528709  MEMB      221             0.0000000000
     27436       221  PMPE      H14S           15.7213214784       11.4170307066       -7.1117756269  MEMB      221             0.0000000000
     27437       221  PMPE      C215           14.9244330657       12.7719949005       -5.3663024128  MEMB      221             0.0000000000
     27438       221  PMPE      H15R           13.7545853958       12.7164933161       -5.6593814677  MEMB      221             0.0000000000
     27439       221  PMPE      H15S           14.5994315582       13.3720505146       -5.8778950034  MEMB      221             0.0000000000
     27440       221  PMPE      C216           15.0791253507       13.6133883428       -4.1598075106  MEMB      221             0.0000000000
     27441       221  PMPE      H16R           15.9732964437       13.3572056797       -3.8344706200  MEMB      221             0.0000000000
     27442       221  PMPE      H16S           14.1377948103       13.5060700521       -3.3878916195  MEMB      221             0.0000000000
     27443       221  PMPE      H16T           14.5626382551       13.2660823053       -3.2579193289  MEMB      221             0.0000000000
     27444       221  PMPE      C33            18.2737239821        5.2064925568      -14.5630774007  MEMB      221             0.0000000000
     27445       221  PMPE      H3X            17.7458194651        4.2648322438      -14.3372799277  MEMB      221             0.0000000000
     27446       221  PMPE      H3Y            17.7123995888        5.9682687744      -13.9876651950  MEMB      221             0.0000000000
     27447       221  PMPE      C34            19.6759577438        5.0499020832      -14.0009134054  MEMB      221             0.0000000000
     27448       221  PMPE      H4X            20.0398497299        4.0270611674      -14.2352949116  MEMB      221             0.0000000000
     27449       221  PMPE      H4Y            19.6586760074        5.0905498191      -12.9020929578  MEMB      221             0.0000000000
     27450       221  PMPE      C35            20.6583521628        6.0527571120      -14.5377321872  MEMB      221             0.0000000000
     27451       221  PMPE      H5X            20.2531758603        7.0394648047      -14.7505888312  MEMB      221             0.0000000000
     27452       221  PMPE      H5Y            20.9161840941        5.5915192741      -15.4834908817  MEMB      221             0.0000000000
     27453       221  PMPE      C36            21.8635798425        6.1305300070      -13.6907773809  MEMB      221             0.0000000000
     27454       221  PMPE      H6X            22.5317238600        6.8515367095      -14.1707265564  MEMB      221             0.0000000000
     27455       221  PMPE      H6Y            22.1081902751        5.0839818010      -13.8279048414  MEMB      221             0.0000000000
     27456       221  PMPE      C37            21.8446888478        6.5354183897      -12.2716075172  MEMB      221             0.0000000000
     27457       221  PMPE      H7X            22.7571023624        6.5433614485      -11.7652725925  MEMB      221             0.0000000000
     27458       221  PMPE      H7Y            21.3091237872        5.8126416464      -11.6735302046  MEMB      221             0.0000000000
     27459       221  PMPE      C38            21.4967402844        7.9728477479      -12.1130044682  MEMB      221             0.0000000000
     27460       221  PMPE      H8X            20.4763771023        7.9663037147      -12.5053126550  MEMB      221             0.0000000000
     27461       221  PMPE      H8Y            22.1502431132        8.6141855625      -12.7376983504  MEMB      221             0.0000000000
     27462       221  PMPE      C39            21.5201489735        8.4451148348      -10.6724068035  MEMB      221             0.0000000000
     27463       221  PMPE      H9X            21.2058247418        7.5913084254      -10.0808689715  MEMB      221             0.0000000000
     27464       221  PMPE      H9Y            20.7740223722        9.2349896856      -10.4887320332  MEMB      221             0.0000000000
     27465       221  PMPE      C310           22.9027386323        8.9273848853      -10.2448414540  MEMB      221             0.0000000000
     27466       221  PMPE      H10X           23.4253830578        9.5446147629      -10.9560497097  MEMB      221             0.0000000000
     27467       221  PMPE      H10Y           23.6044575220        8.1336881178      -10.4409895574  MEMB      221             0.0000000000
     27468       221  PMPE      C311           23.0439687268        9.6048380573       -8.8790969923  MEMB      221             0.0000000000
     27469       221  PMPE      H11X           22.8505424579       10.6489781854       -8.9074215161  MEMB      221             0.0000000000
     27470       221  PMPE      H11Y           24.1304066143        9.4468810399       -8.5670984779  MEMB      221             0.0000000000
     27471       221  PMPE      C312           21.8884882909        9.2767708816       -7.8598344885  MEMB      221             0.0000000000
     27472       221  PMPE      H12X           21.6657931568        8.1902004317       -7.9522174012  MEMB      221             0.0000000000
     27473       221  PMPE      H12Y           20.9586039521        9.1044133354       -8.2723850798  MEMB      221             0.0000000000
     27474       221  PMPE      C313           22.0393137060        9.6618036869       -6.3420191829  MEMB      221             0.0000000000
     27475       221  PMPE      H13X           22.8904726168        9.3065827689       -5.8351156962  MEMB      221             0.0000000000
     27476       221  PMPE      H13Y           21.4248345822        9.0758341521       -5.6374330967  MEMB      221             0.0000000000
     27477       221  PMPE      C314           22.3348517562       10.9880038871       -6.0897863417  MEMB      221             0.0000000000
     27478       221  PMPE      H14X           21.5134370874       11.3693141582       -6.6768952013  MEMB      221             0.0000000000
     27479       221  PMPE      H14Y           23.3169433183       11.1189220605       -6.5860303949  MEMB      221             0.0000000000
     27480       221  PMPE      C315           22.2610041085       11.2209945112       -4.6214921629  MEMB      221             0.0000000000
     27481       221  PMPE      H15X           23.1471884480       11.7897320489       -4.2977791994  MEMB      221             0.0000000000
     27482       221  PMPE      H15Y           22.2839956405       10.3938353319       -3.9571762912  MEMB      221             0.0000000000
     27483       221  PMPE      C316           20.9471420425       11.5634431596       -4.1095277929  MEMB      221             0.0000000000
     27484       221  PMPE      H16X           21.0687308762       11.7975194587       -3.0160571093  MEMB      221             0.0000000000
     27485       221  PMPE      H16Y           20.0844091998       10.9746648554       -4.3353092399  MEMB      221             0.0000000000
     27486       221  PMPE      H16Z           20.6652472034       12.4032674537       -4.7465905731  MEMB      221             0.0000000000
     27487       222  PMPE      N              22.3301575872       -3.9193305362      -18.1271677892  MEMB      222             0.0000000000
     27488       222  PMPE      HN1            22.6569240629       -4.1299395116      -17.1574616540  MEMB      222             0.0000000000
     27489       222  PMPE      HN2            22.3540956601       -2.9033449515      -18.3526571949  MEMB      222             0.0000000000
     27490       222  PMPE      HN3            21.3828308493       -4.3397379342      -18.2836587047  MEMB      222             0.0000000000
     27491       222  PMPE      C12            23.1107043563       -4.6725978665      -19.1441603837  MEMB      222             0.0000000000
     27492       222  PMPE      H12A           24.1873403061       -4.5599884277      -18.9349097902  MEMB      222             0.0000000000
     27493       222  PMPE      H12B           22.9274525507       -4.1654555986      -20.1063016390  MEMB      222             0.0000000000
     27494       222  PMPE      C11            22.5949668875       -6.1183715447      -19.2718105515  MEMB      222             0.0000000000
     27495       222  PMPE      H11A           22.9623027629       -6.6907421622      -18.3793246373  MEMB      222             0.0000000000
     27496       222  PMPE      H11B           23.0095265095       -6.4707117055      -20.2557105387  MEMB      222             0.0000000000
     27497       222  PMPE      P              20.5116550512       -7.6598065312      -19.1289112836  MEMB      222             0.0000000000
     27498       222  PMPE      O13            21.4624487470       -8.4835614537      -18.3492455830  MEMB      222             0.0000000000
     27499       222  PMPE      O14            20.0874527874       -8.1080878336      -20.4680596831  MEMB      222             0.0000000000
     27500       222  PMPE      O11            19.2272337672       -7.4437171797      -18.2283036953  MEMB      222             0.0000000000
     27501       222  PMPE      O12            21.1645153459       -6.1880864971      -19.3136171424  MEMB      222             0.0000000000
     27502       222  PMPE      C1             18.7028714404       -6.1978239788      -17.8704055571  MEMB      222             0.0000000000
     27503       222  PMPE      HA             17.6689229000       -6.4232384027      -17.5448448145  MEMB      222             0.0000000000
     27504       222  PMPE      HB             18.5931728179       -5.5358522188      -18.7709653035  MEMB      222             0.0000000000
     27505       222  PMPE      C2             19.5840926833       -5.6143341377      -16.7009885753  MEMB      222             0.0000000000
     27506       222  PMPE      HS             20.4353501076       -5.0961630064      -17.1640975269  MEMB      222             0.0000000000
     27507       222  PMPE      O21            19.9783553782       -6.5431838515      -15.7039086571  MEMB      222             0.0000000000
     27508       222  PMPE      C21            20.9700265620       -6.1561958824      -14.9040310011  MEMB      222             0.0000000000
     27509       222  PMPE      O22            21.6494874560       -5.1581698791      -15.0931510720  MEMB      222             0.0000000000
     27510       222  PMPE      C22            21.0074850966       -7.0997076402      -13.6855948950  MEMB      222             0.0000000000
     27511       222  PMPE      H2R            21.2155114035       -8.1202776679      -14.0578049986  MEMB      222             0.0000000000
     27512       222  PMPE      H2S            20.0098190733       -7.0871841208      -13.1948767074  MEMB      222             0.0000000000
     27513       222  PMPE      C3             18.9766718406       -4.6094335191      -15.8845765875  MEMB      222             0.0000000000
     27514       222  PMPE      HX             18.4362709557       -4.1643346618      -16.7941902251  MEMB      222             0.0000000000
     27515       222  PMPE      HY             19.6021925541       -3.7847132799      -15.5676533946  MEMB      222             0.0000000000
     27516       222  PMPE      O31            18.1978191701       -5.2536491602      -14.7597803277  MEMB      222             0.0000000000
     27517       222  PMPE      C31            18.1828807536       -4.6456319606      -13.6055029532  MEMB      222             0.0000000000
     27518       222  PMPE      O32            18.8293162221       -3.7282835496      -13.2701837533  MEMB      222             0.0000000000
     27519       222  PMPE      C32            17.1282215091       -5.1642926723      -12.7392911607  MEMB      222             0.0000000000
     27520       222  PMPE      H2X            17.2321479245       -6.1834580568      -12.5848567565  MEMB      222             0.0000000000
     27521       222  PMPE      H2Y            16.2442828168       -5.3798902012      -13.4362362088  MEMB      222             0.0000000000
     27522       222  PMPE      C23            21.9851684084       -6.6415413506      -12.5738198362  MEMB      222             0.0000000000
     27523       222  PMPE      H3R            21.6368147961       -5.6350958639      -12.2600605857  MEMB      222             0.0000000000
     27524       222  PMPE      H3S            23.0295156562       -6.5405921089      -12.9493589454  MEMB      222             0.0000000000
     27525       222  PMPE      C24            21.9871082701       -7.5059056055      -11.2848187752  MEMB      222             0.0000000000
     27526       222  PMPE      H4R            22.6140183404       -8.3846753681      -11.5269967294  MEMB      222             0.0000000000
     27527       222  PMPE      H4S            20.9743813147       -7.8736421697      -11.0499144738  MEMB      222             0.0000000000
     27528       222  PMPE      C25            22.5391219218       -6.7480658973      -10.0469996956  MEMB      222             0.0000000000
     27529       222  PMPE      H5R            21.8226079717       -5.9453185143       -9.7560708015  MEMB      222             0.0000000000
     27530       222  PMPE      H5S            23.4818006720       -6.3379090506      -10.4747456799  MEMB      222             0.0000000000
     27531       222  PMPE      C26            22.9299450430       -7.5502395384       -8.7849211257  MEMB      222             0.0000000000
     27532       222  PMPE      H6R            23.2686445454       -8.5414201800       -9.1348749931  MEMB      222             0.0000000000
     27533       222  PMPE      H6S            22.0938218679       -7.6710207130       -8.0537977139  MEMB      222             0.0000000000
     27534       222  PMPE      C27            24.0888599511       -6.9873766298       -7.9788161861  MEMB      222             0.0000000000
     27535       222  PMPE      H7R            24.8905135197       -6.5072674488       -8.5878981050  MEMB      222             0.0000000000
     27536       222  PMPE      H7S            24.5284306481       -7.7946665548       -7.3545439813  MEMB      222             0.0000000000
     27537       222  PMPE      C28            23.5833410819       -6.0931698625       -6.9453049998  MEMB      222             0.0000000000
     27538       222  PMPE      H8R            22.7945217257       -6.4554105208       -6.2975236364  MEMB      222             0.0000000000
     27539       222  PMPE      H8S            23.1072163168       -5.2739224040       -7.5154559979  MEMB      222             0.0000000000
     27540       222  PMPE      C29            24.8506068620       -5.8209138468       -6.2185023775  MEMB      222             0.0000000000
     27541       222  PMPE      H9R            25.4066126418       -5.0333137227       -6.6723000493  MEMB      222             0.0000000000
     27542       222  PMPE      C217           25.6546811750       -6.6550590951       -5.2038492471  MEMB      222             0.0000000000
     27543       222  PMPE      H17R           26.5180898941       -6.0895680859       -4.7919203798  MEMB      222             0.0000000000
     27544       222  PMPE      H17S           25.0884586574       -7.5055459930       -5.0100494878  MEMB      222             0.0000000000
     27545       222  PMPE      C210           24.6802146941       -6.0940989450       -4.7277088634  MEMB      222             0.0000000000
     27546       222  PMPE      H10R           25.4686690440       -5.2089455268       -3.9085709892  MEMB      222             0.0000000000
     27547       222  PMPE      C211           22.8256310314       -6.6283573894       -4.0080373815  MEMB      222             0.0000000000
     27548       222  PMPE      H11R           23.5353772763       -7.2119129097       -3.9610281848  MEMB      222             0.0000000000
     27549       222  PMPE      H11S           21.9506906685       -5.8448974962       -4.1936552153  MEMB      222             0.0000000000
     27550       222  PMPE      C212           22.7841308690       -6.1626759123       -2.6004769510  MEMB      222             0.0000000000
     27551       222  PMPE      H12R           21.6993871743       -6.6664251219       -2.1817694602  MEMB      222             0.0000000000
     27552       222  PMPE      H12S           23.6148302420       -4.4563275808       -2.0822935090  MEMB      222             0.0000000000
     27553       222  PMPE      C213           24.1243035277       -5.9283160086       -1.5633868453  MEMB      222             0.0000000000
     27554       222  PMPE      H13R           24.9220423414       -5.0114793809       -1.7712159376  MEMB      222             0.0000000000
     27555       222  PMPE      H13S           24.9344604786       -6.3849158521       -1.9021670145  MEMB      222             0.0000000000
     27556       222  PMPE      C214           24.1371037216       -6.0187522924       -0.0334525621  MEMB      222             0.0000000000
     27557       222  PMPE      H14R           25.2084502063       -5.8943879930        0.3172890982  MEMB      222             0.0000000000
     27558       222  PMPE      H14S           23.6704124821       -6.9473877651        0.2186813082  MEMB      222             0.0000000000
     27559       222  PMPE      C215           23.4627574498       -5.0651298171        0.8865765079  MEMB      222             0.0000000000
     27560       222  PMPE      H15R           22.4064381300       -4.7233525312        1.0490759531  MEMB      222             0.0000000000
     27561       222  PMPE      H15S           23.5540239215       -3.9671334889        0.8825731458  MEMB      222             0.0000000000
     27562       222  PMPE      C216           23.9096282352       -5.4895765325        1.7715632507  MEMB      222             0.0000000000
     27563       222  PMPE      H16R           23.3150960111       -4.9816091461        2.4169261935  MEMB      222             0.0000000000
     27564       222  PMPE      H16S           23.0273997900       -5.7960070754        2.1568782421  MEMB      222             0.0000000000
     27565       222  PMPE      H16T           24.8844198981       -5.3619820880        2.4226222966  MEMB      222             0.0000000000
     27566       222  PMPE      C33            16.9834932996       -4.2502913946      -11.4397880006  MEMB      222             0.0000000000
     27567       222  PMPE      H3X            15.9679549306       -4.4349526075      -10.8692719215  MEMB      222             0.0000000000
     27568       222  PMPE      H3Y            17.0874749468       -3.1529602173      -11.6477427150  MEMB      222             0.0000000000
     27569       222  PMPE      C34            17.3367791710       -4.7881546223      -10.1950717447  MEMB      222             0.0000000000
     27570       222  PMPE      H4X            17.0005469658       -5.8604372649      -10.1888358667  MEMB      222             0.0000000000
     27571       222  PMPE      H4Y            16.7886365456       -4.1709104150       -9.3922323850  MEMB      222             0.0000000000
     27572       222  PMPE      C35            18.7351972662       -4.6051255593       -9.9989550507  MEMB      222             0.0000000000
     27573       222  PMPE      H5X            18.9845778550       -3.5430321169      -10.2495293938  MEMB      222             0.0000000000
     27574       222  PMPE      H5Y            19.3758405195       -5.2776219183      -10.5933938266  MEMB      222             0.0000000000
     27575       222  PMPE      C36            18.9041054604       -4.9145234409       -8.5665760072  MEMB      222             0.0000000000
     27576       222  PMPE      H6X            18.2749849586       -4.2493182537       -7.9115011622  MEMB      222             0.0000000000
     27577       222  PMPE      H6Y            19.9580955110       -4.6950359706       -8.5877709500  MEMB      222             0.0000000000
     27578       222  PMPE      C37            18.8888368802       -6.3355818016       -8.1022740214  MEMB      222             0.0000000000
     27579       222  PMPE      H7X            19.4295397902       -7.0085334868       -8.7955140627  MEMB      222             0.0000000000
     27580       222  PMPE      H7Y            17.8342280216       -6.6071659520       -8.0655612452  MEMB      222             0.0000000000
     27581       222  PMPE      C38            19.4589208221       -6.4895696035       -6.7041462903  MEMB      222             0.0000000000
     27582       222  PMPE      H8X            18.9636669636       -5.7769987532       -6.0013217075  MEMB      222             0.0000000000
     27583       222  PMPE      H8Y            20.5359849714       -6.2451072795       -6.7889391586  MEMB      222             0.0000000000
     27584       222  PMPE      C39            19.1801814882       -7.8321116405       -6.0333465065  MEMB      222             0.0000000000
     27585       222  PMPE      H9X            19.4866406110       -8.7558785012       -6.5680856800  MEMB      222             0.0000000000
     27586       222  PMPE      H9Y            18.0979318414       -7.7950114952       -5.8929335677  MEMB      222             0.0000000000
     27587       222  PMPE      C310           19.8378651155       -7.8005070647       -4.6540564182  MEMB      222             0.0000000000
     27588       222  PMPE      H10X           19.5268015227       -6.8611556731       -4.1429392076  MEMB      222             0.0000000000
     27589       222  PMPE      H10Y           20.8975001788       -8.0169318165       -4.7446857505  MEMB      222             0.0000000000
     27590       222  PMPE      C311           19.6346379934       -8.9360172544       -3.7515410102  MEMB      222             0.0000000000
     27591       222  PMPE      H11X           19.9895746670       -9.8660895424       -4.2422788056  MEMB      222             0.0000000000
     27592       222  PMPE      H11Y           18.5966563490       -8.6021310688       -3.8660075395  MEMB      222             0.0000000000
     27593       222  PMPE      C312           20.0690555957       -8.9836069950       -2.3016192629  MEMB      222             0.0000000000
     27594       222  PMPE      H12X           19.4610231200       -9.7568697242       -1.8028907894  MEMB      222             0.0000000000
     27595       222  PMPE      H12Y           19.8251383982       -8.0552413726       -1.7554028932  MEMB      222             0.0000000000
     27596       222  PMPE      C313           21.5317377278       -9.4353123666       -2.1992071541  MEMB      222             0.0000000000
     27597       222  PMPE      H13X           22.1124824501       -8.6866922155       -2.7609624915  MEMB      222             0.0000000000
     27598       222  PMPE      H13Y           21.7559145691      -10.4159814330       -2.6782231063  MEMB      222             0.0000000000
     27599       222  PMPE      C314           22.1499834223       -9.3152402539       -0.8035922910  MEMB      222             0.0000000000
     27600       222  PMPE      H14X           22.0165995595       -8.2572732482       -0.5056627457  MEMB      222             0.0000000000
     27601       222  PMPE      H14Y           23.2536771069       -9.4456240037       -0.8552348686  MEMB      222             0.0000000000
     27602       222  PMPE      C315           21.5192943157      -10.1615331809        0.3030522359  MEMB      222             0.0000000000
     27603       222  PMPE      H15X           20.4384315528      -10.3283643013        0.1485034552  MEMB      222             0.0000000000
     27604       222  PMPE      H15Y           21.5616465828       -9.5685899462        1.2477984309  MEMB      222             0.0000000000
     27605       222  PMPE      C316           22.1803440667      -11.5250554686        0.4694861760  MEMB      222             0.0000000000
     27606       222  PMPE      H16X           22.2519569255      -12.0598678543       -0.5087874754  MEMB      222             0.0000000000
     27607       222  PMPE      H16Y           21.5858912235      -12.1416683669        1.1752192447  MEMB      222             0.0000000000
     27608       222  PMPE      H16Z           23.1939961368      -11.3997010677        0.9004341329  MEMB      222             0.0000000000
     27609       223  PMPE      N              14.9923406719      -15.8333883044      -19.3665029782  MEMB      223             0.0000000000
     27610       223  PMPE      HN1            14.2143372888      -15.2055781376      -19.6195510431  MEMB      223             0.0000000000
     27611       223  PMPE      HN2            15.7563324571      -15.6920301683      -20.0759397753  MEMB      223             0.0000000000
     27612       223  PMPE      HN3            14.5870588825      -16.7900927054      -19.3548443715  MEMB      223             0.0000000000
     27613       223  PMPE      C12            15.6190553356      -15.4717259944      -18.0342004318  MEMB      223             0.0000000000
     27614       223  PMPE      H12A           15.6160121848      -16.3529187577      -17.3607957786  MEMB      223             0.0000000000
     27615       223  PMPE      H12B           14.9692893489      -14.7129217507      -17.5788952464  MEMB      223             0.0000000000
     27616       223  PMPE      C11            17.0257852914      -14.8723900813      -18.1853618300  MEMB      223             0.0000000000
     27617       223  PMPE      H11A           17.6618223885      -15.6859838838      -18.6048290597  MEMB      223             0.0000000000
     27618       223  PMPE      H11B           17.4014999332      -14.6122946762      -17.1557045361  MEMB      223             0.0000000000
     27619       223  PMPE      P              18.5090224811      -13.1546341930      -19.3620644423  MEMB      223             0.0000000000
     27620       223  PMPE      O13            18.3522994250      -12.0521609498      -20.3206544293  MEMB      223             0.0000000000
     27621       223  PMPE      O14            19.3633529976      -14.2956876973      -19.7738950485  MEMB      223             0.0000000000
     27622       223  PMPE      O11            18.8443871337      -12.6369195281      -17.8767543084  MEMB      223             0.0000000000
     27623       223  PMPE      O12            17.0245761844      -13.7364953790      -19.0656369244  MEMB      223             0.0000000000
     27624       223  PMPE      C1             17.8835076297      -11.7878136522      -17.2016875271  MEMB      223             0.0000000000
     27625       223  PMPE      HA             16.8320595191      -12.0932470968      -17.3972692141  MEMB      223             0.0000000000
     27626       223  PMPE      HB             17.9615263391      -10.7698682362      -17.6321959118  MEMB      223             0.0000000000
     27627       223  PMPE      C2             18.0709358121      -11.7640042539      -15.6419391447  MEMB      223             0.0000000000
     27628       223  PMPE      HS             19.0404996119      -11.2623823232      -15.3975208828  MEMB      223             0.0000000000
     27629       223  PMPE      O21            17.8861706122      -13.0868549189      -15.0846004698  MEMB      223             0.0000000000
     27630       223  PMPE      C21            18.9220915901      -13.5731987510      -14.4316669065  MEMB      223             0.0000000000
     27631       223  PMPE      O22            20.0416670402      -13.0992296731      -14.3939064115  MEMB      223             0.0000000000
     27632       223  PMPE      C22            18.4995482315      -14.7609731877      -13.5974632663  MEMB      223             0.0000000000
     27633       223  PMPE      H2R            19.0055476310      -15.6867706048      -13.9678277141  MEMB      223             0.0000000000
     27634       223  PMPE      H2S            17.3893173665      -14.8668961758      -13.5804261029  MEMB      223             0.0000000000
     27635       223  PMPE      C3             17.1766053294      -10.8676696126      -14.7917345673  MEMB      223             0.0000000000
     27636       223  PMPE      HX             16.0961028149      -11.0959776507      -15.0607436848  MEMB      223             0.0000000000
     27637       223  PMPE      HY             17.4265108504       -9.8105245844      -15.0213913654  MEMB      223             0.0000000000
     27638       223  PMPE      O31            17.6901893333      -11.1750206246      -13.4234150922  MEMB      223             0.0000000000
     27639       223  PMPE      C31            16.8890445170      -10.7634233712      -12.5404623086  MEMB      223             0.0000000000
     27640       223  PMPE      O32            15.9224961574      -10.2980918436      -12.9397964940  MEMB      223             0.0000000000
     27641       223  PMPE      C32            17.2516276420      -10.7478245670      -11.0644121759  MEMB      223             0.0000000000
     27642       223  PMPE      H2X            17.9652667832       -9.9266288873      -11.0597343754  MEMB      223             0.0000000000
     27643       223  PMPE      H2Y            17.6357589996      -11.7549549017      -11.0445907445  MEMB      223             0.0000000000
     27644       223  PMPE      C23            18.9010180216      -14.4780372673      -12.1375073784  MEMB      223             0.0000000000
     27645       223  PMPE      H3R            18.2651432735      -13.6395428002      -11.7584661691  MEMB      223             0.0000000000
     27646       223  PMPE      H3S            19.9634466115      -14.2031125201      -11.9804008779  MEMB      223             0.0000000000
     27647       223  PMPE      C24            18.6817942923      -15.7338803433      -11.3169934533  MEMB      223             0.0000000000
     27648       223  PMPE      H4R            19.3393496923      -15.8210306632      -10.4288100272  MEMB      223             0.0000000000
     27649       223  PMPE      H4S            18.9594552862      -16.6302144922      -11.9208150389  MEMB      223             0.0000000000
     27650       223  PMPE      C25            17.2483519295      -15.7192900993      -10.8371233235  MEMB      223             0.0000000000
     27651       223  PMPE      H5R            16.5455807551      -15.7407816190      -11.7177966150  MEMB      223             0.0000000000
     27652       223  PMPE      H5S            17.0217348236      -14.8412253585      -10.2233951782  MEMB      223             0.0000000000
     27653       223  PMPE      C26            17.0255968304      -16.7708827352       -9.8508597336  MEMB      223             0.0000000000
     27654       223  PMPE      H6R            17.6987053168      -17.1472329369       -9.1490858370  MEMB      223             0.0000000000
     27655       223  PMPE      H6S            17.6936023840      -17.7402249968      -10.2439270113  MEMB      223             0.0000000000
     27656       223  PMPE      C27            15.4493188583      -16.7229022322       -9.3196346238  MEMB      223             0.0000000000
     27657       223  PMPE      H7R            14.7198365982      -17.6589361193       -9.1840131707  MEMB      223             0.0000000000
     27658       223  PMPE      H7S            14.7280173302      -16.3464619351      -10.0164491644  MEMB      223             0.0000000000
     27659       223  PMPE      C28            15.6961843957      -16.1972967822       -7.9995375888  MEMB      223             0.0000000000
     27660       223  PMPE      H8R            15.7503379100      -15.1849085056       -8.4059297052  MEMB      223             0.0000000000
     27661       223  PMPE      H8S            16.6796517876      -16.3785823054       -7.5279375255  MEMB      223             0.0000000000
     27662       223  PMPE      C29            14.5623691505      -16.5640205948       -7.1531966958  MEMB      223             0.0000000000
     27663       223  PMPE      H9R            14.3626839256      -17.5645229327       -6.7591273120  MEMB      223             0.0000000000
     27664       223  PMPE      C217           13.4159226747      -15.9284783134       -7.8012344170  MEMB      223             0.0000000000
     27665       223  PMPE      H17R           12.5071291624      -16.5250650392       -7.8476810088  MEMB      223             0.0000000000
     27666       223  PMPE      H17S           13.5649049583      -15.0804736256       -8.4737921874  MEMB      223             0.0000000000
     27667       223  PMPE      C210           13.9350439778      -15.4772880590       -6.4504533091  MEMB      223             0.0000000000
     27668       223  PMPE      H10R           13.3629999512      -15.8082825090       -5.6235669480  MEMB      223             0.0000000000
     27669       223  PMPE      C211           14.7664766412      -14.2239368723       -6.3573684049  MEMB      223             0.0000000000
     27670       223  PMPE      H11R           14.1586169700      -13.4295801285       -6.0385891261  MEMB      223             0.0000000000
     27671       223  PMPE      H11S           15.0581554433      -13.7643050265       -7.3087781563  MEMB      223             0.0000000000
     27672       223  PMPE      C212           15.8768014835      -14.2368069457       -5.3831048551  MEMB      223             0.0000000000
     27673       223  PMPE      H12R           16.0944906133      -13.1495958234       -5.2587389040  MEMB      223             0.0000000000
     27674       223  PMPE      H12S           16.7159525832      -14.6992696823       -5.8812879965  MEMB      223             0.0000000000
     27675       223  PMPE      C213           15.6465655905      -14.9478352328       -4.0361670407  MEMB      223             0.0000000000
     27676       223  PMPE      H13R           16.4354313076      -14.6240695811       -3.3424853771  MEMB      223             0.0000000000
     27677       223  PMPE      H13S           15.3824922893      -15.9877094343       -4.0369618864  MEMB      223             0.0000000000
     27678       223  PMPE      C214           14.3921458006      -14.6498328552       -3.4661994258  MEMB      223             0.0000000000
     27679       223  PMPE      H14R           13.6029516551      -14.8152731072       -4.1585258140  MEMB      223             0.0000000000
     27680       223  PMPE      H14S           14.9370842047      -13.7290585228       -3.5979283449  MEMB      223             0.0000000000
     27681       223  PMPE      C215           13.8005143440      -14.5980898190       -2.0962895032  MEMB      223             0.0000000000
     27682       223  PMPE      H15R           13.4299237149      -15.6474319623       -2.2663637052  MEMB      223             0.0000000000
     27683       223  PMPE      H15S           12.7940501790      -14.7432747744       -1.8154629828  MEMB      223             0.0000000000
     27684       223  PMPE      C216           14.5799139369      -13.9151685761       -0.9027883875  MEMB      223             0.0000000000
     27685       223  PMPE      H16R           15.6546378366      -14.1539541849       -1.2523731964  MEMB      223             0.0000000000
     27686       223  PMPE      H16S           14.8711278615      -12.9454560578       -0.7568372424  MEMB      223             0.0000000000
     27687       223  PMPE      H16T           14.2426972492      -14.2447425823        0.1423022883  MEMB      223             0.0000000000
     27688       223  PMPE      C33            16.2958728210      -10.5097751153       -9.8363496615  MEMB      223             0.0000000000
     27689       223  PMPE      H3X            15.5568825861      -11.3613116703       -9.7940426867  MEMB      223             0.0000000000
     27690       223  PMPE      H3Y            15.7799406524       -9.5153471092       -9.9737235002  MEMB      223             0.0000000000
     27691       223  PMPE      C34            16.8737635538      -10.4393747313       -8.5084409875  MEMB      223             0.0000000000
     27692       223  PMPE      H4X            17.5922539994       -9.6201680331       -8.6308647901  MEMB      223             0.0000000000
     27693       223  PMPE      H4Y            17.3886165736      -11.4037435979       -8.3732225705  MEMB      223             0.0000000000
     27694       223  PMPE      C35            15.8371739018      -10.0657684365       -7.4536926416  MEMB      223             0.0000000000
     27695       223  PMPE      H5X            15.1769465698      -10.8940918784       -7.2305391657  MEMB      223             0.0000000000
     27696       223  PMPE      H5Y            15.1989540306       -9.1945346540       -7.7494033269  MEMB      223             0.0000000000
     27697       223  PMPE      C36            16.4122022428       -9.8132675950       -6.1155361057  MEMB      223             0.0000000000
     27698       223  PMPE      H6X            16.7849567615       -8.8376133154       -6.2477610791  MEMB      223             0.0000000000
     27699       223  PMPE      H6Y            17.1996826011      -10.5331225056       -5.8787607196  MEMB      223             0.0000000000
     27700       223  PMPE      C37            15.4889301879       -9.7646846248       -4.9489455966  MEMB      223             0.0000000000
     27701       223  PMPE      H7X            15.2673726341      -10.7638431650       -4.8586303585  MEMB      223             0.0000000000
     27702       223  PMPE      H7Y            14.5142142057       -9.2699851961       -5.1912121750  MEMB      223             0.0000000000
     27703       223  PMPE      C38            16.0589724350       -9.6705551777       -3.5651767926  MEMB      223             0.0000000000
     27704       223  PMPE      H8X            15.5379388386       -9.3074846308       -2.7615400877  MEMB      223             0.0000000000
     27705       223  PMPE      H8Y            16.5676021304       -8.7743221010       -3.3953337007  MEMB      223             0.0000000000
     27706       223  PMPE      C39            17.2630610462      -10.1698951397       -3.1888387737  MEMB      223             0.0000000000
     27707       223  PMPE      H9X            17.6047029480       -9.5842502175       -2.2606127892  MEMB      223             0.0000000000
     27708       223  PMPE      H9Y            17.8140950502      -10.1436803935       -4.1406217892  MEMB      223             0.0000000000
     27709       223  PMPE      C310           17.2702241285      -11.5160328696       -2.9279398224  MEMB      223             0.0000000000
     27710       223  PMPE      H10X           16.8073039846      -12.0222750976       -3.7890513565  MEMB      223             0.0000000000
     27711       223  PMPE      H10Y           16.7730059146      -11.5125626268       -1.9725693675  MEMB      223             0.0000000000
     27712       223  PMPE      C311           18.6755967686      -11.9752053593       -2.7944569735  MEMB      223             0.0000000000
     27713       223  PMPE      H11X           19.0725604953      -11.6019776296       -1.8304324854  MEMB      223             0.0000000000
     27714       223  PMPE      H11Y           19.2877752476      -11.5614751969       -3.6166923853  MEMB      223             0.0000000000
     27715       223  PMPE      C312           18.6944460825      -13.4853266398       -2.8203615726  MEMB      223             0.0000000000
     27716       223  PMPE      H12X           18.2609946681      -13.8912955449       -3.7654333137  MEMB      223             0.0000000000
     27717       223  PMPE      H12Y           18.0690891839      -13.7958989683       -1.9604282172  MEMB      223             0.0000000000
     27718       223  PMPE      C313           20.0569218336      -14.1018623592       -2.5359312078  MEMB      223             0.0000000000
     27719       223  PMPE      H13X           20.4254830781      -13.7441377088       -1.5563417131  MEMB      223             0.0000000000
     27720       223  PMPE      H13Y           20.7895924632      -13.6956424016       -3.2624067502  MEMB      223             0.0000000000
     27721       223  PMPE      C314           20.0001531073      -15.6408516019       -2.4216256304  MEMB      223             0.0000000000
     27722       223  PMPE      H14X           21.0558186658      -15.9813514524       -2.5310104727  MEMB      223             0.0000000000
     27723       223  PMPE      H14Y           19.3881040417      -16.0534808976       -3.2592904675  MEMB      223             0.0000000000
     27724       223  PMPE      C315           19.3698300746      -16.1158992385       -1.0877657476  MEMB      223             0.0000000000
     27725       223  PMPE      H15X           18.4027566452      -15.6469320053       -0.9648181815  MEMB      223             0.0000000000
     27726       223  PMPE      H15Y           19.9601093993      -15.8412543867       -0.1940818242  MEMB      223             0.0000000000
     27727       223  PMPE      C316           19.1506365725      -17.5713404194       -0.8795951714  MEMB      223             0.0000000000
     27728       223  PMPE      H16X           18.7066403785      -17.7893445932        0.0634605164  MEMB      223             0.0000000000
     27729       223  PMPE      H16Y           20.1808971732      -18.0076559199       -0.7431512945  MEMB      223             0.0000000000
     27730       223  PMPE      H16Z           18.5503154244      -18.0705215703       -1.6816027480  MEMB      223             0.0000000000
     27731       224  POPE      N             -17.2203582836       14.8702265231      -17.9445150730  MEMB      224             0.0000000000
     27732       224  POPE      HN1           -16.5374975948       15.5767118978      -17.5971589044  MEMB      224             0.0000000000
     27733       224  POPE      HN2           -17.9975009119       15.3096938600      -18.4805029470  MEMB      224             0.0000000000
     27734       224  POPE      HN3           -17.6091077333       14.3363965393      -17.1457161700  MEMB      224             0.0000000000
     27735       224  POPE      C12           -16.5214853433       13.8574373598      -18.7874764154  MEMB      224             0.0000000000
     27736       224  POPE      H12A          -15.9426080163       13.1874859503      -18.1096740635  MEMB      224             0.0000000000
     27737       224  POPE      H12B          -15.8490793846       14.4229050548      -19.4610895457  MEMB      224             0.0000000000
     27738       224  POPE      C11           -17.5329064232       12.9973155550      -19.5187994704  MEMB      224             0.0000000000
     27739       224  POPE      H11A          -16.9760020699       12.2428694824      -20.0140626639  MEMB      224             0.0000000000
     27740       224  POPE      H11B          -18.1084351998       13.5552269362      -20.2713244891  MEMB      224             0.0000000000
     27741       224  POPE      P             -19.6378742048       11.5262473338      -19.2234648421  MEMB      224             0.0000000000
     27742       224  POPE      O13           -19.1336992769       10.2897107600      -19.8404341815  MEMB      224             0.0000000000
     27743       224  POPE      O14           -20.4761228971       12.4343283037      -20.0266557467  MEMB      224             0.0000000000
     27744       224  POPE      O11           -20.3540810158       11.1849195778      -17.8999780604  MEMB      224             0.0000000000
     27745       224  POPE      O12           -18.3964856160       12.3671314216      -18.6112522479  MEMB      224             0.0000000000
     27746       224  POPE      C1            -20.7112765878       12.0494197469      -16.8581251437  MEMB      224             0.0000000000
     27747       224  POPE      HA            -21.6192264757       11.5939946535      -16.4086979190  MEMB      224             0.0000000000
     27748       224  POPE      HB            -20.9603195603       13.0777760221      -17.2304285652  MEMB      224             0.0000000000
     27749       224  POPE      C2            -19.6236747465       12.0531749949      -15.7578245855  MEMB      224             0.0000000000
     27750       224  POPE      HS            -18.8923659782       12.8348521129      -16.0252012177  MEMB      224             0.0000000000
     27751       224  POPE      O21           -18.9376683792       10.7940927712      -15.6550060598  MEMB      224             0.0000000000
     27752       224  POPE      C21           -17.6787980872       10.8711236237      -15.2810601423  MEMB      224             0.0000000000
     27753       224  POPE      O22           -17.0787459405       11.8830856205      -14.9357551163  MEMB      224             0.0000000000
     27754       224  POPE      C22           -17.0803211919        9.5360455197      -15.3067476938  MEMB      224             0.0000000000
     27755       224  POPE      H2R           -16.1719552498        9.7382798385      -14.8716317858  MEMB      224             0.0000000000
     27756       224  POPE      H2S           -16.8561385282        9.0682243991      -16.2749618095  MEMB      224             0.0000000000
     27757       224  POPE      C3            -20.2215328646       12.4279287888      -14.3883503447  MEMB      224             0.0000000000
     27758       224  POPE      HX            -20.6335613177       13.4638936295      -14.4646068245  MEMB      224             0.0000000000
     27759       224  POPE      HY            -19.3338352904       12.4315475240      -13.7272839163  MEMB      224             0.0000000000
     27760       224  POPE      O31           -21.1412628284       11.4655568476      -13.8540264582  MEMB      224             0.0000000000
     27761       224  POPE      C31           -22.4000488900       11.8299249906      -13.7081747862  MEMB      224             0.0000000000
     27762       224  POPE      O32           -22.9410287667       12.8251782616      -14.1464820714  MEMB      224             0.0000000000
     27763       224  POPE      C32           -23.0001459516       10.8726570907      -12.7079249655  MEMB      224             0.0000000000
     27764       224  POPE      H2X           -22.5716875595       11.1127071966      -11.7089402041  MEMB      224             0.0000000000
     27765       224  POPE      H2Y           -22.6891790610        9.8484136151      -13.0084561414  MEMB      224             0.0000000000
     27766       224  POPE      C23           -17.7500903022        8.7719616514      -14.2421857385  MEMB      224             0.0000000000
     27767       224  POPE      H3R           -17.1599229664        7.9421403651      -14.3718924596  MEMB      224             0.0000000000
     27768       224  POPE      H3S           -18.7481361747        8.4307847357      -14.5130132101  MEMB      224             0.0000000000
     27769       224  POPE      C24           -17.3628876240        9.0011159077      -12.7281053004  MEMB      224             0.0000000000
     27770       224  POPE      H4R           -16.6896910894        9.7650275830      -12.6467421927  MEMB      224             0.0000000000
     27771       224  POPE      H4S           -16.5662855733        8.2022132659      -12.2666785129  MEMB      224             0.0000000000
     27772       224  POPE      C25           -18.7569007498        8.9187679714      -11.9115454784  MEMB      224             0.0000000000
     27773       224  POPE      H5R           -19.3629411116        9.7669617368      -12.1209283499  MEMB      224             0.0000000000
     27774       224  POPE      H5S           -18.3809460117        8.9490469512      -10.9199529941  MEMB      224             0.0000000000
     27775       224  POPE      C26           -19.8652250192        7.7756459733      -11.9404853392  MEMB      224             0.0000000000
     27776       224  POPE      H6R           -19.3462730135        6.9495215863      -11.5124594673  MEMB      224             0.0000000000
     27777       224  POPE      H6S           -20.1632816883        7.4084102415      -12.9093896337  MEMB      224             0.0000000000
     27778       224  POPE      C27           -20.9641947517        7.6155975209      -11.0735555770  MEMB      224             0.0000000000
     27779       224  POPE      H7R           -21.6628924238        6.8263102651      -11.3987128403  MEMB      224             0.0000000000
     27780       224  POPE      H7S           -21.1874599648        8.6469825979      -10.8619364440  MEMB      224             0.0000000000
     27781       224  POPE      C28           -20.5394618463        7.2683288531       -9.9148079069  MEMB      224             0.0000000000
     27782       224  POPE      H8R           -19.5738810857        7.7793229077       -9.7279828492  MEMB      224             0.0000000000
     27783       224  POPE      H8S           -20.6338586197        6.1446470331       -9.8906546158  MEMB      224             0.0000000000
     27784       224  POPE      C29           -21.3859525225        7.4244022409       -9.0795374149  MEMB      224             0.0000000000
     27785       224  POPE      H91           -21.6824901600        5.9970895279       -8.9542190628  MEMB      224             0.0000000000
     27786       224  POPE      C210          -21.7249552336        8.4061222905       -8.3658768188  MEMB      224             0.0000000000
     27787       224  POPE      H101          -22.8145031675        8.2058069470       -7.9544451892  MEMB      224             0.0000000000
     27788       224  POPE      C211          -21.1355327688        9.6810230071       -8.2378879759  MEMB      224             0.0000000000
     27789       224  POPE      H11R          -21.9911997331       10.3259009644       -8.1471635555  MEMB      224             0.0000000000
     27790       224  POPE      H11S          -20.4575358235        9.6300702983       -9.0566604870  MEMB      224             0.0000000000
     27791       224  POPE      C212          -20.2818452919        9.8642122691       -6.9224318224  MEMB      224             0.0000000000
     27792       224  POPE      H12R          -19.5324981300        9.0890386436       -6.5679934704  MEMB      224             0.0000000000
     27793       224  POPE      H12S          -21.0924399620       10.1470386303       -6.1677675655  MEMB      224             0.0000000000
     27794       224  POPE      C213          -19.6915935595       11.1389378660       -6.7369455702  MEMB      224             0.0000000000
     27795       224  POPE      H13R          -20.5701441479       11.7730872460       -6.9207985663  MEMB      224             0.0000000000
     27796       224  POPE      H13S          -18.9821963032       11.1561986703       -7.5588745126  MEMB      224             0.0000000000
     27797       224  POPE      C214          -18.9692273230       11.3876334841       -5.4384828745  MEMB      224             0.0000000000
     27798       224  POPE      H14R          -18.6074100121       12.4114403845       -5.5704162452  MEMB      224             0.0000000000
     27799       224  POPE      H14S          -18.1315087599       10.6557823443       -5.4211170310  MEMB      224             0.0000000000
     27800       224  POPE      C215          -19.7392351760       11.3831416754       -4.1459997103  MEMB      224             0.0000000000
     27801       224  POPE      H15R          -20.0802862743       10.4205271229       -4.2129892998  MEMB      224             0.0000000000
     27802       224  POPE      H15S          -20.7313891308       11.8288555235       -4.1448393553  MEMB      224             0.0000000000
     27803       224  POPE      C216          -18.8602758729       11.7902589542       -2.9758907800  MEMB      224             0.0000000000
     27804       224  POPE      H16R          -18.6170824721       12.8536576601       -3.1203688116  MEMB      224             0.0000000000
     27805       224  POPE      H16S          -17.9260320307       11.1747040222       -2.9513143332  MEMB      224             0.0000000000
     27806       224  POPE      C217          -19.5153177075       11.7929308428       -1.6279192364  MEMB      224             0.0000000000
     27807       224  POPE      H17R          -18.8177759355       12.0751943550       -0.8458809833  MEMB      224             0.0000000000
     27808       224  POPE      H17S          -19.6042954635       10.8266411656       -1.4476343200  MEMB      224             0.0000000000
     27809       224  POPE      C218          -20.8785255209       12.3772896845       -1.4777716458  MEMB      224             0.0000000000
     27810       224  POPE      H18R          -21.3167794041       12.2631266742       -0.4812739742  MEMB      224             0.0000000000
     27811       224  POPE      H18S          -21.5711991087       12.1250045552       -2.2872503627  MEMB      224             0.0000000000
     27812       224  POPE      H18T          -20.7255055234       13.3907844066       -1.5538359528  MEMB      224             0.0000000000
     27813       224  POPE      C33           -24.5194206107       11.0727002751      -12.6658589204  MEMB      224             0.0000000000
     27814       224  POPE      H3X           -24.9864869671       10.8156848413      -13.6429102333  MEMB      224             0.0000000000
     27815       224  POPE      H3Y           -24.7751975860       12.1425705990      -12.4827447729  MEMB      224             0.0000000000
     27816       224  POPE      C34           -25.1344506100       10.2602909169      -11.5412822233  MEMB      224             0.0000000000
     27817       224  POPE      H4X           -25.0366724377        9.1815267428      -11.7338864323  MEMB      224             0.0000000000
     27818       224  POPE      H4Y           -26.1937937829       10.4012396671      -11.4688865779  MEMB      224             0.0000000000
     27819       224  POPE      C35           -24.5733529540       10.5166717555      -10.1500101956  MEMB      224             0.0000000000
     27820       224  POPE      H5X           -23.4896279712       10.3466395081      -10.1677999571  MEMB      224             0.0000000000
     27821       224  POPE      H5Y           -25.0154057339        9.7157984835       -9.5292203189  MEMB      224             0.0000000000
     27822       224  POPE      C36           -24.8035036501       11.9242004959       -9.6133665407  MEMB      224             0.0000000000
     27823       224  POPE      H6X           -25.8386114858       12.1618194492       -9.6292258323  MEMB      224             0.0000000000
     27824       224  POPE      H6Y           -24.4723476510       12.6648660578      -10.3339158202  MEMB      224             0.0000000000
     27825       224  POPE      C37           -24.1318376045       12.2992547943       -8.2996592999  MEMB      224             0.0000000000
     27826       224  POPE      H7X           -24.2547617268       13.3938361069       -8.0820505184  MEMB      224             0.0000000000
     27827       224  POPE      H7Y           -23.1254299901       11.9292932435       -8.1934718195  MEMB      224             0.0000000000
     27828       224  POPE      C38           -24.6075740517       11.5860157039       -7.1255887197  MEMB      224             0.0000000000
     27829       224  POPE      H8X           -24.6449703990       10.5012600339       -7.0877436359  MEMB      224             0.0000000000
     27830       224  POPE      H8Y           -25.5599278010       11.8741922593       -7.5164527087  MEMB      224             0.0000000000
     27831       224  POPE      C39           -24.1444694339       12.2758272374       -5.8457841581  MEMB      224             0.0000000000
     27832       224  POPE      H9X           -24.5618947272       13.3297447354       -5.7874551897  MEMB      224             0.0000000000
     27833       224  POPE      H9Y           -23.0989920919       12.1949585317       -5.7196344230  MEMB      224             0.0000000000
     27834       224  POPE      C310          -24.3667282390       11.6892659940       -4.5339487831  MEMB      224             0.0000000000
     27835       224  POPE      H10X          -25.2743833953       12.1480135499       -4.8546637020  MEMB      224             0.0000000000
     27836       224  POPE      H10Y          -24.2870413067       12.2108043468       -3.5842635172  MEMB      224             0.0000000000
     27837       224  POPE      C311          -24.1810182827       10.1762306991       -4.2221485449  MEMB      224             0.0000000000
     27838       224  POPE      H11X          -23.1906371558       10.1265239757       -4.5405093591  MEMB      224             0.0000000000
     27839       224  POPE      H11Y          -24.6127591007        9.3370414253       -4.8049522352  MEMB      224             0.0000000000
     27840       224  POPE      C312          -24.4744639221        9.7761876865       -2.8420838777  MEMB      224             0.0000000000
     27841       224  POPE      H12X          -25.5320124732        9.8793996480       -2.4787689091  MEMB      224             0.0000000000
     27842       224  POPE      H12Y          -23.6990262644       10.4928169984       -2.5340955676  MEMB      224             0.0000000000
     27843       224  POPE      C313          -24.1881098287        8.4216079878       -2.4402969761  MEMB      224             0.0000000000
     27844       224  POPE      H13X          -24.5524130583        7.7467928447       -3.2035986024  MEMB      224             0.0000000000
     27845       224  POPE      H13Y          -24.4277128684        8.1239879393       -1.4378986476  MEMB      224             0.0000000000
     27846       224  POPE      C314          -22.8759222344        8.1177984150       -2.2530915249  MEMB      224             0.0000000000
     27847       224  POPE      H14X          -22.3820202657        8.5335189739       -1.3619984279  MEMB      224             0.0000000000
     27848       224  POPE      H14Y          -22.5799010861        8.7161427606       -3.2503776877  MEMB      224             0.0000000000
     27849       224  POPE      C315          -22.4092666591        6.5743863298       -1.8315528087  MEMB      224             0.0000000000
     27850       224  POPE      H15X          -22.8128334454        6.0579765538       -2.7478615991  MEMB      224             0.0000000000
     27851       224  POPE      H15Y          -22.9508221168        6.4162676348       -0.9659647867  MEMB      224             0.0000000000
     27852       224  POPE      C316          -20.6850930821        5.9790359215       -1.5905438870  MEMB      224             0.0000000000
     27853       224  POPE      H16X          -20.5919466619        6.8894554635       -1.4511817190  MEMB      224             0.0000000000
     27854       224  POPE      H16Y          -20.2063126334        5.7310540481       -2.5432738389  MEMB      224             0.0000000000
     27855       224  POPE      H16Z          -20.9400385504        5.1040433426       -1.4384055539  MEMB      224             0.0000000000
     27856       225  PVCL2     C3             16.6592880128       17.0246918327      -18.2364928117  MEMB      225             0.0000000000
     27857       225  PVCL2     HG31           17.0137932760       17.0514216350      -17.1679644188  MEMB      225             0.0000000000
     27858       225  PVCL2     HG32           15.8932486262       16.2290718734      -18.4103766632  MEMB      225             0.0000000000
     27859       225  PVCL2     P3             19.1305009549       16.2422301744      -18.4349147309  MEMB      225             0.0000000000
     27860       225  PVCL2     OP33           19.3925403633       17.0594319648      -17.2381628343  MEMB      225             0.0000000000
     27861       225  PVCL2     OP34           20.1080053292       16.1805786915      -19.4959924540  MEMB      225             0.0000000000
     27862       225  PVCL2     OP31           17.7368506169       16.6749886562      -19.0845961502  MEMB      225             0.0000000000
     27863       225  PVCL2     OP32           18.9705223983       14.7508181526      -17.9331292396  MEMB      225             0.0000000000
     27864       225  PVCL2     C31            18.6957632363       13.8098133452      -18.9731253923  MEMB      225             0.0000000000
     27865       225  PVCL2     H31J           18.0381432221       14.1932065699      -19.7752856258  MEMB      225             0.0000000000
     27866       225  PVCL2     H31K           19.5945615980       13.3271479154      -19.4075120434  MEMB      225             0.0000000000
     27867       225  PVCL2     C2             16.0148082001       18.4274187940      -18.5679661836  MEMB      225             0.0000000000
     27868       225  PVCL2     HG22           15.4125263440       18.7319311719      -17.6805034255  MEMB      225             0.0000000000
     27869       225  PVCL2     OG12           16.9784331630       19.4408311307      -18.8383267962  MEMB      225             0.0000000000
     27870       225  PVCL2     HO12           17.2609123783       19.2536576449      -19.7351777950  MEMB      225             0.0000000000
     27871       225  PVCL2     C1             15.0168810698       18.4650246180      -19.7435691341  MEMB      225             0.0000000000
     27872       225  PVCL2     HG11           15.5401244943       18.1913272097      -20.6851967650  MEMB      225             0.0000000000
     27873       225  PVCL2     HG12           14.5841060568       19.4900019139      -19.8096870850  MEMB      225             0.0000000000
     27874       225  PVCL2     P1             13.2685050968       16.5995889193      -20.4696687212  MEMB      225             0.0000000000
     27875       225  PVCL2     OP13           13.3869438919       17.1006288973      -21.8581042093  MEMB      225             0.0000000000
     27876       225  PVCL2     OP14           13.7196838222       15.2454805432      -20.0998183774  MEMB      225             0.0000000000
     27877       225  PVCL2     OP11           13.9310358251       17.6201698458      -19.4739289212  MEMB      225             0.0000000000
     27878       225  PVCL2     OP12           11.7209968322       16.7486078436      -20.0875829429  MEMB      225             0.0000000000
     27879       225  PVCL2     C11            11.1734369048       18.0046266520      -19.6901282514  MEMB      225             0.0000000000
     27880       225  PVCL2     H11J           10.3211104812       18.2416486527      -20.3553633281  MEMB      225             0.0000000000
     27881       225  PVCL2     H11K           11.8588426954       18.8789110012      -19.8109266988  MEMB      225             0.0000000000
     27882       225  PVCL2     C12            10.7654158698       17.9585859946      -18.2014799208  MEMB      225             0.0000000000
     27883       225  PVCL2     H12J           10.5595518199       19.0225826818      -17.9271851062  MEMB      225             0.0000000000
     27884       225  PVCL2     O12            11.7996617265       17.3435063491      -17.3967425598  MEMB      225             0.0000000000
     27885       225  PVCL2     CA1            12.5538983738       18.1145201446      -16.6364892770  MEMB      225             0.0000000000
     27886       225  PVCL2     OA1            12.5048461759       19.3368255892      -16.5945657447  MEMB      225             0.0000000000
     27887       225  PVCL2     CA2            13.4542833854       17.2639918337      -15.7264858184  MEMB      225             0.0000000000
     27888       225  PVCL2     H2A            14.4370463758       17.1029880957      -16.2153635839  MEMB      225             0.0000000000
     27889       225  PVCL2     H2B            13.0173695060       16.2591702455      -15.6004909405  MEMB      225             0.0000000000
     27890       225  PVCL2     C13             9.5062938839       17.0926995473      -17.9881567961  MEMB      225             0.0000000000
     27891       225  PVCL2     H13J            9.7488364684       16.0898368504      -18.4222983911  MEMB      225             0.0000000000
     27892       225  PVCL2     H13K            8.6132608294       17.4740900512      -18.5342912060  MEMB      225             0.0000000000
     27893       225  PVCL2     O13             9.2860638164       17.0263867661      -16.5642256143  MEMB      225             0.0000000000
     27894       225  PVCL2     CB1             8.4939307406       16.0466524227      -16.1698000787  MEMB      225             0.0000000000
     27895       225  PVCL2     OB1             7.9630202002       15.2808306204      -16.9373668230  MEMB      225             0.0000000000
     27896       225  PVCL2     CB2             8.6637963034       15.9065383846      -14.6583998311  MEMB      225             0.0000000000
     27897       225  PVCL2     H2D             7.7053112407       15.6657932750      -14.1663305015  MEMB      225             0.0000000000
     27898       225  PVCL2     H2E             9.0214050775       16.8354285332      -14.2075494462  MEMB      225             0.0000000000
     27899       225  PVCL2     C32            17.9108233584       12.7164498625      -18.3927068339  MEMB      225             0.0000000000
     27900       225  PVCL2     H32J           17.6583353296       12.0043468753      -19.2158106970  MEMB      225             0.0000000000
     27901       225  PVCL2     O32            16.6813309503       13.3118771116      -17.8578205129  MEMB      225             0.0000000000
     27902       225  PVCL2     CC1            15.4214856711       12.8355866944      -17.7122907978  MEMB      225             0.0000000000
     27903       225  PVCL2     OC1            14.8966137835       11.8040913563      -17.9614183865  MEMB      225             0.0000000000
     27904       225  PVCL2     CC2            14.4153470689       13.6343259750      -17.1555440292  MEMB      225             0.0000000000
     27905       225  PVCL2     H2R            13.7476221649       13.7454294973      -18.0422419633  MEMB      225             0.0000000000
     27906       225  PVCL2     H2S            14.9413663519       14.5108687721      -16.8472407737  MEMB      225             0.0000000000
     27907       225  PVCL2     C33            18.8980211853       12.0494896649      -17.2928752171  MEMB      225             0.0000000000
     27908       225  PVCL2     H33J           18.5620271838       11.4247805239      -16.5245490765  MEMB      225             0.0000000000
     27909       225  PVCL2     H33K           19.4859692708       11.2126567296      -17.7034287599  MEMB      225             0.0000000000
     27910       225  PVCL2     O33            19.3753982604       12.8537030166      -16.2357510329  MEMB      225             0.0000000000
     27911       225  PVCL2     CD1            18.4906382903       13.3025669330      -15.2803493503  MEMB      225             0.0000000000
     27912       225  PVCL2     OD1            17.4183340488       12.8694486993      -15.0179562935  MEMB      225             0.0000000000
     27913       225  PVCL2     CD2            18.9550746842       14.4863946442      -14.5333265408  MEMB      225             0.0000000000
     27914       225  PVCL2     H2X            18.6745190435       15.3841891288      -15.1016108243  MEMB      225             0.0000000000
     27915       225  PVCL2     H2Y            19.9977731596       14.4279347655      -14.3968639042  MEMB      225             0.0000000000
     27916       225  PVCL2     CA3            13.6454530509       17.8698901857      -14.3012555430  MEMB      225             0.0000000000
     27917       225  PVCL2     H3A            13.7081003675       18.9803090519      -14.2954652660  MEMB      225             0.0000000000
     27918       225  PVCL2     H3B            14.6497149532       17.5417807310      -13.9625395312  MEMB      225             0.0000000000
     27919       225  PVCL2     CA4            12.5245074851       17.4391610700      -13.3234500093  MEMB      225             0.0000000000
     27920       225  PVCL2     H4A            12.2162695794       16.3746757679      -13.4700087819  MEMB      225             0.0000000000
     27921       225  PVCL2     H4B            11.6612934052       18.1118155428      -13.5245617453  MEMB      225             0.0000000000
     27922       225  PVCL2     CA5            12.7712604401       17.6185078778      -11.8229560195  MEMB      225             0.0000000000
     27923       225  PVCL2     H5A            12.9453790372       18.6952976664      -11.5739391303  MEMB      225             0.0000000000
     27924       225  PVCL2     H5B            13.6777596568       17.0507859490      -11.5255975291  MEMB      225             0.0000000000
     27925       225  PVCL2     CA6            11.5913613480       17.0722183825      -10.9968272021  MEMB      225             0.0000000000
     27926       225  PVCL2     H6A            11.1223163605       16.1480725258      -11.4020404831  MEMB      225             0.0000000000
     27927       225  PVCL2     H6B            10.7772128903       17.8216257404      -11.0012835585  MEMB      225             0.0000000000
     27928       225  PVCL2     CA7            12.0738232395       16.7902385477       -9.5851344292  MEMB      225             0.0000000000
     27929       225  PVCL2     H7A            13.1194080890       16.4156799441       -9.6317713160  MEMB      225             0.0000000000
     27930       225  PVCL2     H7B            11.5382153406       15.9605420970       -9.0939144317  MEMB      225             0.0000000000
     27931       225  PVCL2     CA8            12.0758302448       18.0548615098       -8.7125935154  MEMB      225             0.0000000000
     27932       225  PVCL2     H8A            12.7220334010       18.8235110526       -9.1465266471  MEMB      225             0.0000000000
     27933       225  PVCL2     H8B            12.5400537689       17.7336902238       -7.7598893384  MEMB      225             0.0000000000
     27934       225  PVCL2     CA9            10.7662175081       18.7094009957       -8.3099945594  MEMB      225             0.0000000000
     27935       225  PVCL2     H9A             9.9681460443       18.6828818779       -9.0802061996  MEMB      225             0.0000000000
     27936       225  PVCL2     H9B            10.8397504065       19.7775144293       -8.0191105053  MEMB      225             0.0000000000
     27937       225  PVCL2     CA10           10.3099150807       18.0322433406       -7.0512289131  MEMB      225             0.0000000000
     27938       225  PVCL2     H10A            9.3579096387       18.6622403386       -6.7786562185  MEMB      225             0.0000000000
     27939       225  PVCL2     H10B           10.7459083969       17.9106346035       -6.1303644610  MEMB      225             0.0000000000
     27940       225  PVCL2     CA11           10.3947646282       16.4626685926       -6.9998480855  MEMB      225             0.0000000000
     27941       225  PVCL2     H11A            9.9589128206       16.5511006667       -8.3278927060  MEMB      225             0.0000000000
     27942       225  PVCL2     CA12            9.5590361975       15.5674730641       -5.7351200189  MEMB      225             0.0000000000
     27943       225  PVCL2     H12A            8.2404016214       15.0051498427       -5.9101765030  MEMB      225             0.0000000000
     27944       225  PVCL2     CA13            8.7936912732       15.8303063913       -4.6434401695  MEMB      225             0.0000000000
     27945       225  PVCL2     H13A            8.7932973606       16.8645027298       -4.5917885938  MEMB      225             0.0000000000
     27946       225  PVCL2     H13B            9.8062429048       15.4619458245       -4.6359905034  MEMB      225             0.0000000000
     27947       225  PVCL2     CA14            7.6015513119       14.9892252807       -4.2197562892  MEMB      225             0.0000000000
     27948       225  PVCL2     H14A            7.6603079374       13.9464587222       -4.6546089653  MEMB      225             0.0000000000
     27949       225  PVCL2     H14B            6.6934159206       15.5050786543       -4.6168745355  MEMB      225             0.0000000000
     27950       225  PVCL2     CA15            7.7538070469       15.0375852963       -2.8161660538  MEMB      225             0.0000000000
     27951       225  PVCL2     H15A            7.0266549611       14.4210094459       -2.3183903953  MEMB      225             0.0000000000
     27952       225  PVCL2     H15B            7.6039721405       16.1341720929       -2.5418273394  MEMB      225             0.0000000000
     27953       225  PVCL2     CA16            9.1059889305       14.5176954728       -2.4028942237  MEMB      225             0.0000000000
     27954       225  PVCL2     H16A            9.0013778275       14.3970833067       -1.2444704894  MEMB      225             0.0000000000
     27955       225  PVCL2     H16B            9.8659948051       15.2557966958       -2.8161769373  MEMB      225             0.0000000000
     27956       225  PVCL2     CA17            9.8680871385       13.3460702758       -2.5648253512  MEMB      225             0.0000000000
     27957       225  PVCL2     H17A           10.7980353251       13.3292899225       -1.9388033747  MEMB      225             0.0000000000
     27958       225  PVCL2     H17B           10.1750840470       13.4570026191       -3.6121542501  MEMB      225             0.0000000000
     27959       225  PVCL2     CA18            8.8876348520       12.3594679095       -2.0997348484  MEMB      225             0.0000000000
     27960       225  PVCL2     H18A            9.4059010340       11.3988451115       -2.2648470978  MEMB      225             0.0000000000
     27961       225  PVCL2     H18B            7.9549504590       12.4176910803       -2.6682332150  MEMB      225             0.0000000000
     27962       225  PVCL2     H18C            8.7099685317       12.1370302777       -1.1017707701  MEMB      225             0.0000000000
     27963       225  PVCL2     CB3             9.7320804027       14.9100458914      -14.3382358554  MEMB      225             0.0000000000
     27964       225  PVCL2     H3D            10.0284082829       14.9786284017      -13.2634840941  MEMB      225             0.0000000000
     27965       225  PVCL2     H3E            10.6706639322       14.9643221943      -14.9007780923  MEMB      225             0.0000000000
     27966       225  PVCL2     CB4             9.1269631527       13.6380300816      -14.5124651860  MEMB      225             0.0000000000
     27967       225  PVCL2     H4D             9.7699894861       13.2662654610      -13.6594008908  MEMB      225             0.0000000000
     27968       225  PVCL2     H4E             9.2467845898       13.1709917287      -15.5243471814  MEMB      225             0.0000000000
     27969       225  PVCL2     CB5             7.9151520081       13.3932155692      -13.9442597321  MEMB      225             0.0000000000
     27970       225  PVCL2     H5D             7.6577465021       12.4399770311      -13.6807694787  MEMB      225             0.0000000000
     27971       225  PVCL2     H5E             7.0874694961       13.6911884234      -14.5793483350  MEMB      225             0.0000000000
     27972       225  PVCL2     CB6             8.1145047526       13.6486046781      -12.6603421160  MEMB      225             0.0000000000
     27973       225  PVCL2     H6D             6.9346357583       13.7913435138      -12.7589669779  MEMB      225             0.0000000000
     27974       225  PVCL2     H6E             8.3324167144       14.5305775133      -12.2900068726  MEMB      225             0.0000000000
     27975       225  PVCL2     CB7             8.9588194451       12.6586759788      -11.6363205950  MEMB      225             0.0000000000
     27976       225  PVCL2     H7D             9.9504681522       12.5522831826      -11.6915532754  MEMB      225             0.0000000000
     27977       225  PVCL2     H7E             8.6494432019       11.6678397312      -11.3643526125  MEMB      225             0.0000000000
     27978       225  PVCL2     CB8             8.9691322713       12.8589890627      -10.2293055900  MEMB      225             0.0000000000
     27979       225  PVCL2     H8D             8.0909145386       12.6222840838       -9.7463067657  MEMB      225             0.0000000000
     27980       225  PVCL2     H8E             9.0283291050       13.8272361638      -10.0938703538  MEMB      225             0.0000000000
     27981       225  PVCL2     CB9             8.6432598413       11.9557688296       -9.1969089322  MEMB      225             0.0000000000
     27982       225  PVCL2     H9D             9.7404733128       12.0478016094       -9.9601324400  MEMB      225             0.0000000000
     27983       225  PVCL2     H9E             8.1665390104       10.9684899826       -8.9721008483  MEMB      225             0.0000000000
     27984       225  PVCL2     CB10            8.7607083673       11.8739059101       -7.4180970978  MEMB      225             0.0000000000
     27985       225  PVCL2     H10D            8.2061555689       12.1830075037       -7.8006756234  MEMB      225             0.0000000000
     27986       225  PVCL2     H10E            9.3549397621       12.7701118910       -7.0500296241  MEMB      225             0.0000000000
     27987       225  PVCL2     CB11            8.9778472617       10.5477636154       -6.7958392756  MEMB      225             0.0000000000
     27988       225  PVCL2     H11D            9.0629205706        9.7700055803       -6.7591983765  MEMB      225             0.0000000000
     27989       225  PVCL2     H11E            8.6313312598       11.3748167091       -6.2703026840  MEMB      225             0.0000000000
     27990       225  PVCL2     CB12           11.6136062215       10.0942984396       -6.3153510903  MEMB      225             0.0000000000
     27991       225  PVCL2     H12D           12.3066604857       11.7227820455       -6.1714546433  MEMB      225             0.0000000000
     27992       225  PVCL2     H12E           11.8555651094        9.6539666606       -7.5390286506  MEMB      225             0.0000000000
     27993       225  PVCL2     CB13           11.9607136816        9.4808333580       -5.5168406933  MEMB      225             0.0000000000
     27994       225  PVCL2     H13D           12.6821389665        9.2534717151       -6.2541644054  MEMB      225             0.0000000000
     27995       225  PVCL2     H13E           11.2067694156        8.8811046632       -5.6433669936  MEMB      225             0.0000000000
     27996       225  PVCL2     CB14           12.2034896556       10.4023389354       -4.3747727616  MEMB      225             0.0000000000
     27997       225  PVCL2     H14D           11.7063181160       11.0155596880       -3.6161908677  MEMB      225             0.0000000000
     27998       225  PVCL2     H14E           12.5954594689       11.3316650409       -4.7103690228  MEMB      225             0.0000000000
     27999       225  PVCL2     CB15           12.8437360995        9.7709408309       -3.7023972793  MEMB      225             0.0000000000
     28000       225  PVCL2     H15D           13.5392328501        9.0600685144       -4.4046226315  MEMB      225             0.0000000000
     28001       225  PVCL2     H15E           12.5607363516        8.7853011060       -3.7406723063  MEMB      225             0.0000000000
     28002       225  PVCL2     CB16           13.2493353032       10.6814201398       -2.2472351152  MEMB      225             0.0000000000
     28003       225  PVCL2     H16D           14.6654615243       10.0699343295       -2.1002436155  MEMB      225             0.0000000000
     28004       225  PVCL2     H16E           12.6482764290       10.6734091028       -1.5313720497  MEMB      225             0.0000000000
     28005       225  PVCL2     H16F           13.5468506565       11.8639423392       -2.0660278712  MEMB      225             0.0000000000
     28006       225  PVCL2     CC3            13.6225484937       12.9423587035      -16.0375065282  MEMB      225             0.0000000000
     28007       225  PVCL2     H3R            13.6171151183       11.8320485388      -15.9496128468  MEMB      225             0.0000000000
     28008       225  PVCL2     H3S            12.5525356493       13.0762731030      -16.2140182811  MEMB      225             0.0000000000
     28009       225  PVCL2     CC4            13.9565956667       13.6436561193      -14.7547313780  MEMB      225             0.0000000000
     28010       225  PVCL2     H4R            13.4119942591       14.5509674123      -14.4968755057  MEMB      225             0.0000000000
     28011       225  PVCL2     H4S            14.9942663223       13.6807147059      -14.4809700211  MEMB      225             0.0000000000
     28012       225  PVCL2     CC5            13.5560381383       12.8594897716      -13.7652351042  MEMB      225             0.0000000000
     28013       225  PVCL2     H5R            13.9882196134       11.8586422270      -14.0122887052  MEMB      225             0.0000000000
     28014       225  PVCL2     H5S            12.3759886636       12.9529228225      -14.0897085455  MEMB      225             0.0000000000
     28015       225  PVCL2     CC6            14.1412544299       13.1131478738      -12.2777630422  MEMB      225             0.0000000000
     28016       225  PVCL2     H6R            13.9047535410       14.1166206075      -12.0429742299  MEMB      225             0.0000000000
     28017       225  PVCL2     H6S            15.1852709412       12.7861146494      -12.2674264640  MEMB      225             0.0000000000
     28018       225  PVCL2     CC7            13.6218754328       12.5866658289      -10.9510756953  MEMB      225             0.0000000000
     28019       225  PVCL2     H7R            13.8342893295       11.7089901655      -11.6019607400  MEMB      225             0.0000000000
     28020       225  PVCL2     H7S            12.5808886536       12.9237218306      -10.6559780114  MEMB      225             0.0000000000
     28021       225  PVCL2     CC8            14.3312951677       12.1752821802       -9.7384709398  MEMB      225             0.0000000000
     28022       225  PVCL2     H8R            15.2240560710       11.5852081081       -9.9498546867  MEMB      225             0.0000000000
     28023       225  PVCL2     H8S            13.7441925041       11.3351159297       -9.2938420735  MEMB      225             0.0000000000
     28024       225  PVCL2     CC9            14.5659177877       13.5043509098       -9.0559418927  MEMB      225             0.0000000000
     28025       225  PVCL2     H9R            13.6804319847       14.0658143258       -8.6936026339  MEMB      225             0.0000000000
     28026       225  PVCL2     H9S            15.1613350138       14.1321264236       -9.7143608367  MEMB      225             0.0000000000
     28027       225  PVCL2     CC10           15.4712598312       13.4036704239       -7.9712381986  MEMB      225             0.0000000000
     28028       225  PVCL2     H10R           16.2480906381       12.6342714394       -8.1812594777  MEMB      225             0.0000000000
     28029       225  PVCL2     H10S           14.7113797859       12.8161633680       -7.4763281719  MEMB      225             0.0000000000
     28030       225  PVCL2     CC11           15.9138639290       14.6089005752       -7.1741057954  MEMB      225             0.0000000000
     28031       225  PVCL2     H11R           16.9877240644       14.6237579436       -7.3069916961  MEMB      225             0.0000000000
     28032       225  PVCL2     CC12           15.1780189239       15.4184647910       -6.2940760818  MEMB      225             0.0000000000
     28033       225  PVCL2     H12R           15.7228052536       16.0218444508       -5.5773490612  MEMB      225             0.0000000000
     28034       225  PVCL2     CC13           13.6524587713       15.2652896589       -5.8856189695  MEMB      225             0.0000000000
     28035       225  PVCL2     H13R           13.1553429067       14.3659005468       -6.4331562375  MEMB      225             0.0000000000
     28036       225  PVCL2     H13S           12.9922420450       16.0418716491       -6.0424771307  MEMB      225             0.0000000000
     28037       225  PVCL2     CC14           13.1715524951       15.2715067387       -4.3858863164  MEMB      225             0.0000000000
     28038       225  PVCL2     H14R           13.0938668006       14.2278501616       -4.6656755544  MEMB      225             0.0000000000
     28039       225  PVCL2     H14S           12.3365927081       14.7517299825       -3.9643689088  MEMB      225             0.0000000000
     28040       225  PVCL2     CC15           14.1399115232       15.7680862744       -3.2488420430  MEMB      225             0.0000000000
     28041       225  PVCL2     H15R           14.0272897954       16.8014531053       -3.4147345254  MEMB      225             0.0000000000
     28042       225  PVCL2     H15S           15.2650808921       15.5701463827       -3.3225719764  MEMB      225             0.0000000000
     28043       225  PVCL2     CC16           13.8578008576       15.2038592911       -1.8796762158  MEMB      225             0.0000000000
     28044       225  PVCL2     H16R           14.2193101659       14.1589750565       -1.6945198981  MEMB      225             0.0000000000
     28045       225  PVCL2     H16S           12.8100526981       15.0931093966       -1.6231544035  MEMB      225             0.0000000000
     28046       225  PVCL2     CC17           14.7005025777       16.0686230741       -1.1250503136  MEMB      225             0.0000000000
     28047       225  PVCL2     H17R           14.4817002466       17.1008958725       -0.8256714466  MEMB      225             0.0000000000
     28048       225  PVCL2     H17S           15.7961178504       15.7730973205       -1.3197051071  MEMB      225             0.0000000000
     28049       225  PVCL2     CC18           14.4993282146       15.7169592607        0.0258932484  MEMB      225             0.0000000000
     28050       225  PVCL2     H18R           13.7082609980       15.9373882882        0.6960240026  MEMB      225             0.0000000000
     28051       225  PVCL2     H18S           14.9815259772       16.2205819407        0.9908282862  MEMB      225             0.0000000000
     28052       225  PVCL2     H18T           15.0404442670       14.5691634343       -0.2444167325  MEMB      225             0.0000000000
     28053       225  PVCL2     CD3            18.3808058045       14.6071921348      -13.1180139788  MEMB      225             0.0000000000
     28054       225  PVCL2     H3X            18.7265238357       13.7150784968      -12.5474531762  MEMB      225             0.0000000000
     28055       225  PVCL2     H3Y            17.2770010068       14.6959689742      -13.1781634043  MEMB      225             0.0000000000
     28056       225  PVCL2     CD4            18.9725381341       15.7207577060      -12.2721863985  MEMB      225             0.0000000000
     28057       225  PVCL2     H4X            19.9874735478       15.8858883848      -12.5441984662  MEMB      225             0.0000000000
     28058       225  PVCL2     H4Y            19.1148811933       15.3186389731      -11.2435134558  MEMB      225             0.0000000000
     28059       225  PVCL2     CD5            18.3561042526       17.1091322849      -12.4501013900  MEMB      225             0.0000000000
     28060       225  PVCL2     H5X            17.3018935310       17.1392732895      -12.1830528464  MEMB      225             0.0000000000
     28061       225  PVCL2     H5Y            18.3762869460       17.5140881694      -13.4822409280  MEMB      225             0.0000000000
     28062       225  PVCL2     CD6            19.1618177618       18.1463222387      -11.7314043863  MEMB      225             0.0000000000
     28063       225  PVCL2     H6X            18.7414005191       19.1557647558      -11.9089543206  MEMB      225             0.0000000000
     28064       225  PVCL2     H6Y            20.1916724543       18.0258345846      -12.0988706245  MEMB      225             0.0000000000
     28065       225  PVCL2     CD7            19.2870062252       17.8760254959      -10.3092227714  MEMB      225             0.0000000000
     28066       225  PVCL2     H7X            19.6418384453       18.8286214381       -9.9612205952  MEMB      225             0.0000000000
     28067       225  PVCL2     H7Y            19.9481239813       16.9819344554      -10.2025086034  MEMB      225             0.0000000000
     28068       225  PVCL2     CD8            18.0183948399       17.7610151959       -9.5245019471  MEMB      225             0.0000000000
     28069       225  PVCL2     H8X            17.6567536548       16.7310848117       -9.6340769435  MEMB      225             0.0000000000
     28070       225  PVCL2     H8Y            17.2995602413       18.4985130835       -9.8843062257  MEMB      225             0.0000000000
     28071       225  PVCL2     CD9            18.1966779163       18.0447379949       -8.0677669464  MEMB      225             0.0000000000
     28072       225  PVCL2     H9X            17.3373508781       18.2095195486       -7.4254359277  MEMB      225             0.0000000000
     28073       225  PVCL2     H9Y            18.8888979098       18.9465254319       -8.0091874792  MEMB      225             0.0000000000
     28074       225  PVCL2     CD10           18.5757135671       16.7290899295       -7.4211454640  MEMB      225             0.0000000000
     28075       225  PVCL2     H10X           19.4230117630       16.8513026495       -8.0887149797  MEMB      225             0.0000000000
     28076       225  PVCL2     H10Y           18.6545197133       15.7511219737       -7.8499675413  MEMB      225             0.0000000000
     28077       225  PVCL2     CD11           18.6686662986       16.7820785227       -5.8484196880  MEMB      225             0.0000000000
     28078       225  PVCL2     H11X           17.6925374618       16.6449264559       -5.5251125220  MEMB      225             0.0000000000
     28079       225  PVCL2     H11Y           19.0506774839       17.7255083993       -5.3300184159  MEMB      225             0.0000000000
     28080       225  PVCL2     CD12           19.3598871519       15.6809646220       -5.2245492325  MEMB      225             0.0000000000
     28081       225  PVCL2     H12X           20.4388125826       16.0640110868       -5.1215267530  MEMB      225             0.0000000000
     28082       225  PVCL2     H12Y           19.4471051712       14.7698923294       -5.8818347469  MEMB      225             0.0000000000
     28083       225  PVCL2     CD13           18.6513506033       15.1470477497       -3.9028480626  MEMB      225             0.0000000000
     28084       225  PVCL2     H13X           17.6416648091       15.0566448201       -4.0619863068  MEMB      225             0.0000000000
     28085       225  PVCL2     H13Y           18.5101597838       15.9432679661       -3.1243272976  MEMB      225             0.0000000000
     28086       225  PVCL2     CD14           19.2007590994       13.8447550500       -3.1597461324  MEMB      225             0.0000000000
     28087       225  PVCL2     H14X           20.2736322961       13.8634342038       -2.8621719619  MEMB      225             0.0000000000
     28088       225  PVCL2     H14Y           19.0580395403       12.9991245246       -3.8399950682  MEMB      225             0.0000000000
     28089       225  PVCL2     CD15           18.8838402801       13.5779221835       -1.7244184970  MEMB      225             0.0000000000
     28090       225  PVCL2     H15X           19.2634517485       12.5681588291       -1.4464207004  MEMB      225             0.0000000000
     28091       225  PVCL2     H15Y           17.8047726313       13.5686615754       -1.7734323060  MEMB      225             0.0000000000
     28092       225  PVCL2     CD16           19.3041573615       14.5879551889       -0.6799734751  MEMB      225             0.0000000000
     28093       225  PVCL2     H16X           20.3499579556       14.8640390122       -0.7025947927  MEMB      225             0.0000000000
     28094       225  PVCL2     H16Y           19.0782357043       14.1649229307        0.3107075759  MEMB      225             0.0000000000
     28095       225  PVCL2     H16Z           18.7216315041       15.5268822070       -0.7657656707  MEMB      225             0.0000000000
     28096       226  OYPE      N              -4.0252122540       20.0842441912      -21.2584841817  MEMB      226             0.0000000000
     28097       226  OYPE      HN1            -3.6157078824       20.8103561808      -21.8841636160  MEMB      226             0.0000000000
     28098       226  OYPE      HN2            -3.4603444345       19.8671415247      -20.4117489003  MEMB      226             0.0000000000
     28099       226  OYPE      HN3            -4.1395980703       19.1663086382      -21.7397688788  MEMB      226             0.0000000000
     28100       226  OYPE      C12            -5.3520314107       20.6278921175      -20.8439596320  MEMB      226             0.0000000000
     28101       226  OYPE      H12A           -6.0538510810       19.7788843408      -20.7428419843  MEMB      226             0.0000000000
     28102       226  OYPE      H12B           -5.7061980223       21.2611849061      -21.6722934859  MEMB      226             0.0000000000
     28103       226  OYPE      C11            -5.2422258869       21.4243937160      -19.5420300194  MEMB      226             0.0000000000
     28104       226  OYPE      H11A           -4.3745320759       22.1312167976      -19.5714149101  MEMB      226             0.0000000000
     28105       226  OYPE      H11B           -5.0467237877       20.6857124049      -18.7343632319  MEMB      226             0.0000000000
     28106       226  OYPE      P              -6.8738973929       22.9367726602      -18.0237049767  MEMB      226             0.0000000000
     28107       226  OYPE      O13            -7.4062519576       24.2338849938      -18.4526044648  MEMB      226             0.0000000000
     28108       226  OYPE      O14            -5.7453775424       22.9134983860      -17.0715388869  MEMB      226             0.0000000000
     28109       226  OYPE      O11            -8.1110991371       22.1371212180      -17.4853429042  MEMB      226             0.0000000000
     28110       226  OYPE      O12            -6.4791438292       22.0997747559      -19.3279640909  MEMB      226             0.0000000000
     28111       226  OYPE      C1             -7.9441402309       21.1617982745      -16.4857005388  MEMB      226             0.0000000000
     28112       226  OYPE      HA             -6.9583754824       20.6433572598      -16.5935074448  MEMB      226             0.0000000000
     28113       226  OYPE      HB             -8.7438824366       20.4057273078      -16.6413948917  MEMB      226             0.0000000000
     28114       226  OYPE      C2             -8.0979926553       21.7130742697      -15.0329534786  MEMB      226             0.0000000000
     28115       226  OYPE      HS             -9.1224135878       22.0539743359      -14.8283748261  MEMB      226             0.0000000000
     28116       226  OYPE      O21            -7.1328853516       22.7374627313      -14.7286418356  MEMB      226             0.0000000000
     28117       226  OYPE      C21            -7.4966036801       23.6927519092      -13.9072919538  MEMB      226             0.0000000000
     28118       226  OYPE      O22            -8.5476885211       23.7879925131      -13.2946698837  MEMB      226             0.0000000000
     28119       226  OYPE      C22            -6.3643212595       24.7133292508      -13.7905470693  MEMB      226             0.0000000000
     28120       226  OYPE      H2R            -6.5936922199       25.5764331772      -14.4502162898  MEMB      226             0.0000000000
     28121       226  OYPE      H2S            -5.4330368510       24.2502148595      -14.1605450062  MEMB      226             0.0000000000
     28122       226  OYPE      C3             -7.9387023433       20.4951157586      -14.1599169076  MEMB      226             0.0000000000
     28123       226  OYPE      HX             -7.1118868236       20.0191914426      -14.6475519999  MEMB      226             0.0000000000
     28124       226  OYPE      HY             -8.6033852014       19.6550667293      -14.3714759509  MEMB      226             0.0000000000
     28125       226  OYPE      O31            -7.7982808714       20.8218565643      -12.7805075748  MEMB      226             0.0000000000
     28126       226  OYPE      C31            -8.9021548094       20.7487932616      -12.2448543126  MEMB      226             0.0000000000
     28127       226  OYPE      O32            -9.9855445582       20.5026690883      -12.7646218102  MEMB      226             0.0000000000
     28128       226  OYPE      C32            -8.6495279220       21.0212345386      -10.7674404931  MEMB      226             0.0000000000
     28129       226  OYPE      H2X            -8.6511021796       20.0558417980      -10.1959892322  MEMB      226             0.0000000000
     28130       226  OYPE      H2Y            -7.8118250227       21.6758303118      -10.6338757604  MEMB      226             0.0000000000
     28131       226  OYPE      C23            -6.1682488822       25.1392266352      -12.3275527061  MEMB      226             0.0000000000
     28132       226  OYPE      H3R            -7.1200688860       25.5915987614      -11.9690500465  MEMB      226             0.0000000000
     28133       226  OYPE      H3S            -5.4215003239       25.9628739564      -12.3073258238  MEMB      226             0.0000000000
     28134       226  OYPE      C24            -5.6843704176       23.9919204028      -11.4155883964  MEMB      226             0.0000000000
     28135       226  OYPE      H4R            -4.7310478234       23.5366073733      -11.7698810831  MEMB      226             0.0000000000
     28136       226  OYPE      H4S            -6.4534826060       23.1820026322      -11.3761000146  MEMB      226             0.0000000000
     28137       226  OYPE      C25            -5.3923812325       24.5692083095      -10.0366523135  MEMB      226             0.0000000000
     28138       226  OYPE      H5R            -6.3378387320       24.9267039947       -9.6123597566  MEMB      226             0.0000000000
     28139       226  OYPE      H5S            -4.6887399418       25.4146967122      -10.1416912069  MEMB      226             0.0000000000
     28140       226  OYPE      C26            -4.8166827317       23.6338311493       -9.0377406038  MEMB      226             0.0000000000
     28141       226  OYPE      H6R            -4.8239654146       23.9807121594       -7.9914186172  MEMB      226             0.0000000000
     28142       226  OYPE      H6S            -3.7990619804       23.4643518539       -9.3563439173  MEMB      226             0.0000000000
     28143       226  OYPE      C27            -5.5419117635       22.3572897874       -9.0045390234  MEMB      226             0.0000000000
     28144       226  OYPE      H7R            -5.2868958046       21.8471012690       -9.9609650900  MEMB      226             0.0000000000
     28145       226  OYPE      H7S            -6.6004295003       22.4688878332       -9.0483799013  MEMB      226             0.0000000000
     28146       226  OYPE      C28            -5.3138243222       21.6387652147       -7.6717298625  MEMB      226             0.0000000000
     28147       226  OYPE      H8R            -4.3585223365       21.4936470303       -7.1802410517  MEMB      226             0.0000000000
     28148       226  OYPE      H8S            -5.6213946235       20.6918235203       -7.8665569597  MEMB      226             0.0000000000
     28149       226  OYPE      C29            -5.6237087738       21.7903022713       -6.3762922300  MEMB      226             0.0000000000
     28150       226  OYPE      H9R            -4.9584591671       22.4924444414       -5.8722207412  MEMB      226             0.0000000000
     28151       226  OYPE      C210           -6.5859548354       21.0835531025       -5.8841045755  MEMB      226             0.0000000000
     28152       226  OYPE      H10R           -6.9274093419       21.5736800319       -5.0463990511  MEMB      226             0.0000000000
     28153       226  OYPE      C211           -7.5246596664       20.0666115170       -6.4630690858  MEMB      226             0.0000000000
     28154       226  OYPE      H11R           -7.0726956180       19.3257245380       -7.1509968287  MEMB      226             0.0000000000
     28155       226  OYPE      H11S           -8.3826212310       20.6185311500       -6.9017241563  MEMB      226             0.0000000000
     28156       226  OYPE      C212           -8.1145030431       19.2850542492       -5.3329128168  MEMB      226             0.0000000000
     28157       226  OYPE      H12R           -7.3583247059       18.6675908189       -4.7983645533  MEMB      226             0.0000000000
     28158       226  OYPE      H12S           -8.9371441591       18.6492370229       -5.7149375273  MEMB      226             0.0000000000
     28159       226  OYPE      C213           -8.6309134403       20.2170199234       -4.3140436706  MEMB      226             0.0000000000
     28160       226  OYPE      H13R           -7.9752858615       20.8728845570       -3.8000440277  MEMB      226             0.0000000000
     28161       226  OYPE      H13S           -8.7081548366       19.4798774227       -3.4964397741  MEMB      226             0.0000000000
     28162       226  OYPE      C214           -9.7691321449       21.1145805362       -4.7651818639  MEMB      226             0.0000000000
     28163       226  OYPE      H14R          -10.6974992145       20.6394716957       -4.9992565217  MEMB      226             0.0000000000
     28164       226  OYPE      H14S           -9.7690725988       21.6228966062       -5.7144403976  MEMB      226             0.0000000000
     28165       226  OYPE      C215           -9.8607651465       22.2288629471       -3.8262331827  MEMB      226             0.0000000000
     28166       226  OYPE      H15R          -10.7413391088       22.7463205844       -4.2478110430  MEMB      226             0.0000000000
     28167       226  OYPE      H15S           -9.1208844025       22.9165814038       -3.7682140327  MEMB      226             0.0000000000
     28168       226  OYPE      C216           -9.7121330171       22.0389701833       -2.3581020811  MEMB      226             0.0000000000
     28169       226  OYPE      H16R           -9.2633882841       21.3427539286       -1.7358417016  MEMB      226             0.0000000000
     28170       226  OYPE      H16S          -10.3939873889       21.1405252064       -2.5577351117  MEMB      226             0.0000000000
     28171       226  OYPE      H16T          -10.2556663029       22.8152837711       -1.6627582772  MEMB      226             0.0000000000
     28172       226  OYPE      C33            -9.6488369170       21.8612168788      -10.1355119144  MEMB      226             0.0000000000
     28173       226  OYPE      H3X            -9.7367331413       21.5428262892       -9.0475410596  MEMB      226             0.0000000000
     28174       226  OYPE      H3Y           -10.3471374504       21.2067486302      -10.8260707520  MEMB      226             0.0000000000
     28175       226  OYPE      C34           -10.2542716916       23.3319922420      -10.3895648965  MEMB      226             0.0000000000
     28176       226  OYPE      H4X           -10.5921189285       23.2042774159      -11.4330655613  MEMB      226             0.0000000000
     28177       226  OYPE      H4Y           -11.2937275131       23.6622081866       -9.9432344574  MEMB      226             0.0000000000
     28178       226  OYPE      C35            -9.4283458034       24.4363789013      -10.0916516678  MEMB      226             0.0000000000
     28179       226  OYPE      H5X            -9.9432635984       25.2467240203      -10.6531472074  MEMB      226             0.0000000000
     28180       226  OYPE      H5Y            -8.4701785675       24.1444814553      -10.5124149043  MEMB      226             0.0000000000
     28181       226  OYPE      C36            -9.4194733441       24.8172287039       -8.6386640700  MEMB      226             0.0000000000
     28182       226  OYPE      H6X            -9.0002338628       25.8356298181       -8.7182404069  MEMB      226             0.0000000000
     28183       226  OYPE      H6Y           -10.4598052789       24.8740115444       -8.2589274940  MEMB      226             0.0000000000
     28184       226  OYPE      C37            -8.5550680558       24.0168683544       -7.6632774593  MEMB      226             0.0000000000
     28185       226  OYPE      H7X            -8.8455176549       22.9500065977       -7.6710222044  MEMB      226             0.0000000000
     28186       226  OYPE      H7Y            -7.4922048322       24.0646665282       -7.9797235591  MEMB      226             0.0000000000
     28187       226  OYPE      C38            -8.7345528970       24.5313640805       -6.2255803142  MEMB      226             0.0000000000
     28188       226  OYPE      H8X            -9.7949280529       24.4326539340       -5.9006887603  MEMB      226             0.0000000000
     28189       226  OYPE      H8Y            -8.1803179269       23.9196417327       -5.5002629216  MEMB      226             0.0000000000
     28190       226  OYPE      C39            -8.3514774674       25.9644484639       -6.1010379590  MEMB      226             0.0000000000
     28191       226  OYPE      H9X            -9.0571216796       26.6663450538       -6.6123409152  MEMB      226             0.0000000000
     28192       226  OYPE      C310           -7.5564020221       26.5395122407       -5.1792734343  MEMB      226             0.0000000000
     28193       226  OYPE      H10X           -7.6949145730       27.6182616941       -5.0857021289  MEMB      226             0.0000000000
     28194       226  OYPE      C311           -6.8124185668       25.9436482956       -4.0225875962  MEMB      226             0.0000000000
     28195       226  OYPE      H11X           -6.7035995314       26.6428398750       -3.1467121719  MEMB      226             0.0000000000
     28196       226  OYPE      H11Y           -7.3780197952       25.0494288496       -3.6987579396  MEMB      226             0.0000000000
     28197       226  OYPE      C312           -5.3861880470       25.5546980317       -4.4290757133  MEMB      226             0.0000000000
     28198       226  OYPE      H12X           -4.7643439977       26.4614330870       -4.5251625601  MEMB      226             0.0000000000
     28199       226  OYPE      H12Y           -5.3551082398       25.0991499679       -5.4407877706  MEMB      226             0.0000000000
     28200       226  OYPE      C313           -4.7370022458       24.5631486744       -3.4460781309  MEMB      226             0.0000000000
     28201       226  OYPE      H13X           -5.2467933573       23.5829701357       -3.5704765229  MEMB      226             0.0000000000
     28202       226  OYPE      H13Y           -3.6626097480       24.4507151017       -3.7426523297  MEMB      226             0.0000000000
     28203       226  OYPE      C314           -4.7838355684       24.9787600135       -1.9551083575  MEMB      226             0.0000000000
     28204       226  OYPE      H14X           -4.7720048275       26.1015303145       -1.9050395885  MEMB      226             0.0000000000
     28205       226  OYPE      H14Y           -3.9137494239       24.4959068972       -1.4514575755  MEMB      226             0.0000000000
     28206       226  OYPE      C315           -5.9856837240       24.5131410505       -1.0964750633  MEMB      226             0.0000000000
     28207       226  OYPE      H15X           -6.8874784739       24.8941169420       -1.6005549319  MEMB      226             0.0000000000
     28208       226  OYPE      H15Y           -5.9952327551       25.0183969768       -0.1046891505  MEMB      226             0.0000000000
     28209       226  OYPE      C316           -6.2290340830       22.9950288762       -0.9359156475  MEMB      226             0.0000000000
     28210       226  OYPE      H16X           -5.8991395992       22.4094868065       -1.8121393391  MEMB      226             0.0000000000
     28211       226  OYPE      H16Y           -7.3307632043       22.8507184079       -0.9183436837  MEMB      226             0.0000000000
     28212       226  OYPE      C317           -5.7926385863       22.3786660558        0.3939829789  MEMB      226             0.0000000000
     28213       226  OYPE      H17X           -4.7036832299       22.5765142218        0.5342427003  MEMB      226             0.0000000000
     28214       226  OYPE      H17Y           -5.9681898492       21.2768651454        0.3189708978  MEMB      226             0.0000000000
     28215       226  OYPE      C318           -6.5954675408       22.9464183671        1.5725096363  MEMB      226             0.0000000000
     28216       226  OYPE      H18X           -6.3021997111       22.4445764045        2.5173069146  MEMB      226             0.0000000000
     28217       226  OYPE      H18Y           -6.3923674498       24.0359185809        1.6510318577  MEMB      226             0.0000000000
     28218       226  OYPE      H18Z           -7.6949203173       22.8220210674        1.4489976142  MEMB      226             0.0000000000
     28219       227  QMPE      N             -20.1523346877      -11.1441394242      -22.0553074504  MEMB      227             0.0000000000
     28220       227  QMPE      HN1           -19.4836776435      -11.3917434405      -22.8032095036  MEMB      227             0.0000000000
     28221       227  QMPE      HN2           -21.0620020363      -11.3413498233      -22.5032228972  MEMB      227             0.0000000000
     28222       227  QMPE      HN3           -20.1469406495      -10.1202141424      -21.8260475921  MEMB      227             0.0000000000
     28223       227  QMPE      C12           -19.9582705474      -11.9062102698      -20.7670043424  MEMB      227             0.0000000000
     28224       227  QMPE      H12A          -19.1123794078      -12.5823376796      -20.8375395628  MEMB      227             0.0000000000
     28225       227  QMPE      H12B          -20.8868247148      -12.4935248871      -20.6026397862  MEMB      227             0.0000000000
     28226       227  QMPE      C11           -19.6173156803      -10.9937336015      -19.5908058726  MEMB      227             0.0000000000
     28227       227  QMPE      H11A          -18.7405524997      -10.3118776497      -19.6904002217  MEMB      227             0.0000000000
     28228       227  QMPE      H11B          -19.3898076623      -11.6987045107      -18.7430605874  MEMB      227             0.0000000000
     28229       227  QMPE      P             -20.9520201771       -9.6473719599      -17.8694882074  MEMB      227             0.0000000000
     28230       227  QMPE      O13           -21.7433960672      -10.6745322517      -17.1755068697  MEMB      227             0.0000000000
     28231       227  QMPE      O14           -21.4260941489       -8.2560560562      -17.9014231932  MEMB      227             0.0000000000
     28232       227  QMPE      O11           -19.4536667779       -9.7020570778      -17.3229361703  MEMB      227             0.0000000000
     28233       227  QMPE      O12           -20.7471065884      -10.1794757266      -19.3591865696  MEMB      227             0.0000000000
     28234       227  QMPE      C1            -19.1517505883       -8.8998905034      -16.1822449530  MEMB      227             0.0000000000
     28235       227  QMPE      HA            -19.9543626292       -8.9478468284      -15.4025542026  MEMB      227             0.0000000000
     28236       227  QMPE      HB            -19.0073978555       -7.8505979279      -16.5172671113  MEMB      227             0.0000000000
     28237       227  QMPE      C2            -17.8152757480       -9.3408363467      -15.5481199163  MEMB      227             0.0000000000
     28238       227  QMPE      HS            -17.1177541524       -9.5122163048      -16.4021556317  MEMB      227             0.0000000000
     28239       227  QMPE      O21           -18.0722354480      -10.4997691052      -14.7157755183  MEMB      227             0.0000000000
     28240       227  QMPE      C21           -17.1901917085      -11.4881858328      -14.8104562605  MEMB      227             0.0000000000
     28241       227  QMPE      O22           -16.2737797747      -11.5531182979      -15.6034484161  MEMB      227             0.0000000000
     28242       227  QMPE      C22           -17.3865391055      -12.5021869468      -13.6759365584  MEMB      227             0.0000000000
     28243       227  QMPE      H2R           -16.6454406605      -13.3168600835      -13.8794145548  MEMB      227             0.0000000000
     28244       227  QMPE      H2S           -18.3980635831      -12.9259401169      -13.8216320925  MEMB      227             0.0000000000
     28245       227  QMPE      C3            -17.1906522892       -8.2228993866      -14.6691689511  MEMB      227             0.0000000000
     28246       227  QMPE      HX            -16.9631490489       -7.3089555154      -15.2555407430  MEMB      227             0.0000000000
     28247       227  QMPE      HY            -16.1871513830       -8.5788172734      -14.3210219529  MEMB      227             0.0000000000
     28248       227  QMPE      O31           -18.1491484195       -7.8847992524      -13.6375808273  MEMB      227             0.0000000000
     28249       227  QMPE      C31           -17.7191740915       -7.9299093937      -12.3871406574  MEMB      227             0.0000000000
     28250       227  QMPE      O32           -16.5653411097       -8.0813249777      -12.0410536294  MEMB      227             0.0000000000
     28251       227  QMPE      C32           -18.9112705110       -7.8254486496      -11.4145940497  MEMB      227             0.0000000000
     28252       227  QMPE      H2X           -19.3678798017       -6.8175657273      -11.5016617585  MEMB      227             0.0000000000
     28253       227  QMPE      H2Y           -19.6305074845       -8.5933166927      -11.7458228865  MEMB      227             0.0000000000
     28254       227  QMPE      C23           -17.2943287577      -11.8855074447      -12.2415769739  MEMB      227             0.0000000000
     28255       227  QMPE      H3R           -18.0467431951      -11.0864251416      -12.0475906280  MEMB      227             0.0000000000
     28256       227  QMPE      H3S           -16.2841678096      -11.4308780094      -12.0858168039  MEMB      227             0.0000000000
     28257       227  QMPE      C24           -17.5439169116      -12.9271615564      -11.1456457918  MEMB      227             0.0000000000
     28258       227  QMPE      H4R           -17.2824781554      -12.4922453649      -10.1489810013  MEMB      227             0.0000000000
     28259       227  QMPE      H4S           -16.9720558378      -13.8316110004      -11.4419761156  MEMB      227             0.0000000000
     28260       227  QMPE      C25           -18.8933378320      -13.5791448559      -11.0999182611  MEMB      227             0.0000000000
     28261       227  QMPE      H5R           -18.9197604883      -14.3127017983      -10.2654505090  MEMB      227             0.0000000000
     28262       227  QMPE      H5S           -18.9883883522      -14.1028144272      -12.0817254401  MEMB      227             0.0000000000
     28263       227  QMPE      C26           -20.0046093623      -12.5930610066      -10.8720277693  MEMB      227             0.0000000000
     28264       227  QMPE      H6R           -20.3861688191      -12.3601431892      -11.8811810670  MEMB      227             0.0000000000
     28265       227  QMPE      H6S           -19.5946685699      -11.6760740930      -10.4008450935  MEMB      227             0.0000000000
     28266       227  QMPE      C27           -21.1041121543      -13.0930567467       -9.9455402565  MEMB      227             0.0000000000
     28267       227  QMPE      H7R           -20.6168454595      -13.2971722447       -8.9693771648  MEMB      227             0.0000000000
     28268       227  QMPE      H7S           -21.5347364167      -14.0386331937      -10.3380093556  MEMB      227             0.0000000000
     28269       227  QMPE      C28           -22.1037153045      -11.9665397287       -9.6901878156  MEMB      227             0.0000000000
     28270       227  QMPE      H8R           -22.6867652496      -11.7235387381      -10.6071447152  MEMB      227             0.0000000000
     28271       227  QMPE      H8S           -21.4999015705      -11.0726917091       -9.4549827826  MEMB      227             0.0000000000
     28272       227  QMPE      C29           -23.0305228684      -12.2783434756       -8.5464400452  MEMB      227             0.0000000000
     28273       227  QMPE      H9R           -23.6910556039      -13.1027817046       -8.6762357411  MEMB      227             0.0000000000
     28274       227  QMPE      C217          -23.6884993870      -11.0397696691       -8.0494155697  MEMB      227             0.0000000000
     28275       227  QMPE      H17R          -23.2262079162      -10.0700652184       -8.2120897956  MEMB      227             0.0000000000
     28276       227  QMPE      H17S          -24.6609928295      -11.3072358427       -7.7710879651  MEMB      227             0.0000000000
     28277       227  QMPE      C210          -22.9333124973      -11.9059791941       -7.0896647998  MEMB      227             0.0000000000
     28278       227  QMPE      H10R          -23.5973775385      -12.4650108454       -6.4012638683  MEMB      227             0.0000000000
     28279       227  QMPE      C211          -21.8337581996      -11.1309514630       -6.4667433712  MEMB      227             0.0000000000
     28280       227  QMPE      H11R          -21.4252901715      -10.3412670708       -7.1143991196  MEMB      227             0.0000000000
     28281       227  QMPE      H11S          -22.2460697074      -10.6378070159       -5.5637155339  MEMB      227             0.0000000000
     28282       227  QMPE      C212          -20.6910422726      -12.0115163742       -6.1239937733  MEMB      227             0.0000000000
     28283       227  QMPE      H12R          -19.8798975834      -11.3411214933       -5.7859763165  MEMB      227             0.0000000000
     28284       227  QMPE      H12S          -20.3598706237      -12.6623575316       -6.9605651007  MEMB      227             0.0000000000
     28285       227  QMPE      C213          -21.0372881664      -12.9975661282       -5.1311237686  MEMB      227             0.0000000000
     28286       227  QMPE      H13R          -21.6738700271      -13.8021448586       -5.6127287077  MEMB      227             0.0000000000
     28287       227  QMPE      H13S          -21.4526774182      -12.6392964469       -4.1658133799  MEMB      227             0.0000000000
     28288       227  QMPE      C214          -19.7670166101      -13.5619810959       -4.8549763521  MEMB      227             0.0000000000
     28289       227  QMPE      H14R          -18.9230561835      -13.0169117519       -4.3696801523  MEMB      227             0.0000000000
     28290       227  QMPE      H14S          -19.5727827068      -14.4255620360       -5.5516353094  MEMB      227             0.0000000000
     28291       227  QMPE      C215          -19.8695079748      -14.0928865150       -3.7026448334  MEMB      227             0.0000000000
     28292       227  QMPE      H15R          -19.0864100090      -14.6398037040       -3.5718521817  MEMB      227             0.0000000000
     28293       227  QMPE      H15S          -20.2099522274      -15.2672937366       -4.1282334128  MEMB      227             0.0000000000
     28294       227  QMPE      C216          -20.3531174737      -13.2448855258       -2.0932411286  MEMB      227             0.0000000000
     28295       227  QMPE      H16R          -20.5006245653      -13.8681432820       -1.0265858053  MEMB      227             0.0000000000
     28296       227  QMPE      H16S          -21.3901811861      -13.1257178831       -1.8913652669  MEMB      227             0.0000000000
     28297       227  QMPE      H16T          -19.5951186361      -12.7609873405       -1.6914870809  MEMB      227             0.0000000000
     28298       227  QMPE      C33           -18.5681900132       -8.0054552439       -9.8979039727  MEMB      227             0.0000000000
     28299       227  QMPE      H3X           -19.3425132615       -7.5369323102       -9.2508658970  MEMB      227             0.0000000000
     28300       227  QMPE      H3Y           -17.6166607326       -7.4767878713       -9.7095809423  MEMB      227             0.0000000000
     28301       227  QMPE      C34           -18.4444184377       -9.4450224734       -9.3724674690  MEMB      227             0.0000000000
     28302       227  QMPE      H4X           -17.7130888394       -9.9537785523      -10.0394353915  MEMB      227             0.0000000000
     28303       227  QMPE      H4Y           -19.4512043239       -9.9185240367       -9.4517850582  MEMB      227             0.0000000000
     28304       227  QMPE      C35           -17.9400537040       -9.5772259762       -7.9043876559  MEMB      227             0.0000000000
     28305       227  QMPE      H5X           -16.8787834494       -9.2471987505       -7.8379234383  MEMB      227             0.0000000000
     28306       227  QMPE      H5Y           -17.8839783271      -10.6531699624       -7.6388518105  MEMB      227             0.0000000000
     28307       227  QMPE      C36           -18.8005608733       -8.8280469076       -6.8490338790  MEMB      227             0.0000000000
     28308       227  QMPE      H6X           -19.8737240960       -9.0778246248       -6.9067269817  MEMB      227             0.0000000000
     28309       227  QMPE      H6Y           -18.8339957232       -7.7637484102       -7.1360342942  MEMB      227             0.0000000000
     28310       227  QMPE      C37           -18.3621857901       -9.0294712378       -5.3759765371  MEMB      227             0.0000000000
     28311       227  QMPE      H7X           -18.1857193246      -10.1037112853       -5.1640545723  MEMB      227             0.0000000000
     28312       227  QMPE      H7Y           -17.3852190932       -8.5426439973       -5.1696693408  MEMB      227             0.0000000000
     28313       227  QMPE      C38           -19.4103371952       -8.6057800093       -4.3259721549  MEMB      227             0.0000000000
     28314       227  QMPE      H8X           -19.9261997493       -7.6746059900       -4.6539899482  MEMB      227             0.0000000000
     28315       227  QMPE      H8Y           -20.1679178156       -9.4079226182       -4.2106765397  MEMB      227             0.0000000000
     28316       227  QMPE      C39           -18.7460576412       -8.3975265653       -2.9627631670  MEMB      227             0.0000000000
     28317       227  QMPE      H9X           -18.0451131524       -7.5552035329       -3.1503479185  MEMB      227             0.0000000000
     28318       227  QMPE      H9Y           -18.1347398226       -9.2809364084       -2.6423022983  MEMB      227             0.0000000000
     28319       227  QMPE      C310          -19.6482784106       -7.9818974345       -1.7776666776  MEMB      227             0.0000000000
     28320       227  QMPE      H10X          -19.9866030668       -6.9252603089       -1.8560979838  MEMB      227             0.0000000000
     28321       227  QMPE      H10Y          -18.9438349060       -8.0375456471       -0.9169500386  MEMB      227             0.0000000000
     28322       227  QMPE      C311          -20.9522684814       -8.7802123778       -1.5192530339  MEMB      227             0.0000000000
     28323       227  QMPE      H11X          -20.9299307558       -9.7291470780       -2.0930147753  MEMB      227             0.0000000000
     28324       227  QMPE      H11Y          -21.7937789186       -8.1590523231       -1.9008222912  MEMB      227             0.0000000000
     28325       227  QMPE      C312          -21.2378418378       -9.1124462421       -0.0464995997  MEMB      227             0.0000000000
     28326       227  QMPE      H12X          -21.6339728550       -8.2244504841        0.5053584872  MEMB      227             0.0000000000
     28327       227  QMPE      H12Y          -20.2571615480       -9.3940755998        0.3482519486  MEMB      227             0.0000000000
     28328       227  QMPE      C313          -22.1055190130      -10.3496673177        0.1919446016  MEMB      227             0.0000000000
     28329       227  QMPE      H13X          -22.9215103113      -10.0635213804        0.8882417116  MEMB      227             0.0000000000
     28330       227  QMPE      H13Y          -22.5714741067      -10.7447409600       -0.7287403623  MEMB      227             0.0000000000
     28331       227  QMPE      C314          -21.3695837313      -11.4718427607        0.8690567006  MEMB      227             0.0000000000
     28332       227  QMPE      H14X          -21.2402113644      -11.1261021297        1.9268269372  MEMB      227             0.0000000000
     28333       227  QMPE      H14Y          -20.4150915176      -11.7415225193        0.3515388306  MEMB      227             0.0000000000
     28334       227  QMPE      C315          -22.2384139456      -12.6660511883        0.9637476670  MEMB      227             0.0000000000
     28335       227  QMPE      H15X          -22.2810860791      -13.2980625436        0.0544876176  MEMB      227             0.0000000000
     28336       227  QMPE      H15Y          -21.8347366568      -13.1150583785        1.8333820775  MEMB      227             0.0000000000
     28337       227  QMPE      H15Z          -23.1488877454      -12.5963741001        1.5247912209  MEMB      227             0.0000000000
     28338       228  QMPE      N               7.6906654481      -23.5546517442      -21.2458075740  MEMB      228             0.0000000000
     28339       228  QMPE      HN1             7.6700963174      -22.5401465559      -21.3548006737  MEMB      228             0.0000000000
     28340       228  QMPE      HN2             8.4749162055      -23.7928669494      -20.6252260188  MEMB      228             0.0000000000
     28341       228  QMPE      HN3             7.6506284961      -23.9936080704      -22.2019115557  MEMB      228             0.0000000000
     28342       228  QMPE      C12             6.4973268420      -23.9279013303      -20.4575452346  MEMB      228             0.0000000000
     28343       228  QMPE      H12A            6.4893309803      -25.0245816487      -20.3933082791  MEMB      228             0.0000000000
     28344       228  QMPE      H12B            5.6889929237      -23.5923494351      -21.0721251950  MEMB      228             0.0000000000
     28345       228  QMPE      C11             6.4491820302      -23.3376826198      -19.0497985822  MEMB      228             0.0000000000
     28346       228  QMPE      H11A            7.3400321093      -23.4783311187      -18.4068137272  MEMB      228             0.0000000000
     28347       228  QMPE      H11B            5.6910529263      -23.9963592998      -18.5543890668  MEMB      228             0.0000000000
     28348       228  QMPE      P               4.8935645094      -21.3815922932      -18.2711856590  MEMB      228             0.0000000000
     28349       228  QMPE      O13             3.6396506087      -21.9449052006      -18.8362609045  MEMB      228             0.0000000000
     28350       228  QMPE      O14             5.0013685941      -19.9277030336      -18.0962437764  MEMB      228             0.0000000000
     28351       228  QMPE      O11             5.2636692567      -22.1375775465      -16.9596253923  MEMB      228             0.0000000000
     28352       228  QMPE      O12             6.1198199987      -21.9494780430      -19.1178029311  MEMB      228             0.0000000000
     28353       228  QMPE      C1              4.2762254095      -22.5447383124      -16.0397245635  MEMB      228             0.0000000000
     28354       228  QMPE      HA              4.7793495981      -23.2474658761      -15.3697512676  MEMB      228             0.0000000000
     28355       228  QMPE      HB              3.4218260590      -23.0546434103      -16.5036332653  MEMB      228             0.0000000000
     28356       228  QMPE      C2              3.8518536288      -21.4105282442      -15.2037348912  MEMB      228             0.0000000000
     28357       228  QMPE      HS              3.1710409821      -20.7867417590      -15.9146225717  MEMB      228             0.0000000000
     28358       228  QMPE      O21             5.1706739167      -20.7754146029      -14.8842832856  MEMB      228             0.0000000000
     28359       228  QMPE      C21             4.8105880825      -19.7101805210      -14.4543443461  MEMB      228             0.0000000000
     28360       228  QMPE      O22             3.5999415748      -19.5345080181      -14.4605639737  MEMB      228             0.0000000000
     28361       228  QMPE      C22             5.9864298099      -18.9021626307      -13.7287102058  MEMB      228             0.0000000000
     28362       228  QMPE      H2R             5.9426713354      -17.8044609140      -13.5732809875  MEMB      228             0.0000000000
     28363       228  QMPE      H2S             6.7966137339      -19.0253847723      -14.4500467700  MEMB      228             0.0000000000
     28364       228  QMPE      C3              3.0874875983      -21.8283058768      -13.8601757185  MEMB      228             0.0000000000
     28365       228  QMPE      HX              2.2201292522      -22.3763787045      -14.1076427270  MEMB      228             0.0000000000
     28366       228  QMPE      HY              2.6726826207      -20.9454308299      -13.2883669044  MEMB      228             0.0000000000
     28367       228  QMPE      O31             3.9751203639      -22.5980273374      -13.0689170040  MEMB      228             0.0000000000
     28368       228  QMPE      C31             3.5869667804      -22.8062139376      -11.8409307443  MEMB      228             0.0000000000
     28369       228  QMPE      O32             2.5297839920      -22.4447055436      -11.3443962066  MEMB      228             0.0000000000
     28370       228  QMPE      C32             4.7069916363      -23.5854687882      -11.1542695704  MEMB      228             0.0000000000
     28371       228  QMPE      H2X             4.9762732741      -24.4797769248      -11.7535069697  MEMB      228             0.0000000000
     28372       228  QMPE      H2Y             5.6223695008      -22.9655275411      -11.1311796507  MEMB      228             0.0000000000
     28373       228  QMPE      C23             6.3145343649      -19.4167773855      -12.3097717753  MEMB      228             0.0000000000
     28374       228  QMPE      H3R             7.4094816898      -19.2938269639      -12.1621716760  MEMB      228             0.0000000000
     28375       228  QMPE      H3S             6.0118052429      -20.4716108280      -12.2649555000  MEMB      228             0.0000000000
     28376       228  QMPE      C24             5.7672388061      -18.7797823777      -11.0386366272  MEMB      228             0.0000000000
     28377       228  QMPE      H4R             6.1186071997      -17.7382560263      -10.9037785731  MEMB      228             0.0000000000
     28378       228  QMPE      H4S             6.1062992733      -19.4170870460      -10.2151846536  MEMB      228             0.0000000000
     28379       228  QMPE      C25             4.3566391903      -18.9309226525      -10.7245897645  MEMB      228             0.0000000000
     28380       228  QMPE      H5R             3.7599899565      -19.7700771455      -11.0628058244  MEMB      228             0.0000000000
     28381       228  QMPE      H5S             4.1564317303      -18.3545884742      -11.4741357750  MEMB      228             0.0000000000
     28382       228  QMPE      C26             4.0547254177      -18.4647509314       -9.3566522599  MEMB      228             0.0000000000
     28383       228  QMPE      H6R             4.1785638935      -17.3833807888       -9.0675661429  MEMB      228             0.0000000000
     28384       228  QMPE      H6S             4.5039881649      -19.1350325031       -8.6418256665  MEMB      228             0.0000000000
     28385       228  QMPE      C27             2.7977867909      -19.0304000547       -8.9729423288  MEMB      228             0.0000000000
     28386       228  QMPE      H7R             2.0126957320      -19.5711382179       -9.4993111086  MEMB      228             0.0000000000
     28387       228  QMPE      H7S             2.6843634607      -18.2407296791       -9.7556216219  MEMB      228             0.0000000000
     28388       228  QMPE      C28             2.4542138183      -18.6069546108       -7.4791447746  MEMB      228             0.0000000000
     28389       228  QMPE      H8R             2.6774404209      -17.5511520315       -7.2576836798  MEMB      228             0.0000000000
     28390       228  QMPE      H8S             2.7035903696      -19.4554573051       -6.9221940760  MEMB      228             0.0000000000
     28391       228  QMPE      C29             1.1167629066      -18.6724619741       -7.0622478864  MEMB      228             0.0000000000
     28392       228  QMPE      H9R             1.0081504217      -18.7745462984       -8.0891774311  MEMB      228             0.0000000000
     28393       228  QMPE      C217            0.6052774023      -17.7210621936       -6.1436011880  MEMB      228             0.0000000000
     28394       228  QMPE      H17R            1.1196831288      -17.0305256563       -5.5900395407  MEMB      228             0.0000000000
     28395       228  QMPE      H17S           -0.0824134460      -17.2749059651       -6.6675536675  MEMB      228             0.0000000000
     28396       228  QMPE      C210            0.1954845341      -19.0835301610       -5.9239865073  MEMB      228             0.0000000000
     28397       228  QMPE      H10R           -0.8858865495      -19.1853812029       -5.7574789843  MEMB      228             0.0000000000
     28398       228  QMPE      C211            0.8755652689      -19.5190183050       -4.8389871953  MEMB      228             0.0000000000
     28399       228  QMPE      H11R            1.8089936002      -18.9270550158       -4.7893311699  MEMB      228             0.0000000000
     28400       228  QMPE      H11S            0.2152687115      -19.3225642403       -3.9809369444  MEMB      228             0.0000000000
     28401       228  QMPE      C212            1.1596554281      -20.9528731928       -5.1592942852  MEMB      228             0.0000000000
     28402       228  QMPE      H12R            1.7126018700      -20.9714153179       -6.1205447545  MEMB      228             0.0000000000
     28403       228  QMPE      H12S            0.2311143350      -21.5590549052       -5.2191740993  MEMB      228             0.0000000000
     28404       228  QMPE      C213            2.1160374646      -21.5222257266       -4.1837654556  MEMB      228             0.0000000000
     28405       228  QMPE      H13R            3.0597906031      -20.9206939415       -4.2069092642  MEMB      228             0.0000000000
     28406       228  QMPE      H13S            2.4560452162      -22.5396065391       -4.3270918022  MEMB      228             0.0000000000
     28407       228  QMPE      C214            1.5768618311      -21.5502776314       -2.8379563293  MEMB      228             0.0000000000
     28408       228  QMPE      H14R            0.6411857960      -21.9010915881       -2.4671472857  MEMB      228             0.0000000000
     28409       228  QMPE      H14S            1.1374423598      -20.6442490173       -2.5627722780  MEMB      228             0.0000000000
     28410       228  QMPE      C215            2.6780069064      -21.8239054100       -2.0398277023  MEMB      228             0.0000000000
     28411       228  QMPE      H15R            2.2121220641      -20.8740812220       -1.2297253909  MEMB      228             0.0000000000
     28412       228  QMPE      H15S            3.5617619454      -21.4614489524       -1.7094285819  MEMB      228             0.0000000000
     28413       228  QMPE      C216            2.7529227571      -23.4576799808       -1.7842702572  MEMB      228             0.0000000000
     28414       228  QMPE      H16R            3.0050761375      -24.0002973655       -2.6418472049  MEMB      228             0.0000000000
     28415       228  QMPE      H16S            1.8812635651      -23.7061494286       -1.1195213204  MEMB      228             0.0000000000
     28416       228  QMPE      H16T            3.4926468349      -23.9414041448       -1.0296794944  MEMB      228             0.0000000000
     28417       228  QMPE      C33             4.2911604878      -24.0191905262       -9.7360704086  MEMB      228             0.0000000000
     28418       228  QMPE      H3X             4.9424739110      -24.8710855875       -9.4420451790  MEMB      228             0.0000000000
     28419       228  QMPE      H3Y             3.2409091398      -24.4019387179       -9.7590058067  MEMB      228             0.0000000000
     28420       228  QMPE      C34             4.4959701487      -22.9014254497       -8.6854089464  MEMB      228             0.0000000000
     28421       228  QMPE      H4X             3.8480346401      -22.0336460401       -8.9138657427  MEMB      228             0.0000000000
     28422       228  QMPE      H4Y             5.5318457192      -22.5115517781       -8.7536822974  MEMB      228             0.0000000000
     28423       228  QMPE      C35             4.2969991647      -23.3563872198       -7.2298078928  MEMB      228             0.0000000000
     28424       228  QMPE      H5X             4.9186933512      -24.2741524976       -7.1005323204  MEMB      228             0.0000000000
     28425       228  QMPE      H5Y             3.2273921695      -23.6211696090       -7.0494247973  MEMB      228             0.0000000000
     28426       228  QMPE      C36             4.7638902818      -22.3577325478       -6.1512067945  MEMB      228             0.0000000000
     28427       228  QMPE      H6X             4.4019543904      -22.8351863803       -5.2089526980  MEMB      228             0.0000000000
     28428       228  QMPE      H6Y             4.3208099181      -21.3343924047       -6.2373579098  MEMB      228             0.0000000000
     28429       228  QMPE      C37             6.2921862719      -22.1425300486       -6.1372506297  MEMB      228             0.0000000000
     28430       228  QMPE      H7X             6.8084556946      -23.0979665024       -5.9082336127  MEMB      228             0.0000000000
     28431       228  QMPE      H7Y             6.5494983063      -21.7621594642       -7.1438997777  MEMB      228             0.0000000000
     28432       228  QMPE      C38             6.7613671668      -21.0077076741       -5.2604589098  MEMB      228             0.0000000000
     28433       228  QMPE      H8X             7.8412562059      -20.8176538325       -5.0744957768  MEMB      228             0.0000000000
     28434       228  QMPE      H8Y             6.2263030227      -20.0909696510       -5.5411157432  MEMB      228             0.0000000000
     28435       228  QMPE      C39             6.3447761523      -21.1603095179       -3.9453065314  MEMB      228             0.0000000000
     28436       228  QMPE      H9X             6.8626308760      -22.1124277021       -3.6065239606  MEMB      228             0.0000000000
     28437       228  QMPE      H9Y             5.2636942435      -21.5114558533       -3.8864157083  MEMB      228             0.0000000000
     28438       228  QMPE      C310            6.7462592826      -19.7985209028       -3.1380882081  MEMB      228             0.0000000000
     28439       228  QMPE      H10X            7.8236037927      -19.7635350287       -3.0279552440  MEMB      228             0.0000000000
     28440       228  QMPE      H10Y            6.5089723493      -19.6198307268       -2.0262682743  MEMB      228             0.0000000000
     28441       228  QMPE      C311            5.9480018483      -18.5960560180       -3.4155593905  MEMB      228             0.0000000000
     28442       228  QMPE      H11X            4.8969074612      -18.8785327956       -3.2605143244  MEMB      228             0.0000000000
     28443       228  QMPE      H11Y            6.1569447031      -18.3275793771       -4.4532083380  MEMB      228             0.0000000000
     28444       228  QMPE      C312            6.2180815383      -17.4937846587       -2.3869807211  MEMB      228             0.0000000000
     28445       228  QMPE      H12X            5.9741994542      -16.5587517982       -2.9211410102  MEMB      228             0.0000000000
     28446       228  QMPE      H12Y            7.2748596889      -17.4375590963       -2.0549253871  MEMB      228             0.0000000000
     28447       228  QMPE      C313            5.3535404035      -17.6101265115       -1.1257021251  MEMB      228             0.0000000000
     28448       228  QMPE      H13X            4.4449669626      -17.0293570412       -1.2613786154  MEMB      228             0.0000000000
     28449       228  QMPE      H13Y            5.0823848421      -18.6253359957       -0.7686877595  MEMB      228             0.0000000000
     28450       228  QMPE      C314            5.7188767846      -16.7237448424       -0.0244290372  MEMB      228             0.0000000000
     28451       228  QMPE      H14X            5.7664560356      -15.7146934101       -0.4975112709  MEMB      228             0.0000000000
     28452       228  QMPE      H14Y            6.7505573130      -16.8682983400        0.2231053258  MEMB      228             0.0000000000
     28453       228  QMPE      C315            4.8254325774      -16.9928889242        1.1911768704  MEMB      228             0.0000000000
     28454       228  QMPE      H15X            4.6825452807      -17.9841336145        1.5516388008  MEMB      228             0.0000000000
     28455       228  QMPE      H15Y            5.2989775835      -16.4905367917        2.0932878522  MEMB      228             0.0000000000
     28456       228  QMPE      H15Z            3.7632740404      -16.5785254483        1.0891908137  MEMB      228             0.0000000000
     28457       229  PMPE      N             -15.3015676108      -18.7146000376      -21.2132897056  MEMB      229             0.0000000000
     28458       229  PMPE      HN1           -16.3091251109      -18.6933348584      -21.4506913508  MEMB      229             0.0000000000
     28459       229  PMPE      HN2           -14.7598272526      -19.1716445834      -21.9704328072  MEMB      229             0.0000000000
     28460       229  PMPE      HN3           -15.1281532228      -19.2643887682      -20.3456796313  MEMB      229             0.0000000000
     28461       229  PMPE      C12           -14.7794563056      -17.3022873311      -21.0800557665  MEMB      229             0.0000000000
     28462       229  PMPE      H12A          -14.6453256933      -16.9521417304      -22.1188698878  MEMB      229             0.0000000000
     28463       229  PMPE      H12B          -13.7970185003      -17.3590959460      -20.5651812951  MEMB      229             0.0000000000
     28464       229  PMPE      C11           -15.7179026848      -16.2785842648      -20.4207939727  MEMB      229             0.0000000000
     28465       229  PMPE      H11A          -16.5076878891      -15.9950448416      -21.1563541756  MEMB      229             0.0000000000
     28466       229  PMPE      H11B          -15.1090033618      -15.3603715885      -20.1860829294  MEMB      229             0.0000000000
     28467       229  PMPE      P             -15.7099020510      -16.7059563577      -17.7979314857  MEMB      229             0.0000000000
     28468       229  PMPE      O13           -16.3143124493      -15.5805378701      -17.0595914401  MEMB      229             0.0000000000
     28469       229  PMPE      O14           -14.2317160038      -16.7167407389      -17.9540223230  MEMB      229             0.0000000000
     28470       229  PMPE      O11           -16.1277473417      -18.0999791456      -17.1777423294  MEMB      229             0.0000000000
     28471       229  PMPE      O12           -16.3522151822      -16.8171822605      -19.2695196816  MEMB      229             0.0000000000
     28472       229  PMPE      C1            -16.2068001510      -19.3930327515      -17.7773003804  MEMB      229             0.0000000000
     28473       229  PMPE      HA            -15.4842590838      -19.5331579979      -18.6091033536  MEMB      229             0.0000000000
     28474       229  PMPE      HB            -17.2109448343      -19.4718958710      -18.2395686470  MEMB      229             0.0000000000
     28475       229  PMPE      C2            -15.9592179505      -20.5610770532      -16.7270970041  MEMB      229             0.0000000000
     28476       229  PMPE      HS            -16.5766827956      -21.4494159791      -16.9737415947  MEMB      229             0.0000000000
     28477       229  PMPE      O21           -16.2588121011      -20.1813575036      -15.3732738462  MEMB      229             0.0000000000
     28478       229  PMPE      C21           -17.4010475266      -19.5998443878      -15.1206636394  MEMB      229             0.0000000000
     28479       229  PMPE      O22           -18.3942392886      -19.6947763020      -15.8356097100  MEMB      229             0.0000000000
     28480       229  PMPE      C22           -17.2383716216      -18.8829815059      -13.7677209811  MEMB      229             0.0000000000
     28481       229  PMPE      H2R           -18.1456828377      -18.3235890641      -13.5367999189  MEMB      229             0.0000000000
     28482       229  PMPE      H2S           -16.4269375479      -18.1338486820      -13.7433743199  MEMB      229             0.0000000000
     28483       229  PMPE      C3            -14.4693781814      -21.0725947656      -16.7985849414  MEMB      229             0.0000000000
     28484       229  PMPE      HX            -14.4044120396      -21.6026306060      -17.7780185793  MEMB      229             0.0000000000
     28485       229  PMPE      HY            -14.2454317498      -21.8815001707      -16.0762068311  MEMB      229             0.0000000000
     28486       229  PMPE      O31           -13.4905498207      -20.0034822975      -16.7059433318  MEMB      229             0.0000000000
     28487       229  PMPE      C31           -13.3414768677      -19.5060863925      -15.4826524380  MEMB      229             0.0000000000
     28488       229  PMPE      O32           -13.7036646828      -20.0447809437      -14.4513714586  MEMB      229             0.0000000000
     28489       229  PMPE      C32           -12.4514579153      -18.2306664877      -15.4922810464  MEMB      229             0.0000000000
     28490       229  PMPE      H2X           -12.9170573424      -17.3525202748      -15.8829925223  MEMB      229             0.0000000000
     28491       229  PMPE      H2Y           -11.4911975273      -18.3975268941      -16.0319770530  MEMB      229             0.0000000000
     28492       229  PMPE      C23           -16.8630007313      -19.8668595438      -12.6949806903  MEMB      229             0.0000000000
     28493       229  PMPE      H3R           -15.8281794996      -20.1858343826      -12.6771551290  MEMB      229             0.0000000000
     28494       229  PMPE      H3S           -17.3952185164      -20.8454703408      -12.8423883319  MEMB      229             0.0000000000
     28495       229  PMPE      C24           -17.0530226234      -19.2697359765      -11.3563200106  MEMB      229             0.0000000000
     28496       229  PMPE      H4R           -17.7080110015      -18.3625961983      -11.2564283068  MEMB      229             0.0000000000
     28497       229  PMPE      H4S           -16.2987376422      -19.1761477526      -10.5769579057  MEMB      229             0.0000000000
     28498       229  PMPE      C25           -17.4566647258      -20.4329638836      -10.6358354618  MEMB      229             0.0000000000
     28499       229  PMPE      H5R           -17.6256661005      -21.3766995595      -10.7523442746  MEMB      229             0.0000000000
     28500       229  PMPE      H5S           -18.3052839640      -20.5142243635      -11.4407431762  MEMB      229             0.0000000000
     28501       229  PMPE      C26           -17.7618590142      -20.0517360072       -9.2212950623  MEMB      229             0.0000000000
     28502       229  PMPE      H6R           -18.6615093911      -20.6007324238       -8.5263268754  MEMB      229             0.0000000000
     28503       229  PMPE      H6S           -18.1292141228      -18.9850153159       -9.6602111988  MEMB      229             0.0000000000
     28504       229  PMPE      C27           -16.9042481457      -20.2119291123       -8.0783932743  MEMB      229             0.0000000000
     28505       229  PMPE      H7R           -16.9734935134      -19.5040709928       -7.2062306847  MEMB      229             0.0000000000
     28506       229  PMPE      H7S           -16.0714858465      -19.9180536675       -8.6330085139  MEMB      229             0.0000000000
     28507       229  PMPE      C28           -17.2034681354      -21.5597084603       -7.4804872613  MEMB      229             0.0000000000
     28508       229  PMPE      H8R           -16.9999040574      -22.3052742019       -8.2183399452  MEMB      229             0.0000000000
     28509       229  PMPE      H8S           -18.2168783692      -21.7241046943       -7.0892163857  MEMB      229             0.0000000000
     28510       229  PMPE      C29           -16.1353564500      -21.7508197701       -6.5923623532  MEMB      229             0.0000000000
     28511       229  PMPE      H9R           -15.3662972618      -21.5459121553       -7.1642596194  MEMB      229             0.0000000000
     28512       229  PMPE      C217          -16.1568995199      -22.6988303457       -5.5119161973  MEMB      229             0.0000000000
     28513       229  PMPE      H17R          -15.2452550587      -23.1373161326       -5.1591389667  MEMB      229             0.0000000000
     28514       229  PMPE      H17S          -17.1486233172      -23.0505604744       -5.5010952462  MEMB      229             0.0000000000
     28515       229  PMPE      C210          -16.0848498186      -21.1914774091       -5.2862862446  MEMB      229             0.0000000000
     28516       229  PMPE      H10R          -15.2556031872      -20.8709705624       -4.6977793414  MEMB      229             0.0000000000
     28517       229  PMPE      C211          -17.2550981547      -20.6107811516       -4.9508753596  MEMB      229             0.0000000000
     28518       229  PMPE      H11R          -18.0697926151      -21.2912582220       -5.3468970119  MEMB      229             0.0000000000
     28519       229  PMPE      H11S          -17.5221038179      -19.5379873881       -5.1525386238  MEMB      229             0.0000000000
     28520       229  PMPE      C212          -17.0567313491      -20.4982849107       -3.4764585771  MEMB      229             0.0000000000
     28521       229  PMPE      H12R          -17.7429603930      -19.6819577715       -3.4578309501  MEMB      229             0.0000000000
     28522       229  PMPE      H12S          -16.3799180185      -20.0166669551       -2.8517859865  MEMB      229             0.0000000000
     28523       229  PMPE      C213          -17.3057500158      -21.6197242705       -2.5625294795  MEMB      229             0.0000000000
     28524       229  PMPE      H13R          -16.8277544241      -22.1290526263       -3.3354742800  MEMB      229             0.0000000000
     28525       229  PMPE      H13S          -18.2329744380      -22.0613852001       -2.5121771668  MEMB      229             0.0000000000
     28526       229  PMPE      C214          -17.3255528322      -21.3775245724       -1.0303750896  MEMB      229             0.0000000000
     28527       229  PMPE      H14R          -18.1920695602      -20.8011232041       -0.6339292661  MEMB      229             0.0000000000
     28528       229  PMPE      H14S          -16.7259089014      -20.8693930950       -0.5258815331  MEMB      229             0.0000000000
     28529       229  PMPE      C215          -17.3973639983      -22.1282912860        0.1750448682  MEMB      229             0.0000000000
     28530       229  PMPE      H15R          -18.5948183900      -22.3459321739        0.6075047761  MEMB      229             0.0000000000
     28531       229  PMPE      H15S          -18.3496026873      -21.8747355691        0.5923092983  MEMB      229             0.0000000000
     28532       229  PMPE      C216          -16.0732834499      -23.2154196292        1.0113349820  MEMB      229             0.0000000000
     28533       229  PMPE      H16R          -16.5643696043      -23.6206836136        1.7782851129  MEMB      229             0.0000000000
     28534       229  PMPE      H16S          -15.8081420995      -24.1160856578        0.3868266162  MEMB      229             0.0000000000
     28535       229  PMPE      H16T          -16.1830721523      -22.3441819117        1.0733132176  MEMB      229             0.0000000000
     28536       229  PMPE      C33           -12.1647832490      -17.8228934711      -14.0662122391  MEMB      229             0.0000000000
     28537       229  PMPE      H3X           -11.2566304739      -17.2755280154      -13.9767036584  MEMB      229             0.0000000000
     28538       229  PMPE      H3Y           -11.9854491053      -18.6884809430      -13.5627671986  MEMB      229             0.0000000000
     28539       229  PMPE      C34           -13.2726429561      -17.1650830724      -13.3122550019  MEMB      229             0.0000000000
     28540       229  PMPE      H4X           -14.1934861765      -17.6789682333      -13.6099106774  MEMB      229             0.0000000000
     28541       229  PMPE      H4Y           -13.2899476963      -16.1319388657      -13.6581472394  MEMB      229             0.0000000000
     28542       229  PMPE      C35           -13.1980864185      -17.3904022485      -11.8180928434  MEMB      229             0.0000000000
     28543       229  PMPE      H5X           -12.2860804311      -17.0625244508      -11.4250730357  MEMB      229             0.0000000000
     28544       229  PMPE      H5Y           -13.1569750479      -18.4138992157      -11.5343998176  MEMB      229             0.0000000000
     28545       229  PMPE      C36           -14.2797640858      -16.7725705384      -11.0497083227  MEMB      229             0.0000000000
     28546       229  PMPE      H6X           -15.3063264125      -16.9577300844      -11.3760198032  MEMB      229             0.0000000000
     28547       229  PMPE      H6Y           -13.8612689314      -15.8817305728      -11.4635010882  MEMB      229             0.0000000000
     28548       229  PMPE      C37           -14.1264441916      -16.8025304453       -9.5703988871  MEMB      229             0.0000000000
     28549       229  PMPE      H7X           -13.1823159064      -16.3213987259       -9.3199238530  MEMB      229             0.0000000000
     28550       229  PMPE      H7Y           -14.1886025924      -17.7940978358       -9.1894297915  MEMB      229             0.0000000000
     28551       229  PMPE      C38           -15.3269064163      -16.3681764655       -8.7853905468  MEMB      229             0.0000000000
     28552       229  PMPE      H8X           -16.1992566084      -16.0797679663       -9.3774593844  MEMB      229             0.0000000000
     28553       229  PMPE      H8Y           -15.0308259951      -15.5424793668       -8.8901896219  MEMB      229             0.0000000000
     28554       229  PMPE      C39           -15.1477286633      -15.9238097046       -7.3250244045  MEMB      229             0.0000000000
     28555       229  PMPE      H9X           -14.4341967071      -15.1318584455       -6.9607571003  MEMB      229             0.0000000000
     28556       229  PMPE      H9Y           -14.7221913275      -16.8560202889       -6.9794533532  MEMB      229             0.0000000000
     28557       229  PMPE      C310          -16.5103462591      -15.5779051272       -6.8414797231  MEMB      229             0.0000000000
     28558       229  PMPE      H10X          -17.0989386215      -16.3978574233       -7.2702533085  MEMB      229             0.0000000000
     28559       229  PMPE      H10Y          -16.9922915332      -14.6585246567       -7.2380647348  MEMB      229             0.0000000000
     28560       229  PMPE      C311          -16.4794849398      -15.7052920118       -5.3657063148  MEMB      229             0.0000000000
     28561       229  PMPE      H11X          -15.9569789458      -14.8801096931       -4.8178706315  MEMB      229             0.0000000000
     28562       229  PMPE      H11Y          -16.0699428878      -16.6851107608       -5.1135891495  MEMB      229             0.0000000000
     28563       229  PMPE      C312          -17.8097480893      -15.7826477723       -4.8438697551  MEMB      229             0.0000000000
     28564       229  PMPE      H12X          -18.6635270806      -16.0723315705       -5.4694041890  MEMB      229             0.0000000000
     28565       229  PMPE      H12Y          -17.8242269814      -14.6522826715       -4.8652264169  MEMB      229             0.0000000000
     28566       229  PMPE      C313          -17.8909693387      -16.3046811000       -3.3484530898  MEMB      229             0.0000000000
     28567       229  PMPE      H13X          -17.4412960574      -15.4112902513       -2.8026209288  MEMB      229             0.0000000000
     28568       229  PMPE      H13Y          -17.4421461025      -17.2577097390       -3.3271327434  MEMB      229             0.0000000000
     28569       229  PMPE      C314          -19.3263118047      -16.7295838806       -2.7141128083  MEMB      229             0.0000000000
     28570       229  PMPE      H14X          -19.3709662839      -17.1902094152       -1.7450476072  MEMB      229             0.0000000000
     28571       229  PMPE      H14Y          -19.9425672531      -17.1555817973       -3.5109173470  MEMB      229             0.0000000000
     28572       229  PMPE      C315          -20.3172607745      -15.7324420429       -2.0446435592  MEMB      229             0.0000000000
     28573       229  PMPE      H15X          -19.2058545277      -14.9908351812       -1.8695727479  MEMB      229             0.0000000000
     28574       229  PMPE      H15Y          -20.5192538436      -15.7395434540       -1.0717223130  MEMB      229             0.0000000000
     28575       229  PMPE      C316          -21.9642238234      -15.0431173351       -2.8225425305  MEMB      229             0.0000000000
     28576       229  PMPE      H16X          -21.8875019588      -14.7180545457       -3.9661009288  MEMB      229             0.0000000000
     28577       229  PMPE      H16Y          -22.3689502929      -13.9848214549       -3.0683439270  MEMB      229             0.0000000000
     28578       229  PMPE      H16Z          -22.0414065903      -15.7389729747       -3.3572745789  MEMB      229             0.0000000000
     28579       230  PMPE      N              -0.7031395769      -23.1745064951      -21.5679407644  MEMB      230             0.0000000000
     28580       230  PMPE      HN1            -0.9967234867      -22.5063812270      -22.3123829835  MEMB      230             0.0000000000
     28581       230  PMPE      HN2             0.3340350677      -23.2875218305      -21.6112539977  MEMB      230             0.0000000000
     28582       230  PMPE      HN3            -1.1609455376      -24.1022469140      -21.5788566525  MEMB      230             0.0000000000
     28583       230  PMPE      C12            -1.1259565513      -22.4444816097      -20.3229563992  MEMB      230             0.0000000000
     28584       230  PMPE      H12A           -0.6387175285      -21.4827912552      -20.4622178395  MEMB      230             0.0000000000
     28585       230  PMPE      H12B           -0.6525819317      -22.9266967378      -19.4542478081  MEMB      230             0.0000000000
     28586       230  PMPE      C11            -2.6667321851      -22.2613355056      -20.1448638222  MEMB      230             0.0000000000
     28587       230  PMPE      H11A           -3.1762061958      -22.1249239949      -21.1151067930  MEMB      230             0.0000000000
     28588       230  PMPE      H11B           -2.8699740318      -21.3071362884      -19.5873910132  MEMB      230             0.0000000000
     28589       230  PMPE      P              -3.3728127575      -23.4768483201      -17.9044988952  MEMB      230             0.0000000000
     28590       230  PMPE      O13            -4.3851613324      -24.4961215839      -17.5447547137  MEMB      230             0.0000000000
     28591       230  PMPE      O14            -3.4845518034      -22.1205777849      -17.3447139154  MEMB      230             0.0000000000
     28592       230  PMPE      O11            -1.8999988111      -24.0044603647      -17.6551905925  MEMB      230             0.0000000000
     28593       230  PMPE      O12            -3.2938285011      -23.3813143886      -19.5135774035  MEMB      230             0.0000000000
     28594       230  PMPE      C1             -1.4345688282      -25.2959673232      -18.0295777101  MEMB      230             0.0000000000
     28595       230  PMPE      HA             -1.0338151289      -25.2742705692      -19.0604794551  MEMB      230             0.0000000000
     28596       230  PMPE      HB             -2.2682423458      -26.0365087292      -18.0592473659  MEMB      230             0.0000000000
     28597       230  PMPE      C2             -0.4598672750      -25.9070105978      -16.9718504316  MEMB      230             0.0000000000
     28598       230  PMPE      HS             -0.2131481862      -26.9089805513      -17.3897887642  MEMB      230             0.0000000000
     28599       230  PMPE      O21            -1.2255158098      -26.0687145871      -15.7960040795  MEMB      230             0.0000000000
     28600       230  PMPE      C21            -1.0031224598      -27.1116602000      -15.0391936377  MEMB      230             0.0000000000
     28601       230  PMPE      O22            -0.0538077036      -27.8687206801      -15.0910581103  MEMB      230             0.0000000000
     28602       230  PMPE      C22            -2.1959157917      -27.3180193659      -14.1913678417  MEMB      230             0.0000000000
     28603       230  PMPE      H2R            -1.8423002300      -27.9167090572      -13.3147364034  MEMB      230             0.0000000000
     28604       230  PMPE      H2S            -2.9447839609      -27.8983623983      -14.7719688320  MEMB      230             0.0000000000
     28605       230  PMPE      C3              0.8332831237      -25.1066254264      -16.6064056812  MEMB      230             0.0000000000
     28606       230  PMPE      HX              1.4962491706      -25.0330344587      -17.4857053514  MEMB      230             0.0000000000
     28607       230  PMPE      HY              1.4449518246      -25.6674148836      -15.8627601423  MEMB      230             0.0000000000
     28608       230  PMPE      O31             0.5513468377      -23.7636018088      -16.1705860003  MEMB      230             0.0000000000
     28609       230  PMPE      C31             0.3849342960      -23.5526183193      -14.8795008716  MEMB      230             0.0000000000
     28610       230  PMPE      O32             0.5883505090      -24.3730691289      -13.9930269315  MEMB      230             0.0000000000
     28611       230  PMPE      C32            -0.1392221808      -22.1125803540      -14.6502145907  MEMB      230             0.0000000000
     28612       230  PMPE      H2X            -0.3526764186      -21.6262379361      -15.6298225849  MEMB      230             0.0000000000
     28613       230  PMPE      H2Y             0.5499227618      -21.5001040047      -14.0204014903  MEMB      230             0.0000000000
     28614       230  PMPE      C23            -2.7034289332      -25.9094274237      -13.8539014940  MEMB      230             0.0000000000
     28615       230  PMPE      H3R            -3.4827599292      -25.4935754559      -14.5370551569  MEMB      230             0.0000000000
     28616       230  PMPE      H3S            -1.9018207647      -25.2121514438      -13.6460054624  MEMB      230             0.0000000000
     28617       230  PMPE      C24            -3.2561452132      -25.8454727953      -12.5449040456  MEMB      230             0.0000000000
     28618       230  PMPE      H4R            -3.7654298631      -24.8681283387      -12.2931938839  MEMB      230             0.0000000000
     28619       230  PMPE      H4S            -2.7121669707      -26.1076023680      -11.6589391973  MEMB      230             0.0000000000
     28620       230  PMPE      C25            -4.0622995866      -26.9734560069      -12.5190049079  MEMB      230             0.0000000000
     28621       230  PMPE      H5R            -4.0400933198      -28.0393186735      -12.6445609051  MEMB      230             0.0000000000
     28622       230  PMPE      H5S            -4.8164036609      -26.5116496390      -13.4348198692  MEMB      230             0.0000000000
     28623       230  PMPE      C26            -4.9880663892      -26.7148682523      -10.5468513905  MEMB      230             0.0000000000
     28624       230  PMPE      H6R            -5.9739155817      -27.4832251456      -10.2379843208  MEMB      230             0.0000000000
     28625       230  PMPE      H6S            -5.4580191850      -25.5393129083      -10.5889497762  MEMB      230             0.0000000000
     28626       230  PMPE      C27            -4.8562006785      -26.8812748623       -9.5310580101  MEMB      230             0.0000000000
     28627       230  PMPE      H7R            -4.1896563810      -26.0126494447       -9.5513464131  MEMB      230             0.0000000000
     28628       230  PMPE      H7S            -4.4794029358      -27.9299029155      -10.0747327808  MEMB      230             0.0000000000
     28629       230  PMPE      C28            -5.6794823651      -27.1425918133       -8.3636839064  MEMB      230             0.0000000000
     28630       230  PMPE      H8R            -5.1662165491      -27.0290821732       -7.4594824236  MEMB      230             0.0000000000
     28631       230  PMPE      H8S            -5.7609350700      -28.2466417934       -8.2523918414  MEMB      230             0.0000000000
     28632       230  PMPE      C29            -6.8016430329      -26.2639993030       -8.2114669279  MEMB      230             0.0000000000
     28633       230  PMPE      H9R            -7.6663770070      -26.3604539539       -8.7389412400  MEMB      230             0.0000000000
     28634       230  PMPE      C217           -6.3435239832      -24.9302490384       -7.9195408250  MEMB      230             0.0000000000
     28635       230  PMPE      H17R           -6.9656868266      -24.2713877332       -8.4668056547  MEMB      230             0.0000000000
     28636       230  PMPE      H17S           -5.3328551941      -24.9761777741       -7.5548004055  MEMB      230             0.0000000000
     28637       230  PMPE      C210           -7.1704191856      -25.5768322197       -6.9432561131  MEMB      230             0.0000000000
     28638       230  PMPE      H10R           -8.2838388607      -25.5024204112       -7.0047428539  MEMB      230             0.0000000000
     28639       230  PMPE      C211           -6.4042689030      -26.0295702507       -5.7149671163  MEMB      230             0.0000000000
     28640       230  PMPE      H11R           -5.5018060369      -26.6482502868       -5.7392113719  MEMB      230             0.0000000000
     28641       230  PMPE      H11S           -6.4158887572      -26.9766799306       -5.7838317019  MEMB      230             0.0000000000
     28642       230  PMPE      C212           -7.1074418756      -25.8412823250       -4.4222767480  MEMB      230             0.0000000000
     28643       230  PMPE      H12R           -6.7242827278      -26.4938346061       -3.6115250986  MEMB      230             0.0000000000
     28644       230  PMPE      H12S           -8.2114635212      -25.9404192390       -4.3750608071  MEMB      230             0.0000000000
     28645       230  PMPE      C213           -6.7165525645      -24.4335126486       -4.3766692797  MEMB      230             0.0000000000
     28646       230  PMPE      H13R           -7.4026658528      -24.0059123277       -5.1492426421  MEMB      230             0.0000000000
     28647       230  PMPE      H13S           -5.6600797683      -24.2921813114       -4.7529873236  MEMB      230             0.0000000000
     28648       230  PMPE      C214           -6.9796396310      -23.8870767545       -3.0086572269  MEMB      230             0.0000000000
     28649       230  PMPE      H14R           -7.6412689316      -24.5330808439       -2.3929130130  MEMB      230             0.0000000000
     28650       230  PMPE      H14S           -7.5111551063      -22.9212450989       -3.1584934347  MEMB      230             0.0000000000
     28651       230  PMPE      C215           -5.7003702920      -23.5665256915       -2.2483041933  MEMB      230             0.0000000000
     28652       230  PMPE      H15R           -6.0158252405      -22.8054637391       -1.5021791299  MEMB      230             0.0000000000
     28653       230  PMPE      H15S           -4.9876084614      -23.1507577752       -2.9994419556  MEMB      230             0.0000000000
     28654       230  PMPE      C216           -4.9720130268      -24.6958813560       -1.5333440508  MEMB      230             0.0000000000
     28655       230  PMPE      H16R           -4.3549188632      -24.3729365660       -0.6878012631  MEMB      230             0.0000000000
     28656       230  PMPE      H16S           -5.6119649078      -25.3908707395       -1.0333185717  MEMB      230             0.0000000000
     28657       230  PMPE      H16T           -4.3442142072      -25.2212297997       -2.2671727734  MEMB      230             0.0000000000
     28658       230  PMPE      C33            -1.4793233976      -22.2797043621      -13.9140058420  MEMB      230             0.0000000000
     28659       230  PMPE      H3X            -1.3082897790      -22.8022977988      -12.9575716272  MEMB      230             0.0000000000
     28660       230  PMPE      H3Y            -2.1020323973      -23.0142125369      -14.4618388812  MEMB      230             0.0000000000
     28661       230  PMPE      C34            -2.3318469441      -21.0174499460      -13.6864218520  MEMB      230             0.0000000000
     28662       230  PMPE      H4X            -3.3671144826      -21.3603984070      -13.4168984498  MEMB      230             0.0000000000
     28663       230  PMPE      H4Y            -2.4838807798      -20.4525086742      -14.6345479046  MEMB      230             0.0000000000
     28664       230  PMPE      C35            -1.7206683456      -20.0542806494      -12.6394200955  MEMB      230             0.0000000000
     28665       230  PMPE      H5X            -2.3377684617      -19.1282156322      -12.6935634155  MEMB      230             0.0000000000
     28666       230  PMPE      H5Y            -0.6843433258      -19.7530767834      -12.8753948564  MEMB      230             0.0000000000
     28667       230  PMPE      C36            -1.6114980648      -20.6183260853      -11.2129164241  MEMB      230             0.0000000000
     28668       230  PMPE      H6X            -1.0329766003      -20.0359955179      -10.5083023396  MEMB      230             0.0000000000
     28669       230  PMPE      H6Y            -1.0553599544      -21.5504092709      -11.1101407763  MEMB      230             0.0000000000
     28670       230  PMPE      C37            -2.9804490383      -20.8051276277      -10.6190494205  MEMB      230             0.0000000000
     28671       230  PMPE      H7X            -3.5674464073      -21.5257940537      -11.1683713271  MEMB      230             0.0000000000
     28672       230  PMPE      H7Y            -3.4949853953      -19.8539124683      -10.8133824551  MEMB      230             0.0000000000
     28673       230  PMPE      C38            -2.9961891440      -21.1567213723       -9.1315758602  MEMB      230             0.0000000000
     28674       230  PMPE      H8X            -3.9415410211      -20.7032522813       -8.8921040431  MEMB      230             0.0000000000
     28675       230  PMPE      H8Y            -2.2310831850      -20.6985155100       -8.4708332553  MEMB      230             0.0000000000
     28676       230  PMPE      C39            -2.9766322718      -22.6021232699       -8.8097014368  MEMB      230             0.0000000000
     28677       230  PMPE      H9X            -2.0820833574      -22.9725146362       -9.3432049153  MEMB      230             0.0000000000
     28678       230  PMPE      H9Y            -3.8938226787      -23.0330096975       -9.2470320436  MEMB      230             0.0000000000
     28679       230  PMPE      C310           -2.6075607234      -22.8815079301       -7.3556374666  MEMB      230             0.0000000000
     28680       230  PMPE      H10X           -3.4621593865      -22.7972741584       -6.6542330990  MEMB      230             0.0000000000
     28681       230  PMPE      H10Y           -1.7671194472      -22.1690584538       -7.1613429529  MEMB      230             0.0000000000
     28682       230  PMPE      C311           -2.0046804149      -24.2455905667       -7.1757481960  MEMB      230             0.0000000000
     28683       230  PMPE      H11X           -1.4609429221      -24.4575113584       -8.1051739300  MEMB      230             0.0000000000
     28684       230  PMPE      H11Y           -2.8490302871      -24.9325581560       -7.2153041940  MEMB      230             0.0000000000
     28685       230  PMPE      C312           -1.0776560920      -24.3632146717       -5.9589566978  MEMB      230             0.0000000000
     28686       230  PMPE      H12X           -0.3976800891      -23.5270496980       -6.0681582855  MEMB      230             0.0000000000
     28687       230  PMPE      H12Y           -0.4625440690      -25.2710989553       -6.0597106778  MEMB      230             0.0000000000
     28688       230  PMPE      C313           -1.7907307222      -24.1606179469       -4.6216106503  MEMB      230             0.0000000000
     28689       230  PMPE      H13X           -2.7216999621      -24.7597285379       -4.6923382314  MEMB      230             0.0000000000
     28690       230  PMPE      H13Y           -2.2090905796      -23.1543569344       -4.6392256157  MEMB      230             0.0000000000
     28691       230  PMPE      C314           -0.9336004574      -24.2604676503       -3.3154860049  MEMB      230             0.0000000000
     28692       230  PMPE      H14X           -1.6369576580      -24.1547769555       -2.4621076593  MEMB      230             0.0000000000
     28693       230  PMPE      H14Y           -0.2119143026      -23.4502573222       -3.3423120883  MEMB      230             0.0000000000
     28694       230  PMPE      C315           -0.0727795349      -25.4774185547       -2.9849903620  MEMB      230             0.0000000000
     28695       230  PMPE      H15X            0.6961996530      -25.7777300742       -3.7295156411  MEMB      230             0.0000000000
     28696       230  PMPE      H15Y           -0.9249268898      -26.0928879263       -2.8734519301  MEMB      230             0.0000000000
     28697       230  PMPE      C316            0.4184136997      -25.8344572129       -1.6331822963  MEMB      230             0.0000000000
     28698       230  PMPE      H16X            1.2121543859      -25.1974757920       -1.4757074741  MEMB      230             0.0000000000
     28699       230  PMPE      H16Y            0.8538120370      -26.8358932416       -1.5457028025  MEMB      230             0.0000000000
     28700       230  PMPE      H16Z           -0.3391484206      -25.7815595377       -0.8654513597  MEMB      230             0.0000000000
     28701       231  PMPG      C13             0.8295305909       21.1481139882      -18.7531017257  MEMB      231             0.0000000000
     28702       231  PMPG      H13A            1.3771622141       21.3950293030      -17.8168548134  MEMB      231             0.0000000000
     28703       231  PMPG      H13B           -0.2319593912       21.4370983583      -18.6358630474  MEMB      231             0.0000000000
     28704       231  PMPG      OC3             0.7672121203       19.7421541663      -18.9542589378  MEMB      231             0.0000000000
     28705       231  PMPG      HO3             0.8149401705       19.4075336303      -18.0543770328  MEMB      231             0.0000000000
     28706       231  PMPG      C12             1.5015448198       21.9530959495      -19.8962504191  MEMB      231             0.0000000000
     28707       231  PMPG      H12A            1.1822527614       21.5263459051      -20.8675343286  MEMB      231             0.0000000000
     28708       231  PMPG      OC2             2.9203550883       21.8390612099      -19.8615608763  MEMB      231             0.0000000000
     28709       231  PMPG      HO2             3.2622437320       22.5181741467      -20.4557037426  MEMB      231             0.0000000000
     28710       231  PMPG      C11             1.0523321274       23.4449396194      -19.8480090916  MEMB      231             0.0000000000
     28711       231  PMPG      H11A           -0.0556963581       23.4848933459      -19.8405904559  MEMB      231             0.0000000000
     28712       231  PMPG      H11B            1.3266099631       23.9458981177      -20.7946916649  MEMB      231             0.0000000000
     28713       231  PMPG      P               2.7797107055       25.0374359219      -18.6139146146  MEMB      231             0.0000000000
     28714       231  PMPG      O13             2.4432753290       26.4412934747      -18.2868392010  MEMB      231             0.0000000000
     28715       231  PMPG      O14             3.6229928792       24.7286803769      -19.7918156025  MEMB      231             0.0000000000
     28716       231  PMPG      O11             3.3891392338       24.3466475930      -17.3640148083  MEMB      231             0.0000000000
     28717       231  PMPG      O12             1.4917544530       24.1438531339      -18.6879163061  MEMB      231             0.0000000000
     28718       231  PMPG      C1              4.7510926280       24.3987223406      -17.1163284830  MEMB      231             0.0000000000
     28719       231  PMPG      HA              5.1393493230       25.4425215900      -16.9918861052  MEMB      231             0.0000000000
     28720       231  PMPG      HB              5.3957649507       23.8573830016      -17.8672654147  MEMB      231             0.0000000000
     28721       231  PMPG      C2              4.9702692184       23.6492570632      -15.8436223442  MEMB      231             0.0000000000
     28722       231  PMPG      HS              5.9668716589       23.1647246012      -16.1813712187  MEMB      231             0.0000000000
     28723       231  PMPG      O21             4.2245710253       22.5463791095      -15.5065335832  MEMB      231             0.0000000000
     28724       231  PMPG      C21             4.8236197464       21.3701741894      -15.5239316983  MEMB      231             0.0000000000
     28725       231  PMPG      O22             5.9902744314       21.0787437116      -15.7525305107  MEMB      231             0.0000000000
     28726       231  PMPG      C22             3.7863416497       20.4364856367      -15.0496825418  MEMB      231             0.0000000000
     28727       231  PMPG      H2R             4.3842100764       19.7710087922      -14.4571376357  MEMB      231             0.0000000000
     28728       231  PMPG      H2S             3.3333642369       19.8938773088      -15.9000973772  MEMB      231             0.0000000000
     28729       231  PMPG      C3              4.8585991532       24.7712364973      -14.5561782138  MEMB      231             0.0000000000
     28730       231  PMPG      HX              5.6644306491       25.6027350147      -14.4915503738  MEMB      231             0.0000000000
     28731       231  PMPG      HY              5.0821578042       24.1900134920      -13.6432610311  MEMB      231             0.0000000000
     28732       231  PMPG      O31             3.6857420172       25.5178616925      -14.4317029319  MEMB      231             0.0000000000
     28733       231  PMPG      C31             3.5052251754       25.9846158981      -13.2335135875  MEMB      231             0.0000000000
     28734       231  PMPG      O32             4.3253221194       25.9959553727      -12.3592861133  MEMB      231             0.0000000000
     28735       231  PMPG      C32             2.0938514669       26.5185008276      -13.1632855073  MEMB      231             0.0000000000
     28736       231  PMPG      H2X             1.5188575956       26.0886625241      -14.0145814177  MEMB      231             0.0000000000
     28737       231  PMPG      H2Y             2.1685177136       27.6092140290      -13.3148904360  MEMB      231             0.0000000000
     28738       231  PMPG      C23             2.7112256168       21.0632967300      -14.1387757890  MEMB      231             0.0000000000
     28739       231  PMPG      H3R             1.9251057792       20.2681289558      -14.0601891114  MEMB      231             0.0000000000
     28740       231  PMPG      H3S             2.2244307179       21.9228263203      -14.6329181796  MEMB      231             0.0000000000
     28741       231  PMPG      C24             3.2008077594       21.3919548222      -12.6986527405  MEMB      231             0.0000000000
     28742       231  PMPG      H4R             4.0023407777       22.1249341741      -12.6870182411  MEMB      231             0.0000000000
     28743       231  PMPG      H4S             3.7092810563       20.6071325107      -12.1213943943  MEMB      231             0.0000000000
     28744       231  PMPG      C25             2.0167599007       21.7592782050      -11.8402188598  MEMB      231             0.0000000000
     28745       231  PMPG      H5R             1.2819050718       20.9066303994      -11.8620509999  MEMB      231             0.0000000000
     28746       231  PMPG      H5S             1.5814730961       22.6768451297      -12.2881619382  MEMB      231             0.0000000000
     28747       231  PMPG      C26             2.3663208643       21.9979806088      -10.3728739744  MEMB      231             0.0000000000
     28748       231  PMPG      H6R             2.7399175586       21.1103631668       -9.9170006562  MEMB      231             0.0000000000
     28749       231  PMPG      H6S             1.4293805652       22.2199351380       -9.8570854961  MEMB      231             0.0000000000
     28750       231  PMPG      C27             3.3481960649       23.0922460404       -9.9890404723  MEMB      231             0.0000000000
     28751       231  PMPG      H7R             3.0521490284       24.0222966473      -10.4948131181  MEMB      231             0.0000000000
     28752       231  PMPG      H7S             4.3107542222       22.8215232029      -10.3491272573  MEMB      231             0.0000000000
     28753       231  PMPG      C28             3.6132440439       23.2368412873       -8.4717546400  MEMB      231             0.0000000000
     28754       231  PMPG      H8R             4.2793681407       22.3917120420       -8.1454936674  MEMB      231             0.0000000000
     28755       231  PMPG      H8S             2.7280870931       23.3446536052       -7.8691256190  MEMB      231             0.0000000000
     28756       231  PMPG      C29             4.2798589779       24.5015941537       -8.1115192696  MEMB      231             0.0000000000
     28757       231  PMPG      H9R             5.3679893542       24.3346093867       -8.1695071460  MEMB      231             0.0000000000
     28758       231  PMPG      C217            3.4321026129       25.8152778251       -8.3297954916  MEMB      231             0.0000000000
     28759       231  PMPG      H17R            3.8946691687       26.5901542601       -8.9474628967  MEMB      231             0.0000000000
     28760       231  PMPG      H17S            2.3691695536       25.7239735475       -8.2652909843  MEMB      231             0.0000000000
     28761       231  PMPG      C210            4.0819591628       25.4509741740       -7.0069087377  MEMB      231             0.0000000000
     28762       231  PMPG      H10R            4.7087077781       26.2721689551       -6.8114637432  MEMB      231             0.0000000000
     28763       231  PMPG      C211            3.2347160547       25.0937834231       -5.8467996648  MEMB      231             0.0000000000
     28764       231  PMPG      H11R            2.3811350260       24.5113369016       -6.2022713129  MEMB      231             0.0000000000
     28765       231  PMPG      H11S            3.8389494335       24.4933947544       -5.1293889647  MEMB      231             0.0000000000
     28766       231  PMPG      C212            2.7350928129       26.4034643452       -5.2231473571  MEMB      231             0.0000000000
     28767       231  PMPG      H12R            2.1919569667       26.9748672429       -6.0147605314  MEMB      231             0.0000000000
     28768       231  PMPG      H12S            3.6436471056       27.0116629722       -5.0346751405  MEMB      231             0.0000000000
     28769       231  PMPG      C213            1.8879226924       26.2219702495       -3.9304091000  MEMB      231             0.0000000000
     28770       231  PMPG      H13R            0.9921270989       25.5964855714       -4.1398283254  MEMB      231             0.0000000000
     28771       231  PMPG      H13S            1.5376198718       27.2035731223       -3.5523795440  MEMB      231             0.0000000000
     28772       231  PMPG      C214            2.5559766784       25.4804981449       -2.7569172860  MEMB      231             0.0000000000
     28773       231  PMPG      H14R            2.7044616489       24.4436593913       -3.1251712464  MEMB      231             0.0000000000
     28774       231  PMPG      H14S            1.8727554814       25.4084574485       -1.8721701660  MEMB      231             0.0000000000
     28775       231  PMPG      C215            3.8871067178       26.0727242104       -2.2914611815  MEMB      231             0.0000000000
     28776       231  PMPG      H15R            4.6542320341       25.9470004430       -3.0891418674  MEMB      231             0.0000000000
     28777       231  PMPG      H15S            4.2195367187       25.4802076178       -1.4024037775  MEMB      231             0.0000000000
     28778       231  PMPG      C216            3.8733217213       27.5704181916       -1.9698766189  MEMB      231             0.0000000000
     28779       231  PMPG      H16R            4.8419906780       27.7955503890       -1.4744634980  MEMB      231             0.0000000000
     28780       231  PMPG      H16S            3.0503981657       27.8454193605       -1.2760298908  MEMB      231             0.0000000000
     28781       231  PMPG      H16T            3.7889432852       28.1830523197       -2.9022755167  MEMB      231             0.0000000000
     28782       231  PMPG      C33             1.3861565587       26.2114462788      -11.8285351811  MEMB      231             0.0000000000
     28783       231  PMPG      H3X             2.0721167691       26.4093158824      -10.9736173309  MEMB      231             0.0000000000
     28784       231  PMPG      H3Y             1.0624946481       25.1406176759      -11.8210818635  MEMB      231             0.0000000000
     28785       231  PMPG      C34             0.1632659293       27.0831070153      -11.5677315846  MEMB      231             0.0000000000
     28786       231  PMPG      H4X            -0.5346089771       26.9429360147      -12.4171447058  MEMB      231             0.0000000000
     28787       231  PMPG      H4Y             0.4222159636       28.1639981687      -11.5193109750  MEMB      231             0.0000000000
     28788       231  PMPG      C35            -0.4771518198       26.6941269225      -10.2462595385  MEMB      231             0.0000000000
     28789       231  PMPG      H5X            -1.2395021544       27.4221669004      -10.0987080455  MEMB      231             0.0000000000
     28790       231  PMPG      H5Y             0.2307670959       26.8168650766       -9.4077297978  MEMB      231             0.0000000000
     28791       231  PMPG      C36            -1.1001741329       25.3124285158      -10.2132710761  MEMB      231             0.0000000000
     28792       231  PMPG      H6X            -0.3238300391       24.5540808393      -10.4107643542  MEMB      231             0.0000000000
     28793       231  PMPG      H6Y            -1.8945544273       25.2039546930      -10.9825882633  MEMB      231             0.0000000000
     28794       231  PMPG      C37            -1.7734096198       24.9246160282       -8.9104720325  MEMB      231             0.0000000000
     28795       231  PMPG      H7X            -2.1403777344       23.9331964770       -9.1720593956  MEMB      231             0.0000000000
     28796       231  PMPG      H7Y            -2.6011741247       25.6188972487       -8.7004255721  MEMB      231             0.0000000000
     28797       231  PMPG      C38            -0.8667065324       24.7434745454       -7.7075053948  MEMB      231             0.0000000000
     28798       231  PMPG      H8X            -0.6395861941       25.7037634252       -7.2372623372  MEMB      231             0.0000000000
     28799       231  PMPG      H8Y             0.0448611961       24.2549765456       -8.1121922384  MEMB      231             0.0000000000
     28800       231  PMPG      C39            -1.4452875366       23.8505064990       -6.6454759971  MEMB      231             0.0000000000
     28801       231  PMPG      H9X            -1.7678093814       23.1139209168       -7.3476414949  MEMB      231             0.0000000000
     28802       231  PMPG      H9Y            -2.3519764061       24.2768259835       -6.1744144214  MEMB      231             0.0000000000
     28803       231  PMPG      C310           -0.3778649945       23.2377090815       -5.7427778178  MEMB      231             0.0000000000
     28804       231  PMPG      H10X            0.1777883869       24.0566715713       -5.2664345244  MEMB      231             0.0000000000
     28805       231  PMPG      H10Y            0.3388161469       22.6551347638       -6.3845580300  MEMB      231             0.0000000000
     28806       231  PMPG      C311           -0.9754092592       22.4774871300       -4.5693172047  MEMB      231             0.0000000000
     28807       231  PMPG      H11X           -1.7187322950       21.7615744820       -4.9986114048  MEMB      231             0.0000000000
     28808       231  PMPG      H11Y           -1.6892888891       23.0264102372       -4.0022574284  MEMB      231             0.0000000000
     28809       231  PMPG      C312            0.0831996035       21.8545051223       -3.5950459229  MEMB      231             0.0000000000
     28810       231  PMPG      H12X            0.8327350046       22.5201981790       -3.2167306935  MEMB      231             0.0000000000
     28811       231  PMPG      H12Y            0.7981896171       21.2581912081       -4.2273078306  MEMB      231             0.0000000000
     28812       231  PMPG      C313           -0.5955775171       21.1649437107       -2.3690218031  MEMB      231             0.0000000000
     28813       231  PMPG      H13X           -1.2398236122       20.2954451222       -2.6513257914  MEMB      231             0.0000000000
     28814       231  PMPG      H13Y           -1.3056348817       21.8849248423       -1.9487313451  MEMB      231             0.0000000000
     28815       231  PMPG      C314            0.3570570620       20.6823731624       -1.2409867392  MEMB      231             0.0000000000
     28816       231  PMPG      H14X            0.8751717804       19.8278605498       -1.5755076942  MEMB      231             0.0000000000
     28817       231  PMPG      H14Y           -0.2101902999       20.2279686401       -0.4150995904  MEMB      231             0.0000000000
     28818       231  PMPG      C315            1.5966033443       21.5054403789       -0.8823104604  MEMB      231             0.0000000000
     28819       231  PMPG      H15X            2.1693841724       21.8435350717       -1.7251614451  MEMB      231             0.0000000000
     28820       231  PMPG      H15Y            2.2257405458       21.0372042819       -0.0830055773  MEMB      231             0.0000000000
     28821       231  PMPG      C316            1.2354495952       22.7994499885       -0.4138657176  MEMB      231             0.0000000000
     28822       231  PMPG      H16X            1.9664330277       23.3066979285        0.2394503142  MEMB      231             0.0000000000
     28823       231  PMPG      H16Y            0.4694566258       22.3076937904        0.1342075614  MEMB      231             0.0000000000
     28824       231  PMPG      H16Z            0.6226917391       23.4777095836       -1.0124998526  MEMB      231             0.0000000000
     28825       232  PMPE      N             -27.9468390188       -3.6032217794      -19.7197843906  MEMB      232             0.0000000000
     28826       232  PMPE      HN1           -28.4863395454       -4.2485247731      -20.3188292413  MEMB      232             0.0000000000
     28827       232  PMPE      HN2           -27.4108110010       -4.1125939581      -18.9877505803  MEMB      232             0.0000000000
     28828       232  PMPE      HN3           -28.5698761963       -2.8748513459      -19.3042006126  MEMB      232             0.0000000000
     28829       232  PMPE      C12           -26.9040201418       -2.8943297203      -20.4963361916  MEMB      232             0.0000000000
     28830       232  PMPE      H12A          -27.3668055195       -2.0253206477      -21.0136161245  MEMB      232             0.0000000000
     28831       232  PMPE      H12B          -26.5117372395       -3.6004195975      -21.2567790311  MEMB      232             0.0000000000
     28832       232  PMPE      C11           -25.7800814375       -2.5090509196      -19.5338509641  MEMB      232             0.0000000000
     28833       232  PMPE      H11A          -26.0381623474       -1.9783641820      -18.5965246050  MEMB      232             0.0000000000
     28834       232  PMPE      H11B          -25.2779165463       -1.7596912966      -20.0765502372  MEMB      232             0.0000000000
     28835       232  PMPE      P             -23.5342525926       -3.4680468040      -18.4803652935  MEMB      232             0.0000000000
     28836       232  PMPE      O13           -22.8253988508       -2.2491816940      -18.8811860117  MEMB      232             0.0000000000
     28837       232  PMPE      O14           -22.8667039884       -4.7843943593      -18.5193095783  MEMB      232             0.0000000000
     28838       232  PMPE      O11           -24.2019604092       -3.1804063096      -17.0866427067  MEMB      232             0.0000000000
     28839       232  PMPE      O12           -24.8844893834       -3.5866697467      -19.3566268976  MEMB      232             0.0000000000
     28840       232  PMPE      C1            -24.9343042912       -4.0813786468      -16.2899587066  MEMB      232             0.0000000000
     28841       232  PMPE      HA            -24.2327356549       -4.8240358625      -15.8479212490  MEMB      232             0.0000000000
     28842       232  PMPE      HB            -25.6986123686       -4.6133886339      -16.8890194800  MEMB      232             0.0000000000
     28843       232  PMPE      C2            -25.6351787828       -3.3306870938      -15.1310407212  MEMB      232             0.0000000000
     28844       232  PMPE      HS            -26.3205027895       -2.5571110174      -15.5528738609  MEMB      232             0.0000000000
     28845       232  PMPE      O21           -24.6048497915       -2.7869108830      -14.2917846852  MEMB      232             0.0000000000
     28846       232  PMPE      C21           -25.0092644203       -1.8034556946      -13.5531555684  MEMB      232             0.0000000000
     28847       232  PMPE      O22           -26.0154383356       -1.1381975572      -13.6497159625  MEMB      232             0.0000000000
     28848       232  PMPE      C22           -24.0085160402       -1.5094088451      -12.5915342651  MEMB      232             0.0000000000
     28849       232  PMPE      H2R           -23.7063897550       -0.7088362873      -13.3086802899  MEMB      232             0.0000000000
     28850       232  PMPE      H2S           -23.3097964433       -2.3407587855      -12.3743291106  MEMB      232             0.0000000000
     28851       232  PMPE      C3            -26.5120846506       -4.3382694238      -14.3388269303  MEMB      232             0.0000000000
     28852       232  PMPE      HX            -25.7926851184       -5.0615741797      -13.8968312387  MEMB      232             0.0000000000
     28853       232  PMPE      HY            -27.1278192187       -4.9333863281      -15.0444812054  MEMB      232             0.0000000000
     28854       232  PMPE      O31           -27.4264472371       -3.7227655477      -13.4029330749  MEMB      232             0.0000000000
     28855       232  PMPE      C31           -27.0402425148       -3.6667058354      -12.1287031328  MEMB      232             0.0000000000
     28856       232  PMPE      O32           -25.9594484909       -4.0256784816      -11.6967574821  MEMB      232             0.0000000000
     28857       232  PMPE      C32           -28.1831168332       -3.0577379080      -11.2959989819  MEMB      232             0.0000000000
     28858       232  PMPE      H2X           -29.1076129364       -3.6480714575      -11.4181369384  MEMB      232             0.0000000000
     28859       232  PMPE      H2Y           -28.3865825200       -2.0492534151      -11.7076613016  MEMB      232             0.0000000000
     28860       232  PMPE      C23           -24.2645794951       -0.6917312903      -11.4052359196  MEMB      232             0.0000000000
     28861       232  PMPE      H3R           -25.0156960494       -1.2179836977      -10.8599339015  MEMB      232             0.0000000000
     28862       232  PMPE      H3S           -24.6189542566        0.2922285507      -11.8645053273  MEMB      232             0.0000000000
     28863       232  PMPE      C24           -23.2219266534       -0.5616428295      -10.2108290394  MEMB      232             0.0000000000
     28864       232  PMPE      H4R           -22.8079017448        0.3114641326       -9.8793101937  MEMB      232             0.0000000000
     28865       232  PMPE      H4S           -22.6028820729        0.2014472335      -10.4878821368  MEMB      232             0.0000000000
     28866       232  PMPE      C25           -22.6414982768       -1.5057569892       -9.2523240877  MEMB      232             0.0000000000
     28867       232  PMPE      H5R           -21.9935491207       -2.3072316728       -9.7085632068  MEMB      232             0.0000000000
     28868       232  PMPE      H5S           -23.5745991883       -1.8499162327       -9.1315185334  MEMB      232             0.0000000000
     28869       232  PMPE      C26           -21.9321659668       -1.0564686661       -8.0465935636  MEMB      232             0.0000000000
     28870       232  PMPE      H6R           -22.2784995638       -0.3859697188       -7.3741442457  MEMB      232             0.0000000000
     28871       232  PMPE      H6S           -21.2698684877       -0.1959714464       -7.9853643028  MEMB      232             0.0000000000
     28872       232  PMPE      C27           -20.9706234377       -2.1245313623       -7.8432204505  MEMB      232             0.0000000000
     28873       232  PMPE      H7R           -20.1399517230       -1.6492037584       -7.5230161973  MEMB      232             0.0000000000
     28874       232  PMPE      H7S           -20.3989647691       -2.5260207228       -8.7040567058  MEMB      232             0.0000000000
     28875       232  PMPE      C28           -21.8367749272       -2.8419072433       -7.0510782451  MEMB      232             0.0000000000
     28876       232  PMPE      H8R           -22.3642999371       -3.3879626277       -7.8386310913  MEMB      232             0.0000000000
     28877       232  PMPE      H8S           -22.6308083490       -2.2024737005       -6.5712657915  MEMB      232             0.0000000000
     28878       232  PMPE      C29           -21.0485491803       -3.4936001026       -5.9905594258  MEMB      232             0.0000000000
     28879       232  PMPE      H9R           -20.9488843213       -2.9424298704       -5.0513140709  MEMB      232             0.0000000000
     28880       232  PMPE      C217          -19.9696610234       -4.4941971157       -6.3497906953  MEMB      232             0.0000000000
     28881       232  PMPE      H17R          -19.1871469708       -4.6492116622       -5.6046613996  MEMB      232             0.0000000000
     28882       232  PMPE      H17S          -19.9287704981       -4.7537136416       -7.3988258597  MEMB      232             0.0000000000
     28883       232  PMPE      C210          -21.3240697192       -4.9022983610       -5.7663692140  MEMB      232             0.0000000000
     28884       232  PMPE      H10R          -21.3366746318       -5.1368998470       -4.6967416947  MEMB      232             0.0000000000
     28885       232  PMPE      C211          -22.3645615076       -5.5225051529       -6.6857685822  MEMB      232             0.0000000000
     28886       232  PMPE      H11R          -22.2939767085       -6.6206036198       -6.6316295657  MEMB      232             0.0000000000
     28887       232  PMPE      H11S          -22.1521110370       -5.2641301372       -7.7425745294  MEMB      232             0.0000000000
     28888       232  PMPE      C212          -23.7771238618       -5.0389803340       -6.3413247960  MEMB      232             0.0000000000
     28889       232  PMPE      H12R          -24.5468164265       -5.5701827723       -6.9358968294  MEMB      232             0.0000000000
     28890       232  PMPE      H12S          -23.8786789532       -3.9647336082       -6.6024119237  MEMB      232             0.0000000000
     28891       232  PMPE      C213          -24.1453719860       -5.1458687611       -4.8677290123  MEMB      232             0.0000000000
     28892       232  PMPE      H13R          -25.1976783651       -4.8059435622       -4.8328636101  MEMB      232             0.0000000000
     28893       232  PMPE      H13S          -23.5398372291       -4.4441761789       -4.2599421170  MEMB      232             0.0000000000
     28894       232  PMPE      C214          -24.1122388193       -6.5500178921       -4.2661004820  MEMB      232             0.0000000000
     28895       232  PMPE      H14R          -23.0600658051       -6.9108696495       -4.2222942063  MEMB      232             0.0000000000
     28896       232  PMPE      H14S          -24.7189269782       -7.1979833888       -4.9436308506  MEMB      232             0.0000000000
     28897       232  PMPE      C215          -24.5794388240       -6.5486257499       -2.8010387079  MEMB      232             0.0000000000
     28898       232  PMPE      H15R          -23.8240658781       -5.9508023799       -2.2375905055  MEMB      232             0.0000000000
     28899       232  PMPE      H15S          -24.5213650698       -7.5591322898       -2.3378306239  MEMB      232             0.0000000000
     28900       232  PMPE      C216          -25.9020561293       -5.8420318200       -2.4940259064  MEMB      232             0.0000000000
     28901       232  PMPE      H16R          -26.7516825818       -6.1034330200       -3.1683990626  MEMB      232             0.0000000000
     28902       232  PMPE      H16S          -26.1112914162       -6.0596970843       -1.4208110595  MEMB      232             0.0000000000
     28903       232  PMPE      H16T          -25.7311116113       -4.7485415479       -2.6015363914  MEMB      232             0.0000000000
     28904       232  PMPE      C33           -27.9058842411       -2.9490712021       -9.7787599222  MEMB      232             0.0000000000
     28905       232  PMPE      H3X           -28.7556071376       -2.3522640240       -9.3698633144  MEMB      232             0.0000000000
     28906       232  PMPE      H3Y           -26.9533860268       -2.4117991260       -9.5896793389  MEMB      232             0.0000000000
     28907       232  PMPE      C34           -27.9413104778       -4.3140332481       -9.0678696431  MEMB      232             0.0000000000
     28908       232  PMPE      H4X           -27.1546108294       -4.9865515330       -9.4765793662  MEMB      232             0.0000000000
     28909       232  PMPE      H4Y           -28.9668171051       -4.7184630369       -9.2482189177  MEMB      232             0.0000000000
     28910       232  PMPE      C35           -27.6740547717       -4.3373152374       -7.5558361912  MEMB      232             0.0000000000
     28911       232  PMPE      H5X           -26.6489454035       -4.0166578290       -7.2998497972  MEMB      232             0.0000000000
     28912       232  PMPE      H5Y           -27.8434984399       -5.3731647088       -7.1638616737  MEMB      232             0.0000000000
     28913       232  PMPE      C36           -28.5701754947       -3.4368340021       -6.7710425501  MEMB      232             0.0000000000
     28914       232  PMPE      H6X           -29.4704543064       -4.0580601166       -6.5831124480  MEMB      232             0.0000000000
     28915       232  PMPE      H6Y           -28.7735901865       -2.4500259215       -7.2517989904  MEMB      232             0.0000000000
     28916       232  PMPE      C37           -28.1225494965       -3.0428721142       -5.4037759641  MEMB      232             0.0000000000
     28917       232  PMPE      H7X           -27.8862540786       -3.8578432796       -4.7086110274  MEMB      232             0.0000000000
     28918       232  PMPE      H7Y           -28.9387736633       -2.4460012644       -5.0162827709  MEMB      232             0.0000000000
     28919       232  PMPE      C38           -26.9651156914       -2.1226382362       -5.3210093189  MEMB      232             0.0000000000
     28920       232  PMPE      H8X           -27.1341390812       -1.2658277351       -6.0307055364  MEMB      232             0.0000000000
     28921       232  PMPE      H8Y           -26.0928806722       -2.7530082745       -5.5406191872  MEMB      232             0.0000000000
     28922       232  PMPE      C39           -26.8660767295       -1.7488263017       -3.8676296732  MEMB      232             0.0000000000
     28923       232  PMPE      H9X           -26.9190149555       -2.4479797935       -3.0538987179  MEMB      232             0.0000000000
     28924       232  PMPE      H9Y           -27.8099811436       -1.1106363164       -3.7671027820  MEMB      232             0.0000000000
     28925       232  PMPE      C310          -25.5342731418       -1.1156237517       -3.4782744736  MEMB      232             0.0000000000
     28926       232  PMPE      H10X          -25.8747402101       -0.7494011435       -2.4153578811  MEMB      232             0.0000000000
     28927       232  PMPE      H10Y          -25.3702107826       -0.4675324014       -4.3923507953  MEMB      232             0.0000000000
     28928       232  PMPE      C311          -24.2938031059       -1.5515388748       -3.0495560740  MEMB      232             0.0000000000
     28929       232  PMPE      H11X          -23.4925885678       -0.8048196386       -3.2939768638  MEMB      232             0.0000000000
     28930       232  PMPE      H11Y          -24.3889395819       -2.3567328141       -3.7543978641  MEMB      232             0.0000000000
     28931       232  PMPE      C312          -24.4895686537       -1.9773134060       -1.6359429001  MEMB      232             0.0000000000
     28932       232  PMPE      H12X          -25.4496108447       -2.5624378657       -1.5349819010  MEMB      232             0.0000000000
     28933       232  PMPE      H12Y          -24.5626512947       -1.0803064669       -0.9691114954  MEMB      232             0.0000000000
     28934       232  PMPE      C313          -23.3259128138       -2.8174622233       -1.3285111704  MEMB      232             0.0000000000
     28935       232  PMPE      H13X          -22.4070725972       -2.1949328935       -1.4153740820  MEMB      232             0.0000000000
     28936       232  PMPE      H13Y          -23.2393493395       -3.6923350316       -2.0243260289  MEMB      232             0.0000000000
     28937       232  PMPE      C314          -23.5447768196       -3.4146970848        0.0296519796  MEMB      232             0.0000000000
     28938       232  PMPE      H14X          -24.4746005452       -4.0190815496       -0.0561727483  MEMB      232             0.0000000000
     28939       232  PMPE      H14Y          -23.6848283156       -2.6919567051        0.8601345123  MEMB      232             0.0000000000
     28940       232  PMPE      C315          -22.4200314532       -4.3625555111        0.3015833729  MEMB      232             0.0000000000
     28941       232  PMPE      H15X          -22.4507649769       -5.1140312431       -0.5187293413  MEMB      232             0.0000000000
     28942       232  PMPE      H15Y          -22.5481722222       -4.8364042390        1.2928008451  MEMB      232             0.0000000000
     28943       232  PMPE      C316          -21.0729358180       -3.7621271440        0.2095819954  MEMB      232             0.0000000000
     28944       232  PMPE      H16X          -20.3329205067       -4.5263949113        0.5627998654  MEMB      232             0.0000000000
     28945       232  PMPE      H16Y          -20.9049907734       -2.8594207873        0.8580965430  MEMB      232             0.0000000000
     28946       232  PMPE      H16Z          -20.7677113838       -3.4968028375       -0.8254050131  MEMB      232             0.0000000000
     28947       233  QMPE      N              26.9853595394        1.7111700217      -15.9600070127  MEMB      233             0.0000000000
     28948       233  QMPE      HN1            27.8067328859        2.2733576685      -16.2781829924  MEMB      233             0.0000000000
     28949       233  QMPE      HN2            26.6784079471        2.2534177428      -15.1437897762  MEMB      233             0.0000000000
     28950       233  QMPE      HN3            27.2668501544        0.7674664511      -15.6241199823  MEMB      233             0.0000000000
     28951       233  QMPE      C12            25.8889104219        1.4427637045      -16.9799056713  MEMB      233             0.0000000000
     28952       233  QMPE      H12A           25.4855673772        2.3910786023      -17.3586936061  MEMB      233             0.0000000000
     28953       233  QMPE      H12B           25.0708726125        0.8721803977      -16.4891377324  MEMB      233             0.0000000000
     28954       233  QMPE      C11            26.4250710709        0.7447189784      -18.2349573693  MEMB      233             0.0000000000
     28955       233  QMPE      H11A           27.1248113920       -0.0691135788      -17.9020230036  MEMB      233             0.0000000000
     28956       233  QMPE      H11B           26.9550872688        1.5374943406      -18.8209328069  MEMB      233             0.0000000000
     28957       233  QMPE      P              24.6847434600        0.9534685777      -20.2530658107  MEMB      233             0.0000000000
     28958       233  QMPE      O13            23.9532962329       -0.0348390925      -21.0764754981  MEMB      233             0.0000000000
     28959       233  QMPE      O14            25.6793445303        1.8007286085      -20.9128772544  MEMB      233             0.0000000000
     28960       233  QMPE      O11            23.6760583725        1.9014011252      -19.5244340353  MEMB      233             0.0000000000
     28961       233  QMPE      O12            25.3687047018        0.1903350977      -19.0186505539  MEMB      233             0.0000000000
     28962       233  QMPE      C1             22.8188010651        1.3984350158      -18.5208837733  MEMB      233             0.0000000000
     28963       233  QMPE      HA             23.3441918033        0.7059900115      -17.8165403602  MEMB      233             0.0000000000
     28964       233  QMPE      HB             21.9656926709        0.8712045211      -19.0094171005  MEMB      233             0.0000000000
     28965       233  QMPE      C2             22.3167314647        2.5964746847      -17.6991593392  MEMB      233             0.0000000000
     28966       233  QMPE      HS             21.5537364545        3.1289504774      -18.3097968609  MEMB      233             0.0000000000
     28967       233  QMPE      O21            23.4274959140        3.4312800891      -17.2911469329  MEMB      233             0.0000000000
     28968       233  QMPE      C21            23.1437074502        4.6738000797      -17.0208799391  MEMB      233             0.0000000000
     28969       233  QMPE      O22            22.0525424431        5.1762164467      -17.0953552408  MEMB      233             0.0000000000
     28970       233  QMPE      C22            24.4299265091        5.4042920716      -16.5970645294  MEMB      233             0.0000000000
     28971       233  QMPE      H2R            24.3697778677        6.4014890873      -17.0801447199  MEMB      233             0.0000000000
     28972       233  QMPE      H2S            25.3521605457        4.9071853143      -16.8931596712  MEMB      233             0.0000000000
     28973       233  QMPE      C3             21.6048453283        2.0935163281      -16.4755781909  MEMB      233             0.0000000000
     28974       233  QMPE      HX             20.8262651300        1.3842836563      -16.8997622047  MEMB      233             0.0000000000
     28975       233  QMPE      HY             21.0856177325        2.9840496765      -16.0697136939  MEMB      233             0.0000000000
     28976       233  QMPE      O31            22.6224376418        1.5361164941      -15.5583668159  MEMB      233             0.0000000000
     28977       233  QMPE      C31            22.0216203415        0.5954798187      -14.9022184715  MEMB      233             0.0000000000
     28978       233  QMPE      O32            20.8202491419        0.4642805565      -15.0816940974  MEMB      233             0.0000000000
     28979       233  QMPE      C32            23.0941458915       -0.0420939925      -13.9550265499  MEMB      233             0.0000000000
     28980       233  QMPE      H2X            23.0407165227       -1.0955076024      -13.9611850642  MEMB      233             0.0000000000
     28981       233  QMPE      H2Y            24.1100386709        0.2170742321      -14.3010747633  MEMB      233             0.0000000000
     28982       233  QMPE      C23            24.5859976614        5.5480666203      -15.0881959776  MEMB      233             0.0000000000
     28983       233  QMPE      H3R            23.6331481590        5.8180260162      -14.9154750007  MEMB      233             0.0000000000
     28984       233  QMPE      H3S            25.2669386829        6.3302372632      -14.7239972868  MEMB      233             0.0000000000
     28985       233  QMPE      C24            24.6508066035        4.2843891558      -14.2670423670  MEMB      233             0.0000000000
     28986       233  QMPE      H4R            25.7355739544        4.1445780554      -14.1829168560  MEMB      233             0.0000000000
     28987       233  QMPE      H4S            24.1095791964        3.4817360238      -14.8179241065  MEMB      233             0.0000000000
     28988       233  QMPE      C25            24.0709674576        4.2426511656      -12.8443202962  MEMB      233             0.0000000000
     28989       233  QMPE      H5R            24.1942785342        3.2430797007      -12.4524503306  MEMB      233             0.0000000000
     28990       233  QMPE      H5S            22.9993465966        4.1145111623      -12.7501534403  MEMB      233             0.0000000000
     28991       233  QMPE      C26            24.5242950017        5.2698035449      -11.8137087022  MEMB      233             0.0000000000
     28992       233  QMPE      H6R            24.4137663317        6.2962086246      -12.2482683726  MEMB      233             0.0000000000
     28993       233  QMPE      H6S            25.5821218065        5.2855032534      -11.6605465328  MEMB      233             0.0000000000
     28994       233  QMPE      C27            23.7913316243        4.9342808854      -10.4656436583  MEMB      233             0.0000000000
     28995       233  QMPE      H7R            24.2603075918        4.0260570787      -10.0798402439  MEMB      233             0.0000000000
     28996       233  QMPE      H7S            22.7164007073        4.6735907433      -10.6443379020  MEMB      233             0.0000000000
     28997       233  QMPE      C28            23.8574476875        5.9366504712       -9.3196333106  MEMB      233             0.0000000000
     28998       233  QMPE      H8R            23.1935294011        6.7075694925       -9.6089546935  MEMB      233             0.0000000000
     28999       233  QMPE      H8S            24.8646717671        6.3587268004       -9.1753287948  MEMB      233             0.0000000000
     29000       233  QMPE      C29            23.2022433346        5.3894187965       -8.0493969532  MEMB      233             0.0000000000
     29001       233  QMPE      H9R            23.3641165073        4.3684458889       -7.8381582657  MEMB      233             0.0000000000
     29002       233  QMPE      C217           21.7532972789        5.8512916476       -7.9535962645  MEMB      233             0.0000000000
     29003       233  QMPE      H17R           21.5325604220        6.4912350533       -8.7500086301  MEMB      233             0.0000000000
     29004       233  QMPE      H17S           21.0057564599        5.2300995456       -7.5407769476  MEMB      233             0.0000000000
     29005       233  QMPE      C210           22.8143156221        6.1585347235       -6.8834520360  MEMB      233             0.0000000000
     29006       233  QMPE      H10R           22.3991317216        5.8326036389       -5.9175189991  MEMB      233             0.0000000000
     29007       233  QMPE      C211           23.3769617457        7.4199035887       -6.8774014201  MEMB      233             0.0000000000
     29008       233  QMPE      H11R           23.4679209606        7.7301310163       -7.9158675029  MEMB      233             0.0000000000
     29009       233  QMPE      H11S           22.3995061505        7.6065415583       -6.3418529535  MEMB      233             0.0000000000
     29010       233  QMPE      C212           24.6036648024        8.0902873482       -6.3656056574  MEMB      233             0.0000000000
     29011       233  QMPE      H12R           24.7360586980        9.2039678418       -6.6258861624  MEMB      233             0.0000000000
     29012       233  QMPE      H12S           25.1508808082        7.4554515773       -7.0526932425  MEMB      233             0.0000000000
     29013       233  QMPE      C213           24.5871049870        7.9034638398       -4.8575647674  MEMB      233             0.0000000000
     29014       233  QMPE      H13R           25.6247756717        8.0539894035       -4.6449514280  MEMB      233             0.0000000000
     29015       233  QMPE      H13S           24.2855140679        6.8882970312       -4.5965603180  MEMB      233             0.0000000000
     29016       233  QMPE      C214           23.8166179061        8.8855246945       -3.9644429651  MEMB      233             0.0000000000
     29017       233  QMPE      H14R           22.7004822641        8.6524724028       -4.0114127569  MEMB      233             0.0000000000
     29018       233  QMPE      H14S           24.0539025356        9.8710079018       -4.4743488717  MEMB      233             0.0000000000
     29019       233  QMPE      C215           24.1449942118        9.2149825797       -2.5620117672  MEMB      233             0.0000000000
     29020       233  QMPE      H15R           24.1630585211        8.1871343996       -2.1831554354  MEMB      233             0.0000000000
     29021       233  QMPE      H15S           23.3360258888        9.7738487184       -2.0194764938  MEMB      233             0.0000000000
     29022       233  QMPE      C216           25.4339305233        9.9808135852       -2.5920537673  MEMB      233             0.0000000000
     29023       233  QMPE      H16R           25.7656814872       10.0080828209       -1.6356830042  MEMB      233             0.0000000000
     29024       233  QMPE      H16S           25.3719157819       11.0545140753       -2.7827053357  MEMB      233             0.0000000000
     29025       233  QMPE      H16T           26.1986083029        9.5236912843       -3.2352362510  MEMB      233             0.0000000000
     29026       233  QMPE      C33            22.9907109578        0.3295035671      -12.4787239747  MEMB      233             0.0000000000
     29027       233  QMPE      H3X            22.2226687249       -0.2278515715      -12.0221842674  MEMB      233             0.0000000000
     29028       233  QMPE      H3Y            22.6519105448        1.3480416423      -12.4094405571  MEMB      233             0.0000000000
     29029       233  QMPE      C34            24.1754744746        0.2452872867      -11.5513567332  MEMB      233             0.0000000000
     29030       233  QMPE      H4X            25.0024724917        0.8955950666      -11.6796255257  MEMB      233             0.0000000000
     29031       233  QMPE      H4Y            24.7141020221       -0.6766658068      -11.5688105002  MEMB      233             0.0000000000
     29032       233  QMPE      C35            23.8720661789        0.2826338693      -10.0843738801  MEMB      233             0.0000000000
     29033       233  QMPE      H5X            22.9476026288       -0.3152627597       -9.7873569673  MEMB      233             0.0000000000
     29034       233  QMPE      H5Y            23.6450941350        1.1497722841       -9.5830299694  MEMB      233             0.0000000000
     29035       233  QMPE      C36            25.1084979048       -0.2792689049       -9.4989575136  MEMB      233             0.0000000000
     29036       233  QMPE      H6X            25.4839222605       -1.2689436541       -9.9019502825  MEMB      233             0.0000000000
     29037       233  QMPE      H6Y            24.6020468515       -0.3405775540       -8.4750216500  MEMB      233             0.0000000000
     29038       233  QMPE      C37            26.4459560274        0.3612849687       -9.3727284657  MEMB      233             0.0000000000
     29039       233  QMPE      H7X            26.9822460939        0.3161772401      -10.3355366011  MEMB      233             0.0000000000
     29040       233  QMPE      H7Y            26.0619180526        1.3292765507       -9.0533023011  MEMB      233             0.0000000000
     29041       233  QMPE      C38            27.4442129541        0.0216390297       -8.2511816573  MEMB      233             0.0000000000
     29042       233  QMPE      H8X            28.0001715259       -0.9411257224       -8.4143794229  MEMB      233             0.0000000000
     29043       233  QMPE      H8Y            28.1607964398        0.8679111859       -8.2532516661  MEMB      233             0.0000000000
     29044       233  QMPE      C39            26.7461698195        0.0879324616       -6.9038526036  MEMB      233             0.0000000000
     29045       233  QMPE      H9X            26.5481004341       -0.8960353278       -6.7422719188  MEMB      233             0.0000000000
     29046       233  QMPE      H9Y            25.8347474799        0.6546852937       -6.8059764683  MEMB      233             0.0000000000
     29047       233  QMPE      C310           27.4354168097        0.4517293913       -5.6881117334  MEMB      233             0.0000000000
     29048       233  QMPE      H10X           28.0307689936        1.3761411368       -5.8879387941  MEMB      233             0.0000000000
     29049       233  QMPE      H10Y           28.0397052259       -0.4244570662       -5.5218935557  MEMB      233             0.0000000000
     29050       233  QMPE      C311           26.7052784389        0.4577360457       -4.3288847704  MEMB      233             0.0000000000
     29051       233  QMPE      H11X           27.2998259816        0.0485284622       -3.4582501374  MEMB      233             0.0000000000
     29052       233  QMPE      H11Y           25.9214671357       -0.2697221930       -4.3116611905  MEMB      233             0.0000000000
     29053       233  QMPE      C312           26.2852265657        1.8838112265       -4.0697267029  MEMB      233             0.0000000000
     29054       233  QMPE      H12X           25.3753456377        1.9827883059       -4.6898307394  MEMB      233             0.0000000000
     29055       233  QMPE      H12Y           27.0086966918        2.6195059430       -4.5010601424  MEMB      233             0.0000000000
     29056       233  QMPE      C313           25.9229303607        2.1946347551       -2.6207955406  MEMB      233             0.0000000000
     29057       233  QMPE      H13X           26.2343181933        1.3665328373       -1.9366872013  MEMB      233             0.0000000000
     29058       233  QMPE      H13Y           26.5094621015        3.0952766353       -2.3448010754  MEMB      233             0.0000000000
     29059       233  QMPE      C314           24.4433669726        2.5842752311       -2.5399868621  MEMB      233             0.0000000000
     29060       233  QMPE      H14X           23.8396644550        1.7427606170       -2.9576035165  MEMB      233             0.0000000000
     29061       233  QMPE      H14Y           24.2755677829        3.4879042413       -3.1749549572  MEMB      233             0.0000000000
     29062       233  QMPE      C315           23.9726347203        2.9179056085       -1.1432507488  MEMB      233             0.0000000000
     29063       233  QMPE      H15X           24.5205141519        3.7057782907       -0.6564505659  MEMB      233             0.0000000000
     29064       233  QMPE      H15Y           22.9814533895        3.3844824106       -1.1687977085  MEMB      233             0.0000000000
     29065       233  QMPE      H15Z           23.9716548053        1.9910474342       -0.5292448978  MEMB      233             0.0000000000
     29066       234  PMPG      C13           -13.9007211275       23.4218525051      -18.6428132447  MEMB      234             0.0000000000
     29067       234  PMPG      H13A          -13.4983614731       23.4103131112      -17.6079455221  MEMB      234             0.0000000000
     29068       234  PMPG      H13B          -13.5679345381       24.3461299681      -19.1665332066  MEMB      234             0.0000000000
     29069       234  PMPG      OC3           -15.3301412941       23.4814360468      -18.5532882624  MEMB      234             0.0000000000
     29070       234  PMPG      HO3           -15.5927073625       22.9412221583      -17.8090840574  MEMB      234             0.0000000000
     29071       234  PMPG      C12           -13.2565010019       22.2203869351      -19.4266269330  MEMB      234             0.0000000000
     29072       234  PMPG      H12A          -12.1554529924       22.2515522792      -19.2286295680  MEMB      234             0.0000000000
     29073       234  PMPG      OC2           -13.4311799187       22.3270229993      -20.8432389664  MEMB      234             0.0000000000
     29074       234  PMPG      HO2           -13.1680210914       21.4667642706      -21.1768726724  MEMB      234             0.0000000000
     29075       234  PMPG      C11           -13.6985901701       20.8186215436      -19.0005379083  MEMB      234             0.0000000000
     29076       234  PMPG      H11A          -13.4604288714       20.6720907202      -17.9263843569  MEMB      234             0.0000000000
     29077       234  PMPG      H11B          -13.1176181568       20.0927875931      -19.6275897492  MEMB      234             0.0000000000
     29078       234  PMPG      P             -15.6008595861       19.2096757621      -18.7741484046  MEMB      234             0.0000000000
     29079       234  PMPG      O13           -14.8299866268       18.1751871621      -19.4896571283  MEMB      234             0.0000000000
     29080       234  PMPG      O14           -17.0665936022       19.1182354462      -18.9203190577  MEMB      234             0.0000000000
     29081       234  PMPG      O11           -15.2205209597       19.1001043133      -17.2357308254  MEMB      234             0.0000000000
     29082       234  PMPG      O12           -15.0913801482       20.6398712881      -19.2170705921  MEMB      234             0.0000000000
     29083       234  PMPG      C1            -15.5302391687       20.2184604420      -16.3869943976  MEMB      234             0.0000000000
     29084       234  PMPG      HA            -16.3791992823       19.9715070834      -15.7151647439  MEMB      234             0.0000000000
     29085       234  PMPG      HB            -15.7822811511       21.1718580902      -16.8935518542  MEMB      234             0.0000000000
     29086       234  PMPG      C2            -14.3914203646       20.5308809406      -15.4554464997  MEMB      234             0.0000000000
     29087       234  PMPG      HS            -13.4814769095       20.8906643011      -15.9891258977  MEMB      234             0.0000000000
     29088       234  PMPG      O21           -14.1548755572       19.3157637868      -14.8739568248  MEMB      234             0.0000000000
     29089       234  PMPG      C21           -13.1269202959       19.3708288287      -14.1543376030  MEMB      234             0.0000000000
     29090       234  PMPG      O22           -12.0792749744       19.9595665114      -14.3182609887  MEMB      234             0.0000000000
     29091       234  PMPG      C22           -13.4786055483       18.5608936335      -13.0929278939  MEMB      234             0.0000000000
     29092       234  PMPG      H2R           -13.2070751962       17.8238800276      -14.0093421899  MEMB      234             0.0000000000
     29093       234  PMPG      H2S           -14.3433319752       17.9426978707      -12.8332194247  MEMB      234             0.0000000000
     29094       234  PMPG      C3            -14.8043129018       21.5421092488      -14.3740892000  MEMB      234             0.0000000000
     29095       234  PMPG      HX            -14.9563918333       22.5565310277      -14.8053588036  MEMB      234             0.0000000000
     29096       234  PMPG      HY            -13.9525172483       21.5897183315      -13.6696172712  MEMB      234             0.0000000000
     29097       234  PMPG      O31           -15.9905066255       21.0790754796      -13.6982950167  MEMB      234             0.0000000000
     29098       234  PMPG      C31           -16.3694330743       21.9168174546      -12.7585295087  MEMB      234             0.0000000000
     29099       234  PMPG      O32           -15.7206883250       22.8557053967      -12.3393856143  MEMB      234             0.0000000000
     29100       234  PMPG      C32           -17.8440253649       21.7140419860      -12.5332642940  MEMB      234             0.0000000000
     29101       234  PMPG      H2X           -18.2275633874       20.8551838952      -13.1228582983  MEMB      234             0.0000000000
     29102       234  PMPG      H2Y           -18.3288067736       22.6674759639      -12.8228409349  MEMB      234             0.0000000000
     29103       234  PMPG      C23           -12.4714346228       18.8205901356      -11.8537401586  MEMB      234             0.0000000000
     29104       234  PMPG      H3R           -11.4522013990       19.0598761798      -12.2251684029  MEMB      234             0.0000000000
     29105       234  PMPG      H3S           -12.1967388616       17.9466226553      -11.2622879638  MEMB      234             0.0000000000
     29106       234  PMPG      C24           -12.9268642364       18.8994221911      -10.4249969788  MEMB      234             0.0000000000
     29107       234  PMPG      H4R           -12.1426484315       18.9386245808       -9.6442870534  MEMB      234             0.0000000000
     29108       234  PMPG      H4S           -13.4274327612       17.9623603004      -10.0527370634  MEMB      234             0.0000000000
     29109       234  PMPG      C25           -13.6715955928       20.1295102170      -10.6219447002  MEMB      234             0.0000000000
     29110       234  PMPG      H5R           -14.1512714510       20.3871617585       -9.6868150475  MEMB      234             0.0000000000
     29111       234  PMPG      H5S           -14.3628339933       19.9702876397      -11.4399654617  MEMB      234             0.0000000000
     29112       234  PMPG      C26           -12.7855233130       21.2322021944      -10.9741847145  MEMB      234             0.0000000000
     29113       234  PMPG      H6R           -13.2449980146       22.1958891515      -11.2962221385  MEMB      234             0.0000000000
     29114       234  PMPG      H6S           -12.1739997137       20.9927460767      -11.8962051647  MEMB      234             0.0000000000
     29115       234  PMPG      C27           -12.0370491312       21.1610299154       -9.6510543049  MEMB      234             0.0000000000
     29116       234  PMPG      H7R           -11.8042852399       22.0007783985      -10.2368640494  MEMB      234             0.0000000000
     29117       234  PMPG      H7S           -11.1701095677       20.3749479759       -9.5360794187  MEMB      234             0.0000000000
     29118       234  PMPG      C28           -12.0898396624       21.7723806176       -8.3648513338  MEMB      234             0.0000000000
     29119       234  PMPG      H8R           -11.1124501201       22.1372009970       -7.9527496425  MEMB      234             0.0000000000
     29120       234  PMPG      H8S           -12.3586051519       20.7659092122       -7.9968216236  MEMB      234             0.0000000000
     29121       234  PMPG      C29           -13.0957879591       22.7975724593       -8.3710468537  MEMB      234             0.0000000000
     29122       234  PMPG      H9R           -13.2956240703       23.4868893985       -9.1938241347  MEMB      234             0.0000000000
     29123       234  PMPG      C217          -14.3141901677       22.4061891724       -7.6057846012  MEMB      234             0.0000000000
     29124       234  PMPG      H17R          -15.1637926303       22.9459000028       -7.9737858791  MEMB      234             0.0000000000
     29125       234  PMPG      H17S          -14.2549513053       21.3204738703       -7.5787193789  MEMB      234             0.0000000000
     29126       234  PMPG      C210          -13.2256480033       23.3561244389       -7.0541780185  MEMB      234             0.0000000000
     29127       234  PMPG      H10R          -13.4934741368       24.4031957815       -7.0542262072  MEMB      234             0.0000000000
     29128       234  PMPG      C211          -12.4256772651       22.8662236711       -5.9199680803  MEMB      234             0.0000000000
     29129       234  PMPG      H11R          -11.8641442944       21.9328273055       -6.0162781671  MEMB      234             0.0000000000
     29130       234  PMPG      H11S          -11.7542607618       23.6260328553       -5.5054635975  MEMB      234             0.0000000000
     29131       234  PMPG      C212          -13.4911509247       22.4606191680       -5.1270621378  MEMB      234             0.0000000000
     29132       234  PMPG      H12R          -13.2167048705       21.7910586071       -4.4480398976  MEMB      234             0.0000000000
     29133       234  PMPG      H12S          -14.1066866273       21.7044359289       -5.4214917674  MEMB      234             0.0000000000
     29134       234  PMPG      C213          -14.1933698920       23.3103448539       -4.4219487379  MEMB      234             0.0000000000
     29135       234  PMPG      H13R          -14.8319458291       23.8096073571       -4.9100610268  MEMB      234             0.0000000000
     29136       234  PMPG      H13S          -13.6737557974       23.9022505368       -3.6569907406  MEMB      234             0.0000000000
     29137       234  PMPG      C214          -15.3157644118       22.2897539270       -3.8516837154  MEMB      234             0.0000000000
     29138       234  PMPG      H14R          -16.2961670684       22.1073811986       -4.1137884853  MEMB      234             0.0000000000
     29139       234  PMPG      H14S          -16.3964408163       22.8190877206       -4.0398195045  MEMB      234             0.0000000000
     29140       234  PMPG      C215          -15.0241023983       21.9270230344       -2.0395182567  MEMB      234             0.0000000000
     29141       234  PMPG      H15R          -14.2769046804       22.7374067516       -1.5088359757  MEMB      234             0.0000000000
     29142       234  PMPG      H15S          -14.6002556203       21.1803377002       -2.5429363545  MEMB      234             0.0000000000
     29143       234  PMPG      C216          -16.0972133506       21.6797612192       -0.8817811524  MEMB      234             0.0000000000
     29144       234  PMPG      H16R          -15.5745604746       21.9324586076        0.0662537915  MEMB      234             0.0000000000
     29145       234  PMPG      H16S          -16.4519397622       20.7669493620       -1.3281593702  MEMB      234             0.0000000000
     29146       234  PMPG      H16T          -17.0579584416       22.2680578853       -0.8609626382  MEMB      234             0.0000000000
     29147       234  PMPG      C33           -18.1555284872       21.5370295743      -11.0674808122  MEMB      234             0.0000000000
     29148       234  PMPG      H3X           -19.2358593833       21.7200621871      -10.9098708452  MEMB      234             0.0000000000
     29149       234  PMPG      H3Y           -17.5951192943       22.2961690227      -10.4811619435  MEMB      234             0.0000000000
     29150       234  PMPG      C34           -17.8524423723       20.1157719970      -10.6320086953  MEMB      234             0.0000000000
     29151       234  PMPG      H4X           -16.7569956345       19.9981217616      -10.7625539340  MEMB      234             0.0000000000
     29152       234  PMPG      H4Y           -18.3669981100       19.4308443016      -11.3588652616  MEMB      234             0.0000000000
     29153       234  PMPG      C35           -18.2765470573       19.9573559412       -9.1644186309  MEMB      234             0.0000000000
     29154       234  PMPG      H5X           -19.3759826841       20.0385393499       -9.1301260053  MEMB      234             0.0000000000
     29155       234  PMPG      H5Y           -17.8755423883       20.7846020089       -8.5335056407  MEMB      234             0.0000000000
     29156       234  PMPG      C36           -17.8993705291       18.6679812313       -8.4807280713  MEMB      234             0.0000000000
     29157       234  PMPG      H6X           -17.9971574254       17.7882278903       -9.1333367133  MEMB      234             0.0000000000
     29158       234  PMPG      H6Y           -18.5776348507       18.5108938502       -7.6144930143  MEMB      234             0.0000000000
     29159       234  PMPG      C37           -16.5570626971       18.7021127640       -7.9251393872  MEMB      234             0.0000000000
     29160       234  PMPG      H7X           -16.4656337395       19.5185254742       -7.1418682259  MEMB      234             0.0000000000
     29161       234  PMPG      H7Y           -15.7511560605       18.8426274880       -8.6970886637  MEMB      234             0.0000000000
     29162       234  PMPG      C38           -16.4196263952       17.3877688645       -7.1948694998  MEMB      234             0.0000000000
     29163       234  PMPG      H8X           -16.5537428865       16.5161967288       -7.8221973419  MEMB      234             0.0000000000
     29164       234  PMPG      H8Y           -16.8319680326       17.2853728181       -6.1783058216  MEMB      234             0.0000000000
     29165       234  PMPG      C39           -15.1777915740       17.0437763385       -6.9623500227  MEMB      234             0.0000000000
     29166       234  PMPG      H9X           -14.5889569548       17.4434326003       -7.7740668059  MEMB      234             0.0000000000
     29167       234  PMPG      H9Y           -15.0717129511       15.9815334186       -6.7944567942  MEMB      234             0.0000000000
     29168       234  PMPG      C310          -14.8142170652       17.6688843632       -5.8575610446  MEMB      234             0.0000000000
     29169       234  PMPG      H10X          -15.4307791769       17.7566658636       -4.9850245419  MEMB      234             0.0000000000
     29170       234  PMPG      H10Y          -14.9241062713       18.7051253857       -6.6382682742  MEMB      234             0.0000000000
     29171       234  PMPG      C311          -13.1158401363       17.6811908060       -4.9811164877  MEMB      234             0.0000000000
     29172       234  PMPG      H11X          -12.1986735631       18.5082814387       -5.2234446751  MEMB      234             0.0000000000
     29173       234  PMPG      H11Y          -12.7192739325       16.8785805509       -4.8112400960  MEMB      234             0.0000000000
     29174       234  PMPG      C312          -12.0568318321       19.1876145912       -4.2566009936  MEMB      234             0.0000000000
     29175       234  PMPG      H12X          -13.6597963436       18.2891914854       -4.1390379035  MEMB      234             0.0000000000
     29176       234  PMPG      H12Y          -12.5161862583       20.1078126409       -3.9260634078  MEMB      234             0.0000000000
     29177       234  PMPG      C313          -10.7395778277       19.0058877040       -3.0806951485  MEMB      234             0.0000000000
     29178       234  PMPG      H13X          -10.4191482363       19.1598785760       -3.9709830449  MEMB      234             0.0000000000
     29179       234  PMPG      H13Y          -10.2878350859       17.9445781274       -2.9426638131  MEMB      234             0.0000000000
     29180       234  PMPG      C314          -10.6071782772       18.8074223088       -1.5535958190  MEMB      234             0.0000000000
     29181       234  PMPG      H14X          -11.0749384935       19.7174840001       -1.7137069892  MEMB      234             0.0000000000
     29182       234  PMPG      H14Y           -9.6306922130       19.0210360039       -1.3560696424  MEMB      234             0.0000000000
     29183       234  PMPG      C315          -11.5937011410       17.9048937744       -0.5547543074  MEMB      234             0.0000000000
     29184       234  PMPG      H15X          -11.9804388286       17.0492909473       -1.0120875878  MEMB      234             0.0000000000
     29185       234  PMPG      H15Y          -12.7456700395       18.1472415334       -0.3122996026  MEMB      234             0.0000000000
     29186       234  PMPG      C316          -11.1284300167       17.7795048290        0.7442447745  MEMB      234             0.0000000000
     29187       234  PMPG      H16X          -11.0323441949       18.6346101530        1.2949246450  MEMB      234             0.0000000000
     29188       234  PMPG      H16Y          -10.1248768369       17.5075303942        0.5330981557  MEMB      234             0.0000000000
     29189       234  PMPG      H16Z          -12.0408710712       17.3035807837        1.1381289663  MEMB      234             0.0000000000
     29190       235  PMPE      N              10.9163554046      -21.4266627163      -19.1882525318  MEMB      235             0.0000000000
     29191       235  PMPE      HN1            11.2309135520      -21.9188553031      -18.3260305587  MEMB      235             0.0000000000
     29192       235  PMPE      HN2            10.0296995212      -20.9089448932      -18.9944479208  MEMB      235             0.0000000000
     29193       235  PMPE      HN3            10.7932934344      -22.1506846584      -19.9172868164  MEMB      235             0.0000000000
     29194       235  PMPE      C12            11.9599357685      -20.4286342556      -19.6065248961  MEMB      235             0.0000000000
     29195       235  PMPE      H12A           12.0524766430      -19.6869074089      -18.7820439611  MEMB      235             0.0000000000
     29196       235  PMPE      H12B           11.5751869524      -19.8838872674      -20.4990427061  MEMB      235             0.0000000000
     29197       235  PMPE      C11            13.3268100184      -21.0866875398      -19.9268475490  MEMB      235             0.0000000000
     29198       235  PMPE      H11A           13.9681020358      -20.1882379143      -20.0411173853  MEMB      235             0.0000000000
     29199       235  PMPE      H11B           13.3434711566      -21.6061553898      -20.9069832298  MEMB      235             0.0000000000
     29200       235  PMPE      P              15.3600263537      -22.2686107485      -18.6777645327  MEMB      235             0.0000000000
     29201       235  PMPE      O13            16.0647604302      -22.4729126412      -19.9648686662  MEMB      235             0.0000000000
     29202       235  PMPE      O14            15.4887698230      -23.3657621787      -17.6910981202  MEMB      235             0.0000000000
     29203       235  PMPE      O11            15.8574958447      -20.8739977509      -18.0762529107  MEMB      235             0.0000000000
     29204       235  PMPE      O12            13.7953477623      -21.9941803764      -18.9278638329  MEMB      235             0.0000000000
     29205       235  PMPE      C1             15.0827841859      -20.0526055827      -17.2064679115  MEMB      235             0.0000000000
     29206       235  PMPE      HA             14.0062192147      -20.2588275382      -17.3129683667  MEMB      235             0.0000000000
     29207       235  PMPE      HB             15.2106693370      -18.9634963208      -17.4249000123  MEMB      235             0.0000000000
     29208       235  PMPE      C2             15.5321159214      -20.1174838269      -15.7374901423  MEMB      235             0.0000000000
     29209       235  PMPE      HS             16.3937239228      -19.4097422324      -15.6910305032  MEMB      235             0.0000000000
     29210       235  PMPE      O21            15.9448560959      -21.4049715316      -15.3351710579  MEMB      235             0.0000000000
     29211       235  PMPE      C21            17.2018178605      -21.6112525201      -15.5726898808  MEMB      235             0.0000000000
     29212       235  PMPE      O22            18.1636470447      -20.8863246214      -15.6459992157  MEMB      235             0.0000000000
     29213       235  PMPE      C22            17.4080044433      -22.8465906627      -15.3959512449  MEMB      235             0.0000000000
     29214       235  PMPE      H2R            17.7358570063      -23.6855861601      -15.8470528091  MEMB      235             0.0000000000
     29215       235  PMPE      H2S            16.4489846653      -23.5435011621      -15.3168831709  MEMB      235             0.0000000000
     29216       235  PMPE      C3             14.3870479926      -19.6287170620      -14.8175691406  MEMB      235             0.0000000000
     29217       235  PMPE      HX             13.4122235002      -20.1280222390      -14.9743001061  MEMB      235             0.0000000000
     29218       235  PMPE      HY             14.2076236650      -18.5593089774      -15.0779037564  MEMB      235             0.0000000000
     29219       235  PMPE      O31            14.7487492101      -19.8393827559      -13.4565939167  MEMB      235             0.0000000000
     29220       235  PMPE      C31            15.6555907688      -19.0105625101      -13.1174942295  MEMB      235             0.0000000000
     29221       235  PMPE      O32            16.0015852471      -17.9687675406      -13.6544095675  MEMB      235             0.0000000000
     29222       235  PMPE      C32            16.2477153509      -19.5021876766      -11.9394908188  MEMB      235             0.0000000000
     29223       235  PMPE      H2X            17.3875807658      -19.4996432117      -12.0978456732  MEMB      235             0.0000000000
     29224       235  PMPE      H2Y            15.7998916231      -20.3864298645      -11.4401357647  MEMB      235             0.0000000000
     29225       235  PMPE      C23            18.2858490948      -22.4412238711      -13.8835061483  MEMB      235             0.0000000000
     29226       235  PMPE      H3R            18.1707165248      -21.7718492091      -13.5157514038  MEMB      235             0.0000000000
     29227       235  PMPE      H3S            19.1843178457      -23.3790970127      -13.2274430718  MEMB      235             0.0000000000
     29228       235  PMPE      C24            16.2881565227      -23.1285582251      -11.9750558860  MEMB      235             0.0000000000
     29229       235  PMPE      H4R            15.8822084537      -22.2399772278      -12.3708168269  MEMB      235             0.0000000000
     29230       235  PMPE      H4S            16.9376299614      -23.5649218543      -11.2428596571  MEMB      235             0.0000000000
     29231       235  PMPE      C25            15.4180495411      -24.5637239899      -12.2138593346  MEMB      235             0.0000000000
     29232       235  PMPE      H5R            16.0429957878      -25.5779773159      -12.3455213094  MEMB      235             0.0000000000
     29233       235  PMPE      H5S            15.0011854213      -24.3152126045      -13.2133382747  MEMB      235             0.0000000000
     29234       235  PMPE      C26            14.6953049352      -24.5983947778      -11.0242197622  MEMB      235             0.0000000000
     29235       235  PMPE      H6R            15.3426064683      -24.8208950099      -10.1563489245  MEMB      235             0.0000000000
     29236       235  PMPE      H6S            13.9813409771      -25.3981733072      -11.1920106317  MEMB      235             0.0000000000
     29237       235  PMPE      C27            14.1043194842      -23.2101225414      -10.8695925325  MEMB      235             0.0000000000
     29238       235  PMPE      H7R            13.5786427230      -22.9695460327      -11.8175115283  MEMB      235             0.0000000000
     29239       235  PMPE      H7S            14.7910092245      -22.3614870592      -10.6692878759  MEMB      235             0.0000000000
     29240       235  PMPE      C28            13.3050076734      -23.1110125592       -9.5921176076  MEMB      235             0.0000000000
     29241       235  PMPE      H8R            13.1906661094      -22.0463367606       -9.3107907562  MEMB      235             0.0000000000
     29242       235  PMPE      H8S            13.9060028994      -23.6025436628       -8.7985634635  MEMB      235             0.0000000000
     29243       235  PMPE      C29            11.9921402337      -23.8481133318       -9.7737570853  MEMB      235             0.0000000000
     29244       235  PMPE      H9R            12.0922829622      -24.8891503402      -10.1175136396  MEMB      235             0.0000000000
     29245       235  PMPE      C217           11.0310977138      -22.9349483751      -10.5367204677  MEMB      235             0.0000000000
     29246       235  PMPE      H17R           10.4869518306      -23.4504404580      -11.3142370319  MEMB      235             0.0000000000
     29247       235  PMPE      H17S           11.3301703457      -21.8957176749      -10.5083021466  MEMB      235             0.0000000000
     29248       235  PMPE      C210           10.6443119002      -23.4609037943       -9.1793602405  MEMB      235             0.0000000000
     29249       235  PMPE      H10R            9.8343238714      -24.2119632126       -9.2761142103  MEMB      235             0.0000000000
     29250       235  PMPE      C211           10.6199037641      -22.5124008911       -7.9765593691  MEMB      235             0.0000000000
     29251       235  PMPE      H11R            9.5893778040      -22.1630546437       -7.7539651024  MEMB      235             0.0000000000
     29252       235  PMPE      H11S           11.2398396589      -21.6119712781       -8.1297903320  MEMB      235             0.0000000000
     29253       235  PMPE      C212           11.2241503823      -23.1886926225       -6.7561071860  MEMB      235             0.0000000000
     29254       235  PMPE      H12R           12.1990913654      -23.6897035011       -7.0366431981  MEMB      235             0.0000000000
     29255       235  PMPE      H12S           10.5141120387      -23.9837432279       -6.3968751472  MEMB      235             0.0000000000
     29256       235  PMPE      C213           11.3129204463      -22.3840727210       -5.5129126959  MEMB      235             0.0000000000
     29257       235  PMPE      H13R           10.2808815772      -22.0547822880       -5.2443869664  MEMB      235             0.0000000000
     29258       235  PMPE      H13S           11.9730924626      -21.5125522531       -5.6645997939  MEMB      235             0.0000000000
     29259       235  PMPE      C214           11.9674304143      -23.2542459717       -4.4463772476  MEMB      235             0.0000000000
     29260       235  PMPE      H14R           12.9848727578      -23.5145652717       -4.8185059655  MEMB      235             0.0000000000
     29261       235  PMPE      H14S           11.4044404433      -24.1834516584       -4.2649872637  MEMB      235             0.0000000000
     29262       235  PMPE      C215           12.1182270629      -22.5426415524       -3.1155956529  MEMB      235             0.0000000000
     29263       235  PMPE      H15R           11.1160479394      -22.3262478552       -2.6930856221  MEMB      235             0.0000000000
     29264       235  PMPE      H15S           12.5682606360      -21.5434359660       -3.2855502665  MEMB      235             0.0000000000
     29265       235  PMPE      C216           12.9958765299      -23.2771448617       -2.0985156071  MEMB      235             0.0000000000
     29266       235  PMPE      H16R           12.7385494765      -22.8811907131       -1.0954931484  MEMB      235             0.0000000000
     29267       235  PMPE      H16S           12.8449254437      -24.3740608513       -2.0525431083  MEMB      235             0.0000000000
     29268       235  PMPE      H16T           14.0717024540      -23.0970772652       -2.3265608557  MEMB      235             0.0000000000
     29269       235  PMPE      C33            15.9899570359      -18.6494294504      -11.0138206620  MEMB      235             0.0000000000
     29270       235  PMPE      H3X            15.0695415445      -18.0980574251      -10.9921877751  MEMB      235             0.0000000000
     29271       235  PMPE      H3Y            16.8128633100      -17.8716578723      -11.6632818285  MEMB      235             0.0000000000
     29272       235  PMPE      C34            16.2467573337      -19.1416300734       -9.3995843440  MEMB      235             0.0000000000
     29273       235  PMPE      H4X            16.0928565289      -18.5256253730       -8.4935458911  MEMB      235             0.0000000000
     29274       235  PMPE      H4Y            17.3362508598      -18.9333719886       -9.0528882867  MEMB      235             0.0000000000
     29275       235  PMPE      C35            15.5626949242      -20.2839411011       -8.9665506666  MEMB      235             0.0000000000
     29276       235  PMPE      H5X            16.1297622197      -20.9338291224       -9.5423563556  MEMB      235             0.0000000000
     29277       235  PMPE      H5Y            14.5971029686      -20.3348816799       -9.3271783119  MEMB      235             0.0000000000
     29278       235  PMPE      C36            15.4295741848      -20.4423588852       -7.5248595527  MEMB      235             0.0000000000
     29279       235  PMPE      H6X            15.2280381095      -21.4677896067       -7.1859066732  MEMB      235             0.0000000000
     29280       235  PMPE      H6Y            14.9200724207      -19.6445000693       -7.0046276720  MEMB      235             0.0000000000
     29281       235  PMPE      C37            16.5573237231      -20.1641559019       -7.0108092083  MEMB      235             0.0000000000
     29282       235  PMPE      H7X            17.1540704192      -19.1028464901       -7.2133183553  MEMB      235             0.0000000000
     29283       235  PMPE      H7Y            17.4098980167      -20.1275687209       -7.9238983275  MEMB      235             0.0000000000
     29284       235  PMPE      C38            16.9326178962      -20.9617177446       -5.0180985342  MEMB      235             0.0000000000
     29285       235  PMPE      H8X            18.0650415014      -20.6110263047       -4.4856018859  MEMB      235             0.0000000000
     29286       235  PMPE      H8Y            17.1645537720      -21.9909511842       -4.9049912897  MEMB      235             0.0000000000
     29287       235  PMPE      C39            16.1243126302      -20.2486505627       -4.2170289704  MEMB      235             0.0000000000
     29288       235  PMPE      H9X            15.3297169283      -20.6832006708       -4.8215828379  MEMB      235             0.0000000000
     29289       235  PMPE      H9Y            16.2041570573      -19.1663418256       -4.4516778388  MEMB      235             0.0000000000
     29290       235  PMPE      C310           16.2545198078      -20.5949900106       -2.8201532193  MEMB      235             0.0000000000
     29291       235  PMPE      H10X           17.2828504642      -20.4320559065       -2.4198251024  MEMB      235             0.0000000000
     29292       235  PMPE      H10Y           16.0170967594      -21.6791711596       -2.8111485456  MEMB      235             0.0000000000
     29293       235  PMPE      C311           15.2073380208      -19.7794255849       -2.1335061473  MEMB      235             0.0000000000
     29294       235  PMPE      H11X           15.3384240302      -20.1418027128       -1.1105629674  MEMB      235             0.0000000000
     29295       235  PMPE      H11Y           14.1582086570      -20.0161328330       -2.4159480743  MEMB      235             0.0000000000
     29296       235  PMPE      C312           15.3539475351      -18.2741664584       -2.2337773402  MEMB      235             0.0000000000
     29297       235  PMPE      H12X           15.2256412723      -17.8766247425       -3.2724509732  MEMB      235             0.0000000000
     29298       235  PMPE      H12Y           16.3516639853      -17.9498595385       -1.8567546573  MEMB      235             0.0000000000
     29299       235  PMPE      C313           14.2598285780      -17.7138885889       -1.3769633670  MEMB      235             0.0000000000
     29300       235  PMPE      H13X           13.9863474401      -18.1818005471       -0.4314265370  MEMB      235             0.0000000000
     29301       235  PMPE      H13Y           13.3147103399      -17.5900507807       -1.9629478877  MEMB      235             0.0000000000
     29302       235  PMPE      C314           14.6778999573      -16.4964436316       -0.7862251434  MEMB      235             0.0000000000
     29303       235  PMPE      H14X           13.6974798891      -15.9907080725       -0.3543004815  MEMB      235             0.0000000000
     29304       235  PMPE      H14Y           15.1759049308      -16.1124805586       -1.7937633187  MEMB      235             0.0000000000
     29305       235  PMPE      C315           15.8956287230      -15.9748890241       -0.2993345656  MEMB      235             0.0000000000
     29306       235  PMPE      H15X           15.8938178530      -14.9414769079        0.3436304945  MEMB      235             0.0000000000
     29307       235  PMPE      H15Y           16.7073028055      -16.0310652300       -0.9955950230  MEMB      235             0.0000000000
     29308       235  PMPE      C316           15.8044771559      -16.5884685331        0.5028233819  MEMB      235             0.0000000000
     29309       235  PMPE      H16X           15.9897575467      -17.6793213603        0.5136205617  MEMB      235             0.0000000000
     29310       235  PMPE      H16Y           14.8944158729      -16.3643168600        1.3267461132  MEMB      235             0.0000000000
     29311       235  PMPE      H16Z           17.0295303912      -15.9499268221        0.7299201649  MEMB      235             0.0000000000
     29312       236  PMPE      N              -8.6713954842      -25.7005651342      -19.3293814062  MEMB      236             0.0000000000
     29313       236  PMPE      HN1            -9.1376565926      -26.4517721473      -19.8585287731  MEMB      236             0.0000000000
     29314       236  PMPE      HN2            -7.6435745461      -25.8681933673      -19.2012715956  MEMB      236             0.0000000000
     29315       236  PMPE      HN3            -9.1519722838      -25.6458267479      -18.4135026706  MEMB      236             0.0000000000
     29316       236  PMPE      C12            -9.0002147405      -24.4566917273      -20.0985545993  MEMB      236             0.0000000000
     29317       236  PMPE      H12A           -8.4021670940      -24.5458646797      -21.0388895503  MEMB      236             0.0000000000
     29318       236  PMPE      H12B           -8.7048199975      -23.6069478096      -19.4449008492  MEMB      236             0.0000000000
     29319       236  PMPE      C11           -10.5235597922      -24.4205164939      -20.4161493038  MEMB      236             0.0000000000
     29320       236  PMPE      H11A          -10.7097500514      -25.2578801759      -21.1139542974  MEMB      236             0.0000000000
     29321       236  PMPE      H11B          -10.8633273816      -23.5107469738      -20.9776174910  MEMB      236             0.0000000000
     29322       236  PMPE      P             -11.9906990605      -23.5134206550      -18.4031993709  MEMB      236             0.0000000000
     29323       236  PMPE      O13           -12.5202588363      -24.0856689353      -17.1504080080  MEMB      236             0.0000000000
     29324       236  PMPE      O14           -12.9262246803      -22.7405831498      -19.2352141139  MEMB      236             0.0000000000
     29325       236  PMPE      O11           -10.6826490185      -22.6818706969      -18.1263618899  MEMB      236             0.0000000000
     29326       236  PMPE      O12           -11.3424368020      -24.6969702222      -19.2755668365  MEMB      236             0.0000000000
     29327       236  PMPE      C1            -10.6695682168      -21.4543704745      -17.4043924678  MEMB      236             0.0000000000
     29328       236  PMPE      HA            -11.5741575784      -20.8582557918      -17.6118737838  MEMB      236             0.0000000000
     29329       236  PMPE      HB             -9.8403298823      -20.8091412425      -17.7595149785  MEMB      236             0.0000000000
     29330       236  PMPE      C2            -10.3492148678      -21.6545973263      -15.9075145637  MEMB      236             0.0000000000
     29331       236  PMPE      HS             -9.3530911016      -22.1362926492      -15.8357642506  MEMB      236             0.0000000000
     29332       236  PMPE      O21           -11.3955633150      -22.4371986837      -15.3203529199  MEMB      236             0.0000000000
     29333       236  PMPE      C21           -11.0495325755      -23.2198123551      -14.3261048366  MEMB      236             0.0000000000
     29334       236  PMPE      O22            -9.9171256962      -23.3695695612      -13.8891332708  MEMB      236             0.0000000000
     29335       236  PMPE      C22           -12.3094077586      -23.7213654529      -13.6380611547  MEMB      236             0.0000000000
     29336       236  PMPE      H2R           -13.0838297270      -23.9940117153      -14.3888231258  MEMB      236             0.0000000000
     29337       236  PMPE      H2S           -12.6793541321      -22.8721613267      -13.0201729635  MEMB      236             0.0000000000
     29338       236  PMPE      C3            -10.2134536325      -20.2973688717      -15.2052792587  MEMB      236             0.0000000000
     29339       236  PMPE      HX            -11.2160840646      -20.0253380958      -15.0292343957  MEMB      236             0.0000000000
     29340       236  PMPE      HY             -9.7217893475      -19.5485712998      -15.8840100064  MEMB      236             0.0000000000
     29341       236  PMPE      O31            -9.5663593553      -20.3710542203      -13.9465144025  MEMB      236             0.0000000000
     29342       236  PMPE      C31           -10.2310578487      -20.2941395574      -12.7967057698  MEMB      236             0.0000000000
     29343       236  PMPE      O32           -11.4035337527      -20.2493828493      -12.5629168151  MEMB      236             0.0000000000
     29344       236  PMPE      C32            -9.3757093129      -20.5598617793      -11.6478378371  MEMB      236             0.0000000000
     29345       236  PMPE      H2X            -8.4425012990      -19.9884643836      -11.7195482928  MEMB      236             0.0000000000
     29346       236  PMPE      H2Y            -9.1760591353      -21.6393628530      -11.7300618088  MEMB      236             0.0000000000
     29347       236  PMPE      C23           -11.9162372454      -24.9432600164      -12.8095124954  MEMB      236             0.0000000000
     29348       236  PMPE      H3R           -11.3966508930      -24.7955904750      -11.8695826424  MEMB      236             0.0000000000
     29349       236  PMPE      H3S           -11.4961935540      -25.7747401599      -13.3962254631  MEMB      236             0.0000000000
     29350       236  PMPE      C24           -12.9822780809      -25.6389533749      -12.2644290076  MEMB      236             0.0000000000
     29351       236  PMPE      H4R           -13.3083032653      -26.0943591542      -13.1770743133  MEMB      236             0.0000000000
     29352       236  PMPE      H4S           -13.7060780265      -24.8057768883      -11.9276119440  MEMB      236             0.0000000000
     29353       236  PMPE      C25           -12.6618273837      -26.9180758988      -11.4047124598  MEMB      236             0.0000000000
     29354       236  PMPE      H5R           -12.3604554940      -27.7781447588      -11.9932711204  MEMB      236             0.0000000000
     29355       236  PMPE      H5S           -13.4228001921      -27.5026854581      -11.0164415351  MEMB      236             0.0000000000
     29356       236  PMPE      C26           -12.3444920711      -26.5854930600       -9.9650603727  MEMB      236             0.0000000000
     29357       236  PMPE      H6R           -12.4021159885      -25.4857745806       -9.9233323487  MEMB      236             0.0000000000
     29358       236  PMPE      H6S           -11.3198781955      -26.9540034279      -10.0020088949  MEMB      236             0.0000000000
     29359       236  PMPE      C27           -13.0383878822      -27.1566612015       -8.6943224932  MEMB      236             0.0000000000
     29360       236  PMPE      H7R           -12.8010449525      -28.2261646716       -8.6683395580  MEMB      236             0.0000000000
     29361       236  PMPE      H7S           -14.1359512568      -27.1579627801       -8.6329621114  MEMB      236             0.0000000000
     29362       236  PMPE      C28           -12.5225812452      -26.3625901528       -7.4760151726  MEMB      236             0.0000000000
     29363       236  PMPE      H8R           -12.9751004137      -26.6887328128       -6.5066312274  MEMB      236             0.0000000000
     29364       236  PMPE      H8S           -12.6767747710      -25.3037097865       -7.7015335394  MEMB      236             0.0000000000
     29365       236  PMPE      C29           -11.0658446399      -26.3524239327       -7.3785765859  MEMB      236             0.0000000000
     29366       236  PMPE      H9R           -10.4218139755      -26.0847843425       -8.2806738632  MEMB      236             0.0000000000
     29367       236  PMPE      C217          -10.9794449687      -27.7537665172       -7.3698434197  MEMB      236             0.0000000000
     29368       236  PMPE      H17R          -10.4358494036      -27.9645538337       -8.2212303749  MEMB      236             0.0000000000
     29369       236  PMPE      H17S          -11.3927814801      -28.5459964339       -6.8198787863  MEMB      236             0.0000000000
     29370       236  PMPE      C210          -10.4433220347      -27.0010215817       -6.1856552596  MEMB      236             0.0000000000
     29371       236  PMPE      H10R           -9.6077269878      -26.4279369426       -5.9691634712  MEMB      236             0.0000000000
     29372       236  PMPE      C211          -11.0323061123      -27.3380614955       -4.8548990258  MEMB      236             0.0000000000
     29373       236  PMPE      H11R          -10.3647263599      -28.0480868256       -4.3125281341  MEMB      236             0.0000000000
     29374       236  PMPE      H11S          -11.9601231931      -27.8596166378       -5.0899114555  MEMB      236             0.0000000000
     29375       236  PMPE      C212          -11.1418983367      -26.0524705639       -4.0343003715  MEMB      236             0.0000000000
     29376       236  PMPE      H12R          -11.9073920069      -25.4490606461       -4.5567007161  MEMB      236             0.0000000000
     29377       236  PMPE      H12S          -10.1749117435      -25.5021764704       -4.1020039283  MEMB      236             0.0000000000
     29378       236  PMPE      C213          -11.4272155313      -26.2123492314       -2.5503915037  MEMB      236             0.0000000000
     29379       236  PMPE      H13R          -11.7592576344      -25.2784214801       -2.0566886899  MEMB      236             0.0000000000
     29380       236  PMPE      H13S          -10.5894907065      -26.6727200257       -1.9816354156  MEMB      236             0.0000000000
     29381       236  PMPE      C214          -12.5522306488      -27.0069746778       -2.2255158359  MEMB      236             0.0000000000
     29382       236  PMPE      H14R          -12.3506499088      -28.0374293115       -2.4815011644  MEMB      236             0.0000000000
     29383       236  PMPE      H14S          -13.5067679277      -26.7040123426       -2.7390582711  MEMB      236             0.0000000000
     29384       236  PMPE      C215          -12.5722667763      -27.0105617707       -0.7710024221  MEMB      236             0.0000000000
     29385       236  PMPE      H15R          -12.7644045061      -26.0855810523       -0.2129078124  MEMB      236             0.0000000000
     29386       236  PMPE      H15S          -12.0004944622      -27.8457225878       -0.3445255904  MEMB      236             0.0000000000
     29387       236  PMPE      C216          -13.7154544793      -27.2055590856       -0.5832646283  MEMB      236             0.0000000000
     29388       236  PMPE      H16R          -14.5299121086      -26.8590808313       -1.2676301094  MEMB      236             0.0000000000
     29389       236  PMPE      H16S          -13.7928399567      -28.2627646188       -0.5276002672  MEMB      236             0.0000000000
     29390       236  PMPE      H16T          -14.0589003899      -27.2461648817        0.3402181986  MEMB      236             0.0000000000
     29391       236  PMPE      C33           -10.1766672699      -20.2941542766      -10.3427941025  MEMB      236             0.0000000000
     29392       236  PMPE      H3X           -10.8691619363      -19.4301398011      -10.3835984805  MEMB      236             0.0000000000
     29393       236  PMPE      H3Y            -9.3637751431      -20.1025741028       -9.6147978706  MEMB      236             0.0000000000
     29394       236  PMPE      C34           -11.0569798766      -21.4654757435       -9.8721115314  MEMB      236             0.0000000000
     29395       236  PMPE      H4X           -10.8621838800      -21.7912399739       -8.8319449753  MEMB      236             0.0000000000
     29396       236  PMPE      H4Y           -10.8782049587      -22.3325048888      -10.5364909501  MEMB      236             0.0000000000
     29397       236  PMPE      C35           -12.5786447089      -21.2901600019       -9.9803020215  MEMB      236             0.0000000000
     29398       236  PMPE      H5X           -12.9679056957      -22.2987865048       -9.7272547674  MEMB      236             0.0000000000
     29399       236  PMPE      H5Y           -12.9159668700      -21.1042404778      -11.0273080459  MEMB      236             0.0000000000
     29400       236  PMPE      C36           -13.2351828126      -20.3061863885       -9.0066275315  MEMB      236             0.0000000000
     29401       236  PMPE      H6X           -14.3145155302      -20.5711399722       -9.0757744973  MEMB      236             0.0000000000
     29402       236  PMPE      H6Y           -13.0666913159      -19.2649478143       -9.3457104719  MEMB      236             0.0000000000
     29403       236  PMPE      C37           -12.8200525549      -20.3822815095       -7.5295639674  MEMB      236             0.0000000000
     29404       236  PMPE      H7X           -13.3734171391      -19.5683766306       -7.0076743802  MEMB      236             0.0000000000
     29405       236  PMPE      H7Y           -11.7585836673      -20.1299866061       -7.3639847817  MEMB      236             0.0000000000
     29406       236  PMPE      C38           -13.0019542491      -21.7777700941       -6.9340653551  MEMB      236             0.0000000000
     29407       236  PMPE      H8X           -12.4690212027      -22.5922718396       -7.4142642802  MEMB      236             0.0000000000
     29408       236  PMPE      H8Y           -13.8726716259      -22.2690630845       -7.2336002552  MEMB      236             0.0000000000
     29409       236  PMPE      C39           -12.8758459545      -21.9204189513       -5.4386150625  MEMB      236             0.0000000000
     29410       236  PMPE      H9X           -13.1416568349      -22.9994172569       -5.2705030129  MEMB      236             0.0000000000
     29411       236  PMPE      H9Y           -13.5357062848      -21.2050001273       -4.9449163915  MEMB      236             0.0000000000
     29412       236  PMPE      C310          -11.4456447470      -21.7811582938       -4.9853754981  MEMB      236             0.0000000000
     29413       236  PMPE      H10X          -10.9557752536      -20.8415501322       -5.3329547182  MEMB      236             0.0000000000
     29414       236  PMPE      H10Y          -10.9919283590      -22.6587313280       -5.5057404371  MEMB      236             0.0000000000
     29415       236  PMPE      C311          -11.2212872148      -21.8352852421       -3.4681192306  MEMB      236             0.0000000000
     29416       236  PMPE      H11X          -10.1160304145      -21.7362839093       -3.3898460950  MEMB      236             0.0000000000
     29417       236  PMPE      H11Y          -11.4952437959      -22.8192215410       -3.0386746606  MEMB      236             0.0000000000
     29418       236  PMPE      C312          -11.8442994712      -20.6523671567       -2.6902424097  MEMB      236             0.0000000000
     29419       236  PMPE      H12X          -12.9482928008      -20.7340199070       -2.5729695629  MEMB      236             0.0000000000
     29420       236  PMPE      H12Y          -11.6582484023      -19.7639652351       -3.3480511861  MEMB      236             0.0000000000
     29421       236  PMPE      C313          -11.2607260909      -20.3967088163       -1.2691057975  MEMB      236             0.0000000000
     29422       236  PMPE      H13X          -11.7287304925      -19.4756932245       -0.8493641739  MEMB      236             0.0000000000
     29423       236  PMPE      H13Y          -10.1755932085      -20.1481898620       -1.3524744481  MEMB      236             0.0000000000
     29424       236  PMPE      C314          -11.3600689418      -21.5289388335       -0.2083455011  MEMB      236             0.0000000000
     29425       236  PMPE      H14X          -11.0518538662      -21.0829272622        0.7680429672  MEMB      236             0.0000000000
     29426       236  PMPE      H14Y          -10.5645101977      -22.2637511824       -0.4596202951  MEMB      236             0.0000000000
     29427       236  PMPE      C315          -12.6939699717      -22.3138496276       -0.0861989831  MEMB      236             0.0000000000
     29428       236  PMPE      H15X          -12.7892619220      -22.9703092484       -0.9763740644  MEMB      236             0.0000000000
     29429       236  PMPE      H15Y          -13.5861570205      -21.6676590624       -0.2376437764  MEMB      236             0.0000000000
     29430       236  PMPE      C316          -12.8289655331      -23.2237907070        1.1662267738  MEMB      236             0.0000000000
     29431       236  PMPE      H16X          -12.6823739132      -22.7417672679        2.1572751138  MEMB      236             0.0000000000
     29432       236  PMPE      H16Y          -12.2281381937      -24.1523693012        1.1160785703  MEMB      236             0.0000000000
     29433       236  PMPE      H16Z          -13.8317429918      -23.6291649130        1.1738644802  MEMB      236             0.0000000000
     29434       237  PMPE      N              11.6765512142       22.6478382833      -18.8775434469  MEMB      237             0.0000000000
     29435       237  PMPE      HN1            11.6042438509       23.2994823066      -18.0658177302  MEMB      237             0.0000000000
     29436       237  PMPE      HN2            12.1941707813       21.7927998748      -18.5855225456  MEMB      237             0.0000000000
     29437       237  PMPE      HN3            12.2349093621       23.1282773304      -19.6201020480  MEMB      237             0.0000000000
     29438       237  PMPE      C12            10.2451557856       22.4225221120      -19.3153508162  MEMB      237             0.0000000000
     29439       237  PMPE      H12A            9.6984865805       21.9440262892      -18.4674254844  MEMB      237             0.0000000000
     29440       237  PMPE      H12B           10.2785319408       21.7997020025      -20.2365945808  MEMB      237             0.0000000000
     29441       237  PMPE      C11             9.4749695752       23.7438326110      -19.5279315160  MEMB      237             0.0000000000
     29442       237  PMPE      H11A            8.4100465959       23.5045044139      -19.2732421788  MEMB      237             0.0000000000
     29443       237  PMPE      H11B            9.5716162478       24.0982452196      -20.5742102091  MEMB      237             0.0000000000
     29444       237  PMPE      P              10.3031129651       26.2517860039      -18.9510462412  MEMB      237             0.0000000000
     29445       237  PMPE      O13             9.3740372957       26.8550036542      -19.9382969821  MEMB      237             0.0000000000
     29446       237  PMPE      O14            11.7550919190       26.2951054054      -19.2057229267  MEMB      237             0.0000000000
     29447       237  PMPE      O11             9.9837650924       26.7842582636      -17.5227338829  MEMB      237             0.0000000000
     29448       237  PMPE      O12             9.9207829361       24.7323517472      -18.6311344442  MEMB      237             0.0000000000
     29449       237  PMPE      C1              8.6408705856       26.8010447341      -17.0397962591  MEMB      237             0.0000000000
     29450       237  PMPE      HA              7.9630574903       26.0395271068      -17.5203551937  MEMB      237             0.0000000000
     29451       237  PMPE      HB              8.1923593737       27.7987967457      -17.2147741057  MEMB      237             0.0000000000
     29452       237  PMPE      C2              8.6959772135       26.3720851752      -15.5686161105  MEMB      237             0.0000000000
     29453       237  PMPE      HS              7.6760508602       26.4623260129      -15.1155491857  MEMB      237             0.0000000000
     29454       237  PMPE      O21             9.6734511588       27.0914271270      -14.7952667114  MEMB      237             0.0000000000
     29455       237  PMPE      C21             9.1747039532       27.7316692516      -13.7383611240  MEMB      237             0.0000000000
     29456       237  PMPE      O22             7.9971533323       27.8419105762      -13.4539162600  MEMB      237             0.0000000000
     29457       237  PMPE      C22            10.2801203063       28.3157555434      -12.8705879798  MEMB      237             0.0000000000
     29458       237  PMPE      H2R            10.4752351644       29.3195823541      -13.1349958176  MEMB      237             0.0000000000
     29459       237  PMPE      H2S            11.2380912607       27.8229835065      -13.0871618057  MEMB      237             0.0000000000
     29460       237  PMPE      C3              9.0534245122       24.8268994361      -15.5812925572  MEMB      237             0.0000000000
     29461       237  PMPE      HX             10.0829696486       24.6118476691      -15.7340493491  MEMB      237             0.0000000000
     29462       237  PMPE      HY              8.5899187791       24.3340267151      -16.5385051542  MEMB      237             0.0000000000
     29463       237  PMPE      O31             8.8240707174       24.1686753834      -14.2387464754  MEMB      237             0.0000000000
     29464       237  PMPE      C31             7.5920971633       23.8385318843      -14.2845439620  MEMB      237             0.0000000000
     29465       237  PMPE      O32             7.0962298370       24.3713659886      -15.2153805806  MEMB      237             0.0000000000
     29466       237  PMPE      C32             7.0439310881       23.1859601412      -13.0314810256  MEMB      237             0.0000000000
     29467       237  PMPE      H2X             7.7099494486       22.3549780926      -12.8676765855  MEMB      237             0.0000000000
     29468       237  PMPE      H2Y             6.0257400225       22.7344843920      -12.9853324378  MEMB      237             0.0000000000
     29469       237  PMPE      C23             9.7954748986       28.2327145721      -11.4053725626  MEMB      237             0.0000000000
     29470       237  PMPE      H3R             9.8409686656       27.1625725389      -11.1403342858  MEMB      237             0.0000000000
     29471       237  PMPE      H3S             8.7331109275       28.5634604386      -11.2571647538  MEMB      237             0.0000000000
     29472       237  PMPE      C24            10.5901079364       28.9755538269      -10.3495481103  MEMB      237             0.0000000000
     29473       237  PMPE      H4R             9.9851620769       29.1674830499       -9.4490396442  MEMB      237             0.0000000000
     29474       237  PMPE      H4S            10.7519058513       29.9505910988      -10.6219421101  MEMB      237             0.0000000000
     29475       237  PMPE      C25            11.9286980790       28.3831936683       -9.9664819309  MEMB      237             0.0000000000
     29476       237  PMPE      H5R            12.6064945114       29.2419957188       -9.7439914463  MEMB      237             0.0000000000
     29477       237  PMPE      H5S            12.3781902887       27.9023829396      -10.8529620892  MEMB      237             0.0000000000
     29478       237  PMPE      C26            11.7948861202       27.4378801611       -8.7456678388  MEMB      237             0.0000000000
     29479       237  PMPE      H6R            11.2181994383       26.5045699104       -8.9495808248  MEMB      237             0.0000000000
     29480       237  PMPE      H6S            11.2354218202       27.9891860856       -7.9546871455  MEMB      237             0.0000000000
     29481       237  PMPE      C27            13.1455139164       26.9841645848       -8.1702674708  MEMB      237             0.0000000000
     29482       237  PMPE      H7R            13.6332319080       27.8767114208       -7.7109232266  MEMB      237             0.0000000000
     29483       237  PMPE      H7S            13.7648783171       26.6360804169       -9.0326702145  MEMB      237             0.0000000000
     29484       237  PMPE      C28            13.0427591640       25.8595212101       -7.1070383867  MEMB      237             0.0000000000
     29485       237  PMPE      H8R            12.3041244682       26.0844254650       -6.3257858754  MEMB      237             0.0000000000
     29486       237  PMPE      H8S            13.9958392662       25.8287882324       -6.5981280301  MEMB      237             0.0000000000
     29487       237  PMPE      C29            12.8228959765       24.4892812442       -7.7385881679  MEMB      237             0.0000000000
     29488       237  PMPE      H9R            13.3582593004       24.3167063995       -8.6613205548  MEMB      237             0.0000000000
     29489       237  PMPE      C217           11.4150905985       23.9111897097       -7.6404892382  MEMB      237             0.0000000000
     29490       237  PMPE      H17R           11.1320580743       23.6480499903       -8.6534200165  MEMB      237             0.0000000000
     29491       237  PMPE      H17S           10.8138132483       24.4445645272       -6.9279010992  MEMB      237             0.0000000000
     29492       237  PMPE      C210           12.5799016976       23.2254530951       -6.9540857562  MEMB      237             0.0000000000
     29493       237  PMPE      H10R           12.8643984462       22.2689130247       -7.4234977515  MEMB      237             0.0000000000
     29494       237  PMPE      C211           12.6532661727       23.3337014344       -5.4493197746  MEMB      237             0.0000000000
     29495       237  PMPE      H11R           12.1106921439       24.2332750549       -5.1430620152  MEMB      237             0.0000000000
     29496       237  PMPE      H11S           13.6163780770       23.4339899507       -4.9868148246  MEMB      237             0.0000000000
     29497       237  PMPE      C212           12.2124377089       22.0209074138       -4.8533166351  MEMB      237             0.0000000000
     29498       237  PMPE      H12R           12.7702116595       21.1778524584       -5.3397414955  MEMB      237             0.0000000000
     29499       237  PMPE      H12S           11.1280896007       21.9940493376       -5.0498446415  MEMB      237             0.0000000000
     29500       237  PMPE      C213           12.3245913036       21.9365522829       -3.3468797937  MEMB      237             0.0000000000
     29501       237  PMPE      H13R           11.9949914998       20.9168458959       -3.0624585730  MEMB      237             0.0000000000
     29502       237  PMPE      H13S           11.6057328092       22.6350336341       -2.8730110442  MEMB      237             0.0000000000
     29503       237  PMPE      C214           13.7380876555       22.0583970852       -2.8082300092  MEMB      237             0.0000000000
     29504       237  PMPE      H14R           14.2182068416       22.9870667293       -3.1078224911  MEMB      237             0.0000000000
     29505       237  PMPE      H14S           14.3289914495       21.2444982060       -3.2443467215  MEMB      237             0.0000000000
     29506       237  PMPE      C215           13.7224928596       21.7283604622       -1.3361923958  MEMB      237             0.0000000000
     29507       237  PMPE      H15R           13.1552833360       20.7900350279       -1.2485763860  MEMB      237             0.0000000000
     29508       237  PMPE      H15S           13.1297740853       22.5391845888       -0.8618373079  MEMB      237             0.0000000000
     29509       237  PMPE      C216           15.0271632057       21.5929473603       -0.5976032155  MEMB      237             0.0000000000
     29510       237  PMPE      H16R           15.8485509705       20.9125261512       -0.9547549029  MEMB      237             0.0000000000
     29511       237  PMPE      H16S           15.3063660686       22.6500505446       -0.5537664406  MEMB      237             0.0000000000
     29512       237  PMPE      H16T           14.8923739604       21.4140316091        0.4683926711  MEMB      237             0.0000000000
     29513       237  PMPE      C33             7.0740672640       24.3728646431      -12.0746508613  MEMB      237             0.0000000000
     29514       237  PMPE      H3X             6.3716303984       25.1605156401      -12.4598698996  MEMB      237             0.0000000000
     29515       237  PMPE      H3Y             8.0654389421       24.8340380076      -11.9537135195  MEMB      237             0.0000000000
     29516       237  PMPE      C34             6.5060926626       24.0653525959      -10.7344475066  MEMB      237             0.0000000000
     29517       237  PMPE      H4X             7.0642907672       23.3901149100      -10.0755614828  MEMB      237             0.0000000000
     29518       237  PMPE      H4Y             5.7262277854       23.4218263986      -11.0482542373  MEMB      237             0.0000000000
     29519       237  PMPE      C35             5.9788560617       25.3757722294      -10.2363732213  MEMB      237             0.0000000000
     29520       237  PMPE      H5X             5.3797214516       25.4779432901       -9.4887642732  MEMB      237             0.0000000000
     29521       237  PMPE      H5Y             4.9927714524       25.6979873653      -10.5225485629  MEMB      237             0.0000000000
     29522       237  PMPE      C36             6.9189556290       26.4163305203       -9.7472683735  MEMB      237             0.0000000000
     29523       237  PMPE      H6X             6.3558531473       27.2138371321       -9.1983775522  MEMB      237             0.0000000000
     29524       237  PMPE      H6Y             7.1672581583       26.7976818527      -10.7429423088  MEMB      237             0.0000000000
     29525       237  PMPE      C37             8.1453015752       25.9195510063       -8.9681762483  MEMB      237             0.0000000000
     29526       237  PMPE      H7X             8.7743749304       26.8103497229       -8.7631468263  MEMB      237             0.0000000000
     29527       237  PMPE      H7Y             8.7654421156       25.2045938985       -9.5570843180  MEMB      237             0.0000000000
     29528       237  PMPE      C38             7.8681381730       25.3492461793       -7.5626415680  MEMB      237             0.0000000000
     29529       237  PMPE      H8X             8.8037537104       24.9775445460       -7.1291488392  MEMB      237             0.0000000000
     29530       237  PMPE      H8Y             7.1575708149       24.5116332559       -7.6208457576  MEMB      237             0.0000000000
     29531       237  PMPE      C39             7.3777628809       26.4288050153       -6.6077005317  MEMB      237             0.0000000000
     29532       237  PMPE      H9X             6.3864647453       26.5193624519       -6.8965216808  MEMB      237             0.0000000000
     29533       237  PMPE      H9Y             7.8008077705       27.3982548518       -6.8984223426  MEMB      237             0.0000000000
     29534       237  PMPE      C310            7.2912440841       26.2037931285       -5.0966548310  MEMB      237             0.0000000000
     29535       237  PMPE      H10X            7.2644090145       25.1369437593       -4.8441707622  MEMB      237             0.0000000000
     29536       237  PMPE      H10Y            6.3434636621       26.6710757474       -4.7162436755  MEMB      237             0.0000000000
     29537       237  PMPE      C311            8.4178858681       26.9192907045       -4.4372235341  MEMB      237             0.0000000000
     29538       237  PMPE      H11X            8.1515580424       27.9867311054       -4.6651145745  MEMB      237             0.0000000000
     29539       237  PMPE      H11Y            9.4204781703       26.6914323388       -4.8794279793  MEMB      237             0.0000000000
     29540       237  PMPE      C312            8.5304958526       26.7944788177       -2.9184666162  MEMB      237             0.0000000000
     29541       237  PMPE      H12X            7.6526861932       27.2031400555       -2.3968477992  MEMB      237             0.0000000000
     29542       237  PMPE      H12Y            9.4297424250       27.3665982125       -2.6023344591  MEMB      237             0.0000000000
     29543       237  PMPE      C313            8.7833154487       25.4373270184       -2.4142397117  MEMB      237             0.0000000000
     29544       237  PMPE      H13X            9.6308386740       25.0497494591       -3.0142490810  MEMB      237             0.0000000000
     29545       237  PMPE      H13Y            7.8977695584       24.8279941589       -2.6294019390  MEMB      237             0.0000000000
     29546       237  PMPE      C314            9.1267632786       25.4280725212       -0.9545670500  MEMB      237             0.0000000000
     29547       237  PMPE      H14X            8.2304754405       25.3252917685       -0.3022100862  MEMB      237             0.0000000000
     29548       237  PMPE      H14Y            9.6679652598       26.3653564594       -0.6630802150  MEMB      237             0.0000000000
     29549       237  PMPE      C315           10.0705786764       24.3067870840       -0.7927907559  MEMB      237             0.0000000000
     29550       237  PMPE      H15X           11.0950932485       24.5208714100       -1.0790367222  MEMB      237             0.0000000000
     29551       237  PMPE      H15Y            9.7504304032       23.2526718390       -1.0134757236  MEMB      237             0.0000000000
     29552       237  PMPE      C316           10.3857276372       24.2822158268        0.4886678839  MEMB      237             0.0000000000
     29553       237  PMPE      H16X           10.7233898225       25.1285845894        1.1319095413  MEMB      237             0.0000000000
     29554       237  PMPE      H16Y           11.1981086095       23.4247707866        0.5755972712  MEMB      237             0.0000000000
     29555       237  PMPE      H16Z            9.3490426431       23.9473774780        0.8629480135  MEMB      237             0.0000000000
     29556       238  PMPE      N             -28.7889702760        9.3139686057      -20.0648692210  MEMB      238             0.0000000000
     29557       238  PMPE      HN1           -28.7909703940        8.2944897165      -19.8809635463  MEMB      238             0.0000000000
     29558       238  PMPE      HN2           -28.8814054288        9.8021680559      -19.1474654885  MEMB      238             0.0000000000
     29559       238  PMPE      HN3           -29.5645318809        9.6548078674      -20.6640091818  MEMB      238             0.0000000000
     29560       238  PMPE      C12           -27.4965912186        9.7682523595      -20.6676102577  MEMB      238             0.0000000000
     29561       238  PMPE      H12A          -27.7224852257       10.7831251793      -21.0562899875  MEMB      238             0.0000000000
     29562       238  PMPE      H12B          -27.1697592161        9.1209302807      -21.5135291508  MEMB      238             0.0000000000
     29563       238  PMPE      C11           -26.4347968113        9.7550917896      -19.5683095478  MEMB      238             0.0000000000
     29564       238  PMPE      H11A          -25.4814169158       10.0573204213      -20.0725384158  MEMB      238             0.0000000000
     29565       238  PMPE      H11B          -26.3296819882        8.7527340004      -19.0926426016  MEMB      238             0.0000000000
     29566       238  PMPE      P             -26.2953281087       12.1225277675      -18.3773900151  MEMB      238             0.0000000000
     29567       238  PMPE      O13           -26.5379778399       12.7684971559      -19.6852498727  MEMB      238             0.0000000000
     29568       238  PMPE      O14           -24.9658339808       12.1976771811      -17.7698007252  MEMB      238             0.0000000000
     29569       238  PMPE      O11           -27.3387811581       12.6752463581      -17.3470575797  MEMB      238             0.0000000000
     29570       238  PMPE      O12           -26.7992618388       10.6076162837      -18.5027230148  MEMB      238             0.0000000000
     29571       238  PMPE      C1            -28.6642550949       12.9724190802      -17.6999243658  MEMB      238             0.0000000000
     29572       238  PMPE      HA            -29.0640877866       12.1326530701      -18.3163352880  MEMB      238             0.0000000000
     29573       238  PMPE      HB            -28.6364147035       13.8875997848      -18.3205757927  MEMB      238             0.0000000000
     29574       238  PMPE      C2            -29.4740372173       13.1711851987      -16.3910300115  MEMB      238             0.0000000000
     29575       238  PMPE      HS            -29.0268470806       13.9287897017      -15.7159332063  MEMB      238             0.0000000000
     29576       238  PMPE      O21           -29.4647801509       11.9073002170      -15.7485279093  MEMB      238             0.0000000000
     29577       238  PMPE      C21           -28.5529687861       11.7921130572      -14.7867274023  MEMB      238             0.0000000000
     29578       238  PMPE      O22           -27.8269422976       12.6388365297      -14.3339401737  MEMB      238             0.0000000000
     29579       238  PMPE      C22           -28.5173594134       10.3528851156      -14.3439986191  MEMB      238             0.0000000000
     29580       238  PMPE      H2R           -28.8954309380        9.7972224884      -15.1487916356  MEMB      238             0.0000000000
     29581       238  PMPE      H2S           -29.1735748643        9.9546651597      -13.6202054037  MEMB      238             0.0000000000
     29582       238  PMPE      C3            -30.9265634500       13.6887286443      -16.6288524449  MEMB      238             0.0000000000
     29583       238  PMPE      HX            -31.2861525480       13.0806164748      -17.4748339197  MEMB      238             0.0000000000
     29584       238  PMPE      HY            -30.8987530035       14.7468093733      -16.9732971990  MEMB      238             0.0000000000
     29585       238  PMPE      O31           -31.8693482563       13.5187200508      -15.5402778690  MEMB      238             0.0000000000
     29586       238  PMPE      C31           -31.5011119058       14.0160260425      -14.3687167532  MEMB      238             0.0000000000
     29587       238  PMPE      O32           -30.4351768256       14.5736501372      -14.1812548433  MEMB      238             0.0000000000
     29588       238  PMPE      C32           -32.6104032272       13.7043991186      -13.3183892489  MEMB      238             0.0000000000
     29589       238  PMPE      H2X           -33.1157390392       12.7532344008      -13.5301393927  MEMB      238             0.0000000000
     29590       238  PMPE      H2Y           -33.4105638336       14.4700540981      -13.3251846555  MEMB      238             0.0000000000
     29591       238  PMPE      C23           -27.6210083467        9.8618884810      -13.2722292696  MEMB      238             0.0000000000
     29592       238  PMPE      H3R           -27.7371441443       10.4120574496      -12.3008739073  MEMB      238             0.0000000000
     29593       238  PMPE      H3S           -26.7369926033       10.1255166140      -13.8182849234  MEMB      238             0.0000000000
     29594       238  PMPE      C24           -27.6605789735        8.3441955844      -13.1750667280  MEMB      238             0.0000000000
     29595       238  PMPE      H4R           -26.7447123541        7.9800267168      -12.6935643103  MEMB      238             0.0000000000
     29596       238  PMPE      H4S           -27.7079458427        7.9091111037      -14.1892692721  MEMB      238             0.0000000000
     29597       238  PMPE      C25           -28.8302687416        7.7645996471      -12.4746859711  MEMB      238             0.0000000000
     29598       238  PMPE      H5R           -28.8358676643        6.6922710587      -12.4455929987  MEMB      238             0.0000000000
     29599       238  PMPE      H5S           -29.7237172977        8.0703037003      -13.0265154364  MEMB      238             0.0000000000
     29600       238  PMPE      C26           -28.7540912401        7.9550325761      -11.0064222454  MEMB      238             0.0000000000
     29601       238  PMPE      H6R           -29.2457944131        8.6923744506      -10.8344648895  MEMB      238             0.0000000000
     29602       238  PMPE      H6S           -27.9775312872        7.8905040938      -10.3129523772  MEMB      238             0.0000000000
     29603       238  PMPE      C27           -29.8405192638        7.7868634972      -10.0499395629  MEMB      238             0.0000000000
     29604       238  PMPE      H7R           -29.3765364849        6.8441642563      -10.1377687673  MEMB      238             0.0000000000
     29605       238  PMPE      H7S           -30.8870988373        8.0082350184      -10.4568928169  MEMB      238             0.0000000000
     29606       238  PMPE      C28           -29.8588039001        7.6532973237       -8.4462598689  MEMB      238             0.0000000000
     29607       238  PMPE      H8R           -30.4671301607        8.3338193179       -8.0220684353  MEMB      238             0.0000000000
     29608       238  PMPE      H8S           -29.0579950240        7.1169426511       -8.0743863781  MEMB      238             0.0000000000
     29609       238  PMPE      C29           -30.8991400638        6.7025412977       -7.5634286321  MEMB      238             0.0000000000
     29610       238  PMPE      H9R           -30.6313109778        5.4247393163       -7.6494006270  MEMB      238             0.0000000000
     29611       238  PMPE      C217          -32.5049804928        7.5617862312       -7.3758904053  MEMB      238             0.0000000000
     29612       238  PMPE      H17R          -33.5888016906        7.1595534194       -7.4277858758  MEMB      238             0.0000000000
     29613       238  PMPE      H17S          -32.4365949466        8.5525304833       -7.5737703374  MEMB      238             0.0000000000
     29614       238  PMPE      C210          -31.6199366838        6.9138417026       -6.5498049256  MEMB      238             0.0000000000
     29615       238  PMPE      H10R          -31.8021470165        6.0355751714       -6.6101021771  MEMB      238             0.0000000000
     29616       238  PMPE      C211          -31.0384832351        7.4877928082       -5.5429300218  MEMB      238             0.0000000000
     29617       238  PMPE      H11R          -31.8230080846        7.4794316423       -4.7844283978  MEMB      238             0.0000000000
     29618       238  PMPE      H11S          -30.8717024570        8.3718809786       -6.0944757862  MEMB      238             0.0000000000
     29619       238  PMPE      C212          -29.6326550723        7.2830314451       -5.2314258872  MEMB      238             0.0000000000
     29620       238  PMPE      H12R          -28.8964792261        7.3923707167       -5.9699466963  MEMB      238             0.0000000000
     29621       238  PMPE      H12S          -29.3212939967        6.3401636438       -4.9713391436  MEMB      238             0.0000000000
     29622       238  PMPE      C213          -29.1526274632        8.1566218177       -4.0993615042  MEMB      238             0.0000000000
     29623       238  PMPE      H13R          -30.1879896944        8.0372384903       -3.5806501479  MEMB      238             0.0000000000
     29624       238  PMPE      H13S          -29.2746721689        9.1027427756       -3.7556413387  MEMB      238             0.0000000000
     29625       238  PMPE      C214          -27.7465759287        7.6142307000       -3.3596231526  MEMB      238             0.0000000000
     29626       238  PMPE      H14R          -26.9789310846        7.7960348142       -4.0432672148  MEMB      238             0.0000000000
     29627       238  PMPE      H14S          -27.6539331420        6.4755024273       -3.4366374742  MEMB      238             0.0000000000
     29628       238  PMPE      C215          -27.3562829055        8.0150623481       -1.8091713063  MEMB      238             0.0000000000
     29629       238  PMPE      H15R          -28.0074230104        8.0127410206       -0.8161861843  MEMB      238             0.0000000000
     29630       238  PMPE      H15S          -27.6734909634        9.0083992793       -1.6711531469  MEMB      238             0.0000000000
     29631       238  PMPE      C216          -26.4689296746        6.9741453605       -1.0520982777  MEMB      238             0.0000000000
     29632       238  PMPE      H16R          -25.6693050619        6.9235982673       -1.7244530991  MEMB      238             0.0000000000
     29633       238  PMPE      H16S          -26.4650402072        7.3088911821       -0.0097428947  MEMB      238             0.0000000000
     29634       238  PMPE      H16T          -26.6963588921        5.8622491269       -1.0087561005  MEMB      238             0.0000000000
     29635       238  PMPE      C33           -32.2262909729       13.7983816665      -11.8363984089  MEMB      238             0.0000000000
     29636       238  PMPE      H3X           -33.0739193340       13.4119921049      -11.2469713747  MEMB      238             0.0000000000
     29637       238  PMPE      H3Y           -31.6693054727       14.6792095601      -11.6375366066  MEMB      238             0.0000000000
     29638       238  PMPE      C34           -31.2097725131       13.0467510493      -11.1667050187  MEMB      238             0.0000000000
     29639       238  PMPE      H4X           -30.1745804489       13.2443314941      -11.6408149276  MEMB      238             0.0000000000
     29640       238  PMPE      H4Y           -31.8362597045       12.1047785503      -11.3546037720  MEMB      238             0.0000000000
     29641       238  PMPE      C35           -30.7166512807       12.9662152172       -9.7741939003  MEMB      238             0.0000000000
     29642       238  PMPE      H5X           -31.6753093283       12.5246341196       -9.3805710419  MEMB      238             0.0000000000
     29643       238  PMPE      H5Y           -30.6117497295       13.9347284341       -9.5883540296  MEMB      238             0.0000000000
     29644       238  PMPE      C36           -29.0793463555       12.5775298567       -9.6740126974  MEMB      238             0.0000000000
     29645       238  PMPE      H6X           -28.4484552729       13.0293558272      -10.2616009958  MEMB      238             0.0000000000
     29646       238  PMPE      H6Y           -28.5387789896       11.9095136592      -10.4080632060  MEMB      238             0.0000000000
     29647       238  PMPE      C37           -28.5181118147       11.7927308166       -8.6567808198  MEMB      238             0.0000000000
     29648       238  PMPE      H7X           -28.7965166388       10.5624931484       -8.5884359392  MEMB      238             0.0000000000
     29649       238  PMPE      H7Y           -28.9302637797       12.5873350695       -7.8944681288  MEMB      238             0.0000000000
     29650       238  PMPE      C38           -27.4397673080       10.8870364971       -8.3838848311  MEMB      238             0.0000000000
     29651       238  PMPE      H8X           -26.9944015340       11.8108284536       -8.4745261935  MEMB      238             0.0000000000
     29652       238  PMPE      H8Y           -27.2724756452       10.0442550153       -9.0795765735  MEMB      238             0.0000000000
     29653       238  PMPE      C39           -27.2370559365       10.3188733090       -6.9845690841  MEMB      238             0.0000000000
     29654       238  PMPE      H9X           -26.3300704434        9.6778801181       -7.0483269966  MEMB      238             0.0000000000
     29655       238  PMPE      H9Y           -28.0422967915        9.7186833364       -6.5426013782  MEMB      238             0.0000000000
     29656       238  PMPE      C310          -27.2099475992       11.3868383811       -5.9146229960  MEMB      238             0.0000000000
     29657       238  PMPE      H10X          -27.7080428237       12.3224001641       -5.9268940629  MEMB      238             0.0000000000
     29658       238  PMPE      H10Y          -26.4786536864       12.1333091448       -6.1107108341  MEMB      238             0.0000000000
     29659       238  PMPE      C311          -26.8535065086       10.8909524931       -4.5575125688  MEMB      238             0.0000000000
     29660       238  PMPE      H11X          -26.0411980583       10.3507489977       -5.1800460471  MEMB      238             0.0000000000
     29661       238  PMPE      H11Y          -27.1130250521       10.0741391062       -3.9909976469  MEMB      238             0.0000000000
     29662       238  PMPE      C312          -26.5914910270       12.2483107138       -3.3999475922  MEMB      238             0.0000000000
     29663       238  PMPE      H12X          -25.8956217703       13.2462812911       -3.5898028500  MEMB      238             0.0000000000
     29664       238  PMPE      H12Y          -26.0279767560       11.5776505112       -2.9598902295  MEMB      238             0.0000000000
     29665       238  PMPE      C313          -27.7876583983       12.6564183482       -3.3671206994  MEMB      238             0.0000000000
     29666       238  PMPE      H13X          -28.4013321134       11.8114647698       -3.1312399968  MEMB      238             0.0000000000
     29667       238  PMPE      H13Y          -28.0357631803       13.3764376824       -4.1376615309  MEMB      238             0.0000000000
     29668       238  PMPE      C314          -27.8135415418       13.3280945243       -2.2705202814  MEMB      238             0.0000000000
     29669       238  PMPE      H14X          -27.0592384244       14.1733730142       -2.3089157500  MEMB      238             0.0000000000
     29670       238  PMPE      H14Y          -27.4249496844       12.5924714935       -1.5034618693  MEMB      238             0.0000000000
     29671       238  PMPE      C315          -29.2958533356       13.7830254376       -1.9483194812  MEMB      238             0.0000000000
     29672       238  PMPE      H15X          -29.6028729695       14.1969533398       -0.9462644335  MEMB      238             0.0000000000
     29673       238  PMPE      H15Y          -29.8753094393       12.9896907479       -1.5303919308  MEMB      238             0.0000000000
     29674       238  PMPE      C316          -29.6414323146       15.1077816266       -2.4402929421  MEMB      238             0.0000000000
     29675       238  PMPE      H16X          -29.9138326052       14.7986830648       -3.4361212628  MEMB      238             0.0000000000
     29676       238  PMPE      H16Y          -28.9000400715       15.9493047820       -2.4300746102  MEMB      238             0.0000000000
     29677       238  PMPE      H16Z          -30.5257263100       15.4750600397       -1.8699991294  MEMB      238             0.0000000000
     29678       239  PMPG      C13            27.8516658878      -14.0987677160      -19.2155474146  MEMB      239             0.0000000000
     29679       239  PMPG      H13A           27.3273111209      -14.0454359378      -18.2232942658  MEMB      239             0.0000000000
     29680       239  PMPG      H13B           27.9027568354      -15.1729236572      -19.4609959623  MEMB      239             0.0000000000
     29681       239  PMPG      OC3            29.1925570591      -13.6265694304      -19.2037704034  MEMB      239             0.0000000000
     29682       239  PMPG      HO3            29.6358002375      -13.9598897408      -19.9851288587  MEMB      239             0.0000000000
     29683       239  PMPG      C12            27.1111602246      -13.4108807720      -20.3652232269  MEMB      239             0.0000000000
     29684       239  PMPG      H12A           27.4483468410      -13.8787348137      -21.2895271866  MEMB      239             0.0000000000
     29685       239  PMPG      OC2            27.4193617826      -12.0227352325      -20.4681385094  MEMB      239             0.0000000000
     29686       239  PMPG      HO2            26.8593479154      -11.6833608055      -21.1688338987  MEMB      239             0.0000000000
     29687       239  PMPG      C11            25.6165497593      -13.6147733665      -20.2867900028  MEMB      239             0.0000000000
     29688       239  PMPG      H11A           25.4003834172      -14.7099327119      -20.3169274917  MEMB      239             0.0000000000
     29689       239  PMPG      H11B           25.1548595629      -13.1237534021      -21.1698529073  MEMB      239             0.0000000000
     29690       239  PMPG      P              24.2825758111      -13.6191125389      -18.0123925805  MEMB      239             0.0000000000
     29691       239  PMPG      O13            22.9084195359      -13.6906465704      -18.5282195420  MEMB      239             0.0000000000
     29692       239  PMPG      O14            24.5840550097      -12.9545375469      -16.7287624580  MEMB      239             0.0000000000
     29693       239  PMPG      O11            24.8733011537      -15.0949317653      -18.0199636781  MEMB      239             0.0000000000
     29694       239  PMPG      O12            25.1958236469      -12.9767235721      -19.0981332239  MEMB      239             0.0000000000
     29695       239  PMPG      C1             24.0290689526      -16.2461267601      -17.9070709018  MEMB      239             0.0000000000
     29696       239  PMPG      HA             24.1307120014      -16.8890117846      -18.8105583936  MEMB      239             0.0000000000
     29697       239  PMPG      HB             22.9660485845      -15.9616681202      -17.7542072252  MEMB      239             0.0000000000
     29698       239  PMPG      C2             24.3252206746      -17.1116887692      -16.6710855946  MEMB      239             0.0000000000
     29699       239  PMPG      HS             23.5696326822      -17.9243603712      -16.6707948671  MEMB      239             0.0000000000
     29700       239  PMPG      O21            24.2418831372      -16.3153529743      -15.4792957120  MEMB      239             0.0000000000
     29701       239  PMPG      C21            23.0347986752      -16.0224237002      -15.0388694427  MEMB      239             0.0000000000
     29702       239  PMPG      O22            21.9930008476      -16.5426997436      -15.3956475931  MEMB      239             0.0000000000
     29703       239  PMPG      C22            23.1771000071      -14.8882529020      -14.0141243067  MEMB      239             0.0000000000
     29704       239  PMPG      H2R            22.7890108299      -14.0035716584      -14.5740448141  MEMB      239             0.0000000000
     29705       239  PMPG      H2S            24.2535648156      -14.7304830283      -13.7954534145  MEMB      239             0.0000000000
     29706       239  PMPG      C3             25.7078835460      -17.7562905472      -16.7367626053  MEMB      239             0.0000000000
     29707       239  PMPG      HX             25.8085986657      -18.4615658088      -17.5950182247  MEMB      239             0.0000000000
     29708       239  PMPG      HY             25.7427905936      -18.3425813270      -15.7904054129  MEMB      239             0.0000000000
     29709       239  PMPG      O31            26.6495095985      -16.6865636504      -16.7535034044  MEMB      239             0.0000000000
     29710       239  PMPG      C31            27.7655774181      -17.0924014046      -16.5291127737  MEMB      239             0.0000000000
     29711       239  PMPG      O32            28.1413143534      -18.2449884906      -16.7368676545  MEMB      239             0.0000000000
     29712       239  PMPG      C32            28.4699502157      -15.7275409661      -16.2663947149  MEMB      239             0.0000000000
     29713       239  PMPG      H2X            28.8781141099      -15.5795066396      -17.2238622407  MEMB      239             0.0000000000
     29714       239  PMPG      H2Y            29.4290069349      -15.5057971618      -15.8214009482  MEMB      239             0.0000000000
     29715       239  PMPG      C23            22.3254022319      -15.0682861347      -12.7349302678  MEMB      239             0.0000000000
     29716       239  PMPG      H3R            21.2767822243      -15.2510961166      -13.0595730769  MEMB      239             0.0000000000
     29717       239  PMPG      H3S            22.3588912832      -14.1548563425      -12.1067788564  MEMB      239             0.0000000000
     29718       239  PMPG      C24            22.7681888846      -16.1383737532      -11.7428137455  MEMB      239             0.0000000000
     29719       239  PMPG      H4R            22.6406849371      -17.1145983758      -12.2383356139  MEMB      239             0.0000000000
     29720       239  PMPG      H4S            22.0712319626      -16.2082790417      -10.8834819543  MEMB      239             0.0000000000
     29721       239  PMPG      C25            24.1888060863      -15.9532968159      -11.1850001381  MEMB      239             0.0000000000
     29722       239  PMPG      H5R            24.3517945604      -15.0843923483      -10.5282641247  MEMB      239             0.0000000000
     29723       239  PMPG      H5S            24.8918500565      -15.8680028739      -12.0243835375  MEMB      239             0.0000000000
     29724       239  PMPG      C26            24.5745830317      -17.1695327568      -10.4363339146  MEMB      239             0.0000000000
     29725       239  PMPG      H6R            24.7380212561      -17.9163749856      -11.2596224606  MEMB      239             0.0000000000
     29726       239  PMPG      H6S            23.6769851735      -17.4982414175       -9.8453692422  MEMB      239             0.0000000000
     29727       239  PMPG      C27            25.8450375163      -17.1447541057       -9.5367160093  MEMB      239             0.0000000000
     29728       239  PMPG      H7R            25.7902625908      -16.2221677506       -8.9592171960  MEMB      239             0.0000000000
     29729       239  PMPG      H7S            26.6373417586      -17.0582660289      -10.2827218025  MEMB      239             0.0000000000
     29730       239  PMPG      C28            26.3326391346      -18.3006367229       -8.6027638300  MEMB      239             0.0000000000
     29731       239  PMPG      H8R            27.3960549983      -18.3364388089       -8.3716561485  MEMB      239             0.0000000000
     29732       239  PMPG      H8S            26.1234568362      -19.2545486599       -9.1479289297  MEMB      239             0.0000000000
     29733       239  PMPG      C29            25.6562830299      -18.2864322548       -7.2458137543  MEMB      239             0.0000000000
     29734       239  PMPG      H9R            25.2099335385      -19.1521146431       -7.3944693621  MEMB      239             0.0000000000
     29735       239  PMPG      C217           26.0704038477      -19.0437647717       -5.9598393150  MEMB      239             0.0000000000
     29736       239  PMPG      H17R           25.3018081086      -19.6267279805       -5.4294171158  MEMB      239             0.0000000000
     29737       239  PMPG      H17S           27.0625661697      -19.3621194399       -6.0970492030  MEMB      239             0.0000000000
     29738       239  PMPG      C210           25.8202232168      -17.5448708541       -6.0188173959  MEMB      239             0.0000000000
     29739       239  PMPG      H10R           24.9833984044      -17.1790196846       -5.4186160979  MEMB      239             0.0000000000
     29740       239  PMPG      C211           27.0185675639      -16.7217386222       -6.1164835915  MEMB      239             0.0000000000
     29741       239  PMPG      H11R           27.8362573681      -17.2448488039       -6.6689797156  MEMB      239             0.0000000000
     29742       239  PMPG      H11S           26.8113066535      -15.7401157501       -6.5693274391  MEMB      239             0.0000000000
     29743       239  PMPG      C212           27.3774101158      -16.2661440274       -4.7470046875  MEMB      239             0.0000000000
     29744       239  PMPG      H12R           26.5801789708      -15.8212023228       -4.2102977443  MEMB      239             0.0000000000
     29745       239  PMPG      H12S           28.1301675296      -15.4583472855       -4.7883737732  MEMB      239             0.0000000000
     29746       239  PMPG      C213           27.7969095767      -17.3788521956       -3.9058664625  MEMB      239             0.0000000000
     29747       239  PMPG      H13R           28.4966559745      -17.7807964770       -4.6187311527  MEMB      239             0.0000000000
     29748       239  PMPG      H13S           27.2426779348      -18.3247866270       -3.8923471632  MEMB      239             0.0000000000
     29749       239  PMPG      C214           28.3422784339      -17.0130262842       -2.4695865650  MEMB      239             0.0000000000
     29750       239  PMPG      H14R           27.5031836138      -16.9725303531       -1.7750168027  MEMB      239             0.0000000000
     29751       239  PMPG      H14S           29.1559477239      -16.2878516818       -2.4644169381  MEMB      239             0.0000000000
     29752       239  PMPG      C215           28.8643699242      -18.0538403492       -1.5201212472  MEMB      239             0.0000000000
     29753       239  PMPG      H15R           29.8927769205      -18.2453087739       -1.8613166227  MEMB      239             0.0000000000
     29754       239  PMPG      H15S           28.1460017550      -18.9073571740       -1.6797787760  MEMB      239             0.0000000000
     29755       239  PMPG      C216           29.4519706326      -18.0449633597       -0.2082100984  MEMB      239             0.0000000000
     29756       239  PMPG      H16R           30.3259659059      -17.3723633608       -0.2856134097  MEMB      239             0.0000000000
     29757       239  PMPG      H16S           29.7634266897      -19.0670149467        0.1817380898  MEMB      239             0.0000000000
     29758       239  PMPG      H16T           28.6609274926      -17.9789358052        0.4301062781  MEMB      239             0.0000000000
     29759       239  PMPG      C33            27.9480466867      -14.7145513633      -15.3475524207  MEMB      239             0.0000000000
     29760       239  PMPG      H3X            27.1110187844      -14.3544067603      -15.9229272931  MEMB      239             0.0000000000
     29761       239  PMPG      H3Y            28.7847080776      -13.9902595846      -15.1582032643  MEMB      239             0.0000000000
     29762       239  PMPG      C34            27.4814445412      -15.1918885145      -14.0263061528  MEMB      239             0.0000000000
     29763       239  PMPG      H4X            28.2647089087      -15.7488552162      -13.5307572984  MEMB      239             0.0000000000
     29764       239  PMPG      H4Y            26.5411597951      -15.7568905375      -14.1764100310  MEMB      239             0.0000000000
     29765       239  PMPG      C35            27.3074364535      -14.0977368276      -13.0146540857  MEMB      239             0.0000000000
     29766       239  PMPG      H5X            26.2323031339      -13.8484932944      -13.0173140765  MEMB      239             0.0000000000
     29767       239  PMPG      H5Y            27.9090255823      -13.2121596680      -13.3256895225  MEMB      239             0.0000000000
     29768       239  PMPG      C36            27.6127266600      -14.5346304704      -11.5723918822  MEMB      239             0.0000000000
     29769       239  PMPG      H6X            28.7050506115      -14.5818546367      -11.3740190470  MEMB      239             0.0000000000
     29770       239  PMPG      H6Y            27.1785943270      -15.5388047443      -11.3759796872  MEMB      239             0.0000000000
     29771       239  PMPG      C37            27.0467491132      -13.4921250561      -10.6058212380  MEMB      239             0.0000000000
     29772       239  PMPG      H7X            25.9565656698      -13.4295142093      -10.7082005300  MEMB      239             0.0000000000
     29773       239  PMPG      H7Y            27.4723845008      -12.5154907194      -10.9049683412  MEMB      239             0.0000000000
     29774       239  PMPG      C38            27.4637317444      -13.6873333037       -9.1837034483  MEMB      239             0.0000000000
     29775       239  PMPG      H8X            28.5205093996      -13.8730032013       -9.3159443188  MEMB      239             0.0000000000
     29776       239  PMPG      H8Y            26.9706099022      -14.5611952005       -8.7278586816  MEMB      239             0.0000000000
     29777       239  PMPG      C39            27.2236005484      -12.5195540662       -8.2407589574  MEMB      239             0.0000000000
     29778       239  PMPG      H9X            26.1319596785      -12.4168189400       -8.3241236880  MEMB      239             0.0000000000
     29779       239  PMPG      H9Y            27.7065968262      -11.5977652638       -8.5976391126  MEMB      239             0.0000000000
     29780       239  PMPG      C310           27.4328121615      -12.6824196892       -6.7327858758  MEMB      239             0.0000000000
     29781       239  PMPG      H10X           28.4676620490      -12.7982871592       -6.4147763427  MEMB      239             0.0000000000
     29782       239  PMPG      H10Y           26.8774027800      -13.5658704115       -6.3611918943  MEMB      239             0.0000000000
     29783       239  PMPG      C311           27.2015985665      -11.4210087319       -5.9335920025  MEMB      239             0.0000000000
     29784       239  PMPG      H11X           26.1296786133      -11.2808106872       -5.7477360174  MEMB      239             0.0000000000
     29785       239  PMPG      H11Y           27.5641793104      -10.5268246360       -6.4963791849  MEMB      239             0.0000000000
     29786       239  PMPG      C312           27.9753357301      -11.4737872565       -4.6097844290  MEMB      239             0.0000000000
     29787       239  PMPG      H12X           27.7899245281      -10.4819406670       -4.1393126969  MEMB      239             0.0000000000
     29788       239  PMPG      H12Y           29.0577771564      -11.5841007388       -4.8630434149  MEMB      239             0.0000000000
     29789       239  PMPG      C313           27.5739298873      -12.5904741984       -3.6363485628  MEMB      239             0.0000000000
     29790       239  PMPG      H13X           27.7887935390      -13.6294257259       -3.9813645715  MEMB      239             0.0000000000
     29791       239  PMPG      H13Y           26.4840154985      -12.5410752678       -3.4061761885  MEMB      239             0.0000000000
     29792       239  PMPG      C314           28.1870953738      -12.4107169916       -2.2630272035  MEMB      239             0.0000000000
     29793       239  PMPG      H14X           27.9630369525      -11.3949985354       -1.8625742065  MEMB      239             0.0000000000
     29794       239  PMPG      H14Y           29.2975297494      -12.5217171958       -2.2569794330  MEMB      239             0.0000000000
     29795       239  PMPG      C315           27.4808302550      -13.4329314711       -1.3989852398  MEMB      239             0.0000000000
     29796       239  PMPG      H15X           27.6855844178      -14.4805895435       -1.7838847210  MEMB      239             0.0000000000
     29797       239  PMPG      H15Y           26.4094373503      -13.4194453871       -1.3876837285  MEMB      239             0.0000000000
     29798       239  PMPG      C316           27.7065707440      -13.1588405843        0.0478348784  MEMB      239             0.0000000000
     29799       239  PMPG      H16X           27.5087487511      -14.2266545179        0.4140976378  MEMB      239             0.0000000000
     29800       239  PMPG      H16Y           27.1663159913      -12.7905227445        0.8646605641  MEMB      239             0.0000000000
     29801       239  PMPG      H16Z           28.7672620649      -12.7699323908        0.0941113344  MEMB      239             0.0000000000
     29802       240  PMPE      N              27.3570979637       16.5192410567      -19.8797888395  MEMB      240             0.0000000000
     29803       240  PMPE      HN1            28.1327307541       17.1184327054      -19.4752200692  MEMB      240             0.0000000000
     29804       240  PMPE      HN2            27.5736338030       16.2750106671      -20.8712335321  MEMB      240             0.0000000000
     29805       240  PMPE      HN3            26.4855777867       17.0664687978      -19.8695296963  MEMB      240             0.0000000000
     29806       240  PMPE      C12            27.0747109872       15.3194875299      -18.9857586340  MEMB      240             0.0000000000
     29807       240  PMPE      H12A           27.8913074101       15.0443639432      -18.3064343578  MEMB      240             0.0000000000
     29808       240  PMPE      H12B           26.9159629662       14.4570450459      -19.6087787976  MEMB      240             0.0000000000
     29809       240  PMPE      C11            25.8550107929       15.4738050467      -18.0878026646  MEMB      240             0.0000000000
     29810       240  PMPE      H11A           25.9038124596       16.3858387498      -17.4523610830  MEMB      240             0.0000000000
     29811       240  PMPE      H11B           25.9304264672       14.6522625341      -17.3432522992  MEMB      240             0.0000000000
     29812       240  PMPE      P              23.5643281826       16.4213508965      -19.0525126666  MEMB      240             0.0000000000
     29813       240  PMPE      O13            22.5093286245       15.7682524098      -19.7857169756  MEMB      240             0.0000000000
     29814       240  PMPE      O14            24.2041273167       17.5567653901      -19.7376709385  MEMB      240             0.0000000000
     29815       240  PMPE      O11            23.2083293368       16.7883285648      -17.5709337631  MEMB      240             0.0000000000
     29816       240  PMPE      O12            24.6646650851       15.2882387622      -18.8463147162  MEMB      240             0.0000000000
     29817       240  PMPE      C1             22.7170296894       15.7716117568      -16.6894472758  MEMB      240             0.0000000000
     29818       240  PMPE      HA             23.5498211895       15.2179245096      -16.2266843021  MEMB      240             0.0000000000
     29819       240  PMPE      HB             22.1240620001       14.9783070809      -17.2122618649  MEMB      240             0.0000000000
     29820       240  PMPE      C2             21.8496026203       16.3748086780      -15.5505748264  MEMB      240             0.0000000000
     29821       240  PMPE      HS             20.8641757848       16.2912876171      -16.0122634566  MEMB      240             0.0000000000
     29822       240  PMPE      O21            22.1874187602       17.7432098551      -15.2418995098  MEMB      240             0.0000000000
     29823       240  PMPE      C21            21.3192832742       18.4603518030      -14.5776619838  MEMB      240             0.0000000000
     29824       240  PMPE      O22            20.2411772126       18.1033230471      -14.2008890942  MEMB      240             0.0000000000
     29825       240  PMPE      C22            21.8198572815       19.8679669616      -14.3881343598  MEMB      240             0.0000000000
     29826       240  PMPE      H2R            20.9808520900       20.5482403990      -14.1521185313  MEMB      240             0.0000000000
     29827       240  PMPE      H2S            22.1899090047       20.1315666403      -15.3949220495  MEMB      240             0.0000000000
     29828       240  PMPE      C3             22.0116010838       15.5849858506      -14.2568315857  MEMB      240             0.0000000000
     29829       240  PMPE      HX             21.7597752970       14.5106431816      -14.3768441234  MEMB      240             0.0000000000
     29830       240  PMPE      HY             21.3858992358       16.0719429564      -13.5157336167  MEMB      240             0.0000000000
     29831       240  PMPE      O31            23.3670989921       15.6938471712      -13.8334592702  MEMB      240             0.0000000000
     29832       240  PMPE      C31            23.6339457715       14.8367125005      -12.8724764169  MEMB      240             0.0000000000
     29833       240  PMPE      O32            22.8072001722       14.1122059770      -12.3393042960  MEMB      240             0.0000000000
     29834       240  PMPE      C32            25.1225796522       14.8425512913      -12.5456244147  MEMB      240             0.0000000000
     29835       240  PMPE      H2X            25.7001020253       14.9652271713      -13.4897709039  MEMB      240             0.0000000000
     29836       240  PMPE      H2Y            25.3564654037       13.8563440301      -12.0758705721  MEMB      240             0.0000000000
     29837       240  PMPE      C23            22.7984483589       19.9622691645      -13.2129924989  MEMB      240             0.0000000000
     29838       240  PMPE      H3R            23.3858802281       20.8985431645      -13.2551851710  MEMB      240             0.0000000000
     29839       240  PMPE      H3S            23.4889198384       19.0971531228      -13.2367570433  MEMB      240             0.0000000000
     29840       240  PMPE      C24            22.0361386542       20.0304761119      -11.9034847011  MEMB      240             0.0000000000
     29841       240  PMPE      H4R            21.3701542022       19.2229121289      -11.8497210493  MEMB      240             0.0000000000
     29842       240  PMPE      H4S            21.3805729667       20.9159953475      -11.9143575270  MEMB      240             0.0000000000
     29843       240  PMPE      C25            22.8576783613       19.7906980956      -10.6498959093  MEMB      240             0.0000000000
     29844       240  PMPE      H5R            23.6287533586       20.5644845205      -10.6431324780  MEMB      240             0.0000000000
     29845       240  PMPE      H5S            23.3428176588       18.7859658748      -10.7428338933  MEMB      240             0.0000000000
     29846       240  PMPE      C26            22.0262522750       20.0005333131       -9.3959218042  MEMB      240             0.0000000000
     29847       240  PMPE      H6R            21.1161673728       19.5191841661       -9.5762237174  MEMB      240             0.0000000000
     29848       240  PMPE      H6S            21.7717687625       21.0603576944       -9.2176457187  MEMB      240             0.0000000000
     29849       240  PMPE      C27            22.6234655835       19.5710424034       -8.0849709664  MEMB      240             0.0000000000
     29850       240  PMPE      H7R            21.9602954315       19.9880087795       -7.2970466321  MEMB      240             0.0000000000
     29851       240  PMPE      H7S            23.5938263605       20.0794343319       -7.9584569229  MEMB      240             0.0000000000
     29852       240  PMPE      C28            22.8167019920       18.0828018673       -7.8718647245  MEMB      240             0.0000000000
     29853       240  PMPE      H8R            23.0880820775       18.0113907079       -6.7970847264  MEMB      240             0.0000000000
     29854       240  PMPE      H8S            23.5021900404       17.6251809486       -8.5966188492  MEMB      240             0.0000000000
     29855       240  PMPE      C29            21.6115439416       17.3310069195       -8.0262980687  MEMB      240             0.0000000000
     29856       240  PMPE      H9R            21.0704460949       17.4652286333       -8.9120394457  MEMB      240             0.0000000000
     29857       240  PMPE      C217           20.9762505141       17.6090559404       -6.7521320855  MEMB      240             0.0000000000
     29858       240  PMPE      H17R           20.1110748649       18.2260315838       -6.8132157183  MEMB      240             0.0000000000
     29859       240  PMPE      H17S           21.1684848325       17.6873108956       -5.7372192626  MEMB      240             0.0000000000
     29860       240  PMPE      C210           21.2433370301       16.0816010331       -7.2934230947  MEMB      240             0.0000000000
     29861       240  PMPE      H10R           20.5401641381       15.3591055974       -7.8510410902  MEMB      240             0.0000000000
     29862       240  PMPE      C211           22.4107241363       15.3665339750       -6.7709832497  MEMB      240             0.0000000000
     29863       240  PMPE      H11R           22.9696162081       16.0442349911       -6.1232134559  MEMB      240             0.0000000000
     29864       240  PMPE      H11S           23.0238373690       15.2030641347       -7.6639106374  MEMB      240             0.0000000000
     29865       240  PMPE      C212           22.0748904864       14.1040283014       -6.0130615235  MEMB      240             0.0000000000
     29866       240  PMPE      H12R           23.0291401783       13.6318025915       -5.7669583542  MEMB      240             0.0000000000
     29867       240  PMPE      H12S           21.4148537161       13.3879932986       -6.5864726640  MEMB      240             0.0000000000
     29868       240  PMPE      C213           21.7825102433       14.3729729087       -4.5514523914  MEMB      240             0.0000000000
     29869       240  PMPE      H13R           21.7439624774       13.5912045130       -3.8894173265  MEMB      240             0.0000000000
     29870       240  PMPE      H13S           20.8008216260       14.4117531947       -4.5057770611  MEMB      240             0.0000000000
     29871       240  PMPE      C214           22.4232195888       15.4189985317       -3.6871357337  MEMB      240             0.0000000000
     29872       240  PMPE      H14R           22.5166272171       16.2765024272       -4.3299445058  MEMB      240             0.0000000000
     29873       240  PMPE      H14S           23.3759501977       14.9491954386       -3.4399811248  MEMB      240             0.0000000000
     29874       240  PMPE      C215           21.8153834186       15.9952517088       -2.3905247539  MEMB      240             0.0000000000
     29875       240  PMPE      H15R           22.2943065573       16.8843780519       -2.0356236759  MEMB      240             0.0000000000
     29876       240  PMPE      H15S           21.8237015434       15.2253743743       -1.6001386668  MEMB      240             0.0000000000
     29877       240  PMPE      C216           20.5404691882       16.7134392660       -2.5012842361  MEMB      240             0.0000000000
     29878       240  PMPE      H16R           19.9043111701       16.8752170110       -1.6236783467  MEMB      240             0.0000000000
     29879       240  PMPE      H16S           20.2658594385       17.4162867073       -3.2999962597  MEMB      240             0.0000000000
     29880       240  PMPE      H16T           20.3190545760       15.7608504693       -2.8507707296  MEMB      240             0.0000000000
     29881       240  PMPE      C33            25.4640566337       15.9414369834      -11.5095895290  MEMB      240             0.0000000000
     29882       240  PMPE      H3X            25.3142388749       15.4688704967      -10.5138730760  MEMB      240             0.0000000000
     29883       240  PMPE      H3Y            24.7514129634       16.7920212434      -11.5601846662  MEMB      240             0.0000000000
     29884       240  PMPE      C34            26.8929215561       16.4954700219      -11.6492339913  MEMB      240             0.0000000000
     29885       240  PMPE      H4X            26.9737353255       17.0896006890      -12.5834458229  MEMB      240             0.0000000000
     29886       240  PMPE      H4Y            27.5726273034       15.6246247259      -11.7635842313  MEMB      240             0.0000000000
     29887       240  PMPE      C35            27.3528163278       17.4309733554      -10.5159281851  MEMB      240             0.0000000000
     29888       240  PMPE      H5X            28.4549590128       17.5554822741      -10.6138895962  MEMB      240             0.0000000000
     29889       240  PMPE      H5Y            27.2249574059       16.9291369378       -9.5299760767  MEMB      240             0.0000000000
     29890       240  PMPE      C36            26.6171222064       18.7936816661      -10.5335547314  MEMB      240             0.0000000000
     29891       240  PMPE      H6X            25.5352460278       18.6174630963      -10.3712997467  MEMB      240             0.0000000000
     29892       240  PMPE      H6Y            26.5911414843       19.3486434073      -11.5022322620  MEMB      240             0.0000000000
     29893       240  PMPE      C37            27.0850312713       19.7367598152       -9.4108215434  MEMB      240             0.0000000000
     29894       240  PMPE      H7X            26.5474959852       20.6902986224       -9.5887621422  MEMB      240             0.0000000000
     29895       240  PMPE      H7Y            28.1690989299       19.9579397455       -9.4369939221  MEMB      240             0.0000000000
     29896       240  PMPE      C38            26.6605168110       19.2700262045       -8.0062090346  MEMB      240             0.0000000000
     29897       240  PMPE      H8X            27.2643140990       18.4018772170       -7.6747169570  MEMB      240             0.0000000000
     29898       240  PMPE      H8Y            25.6167768662       18.9318238604       -8.1935347582  MEMB      240             0.0000000000
     29899       240  PMPE      C39            26.7377294780       20.3821398154       -6.9279788965  MEMB      240             0.0000000000
     29900       240  PMPE      H9X            25.8025541761       20.9860903873       -6.9649010955  MEMB      240             0.0000000000
     29901       240  PMPE      H9Y            27.6380177245       21.0057375469       -7.1532926861  MEMB      240             0.0000000000
     29902       240  PMPE      C310           26.9467743738       19.9548171183       -5.4570081374  MEMB      240             0.0000000000
     29903       240  PMPE      H10X           27.0939610838       20.8399524586       -4.7909258109  MEMB      240             0.0000000000
     29904       240  PMPE      H10Y           27.9278451658       19.4745108385       -5.3598863646  MEMB      240             0.0000000000
     29905       240  PMPE      C311           25.8117927579       19.1208684759       -4.8635098469  MEMB      240             0.0000000000
     29906       240  PMPE      H11X           26.0716528965       18.8765665508       -3.8016907512  MEMB      240             0.0000000000
     29907       240  PMPE      H11Y           25.5675762221       18.1871018165       -5.4254511918  MEMB      240             0.0000000000
     29908       240  PMPE      C312           24.5769916657       19.9807493907       -4.7824183686  MEMB      240             0.0000000000
     29909       240  PMPE      H12X           24.0725840006       20.0649483094       -5.7630352783  MEMB      240             0.0000000000
     29910       240  PMPE      H12Y           24.9151748630       20.9938997552       -4.4494449171  MEMB      240             0.0000000000
     29911       240  PMPE      C313           23.6349724982       19.3903119870       -3.7924592759  MEMB      240             0.0000000000
     29912       240  PMPE      H13X           24.2559035434       19.1230351308       -2.9095186732  MEMB      240             0.0000000000
     29913       240  PMPE      H13Y           23.1701708780       18.4705756723       -4.1937566546  MEMB      240             0.0000000000
     29914       240  PMPE      C314           22.6206359230       20.4357422003       -3.5646034420  MEMB      240             0.0000000000
     29915       240  PMPE      H14X           21.8057834504       20.4760674450       -4.3295465956  MEMB      240             0.0000000000
     29916       240  PMPE      H14Y           23.0639659194       21.3979551061       -3.2989526662  MEMB      240             0.0000000000
     29917       240  PMPE      C315           21.8829121705       20.1487795781       -2.4377849075  MEMB      240             0.0000000000
     29918       240  PMPE      H15X           21.3399322932       19.1928502422       -2.7931510651  MEMB      240             0.0000000000
     29919       240  PMPE      H15Y           21.2723040941       21.0802795750       -2.2194464566  MEMB      240             0.0000000000
     29920       240  PMPE      C316           22.4868865645       19.9576255767       -1.1090667282  MEMB      240             0.0000000000
     29921       240  PMPE      H16X           22.7346464840       20.9566842588       -0.7827234931  MEMB      240             0.0000000000
     29922       240  PMPE      H16Y           23.1388903634       19.1278364837       -1.2293949029  MEMB      240             0.0000000000
     29923       240  PMPE      H16Z           22.1457450327       19.5549658897       -0.2064046941  MEMB      240             0.0000000000
     29924       241  POPE      N             -28.6057630951        5.8355121112      -17.7498579207  MEMB      241             0.0000000000
     29925       241  POPE      HN1           -27.8620779926        5.9943134330      -18.4456626720  MEMB      241             0.0000000000
     29926       241  POPE      HN2           -29.5116020789        5.7619525158      -18.2625966000  MEMB      241             0.0000000000
     29927       241  POPE      HN3           -28.5864795071        6.6361522951      -17.0775078007  MEMB      241             0.0000000000
     29928       241  POPE      C12           -28.2775597365        4.4642739125      -17.2056240136  MEMB      241             0.0000000000
     29929       241  POPE      H12A          -29.1800595763        3.9452402873      -16.8268257142  MEMB      241             0.0000000000
     29930       241  POPE      H12B          -27.5405310673        4.5744089274      -16.3873234750  MEMB      241             0.0000000000
     29931       241  POPE      C11           -27.6726404750        3.6145154717      -18.3278804739  MEMB      241             0.0000000000
     29932       241  POPE      H11A          -27.4885128952        2.6130728654      -17.8596810889  MEMB      241             0.0000000000
     29933       241  POPE      H11B          -26.7144915950        4.1012839134      -18.6448942938  MEMB      241             0.0000000000
     29934       241  POPE      P             -29.4839670238        2.2846070790      -19.7989521766  MEMB      241             0.0000000000
     29935       241  POPE      O13           -28.6925159182        1.0330692013      -19.9065051430  MEMB      241             0.0000000000
     29936       241  POPE      O14           -30.2889340889        2.7201995412      -20.9553861966  MEMB      241             0.0000000000
     29937       241  POPE      O11           -30.4074328502        2.2645487344      -18.5343482465  MEMB      241             0.0000000000
     29938       241  POPE      O12           -28.5445383518        3.5368757324      -19.4482766126  MEMB      241             0.0000000000
     29939       241  POPE      C1            -30.6202940413        1.0471101932      -17.7990941681  MEMB      241             0.0000000000
     29940       241  POPE      HA            -29.6711952727        0.6394428199      -17.3787884454  MEMB      241             0.0000000000
     29941       241  POPE      HB            -31.1108448735        0.2760009852      -18.4402967176  MEMB      241             0.0000000000
     29942       241  POPE      C2            -31.5419585330        1.2571007869      -16.5640332288  MEMB      241             0.0000000000
     29943       241  POPE      HS            -32.5695830273        1.1833952647      -16.9837733235  MEMB      241             0.0000000000
     29944       241  POPE      O21           -31.2687545938        2.5467731379      -15.9975418585  MEMB      241             0.0000000000
     29945       241  POPE      C21           -32.2261828972        3.2986693004      -15.5284188164  MEMB      241             0.0000000000
     29946       241  POPE      O22           -33.4243840968        3.1008945910      -15.5534726259  MEMB      241             0.0000000000
     29947       241  POPE      C22           -31.5132013177        4.5231045733      -15.0061807736  MEMB      241             0.0000000000
     29948       241  POPE      H2R           -31.5777500763        5.3761874857      -15.5927405037  MEMB      241             0.0000000000
     29949       241  POPE      H2S           -30.4385286120        4.5004402290      -15.1233853937  MEMB      241             0.0000000000
     29950       241  POPE      C3            -31.3441734655        0.1573819181      -15.4831316508  MEMB      241             0.0000000000
     29951       241  POPE      HX            -31.4751975111       -0.8540310066      -15.8840831769  MEMB      241             0.0000000000
     29952       241  POPE      HY            -32.1404423176        0.2172459194      -14.7919221971  MEMB      241             0.0000000000
     29953       241  POPE      O31           -30.0730674407        0.2135975649      -14.8298476660  MEMB      241             0.0000000000
     29954       241  POPE      C31           -29.9786178002        0.9986887679      -13.7803710340  MEMB      241             0.0000000000
     29955       241  POPE      O32           -30.8682923261        1.5185721236      -13.1378082531  MEMB      241             0.0000000000
     29956       241  POPE      C32           -28.5027860181        1.2472264411      -13.5266549628  MEMB      241             0.0000000000
     29957       241  POPE      H2X           -27.8583242426        0.8241096837      -14.3274977717  MEMB      241             0.0000000000
     29958       241  POPE      H2Y           -28.2293319933        0.8141558139      -12.5444870075  MEMB      241             0.0000000000
     29959       241  POPE      C23           -31.9780285420        4.9256570806      -13.6488921522  MEMB      241             0.0000000000
     29960       241  POPE      H3R           -31.9076859414        4.0969434628      -12.9415647402  MEMB      241             0.0000000000
     29961       241  POPE      H3S           -33.0329473062        5.2365410543      -13.6651827325  MEMB      241             0.0000000000
     29962       241  POPE      C24           -31.0744015703        5.9771041526      -13.2036735895  MEMB      241             0.0000000000
     29963       241  POPE      H4R           -31.0479159088        6.9141916027      -13.7087853643  MEMB      241             0.0000000000
     29964       241  POPE      H4S           -30.0428665837        5.6319691230      -13.2479920638  MEMB      241             0.0000000000
     29965       241  POPE      C25           -31.4569800507        6.4470450593      -11.9371540454  MEMB      241             0.0000000000
     29966       241  POPE      H5R           -32.4608507524        6.6225158515      -11.5710318930  MEMB      241             0.0000000000
     29967       241  POPE      H5S           -31.1964115833        7.5412034562      -12.0815586303  MEMB      241             0.0000000000
     29968       241  POPE      C26           -30.7875283792        5.4866856236      -11.0007764918  MEMB      241             0.0000000000
     29969       241  POPE      H6R           -29.6234732056        5.4742527724      -11.1669041483  MEMB      241             0.0000000000
     29970       241  POPE      H6S           -30.8292459320        4.4519568537      -10.8826276272  MEMB      241             0.0000000000
     29971       241  POPE      C27           -31.3669086056        5.8206547782       -9.6887660837  MEMB      241             0.0000000000
     29972       241  POPE      H7R           -31.7611157573        6.9466098183       -9.4463884487  MEMB      241             0.0000000000
     29973       241  POPE      H7S           -30.1891217123        5.6430274501       -9.2450627039  MEMB      241             0.0000000000
     29974       241  POPE      C28           -32.6705493255        5.3420932433       -8.9712054003  MEMB      241             0.0000000000
     29975       241  POPE      H8R           -33.3474663717        5.6576393525       -9.6852798266  MEMB      241             0.0000000000
     29976       241  POPE      H8S           -33.0141650482        5.7327698384       -8.1489354067  MEMB      241             0.0000000000
     29977       241  POPE      C29           -32.5132241412        4.3822218150       -7.8828387203  MEMB      241             0.0000000000
     29978       241  POPE      H91           -31.8168773117        3.9086549657       -8.6121434058  MEMB      241             0.0000000000
     29979       241  POPE      C210          -32.4409570764        4.0188156914       -6.4754181436  MEMB      241             0.0000000000
     29980       241  POPE      H101          -32.0278658705        3.0382971521       -6.2099192783  MEMB      241             0.0000000000
     29981       241  POPE      C211          -32.5596649504        4.6636189365       -5.1473935829  MEMB      241             0.0000000000
     29982       241  POPE      H11R          -33.5838547486        4.9645394158       -5.0741988951  MEMB      241             0.0000000000
     29983       241  POPE      H11S          -32.2802008073        5.6660041342       -5.0086750146  MEMB      241             0.0000000000
     29984       241  POPE      C212          -31.6325411458        4.3170975611       -4.0617667614  MEMB      241             0.0000000000
     29985       241  POPE      H12R          -31.7621248861        3.2753479804       -3.8131565356  MEMB      241             0.0000000000
     29986       241  POPE      H12S          -31.9725538727        5.0610472910       -3.3055450812  MEMB      241             0.0000000000
     29987       241  POPE      C213          -30.1772076733        4.4286522360       -4.3405986756  MEMB      241             0.0000000000
     29988       241  POPE      H13R          -30.0296832888        4.8266303839       -5.3543690122  MEMB      241             0.0000000000
     29989       241  POPE      H13S          -29.7285033953        3.4974007467       -4.6028056430  MEMB      241             0.0000000000
     29990       241  POPE      C214          -29.4550508682        4.8580203161       -3.1013039272  MEMB      241             0.0000000000
     29991       241  POPE      H14R          -28.3538926104        4.7652570829       -3.2260134923  MEMB      241             0.0000000000
     29992       241  POPE      H14S          -29.7368949322        4.3049371785       -2.2267975524  MEMB      241             0.0000000000
     29993       241  POPE      C215          -30.0413161671        6.0223820606       -2.4239240699  MEMB      241             0.0000000000
     29994       241  POPE      H15R          -30.8712978622        6.6614934466       -2.4784691951  MEMB      241             0.0000000000
     29995       241  POPE      H15S          -29.4601842706        6.4560738585       -3.0424450385  MEMB      241             0.0000000000
     29996       241  POPE      C216          -29.4006526290        6.6125646456       -1.4377166175  MEMB      241             0.0000000000
     29997       241  POPE      H16R          -29.6109476839        7.8150742284       -1.5644504382  MEMB      241             0.0000000000
     29998       241  POPE      H16S          -28.3837424348        6.1169689677       -1.6244544419  MEMB      241             0.0000000000
     29999       241  POPE      C217          -29.5132207091        6.0180569652       -0.1888822610  MEMB      241             0.0000000000
     30000       241  POPE      H17R          -29.0193453545        5.0501657297       -0.2375805697  MEMB      241             0.0000000000
     30001       241  POPE      H17S          -30.5922352944        6.1079242701       -0.2322426536  MEMB      241             0.0000000000
     30002       241  POPE      C218          -28.9107360396        6.5470242359        0.9950680655  MEMB      241             0.0000000000
     30003       241  POPE      H18R          -27.7986369351        6.5142200886        1.1618966298  MEMB      241             0.0000000000
     30004       241  POPE      H18S          -29.4293157386        6.1884061697        1.8793273445  MEMB      241             0.0000000000
     30005       241  POPE      H18T          -29.3301874911        7.5511210305        0.9958265286  MEMB      241             0.0000000000
     30006       241  POPE      C33           -28.2476684753        2.7574387989      -13.5230002823  MEMB      241             0.0000000000
     30007       241  POPE      H3X           -28.8699786040        3.2155454383      -12.7125718885  MEMB      241             0.0000000000
     30008       241  POPE      H3Y           -28.4963400030        3.1734694133      -14.5218906341  MEMB      241             0.0000000000
     30009       241  POPE      C34           -26.7817763560        3.0306531980      -13.2226405987  MEMB      241             0.0000000000
     30010       241  POPE      H4X           -26.0925003843        2.4968018522      -13.9284584952  MEMB      241             0.0000000000
     30011       241  POPE      H4Y           -26.6668152338        2.6524896300      -12.1904018217  MEMB      241             0.0000000000
     30012       241  POPE      C35           -26.3346717280        4.4935860709      -13.2192980037  MEMB      241             0.0000000000
     30013       241  POPE      H5X           -27.0501127178        5.2114446740      -12.7820440897  MEMB      241             0.0000000000
     30014       241  POPE      H5Y           -26.2018401488        4.7009749299      -14.2988923914  MEMB      241             0.0000000000
     30015       241  POPE      C36           -24.9752766219        4.6805721666      -12.5544209110  MEMB      241             0.0000000000
     30016       241  POPE      H6X           -24.4148243399        5.5864166842      -12.8741441229  MEMB      241             0.0000000000
     30017       241  POPE      H6Y           -24.4315903113        3.7811738625      -12.8715833966  MEMB      241             0.0000000000
     30018       241  POPE      C37           -24.8495431296        4.4550216467      -11.0718490064  MEMB      241             0.0000000000
     30019       241  POPE      H7X           -23.7570619374        4.6242891007      -10.8714650886  MEMB      241             0.0000000000
     30020       241  POPE      H7Y           -25.1546390845        3.4037308452      -10.8840754531  MEMB      241             0.0000000000
     30021       241  POPE      C38           -25.6398503476        5.2918921348      -10.1215006740  MEMB      241             0.0000000000
     30022       241  POPE      H8X           -26.7015066040        5.2377026209      -10.3770535792  MEMB      241             0.0000000000
     30023       241  POPE      H8Y           -25.2971939885        6.3342957367      -10.2574175400  MEMB      241             0.0000000000
     30024       241  POPE      C39           -25.5498601451        4.8889286470       -8.6428143754  MEMB      241             0.0000000000
     30025       241  POPE      H9X           -25.9627923341        5.7690853279       -8.1131860535  MEMB      241             0.0000000000
     30026       241  POPE      H9Y           -24.5443167541        4.6416092808       -8.2336195312  MEMB      241             0.0000000000
     30027       241  POPE      C310          -26.3737021616        3.7158686359       -8.3568604193  MEMB      241             0.0000000000
     30028       241  POPE      H10X          -25.9744793486        2.8631034724       -8.8725074468  MEMB      241             0.0000000000
     30029       241  POPE      H10Y          -27.3354639415        3.8617012780       -8.8157696628  MEMB      241             0.0000000000
     30030       241  POPE      C311          -26.4407133089        3.4128774744       -6.8823214408  MEMB      241             0.0000000000
     30031       241  POPE      H11X          -26.8842883031        4.2596042376       -6.3465541631  MEMB      241             0.0000000000
     30032       241  POPE      H11Y          -25.4161097520        3.4904848238       -6.4955307571  MEMB      241             0.0000000000
     30033       241  POPE      C312          -27.0466222517        2.0104286870       -6.6922354254  MEMB      241             0.0000000000
     30034       241  POPE      H12X          -26.5352291768        1.1631986370       -7.2114422265  MEMB      241             0.0000000000
     30035       241  POPE      H12Y          -28.0718892819        1.9102509583       -7.0862982403  MEMB      241             0.0000000000
     30036       241  POPE      C313          -27.2732216191        1.7051057235       -5.2532638227  MEMB      241             0.0000000000
     30037       241  POPE      H13X          -27.7392990617        0.6942528894       -5.1948572417  MEMB      241             0.0000000000
     30038       241  POPE      H13Y          -27.8796855276        2.4601945358       -4.7459196833  MEMB      241             0.0000000000
     30039       241  POPE      C314          -26.1123782162        1.8503392647       -4.3588521115  MEMB      241             0.0000000000
     30040       241  POPE      H14X          -25.7385253551        2.7827184338       -4.0305590244  MEMB      241             0.0000000000
     30041       241  POPE      H14Y          -25.3288087406        1.2810629922       -4.7375657370  MEMB      241             0.0000000000
     30042       241  POPE      C315          -26.2862418732        1.2589567498       -3.0526484965  MEMB      241             0.0000000000
     30043       241  POPE      H15X          -25.2631373683        0.9914903772       -2.5722222780  MEMB      241             0.0000000000
     30044       241  POPE      H15Y          -26.8363201743        0.4805062031       -3.6591115296  MEMB      241             0.0000000000
     30045       241  POPE      C316          -27.4131375621        0.9770474901       -2.1493273275  MEMB      241             0.0000000000
     30046       241  POPE      H16X          -28.2872011644        0.4168354044       -2.5729785242  MEMB      241             0.0000000000
     30047       241  POPE      H16Y          -27.4912012054        1.9670661377       -1.7512430314  MEMB      241             0.0000000000
     30048       241  POPE      H16Z          -27.1656893975        0.2230051311       -1.3583695931  MEMB      241             0.0000000000
     30049       242  POPE      N             -23.9612518643      -15.8157395483      -21.1358574290  MEMB      242             0.0000000000
     30050       242  POPE      HN1           -24.7770411710      -16.4632372570      -21.0522181426  MEMB      242             0.0000000000
     30051       242  POPE      HN2           -24.2599022274      -14.8164643925      -21.2126537281  MEMB      242             0.0000000000
     30052       242  POPE      HN3           -23.3741252405      -16.1003472192      -21.9369907119  MEMB      242             0.0000000000
     30053       242  POPE      C12           -23.0847156740      -16.0169240068      -19.9492163424  MEMB      242             0.0000000000
     30054       242  POPE      H12A          -23.5674599619      -15.4741414421      -19.1031652658  MEMB      242             0.0000000000
     30055       242  POPE      H12B          -22.0943711308      -15.5839482399      -20.2479433662  MEMB      242             0.0000000000
     30056       242  POPE      C11           -23.0030121860      -17.5272304020      -19.6501707599  MEMB      242             0.0000000000
     30057       242  POPE      H11A          -22.1432160933      -17.6736572303      -18.9273661240  MEMB      242             0.0000000000
     30058       242  POPE      H11B          -22.8090314987      -18.0702200291      -20.5970308630  MEMB      242             0.0000000000
     30059       242  POPE      P             -24.1866078365      -19.3873383422      -18.2677564834  MEMB      242             0.0000000000
     30060       242  POPE      O13           -23.3872053356      -20.4082776595      -18.9992355279  MEMB      242             0.0000000000
     30061       242  POPE      O14           -25.5541710638      -19.7496838172      -17.8489525717  MEMB      242             0.0000000000
     30062       242  POPE      O11           -23.3723408560      -18.8575024303      -17.0392721363  MEMB      242             0.0000000000
     30063       242  POPE      O12           -24.2589958343      -18.0552054707      -19.1815443773  MEMB      242             0.0000000000
     30064       242  POPE      C1            -23.6669725964      -17.5627996183      -16.4819183006  MEMB      242             0.0000000000
     30065       242  POPE      HA            -24.6076812731      -17.6311342454      -15.8845614435  MEMB      242             0.0000000000
     30066       242  POPE      HB            -23.7152565564      -16.7622402970      -17.2531658699  MEMB      242             0.0000000000
     30067       242  POPE      C2            -22.5212558061      -17.0781751845      -15.5603277495  MEMB      242             0.0000000000
     30068       242  POPE      HS            -21.7147777801      -16.6672240208      -16.2187943860  MEMB      242             0.0000000000
     30069       242  POPE      O21           -22.1387448186      -18.2434321016      -14.8404090441  MEMB      242             0.0000000000
     30070       242  POPE      C21           -20.8831539623      -18.4408998899      -14.6304589931  MEMB      242             0.0000000000
     30071       242  POPE      O22           -19.9726605522      -17.6767791417      -14.9014908820  MEMB      242             0.0000000000
     30072       242  POPE      C22           -20.8166515746      -19.7440463991      -13.8232548678  MEMB      242             0.0000000000
     30073       242  POPE      H2R           -20.1526503390      -20.4878582392      -14.2946245175  MEMB      242             0.0000000000
     30074       242  POPE      H2S           -21.8002330756      -20.2326568315      -13.7085240676  MEMB      242             0.0000000000
     30075       242  POPE      C3            -22.9573142946      -15.9455823111      -14.5876155616  MEMB      242             0.0000000000
     30076       242  POPE      HX            -23.1593892456      -15.0590398181      -15.2341621834  MEMB      242             0.0000000000
     30077       242  POPE      HY            -22.1693619199      -15.6440139210      -13.8610627548  MEMB      242             0.0000000000
     30078       242  POPE      O31           -24.1767863910      -16.3453708294      -13.9525507868  MEMB      242             0.0000000000
     30079       242  POPE      C31           -24.1665915381      -16.9240336474      -12.7282293035  MEMB      242             0.0000000000
     30080       242  POPE      O32           -23.2307768402      -16.7892929283      -11.9514478355  MEMB      242             0.0000000000
     30081       242  POPE      C32           -25.6601070025      -17.3340295081      -12.3418480842  MEMB      242             0.0000000000
     30082       242  POPE      H2X           -26.0678734336      -17.7336728565      -13.2365334910  MEMB      242             0.0000000000
     30083       242  POPE      H2Y           -26.5828474802      -16.6477258867      -12.2706849102  MEMB      242             0.0000000000
     30084       242  POPE      C23           -20.4261659579      -19.4370634482      -12.4235018793  MEMB      242             0.0000000000
     30085       242  POPE      H3R           -20.9616888590      -18.6254532621      -11.8906886258  MEMB      242             0.0000000000
     30086       242  POPE      H3S           -19.3923205005      -19.0452994610      -12.4657595634  MEMB      242             0.0000000000
     30087       242  POPE      C24           -20.5944790511      -20.6419518879      -11.5470339591  MEMB      242             0.0000000000
     30088       242  POPE      H4R           -19.9543514994      -21.4753945243      -11.9328506730  MEMB      242             0.0000000000
     30089       242  POPE      H4S           -21.5003850313      -21.0145793926      -11.1367879677  MEMB      242             0.0000000000
     30090       242  POPE      C25           -20.0991814296      -20.1750234569      -10.2420173900  MEMB      242             0.0000000000
     30091       242  POPE      H5R           -19.4240106353      -19.4472705792      -10.7151341634  MEMB      242             0.0000000000
     30092       242  POPE      H5S           -19.5409835394      -20.9328641230       -9.9513902928  MEMB      242             0.0000000000
     30093       242  POPE      C26           -20.2662354292      -19.1784364375       -9.0181975432  MEMB      242             0.0000000000
     30094       242  POPE      H6R           -20.8368678488      -19.9543859498       -8.4947516971  MEMB      242             0.0000000000
     30095       242  POPE      H6S           -20.4683457567      -18.4317329502       -9.7593367733  MEMB      242             0.0000000000
     30096       242  POPE      C27           -19.0879072359      -18.4630484816       -7.9526726163  MEMB      242             0.0000000000
     30097       242  POPE      H7R           -17.9900312909      -17.9660702751       -8.3030068818  MEMB      242             0.0000000000
     30098       242  POPE      H7S           -18.7658257993      -19.3359307580       -7.2841886023  MEMB      242             0.0000000000
     30099       242  POPE      C28           -19.4961696916      -17.7098326003       -7.0117660745  MEMB      242             0.0000000000
     30100       242  POPE      H8R           -18.5582954984      -17.4327330485       -6.5461488042  MEMB      242             0.0000000000
     30101       242  POPE      H8S           -20.0435845212      -18.4906183511       -6.4696359265  MEMB      242             0.0000000000
     30102       242  POPE      C29           -20.1756773806      -16.6985786404       -7.8018690631  MEMB      242             0.0000000000
     30103       242  POPE      H91           -19.5415593307      -16.1996969401       -8.5508727819  MEMB      242             0.0000000000
     30104       242  POPE      C210          -21.4716558103      -16.4705170926       -7.6089995027  MEMB      242             0.0000000000
     30105       242  POPE      H101          -21.9829797169      -15.6603124021       -8.1294609783  MEMB      242             0.0000000000
     30106       242  POPE      C211          -22.3586666940      -17.1839547229       -6.6222146326  MEMB      242             0.0000000000
     30107       242  POPE      H11R          -22.0761558705      -18.2267723950       -6.3952491462  MEMB      242             0.0000000000
     30108       242  POPE      H11S          -23.3489172982      -17.2560400447       -7.0753724058  MEMB      242             0.0000000000
     30109       242  POPE      C212          -22.5573641882      -16.5334560933       -5.3002411166  MEMB      242             0.0000000000
     30110       242  POPE      H12R          -23.3057511212      -15.7128985122       -5.3129072043  MEMB      242             0.0000000000
     30111       242  POPE      H12S          -21.5759099320      -16.0424649626       -5.1588186898  MEMB      242             0.0000000000
     30112       242  POPE      C213          -22.9508493344      -17.4880310533       -4.1082459167  MEMB      242             0.0000000000
     30113       242  POPE      H13R          -23.1106988101      -16.9861258999       -3.1255751533  MEMB      242             0.0000000000
     30114       242  POPE      H13S          -22.1375081089      -18.1682423315       -3.8216439306  MEMB      242             0.0000000000
     30115       242  POPE      C214          -24.3289056933      -18.0863375117       -4.1933507046  MEMB      242             0.0000000000
     30116       242  POPE      H14R          -24.4708662621      -18.4777759228       -5.2043091776  MEMB      242             0.0000000000
     30117       242  POPE      H14S          -25.1140791944      -17.3045545325       -4.1142217093  MEMB      242             0.0000000000
     30118       242  POPE      C215          -24.5847814061      -19.2110833237       -3.1607912076  MEMB      242             0.0000000000
     30119       242  POPE      H15R          -23.7868835832      -19.9843575954       -3.2475055106  MEMB      242             0.0000000000
     30120       242  POPE      H15S          -25.5973917049      -19.6342011712       -3.3712241508  MEMB      242             0.0000000000
     30121       242  POPE      C216          -24.6440546086      -18.7771862558       -1.6956602204  MEMB      242             0.0000000000
     30122       242  POPE      H16R          -23.6261686482      -18.5612018738       -1.2939078195  MEMB      242             0.0000000000
     30123       242  POPE      H16S          -25.0505274532      -19.5556211255       -1.0073564509  MEMB      242             0.0000000000
     30124       242  POPE      C217          -25.5510231619      -17.5641039664       -1.5270889095  MEMB      242             0.0000000000
     30125       242  POPE      H17R          -25.3297752649      -16.7308163685       -2.2253995823  MEMB      242             0.0000000000
     30126       242  POPE      H17S          -25.2761526863      -17.2592851088       -0.4971321493  MEMB      242             0.0000000000
     30127       242  POPE      C218          -27.0561650841      -17.7912609569       -1.6994630393  MEMB      242             0.0000000000
     30128       242  POPE      H18R          -27.3019796727      -18.0463607455       -2.7617150762  MEMB      242             0.0000000000
     30129       242  POPE      H18S          -27.5838406592      -16.8534973834       -1.4239813840  MEMB      242             0.0000000000
     30130       242  POPE      H18T          -27.4236331279      -18.5798805745       -1.0186249063  MEMB      242             0.0000000000
     30131       242  POPE      C33           -25.6722969432      -17.8236880770      -10.9148384069  MEMB      242             0.0000000000
     30132       242  POPE      H3X           -26.7425074124      -17.8774549596      -10.6606181521  MEMB      242             0.0000000000
     30133       242  POPE      H3Y           -25.1647548657      -17.1549512505      -10.2042645359  MEMB      242             0.0000000000
     30134       242  POPE      C34           -25.0601231856      -19.1868467418      -10.7480724914  MEMB      242             0.0000000000
     30135       242  POPE      H4X           -23.9513699437      -19.0751618198      -10.7955318683  MEMB      242             0.0000000000
     30136       242  POPE      H4Y           -25.4037179522      -19.7653544639      -11.6322955172  MEMB      242             0.0000000000
     30137       242  POPE      C35           -25.4567016481      -19.8313821139       -9.4027017763  MEMB      242             0.0000000000
     30138       242  POPE      H5X           -26.5188793555      -20.1604889072       -9.3860884356  MEMB      242             0.0000000000
     30139       242  POPE      H5Y           -25.3506672706      -19.0619376121       -8.6030507962  MEMB      242             0.0000000000
     30140       242  POPE      C36           -24.5597723541      -20.9968497506       -8.9847524803  MEMB      242             0.0000000000
     30141       242  POPE      H6X           -24.9277364150      -21.4468807157       -8.0213685743  MEMB      242             0.0000000000
     30142       242  POPE      H6Y           -23.5670751098      -20.5852671491       -8.7280358900  MEMB      242             0.0000000000
     30143       242  POPE      C37           -24.3186667752      -22.0327810673      -10.0882777867  MEMB      242             0.0000000000
     30144       242  POPE      H7X           -23.4518663657      -21.8665369495      -10.7350292033  MEMB      242             0.0000000000
     30145       242  POPE      H7Y           -25.1435021225      -22.1037164577      -10.8258354794  MEMB      242             0.0000000000
     30146       242  POPE      C38           -24.2111874307      -23.3477381064       -9.4398789941  MEMB      242             0.0000000000
     30147       242  POPE      H8X           -24.5478774562      -24.0772273878      -10.1731722463  MEMB      242             0.0000000000
     30148       242  POPE      H8Y           -25.0681366141      -23.2968230463       -8.7502110066  MEMB      242             0.0000000000
     30149       242  POPE      C39           -22.9056673225      -23.7189688785       -8.7404159081  MEMB      242             0.0000000000
     30150       242  POPE      H9X           -21.9593820447      -23.4898411990       -9.2353645584  MEMB      242             0.0000000000
     30151       242  POPE      H9Y           -22.9734076986      -24.8244019084       -8.8791869065  MEMB      242             0.0000000000
     30152       242  POPE      C310          -22.7513581672      -23.2251007756       -7.2731133737  MEMB      242             0.0000000000
     30153       242  POPE      H10X          -23.7020654708      -23.4863044866       -6.7298066667  MEMB      242             0.0000000000
     30154       242  POPE      H10Y          -22.7423305153      -22.1658196321       -7.1233936445  MEMB      242             0.0000000000
     30155       242  POPE      C311          -21.3984647015      -23.6350196356       -6.5580423143  MEMB      242             0.0000000000
     30156       242  POPE      H11X          -20.6888189034      -24.0654398894       -7.1250006266  MEMB      242             0.0000000000
     30157       242  POPE      H11Y          -21.3126116260      -24.6627171525       -6.2909285371  MEMB      242             0.0000000000
     30158       242  POPE      C312          -20.9542509986      -22.9221250118       -5.3156774955  MEMB      242             0.0000000000
     30159       242  POPE      H12X          -20.1332283780      -23.4455707965       -4.8342422037  MEMB      242             0.0000000000
     30160       242  POPE      H12Y          -21.7338407067      -22.7691868532       -4.5776142376  MEMB      242             0.0000000000
     30161       242  POPE      C313          -21.2851888239      -21.5385227112       -5.1665612368  MEMB      242             0.0000000000
     30162       242  POPE      H13X          -22.3815133915      -21.3117466040       -5.2250164133  MEMB      242             0.0000000000
     30163       242  POPE      H13Y          -20.6883000585      -21.3179723382       -6.0275636089  MEMB      242             0.0000000000
     30164       242  POPE      C314          -20.9014820583      -20.9282174341       -3.9176345300  MEMB      242             0.0000000000
     30165       242  POPE      H14X          -21.3517503818      -21.2104709678       -2.9592140556  MEMB      242             0.0000000000
     30166       242  POPE      H14Y          -20.7853984144      -19.8266887753       -4.0181591132  MEMB      242             0.0000000000
     30167       242  POPE      C315          -19.6868628216      -21.2048203683       -3.6279470675  MEMB      242             0.0000000000
     30168       242  POPE      H15X          -19.2097787102      -20.6507674869       -4.2528793044  MEMB      242             0.0000000000
     30169       242  POPE      H15Y          -19.1595099252      -22.2322976279       -3.9164691751  MEMB      242             0.0000000000
     30170       242  POPE      C316          -19.5496002118      -20.1293569958       -2.4069133873  MEMB      242             0.0000000000
     30171       242  POPE      H16X          -18.4851451248      -19.8562803869       -1.9418060086  MEMB      242             0.0000000000
     30172       242  POPE      H16Y          -19.6012020703      -20.8540741543       -1.9423870315  MEMB      242             0.0000000000
     30173       242  POPE      H16Z          -19.1111465515      -19.2338084849       -2.1739455241  MEMB      242             0.0000000000
     30174       243  OYPE      N              30.6745000580        8.4152032819      -21.8837036080  MEMB      243             0.0000000000
     30175       243  OYPE      HN1            30.4614155410        8.9029465524      -22.7689301693  MEMB      243             0.0000000000
     30176       243  OYPE      HN2            31.3742922416        8.9260931820      -21.2979240135  MEMB      243             0.0000000000
     30177       243  OYPE      HN3            31.0457966284        7.4877643178      -22.1299000731  MEMB      243             0.0000000000
     30178       243  OYPE      C12            29.3600023524        8.3999079657      -21.1693620016  MEMB      243             0.0000000000
     30179       243  OYPE      H12A           28.6999765810        7.6859212654      -21.6965735086  MEMB      243             0.0000000000
     30180       243  OYPE      H12B           29.0082280187        9.4476499907      -21.2754471354  MEMB      243             0.0000000000
     30181       243  OYPE      C11            29.4869668199        7.9703874297      -19.7087877167  MEMB      243             0.0000000000
     30182       243  OYPE      H11A           30.0943352668        7.0398178536      -19.7268332391  MEMB      243             0.0000000000
     30183       243  OYPE      H11B           28.4773415731        7.7433584830      -19.2747155072  MEMB      243             0.0000000000
     30184       243  OYPE      P              29.5594187764        9.8681332526      -17.7976099907  MEMB      243             0.0000000000
     30185       243  OYPE      O13            28.9091395046        9.0489781930      -16.7679011247  MEMB      243             0.0000000000
     30186       243  OYPE      O14            28.7209761300       10.8772385144      -18.4829285879  MEMB      243             0.0000000000
     30187       243  OYPE      O11            30.8470184964       10.5521578142      -17.1957470683  MEMB      243             0.0000000000
     30188       243  OYPE      O12            30.1834304334        8.9657596357      -18.9740940777  MEMB      243             0.0000000000
     30189       243  OYPE      C1             32.0584220181       10.9438371546      -17.8509607103  MEMB      243             0.0000000000
     30190       243  OYPE      HA             31.8905645776       11.0229269732      -18.9396546321  MEMB      243             0.0000000000
     30191       243  OYPE      HB             32.8575745289       10.1879940312      -17.7245783251  MEMB      243             0.0000000000
     30192       243  OYPE      C2             32.6286038776       12.2781000701      -17.2746873332  MEMB      243             0.0000000000
     30193       243  OYPE      HS             33.6234439821       12.4940708526      -17.7467803394  MEMB      243             0.0000000000
     30194       243  OYPE      O21            32.8164014335       12.1513327748      -15.8547676521  MEMB      243             0.0000000000
     30195       243  OYPE      C21            33.3523004187       13.1586777410      -15.2261015174  MEMB      243             0.0000000000
     30196       243  OYPE      O22            33.7925476656       14.1890130177      -15.7190412136  MEMB      243             0.0000000000
     30197       243  OYPE      C22            33.3305017706       12.7963030782      -13.7398000557  MEMB      243             0.0000000000
     30198       243  OYPE      H2R            33.9682778260       11.9207410839      -13.5660507339  MEMB      243             0.0000000000
     30199       243  OYPE      H2S            32.2797121214       12.5092017051      -13.4636492966  MEMB      243             0.0000000000
     30200       243  OYPE      C3             31.5780568144       13.3575555123      -17.5964315042  MEMB      243             0.0000000000
     30201       243  OYPE      HX             31.2141621115       13.2162453090      -18.6299725524  MEMB      243             0.0000000000
     30202       243  OYPE      HY             32.0205909524       14.3544671551      -17.5675143839  MEMB      243             0.0000000000
     30203       243  OYPE      O31            30.4103017954       13.1810191575      -16.7838976596  MEMB      243             0.0000000000
     30204       243  OYPE      C31            30.1821519358       13.9869895045      -15.8169344171  MEMB      243             0.0000000000
     30205       243  OYPE      O32            30.8710027151       14.9443106005      -15.5192943984  MEMB      243             0.0000000000
     30206       243  OYPE      C32            28.8824946718       13.5788954278      -15.0998548322  MEMB      243             0.0000000000
     30207       243  OYPE      H2X            28.4251124941       14.5582713253      -14.8471927972  MEMB      243             0.0000000000
     30208       243  OYPE      H2Y            28.2308000289       13.0793277630      -15.8441975760  MEMB      243             0.0000000000
     30209       243  OYPE      C23            33.9047851829       13.9900195882      -12.9548727590  MEMB      243             0.0000000000
     30210       243  OYPE      H3R            33.2775033178       14.8498677183      -13.3511698814  MEMB      243             0.0000000000
     30211       243  OYPE      H3S            34.8458583610       14.4366266622      -13.2474355485  MEMB      243             0.0000000000
     30212       243  OYPE      C24            34.0396542148       13.8299897285      -11.3639858988  MEMB      243             0.0000000000
     30213       243  OYPE      H4R            33.2103624068       13.4342183706      -10.7354044302  MEMB      243             0.0000000000
     30214       243  OYPE      H4S            34.0482789545       14.8200257675      -10.8569953538  MEMB      243             0.0000000000
     30215       243  OYPE      C25            34.9496711563       13.0202326240      -10.6643850359  MEMB      243             0.0000000000
     30216       243  OYPE      H5R            35.8689755909       13.4143658597      -11.0246785505  MEMB      243             0.0000000000
     30217       243  OYPE      H5S            34.6997490651       12.0051594365      -10.9711332445  MEMB      243             0.0000000000
     30218       243  OYPE      C26            34.8212965222       13.2226589202       -9.1638527390  MEMB      243             0.0000000000
     30219       243  OYPE      H6R            34.7970042998       12.3032187401       -8.6105224243  MEMB      243             0.0000000000
     30220       243  OYPE      H6S            33.8365845497       13.3433026948       -9.0466167163  MEMB      243             0.0000000000
     30221       243  OYPE      C27            35.6700559481       14.3235259264       -8.5705175334  MEMB      243             0.0000000000
     30222       243  OYPE      H7R            35.4955884303       15.2587791938       -9.0391226650  MEMB      243             0.0000000000
     30223       243  OYPE      H7S            36.6619937828       14.0997221272       -8.7744281699  MEMB      243             0.0000000000
     30224       243  OYPE      C28            35.7212048058       14.5212279960       -7.1206974945  MEMB      243             0.0000000000
     30225       243  OYPE      H8R            34.7368999740       14.8703447346       -7.2110300706  MEMB      243             0.0000000000
     30226       243  OYPE      H8S            35.9739038897       15.5748192429       -6.7316128182  MEMB      243             0.0000000000
     30227       243  OYPE      C29            36.0586454257       13.0962769220       -6.4504906263  MEMB      243             0.0000000000
     30228       243  OYPE      H9R            37.0404023220       12.9131587936       -6.8337568059  MEMB      243             0.0000000000
     30229       243  OYPE      C210           35.5294999420       12.3759096963       -5.2442575465  MEMB      243             0.0000000000
     30230       243  OYPE      H10R           36.4277299186       12.1956781640       -4.6309085587  MEMB      243             0.0000000000
     30231       243  OYPE      C211           34.3621620182       12.6017868593       -4.0207122062  MEMB      243             0.0000000000
     30232       243  OYPE      H11R           33.5260528835       11.6830323430       -4.3630371777  MEMB      243             0.0000000000
     30233       243  OYPE      H11S           34.5941464178       13.4178233461       -4.7747611846  MEMB      243             0.0000000000
     30234       243  OYPE      C212           34.2763793863       13.4374795546       -2.1120845275  MEMB      243             0.0000000000
     30235       243  OYPE      H12R           33.5839993363       14.3180441433       -2.0145629292  MEMB      243             0.0000000000
     30236       243  OYPE      H12S           35.4616874147       13.9139799784       -1.2092916319  MEMB      243             0.0000000000
     30237       243  OYPE      C213           34.3278943389       12.2067950089       -1.6767323865  MEMB      243             0.0000000000
     30238       243  OYPE      H13R           35.0458144096       11.4730874819       -2.1106440137  MEMB      243             0.0000000000
     30239       243  OYPE      H13S           33.4167667906       11.9377496848       -2.1651234900  MEMB      243             0.0000000000
     30240       243  OYPE      C214           34.4582594949       12.2592334434       -0.2871525609  MEMB      243             0.0000000000
     30241       243  OYPE      H14R           33.7601399638       11.4296382377       -0.1619753154  MEMB      243             0.0000000000
     30242       243  OYPE      H14S           34.2531878656       13.1829520020        0.2137042450  MEMB      243             0.0000000000
     30243       243  OYPE      C215           35.6349654346       11.7870920280        0.3480740620  MEMB      243             0.0000000000
     30244       243  OYPE      H15R           36.5151672782       12.3177961705        0.6325028435  MEMB      243             0.0000000000
     30245       243  OYPE      H15S           35.9840260325       11.0963114631       -0.4984799443  MEMB      243             0.0000000000
     30246       243  OYPE      C216           35.2535553664       11.6952239367        1.8021808091  MEMB      243             0.0000000000
     30247       243  OYPE      H16R           35.1180965804       10.7189060157        2.1905544141  MEMB      243             0.0000000000
     30248       243  OYPE      H16S           35.3006099524       12.5826382738        2.3702272389  MEMB      243             0.0000000000
     30249       243  OYPE      H16T           35.7989934613       11.3964509132        2.6829975156  MEMB      243             0.0000000000
     30250       243  OYPE      C33            29.1158892557       12.7074118037      -13.8273452801  MEMB      243             0.0000000000
     30251       243  OYPE      H3X            28.2792991173       12.7410094215      -13.0933539312  MEMB      243             0.0000000000
     30252       243  OYPE      H3Y            30.0413208584       12.9976998696      -13.3246311938  MEMB      243             0.0000000000
     30253       243  OYPE      C34            29.4124524796       11.2313776645      -14.0487439238  MEMB      243             0.0000000000
     30254       243  OYPE      H4X            28.6065371059       10.7951977188      -14.6745331229  MEMB      243             0.0000000000
     30255       243  OYPE      H4Y            30.3805065311       11.1206459351      -14.5932911116  MEMB      243             0.0000000000
     30256       243  OYPE      C35            29.5829896509       10.4834510252      -12.7084015057  MEMB      243             0.0000000000
     30257       243  OYPE      H5X            28.6359049894       10.4588356734      -12.1344122268  MEMB      243             0.0000000000
     30258       243  OYPE      H5Y            30.3104618390       11.0649629568      -12.0891077881  MEMB      243             0.0000000000
     30259       243  OYPE      C36            30.1286384710        9.0568790941      -12.9137939810  MEMB      243             0.0000000000
     30260       243  OYPE      H6X            29.5147929079        8.4370843642      -13.6163591012  MEMB      243             0.0000000000
     30261       243  OYPE      H6Y            31.1090578798        9.2194998379      -13.4157122944  MEMB      243             0.0000000000
     30262       243  OYPE      C37            30.3712779571        8.2428002228      -11.6257993806  MEMB      243             0.0000000000
     30263       243  OYPE      H7X            29.4397507579        8.0801644209      -11.0283396850  MEMB      243             0.0000000000
     30264       243  OYPE      H7Y            30.6924868215        7.2406203754      -11.9809371439  MEMB      243             0.0000000000
     30265       243  OYPE      C38            31.4566697066        8.8389440294      -10.7174198960  MEMB      243             0.0000000000
     30266       243  OYPE      H8X            32.3029707132        9.2843900746      -11.2966222697  MEMB      243             0.0000000000
     30267       243  OYPE      H8Y            30.8865038964        9.6009568728      -10.1435810170  MEMB      243             0.0000000000
     30268       243  OYPE      C39            32.0224289070        7.7542884814       -9.8486106561  MEMB      243             0.0000000000
     30269       243  OYPE      H9X            32.2223027402        6.8211327012      -10.3856304015  MEMB      243             0.0000000000
     30270       243  OYPE      C310           32.2964757860        7.7468467617       -8.5431626540  MEMB      243             0.0000000000
     30271       243  OYPE      H10X           32.6889751150        6.8058537391       -8.1330005054  MEMB      243             0.0000000000
     30272       243  OYPE      C311           32.1293647814        8.8288622568       -7.5244132911  MEMB      243             0.0000000000
     30273       243  OYPE      H11X           31.2165248513        8.6345916319       -6.9321068447  MEMB      243             0.0000000000
     30274       243  OYPE      H11Y           32.9750715068        8.7486179550       -6.8058186336  MEMB      243             0.0000000000
     30275       243  OYPE      C312           32.0138983102       10.2701434819       -7.9965140391  MEMB      243             0.0000000000
     30276       243  OYPE      H12X           31.0229121055       10.5373239022       -8.4184352398  MEMB      243             0.0000000000
     30277       243  OYPE      H12Y           32.8303742531       10.5228345696       -8.7146514871  MEMB      243             0.0000000000
     30278       243  OYPE      C313           32.2012673036       11.1782127402       -6.8583326434  MEMB      243             0.0000000000
     30279       243  OYPE      H13X           33.0368316820       11.1399003805       -6.2425382936  MEMB      243             0.0000000000
     30280       243  OYPE      H13Y           32.9665895328       11.8944684844       -7.2938764925  MEMB      243             0.0000000000
     30281       243  OYPE      C314           30.9321829040       11.7263254393       -6.0926729752  MEMB      243             0.0000000000
     30282       243  OYPE      H14X           30.5049514165       12.2809581436       -6.9532038825  MEMB      243             0.0000000000
     30283       243  OYPE      H14Y           31.1383205384       12.4492123218       -5.2552403955  MEMB      243             0.0000000000
     30284       243  OYPE      C315           29.9704317124       10.9449344305       -5.4106989256  MEMB      243             0.0000000000
     30285       243  OYPE      H15X           29.9618501035       10.0893404626       -6.0925076510  MEMB      243             0.0000000000
     30286       243  OYPE      H15Y           29.0312698712       11.5390947085       -5.4510218577  MEMB      243             0.0000000000
     30287       243  OYPE      C316           30.3064782116       10.8094176803       -3.9244948953  MEMB      243             0.0000000000
     30288       243  OYPE      H16X           31.2640493717       10.2875652023       -3.7500024534  MEMB      243             0.0000000000
     30289       243  OYPE      H16Y           29.4638454381       10.1659848864       -3.6217272995  MEMB      243             0.0000000000
     30290       243  OYPE      C317           30.3077281321       12.1131730486       -3.0657771671  MEMB      243             0.0000000000
     30291       243  OYPE      H17X           29.2728977384       12.5083041932       -3.1017973461  MEMB      243             0.0000000000
     30292       243  OYPE      H17Y           31.0354868231       12.8691104698       -3.4241811741  MEMB      243             0.0000000000
     30293       243  OYPE      C318           30.7567747482       11.9445306062       -1.6374326703  MEMB      243             0.0000000000
     30294       243  OYPE      H18X           30.4327938352       11.0192040674       -1.3180456873  MEMB      243             0.0000000000
     30295       243  OYPE      H18Y           31.6814140284       11.4357273172       -1.5122784383  MEMB      243             0.0000000000
     30296       243  OYPE      H18Z           30.4324474931       12.6637966187       -0.8524779922  MEMB      243             0.0000000000
     30297       244  QMPE      N              -3.4064681369       29.6679680708      -21.4621446846  MEMB      244             0.0000000000
     30298       244  QMPE      HN1            -3.3808822592       30.0374106123      -22.4409537167  MEMB      244             0.0000000000
     30299       244  QMPE      HN2            -2.8454484073       30.2853712945      -20.8174217308  MEMB      244             0.0000000000
     30300       244  QMPE      HN3            -3.0000638399       28.7219145087      -21.4391708619  MEMB      244             0.0000000000
     30301       244  QMPE      C12            -4.7527621317       29.4764455180      -20.8114863666  MEMB      244             0.0000000000
     30302       244  QMPE      H12A           -5.2876341455       28.6162995640      -21.2275015419  MEMB      244             0.0000000000
     30303       244  QMPE      H12B           -5.3881745019       30.3008262955      -21.1058261704  MEMB      244             0.0000000000
     30304       244  QMPE      C11            -4.5960210962       29.3724687846      -19.2912169562  MEMB      244             0.0000000000
     30305       244  QMPE      H11A           -4.2884300678       28.3403636326      -18.9771602296  MEMB      244             0.0000000000
     30306       244  QMPE      H11B           -5.5930976252       29.5276614916      -18.8249495577  MEMB      244             0.0000000000
     30307       244  QMPE      P              -2.3292656286       30.1551103378      -18.1060080313  MEMB      244             0.0000000000
     30308       244  QMPE      O13            -1.4637278226       31.2587571257      -18.5285492841  MEMB      244             0.0000000000
     30309       244  QMPE      O14            -1.8744682565       28.7971969847      -18.4326800211  MEMB      244             0.0000000000
     30310       244  QMPE      O11            -2.6735556997       30.2422008229      -16.5946127647  MEMB      244             0.0000000000
     30311       244  QMPE      O12            -3.7145348995       30.3994725290      -18.8507579967  MEMB      244             0.0000000000
     30312       244  QMPE      C1             -3.5366705460       31.2351871460      -16.0459666345  MEMB      244             0.0000000000
     30313       244  QMPE      HA             -3.8325325720       30.9410152000      -15.0119487493  MEMB      244             0.0000000000
     30314       244  QMPE      HB             -4.4723335617       31.3118326500      -16.6067732211  MEMB      244             0.0000000000
     30315       244  QMPE      C2             -2.7940426325       32.5031110904      -15.7238802110  MEMB      244             0.0000000000
     30316       244  QMPE      HS             -2.7449210929       33.1712498727      -16.6290069733  MEMB      244             0.0000000000
     30317       244  QMPE      O21            -1.5364917039       31.8678849840      -15.3212477979  MEMB      244             0.0000000000
     30318       244  QMPE      C21            -0.5746121507       32.6097513987      -15.1404279286  MEMB      244             0.0000000000
     30319       244  QMPE      O22            -0.6374552448       33.7025744622      -15.0195361130  MEMB      244             0.0000000000
     30320       244  QMPE      C22             0.7950528721       32.4780699483      -14.7710917111  MEMB      244             0.0000000000
     30321       244  QMPE      H2R             1.1287818962       33.5074905595      -14.3085020310  MEMB      244             0.0000000000
     30322       244  QMPE      H2S             1.3726725704       32.3186404221      -15.7009448868  MEMB      244             0.0000000000
     30323       244  QMPE      C3             -3.5810337111       33.2047859159      -14.5975944854  MEMB      244             0.0000000000
     30324       244  QMPE      HX             -4.6441151116       33.4102944531      -14.8926730792  MEMB      244             0.0000000000
     30325       244  QMPE      HY             -3.1290858719       34.0997101812      -14.4274866396  MEMB      244             0.0000000000
     30326       244  QMPE      O31            -3.2814134950       32.6642118430      -13.3163467210  MEMB      244             0.0000000000
     30327       244  QMPE      C31            -4.2692901167       32.5427843999      -12.5597026257  MEMB      244             0.0000000000
     30328       244  QMPE      O32            -5.3919732856       32.9486214825      -12.8497578175  MEMB      244             0.0000000000
     30329       244  QMPE      C32            -3.7629889059       31.6516706883      -11.3353158817  MEMB      244             0.0000000000
     30330       244  QMPE      H2X            -3.0093189866       32.2514762583      -10.8412365940  MEMB      244             0.0000000000
     30331       244  QMPE      H2Y            -4.6011869342       31.5116888592      -10.6305037507  MEMB      244             0.0000000000
     30332       244  QMPE      C23             0.8573528007       31.5082923647      -13.7038630565  MEMB      244             0.0000000000
     30333       244  QMPE      H3R             1.8594435064       31.0836250294      -13.7154742255  MEMB      244             0.0000000000
     30334       244  QMPE      H3S             0.1782320080       30.7287001703      -14.0550865738  MEMB      244             0.0000000000
     30335       244  QMPE      C24             0.4504148732       31.9822192663      -12.3112496233  MEMB      244             0.0000000000
     30336       244  QMPE      H4R            -0.6550562828       31.9896458527      -12.1718500896  MEMB      244             0.0000000000
     30337       244  QMPE      H4S             0.7425878681       33.0378073615      -12.1644358518  MEMB      244             0.0000000000
     30338       244  QMPE      C25             1.1558541145       31.1494962819      -11.2412197460  MEMB      244             0.0000000000
     30339       244  QMPE      H5R             2.2413860819       31.0373358665      -11.4488045755  MEMB      244             0.0000000000
     30340       244  QMPE      H5S             0.7683089713       30.1153171867      -11.2187536575  MEMB      244             0.0000000000
     30341       244  QMPE      C26             0.9989526861       31.7594423833       -9.8707989247  MEMB      244             0.0000000000
     30342       244  QMPE      H6R            -0.0499848853       31.9618578574       -9.6265009862  MEMB      244             0.0000000000
     30343       244  QMPE      H6S             1.5704323377       32.7196223599       -9.7736929991  MEMB      244             0.0000000000
     30344       244  QMPE      C27             1.3500772040       30.7564657409       -8.8407732022  MEMB      244             0.0000000000
     30345       244  QMPE      H7R             2.1642620693       30.1663114486       -9.2402306129  MEMB      244             0.0000000000
     30346       244  QMPE      H7S             0.7280786352       29.9630407192       -8.5145936884  MEMB      244             0.0000000000
     30347       244  QMPE      C28             1.4695229628       31.4422285172       -7.5897095403  MEMB      244             0.0000000000
     30348       244  QMPE      H8R             2.3214523726       31.9080292955       -8.0171288538  MEMB      244             0.0000000000
     30349       244  QMPE      H8S             1.7025274484       30.8734107032       -6.7138478811  MEMB      244             0.0000000000
     30350       244  QMPE      C29             0.4547620194       32.2469486087       -7.0473526782  MEMB      244             0.0000000000
     30351       244  QMPE      H9R            -0.4649303768       31.8310893886       -6.9432268661  MEMB      244             0.0000000000
     30352       244  QMPE      C217            0.8937433118       33.5900913622       -7.0297363030  MEMB      244             0.0000000000
     30353       244  QMPE      H17R            1.9082169399       33.8589765981       -7.3649466500  MEMB      244             0.0000000000
     30354       244  QMPE      H17S            0.1740897414       34.2093016580       -7.2223992899  MEMB      244             0.0000000000
     30355       244  QMPE      C210            0.5575573295       32.8720286201       -5.6589976073  MEMB      244             0.0000000000
     30356       244  QMPE      H10R           -0.2434801079       33.0660072186       -5.0490199991  MEMB      244             0.0000000000
     30357       244  QMPE      C211            1.3559472597       32.4708826578       -4.5132117724  MEMB      244             0.0000000000
     30358       244  QMPE      H11R            1.7979427106       31.6169062680       -4.0383102138  MEMB      244             0.0000000000
     30359       244  QMPE      H11S            1.8012711821       32.4669570046       -5.6469605669  MEMB      244             0.0000000000
     30360       244  QMPE      C212            1.8657976525       33.5162289240       -3.2395545338  MEMB      244             0.0000000000
     30361       244  QMPE      H12R            1.1589097194       33.2719915846       -2.6120470939  MEMB      244             0.0000000000
     30362       244  QMPE      H12S            1.8258586880       34.8134094620       -3.4582451808  MEMB      244             0.0000000000
     30363       244  QMPE      C213            3.1423406882       32.7801354574       -2.8919778371  MEMB      244             0.0000000000
     30364       244  QMPE      H13R            2.8252794692       33.8916051968       -2.5968223546  MEMB      244             0.0000000000
     30365       244  QMPE      H13S            4.1132484509       32.7711447742       -3.4646652794  MEMB      244             0.0000000000
     30366       244  QMPE      C214            3.5891547662       31.7833675282       -1.6410999423  MEMB      244             0.0000000000
     30367       244  QMPE      H14R            4.5398994826       31.3975526090       -2.1674716727  MEMB      244             0.0000000000
     30368       244  QMPE      H14S            2.6203024074       31.6753145994       -1.9607569913  MEMB      244             0.0000000000
     30369       244  QMPE      C215            3.7307406684       32.4035707044       -0.1053795933  MEMB      244             0.0000000000
     30370       244  QMPE      H15R            2.9767337558       33.2921004431        0.1835034233  MEMB      244             0.0000000000
     30371       244  QMPE      H15S            4.8344387050       32.8401862971        0.1380494107  MEMB      244             0.0000000000
     30372       244  QMPE      C216            3.6885246482       31.4105237840        0.4486402535  MEMB      244             0.0000000000
     30373       244  QMPE      H16R            2.7765915418       30.9887183191        0.5380243457  MEMB      244             0.0000000000
     30374       244  QMPE      H16S            3.9686717320       31.5135065760        1.3894470784  MEMB      244             0.0000000000
     30375       244  QMPE      H16T            4.5775792174       31.0036503481        0.0331083068  MEMB      244             0.0000000000
     30376       244  QMPE      C33            -3.3261363483       30.1787650244      -11.7729277353  MEMB      244             0.0000000000
     30377       244  QMPE      H3X            -2.3404493594       30.1018232910      -12.2518266173  MEMB      244             0.0000000000
     30378       244  QMPE      H3Y            -3.9882922611       29.8812133807      -12.6141895143  MEMB      244             0.0000000000
     30379       244  QMPE      C34            -3.2396868898       29.0780928853      -10.6917923464  MEMB      244             0.0000000000
     30380       244  QMPE      H4X            -3.1522303498       28.0597484414      -11.0963447279  MEMB      244             0.0000000000
     30381       244  QMPE      H4Y            -4.0357840644       28.7865309702      -10.0864375789  MEMB      244             0.0000000000
     30382       244  QMPE      C35            -2.2909042019       29.4749623167       -9.5808905079  MEMB      244             0.0000000000
     30383       244  QMPE      H5X            -2.4515064101       30.4978007418       -9.1859242115  MEMB      244             0.0000000000
     30384       244  QMPE      H5Y            -1.3413926593       29.3808154875      -10.1183887768  MEMB      244             0.0000000000
     30385       244  QMPE      C36            -2.1626669754       28.5997148353       -8.3387501749  MEMB      244             0.0000000000
     30386       244  QMPE      H6X            -1.2822806701       28.9808183393       -7.8023212138  MEMB      244             0.0000000000
     30387       244  QMPE      H6Y            -1.9953446987       27.5532926135       -8.5238908140  MEMB      244             0.0000000000
     30388       244  QMPE      C37            -3.4148781803       28.4944041258       -7.5758941842  MEMB      244             0.0000000000
     30389       244  QMPE      H7X            -3.6256371013       29.5478073254       -7.5290986053  MEMB      244             0.0000000000
     30390       244  QMPE      H7Y            -4.1110456991       27.9140639304       -8.2278106839  MEMB      244             0.0000000000
     30391       244  QMPE      C38            -3.2808692209       28.0060616903       -6.1590886277  MEMB      244             0.0000000000
     30392       244  QMPE      H8X            -4.2983392808       27.8258267690       -5.7641803898  MEMB      244             0.0000000000
     30393       244  QMPE      H8Y            -2.7051332012       27.0548458025       -6.2046659216  MEMB      244             0.0000000000
     30394       244  QMPE      C39            -2.5663145196       28.9908835375       -5.2264442564  MEMB      244             0.0000000000
     30395       244  QMPE      H9X            -3.3137742465       29.6069191322       -4.6587393440  MEMB      244             0.0000000000
     30396       244  QMPE      H9Y            -1.8910570310       29.6464412188       -5.8194198502  MEMB      244             0.0000000000
     30397       244  QMPE      C310           -1.6549978018       28.1967361387       -4.2980886248  MEMB      244             0.0000000000
     30398       244  QMPE      H10X           -1.0914921833       27.4614773120       -4.9326872946  MEMB      244             0.0000000000
     30399       244  QMPE      H10Y           -2.3437258790       27.6477203354       -3.6201687957  MEMB      244             0.0000000000
     30400       244  QMPE      C311           -0.6113322114       29.0424606891       -3.5618196990  MEMB      244             0.0000000000
     30401       244  QMPE      H11X            0.2156508613       29.2217418152       -4.2884808057  MEMB      244             0.0000000000
     30402       244  QMPE      H11Y           -0.0566824132       28.4254263642       -2.8338108798  MEMB      244             0.0000000000
     30403       244  QMPE      C312           -1.1116110874       30.3984929383       -2.9828708218  MEMB      244             0.0000000000
     30404       244  QMPE      H12X           -1.2595097273       31.0860367833       -3.8495017030  MEMB      244             0.0000000000
     30405       244  QMPE      H12Y           -0.2193778948       30.8085194423       -2.4677820794  MEMB      244             0.0000000000
     30406       244  QMPE      C313           -2.2943220514       30.4197322832       -1.9512485979  MEMB      244             0.0000000000
     30407       244  QMPE      H13X           -3.2434028471       30.0213331468       -2.3861139923  MEMB      244             0.0000000000
     30408       244  QMPE      H13Y           -2.0458228330       29.7649439689       -1.0795050863  MEMB      244             0.0000000000
     30409       244  QMPE      C314           -2.6017511618       31.8533027820       -1.4346283983  MEMB      244             0.0000000000
     30410       244  QMPE      H14X           -3.2400323323       32.3512290880       -2.1919870025  MEMB      244             0.0000000000
     30411       244  QMPE      H14Y           -1.6642555156       32.4494649442       -1.3565323378  MEMB      244             0.0000000000
     30412       244  QMPE      C315           -3.3033497199       31.9558053698       -0.0757638800  MEMB      244             0.0000000000
     30413       244  QMPE      H15X           -3.4378058089       33.0309719606        0.2160564630  MEMB      244             0.0000000000
     30414       244  QMPE      H15Y           -4.2880331152       31.4422390301       -0.0453155589  MEMB      244             0.0000000000
     30415       244  QMPE      H15Z           -2.6642157111       31.4230090207        0.6465620391  MEMB      244             0.0000000000
     30416       245  PMPE      N               3.0436143247      -28.4080844515      -16.2808655023  MEMB      245             0.0000000000
     30417       245  PMPE      HN1             2.9121991531      -27.5946286384      -15.6454222106  MEMB      245             0.0000000000
     30418       245  PMPE      HN2             2.1096365993      -28.6491217109      -16.6865047541  MEMB      245             0.0000000000
     30419       245  PMPE      HN3             3.3814635480      -29.2320080081      -15.7322440370  MEMB      245             0.0000000000
     30420       245  PMPE      C12             3.9738767211      -28.0588714616      -17.4322609483  MEMB      245             0.0000000000
     30421       245  PMPE      H12A            4.9767282826      -27.7634393952      -17.0623171558  MEMB      245             0.0000000000
     30422       245  PMPE      H12B            3.4901915238      -27.1892363353      -17.9267000073  MEMB      245             0.0000000000
     30423       245  PMPE      C11             4.1713128552      -29.2184447489      -18.4250519605  MEMB      245             0.0000000000
     30424       245  PMPE      H11A            4.8202082914      -30.0148212478      -17.9931636683  MEMB      245             0.0000000000
     30425       245  PMPE      H11B            4.7177330756      -28.8623315020      -19.3270921182  MEMB      245             0.0000000000
     30426       245  PMPE      P               2.8815143828      -30.7007218238      -20.1064670903  MEMB      245             0.0000000000
     30427       245  PMPE      O13             3.7710256807      -30.1542630122      -21.1519716934  MEMB      245             0.0000000000
     30428       245  PMPE      O14             1.4972460635      -31.0723202519      -20.4417711410  MEMB      245             0.0000000000
     30429       245  PMPE      O11             3.5260093768      -31.9621078188      -19.4051509638  MEMB      245             0.0000000000
     30430       245  PMPE      O12             2.8992449064      -29.7297923050      -18.8180246550  MEMB      245             0.0000000000
     30431       245  PMPE      C1              2.6525311529      -32.5984599546      -18.4507202582  MEMB      245             0.0000000000
     30432       245  PMPE      HA              2.5802580992      -33.6701933795      -18.7172247461  MEMB      245             0.0000000000
     30433       245  PMPE      HB              1.5653263377      -32.3314946938      -18.4941480223  MEMB      245             0.0000000000
     30434       245  PMPE      C2              3.1612961407      -32.3410136573      -17.0050318735  MEMB      245             0.0000000000
     30435       245  PMPE      HS              2.9576795043      -31.3011526884      -16.6756073479  MEMB      245             0.0000000000
     30436       245  PMPE      O21             4.5776991967      -32.6220698023      -16.9645364086  MEMB      245             0.0000000000
     30437       245  PMPE      C21             5.3520008540      -31.8802885207      -16.1820140107  MEMB      245             0.0000000000
     30438       245  PMPE      O22             5.0383507795      -30.8087243974      -15.6817052245  MEMB      245             0.0000000000
     30439       245  PMPE      C22             6.7309920505      -32.5060303753      -15.9184378308  MEMB      245             0.0000000000
     30440       245  PMPE      H2R             7.4178546187      -32.1559548019      -16.7151276069  MEMB      245             0.0000000000
     30441       245  PMPE      H2S             6.7548876065      -33.6048724622      -15.8855403452  MEMB      245             0.0000000000
     30442       245  PMPE      C3              2.4307091354      -33.2909526981      -16.0292461137  MEMB      245             0.0000000000
     30443       245  PMPE      HX              2.9100664268      -34.2602213238      -16.2725857386  MEMB      245             0.0000000000
     30444       245  PMPE      HY              1.3258395283      -33.3040084175      -16.2148681021  MEMB      245             0.0000000000
     30445       245  PMPE      O31             2.7604047643      -33.0838719777      -14.6551945162  MEMB      245             0.0000000000
     30446       245  PMPE      C31             1.9583288484      -32.3083731454      -13.9529867397  MEMB      245             0.0000000000
     30447       245  PMPE      O32             1.0226181983      -31.6556005714      -14.3841483494  MEMB      245             0.0000000000
     30448       245  PMPE      C32             2.4251371798      -32.3432343548      -12.4908309438  MEMB      245             0.0000000000
     30449       245  PMPE      H2X             3.1150757037      -31.4961523476      -12.2982113540  MEMB      245             0.0000000000
     30450       245  PMPE      H2Y             2.9778565327      -33.2858539187      -12.2999184374  MEMB      245             0.0000000000
     30451       245  PMPE      C23             7.2773297900      -32.1341297542      -14.5128995431  MEMB      245             0.0000000000
     30452       245  PMPE      H3R             7.4560182919      -31.0459020536      -14.3951861907  MEMB      245             0.0000000000
     30453       245  PMPE      H3S             8.2818890817      -32.5789824411      -14.3569903789  MEMB      245             0.0000000000
     30454       245  PMPE      C24             6.4959859119      -32.7374995792      -13.3386657740  MEMB      245             0.0000000000
     30455       245  PMPE      H4R             6.4948791715      -33.8469010118      -13.3786153039  MEMB      245             0.0000000000
     30456       245  PMPE      H4S             5.4380352338      -32.4176642780      -13.3743689750  MEMB      245             0.0000000000
     30457       245  PMPE      C25             7.2138342759      -32.3499896341      -12.0569101112  MEMB      245             0.0000000000
     30458       245  PMPE      H5R             7.1590971896      -31.2665553782      -11.9778562804  MEMB      245             0.0000000000
     30459       245  PMPE      H5S             8.2933845207      -32.5480547619      -12.2185270070  MEMB      245             0.0000000000
     30460       245  PMPE      C26             6.6574923425      -33.0405113978      -10.8201839075  MEMB      245             0.0000000000
     30461       245  PMPE      H6R             6.7366794526      -34.1288398600      -10.8651111751  MEMB      245             0.0000000000
     30462       245  PMPE      H6S             5.6515135114      -32.6495396984      -10.5577982778  MEMB      245             0.0000000000
     30463       245  PMPE      C27             7.5245351270      -33.0333985913       -9.6222664681  MEMB      245             0.0000000000
     30464       245  PMPE      H7R             7.6645018762      -32.1310133640       -9.6287302747  MEMB      245             0.0000000000
     30465       245  PMPE      H7S             8.6153894463      -32.9098449711       -9.7495939775  MEMB      245             0.0000000000
     30466       245  PMPE      C28             6.8382569100      -33.1241485343       -8.2406537874  MEMB      245             0.0000000000
     30467       245  PMPE      H8R             6.6446023809      -34.1513808192       -8.2625862382  MEMB      245             0.0000000000
     30468       245  PMPE      H8S             6.0354402041      -32.3775632482       -7.9956630128  MEMB      245             0.0000000000
     30469       245  PMPE      C29             7.6581168855      -33.0224308490       -7.0602381554  MEMB      245             0.0000000000
     30470       245  PMPE      H9R             7.4673793689      -31.9369991347       -6.8144362493  MEMB      245             0.0000000000
     30471       245  PMPE      C217            9.0133212490      -33.8750241713       -7.3441865066  MEMB      245             0.0000000000
     30472       245  PMPE      H17R           10.0342356269      -33.4178308753       -7.4131060606  MEMB      245             0.0000000000
     30473       245  PMPE      H17S            9.0509978495      -34.5723424234       -8.1167546941  MEMB      245             0.0000000000
     30474       245  PMPE      C210            8.0146005007      -33.9227690898       -6.0737832943  MEMB      245             0.0000000000
     30475       245  PMPE      H10R            8.1311325147      -33.4657169312       -5.0233168489  MEMB      245             0.0000000000
     30476       245  PMPE      C211            7.1805893009      -34.9957616624       -5.9047322310  MEMB      245             0.0000000000
     30477       245  PMPE      H11R            7.7402311924      -35.6444121806       -5.2099851995  MEMB      245             0.0000000000
     30478       245  PMPE      H11S            7.1106954516      -35.4548328833       -6.8828493179  MEMB      245             0.0000000000
     30479       245  PMPE      C212            5.8828835062      -34.3770924030       -5.4645510998  MEMB      245             0.0000000000
     30480       245  PMPE      H12R            5.2256728136      -35.1099411761       -5.1425545620  MEMB      245             0.0000000000
     30481       245  PMPE      H12S            5.3288743873      -34.0533820581       -6.3589040453  MEMB      245             0.0000000000
     30482       245  PMPE      C213            5.9693133775      -33.3335301111       -4.3538168413  MEMB      245             0.0000000000
     30483       245  PMPE      H13R            4.9321760368      -33.0835642548       -4.1919469804  MEMB      245             0.0000000000
     30484       245  PMPE      H13S            6.4937361045      -32.4313096625       -4.6782957402  MEMB      245             0.0000000000
     30485       245  PMPE      C214            6.6732909176      -33.7834774846       -3.0692283686  MEMB      245             0.0000000000
     30486       245  PMPE      H14R            7.3862633396      -34.5631910714       -3.0835988019  MEMB      245             0.0000000000
     30487       245  PMPE      H14S            5.8948654917      -34.4685305588       -2.6873811638  MEMB      245             0.0000000000
     30488       245  PMPE      C215            7.3624285122      -32.7879383288       -2.0194322203  MEMB      245             0.0000000000
     30489       245  PMPE      H15R            8.1257979337      -32.1364276476       -2.3295220855  MEMB      245             0.0000000000
     30490       245  PMPE      H15S            7.3290371268      -33.1488637240       -1.0051933133  MEMB      245             0.0000000000
     30491       245  PMPE      C216            6.7402916239      -31.6320240405       -1.4669505761  MEMB      245             0.0000000000
     30492       245  PMPE      H16R            6.2157676753      -31.3818146170       -2.4266496208  MEMB      245             0.0000000000
     30493       245  PMPE      H16S            5.8102612166      -31.4920010321       -1.1422015050  MEMB      245             0.0000000000
     30494       245  PMPE      H16T            6.7061755002      -31.0467061596       -0.5576827329  MEMB      245             0.0000000000
     30495       245  PMPE      C33             1.2477640912      -32.2309138171      -11.5028724003  MEMB      245             0.0000000000
     30496       245  PMPE      H3X             0.4188189372      -32.9321369937      -11.8090926942  MEMB      245             0.0000000000
     30497       245  PMPE      H3Y             0.8676449605      -31.1988854363      -11.5606236362  MEMB      245             0.0000000000
     30498       245  PMPE      C34             1.6461103293      -32.6227112228      -10.0602609106  MEMB      245             0.0000000000
     30499       245  PMPE      H4X             2.1004165638      -33.5992348404      -10.3233993166  MEMB      245             0.0000000000
     30500       245  PMPE      H4Y             0.7128143397      -32.7827148425       -9.4834616444  MEMB      245             0.0000000000
     30501       245  PMPE      C35             2.6672299892      -31.8140989393       -9.1883936965  MEMB      245             0.0000000000
     30502       245  PMPE      H5X             2.4608788088      -30.7241850677       -9.2418146971  MEMB      245             0.0000000000
     30503       245  PMPE      H5Y             3.6973214989      -32.0500502054       -9.5532475932  MEMB      245             0.0000000000
     30504       245  PMPE      C36             2.6607352995      -32.1208353833       -7.6590697155  MEMB      245             0.0000000000
     30505       245  PMPE      H6X             3.4591467649      -31.5571097652       -7.1079277046  MEMB      245             0.0000000000
     30506       245  PMPE      H6Y             2.9413119743      -33.1832389861       -7.5499142833  MEMB      245             0.0000000000
     30507       245  PMPE      C37             1.3388608962      -31.7354204600       -6.9705196397  MEMB      245             0.0000000000
     30508       245  PMPE      H7X             0.4222100322      -31.9435172388       -7.5759872838  MEMB      245             0.0000000000
     30509       245  PMPE      H7Y             1.4063494328      -30.6415251073       -6.8178458728  MEMB      245             0.0000000000
     30510       245  PMPE      C38             1.0352757548      -32.4072760253       -5.6439686466  MEMB      245             0.0000000000
     30511       245  PMPE      H8X             1.3789664046      -33.4706364587       -5.7170114871  MEMB      245             0.0000000000
     30512       245  PMPE      H8Y            -0.0777061587      -32.3536465427       -5.6222531393  MEMB      245             0.0000000000
     30513       245  PMPE      C39             1.5606662692      -31.6846243858       -4.4062515814  MEMB      245             0.0000000000
     30514       245  PMPE      H9X             1.3222747409      -30.6006396352       -4.3027633950  MEMB      245             0.0000000000
     30515       245  PMPE      H9Y             2.6581177420      -31.7049738951       -4.4918292327  MEMB      245             0.0000000000
     30516       245  PMPE      C310            1.0313233417      -32.3717616805       -3.1433411623  MEMB      245             0.0000000000
     30517       245  PMPE      H10X            0.0414493486      -32.8247390471       -3.2988283472  MEMB      245             0.0000000000
     30518       245  PMPE      H10Y            1.0400852743      -31.6573588556       -2.3232025214  MEMB      245             0.0000000000
     30519       245  PMPE      C311            1.8739331527      -33.4535914538       -2.6384725216  MEMB      245             0.0000000000
     30520       245  PMPE      H11X            2.6939214399      -33.0898710174       -2.3454347295  MEMB      245             0.0000000000
     30521       245  PMPE      H11Y            2.1335457416      -33.7492754398       -3.6064361288  MEMB      245             0.0000000000
     30522       245  PMPE      C312            1.3471046298      -34.3367740104       -1.5514549231  MEMB      245             0.0000000000
     30523       245  PMPE      H12X            1.4898256683      -35.3964701826       -1.8224816905  MEMB      245             0.0000000000
     30524       245  PMPE      H12Y            0.2958314993      -34.1004696614       -1.4322463917  MEMB      245             0.0000000000
     30525       245  PMPE      C313            1.9859258110      -34.0737472247       -0.2225564892  MEMB      245             0.0000000000
     30526       245  PMPE      H13X            2.3648874262      -33.0291213687       -0.1809117766  MEMB      245             0.0000000000
     30527       245  PMPE      H13Y            2.7108685698      -34.8888470211       -0.2897921876  MEMB      245             0.0000000000
     30528       245  PMPE      C314            1.3249590011      -34.4852470258        1.0408050459  MEMB      245             0.0000000000
     30529       245  PMPE      H14X            1.2526956421      -35.5851018242        1.1137006857  MEMB      245             0.0000000000
     30530       245  PMPE      H14Y            0.4027132735      -33.9667299461        0.9461119975  MEMB      245             0.0000000000
     30531       245  PMPE      C315            1.8321285492      -34.0096402905        2.3788873673  MEMB      245             0.0000000000
     30532       245  PMPE      H15X            2.6213503874      -34.7036490994        2.6182231474  MEMB      245             0.0000000000
     30533       245  PMPE      H15Y            1.5093457719      -34.5148461101        3.2409973173  MEMB      245             0.0000000000
     30534       245  PMPE      C316            2.0636086981      -32.4414984090        2.5941876927  MEMB      245             0.0000000000
     30535       245  PMPE      H16X            3.0034276060      -31.9234125868        2.4933034371  MEMB      245             0.0000000000
     30536       245  PMPE      H16Y            1.8415116335      -32.1530044943        3.5952596134  MEMB      245             0.0000000000
     30537       245  PMPE      H16Z            1.6376672931      -31.9201699994        1.7305577750  MEMB      245             0.0000000000
     30538       246  QMPE      N              30.0368118340       -6.7714952936      -22.1498318633  MEMB      246             0.0000000000
     30539       246  QMPE      HN1            30.4269097527       -5.9160294792      -22.5924317278  MEMB      246             0.0000000000
     30540       246  QMPE      HN2            30.2883324642       -7.6550270542      -22.6500564844  MEMB      246             0.0000000000
     30541       246  QMPE      HN3            28.9942952556       -6.7296297443      -22.1136880726  MEMB      246             0.0000000000
     30542       246  QMPE      C12            30.6786334983       -6.6950223722      -20.8036961929  MEMB      246             0.0000000000
     30543       246  QMPE      H12A           30.8933514704       -5.6131311304      -20.6965384080  MEMB      246             0.0000000000
     30544       246  QMPE      H12B           31.6532581218       -7.2155558462      -20.8042660177  MEMB      246             0.0000000000
     30545       246  QMPE      C11            29.7632799191       -7.1750667004      -19.6809925249  MEMB      246             0.0000000000
     30546       246  QMPE      H11A           29.7749781585       -8.2956256093      -19.6407323782  MEMB      246             0.0000000000
     30547       246  QMPE      H11B           28.7316636459       -6.8160277909      -19.9250490675  MEMB      246             0.0000000000
     30548       246  QMPE      P              29.4803490210       -5.3420898809      -17.8360124387  MEMB      246             0.0000000000
     30549       246  QMPE      O13            29.4566897064       -4.3182509024      -18.8952141006  MEMB      246             0.0000000000
     30550       246  QMPE      O14            30.0123940063       -5.0062477985      -16.5111596611  MEMB      246             0.0000000000
     30551       246  QMPE      O11            28.0091419129       -5.8946275077      -17.6818431389  MEMB      246             0.0000000000
     30552       246  QMPE      O12            30.2275731985       -6.6341316138      -18.4352590312  MEMB      246             0.0000000000
     30553       246  QMPE      C1             27.7834112398       -6.9680041839      -16.7548546205  MEMB      246             0.0000000000
     30554       246  QMPE      HA             28.5654274590       -7.0523546577      -15.9604667649  MEMB      246             0.0000000000
     30555       246  QMPE      HB             27.7010771833       -7.9380352581      -17.2946934975  MEMB      246             0.0000000000
     30556       246  QMPE      C2             26.4373642603       -6.7578646091      -16.0456271624  MEMB      246             0.0000000000
     30557       246  QMPE      HS             25.6971814322       -7.0460961357      -16.8328713166  MEMB      246             0.0000000000
     30558       246  QMPE      O21            26.3295967993       -5.3779077036      -15.6854031443  MEMB      246             0.0000000000
     30559       246  QMPE      C21            25.1160989157       -4.9706397944      -15.6057726527  MEMB      246             0.0000000000
     30560       246  QMPE      O22            24.1125187433       -5.6540382985      -15.6478431315  MEMB      246             0.0000000000
     30561       246  QMPE      C22            25.1465998930       -3.4726524105      -15.6846026289  MEMB      246             0.0000000000
     30562       246  QMPE      H2R            25.1257020568       -3.1804273841      -16.7547800262  MEMB      246             0.0000000000
     30563       246  QMPE      H2S            26.1076786650       -3.0790775541      -15.2962410309  MEMB      246             0.0000000000
     30564       246  QMPE      C3             26.2476718984       -7.6423463247      -14.7920278277  MEMB      246             0.0000000000
     30565       246  QMPE      HX             26.4414274333       -8.6877393401      -15.1026358287  MEMB      246             0.0000000000
     30566       246  QMPE      HY             25.1873025337       -7.5787105341      -14.4313831085  MEMB      246             0.0000000000
     30567       246  QMPE      O31            27.2237181141       -7.3079912841      -13.7845197221  MEMB      246             0.0000000000
     30568       246  QMPE      C31            26.7295856498       -6.7539535827      -12.6894751860  MEMB      246             0.0000000000
     30569       246  QMPE      O32            25.5650878173       -6.4613009494      -12.4922346936  MEMB      246             0.0000000000
     30570       246  QMPE      C32            27.8333683690       -6.6234069997      -11.6253325424  MEMB      246             0.0000000000
     30571       246  QMPE      H2X            27.3081815694       -6.3794524913      -10.6782451770  MEMB      246             0.0000000000
     30572       246  QMPE      H2Y            28.3486805614       -7.5900555447      -11.4693933943  MEMB      246             0.0000000000
     30573       246  QMPE      C23            23.8786307858       -2.9481969967      -15.0366147414  MEMB      246             0.0000000000
     30574       246  QMPE      H3R            22.9612017639       -3.3297418936      -15.5005589241  MEMB      246             0.0000000000
     30575       246  QMPE      H3S            23.8822301862       -1.8869250666      -15.3423659200  MEMB      246             0.0000000000
     30576       246  QMPE      C24            23.6454083402       -3.2289624677      -13.5337153457  MEMB      246             0.0000000000
     30577       246  QMPE      H4R            23.5922037806       -4.2878491439      -13.2596980227  MEMB      246             0.0000000000
     30578       246  QMPE      H4S            22.6458141085       -2.7736603999      -13.2795061234  MEMB      246             0.0000000000
     30579       246  QMPE      C25            24.6973955535       -2.6272365717      -12.6742874920  MEMB      246             0.0000000000
     30580       246  QMPE      H5R            24.6632061241       -1.6007747065      -13.0125920762  MEMB      246             0.0000000000
     30581       246  QMPE      H5S            25.7488202820       -2.7758248491      -12.9468264850  MEMB      246             0.0000000000
     30582       246  QMPE      C26            24.5335328854       -3.0409333802      -11.2009518319  MEMB      246             0.0000000000
     30583       246  QMPE      H6R            25.5222264269       -2.8059571308      -10.7881687387  MEMB      246             0.0000000000
     30584       246  QMPE      H6S            24.4582258704       -4.0974460061      -11.1301511619  MEMB      246             0.0000000000
     30585       246  QMPE      C27            23.3460680366       -2.5889585596      -10.3508012048  MEMB      246             0.0000000000
     30586       246  QMPE      H7R            22.3500456626       -2.3739806164      -10.7169691691  MEMB      246             0.0000000000
     30587       246  QMPE      H7S            23.6277305764       -1.7212299566      -10.6517089042  MEMB      246             0.0000000000
     30588       246  QMPE      C28            23.4377477683       -2.6278420877       -8.8299278880  MEMB      246             0.0000000000
     30589       246  QMPE      H8R            23.1442032642       -3.6759614117       -8.7905069342  MEMB      246             0.0000000000
     30590       246  QMPE      H8S            22.6126245290       -2.0253201614       -8.3987032155  MEMB      246             0.0000000000
     30591       246  QMPE      C29            24.8197022502       -2.4309006186       -8.1379815550  MEMB      246             0.0000000000
     30592       246  QMPE      H9R            25.6718015424       -1.7717104550       -8.1702532589  MEMB      246             0.0000000000
     30593       246  QMPE      C217           25.8183531327       -3.4468385817       -8.1254019160  MEMB      246             0.0000000000
     30594       246  QMPE      H17R           25.4093019605       -4.3552991632       -8.4772512804  MEMB      246             0.0000000000
     30595       246  QMPE      H17S           26.8701167426       -3.1535251204       -8.1005923451  MEMB      246             0.0000000000
     30596       246  QMPE      C210           25.1224104434       -2.7860694668       -6.8686286208  MEMB      246             0.0000000000
     30597       246  QMPE      H10R           25.6934564493       -2.1997865700       -6.1752822496  MEMB      246             0.0000000000
     30598       246  QMPE      C211           24.0185522007       -3.1716070626       -6.1726488610  MEMB      246             0.0000000000
     30599       246  QMPE      H11R           23.4413536202       -2.5198732063       -5.5553232181  MEMB      246             0.0000000000
     30600       246  QMPE      H11S           23.3070105256       -3.8279787995       -6.5954833890  MEMB      246             0.0000000000
     30601       246  QMPE      C212           24.7149988835       -3.5116932268       -5.0036606326  MEMB      246             0.0000000000
     30602       246  QMPE      H12R           25.5460209503       -3.1367325035       -4.4728779711  MEMB      246             0.0000000000
     30603       246  QMPE      H12S           25.7343404074       -4.0466704478       -5.2316361470  MEMB      246             0.0000000000
     30604       246  QMPE      C213           23.5415332095       -4.1922585739       -4.2857408823  MEMB      246             0.0000000000
     30605       246  QMPE      H13R           23.9894966162       -4.9540780398       -3.4432239597  MEMB      246             0.0000000000
     30606       246  QMPE      H13S           22.9772372931       -4.7903738842       -5.0829542659  MEMB      246             0.0000000000
     30607       246  QMPE      C214           22.7573557942       -3.7166337394       -3.4782828178  MEMB      246             0.0000000000
     30608       246  QMPE      H14R           22.5209810332       -2.9098703223       -3.4603961339  MEMB      246             0.0000000000
     30609       246  QMPE      H14S           24.1312794959       -3.4349988743       -3.1962305167  MEMB      246             0.0000000000
     30610       246  QMPE      C215           22.0429126752       -4.5099453787       -1.3191408871  MEMB      246             0.0000000000
     30611       246  QMPE      H15R           23.8268595082       -3.9511384622       -0.7011432085  MEMB      246             0.0000000000
     30612       246  QMPE      H15S           21.1601293466       -4.7541507216       -2.2098311669  MEMB      246             0.0000000000
     30613       246  QMPE      C216           21.6085215559       -4.3861259037       -0.9249167562  MEMB      246             0.0000000000
     30614       246  QMPE      H16R           22.3432192411       -3.8112319610       -0.4307107537  MEMB      246             0.0000000000
     30615       246  QMPE      H16S           21.0771279192       -5.0470964481       -0.1266341907  MEMB      246             0.0000000000
     30616       246  QMPE      H16T           21.6978069585       -3.3077367984       -1.2754891837  MEMB      246             0.0000000000
     30617       246  QMPE      C33            28.9132111538       -5.6050123997      -12.0712146097  MEMB      246             0.0000000000
     30618       246  QMPE      H3X            28.4116919956       -4.8156666677      -12.6794440431  MEMB      246             0.0000000000
     30619       246  QMPE      H3Y            29.6535946774       -6.1278039734      -12.7158254282  MEMB      246             0.0000000000
     30620       246  QMPE      C34            29.7547159883       -4.9740111809      -10.9700265580  MEMB      246             0.0000000000
     30621       246  QMPE      H4X            30.8542063485       -5.1735585140      -11.1087477024  MEMB      246             0.0000000000
     30622       246  QMPE      H4Y            29.4173796577       -5.4180446578      -10.0072946449  MEMB      246             0.0000000000
     30623       246  QMPE      C35            29.6046359211       -3.4768083417      -11.0125682655  MEMB      246             0.0000000000
     30624       246  QMPE      H5X            28.5550297299       -3.1433723693      -10.9589011583  MEMB      246             0.0000000000
     30625       246  QMPE      H5Y            29.9705079284       -3.0181104102      -11.9483084175  MEMB      246             0.0000000000
     30626       246  QMPE      C36            30.3694702084       -2.9179347063       -9.9108174737  MEMB      246             0.0000000000
     30627       246  QMPE      H6X            30.2095872513       -1.7971660140      -10.1297395502  MEMB      246             0.0000000000
     30628       246  QMPE      H6Y            31.4502591841       -3.1864993840       -9.8711519286  MEMB      246             0.0000000000
     30629       246  QMPE      C37            29.9673703925       -3.4959946565       -8.5259450890  MEMB      246             0.0000000000
     30630       246  QMPE      H7X            28.9419761424       -3.1693015686       -8.3255105165  MEMB      246             0.0000000000
     30631       246  QMPE      H7Y            30.1119849472       -4.5612153285       -8.4198940049  MEMB      246             0.0000000000
     30632       246  QMPE      C38            30.9841703138       -3.5006284494       -7.3602507835  MEMB      246             0.0000000000
     30633       246  QMPE      H8X            32.0382330321       -3.2595190956       -7.5769233202  MEMB      246             0.0000000000
     30634       246  QMPE      H8Y            30.8100283068       -2.6186690217       -7.5957286030  MEMB      246             0.0000000000
     30635       246  QMPE      C39            30.5109546227       -3.4470241986       -5.8487031266  MEMB      246             0.0000000000
     30636       246  QMPE      H9X            31.2343138608       -2.8990574467       -5.1608470808  MEMB      246             0.0000000000
     30637       246  QMPE      H9Y            30.5998099907       -4.4990600546       -5.9105716134  MEMB      246             0.0000000000
     30638       246  QMPE      C310           29.0979207032       -2.8471324756       -5.5598269368  MEMB      246             0.0000000000
     30639       246  QMPE      H10X           28.4569502482       -3.3109190437       -6.2790266658  MEMB      246             0.0000000000
     30640       246  QMPE      H10Y           28.9653262937       -1.8259404537       -5.8885242758  MEMB      246             0.0000000000
     30641       246  QMPE      C311           28.6846300437       -2.8477317651       -4.1147144399  MEMB      246             0.0000000000
     30642       246  QMPE      H11X           27.7801694968       -2.2002587059       -3.9732642368  MEMB      246             0.0000000000
     30643       246  QMPE      H11Y           29.5505501207       -2.3620083156       -3.6364833769  MEMB      246             0.0000000000
     30644       246  QMPE      C312           28.6609874061       -4.2788106855       -3.6270337765  MEMB      246             0.0000000000
     30645       246  QMPE      H12X           29.6610610820       -4.7373406400       -3.7850182849  MEMB      246             0.0000000000
     30646       246  QMPE      H12Y           27.9961982551       -4.9127954738       -4.2452247394  MEMB      246             0.0000000000
     30647       246  QMPE      C313           28.3003750988       -4.3944516505       -2.1538404731  MEMB      246             0.0000000000
     30648       246  QMPE      H13X           28.7314051452       -3.5988165098       -1.5106768102  MEMB      246             0.0000000000
     30649       246  QMPE      H13Y           27.2196318026       -4.1938902363       -2.1183282591  MEMB      246             0.0000000000
     30650       246  QMPE      C314           28.5711410308       -5.8221934463       -1.6538424335  MEMB      246             0.0000000000
     30651       246  QMPE      H14X           29.6538466479       -5.9685900526       -1.5010746549  MEMB      246             0.0000000000
     30652       246  QMPE      H14Y           28.3042883028       -6.5057225989       -2.4845210099  MEMB      246             0.0000000000
     30653       246  QMPE      C315           27.7083496577       -6.2867375848       -0.4929603453  MEMB      246             0.0000000000
     30654       246  QMPE      H15X           27.6809658644       -7.3868636180       -0.3247300761  MEMB      246             0.0000000000
     30655       246  QMPE      H15Y           27.8700570274       -5.7361329709        0.4144120667  MEMB      246             0.0000000000
     30656       246  QMPE      H15Z           26.7037255411       -5.9690474457       -0.7457154042  MEMB      246             0.0000000000
     30657       247  PMPE      N             -21.4680645633       18.4709600116      -20.6082572469  MEMB      247             0.0000000000
     30658       247  PMPE      HN1           -21.1370596758       18.8628503146      -19.6962417288  MEMB      247             0.0000000000
     30659       247  PMPE      HN2           -21.4003055525       17.4328715370      -20.5814421969  MEMB      247             0.0000000000
     30660       247  PMPE      HN3           -20.8836801519       18.9026388480      -21.3510575532  MEMB      247             0.0000000000
     30661       247  PMPE      C12           -22.8970881093       18.8734439313      -20.8964194286  MEMB      247             0.0000000000
     30662       247  PMPE      H12A          -23.2790943101       18.1777611736      -21.6775736826  MEMB      247             0.0000000000
     30663       247  PMPE      H12B          -22.8462598295       19.9212426074      -21.2569293705  MEMB      247             0.0000000000
     30664       247  PMPE      C11           -23.7997526799       18.8760166751      -19.6577913555  MEMB      247             0.0000000000
     30665       247  PMPE      H11A          -24.0109729940       17.8276115864      -19.3826035380  MEMB      247             0.0000000000
     30666       247  PMPE      H11B          -24.7727954270       19.4076828202      -19.8736883158  MEMB      247             0.0000000000
     30667       247  PMPE      P             -23.2278425396       20.9102807138      -18.1153275639  MEMB      247             0.0000000000
     30668       247  PMPE      O13           -22.9042334171       21.6916667054      -19.3251453708  MEMB      247             0.0000000000
     30669       247  PMPE      O14           -22.3769920535       21.1100417278      -16.9291187212  MEMB      247             0.0000000000
     30670       247  PMPE      O11           -24.7964168610       20.9544122265      -17.8499271315  MEMB      247             0.0000000000
     30671       247  PMPE      O12           -23.0882865804       19.4079684071      -18.5563807793  MEMB      247             0.0000000000
     30672       247  PMPE      C1            -25.5654006701       19.9704118645      -17.1689455537  MEMB      247             0.0000000000
     30673       247  PMPE      HA            -25.0594904806       18.9922352328      -17.2284453484  MEMB      247             0.0000000000
     30674       247  PMPE      HB            -26.5217321359       19.8262048424      -17.7075680858  MEMB      247             0.0000000000
     30675       247  PMPE      C2            -25.8881361332       20.3194813094      -15.6718154248  MEMB      247             0.0000000000
     30676       247  PMPE      HS            -26.6153263334       21.1615241717      -15.6870709469  MEMB      247             0.0000000000
     30677       247  PMPE      O21           -24.7170794247       20.7323490288      -14.9501148967  MEMB      247             0.0000000000
     30678       247  PMPE      C21           -24.8416754241       21.8315209097      -14.1884966805  MEMB      247             0.0000000000
     30679       247  PMPE      O22           -25.7242006972       22.6589737944      -14.2738207633  MEMB      247             0.0000000000
     30680       247  PMPE      C22           -23.7982909787       21.8883350264      -13.0745519796  MEMB      247             0.0000000000
     30681       247  PMPE      H2R           -24.3261739398       22.1595756262      -12.1429709261  MEMB      247             0.0000000000
     30682       247  PMPE      H2S           -23.0927602000       22.7075369014      -13.3158357719  MEMB      247             0.0000000000
     30683       247  PMPE      C3            -26.5260703115       19.0563280402      -14.9689528499  MEMB      247             0.0000000000
     30684       247  PMPE      HX            -26.0258783023       18.1159362774      -15.3156421469  MEMB      247             0.0000000000
     30685       247  PMPE      HY            -27.6102601686       18.9894907555      -15.2166123162  MEMB      247             0.0000000000
     30686       247  PMPE      O31           -26.3379035416       19.0130252150      -13.5535732971  MEMB      247             0.0000000000
     30687       247  PMPE      C31           -27.2770587646       19.5085625785      -12.7823637623  MEMB      247             0.0000000000
     30688       247  PMPE      O32           -28.1830325865       20.2437789248      -13.1295172463  MEMB      247             0.0000000000
     30689       247  PMPE      C32           -27.0794535765       18.8989964472      -11.3831524905  MEMB      247             0.0000000000
     30690       247  PMPE      H2X           -27.3982919571       19.6144902102      -10.5949242095  MEMB      247             0.0000000000
     30691       247  PMPE      H2Y           -25.9945987986       18.7343323482      -11.2082587360  MEMB      247             0.0000000000
     30692       247  PMPE      C23           -23.0175324737       20.5729348590      -12.9735772904  MEMB      247             0.0000000000
     30693       247  PMPE      H3R           -22.6982878398       20.2711246359      -13.9995329764  MEMB      247             0.0000000000
     30694       247  PMPE      H3S           -23.6649697852       19.7499118620      -12.6031063435  MEMB      247             0.0000000000
     30695       247  PMPE      C24           -21.7520218397       20.6620213297      -12.1153535384  MEMB      247             0.0000000000
     30696       247  PMPE      H4R           -21.0390982673       21.4137343862      -12.5399842284  MEMB      247             0.0000000000
     30697       247  PMPE      H4S           -21.2534535738       19.6749745429      -12.2292213624  MEMB      247             0.0000000000
     30698       247  PMPE      C25           -22.0543013698       21.0325485546      -10.6380602921  MEMB      247             0.0000000000
     30699       247  PMPE      H5R           -22.6373833558       21.9762815601      -10.6818195827  MEMB      247             0.0000000000
     30700       247  PMPE      H5S           -21.0920281805       21.1786805034      -10.0941903364  MEMB      247             0.0000000000
     30701       247  PMPE      C26           -22.8411692682       19.9965754874       -9.7962778312  MEMB      247             0.0000000000
     30702       247  PMPE      H6R           -22.2819441452       19.0595798651       -9.9815890105  MEMB      247             0.0000000000
     30703       247  PMPE      H6S           -23.8911954800       19.8725387031      -10.1601730927  MEMB      247             0.0000000000
     30704       247  PMPE      C27           -22.9845669686       20.2446986835       -8.2593924174  MEMB      247             0.0000000000
     30705       247  PMPE      H7R           -23.6248323822       19.4057709703       -7.8606357587  MEMB      247             0.0000000000
     30706       247  PMPE      H7S           -23.5026212199       21.2161837250       -8.1243340008  MEMB      247             0.0000000000
     30707       247  PMPE      C28           -21.7212494076       20.2407707408       -7.3625306280  MEMB      247             0.0000000000
     30708       247  PMPE      H8R           -20.8070301089       20.4393387616       -7.9458324864  MEMB      247             0.0000000000
     30709       247  PMPE      H8S           -21.6967215962       19.1935561711       -7.0103069330  MEMB      247             0.0000000000
     30710       247  PMPE      C29           -21.7921991102       21.1510930691       -6.1077005596  MEMB      247             0.0000000000
     30711       247  PMPE      H9R           -22.7851123310       21.3913703218       -5.6974999774  MEMB      247             0.0000000000
     30712       247  PMPE      C217          -20.9320362253       22.4089599287       -6.2798475235  MEMB      247             0.0000000000
     30713       247  PMPE      H17R          -21.4743906180       23.2769436772       -5.9453415975  MEMB      247             0.0000000000
     30714       247  PMPE      H17S          -20.3734550663       22.3813451490       -7.2004574503  MEMB      247             0.0000000000
     30715       247  PMPE      C210          -20.5895685532       21.3863738120       -5.2019478995  MEMB      247             0.0000000000
     30716       247  PMPE      H10R          -20.8049344028       21.6962443784       -4.1621881714  MEMB      247             0.0000000000
     30717       247  PMPE      C211          -19.4013142301       20.4431409711       -5.4106165720  MEMB      247             0.0000000000
     30718       247  PMPE      H11R          -18.5464826041       20.7431313513       -4.7667353606  MEMB      247             0.0000000000
     30719       247  PMPE      H11S          -19.1114599929       20.5044740632       -6.4816274718  MEMB      247             0.0000000000
     30720       247  PMPE      C212          -19.7013547353       18.9721257249       -5.0392421739  MEMB      247             0.0000000000
     30721       247  PMPE      H12R          -18.9842244445       18.2443097935       -5.4828229533  MEMB      247             0.0000000000
     30722       247  PMPE      H12S          -20.6566260341       18.6738089138       -5.4880925372  MEMB      247             0.0000000000
     30723       247  PMPE      C213          -19.7747295661       18.7173804999       -3.5270037040  MEMB      247             0.0000000000
     30724       247  PMPE      H13R          -20.5105533375       19.4204379326       -3.0544768736  MEMB      247             0.0000000000
     30725       247  PMPE      H13S          -18.7694861573       18.9010846106       -3.0781768207  MEMB      247             0.0000000000
     30726       247  PMPE      C214          -20.2195556282       17.2758079644       -3.2436361762  MEMB      247             0.0000000000
     30727       247  PMPE      H14R          -19.6568816234       16.5057985719       -3.8208636434  MEMB      247             0.0000000000
     30728       247  PMPE      H14S          -21.2334226718       17.1195862874       -3.5837381397  MEMB      247             0.0000000000
     30729       247  PMPE      C215          -20.2953487654       17.0201340446       -1.7778681299  MEMB      247             0.0000000000
     30730       247  PMPE      H15R          -20.7341068975       17.7885938511       -1.1250204895  MEMB      247             0.0000000000
     30731       247  PMPE      H15S          -19.2324233096       17.0191323252       -1.7534771867  MEMB      247             0.0000000000
     30732       247  PMPE      C216          -20.8719233881       15.7325266214       -1.3441629631  MEMB      247             0.0000000000
     30733       247  PMPE      H16R          -21.9062411135       15.6213955555       -1.6735441884  MEMB      247             0.0000000000
     30734       247  PMPE      H16S          -20.2452569700       14.9747850753       -1.7940584620  MEMB      247             0.0000000000
     30735       247  PMPE      H16T          -20.8006443350       15.6293011659       -0.2362551561  MEMB      247             0.0000000000
     30736       247  PMPE      C33           -27.8655003853       17.5935121677      -11.2758518026  MEMB      247             0.0000000000
     30737       247  PMPE      H3X           -27.9839019004       17.0745449807      -12.2563938001  MEMB      247             0.0000000000
     30738       247  PMPE      H3Y           -28.8774268514       17.8731225371      -10.9072749325  MEMB      247             0.0000000000
     30739       247  PMPE      C34           -27.2264030120       16.5546712535      -10.3515742571  MEMB      247             0.0000000000
     30740       247  PMPE      H4X           -26.2764102604       16.1325999185      -10.7461300022  MEMB      247             0.0000000000
     30741       247  PMPE      H4Y           -27.9451824250       15.7048743450      -10.2217804776  MEMB      247             0.0000000000
     30742       247  PMPE      C35           -26.7746070204       17.1232562874       -9.0135281881  MEMB      247             0.0000000000
     30743       247  PMPE      H5X           -26.0957292622       17.9806440411       -9.1261243737  MEMB      247             0.0000000000
     30744       247  PMPE      H5Y           -26.2900335148       16.2679074379       -8.4963592199  MEMB      247             0.0000000000
     30745       247  PMPE      C36           -27.9108032012       17.5948118620       -8.2008694461  MEMB      247             0.0000000000
     30746       247  PMPE      H6X           -28.4489919281       16.6747767377       -8.2960018730  MEMB      247             0.0000000000
     30747       247  PMPE      H6Y           -28.5652783933       18.3046824078       -8.7350069634  MEMB      247             0.0000000000
     30748       247  PMPE      C37           -27.6485274936       17.9922843066       -6.7268139510  MEMB      247             0.0000000000
     30749       247  PMPE      H7X           -28.5947054467       18.3580543986       -6.2711499985  MEMB      247             0.0000000000
     30750       247  PMPE      H7Y           -26.9753421283       18.8445985742       -6.8617128233  MEMB      247             0.0000000000
     30751       247  PMPE      C38           -27.0966657578       16.8738125723       -5.8024089294  MEMB      247             0.0000000000
     30752       247  PMPE      H8X           -26.1450453153       16.5049697820       -6.2100371916  MEMB      247             0.0000000000
     30753       247  PMPE      H8Y           -27.7863794299       16.0031239173       -5.7712188898  MEMB      247             0.0000000000
     30754       247  PMPE      C39           -26.7236231532       17.2192161682       -4.3499099002  MEMB      247             0.0000000000
     30755       247  PMPE      H9X           -26.8043391450       16.2580192109       -3.7625904332  MEMB      247             0.0000000000
     30756       247  PMPE      H9Y           -27.3959027181       17.9959629662       -3.9500479430  MEMB      247             0.0000000000
     30757       247  PMPE      C310          -25.3396864130       17.8804839668       -4.2623457573  MEMB      247             0.0000000000
     30758       247  PMPE      H10X          -25.2829006976       18.7743875640       -4.9237029868  MEMB      247             0.0000000000
     30759       247  PMPE      H10Y          -24.6009635803       17.1313055290       -4.6259961014  MEMB      247             0.0000000000
     30760       247  PMPE      C311          -24.9200812421       18.4200565498       -2.8818631019  MEMB      247             0.0000000000
     30761       247  PMPE      H11X          -23.8159202683       18.5258830493       -2.9658151800  MEMB      247             0.0000000000
     30762       247  PMPE      H11Y          -25.1453957057       17.6502957389       -2.1122309403  MEMB      247             0.0000000000
     30763       247  PMPE      C312          -25.4885888333       19.8166041537       -2.4790086081  MEMB      247             0.0000000000
     30764       247  PMPE      H12X          -25.7805398977       19.7779738371       -1.4061949697  MEMB      247             0.0000000000
     30765       247  PMPE      H12Y          -26.4299259502       19.9917924504       -3.0369507140  MEMB      247             0.0000000000
     30766       247  PMPE      C313          -24.5237743382       21.0279923903       -2.7099610791  MEMB      247             0.0000000000
     30767       247  PMPE      H13X          -24.3988741768       21.2024601859       -3.8049288174  MEMB      247             0.0000000000
     30768       247  PMPE      H13Y          -23.5249217757       20.8489760904       -2.2585242031  MEMB      247             0.0000000000
     30769       247  PMPE      C314          -24.9074868377       22.3986961261       -2.1251655876  MEMB      247             0.0000000000
     30770       247  PMPE      H14X          -24.9930814523       22.3647675226       -1.0192706434  MEMB      247             0.0000000000
     30771       247  PMPE      H14Y          -25.8722771281       22.6651940000       -2.5003627841  MEMB      247             0.0000000000
     30772       247  PMPE      C315          -23.9762070657       23.5297492754       -2.6048253394  MEMB      247             0.0000000000
     30773       247  PMPE      H15X          -24.4007066456       24.4865467828       -2.2163992547  MEMB      247             0.0000000000
     30774       247  PMPE      H15Y          -23.9427548814       23.5616192904       -3.7279455950  MEMB      247             0.0000000000
     30775       247  PMPE      C316          -22.5679027877       23.3782630712       -2.0446319926  MEMB      247             0.0000000000
     30776       247  PMPE      H16X          -21.8814180436       22.8358449502       -2.7138795426  MEMB      247             0.0000000000
     30777       247  PMPE      H16Y          -22.5889492064       22.9010872255       -1.0655350626  MEMB      247             0.0000000000
     30778       247  PMPE      H16Z          -22.0954578737       24.3063994727       -1.7456781304  MEMB      247             0.0000000000
     30779       248  PMPE      N              19.8819554044      -21.7964897058      -20.5335436979  MEMB      248             0.0000000000
     30780       248  PMPE      HN1            19.1978519755      -21.8349381245      -21.3060762400  MEMB      248             0.0000000000
     30781       248  PMPE      HN2            20.7514911808      -22.1992825767      -20.9298081769  MEMB      248             0.0000000000
     30782       248  PMPE      HN3            19.5650151547      -22.2638023513      -19.6456684019  MEMB      248             0.0000000000
     30783       248  PMPE      C12            20.3219356353      -20.4018779017      -20.2843478107  MEMB      248             0.0000000000
     30784       248  PMPE      H12A           19.4690808001      -19.7450040247      -20.1048306880  MEMB      248             0.0000000000
     30785       248  PMPE      H12B           20.7459643406      -20.0747838721      -21.2349417102  MEMB      248             0.0000000000
     30786       248  PMPE      C11            21.3083860387      -20.3686615045      -19.1316455006  MEMB      248             0.0000000000
     30787       248  PMPE      H11A           20.8287291207      -20.8565420282      -18.2423120019  MEMB      248             0.0000000000
     30788       248  PMPE      H11B           21.4981306213      -19.3070698059      -18.8171577093  MEMB      248             0.0000000000
     30789       248  PMPE      P              23.6120338386      -21.2007905960      -18.3923110784  MEMB      248             0.0000000000
     30790       248  PMPE      O13            23.5306203440      -20.0287207169      -17.5098137026  MEMB      248             0.0000000000
     30791       248  PMPE      O14            24.8871912433      -21.6443764365      -18.9852025050  MEMB      248             0.0000000000
     30792       248  PMPE      O11            22.9592712745      -22.4203270981      -17.6599379657  MEMB      248             0.0000000000
     30793       248  PMPE      O12            22.5095514163      -21.0406234690      -19.5541345951  MEMB      248             0.0000000000
     30794       248  PMPE      C1             22.8420460829      -23.7515866070      -18.1735668140  MEMB      248             0.0000000000
     30795       248  PMPE      HA             23.8141178017      -24.1685121529      -18.5107614902  MEMB      248             0.0000000000
     30796       248  PMPE      HB             22.1388594449      -23.7993046220      -19.0339658623  MEMB      248             0.0000000000
     30797       248  PMPE      C2             22.3880186668      -24.6666912629      -17.0390227846  MEMB      248             0.0000000000
     30798       248  PMPE      HS             22.2141816451      -25.7102290669      -17.3937953293  MEMB      248             0.0000000000
     30799       248  PMPE      O21            21.1715695812      -24.1508818952      -16.6364790130  MEMB      248             0.0000000000
     30800       248  PMPE      C21            20.5032790752      -24.8052187732      -15.8221685389  MEMB      248             0.0000000000
     30801       248  PMPE      O22            20.4634333380      -25.9712456179      -15.4841602077  MEMB      248             0.0000000000
     30802       248  PMPE      C22            19.7805430799      -23.8903656670      -15.2821773792  MEMB      248             0.0000000000
     30803       248  PMPE      H2R            19.3962089000      -23.1735545275      -16.1182990754  MEMB      248             0.0000000000
     30804       248  PMPE      H2S            20.3458527825      -23.0192743050      -14.7951957054  MEMB      248             0.0000000000
     30805       248  PMPE      C3             23.4777524868      -24.6887632126      -15.9075766484  MEMB      248             0.0000000000
     30806       248  PMPE      HX             24.3534249485      -25.0517425450      -16.4912096781  MEMB      248             0.0000000000
     30807       248  PMPE      HY             23.1513629236      -25.4441923730      -15.1518002120  MEMB      248             0.0000000000
     30808       248  PMPE      O31            23.9937663425      -23.4799618068      -15.3365873786  MEMB      248             0.0000000000
     30809       248  PMPE      C31            23.5082655300      -23.1120948522      -14.1748052355  MEMB      248             0.0000000000
     30810       248  PMPE      O32            22.6430832979      -23.6957764246      -13.5437123736  MEMB      248             0.0000000000
     30811       248  PMPE      C32            24.1785735428      -21.8098124480      -13.7210994127  MEMB      248             0.0000000000
     30812       248  PMPE      H2X            23.8802219952      -21.0558308349      -14.4789103951  MEMB      248             0.0000000000
     30813       248  PMPE      H2Y            25.2894170483      -21.8680272081      -13.7182066450  MEMB      248             0.0000000000
     30814       248  PMPE      C23            18.7532834819      -24.9602176268      -14.3800558943  MEMB      248             0.0000000000
     30815       248  PMPE      H3R            19.3394964739      -25.2314960044      -13.4685163795  MEMB      248             0.0000000000
     30816       248  PMPE      H3S            17.7345103487      -25.1900188550      -14.6094036613  MEMB      248             0.0000000000
     30817       248  PMPE      C24            17.5488265997      -24.3937745944      -13.3637508476  MEMB      248             0.0000000000
     30818       248  PMPE      H4R            17.5719874818      -24.6692753717      -12.5833730897  MEMB      248             0.0000000000
     30819       248  PMPE      H4S            16.6084633763      -23.3583135422      -13.7455023134  MEMB      248             0.0000000000
     30820       248  PMPE      C25            18.6197474814      -22.5603488244      -11.6403142786  MEMB      248             0.0000000000
     30821       248  PMPE      H5R            19.3161390506      -21.6195908529      -12.2211162442  MEMB      248             0.0000000000
     30822       248  PMPE      H5S            19.4055104050      -23.0825547957      -11.3283966700  MEMB      248             0.0000000000
     30823       248  PMPE      C26            17.8631941501      -21.5018297361      -11.1230539715  MEMB      248             0.0000000000
     30824       248  PMPE      H6R            17.1237328757      -21.9314279301      -10.4601450906  MEMB      248             0.0000000000
     30825       248  PMPE      H6S            17.3369983071      -21.2566806243      -12.0664803469  MEMB      248             0.0000000000
     30826       248  PMPE      C27            18.5832121755      -20.6823291612      -10.3233789294  MEMB      248             0.0000000000
     30827       248  PMPE      H7R            17.9249454183      -19.9795065560      -10.2367575354  MEMB      248             0.0000000000
     30828       248  PMPE      H7S            19.3590599894      -20.1510521357      -10.8144986472  MEMB      248             0.0000000000
     30829       248  PMPE      C28            18.9332548506      -21.4465704960       -9.1145057666  MEMB      248             0.0000000000
     30830       248  PMPE      H8R            19.7358464657      -20.9299337105       -8.6308157430  MEMB      248             0.0000000000
     30831       248  PMPE      H8S            19.0968402019      -22.3876969555       -9.5319577168  MEMB      248             0.0000000000
     30832       248  PMPE      C29            18.0528188855      -21.9191550148       -8.0129367209  MEMB      248             0.0000000000
     30833       248  PMPE      H9R            16.9238680318      -22.1104532772       -8.3404875940  MEMB      248             0.0000000000
     30834       248  PMPE      C217           18.7510962860      -20.6971573427       -6.5335078353  MEMB      248             0.0000000000
     30835       248  PMPE      H17R           18.0479206410      -19.5942835815       -5.8703674952  MEMB      248             0.0000000000
     30836       248  PMPE      H17S           19.0426494104      -19.8538780411       -7.0083250929  MEMB      248             0.0000000000
     30837       248  PMPE      C210           18.1391647766      -22.2014961666       -6.7580255927  MEMB      248             0.0000000000
     30838       248  PMPE      H10R           17.1544631532      -22.7429038507       -6.5030085885  MEMB      248             0.0000000000
     30839       248  PMPE      C211           19.2854996816      -22.4978922819       -6.1202768932  MEMB      248             0.0000000000
     30840       248  PMPE      H11R           20.2205221734      -21.9239641648       -6.1180803659  MEMB      248             0.0000000000
     30841       248  PMPE      H11S           19.7420078593      -22.6822267691       -7.0781898428  MEMB      248             0.0000000000
     30842       248  PMPE      C212           19.0134047973      -23.5642429843       -5.0001729549  MEMB      248             0.0000000000
     30843       248  PMPE      H12R           18.5973031807      -24.5846287459       -5.3151981116  MEMB      248             0.0000000000
     30844       248  PMPE      H12S           18.2786404534      -23.3055051893       -4.3569250914  MEMB      248             0.0000000000
     30845       248  PMPE      C213           20.2492204732      -23.6656437818       -4.2488284260  MEMB      248             0.0000000000
     30846       248  PMPE      H13R           21.0728285986      -22.9853399359       -4.2032343743  MEMB      248             0.0000000000
     30847       248  PMPE      H13S           20.9027299862      -23.6693381808       -5.1199101354  MEMB      248             0.0000000000
     30848       248  PMPE      C214           20.1295755702      -24.7773025282       -3.1522981082  MEMB      248             0.0000000000
     30849       248  PMPE      H14R           19.8160543199      -25.7498455122       -3.6555014801  MEMB      248             0.0000000000
     30850       248  PMPE      H14S           19.5527368911      -24.2497487177       -2.4329937397  MEMB      248             0.0000000000
     30851       248  PMPE      C215           21.2533901260      -25.1745717394       -2.2334058043  MEMB      248             0.0000000000
     30852       248  PMPE      H15R           21.5772316637      -26.0328055580       -2.9455035259  MEMB      248             0.0000000000
     30853       248  PMPE      H15S           21.1319826174      -25.8368447619       -1.4151170400  MEMB      248             0.0000000000
     30854       248  PMPE      C216           22.2123028041      -23.9634860900       -1.7415270074  MEMB      248             0.0000000000
     30855       248  PMPE      H16R           22.1193213970      -23.3266763014       -0.9831008894  MEMB      248             0.0000000000
     30856       248  PMPE      H16S           22.9366066847      -24.6324540533       -1.4274001354  MEMB      248             0.0000000000
     30857       248  PMPE      H16T           22.7678662141      -23.2538709272       -2.5072339729  MEMB      248             0.0000000000
     30858       248  PMPE      C33            23.5943381989      -21.3548266437      -12.3687603532  MEMB      248             0.0000000000
     30859       248  PMPE      H3X            23.8922664905      -22.0059949449      -11.5138896986  MEMB      248             0.0000000000
     30860       248  PMPE      H3Y            22.4878733355      -21.2814494696      -12.4256154004  MEMB      248             0.0000000000
     30861       248  PMPE      C34            23.9458656030      -19.9608918148      -11.9534482851  MEMB      248             0.0000000000
     30862       248  PMPE      H4X            23.2725826126      -19.2237875956      -12.4641953589  MEMB      248             0.0000000000
     30863       248  PMPE      H4Y            24.9951454195      -19.7884350308      -12.3236858172  MEMB      248             0.0000000000
     30864       248  PMPE      C35            23.8601626670      -19.9529282121      -10.3928036247  MEMB      248             0.0000000000
     30865       248  PMPE      H5X            24.3787183227      -19.1914800286       -9.9264934667  MEMB      248             0.0000000000
     30866       248  PMPE      H5Y            24.6367719207      -20.5554521835       -9.9540094797  MEMB      248             0.0000000000
     30867       248  PMPE      C36            22.5337042793      -19.9611147276       -9.5975062401  MEMB      248             0.0000000000
     30868       248  PMPE      H6X            21.8755133720      -20.7586712744       -9.9790606553  MEMB      248             0.0000000000
     30869       248  PMPE      H6Y            22.0735614436      -18.9604822870       -9.7124154014  MEMB      248             0.0000000000
     30870       248  PMPE      C37            22.6275278267      -20.2408550070       -8.0789513770  MEMB      248             0.0000000000
     30871       248  PMPE      H7X            23.2715482986      -21.1557967508       -7.9852356115  MEMB      248             0.0000000000
     30872       248  PMPE      H7Y            21.6737167068      -20.4545646537       -7.6001419622  MEMB      248             0.0000000000
     30873       248  PMPE      C38            23.1308593112      -19.1142329622       -7.2243360666  MEMB      248             0.0000000000
     30874       248  PMPE      H8X            23.6050202260      -18.3626586570       -7.9666482517  MEMB      248             0.0000000000
     30875       248  PMPE      H8Y            23.7727219922      -19.7858938341       -6.5267771254  MEMB      248             0.0000000000
     30876       248  PMPE      C39            22.4921007971      -18.1795138422       -6.2520165085  MEMB      248             0.0000000000
     30877       248  PMPE      H9X            21.9465524669      -17.5094422050       -6.9261545501  MEMB      248             0.0000000000
     30878       248  PMPE      H9Y            23.2039635280      -17.5482719039       -5.6573233144  MEMB      248             0.0000000000
     30879       248  PMPE      C310           21.5812116578      -18.9713389941       -5.3718929166  MEMB      248             0.0000000000
     30880       248  PMPE      H10X           22.0638854696      -19.9268963508       -5.0924244623  MEMB      248             0.0000000000
     30881       248  PMPE      H10Y           20.6623862433      -19.1933546207       -5.9382423530  MEMB      248             0.0000000000
     30882       248  PMPE      C311           21.2097671334      -18.2847989565       -4.0937338500  MEMB      248             0.0000000000
     30883       248  PMPE      H11X           20.6441171782      -17.3693596361       -4.3750026249  MEMB      248             0.0000000000
     30884       248  PMPE      H11Y           22.1398053934      -17.9984680944       -3.5450010088  MEMB      248             0.0000000000
     30885       248  PMPE      C312           20.3717023462      -19.1820906580       -3.1938994011  MEMB      248             0.0000000000
     30886       248  PMPE      H12X           19.3050994876      -19.2488928753       -3.4476340216  MEMB      248             0.0000000000
     30887       248  PMPE      H12Y           20.3728680613      -18.5849251635       -2.3608513325  MEMB      248             0.0000000000
     30888       248  PMPE      C313           20.9756214713      -20.5102034092       -2.7926443691  MEMB      248             0.0000000000
     30889       248  PMPE      H13X           21.9501095387      -20.3733325806       -2.2546565240  MEMB      248             0.0000000000
     30890       248  PMPE      H13Y           21.1050754618      -21.0529377545       -3.7226888252  MEMB      248             0.0000000000
     30891       248  PMPE      C314           20.0013157886      -21.4645394046       -2.1424337857  MEMB      248             0.0000000000
     30892       248  PMPE      H14X           20.3947512018      -22.4539045229       -1.9660697291  MEMB      248             0.0000000000
     30893       248  PMPE      H14Y           18.9587738629      -21.3637908155       -2.4135122587  MEMB      248             0.0000000000
     30894       248  PMPE      C315           19.6397472211      -21.0553666310       -0.9474149714  MEMB      248             0.0000000000
     30895       248  PMPE      H15X           19.2619142384      -20.0557393555       -0.8950855697  MEMB      248             0.0000000000
     30896       248  PMPE      H15Y           20.6473243936      -20.5127874311       -0.7558073013  MEMB      248             0.0000000000
     30897       248  PMPE      C316           18.4939631558      -21.7875700392       -0.0668056508  MEMB      248             0.0000000000
     30898       248  PMPE      H16X           19.0721031309      -22.6608847998        0.3615569175  MEMB      248             0.0000000000
     30899       248  PMPE      H16Y           17.6717783156      -21.8976036204       -0.6577942702  MEMB      248             0.0000000000
     30900       248  PMPE      H16Z           18.0557314464      -21.2385242679        0.8912889776  MEMB      248             0.0000000000
     30901       249  PMPE      N             -30.3799086588      -10.0386739595      -21.5635157565  MEMB      249             0.0000000000
     30902       249  PMPE      HN1           -31.0243711906       -9.2880355277      -21.8423197981  MEMB      249             0.0000000000
     30903       249  PMPE      HN2           -29.4560065378       -9.9151989564      -22.0469142626  MEMB      249             0.0000000000
     30904       249  PMPE      HN3           -30.8207072730      -10.9307928005      -21.8590705517  MEMB      249             0.0000000000
     30905       249  PMPE      C12           -30.3334214304      -10.0063177693      -20.0551625329  MEMB      249             0.0000000000
     30906       249  PMPE      H12A          -31.3856079983       -9.8198423013      -19.7519557407  MEMB      249             0.0000000000
     30907       249  PMPE      H12B          -29.7332533517       -9.1473293878      -19.7155005062  MEMB      249             0.0000000000
     30908       249  PMPE      C11           -29.7763357979      -11.2764229777      -19.3982916074  MEMB      249             0.0000000000
     30909       249  PMPE      H11A          -30.0929985993      -12.1833773791      -19.9487712070  MEMB      249             0.0000000000
     30910       249  PMPE      H11B          -30.1895574847      -11.2641969117      -18.3514764870  MEMB      249             0.0000000000
     30911       249  PMPE      P             -27.6738761175      -12.0800849718      -18.1593594900  MEMB      249             0.0000000000
     30912       249  PMPE      O13           -27.7494292046      -11.2148300380      -16.9734081252  MEMB      249             0.0000000000
     30913       249  PMPE      O14           -26.3736410151      -12.6243613420      -18.6060953806  MEMB      249             0.0000000000
     30914       249  PMPE      O11           -28.6583216174      -13.3103789656      -17.9242351444  MEMB      249             0.0000000000
     30915       249  PMPE      O12           -28.3572512544      -11.2771164646      -19.3724960222  MEMB      249             0.0000000000
     30916       249  PMPE      C1            -28.2197943466      -14.5728314112      -17.4445742459  MEMB      249             0.0000000000
     30917       249  PMPE      HA            -27.3066830850      -14.9367106238      -17.9827254511  MEMB      249             0.0000000000
     30918       249  PMPE      HB            -29.0589969926      -15.2746852443      -17.6325173434  MEMB      249             0.0000000000
     30919       249  PMPE      C2            -27.9008855782      -14.5957911422      -15.9230074067  MEMB      249             0.0000000000
     30920       249  PMPE      HS            -28.1894777386      -15.5990381231      -15.5358779719  MEMB      249             0.0000000000
     30921       249  PMPE      O21           -28.5744898061      -13.5870606413      -15.1417135785  MEMB      249             0.0000000000
     30922       249  PMPE      C21           -29.8906654224      -13.5488507508      -15.1158341947  MEMB      249             0.0000000000
     30923       249  PMPE      O22           -30.6325091949      -14.4333090751      -15.5265486397  MEMB      249             0.0000000000
     30924       249  PMPE      C22           -30.4061154000      -12.2008489511      -14.5573627281  MEMB      249             0.0000000000
     30925       249  PMPE      H2R           -31.2762890713      -12.3440271148      -13.8910800616  MEMB      249             0.0000000000
     30926       249  PMPE      H2S           -30.7631958158      -11.6895584189      -15.4717635148  MEMB      249             0.0000000000
     30927       249  PMPE      C3            -26.3745317530      -14.4245410830      -15.7386076856  MEMB      249             0.0000000000
     30928       249  PMPE      HX            -26.1187896872      -13.3524459403      -15.8199492606  MEMB      249             0.0000000000
     30929       249  PMPE      HY            -25.7538434569      -14.8949458346      -16.5418044466  MEMB      249             0.0000000000
     30930       249  PMPE      O31           -26.0290448158      -14.9356170049      -14.4558886563  MEMB      249             0.0000000000
     30931       249  PMPE      C31           -25.8134815860      -13.9850167718      -13.5440285451  MEMB      249             0.0000000000
     30932       249  PMPE      O32           -26.0525945273      -12.8171518160      -13.6294905383  MEMB      249             0.0000000000
     30933       249  PMPE      C32           -25.1732736964      -14.4437802285      -12.3142918553  MEMB      249             0.0000000000
     30934       249  PMPE      H2X           -24.1427627198      -14.7292912634      -12.3447269920  MEMB      249             0.0000000000
     30935       249  PMPE      H2Y           -25.7127562230      -15.2354695567      -12.1494041619  MEMB      249             0.0000000000
     30936       249  PMPE      C23           -29.3374932974      -11.2804427643      -13.9229318764  MEMB      249             0.0000000000
     30937       249  PMPE      H3R           -29.6758623842      -10.2261729197      -13.8263274031  MEMB      249             0.0000000000
     30938       249  PMPE      H3S           -28.4901010565      -11.1997699784      -14.6310308107  MEMB      249             0.0000000000
     30939       249  PMPE      C24           -28.8928067291      -11.7061874807      -12.5270406461  MEMB      249             0.0000000000
     30940       249  PMPE      H4R           -28.0483007703      -11.0311523948      -12.2492781220  MEMB      249             0.0000000000
     30941       249  PMPE      H4S           -28.5425701533      -12.7596755586      -12.4956813249  MEMB      249             0.0000000000
     30942       249  PMPE      C25           -29.9525476015      -11.4012834287      -11.4880669729  MEMB      249             0.0000000000
     30943       249  PMPE      H5R           -30.8366481655      -12.0813677331      -11.5292696519  MEMB      249             0.0000000000
     30944       249  PMPE      H5S           -30.3163421859      -10.3875689094      -11.7562209043  MEMB      249             0.0000000000
     30945       249  PMPE      C26           -29.3531035246      -11.4103773620      -10.0803048545  MEMB      249             0.0000000000
     30946       249  PMPE      H6R           -29.0268984484      -12.4311888403       -9.8256541723  MEMB      249             0.0000000000
     30947       249  PMPE      H6S           -30.1721504011      -11.2410608296       -9.4352311995  MEMB      249             0.0000000000
     30948       249  PMPE      C27           -28.2112196058      -10.4286878307       -9.7016173831  MEMB      249             0.0000000000
     30949       249  PMPE      H7R           -28.1787292053       -9.4528460165      -10.2262011193  MEMB      249             0.0000000000
     30950       249  PMPE      H7S           -27.2946631795      -10.9432315210      -10.0310670795  MEMB      249             0.0000000000
     30951       249  PMPE      C28           -28.1706294348      -10.0903948105       -8.1891008792  MEMB      249             0.0000000000
     30952       249  PMPE      H8R           -27.8582942169      -11.0014029351       -7.6544413975  MEMB      249             0.0000000000
     30953       249  PMPE      H8S           -29.1738708116       -9.7838259559       -7.8323347352  MEMB      249             0.0000000000
     30954       249  PMPE      C29           -27.3040388447       -8.8759231305       -7.8508023648  MEMB      249             0.0000000000
     30955       249  PMPE      H9R           -27.6511594605       -7.9038527651       -8.2041750890  MEMB      249             0.0000000000
     30956       249  PMPE      C217          -25.8230733246       -9.0638066694       -7.6498288603  MEMB      249             0.0000000000
     30957       249  PMPE      H17R          -25.2757591471       -8.3964629313       -8.2949544221  MEMB      249             0.0000000000
     30958       249  PMPE      H17S          -25.8423173975      -10.0871754816       -7.7728435244  MEMB      249             0.0000000000
     30959       249  PMPE      C210          -26.6886102693       -8.6702103798       -6.4718434710  MEMB      249             0.0000000000
     30960       249  PMPE      H10R          -26.7910365091       -7.6249298361       -6.2042963185  MEMB      249             0.0000000000
     30961       249  PMPE      C211          -26.6459996879       -9.6437436253       -5.2755495115  MEMB      249             0.0000000000
     30962       249  PMPE      H11R          -25.7942539220       -9.3236182836       -4.6209849735  MEMB      249             0.0000000000
     30963       249  PMPE      H11S          -26.4238236813      -10.6491455282       -5.6778391112  MEMB      249             0.0000000000
     30964       249  PMPE      C212          -27.9181098135       -9.6207007803       -4.3841378951  MEMB      249             0.0000000000
     30965       249  PMPE      H12R          -28.7939714964       -9.9167168633       -4.9897402847  MEMB      249             0.0000000000
     30966       249  PMPE      H12S          -28.0900699103       -8.5796934845       -4.0173670096  MEMB      249             0.0000000000
     30967       249  PMPE      C213          -27.9136810925      -10.5882868485       -3.1851814184  MEMB      249             0.0000000000
     30968       249  PMPE      H13R          -27.6758042696      -11.6161253994       -3.5248720314  MEMB      249             0.0000000000
     30969       249  PMPE      H13S          -28.9012139945      -10.5788687051       -2.6590250370  MEMB      249             0.0000000000
     30970       249  PMPE      C214          -26.8050113627      -10.2911764998       -2.2116725919  MEMB      249             0.0000000000
     30971       249  PMPE      H14R          -26.8407946264       -9.2441962081       -1.8662817365  MEMB      249             0.0000000000
     30972       249  PMPE      H14S          -25.8381332334      -10.5445329110       -2.6780754235  MEMB      249             0.0000000000
     30973       249  PMPE      C215          -26.8904733856      -11.0620828766       -0.9780810731  MEMB      249             0.0000000000
     30974       249  PMPE      H15R          -27.8694024018      -10.7244287222       -0.5054360597  MEMB      249             0.0000000000
     30975       249  PMPE      H15S          -26.1209868808      -10.6119307943       -0.3039435893  MEMB      249             0.0000000000
     30976       249  PMPE      C216          -26.6293221909      -12.6027105624       -1.1832328309  MEMB      249             0.0000000000
     30977       249  PMPE      H16R          -25.6591908989      -13.0146797311       -1.3154661102  MEMB      249             0.0000000000
     30978       249  PMPE      H16S          -26.5187653273      -13.1147634157       -0.2275482902  MEMB      249             0.0000000000
     30979       249  PMPE      H16T          -27.5013594431      -13.1718699320       -1.5565208966  MEMB      249             0.0000000000
     30980       249  PMPE      C33           -25.5193943368      -13.8080174223      -11.0340388471  MEMB      249             0.0000000000
     30981       249  PMPE      H3X           -26.5924565875      -13.5698432498      -11.0901404992  MEMB      249             0.0000000000
     30982       249  PMPE      H3Y           -24.8109249317      -12.9764306907      -11.0841626125  MEMB      249             0.0000000000
     30983       249  PMPE      C34           -25.2309811943      -14.5654356138       -9.7561582032  MEMB      249             0.0000000000
     30984       249  PMPE      H4X           -24.1245323043      -14.6395251004       -9.6735292576  MEMB      249             0.0000000000
     30985       249  PMPE      H4Y           -25.6414193350      -15.5492012108       -9.7692273750  MEMB      249             0.0000000000
     30986       249  PMPE      C35           -25.8919512977      -13.9273021949       -8.5283916312  MEMB      249             0.0000000000
     30987       249  PMPE      H5X           -26.9896892956      -13.9870713228       -8.6184812239  MEMB      249             0.0000000000
     30988       249  PMPE      H5Y           -25.6739277812      -12.8381494592       -8.5530787274  MEMB      249             0.0000000000
     30989       249  PMPE      C36           -25.3503470890      -14.5470848388       -7.2242792243  MEMB      249             0.0000000000
     30990       249  PMPE      H6X           -24.2361809055      -14.4514251021       -7.2604051258  MEMB      249             0.0000000000
     30991       249  PMPE      H6Y           -25.5642164317      -15.6321879776       -7.1247140510  MEMB      249             0.0000000000
     30992       249  PMPE      C37           -25.8430525834      -13.8421980204       -5.9636229592  MEMB      249             0.0000000000
     30993       249  PMPE      H7X           -25.4867975511      -12.7907772840       -6.0237166129  MEMB      249             0.0000000000
     30994       249  PMPE      H7Y           -25.4171764863      -14.3394585727       -5.0667755830  MEMB      249             0.0000000000
     30995       249  PMPE      C38           -27.3500472119      -13.6942572566       -5.7978988935  MEMB      249             0.0000000000
     30996       249  PMPE      H8X           -27.7901199193      -13.3521067707       -6.7578364974  MEMB      249             0.0000000000
     30997       249  PMPE      H8Y           -27.4549281688      -12.9108592392       -5.0019641703  MEMB      249             0.0000000000
     30998       249  PMPE      C39           -28.0959727583      -14.9166590339       -5.2702088814  MEMB      249             0.0000000000
     30999       249  PMPE      H9X           -27.3541855196      -15.6710396588       -4.9151774231  MEMB      249             0.0000000000
     31000       249  PMPE      H9Y           -28.7459862296      -15.3643923683       -6.0539522298  MEMB      249             0.0000000000
     31001       249  PMPE      C310          -28.9875498039      -14.4587642141       -4.1163326905  MEMB      249             0.0000000000
     31002       249  PMPE      H10X          -28.2852999879      -13.9831274206       -3.3951430257  MEMB      249             0.0000000000
     31003       249  PMPE      H10Y          -29.5035518653      -15.3341015927       -3.6565794606  MEMB      249             0.0000000000
     31004       249  PMPE      C311          -30.1019410991      -13.5188357822       -4.5929503315  MEMB      249             0.0000000000
     31005       249  PMPE      H11X          -30.7546022594      -14.1769520930       -5.2004178959  MEMB      249             0.0000000000
     31006       249  PMPE      H11Y          -29.8057417454      -12.6208297417       -5.1809240164  MEMB      249             0.0000000000
     31007       249  PMPE      C312          -31.0428571026      -13.0614174916       -3.5069888037  MEMB      249             0.0000000000
     31008       249  PMPE      H12X          -30.4488772008      -12.4836192181       -2.7776109123  MEMB      249             0.0000000000
     31009       249  PMPE      H12Y          -31.4670655081      -13.9895320186       -3.0626411029  MEMB      249             0.0000000000
     31010       249  PMPE      C313          -32.1951931442      -12.2641578162       -4.1012798978  MEMB      249             0.0000000000
     31011       249  PMPE      H13X          -32.5462948607      -12.8463319578       -4.9659383626  MEMB      249             0.0000000000
     31012       249  PMPE      H13Y          -31.8696827400      -11.2946681985       -4.4762064446  MEMB      249             0.0000000000
     31013       249  PMPE      C314          -33.2927560546      -11.9644763308       -3.1188129530  MEMB      249             0.0000000000
     31014       249  PMPE      H14X          -33.7658032748      -12.8835040641       -2.7229253061  MEMB      249             0.0000000000
     31015       249  PMPE      H14Y          -34.1437354998      -11.4597196979       -3.6372011673  MEMB      249             0.0000000000
     31016       249  PMPE      C315          -32.6518324738      -11.2367285106       -1.9571027786  MEMB      249             0.0000000000
     31017       249  PMPE      H15X          -32.0810236182      -10.3554860520       -2.0454354061  MEMB      249             0.0000000000
     31018       249  PMPE      H15Y          -31.9916886939      -11.7815722681       -1.2965755554  MEMB      249             0.0000000000
     31019       249  PMPE      C316          -33.6293823930      -10.8326438069       -1.1249465661  MEMB      249             0.0000000000
     31020       249  PMPE      H16X          -34.1517787981      -11.7141037224       -0.7868658607  MEMB      249             0.0000000000
     31021       249  PMPE      H16Y          -34.5235992830      -10.4984153743       -1.6980755820  MEMB      249             0.0000000000
     31022       249  PMPE      H16Z          -33.3275988270      -10.1609195506       -0.2636253645  MEMB      249             0.0000000000
     31023       250  POPE      N             -13.3628809613       31.9201776746      -19.2520363358  MEMB      250             0.0000000000
     31024       250  POPE      HN1           -13.6912300977       32.1107884355      -18.2760542221  MEMB      250             0.0000000000
     31025       250  POPE      HN2           -12.5076923311       32.4914987754      -19.3826390072  MEMB      250             0.0000000000
     31026       250  POPE      HN3           -14.0719787986       32.2224123482      -19.9429026480  MEMB      250             0.0000000000
     31027       250  POPE      C12           -13.1039087196       30.4291595320      -19.4096934081  MEMB      250             0.0000000000
     31028       250  POPE      H12A          -13.2064596530       30.1206159539      -20.4657545095  MEMB      250             0.0000000000
     31029       250  POPE      H12B          -13.8603333796       29.9172694660      -18.7761778438  MEMB      250             0.0000000000
     31030       250  POPE      C11           -11.6893074512       29.9982693338      -18.9983716669  MEMB      250             0.0000000000
     31031       250  POPE      H11A          -11.6873399555       30.1324434400      -17.8941776313  MEMB      250             0.0000000000
     31032       250  POPE      H11B          -10.9119764776       30.6046947734      -19.5175546114  MEMB      250             0.0000000000
     31033       250  POPE      P             -10.1705237112       27.8138404540      -18.8885445937  MEMB      250             0.0000000000
     31034       250  POPE      O13            -9.2169989166       27.6582066431      -20.0114910643  MEMB      250             0.0000000000
     31035       250  POPE      O14           -10.6641929378       26.5847303046      -18.2359469365  MEMB      250             0.0000000000
     31036       250  POPE      O11            -9.4647109414       28.7993061454      -17.8628350539  MEMB      250             0.0000000000
     31037       250  POPE      O12           -11.4703545937       28.6382068066      -19.3394552630  MEMB      250             0.0000000000
     31038       250  POPE      C1             -8.9781615019       28.2593202595      -16.6387278662  MEMB      250             0.0000000000
     31039       250  POPE      HA             -8.0893159458       28.8700357505      -16.3960499403  MEMB      250             0.0000000000
     31040       250  POPE      HB             -8.5728036842       27.2302113008      -16.7663200738  MEMB      250             0.0000000000
     31041       250  POPE      C2            -10.0908561347       28.2783204336      -15.5275210450  MEMB      250             0.0000000000
     31042       250  POPE      HS            -10.9268172571       27.6384432274      -15.8903644345  MEMB      250             0.0000000000
     31043       250  POPE      O21           -10.5044608270       29.6567165654      -15.3341126013  MEMB      250             0.0000000000
     31044       250  POPE      C21           -11.6148321152       29.7904561319      -14.5965167461  MEMB      250             0.0000000000
     31045       250  POPE      O22           -12.3347322125       28.8648171133      -14.2705277304  MEMB      250             0.0000000000
     31046       250  POPE      C22           -11.8348489145       31.2697724373      -14.1797734586  MEMB      250             0.0000000000
     31047       250  POPE      H2R           -12.3845279491       31.8221356240      -14.9603762679  MEMB      250             0.0000000000
     31048       250  POPE      H2S           -10.8152145864       31.6967727901      -14.0865765343  MEMB      250             0.0000000000
     31049       250  POPE      C3             -9.6109540160       27.6555003196      -14.1953574980  MEMB      250             0.0000000000
     31050       250  POPE      HX             -9.4966777852       26.5566224653      -14.3549875357  MEMB      250             0.0000000000
     31051       250  POPE      HY            -10.3609707790       27.7100478304      -13.3594552328  MEMB      250             0.0000000000
     31052       250  POPE      O31            -8.3229782336       28.2382654546      -13.9393963212  MEMB      250             0.0000000000
     31053       250  POPE      C31            -8.2271420769       29.3345699710      -13.2183155800  MEMB      250             0.0000000000
     31054       250  POPE      O32            -9.1212253783       29.9206417549      -12.6409015411  MEMB      250             0.0000000000
     31055       250  POPE      C32            -6.7558848461       29.6105674920      -13.1071208372  MEMB      250             0.0000000000
     31056       250  POPE      H2X            -6.2407995698       29.7976624505      -14.0816317094  MEMB      250             0.0000000000
     31057       250  POPE      H2Y            -6.2788501221       28.7012880321      -12.7237809818  MEMB      250             0.0000000000
     31058       250  POPE      C23           -12.6841195549       31.4965652095      -12.8938684343  MEMB      250             0.0000000000
     31059       250  POPE      H3R           -13.5054453074       30.7508418973      -12.8295862456  MEMB      250             0.0000000000
     31060       250  POPE      H3S           -13.2088408009       32.4773549138      -12.9716307354  MEMB      250             0.0000000000
     31061       250  POPE      C24           -11.7978988597       31.4334838474      -11.6478383301  MEMB      250             0.0000000000
     31062       250  POPE      H4R           -11.1903637766       30.5040618970      -11.6892022357  MEMB      250             0.0000000000
     31063       250  POPE      H4S           -12.4066783725       31.3300243575      -10.7260068583  MEMB      250             0.0000000000
     31064       250  POPE      C25           -10.7716233407       32.5822537734      -11.5761726730  MEMB      250             0.0000000000
     31065       250  POPE      H5R           -10.3421691386       32.8302760706      -12.5421344057  MEMB      250             0.0000000000
     31066       250  POPE      H5S           -10.0005277911       32.2381208661      -10.8517306312  MEMB      250             0.0000000000
     31067       250  POPE      C26           -11.3570170257       33.8682005650      -11.1275988950  MEMB      250             0.0000000000
     31068       250  POPE      H6R           -11.5828227605       33.3432327766      -10.2352741385  MEMB      250             0.0000000000
     31069       250  POPE      H6S           -12.1999869942       34.3047935257      -11.7083746633  MEMB      250             0.0000000000
     31070       250  POPE      C27           -10.6107708983       35.0733993158      -10.6288543081  MEMB      250             0.0000000000
     31071       250  POPE      H7R           -11.0948017550       36.0533837571      -10.6582033356  MEMB      250             0.0000000000
     31072       250  POPE      H7S           -10.2486986672       35.0739033405      -11.6721753601  MEMB      250             0.0000000000
     31073       250  POPE      C28            -9.5740807604       34.9518542878       -9.4394909179  MEMB      250             0.0000000000
     31074       250  POPE      H8R            -8.7907696023       35.7055755029       -9.4620200770  MEMB      250             0.0000000000
     31075       250  POPE      H8S            -9.1033296715       33.9890197867       -9.5193775243  MEMB      250             0.0000000000
     31076       250  POPE      C29            -9.7414461881       35.1645601728       -8.0120996660  MEMB      250             0.0000000000
     31077       250  POPE      H91           -10.1683475246       36.2108124831       -7.9002397788  MEMB      250             0.0000000000
     31078       250  POPE      C210           -9.8746897542       34.1570040442       -7.0559430281  MEMB      250             0.0000000000
     31079       250  POPE      H101          -10.6636981037       34.2590265266       -6.2562689064  MEMB      250             0.0000000000
     31080       250  POPE      C211           -9.8608065710       32.6633841883       -7.3329559468  MEMB      250             0.0000000000
     31081       250  POPE      H11R           -8.9895368844       32.5670284427       -6.7434140050  MEMB      250             0.0000000000
     31082       250  POPE      H11S           -9.6675080153       32.4549038004       -8.4196346324  MEMB      250             0.0000000000
     31083       250  POPE      C212          -11.0049378968       31.6216570246       -6.9163208918  MEMB      250             0.0000000000
     31084       250  POPE      H12R          -11.9726744077       31.7061364575       -7.4781921360  MEMB      250             0.0000000000
     31085       250  POPE      H12S          -11.2870795232       31.7281665227       -5.8490659775  MEMB      250             0.0000000000
     31086       250  POPE      C213          -10.6044175537       30.2087079868       -7.2900586314  MEMB      250             0.0000000000
     31087       250  POPE      H13R           -9.9423104289       30.3279366550       -8.1746152491  MEMB      250             0.0000000000
     31088       250  POPE      H13S          -11.4717168523       29.5744533939       -7.5925028840  MEMB      250             0.0000000000
     31089       250  POPE      C214           -9.9247356631       29.5205848985       -6.1306333368  MEMB      250             0.0000000000
     31090       250  POPE      H14R           -9.4253387195       30.2630433788       -5.4719424059  MEMB      250             0.0000000000
     31091       250  POPE      H14S           -9.1301348084       28.8699569870       -6.5533376271  MEMB      250             0.0000000000
     31092       250  POPE      C215          -10.9505276862       28.6664354866       -5.3796721749  MEMB      250             0.0000000000
     31093       250  POPE      H15R          -11.5490624713       28.1240688875       -6.1537241377  MEMB      250             0.0000000000
     31094       250  POPE      H15S          -11.6724041050       29.2539412888       -4.7820999845  MEMB      250             0.0000000000
     31095       250  POPE      C216          -10.3105039361       27.7030697585       -4.4035923258  MEMB      250             0.0000000000
     31096       250  POPE      H16R           -9.9216674228       26.9380968269       -4.9683205259  MEMB      250             0.0000000000
     31097       250  POPE      H16S          -11.0181710865       27.0528357920       -3.8820516346  MEMB      250             0.0000000000
     31098       250  POPE      C217           -9.2627887369       28.2510315840       -3.4477000688  MEMB      250             0.0000000000
     31099       250  POPE      H17R           -8.3885396618       28.7916897989       -3.8988725598  MEMB      250             0.0000000000
     31100       250  POPE      H17S           -8.8012826000       27.3267594690       -3.0205797768  MEMB      250             0.0000000000
     31101       250  POPE      C218          -10.0031101549       29.0927605393       -2.4379940796  MEMB      250             0.0000000000
     31102       250  POPE      H18R          -10.5184854273       29.9470422365       -2.9408699078  MEMB      250             0.0000000000
     31103       250  POPE      H18S           -9.3045878306       29.4205979086       -1.6507889819  MEMB      250             0.0000000000
     31104       250  POPE      H18T          -10.8086649932       28.5077913980       -1.9537133563  MEMB      250             0.0000000000
     31105       250  POPE      C33            -6.5575446419       30.7313255107      -12.1360887342  MEMB      250             0.0000000000
     31106       250  POPE      H3X            -6.9874262953       31.6822514909      -12.4765112351  MEMB      250             0.0000000000
     31107       250  POPE      H3Y            -5.5199876690       30.7301080905      -12.2248770649  MEMB      250             0.0000000000
     31108       250  POPE      C34            -6.8533213776       30.6679471954      -10.6606326916  MEMB      250             0.0000000000
     31109       250  POPE      H4X            -7.9231838110       30.6629226901      -10.5705131937  MEMB      250             0.0000000000
     31110       250  POPE      H4Y            -6.4419088254       31.5974174593      -10.1687841293  MEMB      250             0.0000000000
     31111       250  POPE      C35            -6.3668398511       29.4299710866       -9.9859830271  MEMB      250             0.0000000000
     31112       250  POPE      H5X            -5.3826336016       29.7567644239      -10.0665067942  MEMB      250             0.0000000000
     31113       250  POPE      H5Y            -6.5004592410       28.4876490186      -10.5524912407  MEMB      250             0.0000000000
     31114       250  POPE      C36            -6.8312961132       29.1949595297       -8.5722023009  MEMB      250             0.0000000000
     31115       250  POPE      H6X            -6.5254344421       28.1286779180       -8.3887271110  MEMB      250             0.0000000000
     31116       250  POPE      H6Y            -7.9199993259       29.3164329013       -8.5781375514  MEMB      250             0.0000000000
     31117       250  POPE      C37            -6.2549004356       29.9643919462       -7.3933859865  MEMB      250             0.0000000000
     31118       250  POPE      H7X            -5.2482596252       29.9299508714       -7.6002048957  MEMB      250             0.0000000000
     31119       250  POPE      H7Y            -6.4146414741       29.3297654603       -6.5156607412  MEMB      250             0.0000000000
     31120       250  POPE      C38            -6.4026104887       31.4667999927       -7.1943984148  MEMB      250             0.0000000000
     31121       250  POPE      H8X            -7.3836479747       31.7523906569       -7.6086532513  MEMB      250             0.0000000000
     31122       250  POPE      H8Y            -5.5820929105       31.9114844211       -7.8029644358  MEMB      250             0.0000000000
     31123       250  POPE      C39            -6.2487336950       31.9109603572       -5.7333858939  MEMB      250             0.0000000000
     31124       250  POPE      H9X            -5.2059358543       31.8307385111       -5.3199568950  MEMB      250             0.0000000000
     31125       250  POPE      H9Y            -6.9167908086       31.2677901376       -5.1277702478  MEMB      250             0.0000000000
     31126       250  POPE      C310           -6.6054412104       33.3341214953       -5.4547688025  MEMB      250             0.0000000000
     31127       250  POPE      H10X           -7.6859336447       33.5882642154       -5.2800963038  MEMB      250             0.0000000000
     31128       250  POPE      H10Y           -6.2599892167       33.9974993104       -6.2959353450  MEMB      250             0.0000000000
     31129       250  POPE      C311           -5.8860365249       33.6644244550       -4.1420292433  MEMB      250             0.0000000000
     31130       250  POPE      H11X           -6.5164896486       34.4947521865       -4.0582395545  MEMB      250             0.0000000000
     31131       250  POPE      H11Y           -4.8550646504       34.0244396028       -4.2951438330  MEMB      250             0.0000000000
     31132       250  POPE      C312           -6.1578556476       32.8564996921       -2.8435539410  MEMB      250             0.0000000000
     31133       250  POPE      H12X           -5.3983131688       32.1128550665       -2.9356901798  MEMB      250             0.0000000000
     31134       250  POPE      H12Y           -7.1805845519       32.4838443403       -2.8689989921  MEMB      250             0.0000000000
     31135       250  POPE      C313           -5.7956471625       33.2445501273       -1.3897945964  MEMB      250             0.0000000000
     31136       250  POPE      H13X           -6.1829258135       34.0493391263       -1.0587446780  MEMB      250             0.0000000000
     31137       250  POPE      H13Y           -4.8399203430       33.7402412214       -1.2816055703  MEMB      250             0.0000000000
     31138       250  POPE      C314           -6.6907093394       32.9297712630       -0.1863089071  MEMB      250             0.0000000000
     31139       250  POPE      H14X           -6.2336482404       33.3575693790        0.7437130169  MEMB      250             0.0000000000
     31140       250  POPE      H14Y           -6.5706936702       31.8778803669       -0.3252449418  MEMB      250             0.0000000000
     31141       250  POPE      C315           -8.1769455307       33.2934295384       -0.0708676541  MEMB      250             0.0000000000
     31142       250  POPE      H15X           -8.2221326226       34.3218027557        0.3246411962  MEMB      250             0.0000000000
     31143       250  POPE      H15Y           -8.4648989105       32.7963777771        0.8137185099  MEMB      250             0.0000000000
     31144       250  POPE      C316           -9.1096331683       33.0302612636       -1.2650235165  MEMB      250             0.0000000000
     31145       250  POPE      H16X          -10.1716035717       33.1010438848       -1.0580141036  MEMB      250             0.0000000000
     31146       250  POPE      H16Y           -8.9132272343       32.0370204868       -1.6986561682  MEMB      250             0.0000000000
     31147       250  POPE      H16Z           -9.0075687310       33.8240850842       -2.0190392418  MEMB      250             0.0000000000
     31148       251  PMPG      C13            10.8819634863      -29.4583951460      -21.6418654900  MEMB      251             0.0000000000
     31149       251  PMPG      H13A           10.7878890290      -29.0292667365      -22.6538204551  MEMB      251             0.0000000000
     31150       251  PMPG      H13B           11.9384831213      -29.3269898098      -21.3109867379  MEMB      251             0.0000000000
     31151       251  PMPG      OC3            10.5692279669      -30.8415319800      -21.8522295879  MEMB      251             0.0000000000
     31152       251  PMPG      HO3            11.3622173862      -31.2548633245      -22.2259096351  MEMB      251             0.0000000000
     31153       251  PMPG      C12             9.9212320127      -28.7888214302      -20.5897497464  MEMB      251             0.0000000000
     31154       251  PMPG      H12A            8.8799105589      -28.9817246392      -20.9315085071  MEMB      251             0.0000000000
     31155       251  PMPG      OC2            10.0660944666      -27.3558048228      -20.5540004065  MEMB      251             0.0000000000
     31156       251  PMPG      HO2             9.5514917521      -27.1098853448      -19.7845267090  MEMB      251             0.0000000000
     31157       251  PMPG      C11            10.0147605367      -29.3611701701      -19.1238066656  MEMB      251             0.0000000000
     31158       251  PMPG      H11A            9.7562665109      -30.4523289389      -19.1357439100  MEMB      251             0.0000000000
     31159       251  PMPG      H11B            9.2397301324      -28.8163131074      -18.5402561316  MEMB      251             0.0000000000
     31160       251  PMPG      P              11.9021504236      -29.7541418824      -17.2329369340  MEMB      251             0.0000000000
     31161       251  PMPG      O13            13.1901293868      -29.0603042682      -16.9985819166  MEMB      251             0.0000000000
     31162       251  PMPG      O14            11.9252025460      -31.2303550585      -17.3464380729  MEMB      251             0.0000000000
     31163       251  PMPG      O11            10.8501911494      -29.2989706854      -16.1188134797  MEMB      251             0.0000000000
     31164       251  PMPG      O12            11.2890801759      -29.1089710597      -18.5380960256  MEMB      251             0.0000000000
     31165       251  PMPG      C1             10.7667894915      -27.8989737907      -15.7666140957  MEMB      251             0.0000000000
     31166       251  PMPG      HA              9.7138877552      -27.6424048758      -15.5340231820  MEMB      251             0.0000000000
     31167       251  PMPG      HB             10.9885967525      -27.2500525875      -16.6477914805  MEMB      251             0.0000000000
     31168       251  PMPG      C2             11.5709849056      -27.5213248855      -14.4428047714  MEMB      251             0.0000000000
     31169       251  PMPG      HS             12.6371618459      -27.4243794386      -14.7394485525  MEMB      251             0.0000000000
     31170       251  PMPG      O21            11.4446868759      -28.6003728173      -13.4854063101  MEMB      251             0.0000000000
     31171       251  PMPG      C21            12.1885293943      -28.5834019500      -12.3852957625  MEMB      251             0.0000000000
     31172       251  PMPG      O22            13.0347578941      -27.7517249849      -12.1069043677  MEMB      251             0.0000000000
     31173       251  PMPG      C22            11.8004434959      -29.7987387412      -11.4886658474  MEMB      251             0.0000000000
     31174       251  PMPG      H2R            11.5660807600      -30.6886823325      -12.0890216368  MEMB      251             0.0000000000
     31175       251  PMPG      H2S            10.8858256754      -29.4827218477      -10.9629259911  MEMB      251             0.0000000000
     31176       251  PMPG      C3             11.1203714745      -26.1607366604      -13.7672642460  MEMB      251             0.0000000000
     31177       251  PMPG      HX             10.7775617685      -25.5038419954      -14.6065167015  MEMB      251             0.0000000000
     31178       251  PMPG      HY             11.9975051610      -25.6429305383      -13.3040097857  MEMB      251             0.0000000000
     31179       251  PMPG      O31            10.1545580805      -26.3573834527      -12.6911953572  MEMB      251             0.0000000000
     31180       251  PMPG      C31             9.0480867344      -25.6244036441      -12.7743894007  MEMB      251             0.0000000000
     31181       251  PMPG      O32             8.7160268826      -24.9944308265      -13.7574411411  MEMB      251             0.0000000000
     31182       251  PMPG      C32             8.2727947535      -25.6954059489      -11.4593915248  MEMB      251             0.0000000000
     31183       251  PMPG      H2X             7.6699607655      -24.7860919819      -11.2381535214  MEMB      251             0.0000000000
     31184       251  PMPG      H2Y             8.9859144252      -25.7913380987      -10.6148628827  MEMB      251             0.0000000000
     31185       251  PMPG      C23            12.9233746938      -30.2437027423      -10.5115047813  MEMB      251             0.0000000000
     31186       251  PMPG      H3R            13.2457082360      -29.2855901887      -10.0643343644  MEMB      251             0.0000000000
     31187       251  PMPG      H3S            13.7401005563      -30.7067983758      -11.1119202391  MEMB      251             0.0000000000
     31188       251  PMPG      C24            12.6318041361      -31.1741765742       -9.3109296365  MEMB      251             0.0000000000
     31189       251  PMPG      H4R            12.5507690359      -32.2337936814       -9.6406524725  MEMB      251             0.0000000000
     31190       251  PMPG      H4S            11.6408962772      -30.9642362137       -8.8733154843  MEMB      251             0.0000000000
     31191       251  PMPG      C25            13.7912132776      -31.1785654463       -8.2624384795  MEMB      251             0.0000000000
     31192       251  PMPG      H5R            14.6609899956      -31.6811606178       -8.7454014204  MEMB      251             0.0000000000
     31193       251  PMPG      H5S            13.5256404309      -31.8153435155       -7.3964472909  MEMB      251             0.0000000000
     31194       251  PMPG      C26            14.4587583777      -29.8732239517       -7.7689997128  MEMB      251             0.0000000000
     31195       251  PMPG      H6R            15.0083538024      -29.3883291219       -8.6077472686  MEMB      251             0.0000000000
     31196       251  PMPG      H6S            15.2864282617      -30.1929954303       -7.0851029406  MEMB      251             0.0000000000
     31197       251  PMPG      C27            13.6364132154      -28.8773621286       -6.9227305600  MEMB      251             0.0000000000
     31198       251  PMPG      H7R            14.4442233398      -28.1774191158       -6.6140544936  MEMB      251             0.0000000000
     31199       251  PMPG      H7S            13.2750888398      -29.2632819196       -5.9502859698  MEMB      251             0.0000000000
     31200       251  PMPG      C28            12.6650104003      -27.9430682210       -7.6517844315  MEMB      251             0.0000000000
     31201       251  PMPG      H8R            11.6871061280      -28.3289059871       -8.0127446001  MEMB      251             0.0000000000
     31202       251  PMPG      H8S            13.2170724131      -27.6351791290       -8.5648926403  MEMB      251             0.0000000000
     31203       251  PMPG      C29            12.4119864420      -26.7073202760       -6.8191333352  MEMB      251             0.0000000000
     31204       251  PMPG      H9R            13.2484647360      -25.9978273577       -6.6224625506  MEMB      251             0.0000000000
     31205       251  PMPG      C217           11.0889309893      -26.1479641181       -7.2829985345  MEMB      251             0.0000000000
     31206       251  PMPG      H17R           11.1847855389      -25.1951531427       -7.5748332042  MEMB      251             0.0000000000
     31207       251  PMPG      H17S           10.4286282568      -26.7160508975       -7.8676634104  MEMB      251             0.0000000000
     31208       251  PMPG      C210           11.2498233387      -26.5603628391       -5.8623555859  MEMB      251             0.0000000000
     31209       251  PMPG      H10R           11.3873376413      -25.7674965126       -5.1411048717  MEMB      251             0.0000000000
     31210       251  PMPG      C211           10.2947969174      -27.6715163004       -5.5024480395  MEMB      251             0.0000000000
     31211       251  PMPG      H11R            9.9468794633      -28.3533151052       -6.3027275403  MEMB      251             0.0000000000
     31212       251  PMPG      H11S           10.8195084038      -28.2452103970       -4.7194413096  MEMB      251             0.0000000000
     31213       251  PMPG      C212            9.0096821177      -27.0630101764       -4.9798367567  MEMB      251             0.0000000000
     31214       251  PMPG      H12R            8.3033727612      -26.8192612381       -5.7982225123  MEMB      251             0.0000000000
     31215       251  PMPG      H12S            9.2158030242      -26.2406114227       -4.2990265232  MEMB      251             0.0000000000
     31216       251  PMPG      C213            8.3136855531      -27.8794872758       -4.0527290924  MEMB      251             0.0000000000
     31217       251  PMPG      H13R            8.6198191804      -28.0639033565       -3.0019093555  MEMB      251             0.0000000000
     31218       251  PMPG      H13S            9.1075151207      -28.7139945698       -3.9715647910  MEMB      251             0.0000000000
     31219       251  PMPG      C214            6.7290806362      -28.0567951795       -4.5349364892  MEMB      251             0.0000000000
     31220       251  PMPG      H14R            6.5917827601      -28.3722311310       -5.5695462368  MEMB      251             0.0000000000
     31221       251  PMPG      H14S            6.0771782108      -27.3912216748       -4.0101411044  MEMB      251             0.0000000000
     31222       251  PMPG      C215            5.7663238200      -29.0607261746       -4.2849015861  MEMB      251             0.0000000000
     31223       251  PMPG      H15R            5.8469291409      -30.4711751847       -4.4156568419  MEMB      251             0.0000000000
     31224       251  PMPG      H15S            5.0040929480      -29.4510004817       -4.8201993696  MEMB      251             0.0000000000
     31225       251  PMPG      C216            4.9440976758      -29.4656518551       -1.0327364645  MEMB      251             0.0000000000
     31226       251  PMPG      H16R            4.0619303088      -28.6157372194       -1.3437611520  MEMB      251             0.0000000000
     31227       251  PMPG      H16S            6.0358855788      -29.3524562224       -0.9370778634  MEMB      251             0.0000000000
     31228       251  PMPG      H16T            5.5553458998      -29.9285900763       -1.4333089500  MEMB      251             0.0000000000
     31229       251  PMPG      C33             7.4507828520      -26.9796402746      -11.5023840049  MEMB      251             0.0000000000
     31230       251  PMPG      H3X             7.2928411550      -27.4275842222      -12.5152147477  MEMB      251             0.0000000000
     31231       251  PMPG      H3Y             6.4463648197      -26.7963343921      -11.0631680240  MEMB      251             0.0000000000
     31232       251  PMPG      C34             8.1178512610      -28.0449171776      -10.6796258009  MEMB      251             0.0000000000
     31233       251  PMPG      H4X             8.1829007875      -27.7316649162       -9.6242272171  MEMB      251             0.0000000000
     31234       251  PMPG      H4Y             9.1735047591      -28.2502035635      -10.9737256579  MEMB      251             0.0000000000
     31235       251  PMPG      C35             7.1405935645      -29.1370461598      -10.5976817580  MEMB      251             0.0000000000
     31236       251  PMPG      H5X             6.7873640898      -29.5228239631      -11.5772574457  MEMB      251             0.0000000000
     31237       251  PMPG      H5Y             6.2380095714      -28.8769117937      -10.0077034082  MEMB      251             0.0000000000
     31238       251  PMPG      C36             7.7380375325      -30.1625809095       -9.8422680257  MEMB      251             0.0000000000
     31239       251  PMPG      H6X             8.4881434733      -30.7435100115      -10.5141214192  MEMB      251             0.0000000000
     31240       251  PMPG      H6Y             6.6934831744      -30.6937438905       -9.5942706918  MEMB      251             0.0000000000
     31241       251  PMPG      C37             8.4539259925      -30.0845318246       -8.4686053150  MEMB      251             0.0000000000
     31242       251  PMPG      H7X             7.7174598331      -29.7034187800       -7.7612082488  MEMB      251             0.0000000000
     31243       251  PMPG      H7Y             9.3279669521      -29.4974186217       -8.6153909176  MEMB      251             0.0000000000
     31244       251  PMPG      C38             9.3859820828      -31.1861173414       -7.8336237602  MEMB      251             0.0000000000
     31245       251  PMPG      H8X             9.9360257054      -31.9055108371       -8.4352902212  MEMB      251             0.0000000000
     31246       251  PMPG      H8Y             8.6803195761      -31.7522888532       -8.2462226072  MEMB      251             0.0000000000
     31247       251  PMPG      C39             9.5297818880      -31.3960516140       -6.1919522054  MEMB      251             0.0000000000
     31248       251  PMPG      H9X             8.6058800989      -31.4961845790       -5.5373941823  MEMB      251             0.0000000000
     31249       251  PMPG      H9Y            10.1038283223      -30.5488612664       -5.9843105412  MEMB      251             0.0000000000
     31250       251  PMPG      C310           10.1640068622      -32.5831550985       -5.3679139017  MEMB      251             0.0000000000
     31251       251  PMPG      H10X           10.9237436098      -33.0862667110       -5.8468331369  MEMB      251             0.0000000000
     31252       251  PMPG      H10Y            9.9017417612      -33.6646631240       -5.3597254651  MEMB      251             0.0000000000
     31253       251  PMPG      C311           10.0910046187      -32.5340813225       -3.9303671790  MEMB      251             0.0000000000
     31254       251  PMPG      H11X           10.0641560966      -33.5953200942       -3.5644267461  MEMB      251             0.0000000000
     31255       251  PMPG      H11Y            9.1468593850      -32.0915138784       -3.6920785947  MEMB      251             0.0000000000
     31256       251  PMPG      C312           11.3531263862      -31.8277300884       -3.6890378914  MEMB      251             0.0000000000
     31257       251  PMPG      H12X           11.3200949462      -30.7620386997       -4.0106005140  MEMB      251             0.0000000000
     31258       251  PMPG      H12Y           12.0703364253      -32.3879468331       -4.3564036313  MEMB      251             0.0000000000
     31259       251  PMPG      C313           11.6929507676      -31.9040281127       -2.2336368651  MEMB      251             0.0000000000
     31260       251  PMPG      H13X           11.8783192811      -32.9766671342       -2.0116306581  MEMB      251             0.0000000000
     31261       251  PMPG      H13Y           10.8274365693      -31.6055373263       -1.6038737842  MEMB      251             0.0000000000
     31262       251  PMPG      C314           12.8994845526      -31.0356289600       -1.9092582147  MEMB      251             0.0000000000
     31263       251  PMPG      H14X           13.5800846592      -30.9653274423       -2.7921922026  MEMB      251             0.0000000000
     31264       251  PMPG      H14Y           13.4613131586      -31.5687188549       -1.1245402309  MEMB      251             0.0000000000
     31265       251  PMPG      C315           12.5629627273      -29.6889074989       -1.2685244452  MEMB      251             0.0000000000
     31266       251  PMPG      H15X           13.3146316056      -29.2278502704       -0.6410382110  MEMB      251             0.0000000000
     31267       251  PMPG      H15Y           11.6815262025      -29.7898590999       -0.6344112914  MEMB      251             0.0000000000
     31268       251  PMPG      C316           12.3959383712      -28.5352876963       -2.1911113783  MEMB      251             0.0000000000
     31269       251  PMPG      H16X           13.1949816990      -28.5856256048       -2.9499100024  MEMB      251             0.0000000000
     31270       251  PMPG      H16Y           12.4154413376      -27.5605487922       -1.6433143667  MEMB      251             0.0000000000
     31271       251  PMPG      H16Z           11.4271185285      -28.6753419744       -2.6707134272  MEMB      251             0.0000000000
     31272       252  POPE      N              -3.7322755011      -31.6602367925      -16.9689124577  MEMB      252             0.0000000000
     31273       252  POPE      HN1            -2.8425787649      -31.5490477263      -17.4920696901  MEMB      252             0.0000000000
     31274       252  POPE      HN2            -3.4891108317      -31.7684818448      -15.9681902994  MEMB      252             0.0000000000
     31275       252  POPE      HN3            -4.3210911035      -32.4076358845      -17.4249057310  MEMB      252             0.0000000000
     31276       252  POPE      C12            -4.4507753304      -30.3681333518      -17.0659582434  MEMB      252             0.0000000000
     31277       252  POPE      H12A           -3.7022374212      -29.6386338403      -16.7121466627  MEMB      252             0.0000000000
     31278       252  POPE      H12B           -5.3274747066      -30.3495789632      -16.3817880185  MEMB      252             0.0000000000
     31279       252  POPE      C11            -4.8057517714      -30.0650044654      -18.5148764125  MEMB      252             0.0000000000
     31280       252  POPE      H11A           -3.8943370704      -29.7753694937      -19.0855288152  MEMB      252             0.0000000000
     31281       252  POPE      H11B           -5.4283516427      -29.1373677160      -18.4414486759  MEMB      252             0.0000000000
     31282       252  POPE      P              -6.7608896333      -31.0814500851      -19.9832309677  MEMB      252             0.0000000000
     31283       252  POPE      O13            -7.2381315682      -32.4280430038      -20.3804847642  MEMB      252             0.0000000000
     31284       252  POPE      O14            -6.6225744230      -30.0347400462      -21.0146851418  MEMB      252             0.0000000000
     31285       252  POPE      O11            -7.6803279373      -30.4690710654      -18.8213162726  MEMB      252             0.0000000000
     31286       252  POPE      O12            -5.4172704501      -31.2065622267      -19.1325965453  MEMB      252             0.0000000000
     31287       252  POPE      C1             -8.1927533203      -31.3088381617      -17.7816715900  MEMB      252             0.0000000000
     31288       252  POPE      HA             -7.3833772305      -31.8729733779      -17.2816931584  MEMB      252             0.0000000000
     31289       252  POPE      HB             -8.8673072429      -32.0744543070      -18.2069084591  MEMB      252             0.0000000000
     31290       252  POPE      C2             -8.6763762199      -30.5209424368      -16.5430612542  MEMB      252             0.0000000000
     31291       252  POPE      HS             -9.7242140307      -30.1731654270      -16.7225709787  MEMB      252             0.0000000000
     31292       252  POPE      O21            -7.7695236390      -29.4389618792      -16.4181514184  MEMB      252             0.0000000000
     31293       252  POPE      C21            -8.1322699207      -28.4706119961      -15.6444333258  MEMB      252             0.0000000000
     31294       252  POPE      O22            -9.2065384849      -28.3546140508      -15.0793559698  MEMB      252             0.0000000000
     31295       252  POPE      C22            -6.9457291259      -27.5787138772      -15.6211974562  MEMB      252             0.0000000000
     31296       252  POPE      H2R            -7.0213856008      -26.7382833465      -16.3163821804  MEMB      252             0.0000000000
     31297       252  POPE      H2S            -6.0255807606      -28.1578271576      -15.8703839668  MEMB      252             0.0000000000
     31298       252  POPE      C3             -8.5969020858      -31.3983859119      -15.2590081717  MEMB      252             0.0000000000
     31299       252  POPE      HX             -9.1715749845      -32.2449459273      -15.5881407965  MEMB      252             0.0000000000
     31300       252  POPE      HY             -8.9773916218      -30.8892671766      -14.3884318318  MEMB      252             0.0000000000
     31301       252  POPE      O31            -7.2968075479      -31.7955029489      -14.8615535212  MEMB      252             0.0000000000
     31302       252  POPE      C31            -7.0860675554      -32.6348898010      -13.8645433286  MEMB      252             0.0000000000
     31303       252  POPE      O32            -7.8488218876      -33.4321115784      -13.3601101277  MEMB      252             0.0000000000
     31304       252  POPE      C32            -5.6307118051      -32.3091177111      -13.4197541064  MEMB      252             0.0000000000
     31305       252  POPE      H2X            -5.5537460829      -31.2149627244      -13.2901075099  MEMB      252             0.0000000000
     31306       252  POPE      H2Y            -4.8698664685      -32.5816030998      -14.1770619449  MEMB      252             0.0000000000
     31307       252  POPE      C23            -6.8624075700      -27.0025519214      -14.2908885321  MEMB      252             0.0000000000
     31308       252  POPE      H3R            -7.6218507526      -26.3019189594      -13.9019704831  MEMB      252             0.0000000000
     31309       252  POPE      H3S            -6.0775598297      -26.2575006628      -14.6247714944  MEMB      252             0.0000000000
     31310       252  POPE      C24            -6.5588449454      -28.1586883811      -13.3626433418  MEMB      252             0.0000000000
     31311       252  POPE      H4R            -5.6552060564      -28.8038616889      -13.6030197828  MEMB      252             0.0000000000
     31312       252  POPE      H4S            -7.3436966854      -28.7574011302      -12.8495748844  MEMB      252             0.0000000000
     31313       252  POPE      C25            -6.3631300356      -27.5046541090      -12.2154775942  MEMB      252             0.0000000000
     31314       252  POPE      H5R            -5.7966502493      -26.1734380384      -12.1904995066  MEMB      252             0.0000000000
     31315       252  POPE      H5S            -5.5935584741      -28.4825295930      -11.6656229238  MEMB      252             0.0000000000
     31316       252  POPE      C26            -7.3740027080      -26.5489737745      -11.4216064163  MEMB      252             0.0000000000
     31317       252  POPE      H6R            -7.2828235944      -25.6226948951      -11.9479745905  MEMB      252             0.0000000000
     31318       252  POPE      H6S            -7.1362409447      -25.9176092769      -10.4454501879  MEMB      252             0.0000000000
     31319       252  POPE      C27            -8.3256477256      -27.3728687904      -10.6703835433  MEMB      252             0.0000000000
     31320       252  POPE      H7R            -8.8721669448      -27.5865345670      -11.5433642805  MEMB      252             0.0000000000
     31321       252  POPE      H7S            -8.8207750230      -26.6362496871      -10.0492941735  MEMB      252             0.0000000000
     31322       252  POPE      C28            -7.8504668329      -28.6361790327       -9.8891659646  MEMB      252             0.0000000000
     31323       252  POPE      H8R            -6.9623636618      -28.6603858221       -9.4061231052  MEMB      252             0.0000000000
     31324       252  POPE      H8S            -7.6374607874      -29.4375938536      -10.5744033598  MEMB      252             0.0000000000
     31325       252  POPE      C29            -8.5584818166      -29.0592357105       -8.7290656219  MEMB      252             0.0000000000
     31326       252  POPE      H91            -9.4755136786      -29.2529437609       -9.1834396531  MEMB      252             0.0000000000
     31327       252  POPE      C210           -8.5636923518      -28.9127651846       -7.4118899970  MEMB      252             0.0000000000
     31328       252  POPE      H101           -9.3940276394      -29.0482151281       -6.7138791098  MEMB      252             0.0000000000
     31329       252  POPE      C211           -7.8455539296      -28.2437317985       -6.5219077364  MEMB      252             0.0000000000
     31330       252  POPE      H11R           -8.2222458227      -27.3074085181       -6.4005021735  MEMB      252             0.0000000000
     31331       252  POPE      H11S           -7.0081648054      -28.1071822160       -7.0442392401  MEMB      252             0.0000000000
     31332       252  POPE      C212           -7.4862790788      -28.6756610848       -5.1116542141  MEMB      252             0.0000000000
     31333       252  POPE      H12R           -8.3283676640      -28.3843122798       -4.4827240156  MEMB      252             0.0000000000
     31334       252  POPE      H12S           -6.5797867263      -28.2245801024       -4.5675603280  MEMB      252             0.0000000000
     31335       252  POPE      C213           -6.9555281556      -29.9755606779       -5.4005808584  MEMB      252             0.0000000000
     31336       252  POPE      H13R           -6.0993395528      -29.8584896426       -6.1333485709  MEMB      252             0.0000000000
     31337       252  POPE      H13S           -7.8363196386      -30.4407201730       -5.8709704552  MEMB      252             0.0000000000
     31338       252  POPE      C214           -6.6037719946      -30.6332165124       -4.1105217890  MEMB      252             0.0000000000
     31339       252  POPE      H14R           -7.4362618342      -30.5111270508       -3.3775209273  MEMB      252             0.0000000000
     31340       252  POPE      H14S           -5.7235394468      -30.1261015136       -3.6630262846  MEMB      252             0.0000000000
     31341       252  POPE      C215           -6.3206592857      -32.1141086392       -4.3152390480  MEMB      252             0.0000000000
     31342       252  POPE      H15R           -5.5827854201      -32.2679037236       -5.1307055539  MEMB      252             0.0000000000
     31343       252  POPE      H15S           -7.2467170824      -32.6312337118       -4.6402709828  MEMB      252             0.0000000000
     31344       252  POPE      C216           -5.7730457274      -32.7691046433       -3.0457567477  MEMB      252             0.0000000000
     31345       252  POPE      H16R           -4.8624213723      -32.2204795118       -2.7432814841  MEMB      252             0.0000000000
     31346       252  POPE      H16S           -5.4407905644      -33.8082695997       -3.2484740241  MEMB      252             0.0000000000
     31347       252  POPE      C217           -6.7713746309      -32.7927309229       -1.8898664157  MEMB      252             0.0000000000
     31348       252  POPE      H17R           -7.7064623803      -33.2160533095       -2.3030448293  MEMB      252             0.0000000000
     31349       252  POPE      H17S           -6.9753334354      -31.7980487669       -1.5011558697  MEMB      252             0.0000000000
     31350       252  POPE      C218           -6.2560582783      -33.5522752026       -0.7025145959  MEMB      252             0.0000000000
     31351       252  POPE      H18R           -6.9039532689      -33.5884949568        0.1976812829  MEMB      252             0.0000000000
     31352       252  POPE      H18S           -5.2005177242      -33.3821855148       -0.4898372429  MEMB      252             0.0000000000
     31353       252  POPE      H18T           -6.1953488850      -34.4846487116       -1.1711164785  MEMB      252             0.0000000000
     31354       252  POPE      C33            -5.1676836872      -32.9202521655      -12.0921530436  MEMB      252             0.0000000000
     31355       252  POPE      H3X            -4.0617246147      -33.0128852816      -12.1359517462  MEMB      252             0.0000000000
     31356       252  POPE      H3Y            -5.5863646216      -33.9428773040      -11.9979151984  MEMB      252             0.0000000000
     31357       252  POPE      C34            -5.5336789980      -32.0267420685      -10.9015008386  MEMB      252             0.0000000000
     31358       252  POPE      H4X            -6.5687058552      -32.3305607930      -10.6220572786  MEMB      252             0.0000000000
     31359       252  POPE      H4Y            -5.4720340655      -30.9478607637      -11.1863573119  MEMB      252             0.0000000000
     31360       252  POPE      C35            -4.6387067901      -32.1776164239       -9.6658748067  MEMB      252             0.0000000000
     31361       252  POPE      H5X            -4.5869416472      -33.2633314080       -9.4305278219  MEMB      252             0.0000000000
     31362       252  POPE      H5Y            -5.0812509230      -31.6314796273       -8.7985324611  MEMB      252             0.0000000000
     31363       252  POPE      C36            -3.2044214857      -31.6717950726       -9.8713120209  MEMB      252             0.0000000000
     31364       252  POPE      H6X            -2.8118015828      -32.1845725139      -10.7781974008  MEMB      252             0.0000000000
     31365       252  POPE      H6Y            -2.5866375564      -31.9979242042       -8.9975535973  MEMB      252             0.0000000000
     31366       252  POPE      C37            -3.0427490869      -30.1469955326       -9.9199384651  MEMB      252             0.0000000000
     31367       252  POPE      H7X            -3.5088726596      -29.6506214805      -10.8061167933  MEMB      252             0.0000000000
     31368       252  POPE      H7Y            -1.9638170536      -29.9075657199       -9.9067109860  MEMB      252             0.0000000000
     31369       252  POPE      C38            -3.5970789212      -29.4368890430       -8.7181313045  MEMB      252             0.0000000000
     31370       252  POPE      H8X            -3.4740003954      -29.8825080563       -7.7429599413  MEMB      252             0.0000000000
     31371       252  POPE      H8Y            -4.7078308021      -29.5055672106       -8.9505523220  MEMB      252             0.0000000000
     31372       252  POPE      C39            -2.9605700712      -28.0300844833       -8.6382429650  MEMB      252             0.0000000000
     31373       252  POPE      H9X            -3.5695383925      -27.4625925161       -7.9620074398  MEMB      252             0.0000000000
     31374       252  POPE      H9Y            -2.8736723578      -27.4283181858       -9.6394278118  MEMB      252             0.0000000000
     31375       252  POPE      C310           -1.7779393894      -27.5012978019       -8.3077332265  MEMB      252             0.0000000000
     31376       252  POPE      H10X           -1.7925326797      -26.3862235898       -8.4756321587  MEMB      252             0.0000000000
     31377       252  POPE      H10Y           -1.2037641907      -27.9583195058       -9.1064637787  MEMB      252             0.0000000000
     31378       252  POPE      C311           -1.5276376293      -27.9253416413       -6.9388230283  MEMB      252             0.0000000000
     31379       252  POPE      H11X           -0.4701685082      -27.6365101945       -6.9082296845  MEMB      252             0.0000000000
     31380       252  POPE      H11Y           -1.7129556537      -28.9883975801       -6.6915752649  MEMB      252             0.0000000000
     31381       252  POPE      C312           -2.3396595763      -27.2346860556       -5.9007486503  MEMB      252             0.0000000000
     31382       252  POPE      H12X           -3.2816748466      -27.6649322992       -5.6037997420  MEMB      252             0.0000000000
     31383       252  POPE      H12Y           -2.6177110628      -26.2642285883       -6.1744375351  MEMB      252             0.0000000000
     31384       252  POPE      C313           -1.6087608221      -27.0425074336       -4.6774106449  MEMB      252             0.0000000000
     31385       252  POPE      H13X           -2.2375274196      -26.3478368480       -4.0662263754  MEMB      252             0.0000000000
     31386       252  POPE      H13Y           -0.6164142543      -26.5995696402       -4.8964093894  MEMB      252             0.0000000000
     31387       252  POPE      C314           -1.3975523973      -28.1761700726       -3.6967141030  MEMB      252             0.0000000000
     31388       252  POPE      H14X           -0.7849039662      -27.8572808537       -2.8196482767  MEMB      252             0.0000000000
     31389       252  POPE      H14Y           -0.7238270987      -28.8682108508       -4.1951598218  MEMB      252             0.0000000000
     31390       252  POPE      C315           -2.6980596115      -28.7552311347       -3.1274747566  MEMB      252             0.0000000000
     31391       252  POPE      H15X           -3.1550380491      -29.4199568197       -3.8793626974  MEMB      252             0.0000000000
     31392       252  POPE      H15Y           -3.4728907114      -27.9765269070       -2.9806717808  MEMB      252             0.0000000000
     31393       252  POPE      C316           -2.5546006984      -29.4636674806       -1.7745394904  MEMB      252             0.0000000000
     31394       252  POPE      H16X           -1.7637449530      -30.2380061327       -1.7989138338  MEMB      252             0.0000000000
     31395       252  POPE      H16Y           -3.4969360501      -29.9391626111       -1.4376955719  MEMB      252             0.0000000000
     31396       252  POPE      H16Z           -2.3333398254      -28.7334155493       -0.9770634368  MEMB      252             0.0000000000
     31397       253  PMPE      N             -19.7206901266      -22.1935420854      -18.6481571677  MEMB      253             0.0000000000
     31398       253  PMPE      HN1           -19.5732196704      -22.7438209429      -17.7817643882  MEMB      253             0.0000000000
     31399       253  PMPE      HN2           -18.8216495958      -21.7475487484      -18.9324949012  MEMB      253             0.0000000000
     31400       253  PMPE      HN3           -20.4601699221      -21.4749878055      -18.5125283509  MEMB      253             0.0000000000
     31401       253  PMPE      C12           -20.2591402424      -23.1662982717      -19.6527586614  MEMB      253             0.0000000000
     31402       253  PMPE      H12A          -20.6578615202      -22.5500503541      -20.4784538253  MEMB      253             0.0000000000
     31403       253  PMPE      H12B          -21.1087340451      -23.7056608322      -19.1887843179  MEMB      253             0.0000000000
     31404       253  PMPE      C11           -19.1398265901      -24.0457282755      -20.2128746940  MEMB      253             0.0000000000
     31405       253  PMPE      H11A          -18.4656029833      -23.2926173923      -20.6792919195  MEMB      253             0.0000000000
     31406       253  PMPE      H11B          -19.5010131820      -24.7346066274      -21.0121532790  MEMB      253             0.0000000000
     31407       253  PMPE      P             -18.9013765034      -26.1980806916      -18.7550476158  MEMB      253             0.0000000000
     31408       253  PMPE      O13           -18.0846359881      -27.1867510399      -19.4571955180  MEMB      253             0.0000000000
     31409       253  PMPE      O14           -20.3718059664      -26.2539226283      -18.8562310780  MEMB      253             0.0000000000
     31410       253  PMPE      O11           -18.4933149962      -26.0883453358      -17.2222060232  MEMB      253             0.0000000000
     31411       253  PMPE      O12           -18.4257430015      -24.7517978966      -19.2079676155  MEMB      253             0.0000000000
     31412       253  PMPE      C1            -17.3861751868      -25.2544657494      -16.8612642007  MEMB      253             0.0000000000
     31413       253  PMPE      HA            -17.5431060513      -24.1898598171      -17.1609702010  MEMB      253             0.0000000000
     31414       253  PMPE      HB            -16.4559210222      -25.5953613255      -17.3620368966  MEMB      253             0.0000000000
     31415       253  PMPE      C2            -17.1765048419      -25.3043597503      -15.3379142761  MEMB      253             0.0000000000
     31416       253  PMPE      HS            -17.1613466831      -26.3818543478      -15.0296907916  MEMB      253             0.0000000000
     31417       253  PMPE      O21           -18.2544946791      -24.5471381668      -14.7757157514  MEMB      253             0.0000000000
     31418       253  PMPE      C21           -18.7150086270      -24.8844110123      -13.5936372572  MEMB      253             0.0000000000
     31419       253  PMPE      O22           -18.2907152403      -25.7949695726      -12.9019578193  MEMB      253             0.0000000000
     31420       253  PMPE      C22           -19.8263028523      -23.8818354297      -13.2234139897  MEMB      253             0.0000000000
     31421       253  PMPE      H2R           -20.8100415370      -24.1671150400      -13.6286577121  MEMB      253             0.0000000000
     31422       253  PMPE      H2S           -19.5923967488      -22.8896043730      -13.6536376810  MEMB      253             0.0000000000
     31423       253  PMPE      C3            -15.8182458447      -24.6766897275      -14.9368975640  MEMB      253             0.0000000000
     31424       253  PMPE      HX            -15.8355696645      -23.5857647251      -15.1142129627  MEMB      253             0.0000000000
     31425       253  PMPE      HY            -15.0983162459      -25.1859325565      -15.6349557599  MEMB      253             0.0000000000
     31426       253  PMPE      O31           -15.5586016953      -24.8545306869      -13.5285420237  MEMB      253             0.0000000000
     31427       253  PMPE      C31           -15.4284569842      -26.1573167257      -13.2653209107  MEMB      253             0.0000000000
     31428       253  PMPE      O32           -14.9699839367      -26.9401352592      -14.1052817212  MEMB      253             0.0000000000
     31429       253  PMPE      C32           -15.4375564270      -26.3169995699      -11.6623165485  MEMB      253             0.0000000000
     31430       253  PMPE      H2X           -15.6795428370      -25.4276834062      -11.1087808798  MEMB      253             0.0000000000
     31431       253  PMPE      H2Y           -14.6236482033      -26.0146011307      -10.9630874555  MEMB      253             0.0000000000
     31432       253  PMPE      C23           -19.9153659002      -23.8015737269      -11.7228637487  MEMB      253             0.0000000000
     31433       253  PMPE      H3R           -20.0417247592      -24.7783430006      -11.2607579763  MEMB      253             0.0000000000
     31434       253  PMPE      H3S           -20.7840157906      -23.1735170971      -11.3965183391  MEMB      253             0.0000000000
     31435       253  PMPE      C24           -18.6482623134      -23.2593138367      -11.1813469405  MEMB      253             0.0000000000
     31436       253  PMPE      H4R           -18.3343010693      -22.4436268312      -11.9134578742  MEMB      253             0.0000000000
     31437       253  PMPE      H4S           -17.7536271110      -23.8395169136      -11.1382001615  MEMB      253             0.0000000000
     31438       253  PMPE      C25           -18.9663230785      -22.9299372504       -9.7450195568  MEMB      253             0.0000000000
     31439       253  PMPE      H5R           -20.0109879599      -22.5450894704       -9.7990353894  MEMB      253             0.0000000000
     31440       253  PMPE      H5S           -18.2845527908      -22.2271212725       -9.3690937673  MEMB      253             0.0000000000
     31441       253  PMPE      C26           -19.1734423987      -23.7335303504       -8.6085296840  MEMB      253             0.0000000000
     31442       253  PMPE      H6R           -20.1020930761      -24.2487148184       -8.9297751485  MEMB      253             0.0000000000
     31443       253  PMPE      H6S           -19.3315140767      -23.1088931965       -7.6642100032  MEMB      253             0.0000000000
     31444       253  PMPE      C27           -18.0146897761      -24.5823340586       -8.3802067504  MEMB      253             0.0000000000
     31445       253  PMPE      H7R           -17.0653630502      -24.0434083848       -8.2983472098  MEMB      253             0.0000000000
     31446       253  PMPE      H7S           -17.9147168708      -25.3027829903       -9.1984531990  MEMB      253             0.0000000000
     31447       253  PMPE      C28           -18.2242260607      -25.3226000700       -7.1160817473  MEMB      253             0.0000000000
     31448       253  PMPE      H8R           -19.1069087161      -25.9678095050       -7.3048233054  MEMB      253             0.0000000000
     31449       253  PMPE      H8S           -18.4496966772      -24.6094899507       -6.2966383559  MEMB      253             0.0000000000
     31450       253  PMPE      C29           -16.9480650369      -26.0804117746       -6.8659106015  MEMB      253             0.0000000000
     31451       253  PMPE      H9R           -16.0055370795      -25.6480003781       -7.2390470245  MEMB      253             0.0000000000
     31452       253  PMPE      C217          -17.0309370463      -27.6062289640       -6.9557210219  MEMB      253             0.0000000000
     31453       253  PMPE      H17R          -16.1173389515      -28.1068047089       -7.2095738085  MEMB      253             0.0000000000
     31454       253  PMPE      H17S          -18.0034179963      -28.0285264799       -7.1142543230  MEMB      253             0.0000000000
     31455       253  PMPE      C210          -16.9133944061      -26.9144215613       -5.6481281468  MEMB      253             0.0000000000
     31456       253  PMPE      H10R          -15.9313951042      -27.0288588912       -5.1501074904  MEMB      253             0.0000000000
     31457       253  PMPE      C211          -18.1424426496      -27.0049239400       -4.8914105715  MEMB      253             0.0000000000
     31458       253  PMPE      H11R          -18.4433682806      -27.9197117671       -4.3967104226  MEMB      253             0.0000000000
     31459       253  PMPE      H11S          -19.1065027118      -26.7498086249       -5.3247868535  MEMB      253             0.0000000000
     31460       253  PMPE      C212          -17.6456493584      -26.1680855946       -4.0213213416  MEMB      253             0.0000000000
     31461       253  PMPE      H12R          -17.1509262423      -26.5283792775       -2.8700041001  MEMB      253             0.0000000000
     31462       253  PMPE      H12S          -18.9877579318      -25.4554011742       -4.3935126817  MEMB      253             0.0000000000
     31463       253  PMPE      C213          -16.8646999328      -24.8661881681       -3.7960463527  MEMB      253             0.0000000000
     31464       253  PMPE      H13R          -17.5482338356      -24.2053055031       -4.3358503693  MEMB      253             0.0000000000
     31465       253  PMPE      H13S          -15.8409529920      -24.7878131780       -3.9780556340  MEMB      253             0.0000000000
     31466       253  PMPE      C214          -16.8853868729      -24.2311004824       -2.4598707271  MEMB      253             0.0000000000
     31467       253  PMPE      H14R          -16.8360484902      -23.6271151294       -2.8831779115  MEMB      253             0.0000000000
     31468       253  PMPE      H14S          -16.0359483777      -24.6224925632       -1.7258970364  MEMB      253             0.0000000000
     31469       253  PMPE      C215          -18.7445259941      -23.3961771315       -1.2557721380  MEMB      253             0.0000000000
     31470       253  PMPE      H15R          -18.5041807324      -23.9853817115       -1.1027726040  MEMB      253             0.0000000000
     31471       253  PMPE      H15S          -19.4984997151      -23.4895827799       -1.6450916551  MEMB      253             0.0000000000
     31472       253  PMPE      C216          -20.0958882220      -22.5233724699       -0.4518376681  MEMB      253             0.0000000000
     31473       253  PMPE      H16R          -19.6138388167      -21.8820576449       -0.8203903756  MEMB      253             0.0000000000
     31474       253  PMPE      H16S          -20.6100165158      -22.2018920492        0.5555995854  MEMB      253             0.0000000000
     31475       253  PMPE      H16T          -18.4156910729      -23.8546577738        0.3394782069  MEMB      253             0.0000000000
     31476       253  PMPE      C33           -15.4826610848      -27.7469260362      -11.1653010559  MEMB      253             0.0000000000
     31477       253  PMPE      H3X           -15.1132101698      -27.6222472469      -10.1213048743  MEMB      253             0.0000000000
     31478       253  PMPE      H3Y           -14.7855821004      -28.4608428827      -11.7270319246  MEMB      253             0.0000000000
     31479       253  PMPE      C34           -16.8261149659      -28.0664752490      -11.3019513969  MEMB      253             0.0000000000
     31480       253  PMPE      H4X           -16.9047292230      -28.0637742578      -12.4080972225  MEMB      253             0.0000000000
     31481       253  PMPE      H4Y           -17.3606080804      -27.1908177191      -10.8812216034  MEMB      253             0.0000000000
     31482       253  PMPE      C35           -17.2023049101      -29.3193688618      -10.6107679652  MEMB      253             0.0000000000
     31483       253  PMPE      H5X           -17.0509726172      -29.1959432942       -9.5174401149  MEMB      253             0.0000000000
     31484       253  PMPE      H5Y           -16.5708559812      -30.1816217667      -10.9336617674  MEMB      253             0.0000000000
     31485       253  PMPE      C36           -18.6407372090      -29.4993534555      -10.9834901900  MEMB      253             0.0000000000
     31486       253  PMPE      H6X           -18.9909795411      -30.4227795867      -10.5067038022  MEMB      253             0.0000000000
     31487       253  PMPE      H6Y           -18.7463153234      -29.6044758633      -12.1005016816  MEMB      253             0.0000000000
     31488       253  PMPE      C37           -19.6555643645      -28.4226764013      -10.5746169720  MEMB      253             0.0000000000
     31489       253  PMPE      H7X           -20.4773697758      -28.3909819000      -11.3190726386  MEMB      253             0.0000000000
     31490       253  PMPE      H7Y           -19.2502290165      -27.4181816394      -10.6333527463  MEMB      253             0.0000000000
     31491       253  PMPE      C38           -20.2542133321      -28.6416808686       -9.1912708405  MEMB      253             0.0000000000
     31492       253  PMPE      H8X           -19.3981579718      -28.6516066854       -8.4861278135  MEMB      253             0.0000000000
     31493       253  PMPE      H8Y           -20.7668209563      -29.6279012077       -9.1499494615  MEMB      253             0.0000000000
     31494       253  PMPE      C39           -21.3034662663      -27.5848221976       -8.8121440781  MEMB      253             0.0000000000
     31495       253  PMPE      H9X           -22.1112068555      -27.6485536913       -9.5818658329  MEMB      253             0.0000000000
     31496       253  PMPE      H9Y           -20.8740674773      -26.5591178338       -8.8610856858  MEMB      253             0.0000000000
     31497       253  PMPE      C310          -21.9094402475      -27.8846279921       -7.4232262047  MEMB      253             0.0000000000
     31498       253  PMPE      H10X          -21.2140553327      -27.6638102457       -6.6092985691  MEMB      253             0.0000000000
     31499       253  PMPE      H10Y          -22.1440952648      -28.9660904556       -7.4173827926  MEMB      253             0.0000000000
     31500       253  PMPE      C311          -23.2101785260      -27.2012709805       -7.1413705690  MEMB      253             0.0000000000
     31501       253  PMPE      H11X          -23.9532338659      -27.7175814604       -6.5126596296  MEMB      253             0.0000000000
     31502       253  PMPE      H11Y          -23.4304575946      -26.9461035248       -8.1803541989  MEMB      253             0.0000000000
     31503       253  PMPE      C312          -23.1976811137      -25.8898224328       -6.5567574457  MEMB      253             0.0000000000
     31504       253  PMPE      H12X          -24.1068022316      -25.3166425053       -6.6887310522  MEMB      253             0.0000000000
     31505       253  PMPE      H12Y          -22.5306519149      -25.4767679316       -7.3033655771  MEMB      253             0.0000000000
     31506       253  PMPE      C313          -22.6479233827      -25.8849278155       -5.1389728104  MEMB      253             0.0000000000
     31507       253  PMPE      H13X          -21.5441657321      -26.1218464798       -5.2441946917  MEMB      253             0.0000000000
     31508       253  PMPE      H13Y          -23.0796723458      -26.6281370615       -4.5323730612  MEMB      253             0.0000000000
     31509       253  PMPE      C314          -22.9000182526      -24.5904721435       -4.3544551332  MEMB      253             0.0000000000
     31510       253  PMPE      H14X          -23.8031305201      -24.0348914933       -4.3769170586  MEMB      253             0.0000000000
     31511       253  PMPE      H14Y          -22.9961590785      -23.8479279972       -5.1256478662  MEMB      253             0.0000000000
     31512       253  PMPE      C315          -21.9189310873      -24.2022380329       -3.1393001197  MEMB      253             0.0000000000
     31513       253  PMPE      H15X          -21.6958779480      -23.1252823429       -2.7993329617  MEMB      253             0.0000000000
     31514       253  PMPE      H15Y          -21.0050096383      -24.4204127341       -3.6392038446  MEMB      253             0.0000000000
     31515       253  PMPE      C316          -22.0202147130      -25.0210297394       -2.0333778275  MEMB      253             0.0000000000
     31516       253  PMPE      H16X          -21.3724157795      -25.8856581815       -2.2321241061  MEMB      253             0.0000000000
     31517       253  PMPE      H16Y          -23.0635909650      -25.2253374844       -2.1542193164  MEMB      253             0.0000000000
     31518       253  PMPE      H16Z          -21.7429645480      -24.4496404669       -1.1371169423  MEMB      253             0.0000000000
     31519       254  POPE      N              20.3975953511       25.1190137054      -21.8719137820  MEMB      254             0.0000000000
     31520       254  POPE      HN1            20.8526092434       25.9387852088      -21.4056949724  MEMB      254             0.0000000000
     31521       254  POPE      HN2            20.8119797714       24.2061512175      -21.5836717884  MEMB      254             0.0000000000
     31522       254  POPE      HN3            20.4902771225       25.2791045961      -22.8926640497  MEMB      254             0.0000000000
     31523       254  POPE      C12            18.9476786907       25.2049033640      -21.4838906020  MEMB      254             0.0000000000
     31524       254  POPE      H12A           18.4308690334       24.5354948817      -22.1726104351  MEMB      254             0.0000000000
     31525       254  POPE      H12B           18.6035150701       26.1802327850      -21.7619685239  MEMB      254             0.0000000000
     31526       254  POPE      C11            18.6174968019       24.9679097226      -19.9975084092  MEMB      254             0.0000000000
     31527       254  POPE      H11A           18.8855725011       23.9036039210      -19.8036825294  MEMB      254             0.0000000000
     31528       254  POPE      H11B           17.5230894279       25.1265050725      -19.8014840192  MEMB      254             0.0000000000
     31529       254  POPE      P              19.7341808382       25.4046166441      -17.6867699805  MEMB      254             0.0000000000
     31530       254  POPE      O13            21.0609518706       24.7522194768      -17.7379396632  MEMB      254             0.0000000000
     31531       254  POPE      O14            18.6075804820       24.5755358947      -17.2189640707  MEMB      254             0.0000000000
     31532       254  POPE      O11            19.8085597640       26.7472354853      -16.8486613171  MEMB      254             0.0000000000
     31533       254  POPE      O12            19.3455109771       25.8666182080      -19.1642408909  MEMB      254             0.0000000000
     31534       254  POPE      C1             18.8622807348       27.8153697294      -17.0546224637  MEMB      254             0.0000000000
     31535       254  POPE      HA             17.8691222162       27.3998102297      -17.3167369385  MEMB      254             0.0000000000
     31536       254  POPE      HB             19.1814029514       28.4645688179      -17.8978538499  MEMB      254             0.0000000000
     31537       254  POPE      C2             18.7121609347       28.7737690663      -15.8224677459  MEMB      254             0.0000000000
     31538       254  POPE      HS             18.6459236521       29.8657624102      -16.0812289799  MEMB      254             0.0000000000
     31539       254  POPE      O21            19.8239688147       28.6593044516      -14.9971246204  MEMB      254             0.0000000000
     31540       254  POPE      C21            20.7976652548       29.2000761607      -15.6174398430  MEMB      254             0.0000000000
     31541       254  POPE      O22            20.8643836257       29.9707153415      -16.5517354428  MEMB      254             0.0000000000
     31542       254  POPE      C22            21.8258257140       28.8352813163      -14.8555828712  MEMB      254             0.0000000000
     31543       254  POPE      H2R            21.5719939776       29.6625050000      -14.0047703858  MEMB      254             0.0000000000
     31544       254  POPE      H2S            22.7803234116       28.8874386483      -15.5204360833  MEMB      254             0.0000000000
     31545       254  POPE      C3             17.4613664571       28.4355826378      -14.9876356277  MEMB      254             0.0000000000
     31546       254  POPE      HX             16.5852611736       28.7272168603      -15.5835600462  MEMB      254             0.0000000000
     31547       254  POPE      HY             17.4518177346       29.0409894355      -14.0648181448  MEMB      254             0.0000000000
     31548       254  POPE      O31            17.2703916470       27.0585001351      -14.6827155608  MEMB      254             0.0000000000
     31549       254  POPE      C31            17.6736339162       26.6510886699      -13.5152941013  MEMB      254             0.0000000000
     31550       254  POPE      O32            18.3377305895       27.2738441180      -12.7020642307  MEMB      254             0.0000000000
     31551       254  POPE      C32            17.1046823419       25.2413414700      -13.3817019459  MEMB      254             0.0000000000
     31552       254  POPE      H2X            16.9951628582       24.8745309945      -14.4256884160  MEMB      254             0.0000000000
     31553       254  POPE      H2Y            16.0790228988       25.2626463618      -12.9669765333  MEMB      254             0.0000000000
     31554       254  POPE      C23            21.9656167283       27.5578374591      -14.0639878002  MEMB      254             0.0000000000
     31555       254  POPE      H3R            21.6479806644       26.8135885237      -14.7861916370  MEMB      254             0.0000000000
     31556       254  POPE      H3S            21.3228216810       27.5471996668      -13.1868178059  MEMB      254             0.0000000000
     31557       254  POPE      C24            23.3475326832       27.2772012950      -13.5615753608  MEMB      254             0.0000000000
     31558       254  POPE      H4R            23.7381642061       28.0459488483      -12.8346839864  MEMB      254             0.0000000000
     31559       254  POPE      H4S            24.0119311086       27.2232635298      -14.4778390974  MEMB      254             0.0000000000
     31560       254  POPE      C25            23.6001779713       26.0432848836      -12.7530630042  MEMB      254             0.0000000000
     31561       254  POPE      H5R            24.6138578071       25.9631897352      -12.2476367417  MEMB      254             0.0000000000
     31562       254  POPE      H5S            23.4435964506       25.2944100675      -13.5556870387  MEMB      254             0.0000000000
     31563       254  POPE      C26            22.7511288275       25.7422274291      -11.6187052139  MEMB      254             0.0000000000
     31564       254  POPE      H6R            21.7790790260       25.8474692764      -12.1029722110  MEMB      254             0.0000000000
     31565       254  POPE      H6S            22.8719822153       26.5044545519      -10.8281352982  MEMB      254             0.0000000000
     31566       254  POPE      C27            23.0618041325       24.3727578162      -11.0244157474  MEMB      254             0.0000000000
     31567       254  POPE      H7R            24.1499815049       24.3640224915      -10.7825405362  MEMB      254             0.0000000000
     31568       254  POPE      H7S            22.9158430390       23.5472961838      -11.7559923728  MEMB      254             0.0000000000
     31569       254  POPE      C28            22.2474342192       24.1417300034       -9.7428974503  MEMB      254             0.0000000000
     31570       254  POPE      H8R            22.7345021291       24.6792781022       -8.9071396712  MEMB      254             0.0000000000
     31571       254  POPE      H8S            22.3991763604       23.0795600535       -9.4794963493  MEMB      254             0.0000000000
     31572       254  POPE      C29            20.7994897805       24.5748126667       -9.8803747988  MEMB      254             0.0000000000
     31573       254  POPE      H91            20.2426127709       24.1251457958      -10.7191016194  MEMB      254             0.0000000000
     31574       254  POPE      C210           20.1612022545       25.4399272647       -9.0685392848  MEMB      254             0.0000000000
     31575       254  POPE      H101           19.0997877103       25.6704768645       -9.2597462356  MEMB      254             0.0000000000
     31576       254  POPE      C211           20.7244249513       26.1500030591       -7.8589116535  MEMB      254             0.0000000000
     31577       254  POPE      H11R           20.8478873980       27.2250110076       -8.0966477109  MEMB      254             0.0000000000
     31578       254  POPE      H11S           21.7245493850       25.7723914128       -7.5311888312  MEMB      254             0.0000000000
     31579       254  POPE      C212           19.6508071940       26.0442971951       -6.7530733218  MEMB      254             0.0000000000
     31580       254  POPE      H12R           19.1577452903       25.0466959413       -6.8152360647  MEMB      254             0.0000000000
     31581       254  POPE      H12S           18.9058165001       26.8674562761       -6.9061206138  MEMB      254             0.0000000000
     31582       254  POPE      C213           20.1491070613       26.2424756421       -5.3208180173  MEMB      254             0.0000000000
     31583       254  POPE      H13R           19.3104984424       26.5076831782       -4.6281721856  MEMB      254             0.0000000000
     31584       254  POPE      H13S           20.8400591725       27.1121441047       -5.4002991677  MEMB      254             0.0000000000
     31585       254  POPE      C214           20.8377487674       25.0063520792       -4.7215911822  MEMB      254             0.0000000000
     31586       254  POPE      H14R           21.1412967163       24.3000206365       -5.5203786869  MEMB      254             0.0000000000
     31587       254  POPE      H14S           20.1374126048       24.4619380227       -4.0514379865  MEMB      254             0.0000000000
     31588       254  POPE      C215           22.0794653364       25.3934905885       -3.9305293147  MEMB      254             0.0000000000
     31589       254  POPE      H15R           21.7885189812       26.1981200432       -3.2265691699  MEMB      254             0.0000000000
     31590       254  POPE      H15S           22.8502231391       25.7661399949       -4.6532022073  MEMB      254             0.0000000000
     31591       254  POPE      C216           22.6514004981       24.2740440393       -3.0603054640  MEMB      254             0.0000000000
     31592       254  POPE      H16R           23.6062614179       24.6743687655       -2.6612181834  MEMB      254             0.0000000000
     31593       254  POPE      H16S           22.9295188842       23.4436648657       -3.7433828021  MEMB      254             0.0000000000
     31594       254  POPE      C217           21.7679306365       23.8389622714       -1.8568806441  MEMB      254             0.0000000000
     31595       254  POPE      H17R           22.2584709260       22.9440825738       -1.4130994024  MEMB      254             0.0000000000
     31596       254  POPE      H17S           20.7462664654       23.5377992809       -2.1857980270  MEMB      254             0.0000000000
     31597       254  POPE      C218           21.5797089414       24.8737132124       -0.7302709490  MEMB      254             0.0000000000
     31598       254  POPE      H18R           22.5104846425       25.0145486926       -0.1387081086  MEMB      254             0.0000000000
     31599       254  POPE      H18S           20.7619144834       24.5626101451       -0.0443915981  MEMB      254             0.0000000000
     31600       254  POPE      H18T           21.2697942880       25.8539839693       -1.1344675352  MEMB      254             0.0000000000
     31601       254  POPE      C33            18.0288048129       24.3658449481      -12.5192800054  MEMB      254             0.0000000000
     31602       254  POPE      H3X            17.7408288588       24.6032790947      -11.4649162841  MEMB      254             0.0000000000
     31603       254  POPE      H3Y            19.0888104505       24.6775921695      -12.7161520738  MEMB      254             0.0000000000
     31604       254  POPE      C34            17.9607960363       22.8564957080      -12.8193384529  MEMB      254             0.0000000000
     31605       254  POPE      H4X            18.6056682768       22.2950586421      -12.1004469394  MEMB      254             0.0000000000
     31606       254  POPE      H4Y            18.2969169577       22.6712420130      -13.8651589270  MEMB      254             0.0000000000
     31607       254  POPE      C35            16.5762854719       22.2057151635      -12.7820926972  MEMB      254             0.0000000000
     31608       254  POPE      H5X            16.7465282377       21.0980995480      -12.8298703434  MEMB      254             0.0000000000
     31609       254  POPE      H5Y            15.9833333477       22.5512234507      -13.6676344073  MEMB      254             0.0000000000
     31610       254  POPE      C36            15.8521980887       22.4067584072      -11.4528140447  MEMB      254             0.0000000000
     31611       254  POPE      H6X            14.8566585078       21.9015779267      -11.4836877213  MEMB      254             0.0000000000
     31612       254  POPE      H6Y            15.7094786647       23.4931090673      -11.2447816599  MEMB      254             0.0000000000
     31613       254  POPE      C37            16.5909427498       21.6751036053      -10.3118922461  MEMB      254             0.0000000000
     31614       254  POPE      H7X            17.5744253031       22.1227479772      -10.0632044174  MEMB      254             0.0000000000
     31615       254  POPE      H7Y            16.8233415214       20.6456128789      -10.6537786649  MEMB      254             0.0000000000
     31616       254  POPE      C38            15.7384293040       21.4592128168       -9.0563826850  MEMB      254             0.0000000000
     31617       254  POPE      H8X            16.2966994312       20.8064796526       -8.3434943842  MEMB      254             0.0000000000
     31618       254  POPE      H8Y            14.8114155221       20.9158820306       -9.3611995630  MEMB      254             0.0000000000
     31619       254  POPE      C39            15.4095405338       22.7710313573       -8.3555119246  MEMB      254             0.0000000000
     31620       254  POPE      H9X            14.6752054137       22.5916953140       -7.5669061327  MEMB      254             0.0000000000
     31621       254  POPE      H9Y            14.9514356709       23.4724245509       -9.0739593315  MEMB      254             0.0000000000
     31622       254  POPE      C310           16.6214102128       23.3992884018       -7.6595795959  MEMB      254             0.0000000000
     31623       254  POPE      H10X           17.4655758079       23.5777625506       -8.3639612817  MEMB      254             0.0000000000
     31624       254  POPE      H10Y           16.9825627527       22.6635851370       -6.9076785478  MEMB      254             0.0000000000
     31625       254  POPE      C311           16.2943508493       24.7235466900       -6.9510116761  MEMB      254             0.0000000000
     31626       254  POPE      H11X           15.6204184549       25.3405892863       -7.5843881814  MEMB      254             0.0000000000
     31627       254  POPE      H11Y           17.2029646540       25.3335041112       -6.9227797724  MEMB      254             0.0000000000
     31628       254  POPE      C312           15.7682132274       24.5369441206       -5.5107157915  MEMB      254             0.0000000000
     31629       254  POPE      H12X           15.2689819752       23.5669367650       -5.4717636243  MEMB      254             0.0000000000
     31630       254  POPE      H12Y           15.0620851074       25.3422541609       -5.2642482655  MEMB      254             0.0000000000
     31631       254  POPE      C313           16.7850825518       24.6088971657       -4.3760893930  MEMB      254             0.0000000000
     31632       254  POPE      H13X           16.8824971133       25.6448457141       -3.9871295749  MEMB      254             0.0000000000
     31633       254  POPE      H13Y           17.7545050975       24.3216119546       -4.8113206969  MEMB      254             0.0000000000
     31634       254  POPE      C314           16.5657643617       23.6664351432       -3.1865487451  MEMB      254             0.0000000000
     31635       254  POPE      H14X           16.5205987614       22.6059580845       -3.5141776628  MEMB      254             0.0000000000
     31636       254  POPE      H14Y           15.6559251242       23.9101832881       -2.6194019720  MEMB      254             0.0000000000
     31637       254  POPE      C315           17.7146466398       23.7668035352       -2.1846460236  MEMB      254             0.0000000000
     31638       254  POPE      H15X           17.7140113263       24.7824994562       -1.7228418174  MEMB      254             0.0000000000
     31639       254  POPE      H15Y           18.6381007727       23.6392871333       -2.7622791303  MEMB      254             0.0000000000
     31640       254  POPE      C316           17.7916960980       22.6793977248       -1.1240809174  MEMB      254             0.0000000000
     31641       254  POPE      H16X           18.6244260578       22.7460981008       -0.4208856430  MEMB      254             0.0000000000
     31642       254  POPE      H16Y           17.7223420519       21.6405785223       -1.5038591383  MEMB      254             0.0000000000
     31643       254  POPE      H16Z           16.9951313189       22.8413714939       -0.4438589009  MEMB      254             0.0000000000
     31644       255  PMPE      N               7.3989075024       31.5289143005      -18.5749746487  MEMB      255             0.0000000000
     31645       255  PMPE      HN1             7.1813233357       32.0124742895      -19.4670806148  MEMB      255             0.0000000000
     31646       255  PMPE      HN2             7.2941844645       32.2709166814      -17.8362716181  MEMB      255             0.0000000000
     31647       255  PMPE      HN3             8.3604703468       31.1367935082      -18.6340088604  MEMB      255             0.0000000000
     31648       255  PMPE      C12             6.3660716662       30.4341236501      -18.4351638158  MEMB      255             0.0000000000
     31649       255  PMPE      H12A            6.6316209851       29.7558500994      -17.6079147646  MEMB      255             0.0000000000
     31650       255  PMPE      H12B            6.3979488893       29.8028660630      -19.3208174964  MEMB      255             0.0000000000
     31651       255  PMPE      C11             4.9763715502       31.0731288858      -18.3038378959  MEMB      255             0.0000000000
     31652       255  PMPE      H11A            4.9175953022       31.6806682945      -17.3797379079  MEMB      255             0.0000000000
     31653       255  PMPE      H11B            4.1935792460       30.2889792158      -18.2167801158  MEMB      255             0.0000000000
     31654       255  PMPE      P               4.3508288935       33.3976603530      -19.4088602424  MEMB      255             0.0000000000
     31655       255  PMPE      O13             2.9958938423       33.5639770194      -18.8692986897  MEMB      255             0.0000000000
     31656       255  PMPE      O14             4.7148418312       33.9999999570      -20.7126799695  MEMB      255             0.0000000000
     31657       255  PMPE      O11             5.3726426378       33.8235185769      -18.2912775951  MEMB      255             0.0000000000
     31658       255  PMPE      O12             4.6782364443       31.8607637841      -19.4498616159  MEMB      255             0.0000000000
     31659       255  PMPE      C1              5.9618565866       35.0767343808      -18.3676005779  MEMB      255             0.0000000000
     31660       255  PMPE      HA              5.1769474128       35.8262810703      -18.6126163687  MEMB      255             0.0000000000
     31661       255  PMPE      HB              6.7477780338       35.1218102164      -19.1647723922  MEMB      255             0.0000000000
     31662       255  PMPE      C2              6.7852884288       35.3795112494      -17.1473114769  MEMB      255             0.0000000000
     31663       255  PMPE      HS              7.3618749794       36.2145970093      -17.4975624871  MEMB      255             0.0000000000
     31664       255  PMPE      O21             7.5960402558       34.1602292928      -17.0627249314  MEMB      255             0.0000000000
     31665       255  PMPE      C21             8.6495013360       34.4729272187      -16.6418973057  MEMB      255             0.0000000000
     31666       255  PMPE      O22             8.7513629941       35.7126679860      -16.3456482194  MEMB      255             0.0000000000
     31667       255  PMPE      C22             9.2171902526       32.7397960012      -15.6989395563  MEMB      255             0.0000000000
     31668       255  PMPE      H2R             9.9476937436       32.3492259699      -16.2139686044  MEMB      255             0.0000000000
     31669       255  PMPE      H2S             8.2985205100       32.1684536143      -15.6609601806  MEMB      255             0.0000000000
     31670       255  PMPE      C3              5.9146903604       35.7393090215      -15.8963519834  MEMB      255             0.0000000000
     31671       255  PMPE      HX              5.1892541884       36.5220170076      -16.2069913267  MEMB      255             0.0000000000
     31672       255  PMPE      HY              6.4086029296       36.3102012585      -15.0855804480  MEMB      255             0.0000000000
     31673       255  PMPE      O31             5.3450328372       34.5117709993      -15.4913621989  MEMB      255             0.0000000000
     31674       255  PMPE      C31             4.2358800004       34.5336177373      -14.8861190859  MEMB      255             0.0000000000
     31675       255  PMPE      O32             3.6492834882       35.5003285457      -14.4357928717  MEMB      255             0.0000000000
     31676       255  PMPE      C32             3.7748454942       33.1140528245      -14.8661098553  MEMB      255             0.0000000000
     31677       255  PMPE      H2X             3.8986419730       32.5712258789      -15.8123301672  MEMB      255             0.0000000000
     31678       255  PMPE      H2Y             2.7688704407       33.3730446316      -14.8815619081  MEMB      255             0.0000000000
     31679       255  PMPE      C23             9.7394655746       32.5827254139      -13.8756922300  MEMB      255             0.0000000000
     31680       255  PMPE      H3R             9.4250487347       33.2960812867      -13.1680306658  MEMB      255             0.0000000000
     31681       255  PMPE      H3S            10.4801923584       33.1495232457      -13.6961717840  MEMB      255             0.0000000000
     31682       255  PMPE      C24             9.6553391959       31.5171934622      -13.1223970177  MEMB      255             0.0000000000
     31683       255  PMPE      H4R            10.3983229820       30.9498474249      -13.5502761954  MEMB      255             0.0000000000
     31684       255  PMPE      H4S             8.7372948799       31.1461034924      -13.4330616133  MEMB      255             0.0000000000
     31685       255  PMPE      C25             9.8817201285       31.6751435959      -11.7414807518  MEMB      255             0.0000000000
     31686       255  PMPE      H5R             9.4226803736       30.8786980479      -11.3160322889  MEMB      255             0.0000000000
     31687       255  PMPE      H5S             9.3938733579       32.1801606728      -11.0067683224  MEMB      255             0.0000000000
     31688       255  PMPE      C26            11.1478114337       31.9578539947      -11.3460625683  MEMB      255             0.0000000000
     31689       255  PMPE      H6R            11.5580242171       32.6946487784      -11.9131437985  MEMB      255             0.0000000000
     31690       255  PMPE      H6S            11.8084517781       31.1760188159      -11.2783909522  MEMB      255             0.0000000000
     31691       255  PMPE      C27            11.3067883970       32.4176054692      -10.1028316975  MEMB      255             0.0000000000
     31692       255  PMPE      H7R            10.5376093187       33.2386879153      -10.3147732354  MEMB      255             0.0000000000
     31693       255  PMPE      H7S            12.4300350972       32.7662743154       -9.8968003650  MEMB      255             0.0000000000
     31694       255  PMPE      C28            10.8422192804       31.9001468166       -8.9287678897  MEMB      255             0.0000000000
     31695       255  PMPE      H8R            11.4712713594       32.1289203672       -8.2728745837  MEMB      255             0.0000000000
     31696       255  PMPE      H8S            11.2124153540       30.9468582797       -9.0343984517  MEMB      255             0.0000000000
     31697       255  PMPE      C29             9.4971365820       32.0797189431       -8.4717934799  MEMB      255             0.0000000000
     31698       255  PMPE      H9R             8.8658728061       31.6212474090       -9.2432258545  MEMB      255             0.0000000000
     31699       255  PMPE      C217            9.0672799934       33.3701277054       -7.6397833013  MEMB      255             0.0000000000
     31700       255  PMPE      H17R            8.1107184119       33.8280889949       -7.7237404634  MEMB      255             0.0000000000
     31701       255  PMPE      H17S            9.8020526156       34.0272346755       -7.9115712311  MEMB      255             0.0000000000
     31702       255  PMPE      C210            9.0315395279       32.0783668153       -7.0998680866  MEMB      255             0.0000000000
     31703       255  PMPE      H10R            7.9940952017       31.8002539817       -7.0345027209  MEMB      255             0.0000000000
     31704       255  PMPE      C211            9.9330994946       31.7764025127       -6.0106827139  MEMB      255             0.0000000000
     31705       255  PMPE      H11R            9.5652558341       32.1855674202       -5.0577512677  MEMB      255             0.0000000000
     31706       255  PMPE      H11S           10.8607051563       32.1992462902       -6.2040134697  MEMB      255             0.0000000000
     31707       255  PMPE      C212           10.4348422015       30.3765549984       -6.0727344203  MEMB      255             0.0000000000
     31708       255  PMPE      H12R           11.0507248512       30.1723545413       -6.9752510514  MEMB      255             0.0000000000
     31709       255  PMPE      H12S            9.5219267514       29.7785905846       -6.2049981999  MEMB      255             0.0000000000
     31710       255  PMPE      C213           11.3482460727       30.0278903819       -4.8863961540  MEMB      255             0.0000000000
     31711       255  PMPE      H13R           12.2832199880       30.6299757805       -4.9189709680  MEMB      255             0.0000000000
     31712       255  PMPE      H13S           11.7007239437       28.9882499646       -5.0686348995  MEMB      255             0.0000000000
     31713       255  PMPE      C214           10.7025771546       30.1923100491       -3.4894813380  MEMB      255             0.0000000000
     31714       255  PMPE      H14R           10.4774462900       31.2283077548       -3.2052003124  MEMB      255             0.0000000000
     31715       255  PMPE      H14S           11.3887869877       29.7549685860       -2.7312098613  MEMB      255             0.0000000000
     31716       255  PMPE      C215            9.3134560622       29.6193294181       -3.4241844367  MEMB      255             0.0000000000
     31717       255  PMPE      H15R            9.6333262004       28.6743785980       -3.8649457690  MEMB      255             0.0000000000
     31718       255  PMPE      H15S            8.6243715088       30.0995620347       -4.1400139766  MEMB      255             0.0000000000
     31719       255  PMPE      C216            8.6561208032       29.4902684818       -2.0365401905  MEMB      255             0.0000000000
     31720       255  PMPE      H16R            8.3710036877       30.4310966315       -1.5839557312  MEMB      255             0.0000000000
     31721       255  PMPE      H16S            7.6879620769       28.9527556091       -2.0733373573  MEMB      255             0.0000000000
     31722       255  PMPE      H16T            9.3473965713       28.8847410355       -1.3941402786  MEMB      255             0.0000000000
     31723       255  PMPE      C33             4.2067054940       32.3941230007      -13.5920663614  MEMB      255             0.0000000000
     31724       255  PMPE      H3X             3.6094241859       31.4992648132      -13.4188533503  MEMB      255             0.0000000000
     31725       255  PMPE      H3Y             3.9875977573       33.0381854873      -12.7172296159  MEMB      255             0.0000000000
     31726       255  PMPE      C34             5.5802555248       31.7395385719      -13.7152026550  MEMB      255             0.0000000000
     31727       255  PMPE      H4X             6.3399977392       32.3733354982      -13.5793118074  MEMB      255             0.0000000000
     31728       255  PMPE      H4Y             5.7551827450       31.3933286956      -14.7260902158  MEMB      255             0.0000000000
     31729       255  PMPE      C35             6.0201414374       30.6920335859      -12.7130664949  MEMB      255             0.0000000000
     31730       255  PMPE      H5X             7.1290744320       30.5446923274      -12.6658417864  MEMB      255             0.0000000000
     31731       255  PMPE      H5Y             5.5202341159       29.7531948803      -12.9836569097  MEMB      255             0.0000000000
     31732       255  PMPE      C36             5.6167899188       31.1037860078      -11.3194618088  MEMB      255             0.0000000000
     31733       255  PMPE      H6X             4.5582970600       31.3280437063      -11.2035533131  MEMB      255             0.0000000000
     31734       255  PMPE      H6Y             5.9630218559       32.0816677968      -11.1418511224  MEMB      255             0.0000000000
     31735       255  PMPE      C37             6.1886530707       30.2954844888      -10.1718466228  MEMB      255             0.0000000000
     31736       255  PMPE      H7X             7.2978552793       30.2949003284      -10.1140718314  MEMB      255             0.0000000000
     31737       255  PMPE      H7Y             5.8496017694       29.2620882092      -10.3520814673  MEMB      255             0.0000000000
     31738       255  PMPE      C38             5.6468659304       30.7494467039       -8.8262090750  MEMB      255             0.0000000000
     31739       255  PMPE      H8X             5.5735798595       31.8608714008       -8.7092847853  MEMB      255             0.0000000000
     31740       255  PMPE      H8Y             6.1978434343       30.2836879486       -7.9964346471  MEMB      255             0.0000000000
     31741       255  PMPE      C39             4.3001956241       30.2159719184       -8.6076053045  MEMB      255             0.0000000000
     31742       255  PMPE      H9X             4.0973346218       29.1586279333       -8.8928642461  MEMB      255             0.0000000000
     31743       255  PMPE      H9Y             3.7566435397       30.9368909315       -9.2781149449  MEMB      255             0.0000000000
     31744       255  PMPE      C310            3.8714998575       30.3407292986       -7.1880212033  MEMB      255             0.0000000000
     31745       255  PMPE      H10X            4.2492294922       29.7652031662       -6.3639994653  MEMB      255             0.0000000000
     31746       255  PMPE      H10Y            2.9067055007       29.7176336389       -7.2543898969  MEMB      255             0.0000000000
     31747       255  PMPE      C311            4.0302420196       31.8344810005       -6.7011144612  MEMB      255             0.0000000000
     31748       255  PMPE      H11X            3.5287807639       32.7554057691       -7.1787743266  MEMB      255             0.0000000000
     31749       255  PMPE      H11Y            4.8743696244       32.4372543624       -6.7350482280  MEMB      255             0.0000000000
     31750       255  PMPE      C312            3.7025376678       31.9674969369       -5.3647773973  MEMB      255             0.0000000000
     31751       255  PMPE      H12X            4.1201033106       31.4112284744       -4.5201418421  MEMB      255             0.0000000000
     31752       255  PMPE      H12Y            2.8801958278       31.0340805150       -5.3269847032  MEMB      255             0.0000000000
     31753       255  PMPE      C313            3.2065526213       33.8408569070       -5.3347502915  MEMB      255             0.0000000000
     31754       255  PMPE      H13X            2.1754261972       34.3255572560       -5.0605221246  MEMB      255             0.0000000000
     31755       255  PMPE      H13Y            2.3772257177       34.3727839319       -5.7339915366  MEMB      255             0.0000000000
     31756       255  PMPE      C314            3.7056136724       34.9109134059       -4.8669256352  MEMB      255             0.0000000000
     31757       255  PMPE      H14X            3.5541546754       35.7590437959       -5.0644611699  MEMB      255             0.0000000000
     31758       255  PMPE      H14Y            4.4283917566       34.0994962612       -5.2799171077  MEMB      255             0.0000000000
     31759       255  PMPE      C315            3.9786517864       35.8409696177       -2.9041803990  MEMB      255             0.0000000000
     31760       255  PMPE      H15X            3.0696417618       35.9753666141       -2.7745820582  MEMB      255             0.0000000000
     31761       255  PMPE      H15Y            4.9679419625       36.5837056069       -3.2653018003  MEMB      255             0.0000000000
     31762       255  PMPE      C316            4.5015976988       34.4282957395       -1.4944903767  MEMB      255             0.0000000000
     31763       255  PMPE      H16X            5.1058333514       33.2608327186       -1.8338465133  MEMB      255             0.0000000000
     31764       255  PMPE      H16Y            3.6770675783       33.9710096353       -1.2717595078  MEMB      255             0.0000000000
     31765       255  PMPE      H16Z            4.6111801384       34.4574916544       -0.5976941693  MEMB      255             0.0000000000
     31766       256  PMPE      N             -31.7945170142       -5.2238964683      -21.1765635190  MEMB      256             0.0000000000
     31767       256  PMPE      HN1           -32.6174376881       -4.6273900919      -21.4132822518  MEMB      256             0.0000000000
     31768       256  PMPE      HN2           -31.0626170507       -4.5328238220      -20.9075214438  MEMB      256             0.0000000000
     31769       256  PMPE      HN3           -31.5480239633       -5.7317781684      -22.0579284626  MEMB      256             0.0000000000
     31770       256  PMPE      C12           -32.0851694145       -6.2784708139      -20.1106185814  MEMB      256             0.0000000000
     31771       256  PMPE      H12A          -31.1311685458       -6.8551845480      -19.9994779058  MEMB      256             0.0000000000
     31772       256  PMPE      H12B          -32.9151157911       -6.9317691069      -20.4753436267  MEMB      256             0.0000000000
     31773       256  PMPE      C11           -32.4984752355       -5.6802147920      -18.7440194463  MEMB      256             0.0000000000
     31774       256  PMPE      H11A          -31.6315778778       -5.0746153795      -18.3959866879  MEMB      256             0.0000000000
     31775       256  PMPE      H11B          -32.6613281660       -6.4904678108      -17.9908868010  MEMB      256             0.0000000000
     31776       256  PMPE      P             -33.8402630363       -3.3849552664      -18.4200440688  MEMB      256             0.0000000000
     31777       256  PMPE      O13           -34.6156814558       -2.7705958190      -19.5053695824  MEMB      256             0.0000000000
     31778       256  PMPE      O14           -32.4599817462       -2.8788266441      -18.2282541701  MEMB      256             0.0000000000
     31779       256  PMPE      O11           -34.7005102683       -3.3512007307      -17.0651072176  MEMB      256             0.0000000000
     31780       256  PMPE      O12           -33.7072497523       -4.9281172678      -18.8361891050  MEMB      256             0.0000000000
     31781       256  PMPE      C1            -35.5520848441       -4.4548130464      -16.7568299909  MEMB      256             0.0000000000
     31782       256  PMPE      HA            -35.5393416867       -5.2352821522      -17.5396686733  MEMB      256             0.0000000000
     31783       256  PMPE      HB            -36.6029807906       -4.1281087582      -16.6818897631  MEMB      256             0.0000000000
     31784       256  PMPE      C2            -35.2120540655       -5.0935333258      -15.4120371635  MEMB      256             0.0000000000
     31785       256  PMPE      HS            -35.2275142795       -4.2906229057      -14.6334000211  MEMB      256             0.0000000000
     31786       256  PMPE      O21           -33.9202543528       -5.7017310762      -15.4660160494  MEMB      256             0.0000000000
     31787       256  PMPE      C21           -32.8403304411       -4.9993562919      -15.1705759849  MEMB      256             0.0000000000
     31788       256  PMPE      O22           -32.7630418332       -3.8079851793      -14.9428026822  MEMB      256             0.0000000000
     31789       256  PMPE      C22           -31.6790570957       -5.9812216219      -15.0060021289  MEMB      256             0.0000000000
     31790       256  PMPE      H2R           -30.8361590652       -5.6399817091      -15.6384859220  MEMB      256             0.0000000000
     31791       256  PMPE      H2S           -31.9883388097       -6.9819340458      -15.3806390693  MEMB      256             0.0000000000
     31792       256  PMPE      C3            -36.2664676993       -6.1991632024      -15.1003637837  MEMB      256             0.0000000000
     31793       256  PMPE      HX            -36.3090672418       -7.0215537399      -15.8466667103  MEMB      256             0.0000000000
     31794       256  PMPE      HY            -37.3080996952       -5.7962279499      -15.0894763019  MEMB      256             0.0000000000
     31795       256  PMPE      O31           -35.8511402292       -6.8402998996      -13.9022621727  MEMB      256             0.0000000000
     31796       256  PMPE      C31           -36.4551610845       -6.5105604885      -12.8469428576  MEMB      256             0.0000000000
     31797       256  PMPE      O32           -37.4517816029       -5.7912089498      -12.8019510719  MEMB      256             0.0000000000
     31798       256  PMPE      C32           -35.5940113524       -7.1546924156      -11.7546075704  MEMB      256             0.0000000000
     31799       256  PMPE      H2X           -34.5276083507       -7.0553278821      -11.7654866251  MEMB      256             0.0000000000
     31800       256  PMPE      H2Y           -35.8464132458       -8.2221850153      -11.6121517496  MEMB      256             0.0000000000
     31801       256  PMPE      C23           -31.3404281385       -5.9624340840      -13.4940874039  MEMB      256             0.0000000000
     31802       256  PMPE      H3R           -32.2649021107       -6.2421741726      -12.9426539607  MEMB      256             0.0000000000
     31803       256  PMPE      H3S           -31.0872931965       -4.9391714640      -13.1396923010  MEMB      256             0.0000000000
     31804       256  PMPE      C24           -30.1807758983       -6.8587230329      -13.0734078984  MEMB      256             0.0000000000
     31805       256  PMPE      H4R           -29.3316504499       -6.7275591786      -13.7929373429  MEMB      256             0.0000000000
     31806       256  PMPE      H4S           -30.5517076627       -7.9027121983      -13.0805047918  MEMB      256             0.0000000000
     31807       256  PMPE      C25           -29.6406507610       -6.5887775674      -11.6598099512  MEMB      256             0.0000000000
     31808       256  PMPE      H5R           -29.3508515559       -5.5275536107      -11.5815342699  MEMB      256             0.0000000000
     31809       256  PMPE      H5S           -28.7196699828       -7.1940630837      -11.5231042133  MEMB      256             0.0000000000
     31810       256  PMPE      C26           -30.5452853719       -6.8781451700      -10.4488931848  MEMB      256             0.0000000000
     31811       256  PMPE      H6R           -31.4392219644       -6.2176124233      -10.4341645592  MEMB      256             0.0000000000
     31812       256  PMPE      H6S           -29.9078793726       -6.6431049188       -9.5704559982  MEMB      256             0.0000000000
     31813       256  PMPE      C27           -30.8365100035       -8.3433140928      -10.1221296955  MEMB      256             0.0000000000
     31814       256  PMPE      H7R           -29.9367271224       -8.9191093164      -10.3471861706  MEMB      256             0.0000000000
     31815       256  PMPE      H7S           -31.6448205158       -8.6814139105      -10.7848872361  MEMB      256             0.0000000000
     31816       256  PMPE      C28           -31.2920330753       -8.5512230150       -8.6624983023  MEMB      256             0.0000000000
     31817       256  PMPE      H8R           -31.9621165443       -7.6928752105       -8.4719392751  MEMB      256             0.0000000000
     31818       256  PMPE      H8S           -30.4971274618       -8.3600837861       -7.9243118432  MEMB      256             0.0000000000
     31819       256  PMPE      C29           -32.0354918606       -9.8860542347       -8.4171752723  MEMB      256             0.0000000000
     31820       256  PMPE      H9R           -31.6721164672      -10.8724024950       -8.6544455505  MEMB      256             0.0000000000
     31821       256  PMPE      C217          -33.5269743888       -9.7378328593       -8.6475796035  MEMB      256             0.0000000000
     31822       256  PMPE      H17R          -33.9835526007      -10.5683606680       -9.1752375728  MEMB      256             0.0000000000
     31823       256  PMPE      H17S          -33.6875886077       -8.6932735076       -8.8871595938  MEMB      256             0.0000000000
     31824       256  PMPE      C210          -32.9701234027      -10.0640054903       -7.2509762116  MEMB      256             0.0000000000
     31825       256  PMPE      H10R          -32.9702817530      -11.1063222860       -6.8691179812  MEMB      256             0.0000000000
     31826       256  PMPE      C211          -33.0326244815       -9.0201685130       -6.1438816650  MEMB      256             0.0000000000
     31827       256  PMPE      H11R          -33.9017853582       -9.2756773574       -5.4919688391  MEMB      256             0.0000000000
     31828       256  PMPE      H11S          -33.1716045763       -8.0157115181       -6.5782122822  MEMB      256             0.0000000000
     31829       256  PMPE      C212          -31.7223547069       -8.9981170954       -5.3651674825  MEMB      256             0.0000000000
     31830       256  PMPE      H12R          -30.9949517695       -8.3286241995       -5.8361351804  MEMB      256             0.0000000000
     31831       256  PMPE      H12S          -31.2150436480       -9.9703777573       -5.5154835521  MEMB      256             0.0000000000
     31832       256  PMPE      C213          -31.7291036911       -8.5844476247       -3.8972019644  MEMB      256             0.0000000000
     31833       256  PMPE      H13R          -30.6541459325       -8.6853406373       -3.6659007800  MEMB      256             0.0000000000
     31834       256  PMPE      H13S          -32.2733018369       -9.2324589723       -3.2769022370  MEMB      256             0.0000000000
     31835       256  PMPE      C214          -32.3186060935       -7.2565849557       -3.4238220115  MEMB      256             0.0000000000
     31836       256  PMPE      H14R          -31.8719099036       -6.4617032219       -4.0456699256  MEMB      256             0.0000000000
     31837       256  PMPE      H14S          -31.9611665398       -7.1010001192       -2.3801885916  MEMB      256             0.0000000000
     31838       256  PMPE      C215          -33.8630003145       -7.2322193264       -3.3489988769  MEMB      256             0.0000000000
     31839       256  PMPE      H15R          -34.2552770444       -7.5775762884       -4.3266353574  MEMB      256             0.0000000000
     31840       256  PMPE      H15S          -34.2421364759       -6.2108377464       -3.2283866496  MEMB      256             0.0000000000
     31841       256  PMPE      C216          -34.5098549873       -7.9396580256       -2.1618219824  MEMB      256             0.0000000000
     31842       256  PMPE      H16R          -34.0044605173       -7.7884536686       -1.1889551831  MEMB      256             0.0000000000
     31843       256  PMPE      H16S          -35.6053004928       -7.7969498766       -2.0913775694  MEMB      256             0.0000000000
     31844       256  PMPE      H16T          -34.3851293878       -8.9589672287       -2.3721542717  MEMB      256             0.0000000000
     31845       256  PMPE      C33           -35.6885667243       -6.5141593320      -10.4460721216  MEMB      256             0.0000000000
     31846       256  PMPE      H3X           -35.4240884691       -7.2103882129       -9.6565270250  MEMB      256             0.0000000000
     31847       256  PMPE      H3Y           -36.6597292600       -6.7666532938      -10.5564646284  MEMB      256             0.0000000000
     31848       256  PMPE      C34           -35.3953963500       -5.0950896778       -9.8925358315  MEMB      256             0.0000000000
     31849       256  PMPE      H4X           -35.8857683985       -5.0376152275       -8.8631986050  MEMB      256             0.0000000000
     31850       256  PMPE      H4Y           -35.7903476310       -4.1716608417      -10.4126211086  MEMB      256             0.0000000000
     31851       256  PMPE      C35           -34.0123651636       -4.9364771165       -9.8906142672  MEMB      256             0.0000000000
     31852       256  PMPE      H5X           -33.7707056464       -4.6235997525      -10.9245455566  MEMB      256             0.0000000000
     31853       256  PMPE      H5Y           -33.7173784407       -5.9852883108       -9.7558219611  MEMB      256             0.0000000000
     31854       256  PMPE      C36           -33.6252925714       -3.9906568271       -8.7914852871  MEMB      256             0.0000000000
     31855       256  PMPE      H6X           -34.3200250180       -3.9760668403       -7.9167504916  MEMB      256             0.0000000000
     31856       256  PMPE      H6Y           -33.7134987922       -2.9706702616       -9.2347396227  MEMB      256             0.0000000000
     31857       256  PMPE      C37           -32.2136304421       -4.2939512891       -8.3044381098  MEMB      256             0.0000000000
     31858       256  PMPE      H7X           -31.5387252626       -4.3113256773       -9.1986703497  MEMB      256             0.0000000000
     31859       256  PMPE      H7Y           -32.0304204409       -5.2534627799       -7.7775302617  MEMB      256             0.0000000000
     31860       256  PMPE      C38           -31.7840476970       -3.2359147986       -7.3044007261  MEMB      256             0.0000000000
     31861       256  PMPE      H8X           -31.9770904369       -2.2502009877       -7.7200309470  MEMB      256             0.0000000000
     31862       256  PMPE      H8Y           -30.7359632444       -3.1988647766       -7.3905127874  MEMB      256             0.0000000000
     31863       256  PMPE      C39           -32.3160291406       -3.3007469588       -5.8635917667  MEMB      256             0.0000000000
     31864       256  PMPE      H9X           -32.1651332446       -4.2898016499       -5.3678131066  MEMB      256             0.0000000000
     31865       256  PMPE      H9Y           -33.3869699926       -3.0060803326       -5.8761586829  MEMB      256             0.0000000000
     31866       256  PMPE      C310          -31.6851560017       -2.2535024279       -4.9599807277  MEMB      256             0.0000000000
     31867       256  PMPE      H10X          -31.6947132640       -1.2672355616       -5.4668488055  MEMB      256             0.0000000000
     31868       256  PMPE      H10Y          -30.6588412867       -2.5573738538       -4.8649551241  MEMB      256             0.0000000000
     31869       256  PMPE      C311          -32.3447823384       -2.2082061428       -3.5772281086  MEMB      256             0.0000000000
     31870       256  PMPE      H11X          -33.4140498542       -1.9116853872       -3.7156355876  MEMB      256             0.0000000000
     31871       256  PMPE      H11Y          -31.8305784187       -1.4355329663       -2.9656235852  MEMB      256             0.0000000000
     31872       256  PMPE      C312          -32.2820641883       -3.5450961840       -2.7951327329  MEMB      256             0.0000000000
     31873       256  PMPE      H12X          -31.2682687303       -4.0033207036       -2.8262033779  MEMB      256             0.0000000000
     31874       256  PMPE      H12Y          -33.0154616987       -4.2461889986       -3.2428099310  MEMB      256             0.0000000000
     31875       256  PMPE      C313          -32.6108087886       -3.3794446108       -1.3119631741  MEMB      256             0.0000000000
     31876       256  PMPE      H13X          -33.6556366980       -3.0271628555       -1.2144829771  MEMB      256             0.0000000000
     31877       256  PMPE      H13Y          -31.9896513428       -2.5841679588       -0.9472964914  MEMB      256             0.0000000000
     31878       256  PMPE      C314          -32.3641847662       -4.5794775014       -0.3878354228  MEMB      256             0.0000000000
     31879       256  PMPE      H14X          -31.2860637048       -4.8506546091       -0.2627548358  MEMB      256             0.0000000000
     31880       256  PMPE      H14Y          -32.8290307187       -5.4678439544       -0.8626724229  MEMB      256             0.0000000000
     31881       256  PMPE      C315          -33.1289271280       -4.3946054578        0.9373856451  MEMB      256             0.0000000000
     31882       256  PMPE      H15X          -34.0922636812       -3.8474390176        0.7628986861  MEMB      256             0.0000000000
     31883       256  PMPE      H15Y          -32.5404326901       -3.8803157072        1.7348299022  MEMB      256             0.0000000000
     31884       256  PMPE      C316          -33.5579919267       -5.7325246044        1.4925421035  MEMB      256             0.0000000000
     31885       256  PMPE      H16X          -34.2200184675       -5.5841779764        2.3642288853  MEMB      256             0.0000000000
     31886       256  PMPE      H16Y          -32.6599959347       -6.2887719286        1.8216066245  MEMB      256             0.0000000000
     31887       256  PMPE      H16Z          -34.1208888396       -6.3073033161        0.7255903752  MEMB      256             0.0000000000
     31888       257  OYPE      N              35.4869107836        3.6279849643      -19.5099566088  MEMB      257             0.0000000000
     31889       257  OYPE      HN1            36.1772753107        4.3539438294      -19.7823791973  MEMB      257             0.0000000000
     31890       257  OYPE      HN2            34.5508605250        4.0240216982      -19.2901011742  MEMB      257             0.0000000000
     31891       257  OYPE      HN3            35.7842388560        3.1478866317      -18.6458885797  MEMB      257             0.0000000000
     31892       257  OYPE      C12            35.3724006640        2.5493100452      -20.5579475906  MEMB      257             0.0000000000
     31893       257  OYPE      H12A           36.4058447477        2.2926114068      -20.8534821506  MEMB      257             0.0000000000
     31894       257  OYPE      H12B           34.8570301096        2.9815325258      -21.4371454414  MEMB      257             0.0000000000
     31895       257  OYPE      C11            34.6540646761        1.3178570407      -19.9716299122  MEMB      257             0.0000000000
     31896       257  OYPE      H11A           35.3498082399        0.7150935100      -19.3354727751  MEMB      257             0.0000000000
     31897       257  OYPE      H11B           34.2908476121        0.6311779565      -20.7646203947  MEMB      257             0.0000000000
     31898       257  OYPE      P              32.5987836242        0.6685546534      -18.4288784645  MEMB      257             0.0000000000
     31899       257  OYPE      O13            32.7858401057       -0.6871152559      -18.9864913131  MEMB      257             0.0000000000
     31900       257  OYPE      O14            31.2394881635        1.2339033668      -18.3473333841  MEMB      257             0.0000000000
     31901       257  OYPE      O11            33.3145650695        0.7027764446      -16.9960139257  MEMB      257             0.0000000000
     31902       257  OYPE      O12            33.5328345082        1.7504448099      -19.2253638836  MEMB      257             0.0000000000
     31903       257  OYPE      C1             33.3470280630        1.9743853885      -16.3320235849  MEMB      257             0.0000000000
     31904       257  OYPE      HA             32.3057194983        2.2743557976      -16.1247110369  MEMB      257             0.0000000000
     31905       257  OYPE      HB             33.8246283451        2.7425467410      -16.9788447197  MEMB      257             0.0000000000
     31906       257  OYPE      C2             34.0371149366        1.9784684904      -14.9253086857  MEMB      257             0.0000000000
     31907       257  OYPE      HS             35.0486252156        1.6650033755      -15.0271917876  MEMB      257             0.0000000000
     31908       257  OYPE      O21            33.4790974316        0.9669479326      -14.1164211926  MEMB      257             0.0000000000
     31909       257  OYPE      C21            34.1572102949        0.5561522713      -13.0568988504  MEMB      257             0.0000000000
     31910       257  OYPE      O22            35.2631244342        0.8311895888      -12.6927794180  MEMB      257             0.0000000000
     31911       257  OYPE      C22            33.2957112428       -0.2935858630      -12.2039373452  MEMB      257             0.0000000000
     31912       257  OYPE      H2R            33.3124250068       -1.3465431915      -12.5416276975  MEMB      257             0.0000000000
     31913       257  OYPE      H2S            32.3025364082        0.1896277043      -12.2314617307  MEMB      257             0.0000000000
     31914       257  OYPE      C3             33.9511187115        3.3526859108      -14.1950746647  MEMB      257             0.0000000000
     31915       257  OYPE      HX             34.3401521384        4.1696786608      -14.8565497948  MEMB      257             0.0000000000
     31916       257  OYPE      HY             34.5490931590        3.3035061347      -13.2551496365  MEMB      257             0.0000000000
     31917       257  OYPE      O31            32.5808128964        3.6171141833      -13.9143150985  MEMB      257             0.0000000000
     31918       257  OYPE      C31            32.2047343433        3.5406125783      -12.6526020593  MEMB      257             0.0000000000
     31919       257  OYPE      O32            32.9021998511        3.4082071760      -11.6658169000  MEMB      257             0.0000000000
     31920       257  OYPE      C32            30.7011770235        3.7346380292      -12.6402135712  MEMB      257             0.0000000000
     31921       257  OYPE      H2X            30.5343998675        4.7496283605      -12.2425027791  MEMB      257             0.0000000000
     31922       257  OYPE      H2Y            30.2996046351        3.6642814937      -13.6794540661  MEMB      257             0.0000000000
     31923       257  OYPE      C23            33.8320606338       -0.2418067582      -10.7683420404  MEMB      257             0.0000000000
     31924       257  OYPE      H3R            33.7226325191        0.8139165372      -10.4235205180  MEMB      257             0.0000000000
     31925       257  OYPE      H3S            34.9036870712       -0.5113024077      -10.7254586786  MEMB      257             0.0000000000
     31926       257  OYPE      C24            33.0618750479       -1.1137780247       -9.7935554029  MEMB      257             0.0000000000
     31927       257  OYPE      H4R            33.7507301470       -1.6807108544       -9.1284545687  MEMB      257             0.0000000000
     31928       257  OYPE      H4S            32.4992518323       -1.8290719123      -10.4058974118  MEMB      257             0.0000000000
     31929       257  OYPE      C25            32.2330589211       -0.1262883171       -8.9618784439  MEMB      257             0.0000000000
     31930       257  OYPE      H5R            31.6655560360        0.5516047979       -9.6095796330  MEMB      257             0.0000000000
     31931       257  OYPE      H5S            32.8576429377        0.4037932360       -8.2566319363  MEMB      257             0.0000000000
     31932       257  OYPE      C26            31.1366075429       -0.5159244060       -8.0769567256  MEMB      257             0.0000000000
     31933       257  OYPE      H6R            31.1039823702       -1.3589389215       -8.6800081937  MEMB      257             0.0000000000
     31934       257  OYPE      H6S            30.1175678046       -0.2412743244       -8.3409111560  MEMB      257             0.0000000000
     31935       257  OYPE      C27            31.5205294572       -0.9282610872       -6.6447552833  MEMB      257             0.0000000000
     31936       257  OYPE      H7R            32.3641024637       -1.6743733979       -6.6163067221  MEMB      257             0.0000000000
     31937       257  OYPE      H7S            30.5723254374       -1.3821122718       -6.4127862614  MEMB      257             0.0000000000
     31938       257  OYPE      C28            31.4076267311       -0.2399119578       -5.4388817363  MEMB      257             0.0000000000
     31939       257  OYPE      H8R            32.0532497944        0.4351158767       -5.9632561547  MEMB      257             0.0000000000
     31940       257  OYPE      H8S            31.7407280214       -0.9584661462       -4.6736993787  MEMB      257             0.0000000000
     31941       257  OYPE      C29            30.1807967186        0.3770487552       -5.1130021597  MEMB      257             0.0000000000
     31942       257  OYPE      H9R            29.6900405522        0.7794967168       -6.0183114444  MEMB      257             0.0000000000
     31943       257  OYPE      C210           29.5946185399        0.2882973611       -3.9464113850  MEMB      257             0.0000000000
     31944       257  OYPE      H10R           28.7728292525        0.9530739718       -3.9340404086  MEMB      257             0.0000000000
     31945       257  OYPE      C211           29.8608278325       -0.3620650876       -2.6504523138  MEMB      257             0.0000000000
     31946       257  OYPE      H11R           30.8391293217       -0.8226806560       -2.7866695187  MEMB      257             0.0000000000
     31947       257  OYPE      H11S           29.1388013131       -1.1372608547       -2.2329444847  MEMB      257             0.0000000000
     31948       257  OYPE      C212           29.8843408791        0.7540457923       -1.6721900871  MEMB      257             0.0000000000
     31949       257  OYPE      H12R           28.8489624620        1.0962694239       -1.4958163289  MEMB      257             0.0000000000
     31950       257  OYPE      H12S           30.4304264044        1.6406863066       -2.0341930879  MEMB      257             0.0000000000
     31951       257  OYPE      C213           30.4809190526        0.2156807538       -0.4180968640  MEMB      257             0.0000000000
     31952       257  OYPE      H13R           31.5282431506       -0.1163569022       -0.5615783399  MEMB      257             0.0000000000
     31953       257  OYPE      H13S           29.8313113446       -0.6317089482       -0.0769341484  MEMB      257             0.0000000000
     31954       257  OYPE      C214           30.7396956331        1.2287254904        0.6190958689  MEMB      257             0.0000000000
     31955       257  OYPE      H14R           29.7715261068        1.6560503995        0.6555112687  MEMB      257             0.0000000000
     31956       257  OYPE      H14S           31.3861965616        2.0363831392        0.3070957068  MEMB      257             0.0000000000
     31957       257  OYPE      C215           31.2958475392        0.6400538404        1.9181384285  MEMB      257             0.0000000000
     31958       257  OYPE      H15R           32.0518341631        0.1735300663        1.7259132084  MEMB      257             0.0000000000
     31959       257  OYPE      H15S           30.4974693515       -0.0781269696        2.2553317285  MEMB      257             0.0000000000
     31960       257  OYPE      C216           31.8313582283        1.5864281160        3.0069679778  MEMB      257             0.0000000000
     31961       257  OYPE      H16R           31.8095074539        1.0717640444        3.9692705423  MEMB      257             0.0000000000
     31962       257  OYPE      H16S           31.2693482581        2.5234574502        3.2004284734  MEMB      257             0.0000000000
     31963       257  OYPE      H16T           32.7055750459        2.0890653361        2.6894838345  MEMB      257             0.0000000000
     31964       257  OYPE      C33            29.9498757214        2.6829446997      -11.8102267876  MEMB      257             0.0000000000
     31965       257  OYPE      H3X            30.2320084463        1.6678998867      -12.1764538029  MEMB      257             0.0000000000
     31966       257  OYPE      H3Y            28.8875541073        2.9460544894      -11.9960610211  MEMB      257             0.0000000000
     31967       257  OYPE      C34            30.0262024579        2.8113935517      -10.2945979142  MEMB      257             0.0000000000
     31968       257  OYPE      H4X            29.3863227619        2.0475246623       -9.7739389195  MEMB      257             0.0000000000
     31969       257  OYPE      H4Y            31.0813997353        2.6267199853      -10.0165569729  MEMB      257             0.0000000000
     31970       257  OYPE      C35            29.6155701212        4.2132516932       -9.8272678124  MEMB      257             0.0000000000
     31971       257  OYPE      H5X            28.5723887908        4.4366523119      -10.1322831007  MEMB      257             0.0000000000
     31972       257  OYPE      H5Y            30.2538828823        5.0075791075      -10.2743717550  MEMB      257             0.0000000000
     31973       257  OYPE      C36            29.6074686572        4.2791099194       -8.3092111914  MEMB      257             0.0000000000
     31974       257  OYPE      H6X            29.0643607405        5.1849046719       -7.9667539141  MEMB      257             0.0000000000
     31975       257  OYPE      H6Y            28.9994446644        3.4104946743       -7.9757103289  MEMB      257             0.0000000000
     31976       257  OYPE      C37            31.0169616988        4.2988265756       -7.7240440234  MEMB      257             0.0000000000
     31977       257  OYPE      H7X            31.6269002276        3.4258910544       -8.0117389127  MEMB      257             0.0000000000
     31978       257  OYPE      H7Y            31.5905329786        5.1295768952       -8.1817008219  MEMB      257             0.0000000000
     31979       257  OYPE      C38            31.0497741859        4.5587991973       -6.2181553890  MEMB      257             0.0000000000
     31980       257  OYPE      H8X            32.0954514206        4.9176679185       -6.1137531319  MEMB      257             0.0000000000
     31981       257  OYPE      H8Y            30.3042894392        5.3484545025       -5.9683466420  MEMB      257             0.0000000000
     31982       257  OYPE      C39            30.8552913808        3.4009930464       -5.3015815878  MEMB      257             0.0000000000
     31983       257  OYPE      H9X            29.8303407919        2.9842221103       -5.2813935915  MEMB      257             0.0000000000
     31984       257  OYPE      C310           31.8137561633        2.9551495731       -4.4643460213  MEMB      257             0.0000000000
     31985       257  OYPE      H10X           31.6224488540        2.0609464342       -3.8642501307  MEMB      257             0.0000000000
     31986       257  OYPE      C311           33.2071402406        3.4950785286       -4.2842018167  MEMB      257             0.0000000000
     31987       257  OYPE      H11X           33.6204625865        3.8814332234       -5.2421319921  MEMB      257             0.0000000000
     31988       257  OYPE      H11Y           33.1780032651        4.3147500815       -3.5286885972  MEMB      257             0.0000000000
     31989       257  OYPE      C312           34.1533372052        2.4201877716       -3.7319351666  MEMB      257             0.0000000000
     31990       257  OYPE      H12X           35.1674439259        2.7982808627       -3.6700728278  MEMB      257             0.0000000000
     31991       257  OYPE      H12Y           34.3008781889        1.6170792967       -4.4702173040  MEMB      257             0.0000000000
     31992       257  OYPE      C313           33.7054004796        1.9505964204       -2.3380953356  MEMB      257             0.0000000000
     31993       257  OYPE      H13X           33.7415263403        2.8219893654       -1.6604574320  MEMB      257             0.0000000000
     31994       257  OYPE      H13Y           32.6434949959        1.6062658316       -2.3540376942  MEMB      257             0.0000000000
     31995       257  OYPE      C314           34.5998925880        0.8834821301       -1.7162808332  MEMB      257             0.0000000000
     31996       257  OYPE      H14X           34.3007050275        0.7820926269       -0.6526080561  MEMB      257             0.0000000000
     31997       257  OYPE      H14Y           35.6690752737        1.1928036480       -1.6937930778  MEMB      257             0.0000000000
     31998       257  OYPE      C315           34.3532496963       -0.4184517944       -2.4761687429  MEMB      257             0.0000000000
     31999       257  OYPE      H15X           34.4512697579       -0.2201374813       -3.5619672214  MEMB      257             0.0000000000
     32000       257  OYPE      H15Y           33.3494657224       -0.8083252019       -2.2474017732  MEMB      257             0.0000000000
     32001       257  OYPE      C316           35.2947735964       -1.5323995077       -2.1943847751  MEMB      257             0.0000000000
     32002       257  OYPE      H16X           35.2976381944       -1.7607682153       -1.0882368613  MEMB      257             0.0000000000
     32003       257  OYPE      H16Y           36.2556441036       -1.1144851133       -2.5874647387  MEMB      257             0.0000000000
     32004       257  OYPE      C317           35.0335783372       -2.8916740118       -2.7864976867  MEMB      257             0.0000000000
     32005       257  OYPE      H17X           35.9840599139       -3.4630940818       -2.8329705834  MEMB      257             0.0000000000
     32006       257  OYPE      H17Y           34.8197256748       -2.8884831074       -3.8623208078  MEMB      257             0.0000000000
     32007       257  OYPE      C318           34.0192214294       -3.6268601829       -1.9145141472  MEMB      257             0.0000000000
     32008       257  OYPE      H18X           34.3060986728       -3.7409613237       -0.8500335761  MEMB      257             0.0000000000
     32009       257  OYPE      H18Y           32.9722667328       -3.2983805477       -1.9808855565  MEMB      257             0.0000000000
     32010       257  OYPE      H18Z           33.9079315947       -4.5974914215       -2.2656852763  MEMB      257             0.0000000000
     32011       258  PMPE      N             -19.8159523154       25.7897104603      -17.0700644886  MEMB      258             0.0000000000
     32012       258  PMPE      HN1           -20.1489548944       26.0572483403      -16.1248069463  MEMB      258             0.0000000000
     32013       258  PMPE      HN2           -19.6556543026       24.7719009991      -17.1125499301  MEMB      258             0.0000000000
     32014       258  PMPE      HN3           -18.9537491930       26.3024087591      -17.3429289153  MEMB      258             0.0000000000
     32015       258  PMPE      C12           -20.8226449640       26.1013928585      -18.1167860733  MEMB      258             0.0000000000
     32016       258  PMPE      H12A          -21.6795609806       25.4308557347      -17.8938657954  MEMB      258             0.0000000000
     32017       258  PMPE      H12B          -20.4456549387       25.7806924624      -19.1106751539  MEMB      258             0.0000000000
     32018       258  PMPE      C11           -21.0000366166       27.6281289154      -18.2054179056  MEMB      258             0.0000000000
     32019       258  PMPE      H11A          -21.4715526576       28.0478912329      -17.2863594701  MEMB      258             0.0000000000
     32020       258  PMPE      H11B          -21.6770207534       27.7806665917      -19.0613084140  MEMB      258             0.0000000000
     32021       258  PMPE      P             -18.9345553608       28.2734675608      -19.7862075099  MEMB      258             0.0000000000
     32022       258  PMPE      O13           -19.7994057691       28.4727545512      -20.9569491667  MEMB      258             0.0000000000
     32023       258  PMPE      O14           -18.1538467951       27.0171470613      -19.7209756436  MEMB      258             0.0000000000
     32024       258  PMPE      O11           -17.9903732664       29.5440282613      -19.6348438476  MEMB      258             0.0000000000
     32025       258  PMPE      O12           -19.7965120796       28.3365724397      -18.4552973203  MEMB      258             0.0000000000
     32026       258  PMPE      C1            -18.5075074116       30.6119887358      -18.7924815246  MEMB      258             0.0000000000
     32027       258  PMPE      HA            -19.6221292995       30.5821950278      -18.6097299168  MEMB      258             0.0000000000
     32028       258  PMPE      HB            -18.3793794400       31.5837091820      -19.3025979477  MEMB      258             0.0000000000
     32029       258  PMPE      C2            -17.6954560459       30.7056052710      -17.4650931769  MEMB      258             0.0000000000
     32030       258  PMPE      HS            -16.6911294551       31.1235485448      -17.7153224577  MEMB      258             0.0000000000
     32031       258  PMPE      O21           -17.5362624789       29.3771389293      -16.9517761633  MEMB      258             0.0000000000
     32032       258  PMPE      C21           -16.5685721162       29.1743073727      -16.0827073670  MEMB      258             0.0000000000
     32033       258  PMPE      O22           -15.7983917098       30.0213185503      -15.6594962250  MEMB      258             0.0000000000
     32034       258  PMPE      C22           -16.3969508499       27.6731565149      -15.8716608818  MEMB      258             0.0000000000
     32035       258  PMPE      H2R           -15.5315694050       27.4143774139      -16.5304263717  MEMB      258             0.0000000000
     32036       258  PMPE      H2S           -17.2988475439       27.1054612455      -16.1749449163  MEMB      258             0.0000000000
     32037       258  PMPE      C3            -18.3869636594       31.6537313782      -16.4273260094  MEMB      258             0.0000000000
     32038       258  PMPE      HX            -18.2899926738       32.6474726588      -16.9438220604  MEMB      258             0.0000000000
     32039       258  PMPE      HY            -17.8140960295       31.7106810254      -15.4730736217  MEMB      258             0.0000000000
     32040       258  PMPE      O31           -19.7934738051       31.3877968308      -16.1986086081  MEMB      258             0.0000000000
     32041       258  PMPE      C31           -20.1660523051       30.3926633238      -15.4069640029  MEMB      258             0.0000000000
     32042       258  PMPE      O32           -19.4340823988       29.6471175836      -14.7857286026  MEMB      258             0.0000000000
     32043       258  PMPE      C32           -21.6966848837       30.2803004499      -15.3864094652  MEMB      258             0.0000000000
     32044       258  PMPE      H2X           -22.0088628175       30.3915770751      -16.4453557426  MEMB      258             0.0000000000
     32045       258  PMPE      H2Y           -22.1869232244       31.1153741003      -14.8360168319  MEMB      258             0.0000000000
     32046       258  PMPE      C23           -16.0373065359       27.3501301599      -14.4051710499  MEMB      258             0.0000000000
     32047       258  PMPE      H3R           -15.2831301738       28.0875250593      -14.0337727456  MEMB      258             0.0000000000
     32048       258  PMPE      H3S           -15.5461647834       26.3507673991      -14.4165094021  MEMB      258             0.0000000000
     32049       258  PMPE      C24           -17.2490925249       27.3192672017      -13.4443474774  MEMB      258             0.0000000000
     32050       258  PMPE      H4R           -17.8815407411       26.4234937668      -13.6154669937  MEMB      258             0.0000000000
     32051       258  PMPE      H4S           -17.9212150246       28.1829153700      -13.6024144448  MEMB      258             0.0000000000
     32052       258  PMPE      C25           -16.8295585647       27.4394118237      -11.9701949003  MEMB      258             0.0000000000
     32053       258  PMPE      H5R           -16.2175637626       28.3766705200      -11.8863821269  MEMB      258             0.0000000000
     32054       258  PMPE      H5S           -16.1385929448       26.5775051943      -11.8344483661  MEMB      258             0.0000000000
     32055       258  PMPE      C26           -18.0613688498       27.4095929381      -11.0151405265  MEMB      258             0.0000000000
     32056       258  PMPE      H6R           -18.4204904672       26.3807456314      -10.8342186672  MEMB      258             0.0000000000
     32057       258  PMPE      H6S           -18.9456450591       27.9257663460      -11.4584527092  MEMB      258             0.0000000000
     32058       258  PMPE      C27           -17.9203604963       28.0422554698       -9.6257956572  MEMB      258             0.0000000000
     32059       258  PMPE      H7R           -18.9336548321       27.9998658477       -9.1425258844  MEMB      258             0.0000000000
     32060       258  PMPE      H7S           -17.7515424579       29.1175513884       -9.7981358838  MEMB      258             0.0000000000
     32061       258  PMPE      C28           -16.8135644189       27.4748374355       -8.7136442204  MEMB      258             0.0000000000
     32062       258  PMPE      H8R           -15.7751410124       27.6086820647       -9.1029677689  MEMB      258             0.0000000000
     32063       258  PMPE      H8S           -16.9703046299       26.3816375151       -8.5757731703  MEMB      258             0.0000000000
     32064       258  PMPE      C29           -16.9341058621       28.2117291527       -7.3888505742  MEMB      258             0.0000000000
     32065       258  PMPE      H9R           -17.9528750586       28.4471952525       -7.0237841327  MEMB      258             0.0000000000
     32066       258  PMPE      C217          -15.8829271108       29.3021678072       -7.1947722752  MEMB      258             0.0000000000
     32067       258  PMPE      H17R          -16.2724208417       30.1860438364       -6.7324492376  MEMB      258             0.0000000000
     32068       258  PMPE      H17S          -15.0242223002       29.3320701065       -7.8483230341  MEMB      258             0.0000000000
     32069       258  PMPE      C210          -15.8721593259       28.0328398577       -6.3435754684  MEMB      258             0.0000000000
     32070       258  PMPE      H10R          -16.1416013302       28.2396298110       -5.2881010608  MEMB      258             0.0000000000
     32071       258  PMPE      C211          -14.6378581283       27.1904953964       -6.7102276434  MEMB      258             0.0000000000
     32072       258  PMPE      H11R          -13.9383335573       27.8098857894       -7.2724202448  MEMB      258             0.0000000000
     32073       258  PMPE      H11S          -14.9130180163       26.3014150039       -7.3268102425  MEMB      258             0.0000000000
     32074       258  PMPE      C212          -13.8800214924       26.7313431640       -5.4921905301  MEMB      258             0.0000000000
     32075       258  PMPE      H12R          -13.5416970021       27.5621374438       -4.8868772005  MEMB      258             0.0000000000
     32076       258  PMPE      H12S          -13.0067571347       26.0475116899       -5.6931018576  MEMB      258             0.0000000000
     32077       258  PMPE      C213          -14.8733087429       25.9611874900       -4.8077152574  MEMB      258             0.0000000000
     32078       258  PMPE      H13R          -14.6864718710       25.2473957971       -5.6863324821  MEMB      258             0.0000000000
     32079       258  PMPE      H13S          -15.9427184034       26.0080211526       -5.0164186778  MEMB      258             0.0000000000
     32080       258  PMPE      C214          -14.6010267944       25.8331253066       -3.2501951046  MEMB      258             0.0000000000
     32081       258  PMPE      H14R          -14.6734776130       26.8119075539       -2.8585719658  MEMB      258             0.0000000000
     32082       258  PMPE      H14S          -13.5590096765       25.5451608432       -2.9779170061  MEMB      258             0.0000000000
     32083       258  PMPE      C215          -15.6355106147       25.3007653075       -2.2182639497  MEMB      258             0.0000000000
     32084       258  PMPE      H15R          -16.6420009249       25.4641265997       -2.6449626525  MEMB      258             0.0000000000
     32085       258  PMPE      H15S          -15.3303082555       24.8587260179       -1.2347631580  MEMB      258             0.0000000000
     32086       258  PMPE      C216          -16.2192503856       24.2224683448       -2.6117395306  MEMB      258             0.0000000000
     32087       258  PMPE      H16R          -15.1744624004       23.8545511052       -2.5532087072  MEMB      258             0.0000000000
     32088       258  PMPE      H16S          -16.7427503887       23.1490227438       -2.3273804977  MEMB      258             0.0000000000
     32089       258  PMPE      H16T          -16.3007442145       24.4709131339       -3.9626066234  MEMB      258             0.0000000000
     32090       258  PMPE      C33           -22.1356546433       28.9325025638      -14.7164203120  MEMB      258             0.0000000000
     32091       258  PMPE      H3X           -21.5467706611       28.0697191518      -15.1001907996  MEMB      258             0.0000000000
     32092       258  PMPE      H3Y           -23.2099774656       28.7623241045      -14.9380774871  MEMB      258             0.0000000000
     32093       258  PMPE      C34           -21.9531016783       28.9501796429      -13.1706043813  MEMB      258             0.0000000000
     32094       258  PMPE      H4X           -22.1807321145       29.9796856216      -12.8451111220  MEMB      258             0.0000000000
     32095       258  PMPE      H4Y           -20.8920280847       28.7365449249      -12.9261192641  MEMB      258             0.0000000000
     32096       258  PMPE      C35           -22.8074866482       28.0696173579      -12.2301138336  MEMB      258             0.0000000000
     32097       258  PMPE      H5X           -22.8470811789       27.0554143533      -12.6427107528  MEMB      258             0.0000000000
     32098       258  PMPE      H5Y           -23.8198414145       28.4484604336      -12.2503469071  MEMB      258             0.0000000000
     32099       258  PMPE      C36           -22.3016856751       28.0863785955      -10.7524619619  MEMB      258             0.0000000000
     32100       258  PMPE      H6X           -22.2508085226       29.1324620289      -10.3847881703  MEMB      258             0.0000000000
     32101       258  PMPE      H6Y           -21.2673980374       27.6867648665      -10.7723524531  MEMB      258             0.0000000000
     32102       258  PMPE      C37           -23.0933133827       27.2747614148       -9.6972955481  MEMB      258             0.0000000000
     32103       258  PMPE      H7X           -23.0114648739       26.2026522771       -9.9414823913  MEMB      258             0.0000000000
     32104       258  PMPE      H7Y           -24.1616835455       27.5695254042       -9.7052984378  MEMB      258             0.0000000000
     32105       258  PMPE      C38           -22.6734887931       27.4009146056       -8.2233926720  MEMB      258             0.0000000000
     32106       258  PMPE      H8X           -23.5369314752       27.0600678799       -7.6024418810  MEMB      258             0.0000000000
     32107       258  PMPE      H8Y           -22.4420024110       28.4545416418       -7.9635883328  MEMB      258             0.0000000000
     32108       258  PMPE      C39           -21.5441527167       26.4700737375       -7.8217651717  MEMB      258             0.0000000000
     32109       258  PMPE      H9X           -20.7047750215       26.5733244561       -8.5502914257  MEMB      258             0.0000000000
     32110       258  PMPE      H9Y           -21.9190219132       25.4182067105       -7.7997041719  MEMB      258             0.0000000000
     32111       258  PMPE      C310          -20.9658545181       26.8429988023       -6.4596662096  MEMB      258             0.0000000000
     32112       258  PMPE      H10X          -20.6190799495       27.9054682274       -6.4853840200  MEMB      258             0.0000000000
     32113       258  PMPE      H10Y          -20.0852503710       26.1877771795       -6.3628434065  MEMB      258             0.0000000000
     32114       258  PMPE      C311          -21.8222031275       26.5190164151       -5.2298947226  MEMB      258             0.0000000000
     32115       258  PMPE      H11X          -21.9179786981       25.4243661282       -5.0532424692  MEMB      258             0.0000000000
     32116       258  PMPE      H11Y          -22.8493026421       26.8838716250       -5.4266780128  MEMB      258             0.0000000000
     32117       258  PMPE      C312          -21.2347510464       27.1534909837       -3.9553111949  MEMB      258             0.0000000000
     32118       258  PMPE      H12X          -21.4731167467       28.2269268814       -4.0600688720  MEMB      258             0.0000000000
     32119       258  PMPE      H12Y          -20.1301653625       27.0040012622       -3.9135810080  MEMB      258             0.0000000000
     32120       258  PMPE      C313          -21.8644229058       26.5582604399       -2.7010284236  MEMB      258             0.0000000000
     32121       258  PMPE      H13X          -21.8050749835       25.4988987190       -2.9673161087  MEMB      258             0.0000000000
     32122       258  PMPE      H13Y          -22.9242950187       26.8821186562       -2.6591129388  MEMB      258             0.0000000000
     32123       258  PMPE      C314          -21.2392680032       26.8779409021       -1.3327884139  MEMB      258             0.0000000000
     32124       258  PMPE      H14X          -21.9101479278       26.5070107866       -0.5295497161  MEMB      258             0.0000000000
     32125       258  PMPE      H14Y          -21.1373517485       27.9807230673       -1.2321378588  MEMB      258             0.0000000000
     32126       258  PMPE      C315          -19.8848787036       26.2510931966       -1.0437534349  MEMB      258             0.0000000000
     32127       258  PMPE      H15X          -19.2503840317       26.6332188786       -1.8740865200  MEMB      258             0.0000000000
     32128       258  PMPE      H15Y          -19.9549513330       25.1305243308       -1.0477077218  MEMB      258             0.0000000000
     32129       258  PMPE      C316          -19.2936523860       26.7386623188        0.2818873050  MEMB      258             0.0000000000
     32130       258  PMPE      H16X          -18.4218086486       26.1234718772        0.5246332786  MEMB      258             0.0000000000
     32131       258  PMPE      H16Y          -19.9839803124       26.6186165281        1.1385035214  MEMB      258             0.0000000000
     32132       258  PMPE      H16Z          -19.0071686423       27.8130760035        0.2135773716  MEMB      258             0.0000000000
     32133       259  PMPE      N             -12.7020404983      -29.1010023520      -19.6129441421  MEMB      259             0.0000000000
     32134       259  PMPE      HN1           -11.6947041506      -29.1605990358      -19.3847729139  MEMB      259             0.0000000000
     32135       259  PMPE      HN2           -12.9147550062      -28.2853232419      -20.2169139989  MEMB      259             0.0000000000
     32136       259  PMPE      HN3           -13.2612939534      -29.0190908821      -18.7324655885  MEMB      259             0.0000000000
     32137       259  PMPE      C12           -13.0237682568      -30.3177478793      -20.4511171569  MEMB      259             0.0000000000
     32138       259  PMPE      H12A          -12.2760166157      -30.3497626982      -21.2495887032  MEMB      259             0.0000000000
     32139       259  PMPE      H12B          -14.0501497883      -30.1588574520      -20.8497248741  MEMB      259             0.0000000000
     32140       259  PMPE      C11           -12.8965909084      -31.6227486532      -19.6816244262  MEMB      259             0.0000000000
     32141       259  PMPE      H11A          -11.8708675363      -31.7790403960      -19.3044001508  MEMB      259             0.0000000000
     32142       259  PMPE      H11B          -13.0652106507      -32.4493299476      -20.3638171343  MEMB      259             0.0000000000
     32143       259  PMPE      P             -15.0979425520      -32.4198937074      -18.4253986385  MEMB      259             0.0000000000
     32144       259  PMPE      O13           -15.7970843902      -32.4447412703      -19.7114297772  MEMB      259             0.0000000000
     32145       259  PMPE      O14           -15.7927044878      -31.9802259318      -17.2119246959  MEMB      259             0.0000000000
     32146       259  PMPE      O11           -14.3679967786      -33.7957181646      -18.1922903178  MEMB      259             0.0000000000
     32147       259  PMPE      O12           -13.7804690753      -31.5556821228      -18.5855822600  MEMB      259             0.0000000000
     32148       259  PMPE      C1            -13.3474035523      -33.9431810297      -17.2161327612  MEMB      259             0.0000000000
     32149       259  PMPE      HA            -12.9528105480      -32.9931941506      -16.7964349358  MEMB      259             0.0000000000
     32150       259  PMPE      HB            -12.4812317472      -34.4445300849      -17.6891591992  MEMB      259             0.0000000000
     32151       259  PMPE      C2            -13.8211674741      -34.7389065933      -16.0037886977  MEMB      259             0.0000000000
     32152       259  PMPE      HS            -14.0958243810      -35.7553662194      -16.3909868462  MEMB      259             0.0000000000
     32153       259  PMPE      O21           -14.9665049442      -34.1498032981      -15.3923401873  MEMB      259             0.0000000000
     32154       259  PMPE      C21           -15.7067261790      -34.7746623010      -14.5323609518  MEMB      259             0.0000000000
     32155       259  PMPE      O22           -15.8702658129      -35.8890289256      -14.2260643114  MEMB      259             0.0000000000
     32156       259  PMPE      C22           -16.5316942653      -34.0370801315      -13.6588562686  MEMB      259             0.0000000000
     32157       259  PMPE      H2R           -17.2797989547      -34.7524294436      -13.2582578049  MEMB      259             0.0000000000
     32158       259  PMPE      H2S           -16.9884244451      -33.4157681650      -14.4233376740  MEMB      259             0.0000000000
     32159       259  PMPE      C3            -12.6037519105      -34.7545755827      -15.0110676469  MEMB      259             0.0000000000
     32160       259  PMPE      HX            -11.7237741739      -35.1627401600      -15.5476771668  MEMB      259             0.0000000000
     32161       259  PMPE      HY            -12.6761027389      -35.3579086627      -14.1493584284  MEMB      259             0.0000000000
     32162       259  PMPE      O31           -12.4769850342      -33.4902932555      -14.4369697898  MEMB      259             0.0000000000
     32163       259  PMPE      C31           -11.3074629331      -32.9843724530      -14.4307328163  MEMB      259             0.0000000000
     32164       259  PMPE      O32           -10.2725432483      -33.6112470960      -14.5669321502  MEMB      259             0.0000000000
     32165       259  PMPE      C32           -11.5346451891      -31.5310210292      -14.0569435648  MEMB      259             0.0000000000
     32166       259  PMPE      H2X           -12.1104228497      -30.9503514624      -14.8016570841  MEMB      259             0.0000000000
     32167       259  PMPE      H2Y           -10.6260168481      -31.0106917547      -13.9545685214  MEMB      259             0.0000000000
     32168       259  PMPE      C23           -15.6880129844      -33.3684386687      -12.5738492892  MEMB      259             0.0000000000
     32169       259  PMPE      H3R           -16.3140222506      -32.8262221163      -11.8534797920  MEMB      259             0.0000000000
     32170       259  PMPE      H3S           -15.0944166136      -32.6596008625      -13.1785729318  MEMB      259             0.0000000000
     32171       259  PMPE      C24           -14.8728732650      -34.1658077050      -11.5382977010  MEMB      259             0.0000000000
     32172       259  PMPE      H4R           -14.1274858081      -33.6697633237      -10.9029634181  MEMB      259             0.0000000000
     32173       259  PMPE      H4S           -14.0609776583      -34.5910578586      -12.0328750430  MEMB      259             0.0000000000
     32174       259  PMPE      C25           -15.7107486003      -35.0301162840      -10.6076695378  MEMB      259             0.0000000000
     32175       259  PMPE      H5R           -16.2002188266      -35.8024275104      -11.2625974321  MEMB      259             0.0000000000
     32176       259  PMPE      H5S           -16.5442269885      -34.5241968422      -10.1570790815  MEMB      259             0.0000000000
     32177       259  PMPE      C26           -14.9134984730      -35.5460294527       -9.3957777026  MEMB      259             0.0000000000
     32178       259  PMPE      H6R           -13.8484753431      -35.4519962534       -9.8155910313  MEMB      259             0.0000000000
     32179       259  PMPE      H6S           -15.2610097586      -36.4972938423       -9.2273688271  MEMB      259             0.0000000000
     32180       259  PMPE      C27           -14.0455210718      -35.0602908955       -8.3557670886  MEMB      259             0.0000000000
     32181       259  PMPE      H7R           -14.0492091535      -34.0583892318       -8.7399159259  MEMB      259             0.0000000000
     32182       259  PMPE      H7S           -13.0005370367      -35.4163435318       -8.1923568863  MEMB      259             0.0000000000
     32183       259  PMPE      C28           -14.7651615424      -35.1863381192       -7.1653839041  MEMB      259             0.0000000000
     32184       259  PMPE      H8R           -14.3845176339      -36.1716145707       -6.7324964171  MEMB      259             0.0000000000
     32185       259  PMPE      H8S           -15.8792339907      -35.1690006176       -7.4653224836  MEMB      259             0.0000000000
     32186       259  PMPE      C29           -14.5310490437      -34.0765217430       -6.2699410996  MEMB      259             0.0000000000
     32187       259  PMPE      H9R           -14.2040392352      -33.1844022189       -6.7685710306  MEMB      259             0.0000000000
     32188       259  PMPE      C217          -13.6463729270      -34.3347160958       -5.0627140317  MEMB      259             0.0000000000
     32189       259  PMPE      H17R          -13.0763002076      -33.4778290918       -4.8205007564  MEMB      259             0.0000000000
     32190       259  PMPE      H17S          -13.4037139481      -35.3535033807       -4.8228826419  MEMB      259             0.0000000000
     32191       259  PMPE      C210          -15.0638546763      -34.0140471920       -4.8871986986  MEMB      259             0.0000000000
     32192       259  PMPE      H10R          -15.4949201809      -33.0980560443       -4.5418386620  MEMB      259             0.0000000000
     32193       259  PMPE      C211          -15.6997809193      -35.1021653054       -4.4504797558  MEMB      259             0.0000000000
     32194       259  PMPE      H11R          -15.2513207823      -36.0807645086       -4.7999333721  MEMB      259             0.0000000000
     32195       259  PMPE      H11S          -16.4607866024      -34.9093153837       -5.2264036404  MEMB      259             0.0000000000
     32196       259  PMPE      C212          -16.2774976360      -35.1719699016       -2.9969992671  MEMB      259             0.0000000000
     32197       259  PMPE      H12R          -15.5458590997      -35.5695855522       -2.3418275539  MEMB      259             0.0000000000
     32198       259  PMPE      H12S          -16.8573854228      -36.0084923600       -2.5440169188  MEMB      259             0.0000000000
     32199       259  PMPE      C213          -17.2349433983      -34.2182997828       -2.7380959703  MEMB      259             0.0000000000
     32200       259  PMPE      H13R          -16.7202349977      -33.3091686795       -2.9183148554  MEMB      259             0.0000000000
     32201       259  PMPE      H13S          -17.4707664298      -34.4571891540       -1.6212008842  MEMB      259             0.0000000000
     32202       259  PMPE      C214          -18.4192565708      -33.7250642471       -3.6783214328  MEMB      259             0.0000000000
     32203       259  PMPE      H14R          -18.6937452828      -34.4912408116       -3.0767565410  MEMB      259             0.0000000000
     32204       259  PMPE      H14S          -18.3085084282      -34.0840401320       -4.6596113551  MEMB      259             0.0000000000
     32205       259  PMPE      C215          -19.7375715324      -32.7626174973       -3.4322387993  MEMB      259             0.0000000000
     32206       259  PMPE      H15R          -20.5114335743      -32.6834063036       -4.1391331587  MEMB      259             0.0000000000
     32207       259  PMPE      H15S          -18.9269875336      -32.0295091818       -3.4799403608  MEMB      259             0.0000000000
     32208       259  PMPE      C216          -20.8342749324      -32.7131849479       -2.1839578807  MEMB      259             0.0000000000
     32209       259  PMPE      H16R          -20.4063097061      -33.4619778476       -1.3389135005  MEMB      259             0.0000000000
     32210       259  PMPE      H16S          -20.7559078327      -31.7505416609       -1.7204295369  MEMB      259             0.0000000000
     32211       259  PMPE      H16T          -21.3199052739      -33.5383229271       -1.6582954339  MEMB      259             0.0000000000
     32212       259  PMPE      C33           -12.2183188856      -31.4280843131      -12.6790081270  MEMB      259             0.0000000000
     32213       259  PMPE      H3X           -13.2716870935      -31.7289148652      -12.8101049114  MEMB      259             0.0000000000
     32214       259  PMPE      H3Y           -12.2390496925      -30.3673988754      -12.3710714321  MEMB      259             0.0000000000
     32215       259  PMPE      C34           -11.5709944973      -32.2354258850      -11.5380557089  MEMB      259             0.0000000000
     32216       259  PMPE      H4X           -10.4691746754      -32.0900422594      -11.6227022472  MEMB      259             0.0000000000
     32217       259  PMPE      H4Y           -11.8067352455      -33.3070115756      -11.7270173278  MEMB      259             0.0000000000
     32218       259  PMPE      C35           -12.0397942340      -31.8218951300      -10.1237802510  MEMB      259             0.0000000000
     32219       259  PMPE      H5X           -12.1659626181      -32.6769723112       -9.4250862413  MEMB      259             0.0000000000
     32220       259  PMPE      H5Y           -13.0356715246      -31.3330560355      -10.1770662362  MEMB      259             0.0000000000
     32221       259  PMPE      C36           -11.0404068229      -30.9331702763       -9.4340717914  MEMB      259             0.0000000000
     32222       259  PMPE      H6X           -10.8696104307      -30.0281620134      -10.0688104917  MEMB      259             0.0000000000
     32223       259  PMPE      H6Y           -10.0459710692      -31.4380065753       -9.3219283280  MEMB      259             0.0000000000
     32224       259  PMPE      C37           -11.5306247604      -30.5196918586       -8.0624901460  MEMB      259             0.0000000000
     32225       259  PMPE      H7X           -12.5180788834      -30.0111785408       -8.0283707036  MEMB      259             0.0000000000
     32226       259  PMPE      H7Y           -10.6743529925      -29.9225644438       -7.8028540365  MEMB      259             0.0000000000
     32227       259  PMPE      C38           -11.5110552633      -31.5160750669       -6.9384933368  MEMB      259             0.0000000000
     32228       259  PMPE      H8X           -10.5384702303      -32.0462832764       -7.0186143077  MEMB      259             0.0000000000
     32229       259  PMPE      H8Y           -12.3229556597      -32.2042383328       -7.2019048624  MEMB      259             0.0000000000
     32230       259  PMPE      C39           -11.6737645560      -30.9506005620       -5.5105574677  MEMB      259             0.0000000000
     32231       259  PMPE      H9X           -11.0525281152      -30.0394934476       -5.3360862426  MEMB      259             0.0000000000
     32232       259  PMPE      H9Y           -11.2993714718      -31.7698948555       -4.8564941553  MEMB      259             0.0000000000
     32233       259  PMPE      C310          -13.0909711064      -30.6045492499       -5.0626505812  MEMB      259             0.0000000000
     32234       259  PMPE      H10X          -13.8271924137      -31.4224068365       -5.1634240893  MEMB      259             0.0000000000
     32235       259  PMPE      H10Y          -13.4571337170      -29.7483038006       -5.6658532474  MEMB      259             0.0000000000
     32236       259  PMPE      C311          -13.0767489843      -30.2335093102       -3.6280049223  MEMB      259             0.0000000000
     32237       259  PMPE      H11X          -12.4444013513      -29.3535284801       -3.5930227332  MEMB      259             0.0000000000
     32238       259  PMPE      H11Y          -12.5881233484      -30.9854499088       -2.9769061067  MEMB      259             0.0000000000
     32239       259  PMPE      C312          -14.4853187722      -30.0591616777       -3.2418697668  MEMB      259             0.0000000000
     32240       259  PMPE      H12X          -14.9253962951      -30.9642045494       -2.8002548595  MEMB      259             0.0000000000
     32241       259  PMPE      H12Y          -15.1254409479      -29.3296878480       -3.7893427739  MEMB      259             0.0000000000
     32242       259  PMPE      C313          -14.4157157286      -29.3402659387       -2.1833580806  MEMB      259             0.0000000000
     32243       259  PMPE      H13X          -14.1276838226      -28.4274347840       -2.4190242491  MEMB      259             0.0000000000
     32244       259  PMPE      H13Y          -13.4979978867      -29.6993537416       -1.5389066286  MEMB      259             0.0000000000
     32245       259  PMPE      C314          -15.7666911094      -28.6452208436       -1.7973893585  MEMB      259             0.0000000000
     32246       259  PMPE      H14X          -16.1427779735      -29.7000113215       -1.4079804791  MEMB      259             0.0000000000
     32247       259  PMPE      H14Y          -15.8018723519      -27.7548871776       -2.7605430509  MEMB      259             0.0000000000
     32248       259  PMPE      C315          -15.8765689905      -28.3070796903       -0.2452380780  MEMB      259             0.0000000000
     32249       259  PMPE      H15X          -16.7534296828      -27.8648338695       -0.0586686576  MEMB      259             0.0000000000
     32250       259  PMPE      H15Y          -15.8338865687      -27.0961525660       -0.1297029300  MEMB      259             0.0000000000
     32251       259  PMPE      C316          -14.6192755080      -28.9580968165        1.1857819958  MEMB      259             0.0000000000
     32252       259  PMPE      H16X          -14.4559829141      -28.7961523095        2.4091812910  MEMB      259             0.0000000000
     32253       259  PMPE      H16Y          -13.9890516025      -29.1840928800        1.3853351893  MEMB      259             0.0000000000
     32254       259  PMPE      H16Z          -15.7210357993      -29.5083129734        1.0925259960  MEMB      259             0.0000000000
     32255       260  POPE      N              18.4418624127      -27.3356047128      -17.2498477695  MEMB      260             0.0000000000
     32256       260  POPE      HN1            19.2039919031      -27.8109437764      -16.7221819688  MEMB      260             0.0000000000
     32257       260  POPE      HN2            18.0226980767      -26.5867433607      -16.6642329466  MEMB      260             0.0000000000
     32258       260  POPE      HN3            17.7694718931      -28.0465767284      -17.6166843858  MEMB      260             0.0000000000
     32259       260  POPE      C12            18.9370403297      -26.6253664814      -18.4684406500  MEMB      260             0.0000000000
     32260       260  POPE      H12A           19.3309383929      -25.6560035487      -18.1183129501  MEMB      260             0.0000000000
     32261       260  POPE      H12B           18.0248834069      -26.4174879057      -19.0674044307  MEMB      260             0.0000000000
     32262       260  POPE      C11            20.0125829018      -27.4626830853      -19.1748230557  MEMB      260             0.0000000000
     32263       260  POPE      H11A           20.7018379896      -27.8342806492      -18.3787388108  MEMB      260             0.0000000000
     32264       260  POPE      H11B           20.6059151211      -26.8719748180      -19.9156387684  MEMB      260             0.0000000000
     32265       260  POPE      P              19.6787682768      -30.0416221346      -19.5039291390  MEMB      260             0.0000000000
     32266       260  POPE      O13            20.9530308389      -30.5411358840      -20.0397156469  MEMB      260             0.0000000000
     32267       260  POPE      O14            18.4534449553      -30.7889327186      -19.7853447244  MEMB      260             0.0000000000
     32268       260  POPE      O11            19.8285128012      -30.0151992270      -17.9146245406  MEMB      260             0.0000000000
     32269       260  POPE      O12            19.4034714347      -28.5318461954      -19.8616131095  MEMB      260             0.0000000000
     32270       260  POPE      C1             19.7931867255      -31.3344621361      -17.3250662399  MEMB      260             0.0000000000
     32271       260  POPE      HA             20.2337337029      -32.1636934936      -17.9437435296  MEMB      260             0.0000000000
     32272       260  POPE      HB             18.7386083493      -31.6133519760      -17.1323541869  MEMB      260             0.0000000000
     32273       260  POPE      C2             20.5100671063      -31.3385817046      -15.9661087744  MEMB      260             0.0000000000
     32274       260  POPE      HS             20.4590741907      -32.3933073984      -15.5987751770  MEMB      260             0.0000000000
     32275       260  POPE      O21            19.9010143477      -30.3688431214      -15.0832565125  MEMB      260             0.0000000000
     32276       260  POPE      C21            18.8032012180      -30.7648740226      -14.4582446964  MEMB      260             0.0000000000
     32277       260  POPE      O22            18.1992968136      -31.8017343958      -14.6908591884  MEMB      260             0.0000000000
     32278       260  POPE      C22            18.4756742059      -29.7921836869      -13.3118631455  MEMB      260             0.0000000000
     32279       260  POPE      H2R            17.3692211571      -29.7272973773      -13.1979153680  MEMB      260             0.0000000000
     32280       260  POPE      H2S            18.8694046484      -28.7851989976      -13.5686012726  MEMB      260             0.0000000000
     32281       260  POPE      C3             22.0190006024      -31.0243453040      -16.0879389622  MEMB      260             0.0000000000
     32282       260  POPE      HX             22.1245431822      -30.3929091206      -16.9935073745  MEMB      260             0.0000000000
     32283       260  POPE      HY             22.5850314275      -31.9367644445      -16.2304627438  MEMB      260             0.0000000000
     32284       260  POPE      O31            22.5431514942      -30.3543785269      -14.9461363944  MEMB      260             0.0000000000
     32285       260  POPE      C31            22.6720629908      -31.0993298874      -13.8418590988  MEMB      260             0.0000000000
     32286       260  POPE      O32            22.5413946980      -32.3065768265      -13.8215352992  MEMB      260             0.0000000000
     32287       260  POPE      C32            23.0813945156      -30.3193715773      -12.6149820274  MEMB      260             0.0000000000
     32288       260  POPE      H2X            22.5221917680      -30.7033360617      -11.7862641308  MEMB      260             0.0000000000
     32289       260  POPE      H2Y            22.6731418766      -29.2820631913      -12.6083743642  MEMB      260             0.0000000000
     32290       260  POPE      C23            19.1047703096      -30.4278235875      -12.0483791070  MEMB      260             0.0000000000
     32291       260  POPE      H3R            20.1606586122      -30.7290471819      -12.2379278982  MEMB      260             0.0000000000
     32292       260  POPE      H3S            18.5526537304      -31.3792072605      -11.8822427171  MEMB      260             0.0000000000
     32293       260  POPE      C24            19.0899448532      -29.6110103090      -10.7519631537  MEMB      260             0.0000000000
     32294       260  POPE      H4R            19.5644026770      -30.2659012107       -9.9866271636  MEMB      260             0.0000000000
     32295       260  POPE      H4S            18.0372362247      -29.4985928439      -10.4208731149  MEMB      260             0.0000000000
     32296       260  POPE      C25            19.9036110835      -28.3037588172      -10.8553430192  MEMB      260             0.0000000000
     32297       260  POPE      H5R            19.3770276579      -27.5915684199      -11.5311355948  MEMB      260             0.0000000000
     32298       260  POPE      H5S            20.8722966151      -28.5780064874      -11.3413140032  MEMB      260             0.0000000000
     32299       260  POPE      C26            20.2510396565      -27.6701417023       -9.4944822359  MEMB      260             0.0000000000
     32300       260  POPE      H6R            20.8864413186      -26.7666216890       -9.6074804613  MEMB      260             0.0000000000
     32301       260  POPE      H6S            20.9171238862      -28.3718196889       -8.9580671989  MEMB      260             0.0000000000
     32302       260  POPE      C27            19.0407173387      -27.4490363891       -8.5797333936  MEMB      260             0.0000000000
     32303       260  POPE      H7R            19.3849613568      -27.3283544144       -7.5267318126  MEMB      260             0.0000000000
     32304       260  POPE      H7S            18.4180044161      -28.3649391668       -8.5487019432  MEMB      260             0.0000000000
     32305       260  POPE      C28            18.1556900089      -26.2450949292       -8.9902365262  MEMB      260             0.0000000000
     32306       260  POPE      H8R            17.4032500487      -26.1476236638       -8.1791430958  MEMB      260             0.0000000000
     32307       260  POPE      H8S            17.6176870225      -26.4807932194       -9.9069148171  MEMB      260             0.0000000000
     32308       260  POPE      C29            18.7899635011      -24.9412546381       -9.3175016155  MEMB      260             0.0000000000
     32309       260  POPE      H91            18.7881369674      -24.5368136420      -10.3171417597  MEMB      260             0.0000000000
     32310       260  POPE      C210           19.6275362975      -24.4124436274       -8.5053703325  MEMB      260             0.0000000000
     32311       260  POPE      H101           20.0920056732      -23.4225770515       -8.6653843050  MEMB      260             0.0000000000
     32312       260  POPE      C211           19.9419410813      -25.0835784907       -7.2567782118  MEMB      260             0.0000000000
     32313       260  POPE      H11R           19.1326932083      -25.6130871597       -6.7592432244  MEMB      260             0.0000000000
     32314       260  POPE      H11S           19.9052517535      -24.3946245277       -6.6477775769  MEMB      260             0.0000000000
     32315       260  POPE      C212           21.3737821498      -24.9978690492       -6.7627132926  MEMB      260             0.0000000000
     32316       260  POPE      H12R           21.7120968608      -23.9119570553       -6.9089078604  MEMB      260             0.0000000000
     32317       260  POPE      H12S           21.7021652255      -25.7297297400       -7.4242322553  MEMB      260             0.0000000000
     32318       260  POPE      C213           21.8697737456      -25.6644489637       -5.4489249220  MEMB      260             0.0000000000
     32319       260  POPE      H13R           21.2150555704      -26.4123448758       -5.0247353171  MEMB      260             0.0000000000
     32320       260  POPE      H13S           21.6245758550      -25.2106493023       -4.6043458410  MEMB      260             0.0000000000
     32321       260  POPE      C214           23.2044491485      -25.1414562444       -4.8961044837  MEMB      260             0.0000000000
     32322       260  POPE      H14R           23.3979590387      -24.0945290189       -5.2485672848  MEMB      260             0.0000000000
     32323       260  POPE      H14S           23.7314490608      -26.0082991398       -5.1363342112  MEMB      260             0.0000000000
     32324       260  POPE      C215           23.6455322862      -25.3220116299       -3.4763630149  MEMB      260             0.0000000000
     32325       260  POPE      H15R           23.3241920757      -26.0941501957       -2.7408205675  MEMB      260             0.0000000000
     32326       260  POPE      H15S           22.8763826035      -24.5693300241       -3.6074219411  MEMB      260             0.0000000000
     32327       260  POPE      C216           24.8299991892      -24.7581127853       -2.7061904742  MEMB      260             0.0000000000
     32328       260  POPE      H16R           24.9952907515      -23.6901159476       -2.8842022311  MEMB      260             0.0000000000
     32329       260  POPE      H16S           25.4256998031      -25.3725032540       -3.3517063693  MEMB      260             0.0000000000
     32330       260  POPE      C217           24.9125581764      -25.1537260442       -1.1502159849  MEMB      260             0.0000000000
     32331       260  POPE      H17R           24.3544279782      -26.1330264708       -0.9540620122  MEMB      260             0.0000000000
     32332       260  POPE      H17S           24.3817185277      -24.4774467836       -0.4448672909  MEMB      260             0.0000000000
     32333       260  POPE      C218           26.2159694210      -24.9300947752       -0.5491999647  MEMB      260             0.0000000000
     32334       260  POPE      H18R           26.7752112060      -24.2115687067       -1.1497982639  MEMB      260             0.0000000000
     32335       260  POPE      H18S           26.9080411054      -25.6615044324       -0.6835169276  MEMB      260             0.0000000000
     32336       260  POPE      H18T           26.3022680494      -25.1166206626        0.5074046935  MEMB      260             0.0000000000
     32337       260  POPE      C33            24.6557705458      -30.4089692481      -12.5942468552  MEMB      260             0.0000000000
     32338       260  POPE      H3X            25.1198950591      -29.9422947515      -13.4944813529  MEMB      260             0.0000000000
     32339       260  POPE      H3Y            25.1150924432      -31.3417338297      -12.5547844894  MEMB      260             0.0000000000
     32340       260  POPE      C34            25.4364765747      -29.7522589857      -11.5903614041  MEMB      260             0.0000000000
     32341       260  POPE      H4X            24.7823968325      -29.0144342517      -12.1036241344  MEMB      260             0.0000000000
     32342       260  POPE      H4Y            26.4101864929      -29.2401402955      -11.7479625992  MEMB      260             0.0000000000
     32343       260  POPE      C35            25.1819968059      -30.2738451224      -10.1580567178  MEMB      260             0.0000000000
     32344       260  POPE      H5X            26.0205857813      -30.0073902827       -9.4910135416  MEMB      260             0.0000000000
     32345       260  POPE      H5Y            25.5373194661      -31.2589716029      -10.2397164405  MEMB      260             0.0000000000
     32346       260  POPE      C36            23.7348890654      -30.2577221636       -9.4336211749  MEMB      260             0.0000000000
     32347       260  POPE      H6X            23.0187147526      -30.8560576350       -9.9182222022  MEMB      260             0.0000000000
     32348       260  POPE      H6Y            23.3045889958      -29.2205218711       -9.2486972776  MEMB      260             0.0000000000
     32349       260  POPE      C37            23.7455047929      -30.7373993036       -8.0198534863  MEMB      260             0.0000000000
     32350       260  POPE      H7X            24.2014497677      -29.8962136695       -7.5400735125  MEMB      260             0.0000000000
     32351       260  POPE      H7Y            24.2748979664      -31.6905514972       -7.9489359496  MEMB      260             0.0000000000
     32352       260  POPE      C38            22.5609164647      -30.7130398820       -7.1035373028  MEMB      260             0.0000000000
     32353       260  POPE      H8X            22.2164338907      -29.6644687092       -7.0438997891  MEMB      260             0.0000000000
     32354       260  POPE      H8Y            22.9076777366      -30.9942244370       -6.0677024385  MEMB      260             0.0000000000
     32355       260  POPE      C39            21.4994825325      -31.6405918369       -7.6116746961  MEMB      260             0.0000000000
     32356       260  POPE      H9X            21.8457142835      -32.6303218285       -7.2992098986  MEMB      260             0.0000000000
     32357       260  POPE      H9Y            21.4112332047      -31.6339403286       -8.7246359822  MEMB      260             0.0000000000
     32358       260  POPE      C310           20.1152103766      -31.3669462244       -7.0308210509  MEMB      260             0.0000000000
     32359       260  POPE      H10X           19.3563205479      -32.0775608667       -7.4419919955  MEMB      260             0.0000000000
     32360       260  POPE      H10Y           19.8370829405      -30.3300225424       -7.3122955189  MEMB      260             0.0000000000
     32361       260  POPE      C311           19.9924004027      -31.4390559420       -5.5010826431  MEMB      260             0.0000000000
     32362       260  POPE      H11X           20.5465847160      -32.3350736233       -5.1527965523  MEMB      260             0.0000000000
     32363       260  POPE      H11Y           18.9105697787      -31.6097837407       -5.3083047755  MEMB      260             0.0000000000
     32364       260  POPE      C312           20.3161217632      -30.0929380448       -4.8121349918  MEMB      260             0.0000000000
     32365       260  POPE      H12X           19.6482328409      -29.3327830111       -5.2998940676  MEMB      260             0.0000000000
     32366       260  POPE      H12Y           21.3749741004      -29.8332957215       -5.0018441097  MEMB      260             0.0000000000
     32367       260  POPE      C313           20.0941972362      -29.9808577756       -3.2884756919  MEMB      260             0.0000000000
     32368       260  POPE      H13X           18.9874064911      -29.8995349427       -3.1826984892  MEMB      260             0.0000000000
     32369       260  POPE      H13Y           20.5506026384      -29.0450215492       -2.8902801843  MEMB      260             0.0000000000
     32370       260  POPE      C314           20.6242786452      -31.1665628503       -2.4695457113  MEMB      260             0.0000000000
     32371       260  POPE      H14X           21.6240294060      -31.5173523992       -2.8076891822  MEMB      260             0.0000000000
     32372       260  POPE      H14Y           19.8487473708      -31.9274901172       -2.6686511182  MEMB      260             0.0000000000
     32373       260  POPE      C315           20.7647244396      -30.8892651696       -0.9932371691  MEMB      260             0.0000000000
     32374       260  POPE      H15X           19.7946832920      -30.6643101368       -0.5698292300  MEMB      260             0.0000000000
     32375       260  POPE      H15Y           21.3612501057      -30.0131675911       -0.7722102625  MEMB      260             0.0000000000
     32376       260  POPE      C316           21.5659043257      -31.8214914487       -0.1849564136  MEMB      260             0.0000000000
     32377       260  POPE      H16X           22.4358279203      -32.3967211404       -0.4520258892  MEMB      260             0.0000000000
     32378       260  POPE      H16Y           21.0288941462      -32.5928608128       -0.0658030726  MEMB      260             0.0000000000
     32379       260  POPE      H16Z           21.5931551410      -31.4639449617        0.8256160968  MEMB      260             0.0000000000
     32380       261  PYPG      C13            13.1112072173       32.8586279350      -20.7906800802  MEMB      261             0.0000000000
     32381       261  PYPG      H13A           12.5571167858       31.9410560477      -20.5021348406  MEMB      261             0.0000000000
     32382       261  PYPG      H13B           12.9254225815       33.5891328191      -19.9671188010  MEMB      261             0.0000000000
     32383       261  PYPG      OC3            12.6587521829       33.3368171466      -22.0825760430  MEMB      261             0.0000000000
     32384       261  PYPG      HO3            12.0496805044       34.0505706127      -21.9183936439  MEMB      261             0.0000000000
     32385       261  PYPG      C12            14.6456716709       32.5606675825      -20.7735817530  MEMB      261             0.0000000000
     32386       261  PYPG      H12A           15.1751267888       33.5215673825      -20.9337881713  MEMB      261             0.0000000000
     32387       261  PYPG      OC2            14.9929922717       31.6698335212      -21.8259887382  MEMB      261             0.0000000000
     32388       261  PYPG      HO2            15.9042533805       31.4363298585      -21.6377536826  MEMB      261             0.0000000000
     32389       261  PYPG      C11            15.2412120628       31.9792078228      -19.4640715197  MEMB      261             0.0000000000
     32390       261  PYPG      H11A           16.3363442945       31.8148487464      -19.6288834316  MEMB      261             0.0000000000
     32391       261  PYPG      H11B           14.7327920140       30.9956449532      -19.2889465418  MEMB      261             0.0000000000
     32392       261  PYPG      P              15.6420704610       32.4950337778      -16.9441547660  MEMB      261             0.0000000000
     32393       261  PYPG      O13            15.3474220249       33.5330275439      -15.9430170943  MEMB      261             0.0000000000
     32394       261  PYPG      O14            17.0471475130       32.0535248412      -17.0608565077  MEMB      261             0.0000000000
     32395       261  PYPG      O11            14.7494492127       31.1960773102      -16.7336728917  MEMB      261             0.0000000000
     32396       261  PYPG      O12            15.0889794830       32.9040932890      -18.3806042393  MEMB      261             0.0000000000
     32397       261  PYPG      C1             14.6623320779       30.5895987496      -15.4532764750  MEMB      261             0.0000000000
     32398       261  PYPG      HA             15.4426442566       30.9184784721      -14.7334330587  MEMB      261             0.0000000000
     32399       261  PYPG      HB             14.7777198441       29.5196452941      -15.6157573293  MEMB      261             0.0000000000
     32400       261  PYPG      C2             13.4068406650       30.9115393195      -14.7367557546  MEMB      261             0.0000000000
     32401       261  PYPG      HS             12.5873674047       30.3901328215      -15.4168071417  MEMB      261             0.0000000000
     32402       261  PYPG      O21            13.5314734510       32.4061094264      -14.4824240173  MEMB      261             0.0000000000
     32403       261  PYPG      C21            12.4567240232       32.6162571484      -14.1342110715  MEMB      261             0.0000000000
     32404       261  PYPG      O22            11.6533331653       31.9094942380      -14.8205574203  MEMB      261             0.0000000000
     32405       261  PYPG      C22            12.1835223743       34.1821987267      -13.1568135536  MEMB      261             0.0000000000
     32406       261  PYPG      H2R            12.3704336660       35.0443464579      -13.6345800007  MEMB      261             0.0000000000
     32407       261  PYPG      H2S            13.0165085268       34.3265414928      -12.6115590328  MEMB      261             0.0000000000
     32408       261  PYPG      C3             13.2263876612       30.2391444393      -13.3528743840  MEMB      261             0.0000000000
     32409       261  PYPG      HX             13.2860358363       29.1513079294      -13.4391304163  MEMB      261             0.0000000000
     32410       261  PYPG      HY             12.2243775187       30.4717591250      -12.9160360075  MEMB      261             0.0000000000
     32411       261  PYPG      O31            14.3620036296       30.6260476292      -12.5745448688  MEMB      261             0.0000000000
     32412       261  PYPG      C31            14.3119538111       31.6486388468      -11.7992106252  MEMB      261             0.0000000000
     32413       261  PYPG      O32            13.5012956431       32.4433003989      -11.6305349506  MEMB      261             0.0000000000
     32414       261  PYPG      C32            15.4176835715       32.1084272615      -11.0581944909  MEMB      261             0.0000000000
     32415       261  PYPG      H2X            15.0797306203       32.2084607379       -9.9917044349  MEMB      261             0.0000000000
     32416       261  PYPG      H2Y            16.1887788257       31.4012525389      -11.2671661625  MEMB      261             0.0000000000
     32417       261  PYPG      C23            10.7124353972       34.7689120385      -12.2273601959  MEMB      261             0.0000000000
     32418       261  PYPG      H3R            10.3356881599       33.9735749702      -11.8477397306  MEMB      261             0.0000000000
     32419       261  PYPG      H3S             9.6574925942       35.1039241644      -12.6648963684  MEMB      261             0.0000000000
     32420       261  PYPG      C24            10.4780846950       35.9973504712      -11.7269499620  MEMB      261             0.0000000000
     32421       261  PYPG      H4R             9.5478211980       36.1743130784      -11.3101372746  MEMB      261             0.0000000000
     32422       261  PYPG      H4S            10.9254051092       36.7669087610      -12.4744592933  MEMB      261             0.0000000000
     32423       261  PYPG      C25            11.1964709475       35.6764415243      -10.3472163723  MEMB      261             0.0000000000
     32424       261  PYPG      H5R            10.9450021473       36.8769498956      -10.2613497671  MEMB      261             0.0000000000
     32425       261  PYPG      H5S            12.7867311275       35.0435859246      -10.7181737950  MEMB      261             0.0000000000
     32426       261  PYPG      C26            11.4979832239       34.6932190887       -9.1753865579  MEMB      261             0.0000000000
     32427       261  PYPG      H6R            11.7200595398       34.3372350147       -9.9955102114  MEMB      261             0.0000000000
     32428       261  PYPG      H6S            10.7033831036       35.0201720669       -8.9405000762  MEMB      261             0.0000000000
     32429       261  PYPG      C27            12.4381952580       34.5038509223       -7.8771025094  MEMB      261             0.0000000000
     32430       261  PYPG      H7R            12.4818609268       35.4360985127       -7.2892886845  MEMB      261             0.0000000000
     32431       261  PYPG      H7S            13.6256044152       34.5358096890       -7.8965456742  MEMB      261             0.0000000000
     32432       261  PYPG      C28            12.2969082240       33.8059257605       -6.9271330909  MEMB      261             0.0000000000
     32433       261  PYPG      H8R            13.2953592422       33.7255154159       -6.5283797561  MEMB      261             0.0000000000
     32434       261  PYPG      H8S            12.4014279804       32.8623527397       -7.2013682185  MEMB      261             0.0000000000
     32435       261  PYPG      C29            11.2205153396       34.2818689276       -6.0699876136  MEMB      261             0.0000000000
     32436       261  PYPG      H9R            10.2768233215       34.5063987670       -6.3745419508  MEMB      261             0.0000000000
     32437       261  PYPG      C210           11.2114849487       34.2219656085       -4.8599971746  MEMB      261             0.0000000000
     32438       261  PYPG      H10R           10.1818095403       34.3003287258       -4.4502268652  MEMB      261             0.0000000000
     32439       261  PYPG      C211           12.3305521052       33.6989010859       -4.0715072236  MEMB      261             0.0000000000
     32440       261  PYPG      H11R           12.9140125564       32.8566383655       -4.4687387028  MEMB      261             0.0000000000
     32441       261  PYPG      H11S           11.9155211806       33.4584054862       -3.0986837992  MEMB      261             0.0000000000
     32442       261  PYPG      C212           13.4762584414       34.6935399301       -3.9425965320  MEMB      261             0.0000000000
     32443       261  PYPG      H12R           13.7524161767       35.2502902149       -4.8733447302  MEMB      261             0.0000000000
     32444       261  PYPG      H12S           14.2979775647       34.4010327960       -3.3135598572  MEMB      261             0.0000000000
     32445       261  PYPG      C213           13.2487021521       35.7955541042       -3.1290642653  MEMB      261             0.0000000000
     32446       261  PYPG      H13R           12.3087136993       35.8651212259       -3.7271726340  MEMB      261             0.0000000000
     32447       261  PYPG      H13S           13.8816998776       36.6738268288       -3.4689892404  MEMB      261             0.0000000000
     32448       261  PYPG      C214           13.0926753487       35.6769188559       -1.5809102543  MEMB      261             0.0000000000
     32449       261  PYPG      H14R           12.1865274889       35.1619308366       -1.3582491104  MEMB      261             0.0000000000
     32450       261  PYPG      H14S           14.0451673982       35.6767137758       -1.1166941346  MEMB      261             0.0000000000
     32451       261  PYPG      C215           12.5347867189       36.6189326926       -0.4892045824  MEMB      261             0.0000000000
     32452       261  PYPG      H15R           12.7806687010       37.3571836836       -1.1438884241  MEMB      261             0.0000000000
     32453       261  PYPG      H15S           13.2784571958       37.3550244642       -0.1214134454  MEMB      261             0.0000000000
     32454       261  PYPG      C216           10.9350351334       36.6415331596        0.0549278348  MEMB      261             0.0000000000
     32455       261  PYPG      H16R           10.1713333649       37.5530285619        0.3049528321  MEMB      261             0.0000000000
     32456       261  PYPG      H16S           11.0754766165       36.7648383255        1.0802239658  MEMB      261             0.0000000000
     32457       261  PYPG      H16T           10.1684094071       36.4750405935       -0.7198654423  MEMB      261             0.0000000000
     32458       261  PYPG      C33            15.7859127411       33.4554993773      -11.6972694582  MEMB      261             0.0000000000
     32459       261  PYPG      H3X            14.9837617493       34.2149730476      -11.6062601780  MEMB      261             0.0000000000
     32460       261  PYPG      H3Y            16.0290942619       33.2390147692      -12.7544110250  MEMB      261             0.0000000000
     32461       261  PYPG      C34            16.9979563819       34.0021299583      -11.0699277366  MEMB      261             0.0000000000
     32462       261  PYPG      H4X            17.4852861098       34.7705164049      -11.7082763178  MEMB      261             0.0000000000
     32463       261  PYPG      H4Y            17.6941340603       33.1366677167      -11.0266879620  MEMB      261             0.0000000000
     32464       261  PYPG      C35            16.4815018768       34.3866745167       -9.6751914733  MEMB      261             0.0000000000
     32465       261  PYPG      H5X            16.3159379542       33.5203093111       -8.9884024332  MEMB      261             0.0000000000
     32466       261  PYPG      H5Y            15.8513236331       35.2641771336       -9.6094482258  MEMB      261             0.0000000000
     32467       261  PYPG      C36            17.2624475442       35.1679735645       -8.9244260717  MEMB      261             0.0000000000
     32468       261  PYPG      H6X            17.4447109521       36.1632902094       -9.4834744941  MEMB      261             0.0000000000
     32469       261  PYPG      H6Y            17.8440452381       34.1146537576       -9.1981226303  MEMB      261             0.0000000000
     32470       261  PYPG      C37            17.4615742170       35.4884018128       -7.4074713035  MEMB      261             0.0000000000
     32471       261  PYPG      H7X            18.2397320042       36.3559072132       -7.3308250349  MEMB      261             0.0000000000
     32472       261  PYPG      H7Y            16.5782600939       35.9886895423       -7.2100875377  MEMB      261             0.0000000000
     32473       261  PYPG      C38            17.8110972614       34.2379274218       -6.4899213600  MEMB      261             0.0000000000
     32474       261  PYPG      H8X            18.8567317879       34.2490085035       -5.9832332657  MEMB      261             0.0000000000
     32475       261  PYPG      H8Y            17.7527110494       33.3163201460       -7.1250091943  MEMB      261             0.0000000000
     32476       261  PYPG      C39            17.1771993665       34.0883346266       -5.2413063160  MEMB      261             0.0000000000
     32477       261  PYPG      H9X            16.1472015086       34.0207285552       -5.5803417220  MEMB      261             0.0000000000
     32478       261  PYPG      H9Y            17.4058597784       35.0680227137       -4.7850250993  MEMB      261             0.0000000000
     32479       261  PYPG      C310           17.7545254128       32.9164067358       -4.4443951270  MEMB      261             0.0000000000
     32480       261  PYPG      H10X           18.8629776125       33.0285163969       -4.3494011488  MEMB      261             0.0000000000
     32481       261  PYPG      H10Y           17.5777102369       31.9367586285       -4.9426264569  MEMB      261             0.0000000000
     32482       261  PYPG      C311           17.1170444996       32.8950305453       -3.0654762870  MEMB      261             0.0000000000
     32483       261  PYPG      H11X           17.3123383852       31.9224129857       -2.5880697406  MEMB      261             0.0000000000
     32484       261  PYPG      H11Y           16.0088160489       32.8828075463       -3.1338027709  MEMB      261             0.0000000000
     32485       261  PYPG      C312           17.6485458971       34.0283561315       -2.1758560761  MEMB      261             0.0000000000
     32486       261  PYPG      H12X           18.7606409827       33.9647356410       -2.1187807879  MEMB      261             0.0000000000
     32487       261  PYPG      H12Y           17.3771992515       35.0050328272       -2.6355487908  MEMB      261             0.0000000000
     32488       261  PYPG      C313           16.9778459382       33.9458765441       -0.8112192161  MEMB      261             0.0000000000
     32489       261  PYPG      H13X           15.9224715076       33.7312685628       -1.0923691560  MEMB      261             0.0000000000
     32490       261  PYPG      H13Y           17.3387518394       33.0783399732       -0.2229283209  MEMB      261             0.0000000000
     32491       261  PYPG      C314           16.9556326706       35.2560065718       -0.0046978493  MEMB      261             0.0000000000
     32492       261  PYPG      H14X           16.4929623043       36.0554040863       -0.5881540516  MEMB      261             0.0000000000
     32493       261  PYPG      H14Y           16.4038556535       35.2863019020        0.9271088281  MEMB      261             0.0000000000
     32494       261  PYPG      C315           18.2483963531       35.6453751299        0.6044198730  MEMB      261             0.0000000000
     32495       261  PYPG      H15X           18.5063242822       34.7942272036        1.2551441996  MEMB      261             0.0000000000
     32496       261  PYPG      H15Y           18.9812598310       35.7659392264       -0.2089151936  MEMB      261             0.0000000000
     32497       261  PYPG      C316           18.1128234188       36.9443902144        1.3811680600  MEMB      261             0.0000000000
     32498       261  PYPG      H16X           17.4555515232       36.8480207120        2.2760368625  MEMB      261             0.0000000000
     32499       261  PYPG      H16Y           17.8011353613       37.7485072157        0.6708767096  MEMB      261             0.0000000000
     32500       261  PYPG      H16Z           19.0884613491       37.2371860546        1.7858831583  MEMB      261             0.0000000000
     32501       262  OYPE      N             -31.7662525367        9.0726488234      -20.8252332897  MEMB      262             0.0000000000
     32502       262  OYPE      HN1           -31.0248892759        8.4165693560      -20.5205907305  MEMB      262             0.0000000000
     32503       262  OYPE      HN2           -32.6434431928        8.5085614961      -20.8571482605  MEMB      262             0.0000000000
     32504       262  OYPE      HN3           -31.5797603155        9.3637318450      -21.8103007471  MEMB      262             0.0000000000
     32505       262  OYPE      C12           -31.9257612598       10.2023922548      -19.8189077486  MEMB      262             0.0000000000
     32506       262  OYPE      H12A          -31.1494965469       10.9807989133      -20.0009421825  MEMB      262             0.0000000000
     32507       262  OYPE      H12B          -31.7549899832        9.7184827491      -18.8263083237  MEMB      262             0.0000000000
     32508       262  OYPE      C11           -33.2983568760       10.9017343015      -19.9607833659  MEMB      262             0.0000000000
     32509       262  OYPE      H11A          -33.4244075766       11.3241916470      -20.9849229046  MEMB      262             0.0000000000
     32510       262  OYPE      H11B          -33.3345700886       11.8239518046      -19.3295462010  MEMB      262             0.0000000000
     32511       262  OYPE      P             -35.0472580050        9.8969716648      -18.2254308450  MEMB      262             0.0000000000
     32512       262  OYPE      O13           -36.4877953251        9.6294198454      -18.3559353938  MEMB      262             0.0000000000
     32513       262  OYPE      O14           -34.5620408984       11.0091225690      -17.3758434192  MEMB      262             0.0000000000
     32514       262  OYPE      O11           -34.2492790454        8.6143492008      -17.7563550168  MEMB      262             0.0000000000
     32515       262  OYPE      O12           -34.3840609480       10.0078600175      -19.6992317163  MEMB      262             0.0000000000
     32516       262  OYPE      C1            -34.3520196959        7.3888180180      -18.4701979321  MEMB      262             0.0000000000
     32517       262  OYPE      HA            -33.7059683040        7.4506876566      -19.3659738813  MEMB      262             0.0000000000
     32518       262  OYPE      HB            -35.3804607081        7.1799422478      -18.8322102605  MEMB      262             0.0000000000
     32519       262  OYPE      C2            -33.9180300508        6.1967394635      -17.5954277914  MEMB      262             0.0000000000
     32520       262  OYPE      HS            -34.3518942702        5.2413246844      -17.9679454239  MEMB      262             0.0000000000
     32521       262  OYPE      O21           -34.2927360760        6.3065891963      -16.2343925142  MEMB      262             0.0000000000
     32522       262  OYPE      C21           -35.5331991338        6.3273537441      -15.8951092552  MEMB      262             0.0000000000
     32523       262  OYPE      O22           -36.5004489352        5.9986840151      -16.5597226485  MEMB      262             0.0000000000
     32524       262  OYPE      C22           -35.5570827962        6.8435133753      -14.4499756712  MEMB      262             0.0000000000
     32525       262  OYPE      H2R           -34.8018495230        6.2969853816      -13.8436299158  MEMB      262             0.0000000000
     32526       262  OYPE      H2S           -36.5539279769        6.6300364670      -14.1100319272  MEMB      262             0.0000000000
     32527       262  OYPE      C3            -32.3716856976        6.1388522363      -17.6591480798  MEMB      262             0.0000000000
     32528       262  OYPE      HX            -31.9974137710        5.8361054091      -18.6262146588  MEMB      262             0.0000000000
     32529       262  OYPE      HY            -32.1362198047        5.1984403437      -17.1900086768  MEMB      262             0.0000000000
     32530       262  OYPE      O31           -31.5934413255        7.3344224133      -17.2990351469  MEMB      262             0.0000000000
     32531       262  OYPE      C31           -31.7734136004        7.7873097711      -16.0723274587  MEMB      262             0.0000000000
     32532       262  OYPE      O32           -32.3217705225        7.2288603684      -15.1862989024  MEMB      262             0.0000000000
     32533       262  OYPE      C32           -31.4731666257        9.2143979242      -15.9127058127  MEMB      262             0.0000000000
     32534       262  OYPE      H2X           -30.6182836834        9.5621621681      -16.5016115163  MEMB      262             0.0000000000
     32535       262  OYPE      H2Y           -32.4254314130        9.7318438394      -16.0891993439  MEMB      262             0.0000000000
     32536       262  OYPE      C23           -35.3720942591        8.3713406688      -14.3771284226  MEMB      262             0.0000000000
     32537       262  OYPE      H3R           -36.1279006990        8.8169893009      -15.0698248513  MEMB      262             0.0000000000
     32538       262  OYPE      H3S           -34.3574974020        8.5745413502      -14.7657596395  MEMB      262             0.0000000000
     32539       262  OYPE      C24           -35.5244060226        9.0168645786      -12.9836204413  MEMB      262             0.0000000000
     32540       262  OYPE      H4R           -36.3285672546        8.4820273763      -12.4758266434  MEMB      262             0.0000000000
     32541       262  OYPE      H4S           -35.8456590945       10.0866011905      -13.0397365860  MEMB      262             0.0000000000
     32542       262  OYPE      C25           -34.3012186214        8.8859729655      -12.0544226237  MEMB      262             0.0000000000
     32543       262  OYPE      H5R           -33.6037240088        9.6453320928      -12.4506303174  MEMB      262             0.0000000000
     32544       262  OYPE      H5S           -33.8176052008        7.9020340578      -12.1890483226  MEMB      262             0.0000000000
     32545       262  OYPE      C26           -34.6010830742        9.2111705444      -10.5756843986  MEMB      262             0.0000000000
     32546       262  OYPE      H6R           -35.4152717913        9.9603564186      -10.5651185420  MEMB      262             0.0000000000
     32547       262  OYPE      H6S           -33.7751119208        9.6399755969      -10.0144392409  MEMB      262             0.0000000000
     32548       262  OYPE      C27           -34.7883177648        8.0960385049       -9.6269160729  MEMB      262             0.0000000000
     32549       262  OYPE      H7R           -33.9999701154        7.4657975157       -9.2667214992  MEMB      262             0.0000000000
     32550       262  OYPE      H7S           -35.0533064780        7.3465820609      -10.2551317271  MEMB      262             0.0000000000
     32551       262  OYPE      C28           -35.7583448351        8.4429604987       -8.5299935556  MEMB      262             0.0000000000
     32552       262  OYPE      H8R           -35.2698718562        8.8685249945       -7.6976667248  MEMB      262             0.0000000000
     32553       262  OYPE      H8S           -35.4748131800        7.3808160425       -8.2229067312  MEMB      262             0.0000000000
     32554       262  OYPE      C29           -37.2346673682        9.0216134328       -8.7061211795  MEMB      262             0.0000000000
     32555       262  OYPE      H9R           -37.9631157425        8.6913643836       -9.4850669266  MEMB      262             0.0000000000
     32556       262  OYPE      C210          -37.9464828529        9.9316766786       -8.2059134773  MEMB      262             0.0000000000
     32557       262  OYPE      H10R          -38.9669541956       10.0980799052       -8.5894714210  MEMB      262             0.0000000000
     32558       262  OYPE      C211          -37.3331127594       10.7324921854       -7.1907516791  MEMB      262             0.0000000000
     32559       262  OYPE      H11R          -37.0533852411       11.6503681621       -7.7288441277  MEMB      262             0.0000000000
     32560       262  OYPE      H11S          -36.4239808538       10.2552426181       -6.7636987072  MEMB      262             0.0000000000
     32561       262  OYPE      C212          -38.3683570372       10.8746881847       -6.1019816492  MEMB      262             0.0000000000
     32562       262  OYPE      H12R          -38.7385846361        9.8612751298       -5.8037584534  MEMB      262             0.0000000000
     32563       262  OYPE      H12S          -39.2129626172       11.4892442376       -6.4924476697  MEMB      262             0.0000000000
     32564       262  OYPE      C213          -37.7723181454       11.4771350692       -4.8206404925  MEMB      262             0.0000000000
     32565       262  OYPE      H13R          -37.6329830819       12.5597834120       -4.9563258668  MEMB      262             0.0000000000
     32566       262  OYPE      H13S          -36.7373799354       11.0847097456       -4.6893549649  MEMB      262             0.0000000000
     32567       262  OYPE      C214          -38.5864605314       11.1759151455       -3.5326389629  MEMB      262             0.0000000000
     32568       262  OYPE      H14R          -38.9416817568       10.1365638299       -3.6980531091  MEMB      262             0.0000000000
     32569       262  OYPE      H14S          -39.5071434721       11.7853158182       -3.4142262977  MEMB      262             0.0000000000
     32570       262  OYPE      C215          -37.7439946405       11.3298201589       -2.2246228354  MEMB      262             0.0000000000
     32571       262  OYPE      H15R          -37.3238837851       12.3274019545       -2.1491425397  MEMB      262             0.0000000000
     32572       262  OYPE      H15S          -36.8492538019       10.6462550681       -2.2773626945  MEMB      262             0.0000000000
     32573       262  OYPE      C216          -38.3901096293       11.2213641362       -0.7989969884  MEMB      262             0.0000000000
     32574       262  OYPE      H16R          -39.2189998295       11.7985512752       -0.5452354501  MEMB      262             0.0000000000
     32575       262  OYPE      H16S          -37.7246095335       10.7667577123       -0.0620502435  MEMB      262             0.0000000000
     32576       262  OYPE      H16T          -39.0097570209       10.3957730966       -0.4729557389  MEMB      262             0.0000000000
     32577       262  OYPE      C33           -31.2667879339        9.4733849221      -14.4584441675  MEMB      262             0.0000000000
     32578       262  OYPE      H3X           -30.3371909734        8.9730946242      -14.4398052992  MEMB      262             0.0000000000
     32579       262  OYPE      H3Y           -31.6296604144        8.7913524559      -13.7191105782  MEMB      262             0.0000000000
     32580       262  OYPE      C34           -31.3879493483       10.8893392561      -13.9905618903  MEMB      262             0.0000000000
     32581       262  OYPE      H4X           -31.2288241939       11.6124461123      -14.7809364590  MEMB      262             0.0000000000
     32582       262  OYPE      H4Y           -32.4292685893       11.0201823521      -13.6902746488  MEMB      262             0.0000000000
     32583       262  OYPE      C35           -30.5548368101       11.1888109075      -12.8116033907  MEMB      262             0.0000000000
     32584       262  OYPE      H5X           -30.5935599921       12.2044052565      -12.9832316883  MEMB      262             0.0000000000
     32585       262  OYPE      H5Y           -29.4739702184       11.5214730035      -12.6604187715  MEMB      262             0.0000000000
     32586       262  OYPE      C36           -30.8309884534       10.2142939536      -11.6298326620  MEMB      262             0.0000000000
     32587       262  OYPE      H6X           -31.8092832777       10.2294843122      -11.1797842721  MEMB      262             0.0000000000
     32588       262  OYPE      H6Y           -30.5742487834        9.2754780150      -11.9298926802  MEMB      262             0.0000000000
     32589       262  OYPE      C37           -30.1450528073       10.4267675577      -10.3473432149  MEMB      262             0.0000000000
     32590       262  OYPE      H7X           -28.9798067791       10.2373011387      -10.3660431887  MEMB      262             0.0000000000
     32591       262  OYPE      H7Y           -30.0711971054       11.2451302234      -10.9287907933  MEMB      262             0.0000000000
     32592       262  OYPE      C38           -30.8951403167       10.4653289889       -8.8458190135  MEMB      262             0.0000000000
     32593       262  OYPE      H8X           -31.7921296851       10.7729836650       -9.2319143865  MEMB      262             0.0000000000
     32594       262  OYPE      H8Y           -30.7173305293        9.5527669184       -9.1139570216  MEMB      262             0.0000000000
     32595       262  OYPE      C39           -30.4388579664       10.9757099152       -7.3664699784  MEMB      262             0.0000000000
     32596       262  OYPE      H9X           -29.3476933086       11.0685597953       -7.0008641305  MEMB      262             0.0000000000
     32597       262  OYPE      C310          -30.6660373990       11.1357355802       -6.2205220235  MEMB      262             0.0000000000
     32598       262  OYPE      H10X          -29.9095253919       11.6324548812       -5.5848292438  MEMB      262             0.0000000000
     32599       262  OYPE      C311          -31.9362151246       10.6427386165       -6.0184971921  MEMB      262             0.0000000000
     32600       262  OYPE      H11X          -32.5971782793       10.5547344402       -6.9158414100  MEMB      262             0.0000000000
     32601       262  OYPE      H11Y          -31.7512470277        9.7117477897       -5.5862077542  MEMB      262             0.0000000000
     32602       262  OYPE      C312          -32.4575897741       11.5850911436       -5.0540142377  MEMB      262             0.0000000000
     32603       262  OYPE      H12X          -32.6004816324       12.4957208030       -5.6810520491  MEMB      262             0.0000000000
     32604       262  OYPE      H12Y          -31.7687756179       11.8390175573       -4.2187060136  MEMB      262             0.0000000000
     32605       262  OYPE      C313          -33.7750973019       11.0621789792       -4.5041581601  MEMB      262             0.0000000000
     32606       262  OYPE      H13X          -34.1425705850       11.8108007730       -3.7825237735  MEMB      262             0.0000000000
     32607       262  OYPE      H13Y          -34.4506078676       10.9484612369       -5.3851210520  MEMB      262             0.0000000000
     32608       262  OYPE      C314          -33.7538855819        9.7104020358       -3.7744323984  MEMB      262             0.0000000000
     32609       262  OYPE      H14X          -33.3087926344        9.0438191606       -4.5346497489  MEMB      262             0.0000000000
     32610       262  OYPE      H14Y          -34.7784566937        9.3646539704       -3.5001577138  MEMB      262             0.0000000000
     32611       262  OYPE      C315          -32.9449922004        9.7096332618       -2.4813048680  MEMB      262             0.0000000000
     32612       262  OYPE      H15X          -33.2920467034       10.5514512241       -1.8383532642  MEMB      262             0.0000000000
     32613       262  OYPE      H15Y          -31.8874086780        9.8714448588       -2.7599081402  MEMB      262             0.0000000000
     32614       262  OYPE      C316          -32.9420365886        8.4201769251       -1.6711634708  MEMB      262             0.0000000000
     32615       262  OYPE      H16X          -32.4542560765        8.6716251353       -0.7182938227  MEMB      262             0.0000000000
     32616       262  OYPE      H16Y          -32.4133077426        7.6062764630       -2.1975166556  MEMB      262             0.0000000000
     32617       262  OYPE      C317          -34.2556406543        7.9061776046       -1.2905392243  MEMB      262             0.0000000000
     32618       262  OYPE      H17X          -34.7644349849        7.7872400185       -2.3020392365  MEMB      262             0.0000000000
     32619       262  OYPE      H17Y          -34.8625371396        8.6090452134       -0.6718556540  MEMB      262             0.0000000000
     32620       262  OYPE      C318          -34.1230886619        6.5903993945       -0.5122630695  MEMB      262             0.0000000000
     32621       262  OYPE      H18X          -34.9036518653        6.3971597892        0.2360025583  MEMB      262             0.0000000000
     32622       262  OYPE      H18Y          -34.0161707420        5.7411725047       -1.1966291825  MEMB      262             0.0000000000
     32623       262  OYPE      H18Z          -33.4576584783        6.5022493768        0.2710294300  MEMB      262             0.0000000000
     32624       263  QMPE      N             -28.0734393455       18.3637673081      -19.0824722586  MEMB      263             0.0000000000
     32625       263  QMPE      HN1           -27.4504608668       17.5277587231      -19.0550185453  MEMB      263             0.0000000000
     32626       263  QMPE      HN2           -28.3579412849       18.6462720532      -20.0497789627  MEMB      263             0.0000000000
     32627       263  QMPE      HN3           -27.5650746678       19.1706656938      -18.6688864209  MEMB      263             0.0000000000
     32628       263  QMPE      C12           -29.2670480268       18.0077473190      -18.2221556210  MEMB      263             0.0000000000
     32629       263  QMPE      H12A          -28.8471272702       17.7015901555      -17.2505740254  MEMB      263             0.0000000000
     32630       263  QMPE      H12B          -29.7858211281       17.1143144857      -18.6261769978  MEMB      263             0.0000000000
     32631       263  QMPE      C11           -30.2368746241       19.1871202450      -18.1367778792  MEMB      263             0.0000000000
     32632       263  QMPE      H11A          -29.6758343423       20.1317838484      -17.9995213499  MEMB      263             0.0000000000
     32633       263  QMPE      H11B          -30.8906967989       19.1502389271      -17.2305436191  MEMB      263             0.0000000000
     32634       263  QMPE      P             -32.5235710367       18.9261415860      -19.4258981760  MEMB      263             0.0000000000
     32635       263  QMPE      O13           -32.8857204907       18.2000653948      -20.6559276132  MEMB      263             0.0000000000
     32636       263  QMPE      O14           -33.2950321561       20.1086994516      -18.9962941712  MEMB      263             0.0000000000
     32637       263  QMPE      O11           -32.4907874320       17.8500703883      -18.2920700095  MEMB      263             0.0000000000
     32638       263  QMPE      O12           -30.9662365530       19.2496501650      -19.3627163578  MEMB      263             0.0000000000
     32639       263  QMPE      C1            -33.6496497191       17.7318619955      -17.5832620446  MEMB      263             0.0000000000
     32640       263  QMPE      HA            -34.0129710875       16.6538173841      -17.7590411855  MEMB      263             0.0000000000
     32641       263  QMPE      HB            -34.5636583045       18.2884039732      -18.0495237144  MEMB      263             0.0000000000
     32642       263  QMPE      C2            -33.6002002494       18.2222050242      -16.0244473656  MEMB      263             0.0000000000
     32643       263  QMPE      HS            -34.5252158988       18.3385528362      -15.4889937568  MEMB      263             0.0000000000
     32644       263  QMPE      O21           -33.2206830997       19.5432304808      -15.8739214269  MEMB      263             0.0000000000
     32645       263  QMPE      C21           -34.2181313557       20.4452111052      -16.0833890404  MEMB      263             0.0000000000
     32646       263  QMPE      O22           -35.3828513764       20.2774778351      -16.2408469220  MEMB      263             0.0000000000
     32647       263  QMPE      C22           -33.6814970000       21.7842625051      -16.1457816388  MEMB      263             0.0000000000
     32648       263  QMPE      H2R           -34.5220127164       22.4899877471      -15.9633028229  MEMB      263             0.0000000000
     32649       263  QMPE      H2S           -33.3997712404       21.8944651653      -17.2127085086  MEMB      263             0.0000000000
     32650       263  QMPE      C3            -32.7418618304       17.3491133616      -15.0605337543  MEMB      263             0.0000000000
     32651       263  QMPE      HX            -31.7591553216       17.1655472936      -15.5056183172  MEMB      263             0.0000000000
     32652       263  QMPE      HY            -33.1849382737       16.3180516416      -14.9641676096  MEMB      263             0.0000000000
     32653       263  QMPE      O31           -32.7230845942       18.0082495928      -13.7618425529  MEMB      263             0.0000000000
     32654       263  QMPE      C31           -31.9910659871       17.4032829304      -12.8607206444  MEMB      263             0.0000000000
     32655       263  QMPE      O32           -31.3391576331       16.4282978269      -13.0524889317  MEMB      263             0.0000000000
     32656       263  QMPE      C32           -32.0341410600       18.0124943474      -11.4863547533  MEMB      263             0.0000000000
     32657       263  QMPE      H2X           -30.9720053157       18.3022747502      -11.3022227827  MEMB      263             0.0000000000
     32658       263  QMPE      H2Y           -32.7649563694       18.8418114409      -11.5595361411  MEMB      263             0.0000000000
     32659       263  QMPE      C23           -32.5266225137       21.9698909093      -15.1606380182  MEMB      263             0.0000000000
     32660       263  QMPE      H3R           -31.6002425703       21.5551110756      -15.6132659183  MEMB      263             0.0000000000
     32661       263  QMPE      H3S           -32.6402086734       21.3881846133      -14.2161605459  MEMB      263             0.0000000000
     32662       263  QMPE      C24           -32.3723852270       23.4472992040      -14.8391350143  MEMB      263             0.0000000000
     32663       263  QMPE      H4R           -33.1949103525       23.8434759247      -14.2015730025  MEMB      263             0.0000000000
     32664       263  QMPE      H4S           -32.3749951219       24.0770195776      -15.7518089751  MEMB      263             0.0000000000
     32665       263  QMPE      C25           -31.0636988990       23.7456653527      -14.1667976801  MEMB      263             0.0000000000
     32666       263  QMPE      H5R           -31.0759450618       24.8610358081      -14.2847632923  MEMB      263             0.0000000000
     32667       263  QMPE      H5S           -30.1791003859       23.4167273333      -14.7312489715  MEMB      263             0.0000000000
     32668       263  QMPE      C26           -31.0873875314       23.1805212626      -12.7206408160  MEMB      263             0.0000000000
     32669       263  QMPE      H6R           -31.2131643096       22.1170860438      -12.6934697891  MEMB      263             0.0000000000
     32670       263  QMPE      H6S           -31.9516316726       23.7754681719      -12.2706660661  MEMB      263             0.0000000000
     32671       263  QMPE      C27           -29.7999692041       23.2113742325      -11.8311610068  MEMB      263             0.0000000000
     32672       263  QMPE      H7R           -30.3839290740       23.9350413038      -11.4673446773  MEMB      263             0.0000000000
     32673       263  QMPE      H7S           -28.8915319154       23.6852813524      -12.2304114695  MEMB      263             0.0000000000
     32674       263  QMPE      C28           -29.8547972006       22.8024593991      -10.3788702967  MEMB      263             0.0000000000
     32675       263  QMPE      H8R           -29.8468882060       21.7906394764      -10.6909968649  MEMB      263             0.0000000000
     32676       263  QMPE      H8S           -30.6812172434       22.9263270163       -9.7657126834  MEMB      263             0.0000000000
     32677       263  QMPE      C29           -29.0467420400       23.3135173265       -9.2262933382  MEMB      263             0.0000000000
     32678       263  QMPE      H9R           -28.4875414762       24.3223423825       -9.1094396872  MEMB      263             0.0000000000
     32679       263  QMPE      C217          -28.1073936832       22.7710008086       -9.7772124234  MEMB      263             0.0000000000
     32680       263  QMPE      H17R          -28.1832957347       21.7307644145      -10.1796112956  MEMB      263             0.0000000000
     32681       263  QMPE      H17S          -27.3131130040       23.4261079381      -10.1529104622  MEMB      263             0.0000000000
     32682       263  QMPE      C210          -28.3729317629       22.2933466767       -8.7490979949  MEMB      263             0.0000000000
     32683       263  QMPE      H10R          -27.4654995496       23.0030055787       -8.4270549307  MEMB      263             0.0000000000
     32684       263  QMPE      C211          -28.8389142599       20.7413265243       -8.6265900384  MEMB      263             0.0000000000
     32685       263  QMPE      H11R          -29.0602438309       20.2823385701       -9.5944996118  MEMB      263             0.0000000000
     32686       263  QMPE      H11S          -28.1092035989       19.9955460798       -8.2395267897  MEMB      263             0.0000000000
     32687       263  QMPE      C212          -30.0403270679       20.8480743130       -7.7336780025  MEMB      263             0.0000000000
     32688       263  QMPE      H12R          -30.5690283004       19.9049155267       -7.8604556162  MEMB      263             0.0000000000
     32689       263  QMPE      H12S          -30.5858932294       21.7086144634       -8.1740000141  MEMB      263             0.0000000000
     32690       263  QMPE      C213          -29.8595853598       20.9091179873       -6.2134534445  MEMB      263             0.0000000000
     32691       263  QMPE      H13R          -28.9670031045       21.3632439409       -5.9785327337  MEMB      263             0.0000000000
     32692       263  QMPE      H13S          -29.5360076528       20.0093085129       -5.7147394152  MEMB      263             0.0000000000
     32693       263  QMPE      C214          -31.0422964845       21.3506362553       -5.4358726977  MEMB      263             0.0000000000
     32694       263  QMPE      H14R          -31.8536239421       20.6410743480       -5.3921057772  MEMB      263             0.0000000000
     32695       263  QMPE      H14S          -31.3661787667       22.3097938688       -5.8510013753  MEMB      263             0.0000000000
     32696       263  QMPE      C215          -30.9726441421       21.3267211304       -4.0111450132  MEMB      263             0.0000000000
     32697       263  QMPE      H15R          -29.8908750449       21.5695365919       -3.8933288084  MEMB      263             0.0000000000
     32698       263  QMPE      H15S          -30.9018503921       20.6368860298       -3.2146986778  MEMB      263             0.0000000000
     32699       263  QMPE      C216          -32.0125748028       22.4695236140       -3.6320180691  MEMB      263             0.0000000000
     32700       263  QMPE      H16R          -31.0762014767       24.1923234878       -3.2478894937  MEMB      263             0.0000000000
     32701       263  QMPE      H16S          -32.6638943644       22.2645532277       -2.7540552311  MEMB      263             0.0000000000
     32702       263  QMPE      H16T          -32.0694748965       23.0350688895       -4.2673866548  MEMB      263             0.0000000000
     32703       263  QMPE      C33           -32.4826687705       16.9976522316      -10.4087883847  MEMB      263             0.0000000000
     32704       263  QMPE      H3X           -32.1814449998       15.9901969520      -10.6523177450  MEMB      263             0.0000000000
     32705       263  QMPE      H3Y           -33.5974364991       17.0112632965      -10.4175824290  MEMB      263             0.0000000000
     32706       263  QMPE      C34           -31.9421090380       17.2455632011       -8.9896424835  MEMB      263             0.0000000000
     32707       263  QMPE      H4X           -32.7126977070       16.8552761719       -8.3049983550  MEMB      263             0.0000000000
     32708       263  QMPE      H4Y           -31.7722214803       18.3366253906       -8.8379949084  MEMB      263             0.0000000000
     32709       263  QMPE      C35           -30.6728890986       16.5208399609       -8.5613030902  MEMB      263             0.0000000000
     32710       263  QMPE      H5X           -29.9619676330       16.9132666168       -9.3437906799  MEMB      263             0.0000000000
     32711       263  QMPE      H5Y           -30.5750488104       15.4469498405       -8.6765367475  MEMB      263             0.0000000000
     32712       263  QMPE      C36           -30.2705788331       16.7988602556       -7.0712138730  MEMB      263             0.0000000000
     32713       263  QMPE      H6X           -30.1749058059       17.9060751706       -7.0518986557  MEMB      263             0.0000000000
     32714       263  QMPE      H6Y           -29.3087615126       16.2953518188       -6.7769314313  MEMB      263             0.0000000000
     32715       263  QMPE      C37           -31.0050079141       16.3502468626       -5.8770283435  MEMB      263             0.0000000000
     32716       263  QMPE      H7X           -32.0609490016       16.3668648158       -6.1717383906  MEMB      263             0.0000000000
     32717       263  QMPE      H7Y           -30.6844218000       15.3156987561       -5.6281403037  MEMB      263             0.0000000000
     32718       263  QMPE      C38           -30.6842409583       17.2912482581       -4.7120709032  MEMB      263             0.0000000000
     32719       263  QMPE      H8X           -29.6723621853       17.1404631166       -4.2505016501  MEMB      263             0.0000000000
     32720       263  QMPE      H8Y           -30.8288654656       18.3370894933       -5.0720497537  MEMB      263             0.0000000000
     32721       263  QMPE      C39           -31.6291095556       16.9956274682       -3.5775818498  MEMB      263             0.0000000000
     32722       263  QMPE      H9X           -31.5220143074       15.9174197447       -3.4131502204  MEMB      263             0.0000000000
     32723       263  QMPE      H9Y           -32.6659953985       17.1285380863       -3.9115313518  MEMB      263             0.0000000000
     32724       263  QMPE      C310          -31.2943414839       17.7679263862       -2.3031898677  MEMB      263             0.0000000000
     32725       263  QMPE      H10X          -31.4314141200       18.8355344094       -2.5161283608  MEMB      263             0.0000000000
     32726       263  QMPE      H10Y          -30.2116349006       17.6706708519       -2.0473345008  MEMB      263             0.0000000000
     32727       263  QMPE      C311          -32.0971330136       17.2711869854       -1.1006245439  MEMB      263             0.0000000000
     32728       263  QMPE      H11X          -32.0303484211       16.1782818384       -1.0048980160  MEMB      263             0.0000000000
     32729       263  QMPE      H11Y          -33.1844641363       17.4852551916       -1.1493352526  MEMB      263             0.0000000000
     32730       263  QMPE      C312          -31.5424151412       17.8192657795        0.1427533840  MEMB      263             0.0000000000
     32731       263  QMPE      H12X          -30.4538623308       17.9528524429        0.1885758066  MEMB      263             0.0000000000
     32732       263  QMPE      H12Y          -31.8135546843       17.2953196452        1.0240290140  MEMB      263             0.0000000000
     32733       263  QMPE      C313          -32.2440423960       19.0304299416        0.4076764494  MEMB      263             0.0000000000
     32734       263  QMPE      H13X          -31.7123953672       19.7699054058       -0.2696614665  MEMB      263             0.0000000000
     32735       263  QMPE      H13Y          -33.2723737783       19.2753462176        0.3715980212  MEMB      263             0.0000000000
     32736       263  QMPE      C314          -32.1389397258       19.2066346293        1.8292482188  MEMB      263             0.0000000000
     32737       263  QMPE      H14X          -32.6322983306       20.2661760942        2.2026551835  MEMB      263             0.0000000000
     32738       263  QMPE      H14Y          -30.8911056268       19.1313158664        1.6196545301  MEMB      263             0.0000000000
     32739       263  QMPE      C315          -32.6486245945       18.7150438593        3.1359603438  MEMB      263             0.0000000000
     32740       263  QMPE      H15X          -32.1348070562       17.9646918381        2.8448400312  MEMB      263             0.0000000000
     32741       263  QMPE      H15Y          -32.2024304452       19.1472541524        4.1368566092  MEMB      263             0.0000000000
     32742       263  QMPE      H15Z          -33.6449560517       19.0288492032        2.8659234817  MEMB      263             0.0000000000
     32743       264  PYPG      C13            35.7323285786       15.7575057067      -18.9137724011  MEMB      264             0.0000000000
     32744       264  PYPG      H13A           36.4165127628       15.1364547272      -19.5511589933  MEMB      264             0.0000000000
     32745       264  PYPG      H13B           35.9149069847       16.8378727377      -19.0640058755  MEMB      264             0.0000000000
     32746       264  PYPG      OC3            35.9416216390       15.5615054465      -17.5248716253  MEMB      264             0.0000000000
     32747       264  PYPG      HO3            35.1059026596       15.5318439051      -17.0515608302  MEMB      264             0.0000000000
     32748       264  PYPG      C12            34.3112865722       15.3680366941      -19.3548050549  MEMB      264             0.0000000000
     32749       264  PYPG      H12A           34.1633994795       14.2856347103      -19.1504726117  MEMB      264             0.0000000000
     32750       264  PYPG      OC2            34.1594320134       15.5756296135      -20.7557554843  MEMB      264             0.0000000000
     32751       264  PYPG      HO2            33.2118860277       15.4593780274      -20.9055862071  MEMB      264             0.0000000000
     32752       264  PYPG      C11            33.2248813158       16.1598832055      -18.6152983838  MEMB      264             0.0000000000
     32753       264  PYPG      H11A           33.4386571496       17.2380894912      -18.7462319534  MEMB      264             0.0000000000
     32754       264  PYPG      H11B           33.3101388841       15.9897284256      -17.5161653301  MEMB      264             0.0000000000
     32755       264  PYPG      P              30.8018633118       16.8456400876      -19.0417555421  MEMB      264             0.0000000000
     32756       264  PYPG      O13            29.5883210517       16.1524686127      -18.6663713788  MEMB      264             0.0000000000
     32757       264  PYPG      O14            30.7486768811       17.5831512370      -20.3009890550  MEMB      264             0.0000000000
     32758       264  PYPG      O11            31.0689640879       17.8447901193      -17.8840777391  MEMB      264             0.0000000000
     32759       264  PYPG      O12            31.9375323157       15.7827727840      -19.1170100775  MEMB      264             0.0000000000
     32760       264  PYPG      C1             30.1537122506       17.8665688423      -16.7839438166  MEMB      264             0.0000000000
     32761       264  PYPG      HA             30.0608510747       16.8325459069      -16.4168519777  MEMB      264             0.0000000000
     32762       264  PYPG      HB             29.1403219994       18.2532022008      -17.0732530732  MEMB      264             0.0000000000
     32763       264  PYPG      C2             30.7491443027       18.5340837500      -15.5203667505  MEMB      264             0.0000000000
     32764       264  PYPG      HS             30.6477164248       19.6339954081      -15.6352252339  MEMB      264             0.0000000000
     32765       264  PYPG      O21            32.1523437253       18.1853010858      -15.4477654100  MEMB      264             0.0000000000
     32766       264  PYPG      C21            32.8450873310       18.9001822611      -14.5779654653  MEMB      264             0.0000000000
     32767       264  PYPG      O22            32.3576003722       19.6822498433      -13.7787519137  MEMB      264             0.0000000000
     32768       264  PYPG      C22            34.3462439967       18.6241108362      -14.7493831464  MEMB      264             0.0000000000
     32769       264  PYPG      H2R            34.6996764559       19.0057292369      -15.7335708296  MEMB      264             0.0000000000
     32770       264  PYPG      H2S            34.5360910690       17.5349345710      -14.7432268087  MEMB      264             0.0000000000
     32771       264  PYPG      C3             29.9544673283       18.0868064062      -14.2440016348  MEMB      264             0.0000000000
     32772       264  PYPG      HX             28.8755189223       18.0997195490      -14.5033179654  MEMB      264             0.0000000000
     32773       264  PYPG      HY             30.0514046722       18.8242893841      -13.4268205953  MEMB      264             0.0000000000
     32774       264  PYPG      O31            30.2330790775       16.7541521762      -13.8319557268  MEMB      264             0.0000000000
     32775       264  PYPG      C31            31.0229142505       16.5112937246      -12.8625123321  MEMB      264             0.0000000000
     32776       264  PYPG      O32            31.6865396568       17.2850242500      -12.1865278114  MEMB      264             0.0000000000
     32777       264  PYPG      C32            30.9743452816       15.0360887493      -12.6961020682  MEMB      264             0.0000000000
     32778       264  PYPG      H2X            30.0252894405       14.5925558427      -12.5223763812  MEMB      264             0.0000000000
     32779       264  PYPG      H2Y            31.4857833768       14.5093345725      -13.5371918602  MEMB      264             0.0000000000
     32780       264  PYPG      C23            35.1337236102       19.1691693641      -13.5322558773  MEMB      264             0.0000000000
     32781       264  PYPG      H3R            34.7937971227       20.1779176034      -13.2169388879  MEMB      264             0.0000000000
     32782       264  PYPG      H3S            36.1979663251       19.2789265215      -13.7868100109  MEMB      264             0.0000000000
     32783       264  PYPG      C24            35.1158181737       18.1832356379      -12.3524639468  MEMB      264             0.0000000000
     32784       264  PYPG      H4R            35.3875426529       17.1690916332      -12.7226225153  MEMB      264             0.0000000000
     32785       264  PYPG      H4S            34.0897340600       18.0756142060      -11.9581639139  MEMB      264             0.0000000000
     32786       264  PYPG      C25            36.1024109423       18.5530630888      -11.2367802898  MEMB      264             0.0000000000
     32787       264  PYPG      H5R            35.9530853706       19.5803618474      -10.8418688052  MEMB      264             0.0000000000
     32788       264  PYPG      H5S            37.1044944676       18.5208279807      -11.7152637315  MEMB      264             0.0000000000
     32789       264  PYPG      C26            36.0799479901       17.5532454066      -10.0854415513  MEMB      264             0.0000000000
     32790       264  PYPG      H6R            36.8691309834       17.8363738837       -9.3526323331  MEMB      264             0.0000000000
     32791       264  PYPG      H6S            36.3349338462       16.5692949452      -10.5552052702  MEMB      264             0.0000000000
     32792       264  PYPG      C27            34.7125240333       17.4000068407       -9.3931280004  MEMB      264             0.0000000000
     32793       264  PYPG      H7R            34.8681420267       16.8110096392       -8.4651231848  MEMB      264             0.0000000000
     32794       264  PYPG      H7S            34.0465494594       16.8832580167      -10.1188043443  MEMB      264             0.0000000000
     32795       264  PYPG      C28            34.0008112456       18.6337104266       -8.8945476309  MEMB      264             0.0000000000
     32796       264  PYPG      H8R            33.9616144311       19.3587019450       -9.7243322639  MEMB      264             0.0000000000
     32797       264  PYPG      H8S            34.7190170805       19.0899846830       -8.1890448456  MEMB      264             0.0000000000
     32798       264  PYPG      C29            32.5966271573       18.2476674042       -8.4167841477  MEMB      264             0.0000000000
     32799       264  PYPG      H9R            31.8601861036       18.1886050691       -9.2202948731  MEMB      264             0.0000000000
     32800       264  PYPG      C210           32.0632344095       18.1808232729       -7.1952350340  MEMB      264             0.0000000000
     32801       264  PYPG      H10R           30.9518826925       18.1705597653       -7.1202287347  MEMB      264             0.0000000000
     32802       264  PYPG      C211           32.8148186875       18.5251276661       -5.9633799377  MEMB      264             0.0000000000
     32803       264  PYPG      H11R           32.2108085817       19.3180077796       -5.8274458324  MEMB      264             0.0000000000
     32804       264  PYPG      H11S           33.8123846675       19.0462259967       -6.0187701757  MEMB      264             0.0000000000
     32805       264  PYPG      C212           32.4930450148       17.6925979065       -4.7895030354  MEMB      264             0.0000000000
     32806       264  PYPG      H12R           32.7331809752       16.7402384815       -5.2301208103  MEMB      264             0.0000000000
     32807       264  PYPG      H12S           31.4416178587       17.5748020688       -4.5096330538  MEMB      264             0.0000000000
     32808       264  PYPG      C213           33.3521317242       18.0356227569       -3.5932698782  MEMB      264             0.0000000000
     32809       264  PYPG      H13R           34.3618021812       18.1084370694       -4.0545823892  MEMB      264             0.0000000000
     32810       264  PYPG      H13S           33.1664368711       17.3303112425       -2.7511163521  MEMB      264             0.0000000000
     32811       264  PYPG      C214           33.2428831210       19.3164206816       -2.8512644402  MEMB      264             0.0000000000
     32812       264  PYPG      H14R           33.7874945759       20.1025099882       -3.3564625609  MEMB      264             0.0000000000
     32813       264  PYPG      H14S           32.1948482454       19.4829695544       -2.6418315433  MEMB      264             0.0000000000
     32814       264  PYPG      C215           33.9641560270       19.3844949472       -1.5720769087  MEMB      264             0.0000000000
     32815       264  PYPG      H15R           33.6468088750       18.5044284547       -1.0138092570  MEMB      264             0.0000000000
     32816       264  PYPG      H15S           33.8569617261       20.2847994290       -0.9678425505  MEMB      264             0.0000000000
     32817       264  PYPG      C216           35.3636634594       19.2705608289       -1.7949211054  MEMB      264             0.0000000000
     32818       264  PYPG      H16R           35.8423632482       19.3175927945       -0.8642303905  MEMB      264             0.0000000000
     32819       264  PYPG      H16S           35.8718200388       20.0233969736       -2.4416436491  MEMB      264             0.0000000000
     32820       264  PYPG      H16T           35.5074471176       18.2185067986       -2.1092552243  MEMB      264             0.0000000000
     32821       264  PYPG      C33            31.6666501688       14.6531372251      -11.5299275409  MEMB      264             0.0000000000
     32822       264  PYPG      H3X            32.5603457753       15.3576591493      -11.6911207236  MEMB      264             0.0000000000
     32823       264  PYPG      H3Y            31.8079840229       13.5235333193      -11.7844972436  MEMB      264             0.0000000000
     32824       264  PYPG      C34            31.3520669710       14.9540651303      -10.0893763310  MEMB      264             0.0000000000
     32825       264  PYPG      H4X            30.3146197217       14.6740665297      -10.0774763093  MEMB      264             0.0000000000
     32826       264  PYPG      H4Y            31.6056281587       16.0236945193      -10.0351255658  MEMB      264             0.0000000000
     32827       264  PYPG      C35            31.9797826039       14.2989949613       -8.8609520186  MEMB      264             0.0000000000
     32828       264  PYPG      H5X            32.9637033796       14.8163958878       -8.6156727162  MEMB      264             0.0000000000
     32829       264  PYPG      H5Y            32.0453827526       13.1722231270       -9.0436953635  MEMB      264             0.0000000000
     32830       264  PYPG      C36            31.2909603812       14.5486823084       -7.5907128392  MEMB      264             0.0000000000
     32831       264  PYPG      H6X            30.3154970268       14.0547151138       -7.6540246366  MEMB      264             0.0000000000
     32832       264  PYPG      H6Y            31.2330848775       15.5855919141       -7.3159363184  MEMB      264             0.0000000000
     32833       264  PYPG      C37            31.9201705161       14.2097796090       -6.3436105040  MEMB      264             0.0000000000
     32834       264  PYPG      H7X            31.3195993791       14.2791061472       -5.4734956714  MEMB      264             0.0000000000
     32835       264  PYPG      H7Y            32.2335367374       13.2638977499       -6.5184892297  MEMB      264             0.0000000000
     32836       264  PYPG      C38            33.2010856029       14.5359214940       -5.8317499258  MEMB      264             0.0000000000
     32837       264  PYPG      H8X            33.3917327158       15.4091308234       -6.2339863784  MEMB      264             0.0000000000
     32838       264  PYPG      H8Y            33.8367373708       13.6186824598       -6.3414149091  MEMB      264             0.0000000000
     32839       264  PYPG      C39            33.7712082902       15.0606603951       -4.2674590110  MEMB      264             0.0000000000
     32840       264  PYPG      H9X            32.9648246723       13.8214963974       -4.7146904828  MEMB      264             0.0000000000
     32841       264  PYPG      H9Y            32.9917950911       15.0807442922       -3.5872798891  MEMB      264             0.0000000000
     32842       264  PYPG      C310           35.8235388308       14.7947698465       -4.0162272844  MEMB      264             0.0000000000
     32843       264  PYPG      H10X           35.9818717293       15.6357510061       -4.1937280297  MEMB      264             0.0000000000
     32844       264  PYPG      H10Y           36.0064862869       14.5503183628       -4.9301188275  MEMB      264             0.0000000000
     32845       264  PYPG      C311           36.3162789735       14.0073200162       -2.9936849919  MEMB      264             0.0000000000
     32846       264  PYPG      H11X           36.0198334816       12.7281070295       -2.9799614877  MEMB      264             0.0000000000
     32847       264  PYPG      H11Y           35.5116670743       15.0591007438       -2.3611961460  MEMB      264             0.0000000000
     32848       264  PYPG      C312           37.3157475416       13.3433375719       -2.4806723445  MEMB      264             0.0000000000
     32849       264  PYPG      H12X           37.4968354321       12.2926534084       -2.8600320707  MEMB      264             0.0000000000
     32850       264  PYPG      H12Y           37.7778212104       14.1396008755       -3.0014348397  MEMB      264             0.0000000000
     32851       264  PYPG      C313           37.7988522646       13.3352535654       -1.0483718143  MEMB      264             0.0000000000
     32852       264  PYPG      H13X           36.9824810774       12.8452008791       -0.8906267405  MEMB      264             0.0000000000
     32853       264  PYPG      H13Y           38.5262189067       12.5510302471       -0.8555923572  MEMB      264             0.0000000000
     32854       264  PYPG      C314           37.7436839499       14.6054657988       -0.1985233144  MEMB      264             0.0000000000
     32855       264  PYPG      H14X           38.8014002735       14.9390268818       -0.1744833366  MEMB      264             0.0000000000
     32856       264  PYPG      H14Y           37.0941457525       15.4454352998       -0.6701506221  MEMB      264             0.0000000000
     32857       264  PYPG      C315           37.4100183747       14.7396205077        1.1233553454  MEMB      264             0.0000000000
     32858       264  PYPG      H15X           37.5893838372       13.7877325375        1.5234122314  MEMB      264             0.0000000000
     32859       264  PYPG      H15Y           38.0227369366       15.6186394678        1.4844152836  MEMB      264             0.0000000000
     32860       264  PYPG      C316           36.0403942363       15.0542680608        1.2377150376  MEMB      264             0.0000000000
     32861       264  PYPG      H16X           36.0976406184       16.1960262251        1.1808258333  MEMB      264             0.0000000000
     32862       264  PYPG      H16Y           35.6234233959       14.9259327001        2.2422131766  MEMB      264             0.0000000000
     32863       264  PYPG      H16Z           35.2977092209       14.6430323928        0.5498172431  MEMB      264             0.0000000000
     32864       265  QMPE      N              35.9931473378      -15.7220968707      -20.0219494804  MEMB      265             0.0000000000
     32865       265  QMPE      HN1            35.0098267129      -15.9087468798      -20.2753650766  MEMB      265             0.0000000000
     32866       265  QMPE      HN2            36.6583817721      -16.2815212926      -20.5977511146  MEMB      265             0.0000000000
     32867       265  QMPE      HN3            36.0590624299      -15.9379099817      -19.0048447562  MEMB      265             0.0000000000
     32868       265  QMPE      C12            36.2110567391      -14.2590847181      -20.2748408322  MEMB      265             0.0000000000
     32869       265  QMPE      H12A           35.8351673445      -13.9894550683      -21.2733736925  MEMB      265             0.0000000000
     32870       265  QMPE      H12B           37.2871855302      -14.0688469785      -20.1103435264  MEMB      265             0.0000000000
     32871       265  QMPE      C11            35.4895009903      -13.3403901434      -19.3067991666  MEMB      265             0.0000000000
     32872       265  QMPE      H11A           35.8991004023      -12.3116476984      -19.4349206408  MEMB      265             0.0000000000
     32873       265  QMPE      H11B           35.7731152607      -13.6813470647      -18.2988867267  MEMB      265             0.0000000000
     32874       265  QMPE      P              33.1123816128      -12.6083229584      -18.4821277952  MEMB      265             0.0000000000
     32875       265  QMPE      O13            31.9693647779      -13.5113461272      -18.2241030354  MEMB      265             0.0000000000
     32876       265  QMPE      O14            32.8468568840      -11.2525939616      -18.9966263649  MEMB      265             0.0000000000
     32877       265  QMPE      O11            33.9305807481      -12.4976233687      -17.1253527314  MEMB      265             0.0000000000
     32878       265  QMPE      O12            34.0856117862      -13.3641328285      -19.5070896217  MEMB      265             0.0000000000
     32879       265  QMPE      C1             33.2566695871      -11.8383676163      -16.0300168373  MEMB      265             0.0000000000
     32880       265  QMPE      HA             32.9521345237      -12.5760489201      -15.2611737014  MEMB      265             0.0000000000
     32881       265  QMPE      HB             32.2698800159      -11.3772946672      -16.3217559691  MEMB      265             0.0000000000
     32882       265  QMPE      C2             34.2088355029      -10.7621908008      -15.3913891255  MEMB      265             0.0000000000
     32883       265  QMPE      HS             34.4251623159      -10.0902228581      -16.2574487418  MEMB      265             0.0000000000
     32884       265  QMPE      O21            35.4458340537      -11.3434169169      -14.8717142334  MEMB      265             0.0000000000
     32885       265  QMPE      C21            36.4576531969      -10.4752718391      -14.7695733011  MEMB      265             0.0000000000
     32886       265  QMPE      O22            36.3570862454       -9.3003117894      -15.0412625520  MEMB      265             0.0000000000
     32887       265  QMPE      C22            37.7444642953      -11.1500156085      -14.2709529838  MEMB      265             0.0000000000
     32888       265  QMPE      H2R            38.6161069715      -10.4734359145      -14.4354783603  MEMB      265             0.0000000000
     32889       265  QMPE      H2S            37.9908788075      -12.0539767833      -14.8692078645  MEMB      265             0.0000000000
     32890       265  QMPE      C3             33.5056776520       -9.9954903908      -14.2393059692  MEMB      265             0.0000000000
     32891       265  QMPE      HX             32.4624939367       -9.7811918329      -14.5587570684  MEMB      265             0.0000000000
     32892       265  QMPE      HY             34.0423535027       -9.0266908809      -14.0619583581  MEMB      265             0.0000000000
     32893       265  QMPE      O31            33.5056122753      -10.8515055520      -13.0695054441  MEMB      265             0.0000000000
     32894       265  QMPE      C31            33.1112640730      -10.3028778944      -11.9246294575  MEMB      265             0.0000000000
     32895       265  QMPE      O32            32.6412509457       -9.1917063799      -11.8132624307  MEMB      265             0.0000000000
     32896       265  QMPE      C32            33.2708455884      -11.2065348128      -10.7259788768  MEMB      265             0.0000000000
     32897       265  QMPE      H2X            33.8470181457      -10.7354683215       -9.9197321652  MEMB      265             0.0000000000
     32898       265  QMPE      H2Y            32.2844594781      -11.5312595348      -10.3388697303  MEMB      265             0.0000000000
     32899       265  QMPE      C23            37.4636028691      -11.7004621035      -12.8450605729  MEMB      265             0.0000000000
     32900       265  QMPE      H3R            38.3523282935      -12.2906629403      -12.4991610607  MEMB      265             0.0000000000
     32901       265  QMPE      H3S            36.4652334715      -12.1051071587      -12.7628110308  MEMB      265             0.0000000000
     32902       265  QMPE      C24            37.2158290045      -10.7810428416      -11.7459546189  MEMB      265             0.0000000000
     32903       265  QMPE      H4R            36.4743139649       -9.9304006582      -11.9149572744  MEMB      265             0.0000000000
     32904       265  QMPE      H4S            38.3648990523      -10.6355482105      -12.0861121198  MEMB      265             0.0000000000
     32905       265  QMPE      C25            37.1509836830      -10.9078237036      -10.1788978593  MEMB      265             0.0000000000
     32906       265  QMPE      H5R            38.1116393665      -11.5410857143      -10.2180477556  MEMB      265             0.0000000000
     32907       265  QMPE      H5S            36.3080311178      -11.4352621548      -10.0072106986  MEMB      265             0.0000000000
     32908       265  QMPE      C26            36.9796659088       -9.5589640666       -9.0862896605  MEMB      265             0.0000000000
     32909       265  QMPE      H6R            36.3065964232       -8.7846704198       -9.3633833556  MEMB      265             0.0000000000
     32910       265  QMPE      H6S            37.5126747127       -8.4768822696       -9.0540282435  MEMB      265             0.0000000000
     32911       265  QMPE      C27            36.8912478772       -9.9543728162       -7.8591396786  MEMB      265             0.0000000000
     32912       265  QMPE      H7R            37.8476909996      -10.1811299533       -7.6068803140  MEMB      265             0.0000000000
     32913       265  QMPE      H7S            36.7499935461      -10.9846334594       -7.8925809124  MEMB      265             0.0000000000
     32914       265  QMPE      C28            36.2121154231       -8.8347459474       -7.1350326888  MEMB      265             0.0000000000
     32915       265  QMPE      H8R            36.5723813758       -7.7552268069       -7.1759760811  MEMB      265             0.0000000000
     32916       265  QMPE      H8S            36.3892788855       -9.1839351073       -6.1801670198  MEMB      265             0.0000000000
     32917       265  QMPE      C29            34.8899878850       -8.8966405477       -7.4872593199  MEMB      265             0.0000000000
     32918       265  QMPE      H9R            34.4705556707       -9.8914055286       -7.4991904053  MEMB      265             0.0000000000
     32919       265  QMPE      C217           34.3494801030       -7.6725309965       -8.1638627575  MEMB      265             0.0000000000
     32920       265  QMPE      H17R           35.0628123851       -6.8826866137       -8.3614311281  MEMB      265             0.0000000000
     32921       265  QMPE      H17S           33.3979039831       -7.7878622973       -8.6379403723  MEMB      265             0.0000000000
     32922       265  QMPE      C210           34.1045858364       -7.9457909202       -6.6765047773  MEMB      265             0.0000000000
     32923       265  QMPE      H10R           33.0786600010       -8.2625439873       -6.5085162275  MEMB      265             0.0000000000
     32924       265  QMPE      C211           34.6576223272       -6.9312940185       -5.6661938818  MEMB      265             0.0000000000
     32925       265  QMPE      H11R           35.6710079742       -6.5777760774       -5.9157939076  MEMB      265             0.0000000000
     32926       265  QMPE      H11S           33.9791369862       -6.0620276816       -5.6830530170  MEMB      265             0.0000000000
     32927       265  QMPE      C212           34.6792674711       -7.4725743319       -4.2331342975  MEMB      265             0.0000000000
     32928       265  QMPE      H12R           35.1984546836       -8.4218707648       -4.3250087320  MEMB      265             0.0000000000
     32929       265  QMPE      H12S           33.6627129609       -7.7549153217       -3.9025545723  MEMB      265             0.0000000000
     32930       265  QMPE      C213           35.2566367298       -6.5096151555       -3.1803813572  MEMB      265             0.0000000000
     32931       265  QMPE      H13R           34.3358131707       -6.0809592258       -2.8863432026  MEMB      265             0.0000000000
     32932       265  QMPE      H13S           35.8911398921       -5.6663969365       -3.5370814853  MEMB      265             0.0000000000
     32933       265  QMPE      C214           35.7078064128       -7.1058688070       -1.8450862061  MEMB      265             0.0000000000
     32934       265  QMPE      H14R           35.8958659546       -6.3426429907       -1.0490535078  MEMB      265             0.0000000000
     32935       265  QMPE      H14S           36.6209400328       -7.6696952691       -2.0697065133  MEMB      265             0.0000000000
     32936       265  QMPE      C215           34.7985317385       -8.1698240481       -1.2324783695  MEMB      265             0.0000000000
     32937       265  QMPE      H15R           35.4252588009       -8.4915648773       -0.3593626263  MEMB      265             0.0000000000
     32938       265  QMPE      H15S           34.7003085695       -8.9772771269       -2.0084782949  MEMB      265             0.0000000000
     32939       265  QMPE      C216           33.4131170534       -7.6735994314       -0.7726038743  MEMB      265             0.0000000000
     32940       265  QMPE      H16R           33.1081954140       -7.9679781710        0.2584522704  MEMB      265             0.0000000000
     32941       265  QMPE      H16S           32.6348276954       -8.0555031528       -1.4653015603  MEMB      265             0.0000000000
     32942       265  QMPE      H16T           33.3712830966       -6.5670137841       -0.8257655382  MEMB      265             0.0000000000
     32943       265  QMPE      C33            33.9819736016      -12.4451624614      -11.0187165853  MEMB      265             0.0000000000
     32944       265  QMPE      H3X            34.9765529028      -12.4695023729      -11.4503463906  MEMB      265             0.0000000000
     32945       265  QMPE      H3Y            33.2848671388      -12.9976505972      -11.7790759480  MEMB      265             0.0000000000
     32946       265  QMPE      C34            34.3250810442      -13.2573152304       -9.7168190229  MEMB      265             0.0000000000
     32947       265  QMPE      H4X            34.6964252999      -14.3106218005       -9.5621335252  MEMB      265             0.0000000000
     32948       265  QMPE      H4Y            33.3049611104      -13.3005260775      -10.0271659035  MEMB      265             0.0000000000
     32949       265  QMPE      C35            34.5584818293      -12.9369344848       -8.3570666328  MEMB      265             0.0000000000
     32950       265  QMPE      H5X            33.7489651492      -12.2538400140       -8.1289000158  MEMB      265             0.0000000000
     32951       265  QMPE      H5Y            35.5024907053      -12.5004694068       -8.5728725487  MEMB      265             0.0000000000
     32952       265  QMPE      C36            34.6592711660      -14.1582679496       -7.4357407372  MEMB      265             0.0000000000
     32953       265  QMPE      H6X            35.4233844333      -14.8110709609       -7.7902541000  MEMB      265             0.0000000000
     32954       265  QMPE      H6Y            33.7557124217      -14.7045400927       -7.0986095402  MEMB      265             0.0000000000
     32955       265  QMPE      C37            35.0077561407      -13.7161428768       -6.1034509345  MEMB      265             0.0000000000
     32956       265  QMPE      H7X            34.2054427018      -12.9678322622       -5.9637295018  MEMB      265             0.0000000000
     32957       265  QMPE      H7Y            34.9700817529      -14.5626191639       -5.4512467318  MEMB      265             0.0000000000
     32958       265  QMPE      C38            36.3352902136      -13.0716063599       -5.9229497799  MEMB      265             0.0000000000
     32959       265  QMPE      H8X            37.1328286269      -13.6037366647       -6.4720577447  MEMB      265             0.0000000000
     32960       265  QMPE      H8Y            36.2025845154      -12.1132894054       -6.4418863470  MEMB      265             0.0000000000
     32961       265  QMPE      C39            36.5992719458      -12.8192445185       -4.4233659075  MEMB      265             0.0000000000
     32962       265  QMPE      H9X            36.7078487909      -13.7538893035       -3.8689615534  MEMB      265             0.0000000000
     32963       265  QMPE      H9Y            35.7140116971      -12.2701150421       -4.0292047320  MEMB      265             0.0000000000
     32964       265  QMPE      C310           37.8185440914      -11.9844726787       -4.1748235935  MEMB      265             0.0000000000
     32965       265  QMPE      H10X           37.5604315592      -11.4006615981       -5.0108367879  MEMB      265             0.0000000000
     32966       265  QMPE      H10Y           38.7833372372      -12.4662096738       -4.3605937491  MEMB      265             0.0000000000
     32967       265  QMPE      C311           37.8106285663      -11.1120777019       -2.9600455836  MEMB      265             0.0000000000
     32968       265  QMPE      H11X           36.8212021843      -10.7697316137       -2.6023683646  MEMB      265             0.0000000000
     32969       265  QMPE      H11Y           38.3730328315      -10.2880444636       -3.3495852611  MEMB      265             0.0000000000
     32970       265  QMPE      C312           38.6903822461      -11.4984186309       -1.8236651058  MEMB      265             0.0000000000
     32971       265  QMPE      H12X           38.6178888608      -10.7289493231       -0.9919331099  MEMB      265             0.0000000000
     32972       265  QMPE      H12Y           39.7181188716      -11.5531395461       -2.2174120589  MEMB      265             0.0000000000
     32973       265  QMPE      C313           38.2805083706      -12.7166654828       -1.2771771350  MEMB      265             0.0000000000
     32974       265  QMPE      H13X           37.1906074780      -12.4028602041       -1.1849465466  MEMB      265             0.0000000000
     32975       265  QMPE      H13Y           38.2558837294      -13.6039109632       -1.8964906084  MEMB      265             0.0000000000
     32976       265  QMPE      C314           39.1783527862      -13.0772161221       -0.0830276767  MEMB      265             0.0000000000
     32977       265  QMPE      H14X           39.1059668846      -12.3517939196        0.7732907898  MEMB      265             0.0000000000
     32978       265  QMPE      H14Y           40.2267615779      -13.2798989185       -0.2769509527  MEMB      265             0.0000000000
     32979       265  QMPE      C315           38.9734219918      -14.4947477195        0.2402692730  MEMB      265             0.0000000000
     32980       265  QMPE      H15X           39.5014219496      -14.8160124735        1.1152419257  MEMB      265             0.0000000000
     32981       265  QMPE      H15Y           38.1027541607      -14.8195697366        0.7868534175  MEMB      265             0.0000000000
     32982       265  QMPE      H15Z           38.4134861416      -15.1411999400       -0.4317216037  MEMB      265             0.0000000000
     32983       266  POPE      N              30.1241183849       22.4199490499      -20.2808650267  MEMB      266             0.0000000000
     32984       266  POPE      HN1            31.0800771194       22.1586323832      -20.5697282247  MEMB      266             0.0000000000
     32985       266  POPE      HN2            29.8220069721       21.7716542045      -19.5292785296  MEMB      266             0.0000000000
     32986       266  POPE      HN3            29.5099223912       22.3249475825      -21.1125231547  MEMB      266             0.0000000000
     32987       266  POPE      C12            29.9671601147       23.7576121389      -19.5957902620  MEMB      266             0.0000000000
     32988       266  POPE      H12A           29.5049854490       24.4466837184      -20.3281826947  MEMB      266             0.0000000000
     32989       266  POPE      H12B           30.9970811217       24.0976744026      -19.3570511505  MEMB      266             0.0000000000
     32990       266  POPE      C11            29.0595196904       23.5490860288      -18.3627591102  MEMB      266             0.0000000000
     32991       266  POPE      H11A           29.2063696800       24.3409019695      -17.5845454770  MEMB      266             0.0000000000
     32992       266  POPE      H11B           29.4185940759       22.6320256657      -17.8461825328  MEMB      266             0.0000000000
     32993       266  POPE      P              26.7147397212       24.6476718644      -18.8169953581  MEMB      266             0.0000000000
     32994       266  POPE      O13            25.4054655252       24.1479396679      -19.2607217979  MEMB      266             0.0000000000
     32995       266  POPE      O14            27.3905379330       25.6802767694      -19.6265793393  MEMB      266             0.0000000000
     32996       266  POPE      O11            26.7045177436       25.0840259454      -17.2905478145  MEMB      266             0.0000000000
     32997       266  POPE      O12            27.6936602329       23.3674146324      -18.7718511576  MEMB      266             0.0000000000
     32998       266  POPE      C1             26.1276345136       24.2824656309      -16.2613666413  MEMB      266             0.0000000000
     32999       266  POPE      HA             26.8839864938       23.5631103358      -15.8611500871  MEMB      266             0.0000000000
     33000       266  POPE      HB             25.2525925504       23.6986110617      -16.6294081116  MEMB      266             0.0000000000
     33001       266  POPE      C2             25.6641736479       25.1572853692      -15.0653177237  MEMB      266             0.0000000000
     33002       266  POPE      HS             24.6398627752       25.5220175283      -15.2887479241  MEMB      266             0.0000000000
     33003       266  POPE      O21            26.5088378469       26.2945495274      -14.9994739164  MEMB      266             0.0000000000
     33004       266  POPE      C21            26.4353134429       27.1305335144      -14.0651411971  MEMB      266             0.0000000000
     33005       266  POPE      O22            25.8120082022       27.2791521424      -13.0778649643  MEMB      266             0.0000000000
     33006       266  POPE      C22            27.3888467723       28.0867604461      -14.0675090263  MEMB      266             0.0000000000
     33007       266  POPE      H2R            26.8656529752       29.0225545984      -14.2126804886  MEMB      266             0.0000000000
     33008       266  POPE      H2S            28.0616191422       28.0783428108      -14.9063004397  MEMB      266             0.0000000000
     33009       266  POPE      C3             25.7151511115       24.3007939257      -13.7903187743  MEMB      266             0.0000000000
     33010       266  POPE      HX             25.3234367306       23.3160539929      -14.1037567619  MEMB      266             0.0000000000
     33011       266  POPE      HY             25.0273927643       24.4372270358      -13.0174267226  MEMB      266             0.0000000000
     33012       266  POPE      O31            27.0018738382       24.4148934516      -13.1718496270  MEMB      266             0.0000000000
     33013       266  POPE      C31            27.3556318507       23.4141528057      -12.4279746237  MEMB      266             0.0000000000
     33014       266  POPE      O32            26.6404321112       22.4745960195      -12.1142209165  MEMB      266             0.0000000000
     33015       266  POPE      C32            28.8411590848       23.5544052382      -12.0871643943  MEMB      266             0.0000000000
     33016       266  POPE      H2X            29.2481889350       24.5273879829      -12.4282717126  MEMB      266             0.0000000000
     33017       266  POPE      H2Y            29.4235765058       22.7462740088      -12.5932979425  MEMB      266             0.0000000000
     33018       266  POPE      C23            28.0824438735       28.2483064579      -12.7030113077  MEMB      266             0.0000000000
     33019       266  POPE      H3R            27.7948448083       27.3850222852      -12.1071992933  MEMB      266             0.0000000000
     33020       266  POPE      H3S            27.6793300541       29.1833757072      -12.1815988605  MEMB      266             0.0000000000
     33021       266  POPE      C24            29.6388479011       28.0280076358      -12.9292212327  MEMB      266             0.0000000000
     33022       266  POPE      H4R            30.2045575032       28.7602240896      -13.5616037457  MEMB      266             0.0000000000
     33023       266  POPE      H4S            29.7982081432       27.2390055616      -13.5636554307  MEMB      266             0.0000000000
     33024       266  POPE      C25            30.6652167630       27.8779324401      -11.8024167911  MEMB      266             0.0000000000
     33025       266  POPE      H5R            30.0367190572       28.2610739146      -10.9981368534  MEMB      266             0.0000000000
     33026       266  POPE      H5S            31.5356945638       28.5332704430      -12.0019106478  MEMB      266             0.0000000000
     33027       266  POPE      C26            30.6375913145       27.0225924592      -10.6516257664  MEMB      266             0.0000000000
     33028       266  POPE      H6R            31.0621645436       26.2777233140      -11.3138805514  MEMB      266             0.0000000000
     33029       266  POPE      H6S            29.5990229041       26.8302192682      -10.2119232508  MEMB      266             0.0000000000
     33030       266  POPE      C27            31.6358577310       27.4045397842       -9.5638375078  MEMB      266             0.0000000000
     33031       266  POPE      H7R            31.5338189258       28.3049550375       -8.9771982967  MEMB      266             0.0000000000
     33032       266  POPE      H7S            32.6316561550       27.5092396404       -9.9871899259  MEMB      266             0.0000000000
     33033       266  POPE      C28            31.4963644531       26.3479965151       -8.4926959713  MEMB      266             0.0000000000
     33034       266  POPE      H8R            31.5771035853       25.3956803602       -9.0489557799  MEMB      266             0.0000000000
     33035       266  POPE      H8S            30.4239502261       26.4281661686       -8.2095538087  MEMB      266             0.0000000000
     33036       266  POPE      C29            32.3474380681       26.2226007426       -7.2491601316  MEMB      266             0.0000000000
     33037       266  POPE      H91            33.4488618538       26.1576272395       -7.3652936546  MEMB      266             0.0000000000
     33038       266  POPE      C210           31.8945400958       26.2374771677       -5.9757726126  MEMB      266             0.0000000000
     33039       266  POPE      H101           32.5999239894       25.9474881634       -5.1935154922  MEMB      266             0.0000000000
     33040       266  POPE      C211           30.5300273548       26.3981342322       -5.3587706161  MEMB      266             0.0000000000
     33041       266  POPE      H11R           29.8978953138       27.0421247934       -5.9884202601  MEMB      266             0.0000000000
     33042       266  POPE      H11S           30.6670724594       27.0329739959       -4.4564554558  MEMB      266             0.0000000000
     33043       266  POPE      C212           29.7540116136       25.1600436999       -4.8824697672  MEMB      266             0.0000000000
     33044       266  POPE      H12R           30.4376677289       24.4106633965       -4.4159815096  MEMB      266             0.0000000000
     33045       266  POPE      H12S           29.2270452370       24.7071419528       -5.7539651600  MEMB      266             0.0000000000
     33046       266  POPE      C213           28.7060414124       25.4564268008       -3.8036675689  MEMB      266             0.0000000000
     33047       266  POPE      H13R           27.9219063785       26.1504423736       -4.1818714643  MEMB      266             0.0000000000
     33048       266  POPE      H13S           29.2093784618       25.8893700685       -2.9075311709  MEMB      266             0.0000000000
     33049       266  POPE      C214           27.9980963436       24.1443460434       -3.5023585104  MEMB      266             0.0000000000
     33050       266  POPE      H14R           28.7324318809       23.3171557838       -3.4290474812  MEMB      266             0.0000000000
     33051       266  POPE      H14S           27.4412336680       23.8756975101       -4.4187237286  MEMB      266             0.0000000000
     33052       266  POPE      C215           27.1554885141       24.1095512807       -2.2267747811  MEMB      266             0.0000000000
     33053       266  POPE      H15R           26.3173090707       23.4094676738       -2.4278163092  MEMB      266             0.0000000000
     33054       266  POPE      H15S           26.7618747217       25.1079339351       -1.9300958080  MEMB      266             0.0000000000
     33055       266  POPE      C216           28.0183995279       23.4996423101       -1.1458538951  MEMB      266             0.0000000000
     33056       266  POPE      H16R           28.8502993014       24.2149091110       -1.0439447488  MEMB      266             0.0000000000
     33057       266  POPE      H16S           28.4008984694       22.5331469580       -1.5359375083  MEMB      266             0.0000000000
     33058       266  POPE      C217           27.3787904755       23.2076357057        0.2036465122  MEMB      266             0.0000000000
     33059       266  POPE      H17R           27.8055080782       22.2684451815        0.6587568885  MEMB      266             0.0000000000
     33060       266  POPE      H17S           26.3945650963       22.9763867293       -0.1020255939  MEMB      266             0.0000000000
     33061       266  POPE      C218           27.2507940514       24.4140207714        1.1484953773  MEMB      266             0.0000000000
     33062       266  POPE      H18R           28.1883901110       24.8655459144        1.4145742106  MEMB      266             0.0000000000
     33063       266  POPE      H18S           26.8366130919       24.1705006251        2.1285169374  MEMB      266             0.0000000000
     33064       266  POPE      H18T           26.7880813108       25.3074046015        0.7251070588  MEMB      266             0.0000000000
     33065       266  POPE      C33            29.0529667210       23.4036057521      -10.5750213345  MEMB      266             0.0000000000
     33066       266  POPE      H3X            28.2772109547       22.7284139522      -10.1599947649  MEMB      266             0.0000000000
     33067       266  POPE      H3Y            29.0471546071       24.3712932659      -10.0286548360  MEMB      266             0.0000000000
     33068       266  POPE      C34            30.3685050207       22.7037581540      -10.3258210864  MEMB      266             0.0000000000
     33069       266  POPE      H4X            31.1265195527       23.4012784286      -10.7365538585  MEMB      266             0.0000000000
     33070       266  POPE      H4Y            30.3083073576       21.7506676295      -10.9122570385  MEMB      266             0.0000000000
     33071       266  POPE      C35            30.6836091454       22.4810877122       -8.8558440121  MEMB      266             0.0000000000
     33072       266  POPE      H5X            29.9161639846       21.8666816644       -8.3523549250  MEMB      266             0.0000000000
     33073       266  POPE      H5Y            30.8700347828       23.4556445364       -8.3421555529  MEMB      266             0.0000000000
     33074       266  POPE      C36            31.8029545394       21.5338571362       -8.6615563110  MEMB      266             0.0000000000
     33075       266  POPE      H6X            32.6675340222       21.9275717331       -9.0153319370  MEMB      266             0.0000000000
     33076       266  POPE      H6Y            31.8572579129       20.7223907039       -9.3827991255  MEMB      266             0.0000000000
     33077       266  POPE      C37            31.9436053235       20.9706617563       -7.3016695882  MEMB      266             0.0000000000
     33078       266  POPE      H7X            32.8822958746       20.3755753088       -7.3369734584  MEMB      266             0.0000000000
     33079       266  POPE      H7Y            31.0351612977       20.3342380852       -7.1676479587  MEMB      266             0.0000000000
     33080       266  POPE      C38            32.1559234810       21.8159973325       -6.0822811068  MEMB      266             0.0000000000
     33081       266  POPE      H8X            31.2714715264       22.4215304193       -6.0107009331  MEMB      266             0.0000000000
     33082       266  POPE      H8Y            33.1146070230       22.3475554621       -6.1348872951  MEMB      266             0.0000000000
     33083       266  POPE      C39            32.2487103924       21.1301229269       -4.7689183931  MEMB      266             0.0000000000
     33084       266  POPE      H9X            33.2725934220       20.6802473380       -4.8954721638  MEMB      266             0.0000000000
     33085       266  POPE      H9Y            31.4351464310       20.3424059271       -4.6569743684  MEMB      266             0.0000000000
     33086       266  POPE      C310           31.9687979385       21.8958646410       -3.5644800476  MEMB      266             0.0000000000
     33087       266  POPE      H10X           31.6467008764       21.1351394441       -2.8544624976  MEMB      266             0.0000000000
     33088       266  POPE      H10Y           31.0380923086       22.4425387366       -3.7538918741  MEMB      266             0.0000000000
     33089       266  POPE      C311           33.1759713913       22.6899097176       -3.1311964671  MEMB      266             0.0000000000
     33090       266  POPE      H11X           33.0136117551       23.6298949325       -3.6891087920  MEMB      266             0.0000000000
     33091       266  POPE      H11Y           34.1673610690       22.2271927293       -3.3479235407  MEMB      266             0.0000000000
     33092       266  POPE      C312           33.1636983751       22.9469511053       -1.6839684759  MEMB      266             0.0000000000
     33093       266  POPE      H12X           34.0453344451       23.4942833129       -1.2756151311  MEMB      266             0.0000000000
     33094       266  POPE      H12Y           33.2408915252       21.9822725703       -1.1673377775  MEMB      266             0.0000000000
     33095       266  POPE      C313           31.8835760068       23.6205921156       -1.3666954327  MEMB      266             0.0000000000
     33096       266  POPE      H13X           30.8738508755       23.1716247010       -1.4541096274  MEMB      266             0.0000000000
     33097       266  POPE      H13Y           31.8753162263       24.6770760937       -1.7674627224  MEMB      266             0.0000000000
     33098       266  POPE      C314           32.1702621953       23.5994697725       -0.0059592294  MEMB      266             0.0000000000
     33099       266  POPE      H14X           31.2783282494       24.7053815760       -0.2515696178  MEMB      266             0.0000000000
     33100       266  POPE      H14Y           33.2260363231       23.9397549741        0.3615282130  MEMB      266             0.0000000000
     33101       266  POPE      C315           31.7383809625       22.6456151806        1.8591299313  MEMB      266             0.0000000000
     33102       266  POPE      H15X           32.5475714897       22.2367347172        1.7469834797  MEMB      266             0.0000000000
     33103       266  POPE      H15Y           30.4489904796       22.0645867822        1.7931271411  MEMB      266             0.0000000000
     33104       266  POPE      C316           31.1764280498       23.1408827693        3.0946595708  MEMB      266             0.0000000000
     33105       266  POPE      H16X           31.9866801346       23.6951983553        3.5319743683  MEMB      266             0.0000000000
     33106       266  POPE      H16Y           30.4042939095       22.5328038042        3.4717785899  MEMB      266             0.0000000000
     33107       266  POPE      H16Z           30.5075854053       24.0300739547        3.1950477386  MEMB      266             0.0000000000
     33108       267  PMPE      N              30.4595589551      -23.3580684497      -19.9773174828  MEMB      267             0.0000000000
     33109       267  PMPE      HN1            30.8913448174      -23.4164107736      -20.9179012832  MEMB      267             0.0000000000
     33110       267  PMPE      HN2            30.1143816709      -24.3041472828      -19.7045975694  MEMB      267             0.0000000000
     33111       267  PMPE      HN3            29.6229835803      -22.7133202683      -19.9861467213  MEMB      267             0.0000000000
     33112       267  PMPE      C12            31.4617300224      -22.7453489957      -18.9968197057  MEMB      267             0.0000000000
     33113       267  PMPE      H12A           32.3487744009      -23.3862861236      -18.8440811427  MEMB      267             0.0000000000
     33114       267  PMPE      H12B           30.9273784328      -22.7135838053      -18.0275736057  MEMB      267             0.0000000000
     33115       267  PMPE      C11            31.9578726634      -21.3315957820      -19.3941111558  MEMB      267             0.0000000000
     33116       267  PMPE      H11A           32.7211273740      -21.3317214809      -20.2152408731  MEMB      267             0.0000000000
     33117       267  PMPE      H11B           32.4729915097      -20.9142744080      -18.4943504191  MEMB      267             0.0000000000
     33118       267  PMPE      P              30.0318035652      -19.6838474918      -18.7010053784  MEMB      267             0.0000000000
     33119       267  PMPE      O13            29.2033275905      -20.6240579583      -17.9270818401  MEMB      267             0.0000000000
     33120       267  PMPE      O14            29.4041434231      -18.5666935938      -19.4516840901  MEMB      267             0.0000000000
     33121       267  PMPE      O11            31.2121559995      -19.1584397319      -17.8199192269  MEMB      267             0.0000000000
     33122       267  PMPE      O12            30.8597924124      -20.5160460086      -19.7806971456  MEMB      267             0.0000000000
     33123       267  PMPE      C1             32.0354870379      -18.0793636744      -18.2664777199  MEMB      267             0.0000000000
     33124       267  PMPE      HA             31.6775933436      -17.5260499448      -19.1763286136  MEMB      267             0.0000000000
     33125       267  PMPE      HB             33.0644911411      -18.4357845681      -18.3933239701  MEMB      267             0.0000000000
     33126       267  PMPE      C2             32.2470637847      -16.9870799377      -17.2300641369  MEMB      267             0.0000000000
     33127       267  PMPE      HS             32.9366144404      -16.2867595554      -17.7038322166  MEMB      267             0.0000000000
     33128       267  PMPE      O21            32.7429060464      -17.4977609390      -15.9981016360  MEMB      267             0.0000000000
     33129       267  PMPE      C21            33.4795984445      -16.6845598164      -15.3037092842  MEMB      267             0.0000000000
     33130       267  PMPE      O22            33.7648032296      -15.5287413758      -15.5431743401  MEMB      267             0.0000000000
     33131       267  PMPE      C22            33.8644381980      -17.3916876443      -14.1122930397  MEMB      267             0.0000000000
     33132       267  PMPE      H2R            34.9375330216      -17.5919960308      -14.0310464266  MEMB      267             0.0000000000
     33133       267  PMPE      H2S            33.3494792763      -18.3642566324      -14.0084011760  MEMB      267             0.0000000000
     33134       267  PMPE      C3             30.9869449131      -16.3762170585      -16.9902576695  MEMB      267             0.0000000000
     33135       267  PMPE      HX             30.4240759970      -16.2083710407      -17.9821963449  MEMB      267             0.0000000000
     33136       267  PMPE      HY             31.0848101415      -15.3102057592      -16.5724919513  MEMB      267             0.0000000000
     33137       267  PMPE      O31            30.3124856952      -17.3899363595      -16.1093314177  MEMB      267             0.0000000000
     33138       267  PMPE      C31            29.9656383414      -17.3002065452      -14.7364852198  MEMB      267             0.0000000000
     33139       267  PMPE      O32            30.2179341269      -16.3231243489      -14.0564366136  MEMB      267             0.0000000000
     33140       267  PMPE      C32            28.9778909223      -18.3913959169      -14.2662286199  MEMB      267             0.0000000000
     33141       267  PMPE      H2X            29.5734366447      -19.2704200526      -14.3594236592  MEMB      267             0.0000000000
     33142       267  PMPE      H2Y            28.0994593817      -18.7629532861      -14.7912033200  MEMB      267             0.0000000000
     33143       267  PMPE      C23            33.2699178154      -16.4545700662      -13.1409723088  MEMB      267             0.0000000000
     33144       267  PMPE      H3R            33.6311438261      -17.0781430826      -12.5908985773  MEMB      267             0.0000000000
     33145       267  PMPE      H3S            32.2571959678      -16.6117345731      -12.8186465892  MEMB      267             0.0000000000
     33146       267  PMPE      C24            33.9865402560      -15.2791270608      -12.7529295885  MEMB      267             0.0000000000
     33147       267  PMPE      H4R            33.3739203858      -14.5075887832      -13.2149101478  MEMB      267             0.0000000000
     33148       267  PMPE      H4S            35.0842145320      -15.2386897414      -13.0074215115  MEMB      267             0.0000000000
     33149       267  PMPE      C25            33.9039301129      -15.1887725332      -11.3376888149  MEMB      267             0.0000000000
     33150       267  PMPE      H5R            34.7061008170      -14.4008771761      -11.4579986797  MEMB      267             0.0000000000
     33151       267  PMPE      H5S            34.6942209858      -15.5981070732      -10.8190171059  MEMB      267             0.0000000000
     33152       267  PMPE      C26            32.4897915916      -15.1856610143      -10.4574009613  MEMB      267             0.0000000000
     33153       267  PMPE      H6R            32.2135354853      -16.2084610673      -10.2508345698  MEMB      267             0.0000000000
     33154       267  PMPE      H6S            31.8783674990      -14.4962724277      -11.0642020149  MEMB      267             0.0000000000
     33155       267  PMPE      C27            32.1795134788      -14.6313474834       -8.9086269161  MEMB      267             0.0000000000
     33156       267  PMPE      H7R            32.4785990946      -13.5991391246       -8.5454710298  MEMB      267             0.0000000000
     33157       267  PMPE      H7S            32.7919582808      -15.3136327686       -8.3826641683  MEMB      267             0.0000000000
     33158       267  PMPE      C28            30.9951372195      -13.8548762201       -8.4765702602  MEMB      267             0.0000000000
     33159       267  PMPE      H8R            30.7546501697      -13.0280844216       -9.1882469044  MEMB      267             0.0000000000
     33160       267  PMPE      H8S            31.1215347094      -13.3509295908       -7.4657295603  MEMB      267             0.0000000000
     33161       267  PMPE      C29            30.1527330157      -15.0334221675       -8.5535401657  MEMB      267             0.0000000000
     33162       267  PMPE      H9R            29.8462639140      -15.3556648946       -9.5597948067  MEMB      267             0.0000000000
     33163       267  PMPE      C217           29.0590832586      -15.0750187491       -7.5206473361  MEMB      267             0.0000000000
     33164       267  PMPE      H17R           28.1755032913      -15.5580644945       -7.8395001281  MEMB      267             0.0000000000
     33165       267  PMPE      H17S           29.1611342460      -14.2146887877       -7.0176063574  MEMB      267             0.0000000000
     33166       267  PMPE      C210           30.1464032268      -15.9619725771       -7.4186419579  MEMB      267             0.0000000000
     33167       267  PMPE      H10R           29.7193578659      -16.9303973146       -7.6652181357  MEMB      267             0.0000000000
     33168       267  PMPE      C211           30.9713687520      -15.5996998721       -6.2229314803  MEMB      267             0.0000000000
     33169       267  PMPE      H11R           30.9032819387      -14.5432479164       -5.8900263964  MEMB      267             0.0000000000
     33170       267  PMPE      H11S           32.0206812222      -15.8008625773       -6.4715202268  MEMB      267             0.0000000000
     33171       267  PMPE      C212           30.5257225425      -16.4116035190       -5.0589594786  MEMB      267             0.0000000000
     33172       267  PMPE      H12R           29.5738388789      -16.3326789014       -4.9272147345  MEMB      267             0.0000000000
     33173       267  PMPE      H12S           30.9222478756      -15.9810243938       -4.1251541860  MEMB      267             0.0000000000
     33174       267  PMPE      C213           30.4493305067      -17.9645233723       -5.2265417701  MEMB      267             0.0000000000
     33175       267  PMPE      H13R           31.1983411352      -17.7208346698       -5.9144078385  MEMB      267             0.0000000000
     33176       267  PMPE      H13S           30.2371807192      -18.5816559898       -6.0288872495  MEMB      267             0.0000000000
     33177       267  PMPE      C214           30.6149839630      -18.7823849585       -3.8810209582  MEMB      267             0.0000000000
     33178       267  PMPE      H14R           31.0409426006      -18.0835020115       -3.1395811815  MEMB      267             0.0000000000
     33179       267  PMPE      H14S           31.2701424572      -19.5634596634       -3.6036740959  MEMB      267             0.0000000000
     33180       267  PMPE      C215           29.5799850634      -19.7666021982       -3.5599763541  MEMB      267             0.0000000000
     33181       267  PMPE      H15R           28.8603489688      -20.0278518788       -4.2708357228  MEMB      267             0.0000000000
     33182       267  PMPE      H15S           29.0218911095      -18.9824916830       -3.4063153058  MEMB      267             0.0000000000
     33183       267  PMPE      C216           29.5992151612      -20.5581977950       -2.2605824761  MEMB      267             0.0000000000
     33184       267  PMPE      H16R           29.8352351928      -20.0135666336       -1.3564703528  MEMB      267             0.0000000000
     33185       267  PMPE      H16S           28.6092611311      -20.7949792972       -1.8374718494  MEMB      267             0.0000000000
     33186       267  PMPE      H16T           30.5405226252      -20.9197730775       -1.9995768927  MEMB      267             0.0000000000
     33187       267  PMPE      C33            28.2044847023      -18.1016372176      -13.0256886391  MEMB      267             0.0000000000
     33188       267  PMPE      H3X            27.3981087686      -18.8349453548      -12.9244520630  MEMB      267             0.0000000000
     33189       267  PMPE      H3Y            27.5617600177      -17.2442181985      -12.9925959033  MEMB      267             0.0000000000
     33190       267  PMPE      C34            29.1465900917      -18.0723616052      -11.8786631323  MEMB      267             0.0000000000
     33191       267  PMPE      H4X            28.5106730898      -17.7640295847      -11.0384328401  MEMB      267             0.0000000000
     33192       267  PMPE      H4Y            29.9360795603      -17.3116791244      -12.0161086753  MEMB      267             0.0000000000
     33193       267  PMPE      C35            29.9076325590      -19.3819006428      -11.7255796400  MEMB      267             0.0000000000
     33194       267  PMPE      H5X            30.9054381760      -19.2859560601      -12.1950961423  MEMB      267             0.0000000000
     33195       267  PMPE      H5Y            29.3094934244      -20.1480946212      -12.2687131313  MEMB      267             0.0000000000
     33196       267  PMPE      C36            30.0988737651      -19.8597546933      -10.2948988433  MEMB      267             0.0000000000
     33197       267  PMPE      H6X            30.5043861789      -20.9040698628      -10.2585805510  MEMB      267             0.0000000000
     33198       267  PMPE      H6Y            29.0630940938      -19.8194556826       -9.9346635338  MEMB      267             0.0000000000
     33199       267  PMPE      C37            30.9558588724      -19.0287838781       -9.3665072286  MEMB      267             0.0000000000
     33200       267  PMPE      H7X            30.8334550771      -19.3686785755       -8.3378063008  MEMB      267             0.0000000000
     33201       267  PMPE      H7Y            30.9058722655      -17.9185306298       -9.4721213616  MEMB      267             0.0000000000
     33202       267  PMPE      C38            32.3468261436      -19.3508945130       -9.4970953546  MEMB      267             0.0000000000
     33203       267  PMPE      H8X            32.2682324690      -19.2676187456      -10.6049675796  MEMB      267             0.0000000000
     33204       267  PMPE      H8Y            32.7347821383      -20.3686223369       -9.4704935908  MEMB      267             0.0000000000
     33205       267  PMPE      C39            33.0985497404      -18.2963711969       -8.5651098952  MEMB      267             0.0000000000
     33206       267  PMPE      H9X            32.9772782148      -18.8092373249       -7.7567869468  MEMB      267             0.0000000000
     33207       267  PMPE      H9Y            33.0735188642      -17.2449203832       -8.4804424680  MEMB      267             0.0000000000
     33208       267  PMPE      C310           34.4983826207      -18.1120389140       -8.6434498758  MEMB      267             0.0000000000
     33209       267  PMPE      H10X           34.5191518698      -19.0762181554       -9.3377215666  MEMB      267             0.0000000000
     33210       267  PMPE      H10Y           35.1042914376      -18.6202164599       -8.4557817512  MEMB      267             0.0000000000
     33211       267  PMPE      C311           35.9101698849      -17.2495767630       -8.1649054862  MEMB      267             0.0000000000
     33212       267  PMPE      H11X           35.3471890582      -16.3989496255       -8.3183116318  MEMB      267             0.0000000000
     33213       267  PMPE      H11Y           36.8834441865      -17.1452131113       -8.8353712584  MEMB      267             0.0000000000
     33214       267  PMPE      C312           36.6879364018      -17.6275590269       -7.0162280254  MEMB      267             0.0000000000
     33215       267  PMPE      H12X           37.3728128119      -16.8326947753       -6.8256964775  MEMB      267             0.0000000000
     33216       267  PMPE      H12Y           37.0932593444      -18.6104756989       -7.0363300755  MEMB      267             0.0000000000
     33217       267  PMPE      C313           35.9781987898      -17.4903865214       -5.9243401270  MEMB      267             0.0000000000
     33218       267  PMPE      H13X           35.3916837233      -18.2642548350       -5.5246060627  MEMB      267             0.0000000000
     33219       267  PMPE      H13Y           35.0750084983      -16.9178407960       -6.3866626052  MEMB      267             0.0000000000
     33220       267  PMPE      C314           36.2828042293      -18.1171106940       -4.4983189127  MEMB      267             0.0000000000
     33221       267  PMPE      H14X           36.5909967964      -17.1875831375       -4.0780166578  MEMB      267             0.0000000000
     33222       267  PMPE      H14Y           36.8613859933      -19.0297532559       -4.4920744212  MEMB      267             0.0000000000
     33223       267  PMPE      C315           35.1566058321      -18.2653825870       -3.4540772047  MEMB      267             0.0000000000
     33224       267  PMPE      H15X           35.4086174214      -18.9257707958       -2.7192442048  MEMB      267             0.0000000000
     33225       267  PMPE      H15Y           34.5460166009      -19.1171877281       -3.7945496535  MEMB      267             0.0000000000
     33226       267  PMPE      C316           33.5350153169      -16.0150250521       -2.7985421986  MEMB      267             0.0000000000
     33227       267  PMPE      H16X           32.6817759280      -15.8744728199       -3.4879882167  MEMB      267             0.0000000000
     33228       267  PMPE      H16Y           34.5353674145      -15.9488043827       -2.8471251830  MEMB      267             0.0000000000
     33229       267  PMPE      H16Z           32.9349194249      -17.1263502058       -2.9320307383  MEMB      267             0.0000000000
     33230       268  PMPE      N             -29.3130182226      -18.4972196195      -18.0398921249  MEMB      268             0.0000000000
     33231       268  PMPE      HN1           -29.4000987365      -18.5433631878      -17.0056829736  MEMB      268             0.0000000000
     33232       268  PMPE      HN2           -28.3057884110      -18.3302573712      -18.2751136009  MEMB      268             0.0000000000
     33233       268  PMPE      HN3           -29.8936231090      -17.7134703401      -18.4214820254  MEMB      268             0.0000000000
     33234       268  PMPE      C12           -29.8814119582      -19.7962844106      -18.5806027069  MEMB      268             0.0000000000
     33235       268  PMPE      H12A          -29.4528505556      -20.6298373025      -17.9849882813  MEMB      268             0.0000000000
     33236       268  PMPE      H12B          -29.5988360122      -19.8696059633      -19.6446824764  MEMB      268             0.0000000000
     33237       268  PMPE      C11           -31.4154291768      -19.8593334678      -18.4780963894  MEMB      268             0.0000000000
     33238       268  PMPE      H11A          -31.6571271026      -19.5671032366      -17.4281677055  MEMB      268             0.0000000000
     33239       268  PMPE      H11B          -31.7830333385      -20.8958961594      -18.6669274603  MEMB      268             0.0000000000
     33240       268  PMPE      P             -33.6138134863      -18.8939867067      -19.4390889360  MEMB      268             0.0000000000
     33241       268  PMPE      O13           -34.1982992333      -20.2568901541      -19.3540604159  MEMB      268             0.0000000000
     33242       268  PMPE      O14           -34.0838342905      -18.0436073102      -20.5462476213  MEMB      268             0.0000000000
     33243       268  PMPE      O11           -33.8733407934      -18.1486491587      -18.0777893857  MEMB      268             0.0000000000
     33244       268  PMPE      O12           -32.0122399086      -18.9894571638      -19.4357871706  MEMB      268             0.0000000000
     33245       268  PMPE      C1            -33.2956827889      -16.9157164338      -17.6617433448  MEMB      268             0.0000000000
     33246       268  PMPE      HA            -33.7627572391      -16.0793924744      -18.2179941926  MEMB      268             0.0000000000
     33247       268  PMPE      HB            -32.1866178300      -16.9025621827      -17.7845016013  MEMB      268             0.0000000000
     33248       268  PMPE      C2            -33.4951222659      -16.6984347907      -16.1413916542  MEMB      268             0.0000000000
     33249       268  PMPE      HS            -32.8515546201      -15.8451177748      -15.8607593967  MEMB      268             0.0000000000
     33250       268  PMPE      O21           -33.0147351976      -17.8735501474      -15.5104639001  MEMB      268             0.0000000000
     33251       268  PMPE      C21           -32.5133703662      -17.8506653286      -14.3038144701  MEMB      268             0.0000000000
     33252       268  PMPE      O22           -32.2406467867      -16.8722052492      -13.6354536001  MEMB      268             0.0000000000
     33253       268  PMPE      C22           -32.3316552212      -19.3116089117      -13.8983143815  MEMB      268             0.0000000000
     33254       268  PMPE      H2R           -32.1254841723      -19.3570907843      -12.8082638987  MEMB      268             0.0000000000
     33255       268  PMPE      H2S           -31.4456647828      -19.6949449208      -14.4364236384  MEMB      268             0.0000000000
     33256       268  PMPE      C3            -34.9836956854      -16.4142492626      -15.7731686183  MEMB      268             0.0000000000
     33257       268  PMPE      HX            -35.5948677877      -17.1357059162      -16.3656155852  MEMB      268             0.0000000000
     33258       268  PMPE      HY            -35.2078122036      -15.3464529191      -15.9958619341  MEMB      268             0.0000000000
     33259       268  PMPE      O31           -35.2804543957      -16.6954357283      -14.4197977949  MEMB      268             0.0000000000
     33260       268  PMPE      C31           -35.0676706964      -15.7306663710      -13.5929387012  MEMB      268             0.0000000000
     33261       268  PMPE      O32           -34.9203750572      -14.5510968070      -13.8157635441  MEMB      268             0.0000000000
     33262       268  PMPE      C32           -35.0220485846      -16.3838104258      -12.3001146218  MEMB      268             0.0000000000
     33263       268  PMPE      H2X           -34.7642741147      -17.3686716783      -12.1073142450  MEMB      268             0.0000000000
     33264       268  PMPE      H2Y           -36.1807614237      -16.4890890446      -12.1522706295  MEMB      268             0.0000000000
     33265       268  PMPE      C23           -33.6117775411      -20.0786317948      -14.3380653739  MEMB      268             0.0000000000
     33266       268  PMPE      H3R           -33.8866632524      -19.8324453641      -15.3858711472  MEMB      268             0.0000000000
     33267       268  PMPE      H3S           -34.4524304213      -19.6755869800      -13.7359678347  MEMB      268             0.0000000000
     33268       268  PMPE      C24           -33.5310170186      -21.6083603513      -14.3587624910  MEMB      268             0.0000000000
     33269       268  PMPE      H4R           -32.8582261790      -21.9437927745      -15.1817395956  MEMB      268             0.0000000000
     33270       268  PMPE      H4S           -34.5375119822      -22.0351985443      -14.6041772454  MEMB      268             0.0000000000
     33271       268  PMPE      C25           -32.9658916542      -22.1718436560      -13.0526942828  MEMB      268             0.0000000000
     33272       268  PMPE      H5R           -31.8914875753      -21.9046876107      -12.9747721106  MEMB      268             0.0000000000
     33273       268  PMPE      H5S           -32.9924967984      -23.2769258976      -13.1455302216  MEMB      268             0.0000000000
     33274       268  PMPE      C26           -33.6796209851      -21.7008742959      -11.7693843845  MEMB      268             0.0000000000
     33275       268  PMPE      H6R           -34.7781598003      -21.7588448691      -11.9555080117  MEMB      268             0.0000000000
     33276       268  PMPE      H6S           -33.4165805209      -20.6554505467      -11.4784684682  MEMB      268             0.0000000000
     33277       268  PMPE      C27           -33.2612831434      -22.4816998350      -10.5286644580  MEMB      268             0.0000000000
     33278       268  PMPE      H7R           -32.1701107311      -22.4284881733      -10.3675554221  MEMB      268             0.0000000000
     33279       268  PMPE      H7S           -33.3614185523      -23.5081250682      -10.6915120039  MEMB      268             0.0000000000
     33280       268  PMPE      C28           -33.9603456069      -22.0144053478       -9.2453578310  MEMB      268             0.0000000000
     33281       268  PMPE      H8R           -33.7416253680      -20.9229257091       -9.1987308386  MEMB      268             0.0000000000
     33282       268  PMPE      H8S           -33.4986547691      -22.5717517355       -8.3956098860  MEMB      268             0.0000000000
     33283       268  PMPE      C29           -35.4683570800      -22.3058359760       -9.1822511792  MEMB      268             0.0000000000
     33284       268  PMPE      H9R           -35.8135498498      -23.2568280445       -9.6187251537  MEMB      268             0.0000000000
     33285       268  PMPE      C217          -36.4650864451      -21.1658266360       -9.4180738847  MEMB      268             0.0000000000
     33286       268  PMPE      H17R          -37.2451618481      -21.5599756364      -10.0609723954  MEMB      268             0.0000000000
     33287       268  PMPE      H17S          -36.0298332752      -20.1816871758       -9.4939738553  MEMB      268             0.0000000000
     33288       268  PMPE      C210          -36.2944131053      -21.7696421803       -8.0239868780  MEMB      268             0.0000000000
     33289       268  PMPE      H10R          -37.0960602215      -22.4392113660       -7.6589250692  MEMB      268             0.0000000000
     33290       268  PMPE      C211          -35.6094370851      -20.8632537747       -6.9860720946  MEMB      268             0.0000000000
     33291       268  PMPE      H11R          -36.4153269775      -20.4305658916       -6.3535812301  MEMB      268             0.0000000000
     33292       268  PMPE      H11S          -35.0549479780      -20.0480451348       -7.5035592910  MEMB      268             0.0000000000
     33293       268  PMPE      C212          -34.6665013822      -21.5943572634       -6.0150684703  MEMB      268             0.0000000000
     33294       268  PMPE      H12R          -34.2872134844      -22.5093069648       -6.5148105321  MEMB      268             0.0000000000
     33295       268  PMPE      H12S          -35.2907108142      -21.8857570992       -5.1399892450  MEMB      268             0.0000000000
     33296       268  PMPE      C213          -33.5330769669      -20.7102616681       -5.4616492708  MEMB      268             0.0000000000
     33297       268  PMPE      H13R          -34.0138383033      -19.8450593931       -4.9351427880  MEMB      268             0.0000000000
     33298       268  PMPE      H13S          -32.8912482564      -20.3539094395       -6.2851681920  MEMB      268             0.0000000000
     33299       268  PMPE      C214          -32.6707217002      -21.4157408519       -4.4540718961  MEMB      268             0.0000000000
     33300       268  PMPE      H14R          -31.9444779963      -20.7069417398       -3.9584446242  MEMB      268             0.0000000000
     33301       268  PMPE      H14S          -32.0980057637      -22.2838619586       -4.8540657414  MEMB      268             0.0000000000
     33302       268  PMPE      C215          -33.5698592587      -21.9711503909       -3.4513667954  MEMB      268             0.0000000000
     33303       268  PMPE      H15R          -34.0107027318      -22.9705831431       -3.6847375064  MEMB      268             0.0000000000
     33304       268  PMPE      H15S          -34.4300824581      -21.2519345124       -3.1497969433  MEMB      268             0.0000000000
     33305       268  PMPE      C216          -32.5516967671      -22.1436015127       -2.4260835638  MEMB      268             0.0000000000
     33306       268  PMPE      H16R          -32.3166854518      -21.4542598094       -1.6615337767  MEMB      268             0.0000000000
     33307       268  PMPE      H16S          -33.4999957230      -22.0260340977       -1.9913411786  MEMB      268             0.0000000000
     33308       268  PMPE      H16T          -32.1402762811      -23.1211430731       -2.0803345344  MEMB      268             0.0000000000
     33309       268  PMPE      C33           -33.8657804421      -15.9095910168      -11.2534913976  MEMB      268             0.0000000000
     33310       268  PMPE      H3X           -34.2308210758      -15.2288737127      -10.6479545430  MEMB      268             0.0000000000
     33311       268  PMPE      H3Y           -33.1990966350      -15.0869684220      -11.5536638630  MEMB      268             0.0000000000
     33312       268  PMPE      C34           -33.7085487728      -16.4444955871       -9.7813019315  MEMB      268             0.0000000000
     33313       268  PMPE      H4X           -33.2741539928      -15.5799407505       -9.1232932918  MEMB      268             0.0000000000
     33314       268  PMPE      H4Y           -33.0186778683      -17.1811423806       -9.8968037107  MEMB      268             0.0000000000
     33315       268  PMPE      C35           -34.7839361298      -17.3755055631       -8.9480275436  MEMB      268             0.0000000000
     33316       268  PMPE      H5X           -34.5495145896      -17.1946638003       -7.8727294850  MEMB      268             0.0000000000
     33317       268  PMPE      H5Y           -35.5902897044      -17.7076736173       -9.4658587333  MEMB      268             0.0000000000
     33318       268  PMPE      C36           -36.3039801200      -16.9390491110       -8.3907088206  MEMB      268             0.0000000000
     33319       268  PMPE      H6X           -37.2706080082      -16.5124102485       -8.6972479250  MEMB      268             0.0000000000
     33320       268  PMPE      H6Y           -36.9875670477      -16.6349808304       -9.3679256514  MEMB      268             0.0000000000
     33321       268  PMPE      C37           -35.5855333223      -14.1546954001       -7.1014496747  MEMB      268             0.0000000000
     33322       268  PMPE      H7X           -36.5158593815      -13.5499712926       -7.5622534635  MEMB      268             0.0000000000
     33323       268  PMPE      H7Y           -35.0140431567      -13.4591902229       -7.8868284639  MEMB      268             0.0000000000
     33324       268  PMPE      C38           -34.8770199190      -14.4917351612       -6.0997596137  MEMB      268             0.0000000000
     33325       268  PMPE      H8X           -34.9306959763      -13.4463344573       -5.8157381492  MEMB      268             0.0000000000
     33326       268  PMPE      H8Y           -33.9269678082      -14.8616281274       -6.5003592428  MEMB      268             0.0000000000
     33327       268  PMPE      C39           -35.4168687260      -15.4992406671       -5.1315025251  MEMB      268             0.0000000000
     33328       268  PMPE      H9X           -35.4432913295      -16.5202720428       -5.5797231982  MEMB      268             0.0000000000
     33329       268  PMPE      H9Y           -36.3758516941      -15.1746928428       -4.6737135022  MEMB      268             0.0000000000
     33330       268  PMPE      C310          -34.4812178202      -15.9201172926       -4.1409019556  MEMB      268             0.0000000000
     33331       268  PMPE      H10X          -34.1192594400      -14.9427556177       -3.8164527915  MEMB      268             0.0000000000
     33332       268  PMPE      H10Y          -33.6949934263      -16.4886266734       -4.6984091429  MEMB      268             0.0000000000
     33333       268  PMPE      C311          -35.1627931524      -16.7633071618       -3.0643315614  MEMB      268             0.0000000000
     33334       268  PMPE      H11X          -35.7143720171      -17.6157707613       -3.5180652107  MEMB      268             0.0000000000
     33335       268  PMPE      H11Y          -35.9588612125      -16.2081261586       -2.5213706253  MEMB      268             0.0000000000
     33336       268  PMPE      C312          -34.0787397737      -17.2708511642       -2.1239089242  MEMB      268             0.0000000000
     33337       268  PMPE      H12X          -33.6198574827      -16.4312561138       -1.5684783158  MEMB      268             0.0000000000
     33338       268  PMPE      H12Y          -33.2516061708      -17.7182380098       -2.7244973073  MEMB      268             0.0000000000
     33339       268  PMPE      C313          -34.5326661498      -18.2613384294       -1.0832706945  MEMB      268             0.0000000000
     33340       268  PMPE      H13X          -34.6309429602      -19.2494996489       -1.5634517578  MEMB      268             0.0000000000
     33341       268  PMPE      H13Y          -35.4778664809      -18.0417169960       -0.5515397120  MEMB      268             0.0000000000
     33342       268  PMPE      C314          -33.5456248964      -18.3221245978       -0.0007196287  MEMB      268             0.0000000000
     33343       268  PMPE      H14X          -33.6696332334      -17.4701398647        0.6935617400  MEMB      268             0.0000000000
     33344       268  PMPE      H14Y          -32.4886812485      -18.2304943130       -0.3199430914  MEMB      268             0.0000000000
     33345       268  PMPE      C315          -33.7957866234      -19.5659666409        0.8849505688  MEMB      268             0.0000000000
     33346       268  PMPE      H15X          -34.0927522666      -20.1554498181        0.0893759149  MEMB      268             0.0000000000
     33347       268  PMPE      H15Y          -34.7385859303      -19.3035870698        1.4403356331  MEMB      268             0.0000000000
     33348       268  PMPE      C316          -32.5112950493      -20.4172394267        2.1606884622  MEMB      268             0.0000000000
     33349       268  PMPE      H16X          -31.6953326840      -20.7871504635        2.2026962374  MEMB      268             0.0000000000
     33350       268  PMPE      H16Y          -32.9830208870      -20.7314626884        2.8683892644  MEMB      268             0.0000000000
     33351       268  PMPE      H16Z          -31.3664345867      -19.9249970682        2.1519159599  MEMB      268             0.0000000000
     33352       269  OYPE      N               9.8877202623      -36.3026812483      -18.8523117733  MEMB      269             0.0000000000
     33353       269  OYPE      HN1            10.5447401811      -37.1065552813      -18.9129817515  MEMB      269             0.0000000000
     33354       269  OYPE      HN2             9.1556488812      -36.3959516376      -19.5950156717  MEMB      269             0.0000000000
     33355       269  OYPE      HN3            10.4244418303      -35.4060691001      -18.8599990279  MEMB      269             0.0000000000
     33356       269  OYPE      C12             9.1622821241      -36.3374319966      -17.5513569511  MEMB      269             0.0000000000
     33357       269  OYPE      H12A            8.8150993326      -35.3135047193      -17.3189005176  MEMB      269             0.0000000000
     33358       269  OYPE      H12B            9.9315129871      -36.5996751446      -16.8053290189  MEMB      269             0.0000000000
     33359       269  OYPE      C11             8.0583399571      -37.4089275405      -17.4937151087  MEMB      269             0.0000000000
     33360       269  OYPE      H11A            7.7105544455      -37.3809849949      -16.4329310311  MEMB      269             0.0000000000
     33361       269  OYPE      H11B            8.5108115582      -38.4109140990      -17.6473189756  MEMB      269             0.0000000000
     33362       269  OYPE      P               6.6497732198      -38.0677812245      -19.6867334679  MEMB      269             0.0000000000
     33363       269  OYPE      O13             7.1837898195      -37.3149879217      -20.8339096576  MEMB      269             0.0000000000
     33364       269  OYPE      O14             5.2275077102      -38.4514579588      -19.7101551626  MEMB      269             0.0000000000
     33365       269  OYPE      O11             7.5780858851      -39.3098874933      -19.4697841883  MEMB      269             0.0000000000
     33366       269  OYPE      O12             6.9614704464      -37.1706229685      -18.3838757820  MEMB      269             0.0000000000
     33367       269  OYPE      C1              7.1250439710      -40.6441472189      -19.3375133714  MEMB      269             0.0000000000
     33368       269  OYPE      HA              7.7007198951      -41.2364069334      -20.0735044455  MEMB      269             0.0000000000
     33369       269  OYPE      HB              6.0966534693      -40.8052320324      -19.7095443453  MEMB      269             0.0000000000
     33370       269  OYPE      C2              7.3396236002      -41.1715140621      -17.8791254605  MEMB      269             0.0000000000
     33371       269  OYPE      HS              6.9273746642      -42.2004313603      -17.7956625979  MEMB      269             0.0000000000
     33372       269  OYPE      O21             6.7537603295      -40.3326626709      -16.8447787310  MEMB      269             0.0000000000
     33373       269  OYPE      C21             5.4335799686      -40.2564628360      -16.8170070199  MEMB      269             0.0000000000
     33374       269  OYPE      O22             4.6433324163      -40.8549863047      -17.4743082684  MEMB      269             0.0000000000
     33375       269  OYPE      C22             4.9069389982      -39.1100747557      -15.9833854674  MEMB      269             0.0000000000
     33376       269  OYPE      H2R             3.9586238108      -38.7736314323      -16.4633764556  MEMB      269             0.0000000000
     33377       269  OYPE      H2S             5.5986199796      -38.2690304940      -16.0368119656  MEMB      269             0.0000000000
     33378       269  OYPE      C3              8.8792287723      -41.2789989887      -17.6891983268  MEMB      269             0.0000000000
     33379       269  OYPE      HX              9.4177520457      -40.3308070149      -17.8458551908  MEMB      269             0.0000000000
     33380       269  OYPE      HY              9.2502245953      -41.9722696339      -18.4441090062  MEMB      269             0.0000000000
     33381       269  OYPE      O31             9.2533388984      -41.7933994943      -16.4790281903  MEMB      269             0.0000000000
     33382       269  OYPE      C31             9.2532907709      -40.9119153386      -15.6257761522  MEMB      269             0.0000000000
     33383       269  OYPE      O32             9.2579939815      -39.7102956135      -15.5055394020  MEMB      269             0.0000000000
     33384       269  OYPE      C32             9.3647978935      -41.6286341184      -14.7832488152  MEMB      269             0.0000000000
     33385       269  OYPE      H2X             8.8951919576      -40.8933412945      -13.8612206074  MEMB      269             0.0000000000
     33386       269  OYPE      H2Y             8.5932576152      -42.2456185573      -14.5145912842  MEMB      269             0.0000000000
     33387       269  OYPE      C23             4.5930774177      -39.5026519930      -14.5554177111  MEMB      269             0.0000000000
     33388       269  OYPE      H3R             4.0622879230      -40.4403967603      -14.6101552135  MEMB      269             0.0000000000
     33389       269  OYPE      H3S             3.8293757169      -38.8267345000      -14.1330489491  MEMB      269             0.0000000000
     33390       269  OYPE      C24             5.8640979152      -39.5171743775      -13.6942298986  MEMB      269             0.0000000000
     33391       269  OYPE      H4R             6.3164842869      -38.5195452904      -13.7972959145  MEMB      269             0.0000000000
     33392       269  OYPE      H4S             6.5623094797      -40.3181110861      -14.0677043869  MEMB      269             0.0000000000
     33393       269  OYPE      C25             5.5500785939      -39.6858205538      -12.1893541336  MEMB      269             0.0000000000
     33394       269  OYPE      H5R             5.3261304583      -40.6907320476      -11.8000247516  MEMB      269             0.0000000000
     33395       269  OYPE      H5S             4.6298491593      -39.1250417750      -11.9558810606  MEMB      269             0.0000000000
     33396       269  OYPE      C26             6.7149512121      -39.4570702471      -11.2836981330  MEMB      269             0.0000000000
     33397       269  OYPE      H6R             7.6423743462      -39.4182668296      -11.8933443154  MEMB      269             0.0000000000
     33398       269  OYPE      H6S             6.8039118264      -40.2738730340      -10.5224853391  MEMB      269             0.0000000000
     33399       269  OYPE      C27             6.4637551361      -38.1708441288      -10.5630165296  MEMB      269             0.0000000000
     33400       269  OYPE      H7R             5.5652098209      -38.2937613577       -9.9099069102  MEMB      269             0.0000000000
     33401       269  OYPE      H7S             6.1736749975      -37.4960326542      -11.4079151042  MEMB      269             0.0000000000
     33402       269  OYPE      C28             7.6647580788      -37.7964555586       -9.6748126582  MEMB      269             0.0000000000
     33403       269  OYPE      H8R             8.0075884632      -38.6896124317       -9.0935896265  MEMB      269             0.0000000000
     33404       269  OYPE      H8S             7.2759388404      -37.1163976364       -8.8962009702  MEMB      269             0.0000000000
     33405       269  OYPE      C29             8.7893455482      -37.1306446637      -10.4365537304  MEMB      269             0.0000000000
     33406       269  OYPE      H9R             8.4627645661      -36.3729108541      -11.1584477346  MEMB      269             0.0000000000
     33407       269  OYPE      C210           10.0955071917      -37.1889233330      -10.1452135092  MEMB      269             0.0000000000
     33408       269  OYPE      H10R           10.8473880474      -36.7343761573      -10.7985640209  MEMB      269             0.0000000000
     33409       269  OYPE      C211           10.6402928268      -37.9300503887       -8.9992622912  MEMB      269             0.0000000000
     33410       269  OYPE      H11R           11.7059840101      -38.2728643025       -9.1650207213  MEMB      269             0.0000000000
     33411       269  OYPE      H11S            9.9594287025      -38.8056536061       -8.7928157480  MEMB      269             0.0000000000
     33412       269  OYPE      C212           10.6451700277      -37.0989671902       -7.7259058262  MEMB      269             0.0000000000
     33413       269  OYPE      H12R            9.6427260473      -37.0372486742       -7.2864648535  MEMB      269             0.0000000000
     33414       269  OYPE      H12S           11.2082270873      -36.1813686126       -7.7858864096  MEMB      269             0.0000000000
     33415       269  OYPE      C213           11.3363804978      -37.5484815061       -6.5490863762  MEMB      269             0.0000000000
     33416       269  OYPE      H13R           12.3210974609      -37.5655818961       -6.4238145671  MEMB      269             0.0000000000
     33417       269  OYPE      H13S           11.3697823945      -38.5364016519       -6.8071125105  MEMB      269             0.0000000000
     33418       269  OYPE      C214           11.1139641271      -36.8814962154       -5.1412946890  MEMB      269             0.0000000000
     33419       269  OYPE      H14R           10.0155504569      -36.7554336370       -5.1224297317  MEMB      269             0.0000000000
     33420       269  OYPE      H14S           11.8883330971      -36.1673552800       -5.1425866736  MEMB      269             0.0000000000
     33421       269  OYPE      C215           11.4772690580      -37.5573625117       -3.7124323675  MEMB      269             0.0000000000
     33422       269  OYPE      H15R           12.4029443993      -37.8874069593       -3.9413399003  MEMB      269             0.0000000000
     33423       269  OYPE      H15S           10.9624208895      -38.5159006548       -3.2143837645  MEMB      269             0.0000000000
     33424       269  OYPE      C216           11.1409988562      -37.1028142627       -2.4923480434  MEMB      269             0.0000000000
     33425       269  OYPE      H16R           11.6318535487      -37.8611367951       -1.7915934563  MEMB      269             0.0000000000
     33426       269  OYPE      H16S           10.0211572658      -37.2029887117       -2.5786719782  MEMB      269             0.0000000000
     33427       269  OYPE      H16T           11.5668565670      -36.1226218064       -2.6121632785  MEMB      269             0.0000000000
     33428       269  OYPE      C33            11.1379363945      -42.7276457943      -14.5499442443  MEMB      269             0.0000000000
     33429       269  OYPE      H3X            11.8408963288      -42.1069561138      -14.1875055079  MEMB      269             0.0000000000
     33430       269  OYPE      H3Y            11.2410613778      -43.3632560305      -15.2924729898  MEMB      269             0.0000000000
     33431       269  OYPE      C34            10.7476504841      -44.3463647066      -12.4164400813  MEMB      269             0.0000000000
     33432       269  OYPE      H4X             9.6218674291      -44.5845836286      -12.2936098200  MEMB      269             0.0000000000
     33433       269  OYPE      H4Y            11.3549447208      -44.7559611127      -12.7838134182  MEMB      269             0.0000000000
     33434       269  OYPE      C35            10.6101191150      -43.8574689282      -10.9519461927  MEMB      269             0.0000000000
     33435       269  OYPE      H5X            10.4552084580      -42.8801550564      -10.7120710829  MEMB      269             0.0000000000
     33436       269  OYPE      H5Y            11.4498645838      -43.2309555499      -10.8695130221  MEMB      269             0.0000000000
     33437       269  OYPE      C36             9.2937406330      -44.2990525420      -10.4344435260  MEMB      269             0.0000000000
     33438       269  OYPE      H6X             8.3440003115      -44.5255753205      -10.9764144435  MEMB      269             0.0000000000
     33439       269  OYPE      H6Y             9.7668174383      -45.3055341546      -10.5076107988  MEMB      269             0.0000000000
     33440       269  OYPE      C37             9.0576092075      -43.2106951536       -9.2468967759  MEMB      269             0.0000000000
     33441       269  OYPE      H7X             8.0022487825      -42.8822304714       -9.1237578909  MEMB      269             0.0000000000
     33442       269  OYPE      H7Y             8.5975702629      -43.5514067144       -8.5657153674  MEMB      269             0.0000000000
     33443       269  OYPE      C38            10.0701302763      -43.2182691600       -7.9968520431  MEMB      269             0.0000000000
     33444       269  OYPE      H8X            11.0101660505      -43.5834025803       -8.2081246762  MEMB      269             0.0000000000
     33445       269  OYPE      H8Y             9.8399565188      -42.3571427304       -8.1818288047  MEMB      269             0.0000000000
     33446       269  OYPE      C39             9.9583772594      -43.4076930484       -6.6522207767  MEMB      269             0.0000000000
     33447       269  OYPE      H9X            10.8691214562      -43.8492182461       -6.2115582514  MEMB      269             0.0000000000
     33448       269  OYPE      C310            9.0930536449      -42.4829197477       -6.2106050120  MEMB      269             0.0000000000
     33449       269  OYPE      H10X            8.7676749253      -42.6061156683       -5.3313163953  MEMB      269             0.0000000000
     33450       269  OYPE      C311            8.2586817371      -41.3528698977       -6.7714464386  MEMB      269             0.0000000000
     33451       269  OYPE      H11X            8.6401294779      -41.0417200954       -7.7022620183  MEMB      269             0.0000000000
     33452       269  OYPE      H11Y            7.3245307647      -41.7885957289       -6.8037176824  MEMB      269             0.0000000000
     33453       269  OYPE      C312            7.8963347568      -40.0059351196       -6.1303428196  MEMB      269             0.0000000000
     33454       269  OYPE      H12X            8.3655693165      -39.0180508680       -6.3582137828  MEMB      269             0.0000000000
     33455       269  OYPE      H12Y            8.2103131243      -40.3551143340       -5.2182847399  MEMB      269             0.0000000000
     33456       269  OYPE      C313            6.7151646720      -39.6853832197       -5.6406973309  MEMB      269             0.0000000000
     33457       269  OYPE      H13X            6.1529211431      -39.6501046844       -6.5669903047  MEMB      269             0.0000000000
     33458       269  OYPE      H13Y            6.4327047149      -40.4393499935       -4.8586625907  MEMB      269             0.0000000000
     33459       269  OYPE      C314            6.9067012802      -38.3428703568       -5.1723197553  MEMB      269             0.0000000000
     33460       269  OYPE      H14X            7.0139971046      -37.4970078921       -5.9207669114  MEMB      269             0.0000000000
     33461       269  OYPE      H14Y            7.6162912808      -38.1919300143       -4.3232671900  MEMB      269             0.0000000000
     33462       269  OYPE      C315            5.6852633760      -38.6252749418       -4.7185599608  MEMB      269             0.0000000000
     33463       269  OYPE      H15X            4.6476902468      -38.4340494741       -5.1983997878  MEMB      269             0.0000000000
     33464       269  OYPE      H15Y            6.0725140681      -37.3379781495       -4.5846370841  MEMB      269             0.0000000000
     33465       269  OYPE      C316            5.4798696361      -39.7132852913       -3.0029439597  MEMB      269             0.0000000000
     33466       269  OYPE      H16X            5.0953860763      -40.5165103457       -3.4180007031  MEMB      269             0.0000000000
     33467       269  OYPE      H16Y            4.3719794215      -39.4963586374       -2.2859073088  MEMB      269             0.0000000000
     33468       269  OYPE      C317            6.5541687423      -39.6219904266       -1.8111823850  MEMB      269             0.0000000000
     33469       269  OYPE      H17X            7.4405365653      -39.9900620086       -2.1737062713  MEMB      269             0.0000000000
     33470       269  OYPE      H17Y            5.9448373425      -40.1086036771       -1.0322465771  MEMB      269             0.0000000000
     33471       269  OYPE      C318            7.1244325616      -38.3978615788       -1.0672926171  MEMB      269             0.0000000000
     33472       269  OYPE      H18X            6.2572597936      -38.0927761731       -0.1471917714  MEMB      269             0.0000000000
     33473       269  OYPE      H18Y            7.8836959900      -37.8987357018       -0.5898520912  MEMB      269             0.0000000000
     33474       269  OYPE      H18Z            7.4839631357      -37.6634230163       -2.0142797890  MEMB      269             0.0000000000
     33475       270  PYPG      C13             0.3329115082      -37.4480930926      -21.0277272945  MEMB      270             0.0000000000
     33476       270  PYPG      H13A            0.1772694382      -36.5109793444      -20.4471448963  MEMB      270             0.0000000000
     33477       270  PYPG      H13B            1.3689568015      -37.4166493727      -21.4337336700  MEMB      270             0.0000000000
     33478       270  PYPG      OC3            -0.5997670192      -37.5132357071      -22.1114048375  MEMB      270             0.0000000000
     33479       270  PYPG      HO3            -0.2162346633      -38.1539798155      -22.7294619134  MEMB      270             0.0000000000
     33480       270  PYPG      C12             0.1193146062      -38.6491216068      -20.0874030501  MEMB      270             0.0000000000
     33481       270  PYPG      H12A            0.9665288188      -38.6853680723      -19.3718780299  MEMB      270             0.0000000000
     33482       270  PYPG      OC2             0.1377245532      -39.8606546027      -20.8454497593  MEMB      270             0.0000000000
     33483       270  PYPG      HO2            -0.1108299896      -40.5492610902      -20.2273073412  MEMB      270             0.0000000000
     33484       270  PYPG      C11            -1.2247848130      -38.5079315578      -19.3037081516  MEMB      270             0.0000000000
     33485       270  PYPG      H11A           -1.3233959043      -39.3838650608      -18.6324701309  MEMB      270             0.0000000000
     33486       270  PYPG      H11B           -2.0540945805      -38.4701323520      -20.0594871179  MEMB      270             0.0000000000
     33487       270  PYPG      P              -2.3183910174      -37.0768949234      -17.3547309359  MEMB      270             0.0000000000
     33488       270  PYPG      O13            -3.5634531345      -37.8707490160      -17.5208284725  MEMB      270             0.0000000000
     33489       270  PYPG      O14            -2.4396679571      -35.6085069192      -17.1850232880  MEMB      270             0.0000000000
     33490       270  PYPG      O11            -1.5440431661      -37.6143303856      -16.1014963054  MEMB      270             0.0000000000
     33491       270  PYPG      O12            -1.2340356215      -37.3335146572      -18.4981094730  MEMB      270             0.0000000000
     33492       270  PYPG      C1             -0.4249429854      -38.4681285483      -15.9622261561  MEMB      270             0.0000000000
     33493       270  PYPG      HA              0.5145103722      -37.8864752230      -16.0832589491  MEMB      270             0.0000000000
     33494       270  PYPG      HB             -0.4252121795      -39.2807842291      -16.7214354210  MEMB      270             0.0000000000
     33495       270  PYPG      C2             -0.4836734573      -39.0395969243      -14.5194663677  MEMB      270             0.0000000000
     33496       270  PYPG      HS             -1.3737613094      -39.7138698169      -14.5163656151  MEMB      270             0.0000000000
     33497       270  PYPG      O21            -0.6165951490      -37.9336253654      -13.6134510334  MEMB      270             0.0000000000
     33498       270  PYPG      C21            -1.4966612136      -38.0723786713      -12.6597167108  MEMB      270             0.0000000000
     33499       270  PYPG      O22            -2.2326498989      -39.0283479250      -12.4718755090  MEMB      270             0.0000000000
     33500       270  PYPG      C22            -1.3875573904      -36.7909406722      -11.8243998552  MEMB      270             0.0000000000
     33501       270  PYPG      H2R            -1.7935346569      -35.9754448038      -12.4539432670  MEMB      270             0.0000000000
     33502       270  PYPG      H2S            -0.3040032405      -36.5917889554      -11.6631785580  MEMB      270             0.0000000000
     33503       270  PYPG      C3              0.7670997153      -39.8364747543      -14.0677218979  MEMB      270             0.0000000000
     33504       270  PYPG      HX              1.6400653864      -39.1711790927      -14.2728499613  MEMB      270             0.0000000000
     33505       270  PYPG      HY              0.9294731606      -40.7454374469      -14.6819736309  MEMB      270             0.0000000000
     33506       270  PYPG      O31             0.7302964086      -40.1145490954      -12.6425913321  MEMB      270             0.0000000000
     33507       270  PYPG      C31            -0.0193177723      -41.1286736642      -12.2109726470  MEMB      270             0.0000000000
     33508       270  PYPG      O32            -0.6050685311      -41.9384538004      -12.9039406857  MEMB      270             0.0000000000
     33509       270  PYPG      C32             0.0324033930      -41.1756870293      -10.6627849703  MEMB      270             0.0000000000
     33510       270  PYPG      H2X             1.0540009510      -41.4442016482      -10.3013288779  MEMB      270             0.0000000000
     33511       270  PYPG      H2Y            -0.2015928451      -40.1673332734      -10.2847389964  MEMB      270             0.0000000000
     33512       270  PYPG      C23            -2.0668087552      -36.8655630160      -10.4480191457  MEMB      270             0.0000000000
     33513       270  PYPG      H3R            -1.5340624922      -37.6651469045       -9.8878336502  MEMB      270             0.0000000000
     33514       270  PYPG      H3S            -3.1294910511      -37.1758129961      -10.5232478095  MEMB      270             0.0000000000
     33515       270  PYPG      C24            -1.8949108101      -35.5647289827       -9.6460806971  MEMB      270             0.0000000000
     33516       270  PYPG      H4R            -2.3592105475      -34.6712371679      -10.1201699455  MEMB      270             0.0000000000
     33517       270  PYPG      H4S            -0.8065299280      -35.3466960677       -9.6306130164  MEMB      270             0.0000000000
     33518       270  PYPG      C25            -2.4086127374      -35.6662304189       -8.2005272484  MEMB      270             0.0000000000
     33519       270  PYPG      H5R            -3.5250923069      -35.6893087990       -8.2222282000  MEMB      270             0.0000000000
     33520       270  PYPG      H5S            -2.1171228805      -34.7571949642       -7.6281637826  MEMB      270             0.0000000000
     33521       270  PYPG      C26            -2.0423687924      -36.9577156663       -7.4337161229  MEMB      270             0.0000000000
     33522       270  PYPG      H6R            -2.6612143760      -37.7548760892       -7.8981073730  MEMB      270             0.0000000000
     33523       270  PYPG      H6S            -2.4476577103      -36.8530186102       -6.4151819961  MEMB      270             0.0000000000
     33524       270  PYPG      C27            -0.5602438123      -37.3831704284       -7.3431400442  MEMB      270             0.0000000000
     33525       270  PYPG      H7R            -0.2368143248      -37.4996235952       -8.3932949291  MEMB      270             0.0000000000
     33526       270  PYPG      H7S            -0.4321810592      -38.3818199244       -6.8704908932  MEMB      270             0.0000000000
     33527       270  PYPG      C28             0.3512224082      -36.3777348721       -6.6294182627  MEMB      270             0.0000000000
     33528       270  PYPG      H8R             0.1961664104      -35.4376552093       -7.1965815675  MEMB      270             0.0000000000
     33529       270  PYPG      H8S             1.4007366769      -36.7330496106       -6.7735312599  MEMB      270             0.0000000000
     33530       270  PYPG      C29            -0.0139127425      -36.1628114312       -5.1826322716  MEMB      270             0.0000000000
     33531       270  PYPG      H9R            -1.0933086886      -36.1374982797       -4.9809193030  MEMB      270             0.0000000000
     33532       270  PYPG      C210            0.8337314506      -35.9431702333       -4.1774113123  MEMB      270             0.0000000000
     33533       270  PYPG      H10R            0.4219738921      -35.8762343686       -3.1614940470  MEMB      270             0.0000000000
     33534       270  PYPG      C211            2.3280251237      -35.8672407783       -4.3130468436  MEMB      270             0.0000000000
     33535       270  PYPG      H11R            2.9577589736      -35.1852646768       -3.6922594071  MEMB      270             0.0000000000
     33536       270  PYPG      H11S            2.7225070925      -35.5861667440       -5.2978804900  MEMB      270             0.0000000000
     33537       270  PYPG      C212            2.8967058754      -36.9253412108       -3.5803895997  MEMB      270             0.0000000000
     33538       270  PYPG      H12R            2.6240649018      -37.9491546111       -3.9480459106  MEMB      270             0.0000000000
     33539       270  PYPG      H12S            2.8934847183      -36.8289103349       -2.4756442166  MEMB      270             0.0000000000
     33540       270  PYPG      C213            4.2831540623      -36.5929843494       -3.7711312145  MEMB      270             0.0000000000
     33541       270  PYPG      H13R            4.8724887368      -35.7845348454       -3.4282710775  MEMB      270             0.0000000000
     33542       270  PYPG      H13S            4.4652620503      -36.6509870815       -4.8936215203  MEMB      270             0.0000000000
     33543       270  PYPG      C214            4.8882847441      -37.3913063585       -2.8641652375  MEMB      270             0.0000000000
     33544       270  PYPG      H14R            4.1582582250      -38.2984512512       -3.4103953026  MEMB      270             0.0000000000
     33545       270  PYPG      H14S            6.0647244712      -37.6699185681       -2.9557449042  MEMB      270             0.0000000000
     33546       270  PYPG      C215            5.0289502396      -37.0832523765       -1.5782852949  MEMB      270             0.0000000000
     33547       270  PYPG      H15R            4.9536927528      -38.1913882691       -1.2250792702  MEMB      270             0.0000000000
     33548       270  PYPG      H15S            4.2086470156      -37.4823965339       -1.1247652677  MEMB      270             0.0000000000
     33549       270  PYPG      C216            6.2652663920      -36.0457593049       -0.9531332657  MEMB      270             0.0000000000
     33550       270  PYPG      H16R            6.5907767499      -36.3545189529        0.0917577779  MEMB      270             0.0000000000
     33551       270  PYPG      H16S            5.4978437524      -35.4618356621       -1.1238503821  MEMB      270             0.0000000000
     33552       270  PYPG      H16T            7.2288481117      -35.9556515303       -1.5341919304  MEMB      270             0.0000000000
     33553       270  PYPG      C33            -0.9085528219      -42.2999880657      -10.1507536183  MEMB      270             0.0000000000
     33554       270  PYPG      H3X            -0.5787196370      -43.2889238321      -10.5043785039  MEMB      270             0.0000000000
     33555       270  PYPG      H3Y            -1.9039538818      -42.2385150263      -10.6271216480  MEMB      270             0.0000000000
     33556       270  PYPG      C34            -1.0616997553      -42.3401649779       -8.6374874784  MEMB      270             0.0000000000
     33557       270  PYPG      H4X            -0.0743482621      -42.5700496907       -8.1719718917  MEMB      270             0.0000000000
     33558       270  PYPG      H4Y            -1.7942996479      -43.1755552363       -8.4863969078  MEMB      270             0.0000000000
     33559       270  PYPG      C35            -1.5722618185      -40.9923148160       -8.1332742591  MEMB      270             0.0000000000
     33560       270  PYPG      H5X            -2.4787850198      -40.7742854401       -8.7096762030  MEMB      270             0.0000000000
     33561       270  PYPG      H5Y            -0.9442143999      -40.1381004284       -8.4300780074  MEMB      270             0.0000000000
     33562       270  PYPG      C36            -1.8441610141      -40.9127054987       -6.6367944042  MEMB      270             0.0000000000
     33563       270  PYPG      H6X            -2.6115893512      -41.6775445111       -6.3842270676  MEMB      270             0.0000000000
     33564       270  PYPG      H6Y            -2.1400912621      -39.8494265566       -6.4114820550  MEMB      270             0.0000000000
     33565       270  PYPG      C37            -0.6605042748      -41.2365621141       -5.7431362628  MEMB      270             0.0000000000
     33566       270  PYPG      H7X            -0.2805665283      -42.2668252208       -5.8778224446  MEMB      270             0.0000000000
     33567       270  PYPG      H7Y             0.1422637560      -40.5414540012       -6.0623523642  MEMB      270             0.0000000000
     33568       270  PYPG      C38            -1.0556286613      -41.1786373589       -4.2561825206  MEMB      270             0.0000000000
     33569       270  PYPG      H8X            -1.7054660533      -42.0522610339       -4.0208102715  MEMB      270             0.0000000000
     33570       270  PYPG      H8Y            -1.6853868599      -40.2818817724       -4.0864935642  MEMB      270             0.0000000000
     33571       270  PYPG      C39             0.1306909867      -41.1403950363       -3.2802035834  MEMB      270             0.0000000000
     33572       270  PYPG      H9X             0.9951855752      -41.7328590087       -3.6483566938  MEMB      270             0.0000000000
     33573       270  PYPG      H9Y            -0.1087031023      -41.6605027629       -2.3319536725  MEMB      270             0.0000000000
     33574       270  PYPG      C310            0.5606074598      -39.6819607264       -3.0198368819  MEMB      270             0.0000000000
     33575       270  PYPG      H10X            0.5257978596      -39.1364009779       -3.9797258298  MEMB      270             0.0000000000
     33576       270  PYPG      H10Y            1.5963895228      -39.7192472548       -2.6173846380  MEMB      270             0.0000000000
     33577       270  PYPG      C311           -0.3742534209      -38.8240958434       -2.1774384929  MEMB      270             0.0000000000
     33578       270  PYPG      H11X           -1.3891572614      -38.9260761618       -2.6381343366  MEMB      270             0.0000000000
     33579       270  PYPG      H11Y           -0.1650956368      -37.7330166960       -2.2260969176  MEMB      270             0.0000000000
     33580       270  PYPG      C312           -0.4004920902      -39.4515498039       -0.8134500905  MEMB      270             0.0000000000
     33581       270  PYPG      H12X           -1.1763690005      -39.1571866224       -0.3691464240  MEMB      270             0.0000000000
     33582       270  PYPG      H12Y           -0.8900785329      -40.4144345405       -0.7842911743  MEMB      270             0.0000000000
     33583       270  PYPG      C313            0.4987524779      -39.0950353421        0.3521771929  MEMB      270             0.0000000000
     33584       270  PYPG      H13X            0.8080748022      -38.0610058856        0.3901402419  MEMB      270             0.0000000000
     33585       270  PYPG      H13Y            0.0664217603      -39.3458201000        1.3844759185  MEMB      270             0.0000000000
     33586       270  PYPG      C314            1.4724857290      -40.0463815492        0.3921203024  MEMB      270             0.0000000000
     33587       270  PYPG      H14X            0.7241750692      -40.8111413895        0.6821177231  MEMB      270             0.0000000000
     33588       270  PYPG      H14Y            1.7653910983      -40.3626532977       -0.6018983537  MEMB      270             0.0000000000
     33589       270  PYPG      C315            2.6256566117      -39.7695360444        1.3653887489  MEMB      270             0.0000000000
     33590       270  PYPG      H15X            3.3573314000      -40.5613474383        1.0280428391  MEMB      270             0.0000000000
     33591       270  PYPG      H15Y            3.0708419950      -38.8200180159        1.1507066144  MEMB      270             0.0000000000
     33592       270  PYPG      C316            2.2801554579      -39.8218561208        2.8932567575  MEMB      270             0.0000000000
     33593       270  PYPG      H16X            1.7554828863      -40.7512916628        3.2099430358  MEMB      270             0.0000000000
     33594       270  PYPG      H16Y            1.5249300435      -39.0566571566        3.1080227477  MEMB      270             0.0000000000
     33595       270  PYPG      H16Z            3.1719636351      -39.7535588006        3.5459151167  MEMB      270             0.0000000000
     33596       271  PMPE      N             -30.2895105218      -25.3495939644      -18.1682587432  MEMB      271             0.0000000000
     33597       271  PMPE      HN1           -30.7405080032      -25.2908216115      -17.2274892146  MEMB      271             0.0000000000
     33598       271  PMPE      HN2           -30.9905406277      -25.5254685998      -18.9171427461  MEMB      271             0.0000000000
     33599       271  PMPE      HN3           -29.6661242813      -26.1884458125      -18.1738286602  MEMB      271             0.0000000000
     33600       271  PMPE      C12           -29.4092460774      -24.1248182129      -18.3731514948  MEMB      271             0.0000000000
     33601       271  PMPE      H12A          -29.0247380180      -23.8847501821      -17.3572379915  MEMB      271             0.0000000000
     33602       271  PMPE      H12B          -30.0817162070      -23.3075304949      -18.7066515069  MEMB      271             0.0000000000
     33603       271  PMPE      C11           -28.1957257812      -24.4033724750      -19.3068799416  MEMB      271             0.0000000000
     33604       271  PMPE      H11A          -27.5502564987      -23.5111290376      -19.4769871571  MEMB      271             0.0000000000
     33605       271  PMPE      H11B          -28.5438204010      -24.6951319002      -20.3246909705  MEMB      271             0.0000000000
     33606       271  PMPE      P             -26.6666757789      -26.6534865905      -19.3011154885  MEMB      271             0.0000000000
     33607       271  PMPE      O13           -25.9673429561      -26.2925793185      -20.5445218637  MEMB      271             0.0000000000
     33608       271  PMPE      O14           -27.7351346332      -27.6726956597      -19.3166190759  MEMB      271             0.0000000000
     33609       271  PMPE      O11           -25.5485293538      -27.0101607127      -18.2550630134  MEMB      271             0.0000000000
     33610       271  PMPE      O12           -27.3691605246      -25.3689233546      -18.6824320698  MEMB      271             0.0000000000
     33611       271  PMPE      C1            -25.1035791340      -26.0547380359      -17.2809719626  MEMB      271             0.0000000000
     33612       271  PMPE      HA            -25.3757001385      -25.0208902753      -17.5378518320  MEMB      271             0.0000000000
     33613       271  PMPE      HB            -23.9950157478      -25.9664167932      -17.2024683524  MEMB      271             0.0000000000
     33614       271  PMPE      C2            -25.7652402589      -26.2739443378      -15.9106091396  MEMB      271             0.0000000000
     33615       271  PMPE      HS            -25.1737093320      -27.1032968136      -15.4593193137  MEMB      271             0.0000000000
     33616       271  PMPE      O21           -27.1433620080      -26.6146609760      -16.0778357472  MEMB      271             0.0000000000
     33617       271  PMPE      C21           -27.4851369781      -27.7389022056      -15.5156065256  MEMB      271             0.0000000000
     33618       271  PMPE      O22           -26.7587316197      -28.5812976573      -15.0205938220  MEMB      271             0.0000000000
     33619       271  PMPE      C22           -28.9983871833      -27.7516908255      -15.4613833827  MEMB      271             0.0000000000
     33620       271  PMPE      H2R           -29.2972920178      -28.8040937127      -15.2813845751  MEMB      271             0.0000000000
     33621       271  PMPE      H2S           -29.4203194720      -27.4299879744      -16.4342812840  MEMB      271             0.0000000000
     33622       271  PMPE      C3            -25.7307860638      -24.9530944288      -15.0861923717  MEMB      271             0.0000000000
     33623       271  PMPE      HX            -26.4981888840      -24.2775190394      -15.5610653274  MEMB      271             0.0000000000
     33624       271  PMPE      HY            -24.7281611836      -24.4898571242      -15.1666444085  MEMB      271             0.0000000000
     33625       271  PMPE      O31           -26.0658659225      -25.1495170651      -13.7064447790  MEMB      271             0.0000000000
     33626       271  PMPE      C31           -25.1535809816      -25.8115912914      -12.9914993631  MEMB      271             0.0000000000
     33627       271  PMPE      O32           -23.9995423846      -26.0272943386      -13.3041921731  MEMB      271             0.0000000000
     33628       271  PMPE      C32           -25.7876742346      -26.2069210817      -11.6736375812  MEMB      271             0.0000000000
     33629       271  PMPE      H2X           -26.4193964137      -27.0988926911      -11.8617535933  MEMB      271             0.0000000000
     33630       271  PMPE      H2Y           -26.4127344212      -25.3510611409      -11.3529396666  MEMB      271             0.0000000000
     33631       271  PMPE      C23           -29.5122828377      -26.8854320569      -14.2934439888  MEMB      271             0.0000000000
     33632       271  PMPE      H3R           -30.6186308715      -26.8112378868      -14.3863177549  MEMB      271             0.0000000000
     33633       271  PMPE      H3S           -29.0448847660      -25.8726500276      -14.1847228224  MEMB      271             0.0000000000
     33634       271  PMPE      C24           -29.3847236837      -27.5721364597      -12.9380705935  MEMB      271             0.0000000000
     33635       271  PMPE      H4R           -28.3774062719      -27.3557910452      -12.5483726683  MEMB      271             0.0000000000
     33636       271  PMPE      H4S           -29.5664603289      -28.6640790502      -13.0103532469  MEMB      271             0.0000000000
     33637       271  PMPE      C25           -30.4414900561      -27.0398980950      -11.9863479067  MEMB      271             0.0000000000
     33638       271  PMPE      H5R           -31.4092823526      -27.5121730536      -12.2860356934  MEMB      271             0.0000000000
     33639       271  PMPE      H5S           -30.4314310161      -25.9316793107      -12.0901655068  MEMB      271             0.0000000000
     33640       271  PMPE      C26           -30.2872717210      -27.3671013161      -10.5110199740  MEMB      271             0.0000000000
     33641       271  PMPE      H6R           -29.3364255652      -27.9027902967      -10.3065620691  MEMB      271             0.0000000000
     33642       271  PMPE      H6S           -31.1723285942      -28.0074857782      -10.2920297192  MEMB      271             0.0000000000
     33643       271  PMPE      C27           -30.3233149598      -26.0954968768       -9.6572623967  MEMB      271             0.0000000000
     33644       271  PMPE      H7R           -31.0961355235      -25.3896357759      -10.0402110418  MEMB      271             0.0000000000
     33645       271  PMPE      H7S           -29.3280128618      -25.6139408083       -9.7667406431  MEMB      271             0.0000000000
     33646       271  PMPE      C28           -30.3307191933      -26.2986805391       -8.1431161204  MEMB      271             0.0000000000
     33647       271  PMPE      H8R           -30.2821717970      -25.3027525063       -7.6323066007  MEMB      271             0.0000000000
     33648       271  PMPE      H8S           -29.5013409181      -26.9532091961       -7.8563394512  MEMB      271             0.0000000000
     33649       271  PMPE      C29           -31.4151755142      -27.0626694475       -7.5802305690  MEMB      271             0.0000000000
     33650       271  PMPE      H9R           -31.9263130677      -27.8656258839       -8.1904632101  MEMB      271             0.0000000000
     33651       271  PMPE      C217          -32.0796018279      -26.0173835921       -6.8027613377  MEMB      271             0.0000000000
     33652       271  PMPE      H17R          -32.6453676647      -26.0409322432       -7.5612790121  MEMB      271             0.0000000000
     33653       271  PMPE      H17S          -32.2411159580      -24.9793855392       -6.7489469572  MEMB      271             0.0000000000
     33654       271  PMPE      C210          -31.7126976162      -27.2078634655       -6.0670359633  MEMB      271             0.0000000000
     33655       271  PMPE      H10R          -32.1740400636      -28.1988394589       -5.9964000842  MEMB      271             0.0000000000
     33656       271  PMPE      C211          -31.2168711789      -26.5075575571       -4.8779608197  MEMB      271             0.0000000000
     33657       271  PMPE      H11R          -31.7463553590      -26.8362595445       -3.9804928762  MEMB      271             0.0000000000
     33658       271  PMPE      H11S          -31.3607925837      -25.4012173260       -4.9215261674  MEMB      271             0.0000000000
     33659       271  PMPE      C212          -29.8305688214      -27.0644839146       -4.8538738220  MEMB      271             0.0000000000
     33660       271  PMPE      H12R          -29.1992320234      -26.5377491634       -5.5891857119  MEMB      271             0.0000000000
     33661       271  PMPE      H12S          -29.9199980648      -28.1417217877       -5.0001691817  MEMB      271             0.0000000000
     33662       271  PMPE      C213          -29.1035057067      -26.8958910932       -3.6298544273  MEMB      271             0.0000000000
     33663       271  PMPE      H13R          -29.2938901849      -25.8100102415       -3.8530271268  MEMB      271             0.0000000000
     33664       271  PMPE      H13S          -28.0102098730      -26.9814885405       -3.5835976621  MEMB      271             0.0000000000
     33665       271  PMPE      C214          -29.7702056395      -27.5703823458       -2.4437594251  MEMB      271             0.0000000000
     33666       271  PMPE      H14R          -29.5997488691      -28.6478497146       -2.4693569261  MEMB      271             0.0000000000
     33667       271  PMPE      H14S          -30.8202883438      -27.2734382014       -2.3247079509  MEMB      271             0.0000000000
     33668       271  PMPE      C215          -29.1884966843      -27.1599402538       -1.1927283940  MEMB      271             0.0000000000
     33669       271  PMPE      H15R          -29.8534217274      -26.3282872390       -0.8498381294  MEMB      271             0.0000000000
     33670       271  PMPE      H15S          -28.0973515618      -27.3771003702       -1.1592927597  MEMB      271             0.0000000000
     33671       271  PMPE      C216          -29.4110636833      -27.1029166242        0.1537745774  MEMB      271             0.0000000000
     33672       271  PMPE      H16R          -30.6093895822      -27.1893762289        0.6354101735  MEMB      271             0.0000000000
     33673       271  PMPE      H16S          -28.3120940995      -28.3641357379        0.2406800087  MEMB      271             0.0000000000
     33674       271  PMPE      H16T          -29.5476027129      -26.4562806365        1.0314001200  MEMB      271             0.0000000000
     33675       271  PMPE      C33           -24.7957844246      -26.4922925104      -10.5344951353  MEMB      271             0.0000000000
     33676       271  PMPE      H3X           -24.0209115845      -25.7218214032      -10.4630125629  MEMB      271             0.0000000000
     33677       271  PMPE      H3Y           -24.1764972859      -27.3629007946      -10.7948868148  MEMB      271             0.0000000000
     33678       271  PMPE      C34           -25.5906424299      -26.7402192142       -9.2410583401  MEMB      271             0.0000000000
     33679       271  PMPE      H4X           -25.0816665991      -27.2159062494       -8.4466634457  MEMB      271             0.0000000000
     33680       271  PMPE      H4Y           -26.3008705398      -27.5425121517       -9.3532980065  MEMB      271             0.0000000000
     33681       271  PMPE      C35           -26.1715778330      -25.5579898187       -8.5049068975  MEMB      271             0.0000000000
     33682       271  PMPE      H5X           -26.9871392783      -25.0426268680       -9.0296280505  MEMB      271             0.0000000000
     33683       271  PMPE      H5Y           -25.2958489773      -24.9690660114       -8.3319210169  MEMB      271             0.0000000000
     33684       271  PMPE      C36           -26.5625326739      -25.8364548285       -7.0714954491  MEMB      271             0.0000000000
     33685       271  PMPE      H6X           -25.8168990478      -26.5531378670       -6.6523008578  MEMB      271             0.0000000000
     33686       271  PMPE      H6Y           -27.5876331325      -26.2377825681       -7.1216918036  MEMB      271             0.0000000000
     33687       271  PMPE      C37           -26.4069811597      -24.6443311731       -6.1266492848  MEMB      271             0.0000000000
     33688       271  PMPE      H7X           -25.4817110827      -24.0929405668       -6.3778401876  MEMB      271             0.0000000000
     33689       271  PMPE      H7Y           -26.2900631822      -25.0636545399       -5.1015581110  MEMB      271             0.0000000000
     33690       271  PMPE      C38           -27.5416445488      -23.6431086454       -6.1560714650  MEMB      271             0.0000000000
     33691       271  PMPE      H8X           -28.5040718930      -24.1223710893       -5.8742339658  MEMB      271             0.0000000000
     33692       271  PMPE      H8Y           -27.6264667082      -23.2260901151       -7.1840578481  MEMB      271             0.0000000000
     33693       271  PMPE      C39           -27.2707590031      -22.5032022025       -5.1993353248  MEMB      271             0.0000000000
     33694       271  PMPE      H9X           -28.1088990656      -21.7810689178       -5.2999334670  MEMB      271             0.0000000000
     33695       271  PMPE      H9Y           -26.2951496480      -22.0385170035       -5.4160060129  MEMB      271             0.0000000000
     33696       271  PMPE      C310          -27.3032350004      -22.9007356682       -3.7958072060  MEMB      271             0.0000000000
     33697       271  PMPE      H10X          -26.5126257301      -23.6284078406       -3.4438008166  MEMB      271             0.0000000000
     33698       271  PMPE      H10Y          -28.3121436825      -23.3312633308       -3.7007114854  MEMB      271             0.0000000000
     33699       271  PMPE      C311          -27.1897831486      -21.6546420953       -2.9013733549  MEMB      271             0.0000000000
     33700       271  PMPE      H11X          -27.8639865655      -20.8897546244       -3.1391110705  MEMB      271             0.0000000000
     33701       271  PMPE      H11Y          -26.1024987175      -21.5287344112       -2.6502940437  MEMB      271             0.0000000000
     33702       271  PMPE      C312          -27.7767868388      -21.5776265886       -1.5401433046  MEMB      271             0.0000000000
     33703       271  PMPE      H12X          -28.8403252772      -21.8466397566       -1.2786765747  MEMB      271             0.0000000000
     33704       271  PMPE      H12Y          -27.4043137078      -20.8248363898       -0.8339223295  MEMB      271             0.0000000000
     33705       271  PMPE      C313          -26.9078832137      -22.2733119610       -0.9398516083  MEMB      271             0.0000000000
     33706       271  PMPE      H13X          -25.8339192439      -22.7042885020       -1.0444832601  MEMB      271             0.0000000000
     33707       271  PMPE      H13Y          -27.2746891869      -23.0592317721       -1.6993318602  MEMB      271             0.0000000000
     33708       271  PMPE      C314          -27.7403314071      -22.4046248012        0.4916703027  MEMB      271             0.0000000000
     33709       271  PMPE      H14X          -28.6702030841      -22.8324947836        0.7389219795  MEMB      271             0.0000000000
     33710       271  PMPE      H14Y          -26.7855752998      -21.9578495815        0.8103975051  MEMB      271             0.0000000000
     33711       271  PMPE      C315          -27.4689578564      -24.7163694913        2.1898192364  MEMB      271             0.0000000000
     33712       271  PMPE      H15X          -26.1151407016      -24.8684335576        2.4051837132  MEMB      271             0.0000000000
     33713       271  PMPE      H15Y          -27.7482497497      -25.4529538379        1.5988100721  MEMB      271             0.0000000000
     33714       271  PMPE      C316          -27.9144166190      -25.0412969679        3.1610400775  MEMB      271             0.0000000000
     33715       271  PMPE      H16X          -28.6301137684      -24.1753120694        3.5416591770  MEMB      271             0.0000000000
     33716       271  PMPE      H16Y          -26.9948753085      -25.1776409887        3.8727079169  MEMB      271             0.0000000000
     33717       271  PMPE      H16Z          -28.8858220129      -24.6041485808        3.2129476847  MEMB      271             0.0000000000
     33718       272  PMPE      N              -0.9659776621       41.0177411284      -18.4819377382  MEMB      272             0.0000000000
     33719       272  PMPE      HN1            -1.7516989758       40.6665148166      -19.0411040759  MEMB      272             0.0000000000
     33720       272  PMPE      HN2            -1.2539420486       41.1232845962      -17.4838058851  MEMB      272             0.0000000000
     33721       272  PMPE      HN3            -0.6240740844       41.9701393074      -18.8049504073  MEMB      272             0.0000000000
     33722       272  PMPE      C12             0.2171892296       40.0958092658      -18.5057885184  MEMB      272             0.0000000000
     33723       272  PMPE      H12A            0.9949076572       40.5322056477      -17.8607315671  MEMB      272             0.0000000000
     33724       272  PMPE      H12B            0.5749721084       40.0318996796      -19.5445391091  MEMB      272             0.0000000000
     33725       272  PMPE      C11            -0.1104410150       38.7463574670      -17.8890651664  MEMB      272             0.0000000000
     33726       272  PMPE      H11A           -0.5709014358       38.9340412274      -16.8996845038  MEMB      272             0.0000000000
     33727       272  PMPE      H11B            0.8118270461       38.1539286071      -17.6779398652  MEMB      272             0.0000000000
     33728       272  PMPE      P              -0.5809688351       36.7675372073      -19.5427325211  MEMB      272             0.0000000000
     33729       272  PMPE      O13             0.6610413230       37.1065990917      -20.2798410884  MEMB      272             0.0000000000
     33730       272  PMPE      O14            -1.7378349554       36.3009760967      -20.3238297256  MEMB      272             0.0000000000
     33731       272  PMPE      O11            -0.1820007137       35.7622593499      -18.4586152879  MEMB      272             0.0000000000
     33732       272  PMPE      O12            -1.0333222814       38.0427626724      -18.6954770528  MEMB      272             0.0000000000
     33733       272  PMPE      C1             -1.1194234606       35.1106859217      -17.6891062407  MEMB      272             0.0000000000
     33734       272  PMPE      HA             -0.8503218490       34.0169014553      -17.6830222207  MEMB      272             0.0000000000
     33735       272  PMPE      HB             -2.2045935621       35.2259368386      -17.9322022018  MEMB      272             0.0000000000
     33736       272  PMPE      C2             -0.9364599617       35.6420670618      -16.3167861047  MEMB      272             0.0000000000
     33737       272  PMPE      HS             -1.7110321695       34.9899783688      -15.8447853028  MEMB      272             0.0000000000
     33738       272  PMPE      O21            -1.3683168828       36.9002392902      -15.9920982947  MEMB      272             0.0000000000
     33739       272  PMPE      C21            -2.4707426874       36.8649042391      -15.2864268637  MEMB      272             0.0000000000
     33740       272  PMPE      O22            -3.2012792184       35.9697957327      -14.9417326174  MEMB      272             0.0000000000
     33741       272  PMPE      C22            -2.7693812838       38.1468953589      -15.0101366878  MEMB      272             0.0000000000
     33742       272  PMPE      H2R            -3.0334380711       38.7532512177      -15.8969323471  MEMB      272             0.0000000000
     33743       272  PMPE      H2S            -1.9535605431       38.6504462981      -14.5036492625  MEMB      272             0.0000000000
     33744       272  PMPE      C3              0.6878439917       35.5027023084      -15.8931123183  MEMB      272             0.0000000000
     33745       272  PMPE      HX              1.4186126467       35.9817104857      -16.5115354612  MEMB      272             0.0000000000
     33746       272  PMPE      HY              1.1098331228       34.4473236832      -16.0804216586  MEMB      272             0.0000000000
     33747       272  PMPE      O31             0.8828481350       35.7076857278      -14.4495445102  MEMB      272             0.0000000000
     33748       272  PMPE      C31             1.2091525642       36.9430824013      -14.1844104245  MEMB      272             0.0000000000
     33749       272  PMPE      O32             1.2351893632       37.8401113200      -15.0138114366  MEMB      272             0.0000000000
     33750       272  PMPE      C32             1.4896482280       37.1280215968      -12.6997326238  MEMB      272             0.0000000000
     33751       272  PMPE      H2X             2.1921130270       37.9975288641      -12.6338081785  MEMB      272             0.0000000000
     33752       272  PMPE      H2Y             1.9525815465       36.2073685641      -12.2802000067  MEMB      272             0.0000000000
     33753       272  PMPE      C23            -3.8105146467       37.7774196962      -14.0567099366  MEMB      272             0.0000000000
     33754       272  PMPE      H3R            -4.7331811533       37.1743266470      -13.8783101197  MEMB      272             0.0000000000
     33755       272  PMPE      H3S            -4.4627253933       38.2699042581      -14.9648262174  MEMB      272             0.0000000000
     33756       272  PMPE      C24            -3.4717902548       38.4598148335      -12.5810768979  MEMB      272             0.0000000000
     33757       272  PMPE      H4R            -2.4356136035       38.5511467290      -12.4485081516  MEMB      272             0.0000000000
     33758       272  PMPE      H4S            -4.0715121931       37.7280831272      -11.9327951376  MEMB      272             0.0000000000
     33759       272  PMPE      C25            -3.5541530180       40.2269336455      -12.1373521690  MEMB      272             0.0000000000
     33760       272  PMPE      H5R            -4.8080389766       41.1785863615      -12.7175923454  MEMB      272             0.0000000000
     33761       272  PMPE      H5S            -3.4015205753       40.8829076902      -12.8521500683  MEMB      272             0.0000000000
     33762       272  PMPE      C26            -3.6174110521       40.4096863063      -10.3271668298  MEMB      272             0.0000000000
     33763       272  PMPE      H6R            -4.2038260831       39.6436746946       -9.7803333074  MEMB      272             0.0000000000
     33764       272  PMPE      H6S            -4.3227451870       41.3338504907       -9.8740108091  MEMB      272             0.0000000000
     33765       272  PMPE      C27            -2.3549447531       40.6841150848      -10.2758538958  MEMB      272             0.0000000000
     33766       272  PMPE      H7R            -2.0984392034       41.3318751576      -11.1551168610  MEMB      272             0.0000000000
     33767       272  PMPE      H7S            -2.0576450397       39.6366820751      -10.4790428574  MEMB      272             0.0000000000
     33768       272  PMPE      C28            -2.1097499231       41.1401446454       -8.9181788550  MEMB      272             0.0000000000
     33769       272  PMPE      H8R            -2.5697502075       42.1424861324       -8.7334109043  MEMB      272             0.0000000000
     33770       272  PMPE      H8S            -1.0252686732       41.1811633479       -8.9866093857  MEMB      272             0.0000000000
     33771       272  PMPE      C29            -2.5300130807       39.9815843304       -7.9937868803  MEMB      272             0.0000000000
     33772       272  PMPE      H9R            -2.5934739357       38.9692830458       -8.3881247263  MEMB      272             0.0000000000
     33773       272  PMPE      C217           -3.5900881452       40.3024619333       -6.9736252122  MEMB      272             0.0000000000
     33774       272  PMPE      H17R           -4.3635578377       39.5590813232       -6.8503167849  MEMB      272             0.0000000000
     33775       272  PMPE      H17S           -3.6897329244       41.3187666927       -7.0078530611  MEMB      272             0.0000000000
     33776       272  PMPE      C210           -2.1707399608       40.0120279316       -6.5721518837  MEMB      272             0.0000000000
     33777       272  PMPE      H10R           -2.2189689477       39.1717596577       -5.8837057520  MEMB      272             0.0000000000
     33778       272  PMPE      C211           -1.2908312240       41.0812091138       -6.1111680800  MEMB      272             0.0000000000
     33779       272  PMPE      H11R           -1.3759152889       40.8252331286       -5.0633522203  MEMB      272             0.0000000000
     33780       272  PMPE      H11S           -1.5505288550       42.1010061723       -6.2310558446  MEMB      272             0.0000000000
     33781       272  PMPE      C212            0.0921005045       41.3084541104       -6.3734624116  MEMB      272             0.0000000000
     33782       272  PMPE      H12R            0.4808681956       42.3706388260       -6.2202538737  MEMB      272             0.0000000000
     33783       272  PMPE      H12S            0.1197466472       41.1700425660       -7.4682865304  MEMB      272             0.0000000000
     33784       272  PMPE      C213            1.0539523699       40.3883276339       -5.6428936815  MEMB      272             0.0000000000
     33785       272  PMPE      H13R            1.9690600059       40.9996471737       -5.5568738431  MEMB      272             0.0000000000
     33786       272  PMPE      H13S            1.3097138707       39.4970196685       -6.2586419267  MEMB      272             0.0000000000
     33787       272  PMPE      C214            0.9166051093       39.8667922486       -4.2588814354  MEMB      272             0.0000000000
     33788       272  PMPE      H14R            1.8386567764       39.2523935694       -4.1461470199  MEMB      272             0.0000000000
     33789       272  PMPE      H14S            0.0208488086       39.2339780514       -4.2895096489  MEMB      272             0.0000000000
     33790       272  PMPE      C215            1.0158097497       40.8549809016       -3.1314334683  MEMB      272             0.0000000000
     33791       272  PMPE      H15R            0.3879755596       41.6141712877       -3.2545245694  MEMB      272             0.0000000000
     33792       272  PMPE      H15S            1.8892276659       41.5142822590       -3.2053043121  MEMB      272             0.0000000000
     33793       272  PMPE      C216            0.6095108005       40.3009467988       -1.7840618640  MEMB      272             0.0000000000
     33794       272  PMPE      H16R           -0.3131528644       39.6821411377       -1.8810595247  MEMB      272             0.0000000000
     33795       272  PMPE      H16S            1.5012372322       39.7274571183       -1.4728920876  MEMB      272             0.0000000000
     33796       272  PMPE      H16T            0.3227090484       41.0681379510       -1.0322602984  MEMB      272             0.0000000000
     33797       272  PMPE      C33             0.1244443111       37.3602414734      -12.0132238814  MEMB      272             0.0000000000
     33798       272  PMPE      H3X            -0.5596789617       36.4825788435      -12.1504191480  MEMB      272             0.0000000000
     33799       272  PMPE      H3Y            -0.3424707015       38.2513310178      -12.4761003897  MEMB      272             0.0000000000
     33800       272  PMPE      C34             0.1843614893       37.7796271212      -10.5504613063  MEMB      272             0.0000000000
     33801       272  PMPE      H4X            -0.8324242652       38.0378337435      -10.1740444444  MEMB      272             0.0000000000
     33802       272  PMPE      H4Y             0.7998752098       38.7015072549      -10.4639094569  MEMB      272             0.0000000000
     33803       272  PMPE      C35             0.7015021870       36.6706958880       -9.6493576732  MEMB      272             0.0000000000
     33804       272  PMPE      H5X             1.5809232403       36.1891182920      -10.1420633601  MEMB      272             0.0000000000
     33805       272  PMPE      H5Y            -0.1144178017       35.9129308998       -9.6373641407  MEMB      272             0.0000000000
     33806       272  PMPE      C36             1.0018534007       37.2523682595       -8.2552396324  MEMB      272             0.0000000000
     33807       272  PMPE      H6X             0.3408620032       38.1030657561       -7.9895311214  MEMB      272             0.0000000000
     33808       272  PMPE      H6Y             2.0623799809       37.5882163146       -8.1947992083  MEMB      272             0.0000000000
     33809       272  PMPE      C37             0.7421839256       36.4000032902       -7.0435590667  MEMB      272             0.0000000000
     33810       272  PMPE      H7X             1.1173796592       36.8929516402       -6.1529641654  MEMB      272             0.0000000000
     33811       272  PMPE      H7Y             1.5381403572       35.6731059078       -7.0289356790  MEMB      272             0.0000000000
     33812       272  PMPE      C38            -0.7470124111       36.0607685961       -6.6726917162  MEMB      272             0.0000000000
     33813       272  PMPE      H8X            -1.2822852264       35.2857348297       -7.2990818383  MEMB      272             0.0000000000
     33814       272  PMPE      H8Y            -1.3162718198       36.9519265851       -6.8252159337  MEMB      272             0.0000000000
     33815       272  PMPE      C39            -0.8382489771       35.6412865633       -5.2060661651  MEMB      272             0.0000000000
     33816       272  PMPE      H9X            -0.3404436790       36.3783575449       -4.5692060281  MEMB      272             0.0000000000
     33817       272  PMPE      H9Y            -0.2629167312       34.8019935032       -4.9954739199  MEMB      272             0.0000000000
     33818       272  PMPE      C310           -2.1729820934       35.2128718669       -4.7174118143  MEMB      272             0.0000000000
     33819       272  PMPE      H10X           -2.1696487643       34.8289514216       -3.7017409318  MEMB      272             0.0000000000
     33820       272  PMPE      H10Y           -2.6764825979       34.4433375753       -5.3763518046  MEMB      272             0.0000000000
     33821       272  PMPE      C311           -3.0159936546       36.3842020236       -4.6873455494  MEMB      272             0.0000000000
     33822       272  PMPE      H11X           -3.8466152484       35.7284184778       -4.7727661881  MEMB      272             0.0000000000
     33823       272  PMPE      H11Y           -2.9602516741       36.8701987374       -5.6585249049  MEMB      272             0.0000000000
     33824       272  PMPE      C312           -3.2369939820       37.3885396787       -3.5526849442  MEMB      272             0.0000000000
     33825       272  PMPE      H12X           -4.0447893698       38.1645475848       -3.6887059917  MEMB      272             0.0000000000
     33826       272  PMPE      H12Y           -2.3119103507       37.9503532251       -3.5348177943  MEMB      272             0.0000000000
     33827       272  PMPE      C313           -3.3313374657       36.6983779012       -2.2809735837  MEMB      272             0.0000000000
     33828       272  PMPE      H13X           -2.5574260002       35.9451318250       -2.2237050227  MEMB      272             0.0000000000
     33829       272  PMPE      H13Y           -4.0803184948       35.9391697906       -2.2175915897  MEMB      272             0.0000000000
     33830       272  PMPE      C314           -3.2874527589       37.5505997027       -1.1419816125  MEMB      272             0.0000000000
     33831       272  PMPE      H14X           -2.2687185929       38.0759383802       -1.0702808297  MEMB      272             0.0000000000
     33832       272  PMPE      H14Y           -3.6604544637       36.9347073112       -0.2713777584  MEMB      272             0.0000000000
     33833       272  PMPE      C315           -3.6287243680       38.6813211063       -0.8790683024  MEMB      272             0.0000000000
     33834       272  PMPE      H15X           -4.5666829515       38.3915802570       -0.7022526967  MEMB      272             0.0000000000
     33835       272  PMPE      H15Y           -3.5736863920       39.2346957434       -1.7649714481  MEMB      272             0.0000000000
     33836       272  PMPE      C316           -3.5641548219       39.0467030968        0.3755654652  MEMB      272             0.0000000000
     33837       272  PMPE      H16X           -3.7602553199       39.9098387386        0.7533172320  MEMB      272             0.0000000000
     33838       272  PMPE      H16Y           -2.9487811432       39.1261188113        1.1753878005  MEMB      272             0.0000000000
     33839       272  PMPE      H16Z           -4.5769213353       39.1579962141        0.6375227597  MEMB      272             0.0000000000
     33840       273  PMPE      N              36.0977737736        8.3796662543      -21.4999469548  MEMB      273             0.0000000000
     33841       273  PMPE      HN1            35.5866068526        8.9911002817      -22.1776736075  MEMB      273             0.0000000000
     33842       273  PMPE      HN2            36.2559171180        7.4298692602      -21.8783703101  MEMB      273             0.0000000000
     33843       273  PMPE      HN3            35.5886531602        8.2644881022      -20.6037638802  MEMB      273             0.0000000000
     33844       273  PMPE      C12            37.3558202121        9.1592516408      -21.2001033165  MEMB      273             0.0000000000
     33845       273  PMPE      H12A           37.0911458147       10.2114953220      -20.9630824431  MEMB      273             0.0000000000
     33846       273  PMPE      H12B           37.9573063879        9.2093949532      -22.1312387665  MEMB      273             0.0000000000
     33847       273  PMPE      C11            38.0749481850        8.4841495935      -20.0322607495  MEMB      273             0.0000000000
     33848       273  PMPE      H11A           38.9707244553        9.0829482740      -19.7271524058  MEMB      273             0.0000000000
     33849       273  PMPE      H11B           38.4176013534        7.5171618882      -20.4286682002  MEMB      273             0.0000000000
     33850       273  PMPE      P              36.8824382599        9.2280916344      -17.8200731647  MEMB      273             0.0000000000
     33851       273  PMPE      O13            35.5216577840        8.8846306175      -17.3687976593  MEMB      273             0.0000000000
     33852       273  PMPE      O14            37.0405677900       10.5441064337      -18.4808087105  MEMB      273             0.0000000000
     33853       273  PMPE      O11            37.9270128785        8.9173449586      -16.6930392858  MEMB      273             0.0000000000
     33854       273  PMPE      O12            37.2038164955        8.1472571766      -18.9507390703  MEMB      273             0.0000000000
     33855       273  PMPE      C1             37.6267496852        8.4848306956      -15.3704870505  MEMB      273             0.0000000000
     33856       273  PMPE      HA             38.4884335400        7.8662723432      -15.0453448937  MEMB      273             0.0000000000
     33857       273  PMPE      HB             36.7734080056        7.7645618291      -15.3225621747  MEMB      273             0.0000000000
     33858       273  PMPE      C2             37.3189005767        9.7469884183      -14.4961626879  MEMB      273             0.0000000000
     33859       273  PMPE      HS             36.5721183602       10.3340403474      -15.0827231513  MEMB      273             0.0000000000
     33860       273  PMPE      O21            38.5156808891       10.5319127868      -14.3092664559  MEMB      273             0.0000000000
     33861       273  PMPE      C21            38.3463837165       11.8266603772      -14.0652385826  MEMB      273             0.0000000000
     33862       273  PMPE      O22            37.2718305436       12.3897049831      -13.9334484920  MEMB      273             0.0000000000
     33863       273  PMPE      C22            39.7456866554       12.4878207167      -14.0913020089  MEMB      273             0.0000000000
     33864       273  PMPE      H2R            39.6205732167       13.5688324724      -14.2793302957  MEMB      273             0.0000000000
     33865       273  PMPE      H2S            40.3156632893       12.0689148350      -14.9398233712  MEMB      273             0.0000000000
     33866       273  PMPE      C3             36.7113038858        9.3551629327      -13.1223414630  MEMB      273             0.0000000000
     33867       273  PMPE      HX             35.8946332873        8.6210037072      -13.3484732470  MEMB      273             0.0000000000
     33868       273  PMPE      HY             36.2340323335       10.1959443201      -12.5854595137  MEMB      273             0.0000000000
     33869       273  PMPE      O31            37.7374368773        8.8638853275      -12.2448141125  MEMB      273             0.0000000000
     33870       273  PMPE      C31            37.5854260898        7.6071786156      -11.9413881185  MEMB      273             0.0000000000
     33871       273  PMPE      O32            36.7390348864        6.8471184719      -12.3754493834  MEMB      273             0.0000000000
     33872       273  PMPE      C32            38.5999954902        7.1960278321      -10.9655656418  MEMB      273             0.0000000000
     33873       273  PMPE      H2X            38.8822543466        7.9559607474      -10.2347849176  MEMB      273             0.0000000000
     33874       273  PMPE      H2Y            39.5092620534        6.8525340113      -11.5386402003  MEMB      273             0.0000000000
     33875       273  PMPE      C23            40.5977448618       12.3504191017      -12.8068232570  MEMB      273             0.0000000000
     33876       273  PMPE      H3R            40.0326588658       12.8602850752      -12.0224188336  MEMB      273             0.0000000000
     33877       273  PMPE      H3S            41.5637440816       12.8918351424      -12.9204226357  MEMB      273             0.0000000000
     33878       273  PMPE      C24            40.8413919450       10.9221243144      -12.3075429145  MEMB      273             0.0000000000
     33879       273  PMPE      H4R            41.1072466152       10.2719085790      -13.1755405462  MEMB      273             0.0000000000
     33880       273  PMPE      H4S            39.8682300328       10.6055300311      -11.8755494355  MEMB      273             0.0000000000
     33881       273  PMPE      C25            41.8783230344       10.8347174368      -11.1757452525  MEMB      273             0.0000000000
     33882       273  PMPE      H5R            42.6940592036       11.5548046508      -11.3998953737  MEMB      273             0.0000000000
     33883       273  PMPE      H5S            42.2535414943        9.8198188749      -10.9616404101  MEMB      273             0.0000000000
     33884       273  PMPE      C26            41.4297064963       11.3475689018       -9.8644803562  MEMB      273             0.0000000000
     33885       273  PMPE      H6R            41.0000938999       12.3032351061      -10.1649160623  MEMB      273             0.0000000000
     33886       273  PMPE      H6S            42.2776059991       11.5412265121       -9.1685873498  MEMB      273             0.0000000000
     33887       273  PMPE      C27            40.5372960352       10.4431951066       -9.0720108621  MEMB      273             0.0000000000
     33888       273  PMPE      H7R            41.0637861817        9.4935200351       -9.0206803091  MEMB      273             0.0000000000
     33889       273  PMPE      H7S            39.5249331110       10.5035245836       -9.5325177001  MEMB      273             0.0000000000
     33890       273  PMPE      C28            40.6782024413       10.5425879437       -7.5898986019  MEMB      273             0.0000000000
     33891       273  PMPE      H8R            40.6306489857       11.4914981039       -7.6676064973  MEMB      273             0.0000000000
     33892       273  PMPE      H8S            41.6171457479       10.8708167433       -7.1370823779  MEMB      273             0.0000000000
     33893       273  PMPE      C29            39.5362136541        9.7715346730       -6.9405396882  MEMB      273             0.0000000000
     33894       273  PMPE      H9R            39.7685922668        8.7592103141       -6.8792071125  MEMB      273             0.0000000000
     33895       273  PMPE      C217           38.0082312502       10.1565147165       -6.9809166154  MEMB      273             0.0000000000
     33896       273  PMPE      H17R           37.3117786210        9.4319507159       -6.7474099175  MEMB      273             0.0000000000
     33897       273  PMPE      H17S           37.6720466045       11.0842627454       -7.4194529367  MEMB      273             0.0000000000
     33898       273  PMPE      C210           38.7736472166       10.1231906571       -5.7977264025  MEMB      273             0.0000000000
     33899       273  PMPE      H10R           38.6155777079        9.5317198810       -4.8811691463  MEMB      273             0.0000000000
     33900       273  PMPE      C211           39.0886553738       11.2426519825       -5.8412876786  MEMB      273             0.0000000000
     33901       273  PMPE      H11R           38.0927487704       12.1966542775       -5.3722355294  MEMB      273             0.0000000000
     33902       273  PMPE      H11S           38.5099189536       12.3078329447       -5.6818240686  MEMB      273             0.0000000000
     33903       273  PMPE      C212           41.2333415657       11.2004328221       -4.3451644544  MEMB      273             0.0000000000
     33904       273  PMPE      H12R           41.5555338551       12.3032699614       -4.1285733723  MEMB      273             0.0000000000
     33905       273  PMPE      H12S           41.6026824889       11.1972980475       -5.0410661044  MEMB      273             0.0000000000
     33906       273  PMPE      C213           40.8272628813       10.2864880250       -2.9283220883  MEMB      273             0.0000000000
     33907       273  PMPE      H13R           40.5515123772        9.4558597230       -3.5659170894  MEMB      273             0.0000000000
     33908       273  PMPE      H13S           39.7781396832       10.4929781626       -2.3721039752  MEMB      273             0.0000000000
     33909       273  PMPE      C214           41.8196905606       10.4503010526       -2.0931046163  MEMB      273             0.0000000000
     33910       273  PMPE      H14R           42.6450438557       10.6280250335       -2.7433218748  MEMB      273             0.0000000000
     33911       273  PMPE      H14S           41.7164052754        9.4470192856       -1.7188980734  MEMB      273             0.0000000000
     33912       273  PMPE      C215           41.6259563830       11.4208909361       -1.0548901920  MEMB      273             0.0000000000
     33913       273  PMPE      H15R           40.6400707930       11.6635901605       -0.6216726033  MEMB      273             0.0000000000
     33914       273  PMPE      H15S           42.1503894870       12.4015506841       -1.2401286476  MEMB      273             0.0000000000
     33915       273  PMPE      C216           42.4047821231       10.9217746033       -0.2514809812  MEMB      273             0.0000000000
     33916       273  PMPE      H16R           41.9344305594       11.1421963816        0.6378628599  MEMB      273             0.0000000000
     33917       273  PMPE      H16S           42.3730775464        9.9556660713        0.2038627765  MEMB      273             0.0000000000
     33918       273  PMPE      H16T           43.4664648083       11.3922483831       -0.3863727327  MEMB      273             0.0000000000
     33919       273  PMPE      C33            38.0090379137        6.0119374553      -10.2396702869  MEMB      273             0.0000000000
     33920       273  PMPE      H3X            38.8724687290        5.6420033414       -9.9113855043  MEMB      273             0.0000000000
     33921       273  PMPE      H3Y            37.4935482865        5.2487490395      -10.8164864585  MEMB      273             0.0000000000
     33922       273  PMPE      C34            37.2319977515        5.8382357580       -8.9927138815  MEMB      273             0.0000000000
     33923       273  PMPE      H4X            37.0555311302        4.7452431572       -8.8305927007  MEMB      273             0.0000000000
     33924       273  PMPE      H4Y            36.2838804958        6.2313777176       -9.3542340320  MEMB      273             0.0000000000
     33925       273  PMPE      C35            37.7774307033        6.5240660651       -7.7741238458  MEMB      273             0.0000000000
     33926       273  PMPE      H5X            36.9789873417        6.6882782185       -7.0585587360  MEMB      273             0.0000000000
     33927       273  PMPE      H5Y            38.1428345517        7.5059647181       -8.1517121630  MEMB      273             0.0000000000
     33928       273  PMPE      C36            38.8443790361        5.8024504979       -6.9639030811  MEMB      273             0.0000000000
     33929       273  PMPE      H6X            39.2405255008        6.4600839361       -6.1614517409  MEMB      273             0.0000000000
     33930       273  PMPE      H6Y            39.4703494393        5.7645969862       -7.8026485218  MEMB      273             0.0000000000
     33931       273  PMPE      C37            38.7350062062        4.3566529972       -6.4843231463  MEMB      273             0.0000000000
     33932       273  PMPE      H7X            39.6916495510        4.1324222214       -5.9501936622  MEMB      273             0.0000000000
     33933       273  PMPE      H7Y            38.6198579123        3.6040159927       -7.3024811211  MEMB      273             0.0000000000
     33934       273  PMPE      C38            37.5538488364        4.2289723037       -5.5511125136  MEMB      273             0.0000000000
     33935       273  PMPE      H8X            37.6755065018        3.3586113602       -4.8758010160  MEMB      273             0.0000000000
     33936       273  PMPE      H8Y            36.6503017299        4.0910456862       -6.1755467472  MEMB      273             0.0000000000
     33937       273  PMPE      C39            37.3243550946        5.4264642496       -4.6250387697  MEMB      273             0.0000000000
     33938       273  PMPE      H9X            37.2505987021        6.4039023760       -5.1260162314  MEMB      273             0.0000000000
     33939       273  PMPE      H9Y            38.2213623293        5.4962561268       -3.9910456219  MEMB      273             0.0000000000
     33940       273  PMPE      C310           36.0335588030        5.2981868297       -3.8242897520  MEMB      273             0.0000000000
     33941       273  PMPE      H10X           35.9981430788        4.3054885268       -3.3779696777  MEMB      273             0.0000000000
     33942       273  PMPE      H10Y           35.1915494333        5.3407821376       -4.5453449757  MEMB      273             0.0000000000
     33943       273  PMPE      C311           35.8976704180        6.2806383335       -2.6454946389  MEMB      273             0.0000000000
     33944       273  PMPE      H11X           36.7181070310        6.0745965514       -1.9254289819  MEMB      273             0.0000000000
     33945       273  PMPE      H11Y           34.9257728591        6.0892263666       -2.1343527339  MEMB      273             0.0000000000
     33946       273  PMPE      C312           35.9484169387        7.7848668074       -2.9481504504  MEMB      273             0.0000000000
     33947       273  PMPE      H12X           35.0672994712        7.9714143610       -3.5971631099  MEMB      273             0.0000000000
     33948       273  PMPE      H12Y           36.9240753799        8.0399939194       -3.4291312328  MEMB      273             0.0000000000
     33949       273  PMPE      C313           35.7627190475        8.6088018594       -1.6787139892  MEMB      273             0.0000000000
     33950       273  PMPE      H13X           35.0968198089        8.0217461001       -1.0216147584  MEMB      273             0.0000000000
     33951       273  PMPE      H13Y           35.2138245080        9.5552451834       -1.8686538498  MEMB      273             0.0000000000
     33952       273  PMPE      C314           37.1078061416        8.9748537807       -1.0982541065  MEMB      273             0.0000000000
     33953       273  PMPE      H14X           37.4436978342        9.8630384220       -1.6998325079  MEMB      273             0.0000000000
     33954       273  PMPE      H14Y           37.9133665067        8.2136870231       -1.0719243552  MEMB      273             0.0000000000
     33955       273  PMPE      C315           37.0988369552        9.3104480000        0.3246854413  MEMB      273             0.0000000000
     33956       273  PMPE      H15X           36.5498549147        8.7616583365        1.1111374637  MEMB      273             0.0000000000
     33957       273  PMPE      H15Y           36.2168297783        9.7840148478        0.6151038506  MEMB      273             0.0000000000
     33958       273  PMPE      C316           38.4419646061        9.9671249363        0.5932287693  MEMB      273             0.0000000000
     33959       273  PMPE      H16X           39.0316335992       10.6863547662        0.1595401954  MEMB      273             0.0000000000
     33960       273  PMPE      H16Y           38.7824114056        9.4704411170        1.5609570239  MEMB      273             0.0000000000
     33961       273  PMPE      H16Z           38.2970075158       11.1837963138        0.7508413435  MEMB      273             0.0000000000
     33962       274  PMPE      N             -40.2781279493        4.1922157827      -20.7593025932  MEMB      274             0.0000000000
     33963       274  PMPE      HN1           -40.7175002263        4.8972889275      -21.4152996509  MEMB      274             0.0000000000
     33964       274  PMPE      HN2           -40.6392568234        3.2386522375      -20.8931186882  MEMB      274             0.0000000000
     33965       274  PMPE      HN3           -40.4618194880        4.4888330387      -19.7817266138  MEMB      274             0.0000000000
     33966       274  PMPE      C12           -38.7987032705        4.0362173041      -20.9972544497  MEMB      274             0.0000000000
     33967       274  PMPE      H12A          -38.4678643100        4.9692554109      -21.4929489021  MEMB      274             0.0000000000
     33968       274  PMPE      H12B          -38.6605816955        3.2723627671      -21.7950955471  MEMB      274             0.0000000000
     33969       274  PMPE      C11           -38.0412587956        3.6577780639      -19.6827724490  MEMB      274             0.0000000000
     33970       274  PMPE      H11A          -38.1490530202        4.4312092805      -18.8695385661  MEMB      274             0.0000000000
     33971       274  PMPE      H11B          -36.9871194542        3.6322687056      -20.0388622909  MEMB      274             0.0000000000
     33972       274  PMPE      P             -37.3239428702        1.6394116723      -18.1206995564  MEMB      274             0.0000000000
     33973       274  PMPE      O13           -36.1309647015        2.5068719116      -18.0462065594  MEMB      274             0.0000000000
     33974       274  PMPE      O14           -37.1953629624        0.2127025957      -18.5013899308  MEMB      274             0.0000000000
     33975       274  PMPE      O11           -38.1245583085        1.7772457765      -16.7455536081  MEMB      274             0.0000000000
     33976       274  PMPE      O12           -38.3650718695        2.3556444872      -19.1567293809  MEMB      274             0.0000000000
     33977       274  PMPE      C1            -38.2271911668        0.8208793090      -15.6940014447  MEMB      274             0.0000000000
     33978       274  PMPE      HA            -38.0557052220       -0.1965935745      -16.1026634616  MEMB      274             0.0000000000
     33979       274  PMPE      HB            -39.2623431798        0.8993047638      -15.2946263276  MEMB      274             0.0000000000
     33980       274  PMPE      C2            -37.3392940895        1.0426806296      -14.4088967529  MEMB      274             0.0000000000
     33981       274  PMPE      HS            -37.8446793974        0.4974621644      -13.5691496508  MEMB      274             0.0000000000
     33982       274  PMPE      O21           -37.1581436795        2.4464727964      -14.1166102237  MEMB      274             0.0000000000
     33983       274  PMPE      C21           -36.9161379961        2.7254884957      -12.8557846012  MEMB      274             0.0000000000
     33984       274  PMPE      O22           -37.1301963631        2.0061657960      -11.8939225760  MEMB      274             0.0000000000
     33985       274  PMPE      C22           -36.2816750198        4.0913501800      -12.7731804609  MEMB      274             0.0000000000
     33986       274  PMPE      H2R           -36.5045003110        4.6489474069      -13.7153897766  MEMB      274             0.0000000000
     33987       274  PMPE      H2S           -35.2207791567        4.0070763144      -12.5308576704  MEMB      274             0.0000000000
     33988       274  PMPE      C3            -35.9625845954        0.3468317398      -14.5977873085  MEMB      274             0.0000000000
     33989       274  PMPE      HX            -35.2725979817        1.0035853267      -15.1671941776  MEMB      274             0.0000000000
     33990       274  PMPE      HY            -36.1520488919       -0.5723864203      -15.1913623136  MEMB      274             0.0000000000
     33991       274  PMPE      O31           -35.4265521073       -0.1078699821      -13.3539964981  MEMB      274             0.0000000000
     33992       274  PMPE      C31           -34.2136052366        0.2705876179      -13.0467110737  MEMB      274             0.0000000000
     33993       274  PMPE      O32           -33.5344922336        1.0811814353      -13.6151123858  MEMB      274             0.0000000000
     33994       274  PMPE      C32           -33.7917567653       -0.4931507537      -11.8220686091  MEMB      274             0.0000000000
     33995       274  PMPE      H2X           -33.0769308081       -1.2649702421      -12.1630338265  MEMB      274             0.0000000000
     33996       274  PMPE      H2Y           -34.6911362723       -0.9593030782      -11.3710964164  MEMB      274             0.0000000000
     33997       274  PMPE      C23           -36.9073947385        4.7935786997      -11.6432323587  MEMB      274             0.0000000000
     33998       274  PMPE      H3R           -37.1376634906        4.2154310578      -10.7419988624  MEMB      274             0.0000000000
     33999       274  PMPE      H3S           -37.7119298625        5.0088417086      -12.2548536929  MEMB      274             0.0000000000
     34000       274  PMPE      C24           -36.3264104219        6.0153182957      -11.2405603974  MEMB      274             0.0000000000
     34001       274  PMPE      H4R           -35.7617035548        6.6368458286      -11.9672591435  MEMB      274             0.0000000000
     34002       274  PMPE      H4S           -35.6025431958        5.6511749057      -10.4659367830  MEMB      274             0.0000000000
     34003       274  PMPE      C25           -37.2521726154        6.9514002799      -10.5456671622  MEMB      274             0.0000000000
     34004       274  PMPE      H5R           -37.9159638505        7.4963602449      -11.1397305989  MEMB      274             0.0000000000
     34005       274  PMPE      H5S           -36.7667717782        7.9414101241      -10.5910125601  MEMB      274             0.0000000000
     34006       274  PMPE      C26           -37.8857593515        6.4937899771       -9.2029502417  MEMB      274             0.0000000000
     34007       274  PMPE      H6R           -38.2711876511        5.5275315889       -9.4731987115  MEMB      274             0.0000000000
     34008       274  PMPE      H6S           -38.6663276952        7.2160486978       -8.7623607873  MEMB      274             0.0000000000
     34009       274  PMPE      C27           -37.2331237875        6.0241199496       -8.0101805645  MEMB      274             0.0000000000
     34010       274  PMPE      H7R           -36.8910105241        6.8774225632       -7.5609751554  MEMB      274             0.0000000000
     34011       274  PMPE      H7S           -36.5188707984        5.2721394783       -8.2541524048  MEMB      274             0.0000000000
     34012       274  PMPE      C28           -37.8219171023        6.1862012888       -6.7119835672  MEMB      274             0.0000000000
     34013       274  PMPE      H8R           -38.2799335058        7.1564997469       -6.3584542101  MEMB      274             0.0000000000
     34014       274  PMPE      H8S           -37.0673770674        5.9133439599       -5.9184749736  MEMB      274             0.0000000000
     34015       274  PMPE      C29           -38.8763800998        5.2752323017       -6.9808600071  MEMB      274             0.0000000000
     34016       274  PMPE      H9R           -38.6846830315        4.2725763868       -7.4716502578  MEMB      274             0.0000000000
     34017       274  PMPE      C217          -40.0087330972        6.0358302457       -7.5611278258  MEMB      274             0.0000000000
     34018       274  PMPE      H17R          -40.2203940094        5.4178060571       -8.3052067953  MEMB      274             0.0000000000
     34019       274  PMPE      H17S          -40.4568289691        6.9015847754       -7.3292623876  MEMB      274             0.0000000000
     34020       274  PMPE      C210          -40.2878989687        5.6503610296       -6.4408549528  MEMB      274             0.0000000000
     34021       274  PMPE      H10R          -40.7159820083        4.9321937883       -6.4893927705  MEMB      274             0.0000000000
     34022       274  PMPE      C211          -40.8319198613        6.4028174803       -5.0832950176  MEMB      274             0.0000000000
     34023       274  PMPE      H11R          -41.4292676894        6.2679424580       -4.2528987425  MEMB      274             0.0000000000
     34024       274  PMPE      H11S          -40.0698971224        6.9885789080       -5.6581231432  MEMB      274             0.0000000000
     34025       274  PMPE      C212          -39.6776248494        5.5687766157       -2.5925064861  MEMB      274             0.0000000000
     34026       274  PMPE      H12R          -38.1318284349        5.1934243746       -3.0371712772  MEMB      274             0.0000000000
     34027       274  PMPE      H12S          -40.1991979092        4.6318445767       -2.4087854311  MEMB      274             0.0000000000
     34028       274  PMPE      C213          -39.3968404973        6.7405345016       -1.7534428284  MEMB      274             0.0000000000
     34029       274  PMPE      H13R          -40.2167665708        6.8760578032       -1.3849373175  MEMB      274             0.0000000000
     34030       274  PMPE      H13S          -39.6327395618        8.1230541606       -2.4198138306  MEMB      274             0.0000000000
     34031       274  PMPE      C214          -38.1448139245        6.3362695286       -1.0804913714  MEMB      274             0.0000000000
     34032       274  PMPE      H14R          -38.7170725306        5.6860924586       -0.8350871457  MEMB      274             0.0000000000
     34033       274  PMPE      H14S          -38.1271741856        6.9889558390       -0.2622750181  MEMB      274             0.0000000000
     34034       274  PMPE      C215          -36.6714510970        6.3008177446       -1.3081773667  MEMB      274             0.0000000000
     34035       274  PMPE      H15R          -36.4638415816        6.3806671019       -0.3071632506  MEMB      274             0.0000000000
     34036       274  PMPE      H15S          -36.2763222407        7.2361113492       -1.5803457330  MEMB      274             0.0000000000
     34037       274  PMPE      C216          -36.0657517934        5.2359115582       -2.0975507794  MEMB      274             0.0000000000
     34038       274  PMPE      H16R          -36.2728820763        4.3207049527       -1.5798244313  MEMB      274             0.0000000000
     34039       274  PMPE      H16S          -36.3710962034        5.3710932632       -3.0875326763  MEMB      274             0.0000000000
     34040       274  PMPE      H16T          -35.0880593741        5.3563378026       -2.5203139234  MEMB      274             0.0000000000
     34041       274  PMPE      C33           -33.0639794904        0.3855501236      -10.8071508570  MEMB      274             0.0000000000
     34042       274  PMPE      H3X           -32.1123368665        0.7800500349      -11.2305386874  MEMB      274             0.0000000000
     34043       274  PMPE      H3Y           -32.7528908045       -0.3007973772       -9.9969643482  MEMB      274             0.0000000000
     34044       274  PMPE      C34           -33.9381682742        1.5238305038      -10.3171857926  MEMB      274             0.0000000000
     34045       274  PMPE      H4X           -34.7352185695        1.2505231373       -9.5945424091  MEMB      274             0.0000000000
     34046       274  PMPE      H4Y           -34.4117454985        2.0754435808      -11.1390640427  MEMB      274             0.0000000000
     34047       274  PMPE      C35           -33.1453436810        2.4812536422       -9.6139013603  MEMB      274             0.0000000000
     34048       274  PMPE      H5X           -33.8593287071        3.3590632357       -9.4676696819  MEMB      274             0.0000000000
     34049       274  PMPE      H5Y           -32.2459667480        2.8681758721      -10.1959703321  MEMB      274             0.0000000000
     34050       274  PMPE      C36           -32.7307848066        1.7633692016       -8.2809479663  MEMB      274             0.0000000000
     34051       274  PMPE      H6X           -32.0268263227        2.3419938220       -7.8455425370  MEMB      274             0.0000000000
     34052       274  PMPE      H6Y           -31.6735799722        1.5098060643       -8.1516766112  MEMB      274             0.0000000000
     34053       274  PMPE      C37           -33.7089501443        1.7323553397       -7.0473690780  MEMB      274             0.0000000000
     34054       274  PMPE      H7X           -33.1793341223        1.6388161904       -6.0600677574  MEMB      274             0.0000000000
     34055       274  PMPE      H7Y           -34.1366720719        0.8169672106       -7.3427779535  MEMB      274             0.0000000000
     34056       274  PMPE      C38           -34.8434209131        2.7906281271       -6.8345264011  MEMB      274             0.0000000000
     34057       274  PMPE      H8X           -35.2995330425        2.8349759403       -7.8190454469  MEMB      274             0.0000000000
     34058       274  PMPE      H8Y           -34.5998024541        3.8458667595       -6.6152157688  MEMB      274             0.0000000000
     34059       274  PMPE      C39           -35.7113381315        2.5445302639       -5.6018058279  MEMB      274             0.0000000000
     34060       274  PMPE      H9X           -36.6557609822        3.1151009066       -5.6225800064  MEMB      274             0.0000000000
     34061       274  PMPE      H9Y           -35.1375728380        2.8288731834       -4.6925553126  MEMB      274             0.0000000000
     34062       274  PMPE      C310          -36.1114799051        1.1032782950       -5.4440711218  MEMB      274             0.0000000000
     34063       274  PMPE      H10X          -35.2836439334        0.6317722966       -4.8602838906  MEMB      274             0.0000000000
     34064       274  PMPE      H10Y          -36.1212395663        0.7871298513       -6.5122092352  MEMB      274             0.0000000000
     34065       274  PMPE      C311          -37.4571172863        0.8315709926       -4.7298914945  MEMB      274             0.0000000000
     34066       274  PMPE      H11X          -37.4738358206       -0.2773989860       -4.6189706055  MEMB      274             0.0000000000
     34067       274  PMPE      H11Y          -38.3523401377        1.1232464622       -5.3282285328  MEMB      274             0.0000000000
     34068       274  PMPE      C312          -37.5373681332        1.4064252961       -3.2977668051  MEMB      274             0.0000000000
     34069       274  PMPE      H12X          -37.0429304347        2.3987862452       -3.2591650469  MEMB      274             0.0000000000
     34070       274  PMPE      H12Y          -36.9016690904        0.7316565177       -2.6912833767  MEMB      274             0.0000000000
     34071       274  PMPE      C313          -38.9583804093        1.4749383552       -2.6946089958  MEMB      274             0.0000000000
     34072       274  PMPE      H13X          -39.5191271143        0.5472573894       -2.8655920731  MEMB      274             0.0000000000
     34073       274  PMPE      H13Y          -39.5077967269        2.2624435887       -3.1365629965  MEMB      274             0.0000000000
     34074       274  PMPE      C314          -39.0591551739        1.8524953247       -1.2390961917  MEMB      274             0.0000000000
     34075       274  PMPE      H14X          -40.0059298485        2.4103941188       -1.0177345339  MEMB      274             0.0000000000
     34076       274  PMPE      H14Y          -38.2170843686        2.5699240782       -1.0967250181  MEMB      274             0.0000000000
     34077       274  PMPE      C315          -38.8906992332        0.6251038761       -0.3276798481  MEMB      274             0.0000000000
     34078       274  PMPE      H15X          -37.9120678377        0.1650762456       -0.6369532735  MEMB      274             0.0000000000
     34079       274  PMPE      H15Y          -39.6982754526       -0.0863130119       -0.3036407163  MEMB      274             0.0000000000
     34080       274  PMPE      C316          -38.8874061670        0.8922168247        1.1191464713  MEMB      274             0.0000000000
     34081       274  PMPE      H16X          -38.9175965902        0.2025030757        1.9349960943  MEMB      274             0.0000000000
     34082       274  PMPE      H16Y          -39.4345012930        1.7751471936        1.4642318544  MEMB      274             0.0000000000
     34083       274  PMPE      H16Z          -37.8867983622        1.2316033731        0.9202432914  MEMB      274             0.0000000000
     34084       275  PMPE      N             -11.4626852130       38.1500709404      -19.8224025270  MEMB      275             0.0000000000
     34085       275  PMPE      HN1           -11.5509932981       38.7811854289      -20.6447598132  MEMB      275             0.0000000000
     34086       275  PMPE      HN2           -12.4198927597       38.0423377004      -19.4538673762  MEMB      275             0.0000000000
     34087       275  PMPE      HN3           -10.8558330339       38.5603490128      -19.0646768417  MEMB      275             0.0000000000
     34088       275  PMPE      C12           -11.0080128431       36.7701398666      -20.2392081042  MEMB      275             0.0000000000
     34089       275  PMPE      H12A          -11.4877189739       36.4977466593      -21.1990241835  MEMB      275             0.0000000000
     34090       275  PMPE      H12B          -11.4010200126       36.0641703669      -19.4841844895  MEMB      275             0.0000000000
     34091       275  PMPE      C11            -9.4808364807       36.6709420751      -20.2732485768  MEMB      275             0.0000000000
     34092       275  PMPE      H11A           -9.1079509647       37.4929554812      -20.9346080586  MEMB      275             0.0000000000
     34093       275  PMPE      H11B           -9.1610357038       35.6787127204      -20.6722057882  MEMB      275             0.0000000000
     34094       275  PMPE      P              -7.6146916950       37.2192641142      -18.3483074750  MEMB      275             0.0000000000
     34095       275  PMPE      O13            -6.7856302532       37.8190916352      -19.3984250199  MEMB      275             0.0000000000
     34096       275  PMPE      O14            -7.0470836326       36.1377883568      -17.5317456530  MEMB      275             0.0000000000
     34097       275  PMPE      O11            -8.0504802283       38.4184893186      -17.4188621244  MEMB      275             0.0000000000
     34098       275  PMPE      O12            -9.0268340835       36.7675848531      -18.9395679049  MEMB      275             0.0000000000
     34099       275  PMPE      C1             -8.8777616137       38.2269854453      -16.2838107067  MEMB      275             0.0000000000
     34100       275  PMPE      HA             -8.6760063385       37.2635599506      -15.7536831974  MEMB      275             0.0000000000
     34101       275  PMPE      HB             -9.9389812714       38.2175370644      -16.5917264975  MEMB      275             0.0000000000
     34102       275  PMPE      C2             -8.6628111795       39.3596128871      -15.2569590973  MEMB      275             0.0000000000
     34103       275  PMPE      HS             -9.1764821851       40.2860094300      -15.6251170240  MEMB      275             0.0000000000
     34104       275  PMPE      O21            -7.2732013380       39.6121927514      -15.1392697221  MEMB      275             0.0000000000
     34105       275  PMPE      C21            -6.9908597637       40.7663226590      -14.5988607724  MEMB      275             0.0000000000
     34106       275  PMPE      O22            -7.7445160881       41.5798984404      -14.1026772494  MEMB      275             0.0000000000
     34107       275  PMPE      C22            -5.6063442750       40.8511444885      -14.5756447299  MEMB      275             0.0000000000
     34108       275  PMPE      H2R            -5.3209502043       41.9021568549      -14.1424857229  MEMB      275             0.0000000000
     34109       275  PMPE      H2S            -4.9446945438       40.7238629051      -15.3924811277  MEMB      275             0.0000000000
     34110       275  PMPE      C3             -9.2725921587       38.9770347992      -13.8832868266  MEMB      275             0.0000000000
     34111       275  PMPE      HX            -10.3354521070       38.7467834261      -14.0403618494  MEMB      275             0.0000000000
     34112       275  PMPE      HY             -9.1436512246       39.8468763196      -13.1992089256  MEMB      275             0.0000000000
     34113       275  PMPE      O31            -8.7069647295       37.7845981786      -13.3598119565  MEMB      275             0.0000000000
     34114       275  PMPE      C31            -9.2001077848       37.3370673788      -12.2466015605  MEMB      275             0.0000000000
     34115       275  PMPE      O32           -10.0860048068       37.8428945184      -11.5707553649  MEMB      275             0.0000000000
     34116       275  PMPE      C32            -8.2816924889       36.1655747996      -11.9587456026  MEMB      275             0.0000000000
     34117       275  PMPE      H2X            -8.1658346419       35.5351376527      -12.8337645543  MEMB      275             0.0000000000
     34118       275  PMPE      H2Y            -8.5821081649       35.4317882718      -11.3109391632  MEMB      275             0.0000000000
     34119       275  PMPE      C23            -5.4730569472       39.6118073932      -13.5978701032  MEMB      275             0.0000000000
     34120       275  PMPE      H3R            -4.2712451210       39.8075711168      -14.0549953511  MEMB      275             0.0000000000
     34121       275  PMPE      H3S            -5.7873474681       38.6566210460      -13.5970548403  MEMB      275             0.0000000000
     34122       275  PMPE      C24            -5.7378800182       39.7493468866      -11.6964345113  MEMB      275             0.0000000000
     34123       275  PMPE      H4R            -5.1198604546       41.1338658400      -11.2658546181  MEMB      275             0.0000000000
     34124       275  PMPE      H4S            -5.1736427137       38.8914847624      -11.1531019438  MEMB      275             0.0000000000
     34125       275  PMPE      C25            -6.6140460289       40.4908364273      -11.0683491806  MEMB      275             0.0000000000
     34126       275  PMPE      H5R            -7.2493612439       39.9935996895      -11.7795414343  MEMB      275             0.0000000000
     34127       275  PMPE      H5S            -6.5797431360       41.5898399282      -11.3259474674  MEMB      275             0.0000000000
     34128       275  PMPE      C26            -6.5158425092       40.0888048136       -9.6596762091  MEMB      275             0.0000000000
     34129       275  PMPE      H6R            -5.7832593405       40.6421927074       -9.0455286214  MEMB      275             0.0000000000
     34130       275  PMPE      H6S            -6.2015745925       39.0130288629       -9.6194194707  MEMB      275             0.0000000000
     34131       275  PMPE      C27            -7.8835957674       40.3760285514       -9.2820767309  MEMB      275             0.0000000000
     34132       275  PMPE      H7R            -8.4556354780       39.6263779268       -9.8463005294  MEMB      275             0.0000000000
     34133       275  PMPE      H7S            -8.2199630895       41.3482731122       -9.7201738935  MEMB      275             0.0000000000
     34134       275  PMPE      C28            -7.9608061853       40.2513973418       -7.7950931006  MEMB      275             0.0000000000
     34135       275  PMPE      H8R            -7.4292995685       41.1793572491       -7.4647325359  MEMB      275             0.0000000000
     34136       275  PMPE      H8S            -7.4070508619       39.3451332921       -7.4664664765  MEMB      275             0.0000000000
     34137       275  PMPE      C29            -9.4034124405       40.0899195016       -7.3943854159  MEMB      275             0.0000000000
     34138       275  PMPE      H9R           -10.1033551323       39.5158640359       -8.0132707781  MEMB      275             0.0000000000
     34139       275  PMPE      C217           -9.9020527413       41.3555779445       -6.9454823034  MEMB      275             0.0000000000
     34140       275  PMPE      H17R          -10.8705889099       41.4982751085       -7.2762445867  MEMB      275             0.0000000000
     34141       275  PMPE      H17S           -9.1345790293       42.0747543785       -6.9423537493  MEMB      275             0.0000000000
     34142       275  PMPE      C210           -9.8641770528       40.2963425911       -5.9537774045  MEMB      275             0.0000000000
     34143       275  PMPE      H10R          -10.8562505068       39.8449268799       -5.7489591225  MEMB      275             0.0000000000
     34144       275  PMPE      C211           -8.7971618021       40.4463941856       -4.8925094235  MEMB      275             0.0000000000
     34145       275  PMPE      H11R           -8.1320494190       41.3279506033       -5.0093382040  MEMB      275             0.0000000000
     34146       275  PMPE      H11S           -8.1066801916       39.5981742453       -5.0328914254  MEMB      275             0.0000000000
     34147       275  PMPE      C212           -9.4516561101       40.4206455733       -3.5215178745  MEMB      275             0.0000000000
     34148       275  PMPE      H12R           -9.9170849988       39.4250279361       -3.3440978064  MEMB      275             0.0000000000
     34149       275  PMPE      H12S          -10.1137533166       41.2743845385       -3.3433869623  MEMB      275             0.0000000000
     34150       275  PMPE      C213           -8.5053366267       40.5108032825       -2.5089622524  MEMB      275             0.0000000000
     34151       275  PMPE      H13R           -7.8784556537       39.6742825349       -2.8501110420  MEMB      275             0.0000000000
     34152       275  PMPE      H13S           -8.9496511978       40.3355240116       -1.4654992289  MEMB      275             0.0000000000
     34153       275  PMPE      C214           -7.6108790150       41.6266767462       -2.5198546854  MEMB      275             0.0000000000
     34154       275  PMPE      H14R           -7.9080960686       42.0456305153       -1.6992353998  MEMB      275             0.0000000000
     34155       275  PMPE      H14S           -7.4046385109       42.1676058740       -3.3746906178  MEMB      275             0.0000000000
     34156       275  PMPE      C215           -6.4957149295       41.8806260164       -1.8226348247  MEMB      275             0.0000000000
     34157       275  PMPE      H15R           -6.3196719370       41.8646051642       -0.6736104820  MEMB      275             0.0000000000
     34158       275  PMPE      H15S           -6.4859970998       42.8276917189       -1.1530359758  MEMB      275             0.0000000000
     34159       275  PMPE      C216           -5.4492731654       41.3667730519       -3.0245430069  MEMB      275             0.0000000000
     34160       275  PMPE      H16R           -4.8293474932       40.4615234710       -3.1508079819  MEMB      275             0.0000000000
     34161       275  PMPE      H16S           -5.1068107066       42.1480986761       -3.4774499309  MEMB      275             0.0000000000
     34162       275  PMPE      H16T           -4.4241578762       41.0297626806       -2.6670504655  MEMB      275             0.0000000000
     34163       275  PMPE      C33            -7.1734150519       36.4282397508      -10.9692415259  MEMB      275             0.0000000000
     34164       275  PMPE      H3X            -7.6187857419       36.9643550594      -10.0995010855  MEMB      275             0.0000000000
     34165       275  PMPE      H3Y            -6.4993666848       37.0830825629      -11.4945970090  MEMB      275             0.0000000000
     34166       275  PMPE      C34            -6.4260085254       35.1797379224      -10.4356139604  MEMB      275             0.0000000000
     34167       275  PMPE      H4X            -5.9905710105       34.6721594670      -11.3213463166  MEMB      275             0.0000000000
     34168       275  PMPE      H4Y            -7.0760605485       34.4242102152       -9.9459134014  MEMB      275             0.0000000000
     34169       275  PMPE      C35            -5.3158231673       35.5909194275       -9.4497455360  MEMB      275             0.0000000000
     34170       275  PMPE      H5X            -4.7298973107       36.3569515075      -10.0105176293  MEMB      275             0.0000000000
     34171       275  PMPE      H5Y            -4.6848364797       34.7142339043       -9.1691922978  MEMB      275             0.0000000000
     34172       275  PMPE      C36            -5.8044611305       36.2437302000       -8.1520645042  MEMB      275             0.0000000000
     34173       275  PMPE      H6X            -6.5619413013       35.5893780540       -7.6704560001  MEMB      275             0.0000000000
     34174       275  PMPE      H6Y            -6.3110652127       37.2028696470       -8.4025524100  MEMB      275             0.0000000000
     34175       275  PMPE      C37            -4.7137212968       36.3969396570       -7.1008909706  MEMB      275             0.0000000000
     34176       275  PMPE      H7X            -3.7854495401       36.8945483982       -7.4693651958  MEMB      275             0.0000000000
     34177       275  PMPE      H7Y            -4.3198674152       35.3863565055       -6.8136542048  MEMB      275             0.0000000000
     34178       275  PMPE      C38            -5.2694017820       37.2029899628       -5.8879390566  MEMB      275             0.0000000000
     34179       275  PMPE      H8X            -5.9555414336       37.9604446472       -6.1350000754  MEMB      275             0.0000000000
     34180       275  PMPE      H8Y            -4.5235087203       37.8450767065       -5.4418304183  MEMB      275             0.0000000000
     34181       275  PMPE      C39            -5.9104882424       36.3915345945       -4.8019991832  MEMB      275             0.0000000000
     34182       275  PMPE      H9X            -5.3216707938       35.9234544520       -3.9322200299  MEMB      275             0.0000000000
     34183       275  PMPE      H9Y            -6.3218203112       35.6299098334       -5.4412539193  MEMB      275             0.0000000000
     34184       275  PMPE      C310           -6.8577347892       37.0313720970       -3.8994280418  MEMB      275             0.0000000000
     34185       275  PMPE      H10X           -7.4798871503       37.6574843671       -4.4701528394  MEMB      275             0.0000000000
     34186       275  PMPE      H10Y           -6.1424006285       37.5919587866       -3.4091836894  MEMB      275             0.0000000000
     34187       275  PMPE      C311           -7.8198485970       36.3021180254       -3.0228262773  MEMB      275             0.0000000000
     34188       275  PMPE      H11X           -8.4693516641       35.5640565120       -3.5438387958  MEMB      275             0.0000000000
     34189       275  PMPE      H11Y           -8.3622970140       36.9712089225       -2.3618360175  MEMB      275             0.0000000000
     34190       275  PMPE      C312           -7.2062582374       35.6407963908       -1.9351445184  MEMB      275             0.0000000000
     34191       275  PMPE      H12X           -6.6952086208       34.9862356211       -2.4852610312  MEMB      275             0.0000000000
     34192       275  PMPE      H12Y           -7.8062227364       35.0200831338       -1.3544580664  MEMB      275             0.0000000000
     34193       275  PMPE      C313           -6.1071287507       36.1121746079       -1.0006382856  MEMB      275             0.0000000000
     34194       275  PMPE      H13X           -5.4492494669       36.6265189290       -1.5022015322  MEMB      275             0.0000000000
     34195       275  PMPE      H13Y           -5.3666852269       35.4729620954       -0.4226325459  MEMB      275             0.0000000000
     34196       275  PMPE      C314           -6.7572341858       36.7763416898       -0.0230256104  MEMB      275             0.0000000000
     34197       275  PMPE      H14X           -7.4443268336       36.3495735781        0.5701114794  MEMB      275             0.0000000000
     34198       275  PMPE      H14Y           -7.4476856373       37.3832875583       -0.5609978001  MEMB      275             0.0000000000
     34199       275  PMPE      C315           -5.9055708094       37.2083054990        0.9915789892  MEMB      275             0.0000000000
     34200       275  PMPE      H15X           -5.0921502989       37.4317858981        0.5408973751  MEMB      275             0.0000000000
     34201       275  PMPE      H15Y           -5.0811102502       36.7587422551        1.4906483194  MEMB      275             0.0000000000
     34202       275  PMPE      C316           -6.5298545932       38.0754697367        1.8107136131  MEMB      275             0.0000000000
     34203       275  PMPE      H16X           -7.4467177820       38.9145722742        2.0065227286  MEMB      275             0.0000000000
     34204       275  PMPE      H16Y           -5.9503151199       38.5104201759        2.0777156876  MEMB      275             0.0000000000
     34205       275  PMPE      H16Z           -6.6126704810       38.1787397624        2.6187916723  MEMB      275             0.0000000000
     34206       276  PMPE      N              38.3077944447       -6.1802375887      -22.2751692087  MEMB      276             0.0000000000
     34207       276  PMPE      HN1            38.8482414492       -5.3410524744      -22.5589898795  MEMB      276             0.0000000000
     34208       276  PMPE      HN2            38.9916764080       -6.9185121037      -21.9989761683  MEMB      276             0.0000000000
     34209       276  PMPE      HN3            37.7968098428       -6.5478289950      -23.0980059085  MEMB      276             0.0000000000
     34210       276  PMPE      C12            37.1705560880       -5.8311058289      -21.3118211681  MEMB      276             0.0000000000
     34211       276  PMPE      H12A           36.5628066916       -6.7423993806      -21.1864281467  MEMB      276             0.0000000000
     34212       276  PMPE      H12B           36.5412138143       -5.1171807872      -21.8759360203  MEMB      276             0.0000000000
     34213       276  PMPE      C11            37.5905524221       -5.1787913797      -19.9720971719  MEMB      276             0.0000000000
     34214       276  PMPE      H11A           36.7139014530       -4.8688271617      -19.3409410064  MEMB      276             0.0000000000
     34215       276  PMPE      H11B           38.1395329488       -4.2577821813      -20.2869295030  MEMB      276             0.0000000000
     34216       276  PMPE      P              38.3003054759       -6.3115044692      -17.6509090338  MEMB      276             0.0000000000
     34217       276  PMPE      O13            39.2521684164       -7.3717465067      -17.2940538227  MEMB      276             0.0000000000
     34218       276  PMPE      O14            36.8882872126       -6.5702253135      -17.3361361253  MEMB      276             0.0000000000
     34219       276  PMPE      O11            38.7070280612       -4.9250897551      -17.0300562003  MEMB      276             0.0000000000
     34220       276  PMPE      O12            38.4511809087       -6.0406448660      -19.2336935109  MEMB      276             0.0000000000
     34221       276  PMPE      C1             39.8414623518       -4.1807987091      -17.4746636964  MEMB      276             0.0000000000
     34222       276  PMPE      HA             39.5043477722       -3.1492729442      -17.6663610640  MEMB      276             0.0000000000
     34223       276  PMPE      HB             40.2803518658       -4.5454129850      -18.4314237388  MEMB      276             0.0000000000
     34224       276  PMPE      C2             41.0128747160       -4.1811202085      -16.4616043507  MEMB      276             0.0000000000
     34225       276  PMPE      HS             41.8939548178       -3.7241809430      -16.9543988136  MEMB      276             0.0000000000
     34226       276  PMPE      O21            41.2410694631       -5.5088702888      -16.0487404652  MEMB      276             0.0000000000
     34227       276  PMPE      C21            42.4597925235       -5.8805914524      -15.9480444781  MEMB      276             0.0000000000
     34228       276  PMPE      O22            43.4626014199       -5.2040431303      -16.1430488537  MEMB      276             0.0000000000
     34229       276  PMPE      C22            42.4077816874       -7.2986926731      -15.4318073833  MEMB      276             0.0000000000
     34230       276  PMPE      H2R            42.7774575103       -7.9478598640      -16.2525857700  MEMB      276             0.0000000000
     34231       276  PMPE      H2S            41.4720145551       -7.6079252235      -14.9596006452  MEMB      276             0.0000000000
     34232       276  PMPE      C3             40.7355433487       -3.3493430607      -15.2341330048  MEMB      276             0.0000000000
     34233       276  PMPE      HX             40.6484341298       -2.3196118752      -15.7088448750  MEMB      276             0.0000000000
     34234       276  PMPE      HY             41.5681491465       -3.2590425875      -14.4942665596  MEMB      276             0.0000000000
     34235       276  PMPE      O31            39.4758396816       -3.7470641874      -14.6041814710  MEMB      276             0.0000000000
     34236       276  PMPE      C31            39.4886355462       -4.6298283257      -13.6781402098  MEMB      276             0.0000000000
     34237       276  PMPE      O32            40.4666201631       -5.2662116122      -13.3270770927  MEMB      276             0.0000000000
     34238       276  PMPE      C32            38.0773234273       -4.6972510717      -13.0718417475  MEMB      276             0.0000000000
     34239       276  PMPE      H2X            37.4616200776       -3.7939733048      -13.2491678574  MEMB      276             0.0000000000
     34240       276  PMPE      H2Y            38.1895730165       -4.8140680551      -11.9808123997  MEMB      276             0.0000000000
     34241       276  PMPE      C23            43.3544071010       -7.4785593980      -14.3239833920  MEMB      276             0.0000000000
     34242       276  PMPE      H3R            44.1806974885       -7.0857734564      -14.9525904369  MEMB      276             0.0000000000
     34243       276  PMPE      H3S            43.6153760499       -8.5074246018      -14.0546156099  MEMB      276             0.0000000000
     34244       276  PMPE      C24            43.0663742164       -6.8240070434      -12.9515109473  MEMB      276             0.0000000000
     34245       276  PMPE      H4R            42.0087808546       -6.8470821098      -12.8991534316  MEMB      276             0.0000000000
     34246       276  PMPE      H4S            43.3129749071       -5.8313724959      -12.9954371299  MEMB      276             0.0000000000
     34247       276  PMPE      C25            43.7455382468       -7.3392542744      -11.6546597006  MEMB      276             0.0000000000
     34248       276  PMPE      H5R            44.8294013436       -7.1143098428      -11.5204388061  MEMB      276             0.0000000000
     34249       276  PMPE      H5S            43.6627813328       -8.4294013218      -11.7862085359  MEMB      276             0.0000000000
     34250       276  PMPE      C26            43.0916275304       -6.8346458425      -10.3817913791  MEMB      276             0.0000000000
     34251       276  PMPE      H6R            43.1515074604       -7.6401192369       -9.6351628914  MEMB      276             0.0000000000
     34252       276  PMPE      H6S            42.0191557442       -6.7512518706      -10.5733304723  MEMB      276             0.0000000000
     34253       276  PMPE      C27            43.5837854032       -5.4784515478       -9.8461386182  MEMB      276             0.0000000000
     34254       276  PMPE      H7R            43.3844621842       -4.7168774244      -10.6304915740  MEMB      276             0.0000000000
     34255       276  PMPE      H7S            44.6775678808       -5.5083574625       -9.7878298140  MEMB      276             0.0000000000
     34256       276  PMPE      C28            42.9698717542       -5.0729816650       -8.4707871411  MEMB      276             0.0000000000
     34257       276  PMPE      H8R            43.6581141432       -4.4960542620       -7.8657096924  MEMB      276             0.0000000000
     34258       276  PMPE      H8S            42.7896891393       -5.9734300943       -7.8503441044  MEMB      276             0.0000000000
     34259       276  PMPE      C29            41.6796173591       -4.2498317243       -8.6005814013  MEMB      276             0.0000000000
     34260       276  PMPE      H9R            40.9903200584       -4.5905243546       -9.3849592606  MEMB      276             0.0000000000
     34261       276  PMPE      C217           41.9294948200       -2.7498690718       -8.7602611102  MEMB      276             0.0000000000
     34262       276  PMPE      H17R           41.2233651523       -2.2033672603       -9.3664460359  MEMB      276             0.0000000000
     34263       276  PMPE      H17S           42.9437598475       -2.4489633023       -8.5424790988  MEMB      276             0.0000000000
     34264       276  PMPE      C210           41.2139554860       -3.2708473690       -7.5258178623  MEMB      276             0.0000000000
     34265       276  PMPE      H10R           40.1169342705       -3.1076930670       -7.5006583500  MEMB      276             0.0000000000
     34266       276  PMPE      C211           42.0170280846       -3.1105427217       -6.2226682367  MEMB      276             0.0000000000
     34267       276  PMPE      H11R           41.5596025586       -2.3296600112       -5.5938049877  MEMB      276             0.0000000000
     34268       276  PMPE      H11S           43.0736114805       -2.8717178669       -6.4645370508  MEMB      276             0.0000000000
     34269       276  PMPE      C212           41.9516265948       -4.3836150310       -5.3829085699  MEMB      276             0.0000000000
     34270       276  PMPE      H12R           42.5543480346       -5.1402549794       -5.9113817869  MEMB      276             0.0000000000
     34271       276  PMPE      H12S           40.8674991816       -4.6104287186       -5.4488538909  MEMB      276             0.0000000000
     34272       276  PMPE      C213           42.2736351562       -4.2747273068       -3.8783538993  MEMB      276             0.0000000000
     34273       276  PMPE      H13R           41.8526618492       -5.1450035738       -3.3080231302  MEMB      276             0.0000000000
     34274       276  PMPE      H13S           41.7666707507       -3.3578066086       -3.5441171440  MEMB      276             0.0000000000
     34275       276  PMPE      C214           43.7493065326       -4.1306342099       -3.5446273406  MEMB      276             0.0000000000
     34276       276  PMPE      H14R           44.1931898900       -3.1700679601       -3.8371926567  MEMB      276             0.0000000000
     34277       276  PMPE      H14S           44.1873384161       -4.9245301466       -4.0911119542  MEMB      276             0.0000000000
     34278       276  PMPE      C215           44.1597561574       -4.4878254092       -2.1264859919  MEMB      276             0.0000000000
     34279       276  PMPE      H15R           45.2690305131       -4.4576015673       -2.0479030172  MEMB      276             0.0000000000
     34280       276  PMPE      H15S           43.8972713019       -5.5542391447       -1.9726785928  MEMB      276             0.0000000000
     34281       276  PMPE      C216           43.5144393972       -3.6184284882       -1.0615711808  MEMB      276             0.0000000000
     34282       276  PMPE      H16R           42.4152938195       -3.7018510351       -1.0556950410  MEMB      276             0.0000000000
     34283       276  PMPE      H16S           43.9038863664       -3.8685591187       -0.0627319313  MEMB      276             0.0000000000
     34284       276  PMPE      H16T           43.7269574841       -2.5700759708       -1.2052566689  MEMB      276             0.0000000000
     34285       276  PMPE      C33            37.3245093684       -5.8841721078      -13.6679114070  MEMB      276             0.0000000000
     34286       276  PMPE      H3X            37.0709735327       -5.7349552614      -14.7349477704  MEMB      276             0.0000000000
     34287       276  PMPE      H3Y            36.3635845837       -6.0040537123      -13.1204186970  MEMB      276             0.0000000000
     34288       276  PMPE      C34            38.0859143167       -7.1445541212      -13.4813795533  MEMB      276             0.0000000000
     34289       276  PMPE      H4X            39.0824341312       -7.2122885665      -13.9537652833  MEMB      276             0.0000000000
     34290       276  PMPE      H4Y            37.4505938223       -7.9002413838      -13.9622313224  MEMB      276             0.0000000000
     34291       276  PMPE      C35            38.2219251490       -7.3046678026      -12.0168898754  MEMB      276             0.0000000000
     34292       276  PMPE      H5X            37.2637033909       -7.1511773818      -11.4702071498  MEMB      276             0.0000000000
     34293       276  PMPE      H5Y            39.1634665973       -7.0345213857      -11.5406615746  MEMB      276             0.0000000000
     34294       276  PMPE      C36            38.5796635492       -8.5819811235      -11.8945382906  MEMB      276             0.0000000000
     34295       276  PMPE      H6X            39.4810888687       -9.0181895189      -12.2037406544  MEMB      276             0.0000000000
     34296       276  PMPE      H6Y            37.8493897198       -9.0052934819      -12.6571283210  MEMB      276             0.0000000000
     34297       276  PMPE      C37            38.8935738074       -9.0445807222      -10.5654766062  MEMB      276             0.0000000000
     34298       276  PMPE      H7X            39.0522839913      -10.0300891497      -10.1061717684  MEMB      276             0.0000000000
     34299       276  PMPE      H7Y            37.7252915466       -8.8161421983      -10.7899800793  MEMB      276             0.0000000000
     34300       276  PMPE      C38            39.6893044430       -8.5658909828       -9.3329771461  MEMB      276             0.0000000000
     34301       276  PMPE      H8X            39.3211382814       -7.5615833109       -9.1779199148  MEMB      276             0.0000000000
     34302       276  PMPE      H8Y            40.5338874530       -8.8450031302       -9.9321662866  MEMB      276             0.0000000000
     34303       276  PMPE      C39            39.7777838214       -9.2877160127       -7.9303995691  MEMB      276             0.0000000000
     34304       276  PMPE      H9X            40.7603074342       -9.2373167587       -7.5371884544  MEMB      276             0.0000000000
     34305       276  PMPE      H9Y            39.5448963125      -10.3984647268       -8.0098129057  MEMB      276             0.0000000000
     34306       276  PMPE      C310           39.0818117292       -8.5048134272       -6.7429807753  MEMB      276             0.0000000000
     34307       276  PMPE      H10X           38.2464434243       -8.2482537344       -7.2661825915  MEMB      276             0.0000000000
     34308       276  PMPE      H10Y           39.0879230182       -7.4383299519       -6.7319897581  MEMB      276             0.0000000000
     34309       276  PMPE      C311           38.6234026790       -9.3145448461       -5.5109577326  MEMB      276             0.0000000000
     34310       276  PMPE      H11X           39.5307723471       -9.7303713528       -5.1011621197  MEMB      276             0.0000000000
     34311       276  PMPE      H11Y           38.1781486766      -10.1830759496       -5.9438239627  MEMB      276             0.0000000000
     34312       276  PMPE      C312           37.6957471194       -8.6307278425       -4.4575067137  MEMB      276             0.0000000000
     34313       276  PMPE      H12X           36.9974993164       -9.1802779651       -3.7704691425  MEMB      276             0.0000000000
     34314       276  PMPE      H12Y           36.8576628710       -8.1922785511       -4.8527831855  MEMB      276             0.0000000000
     34315       276  PMPE      C313           38.4304821103       -7.5092434304       -3.8538837292  MEMB      276             0.0000000000
     34316       276  PMPE      H13X           37.7743300097       -6.9051247069       -3.2356000201  MEMB      276             0.0000000000
     34317       276  PMPE      H13Y           38.6328944464       -6.9107216671       -4.7569429592  MEMB      276             0.0000000000
     34318       276  PMPE      C314           39.6640162969       -7.8094616879       -3.0072412352  MEMB      276             0.0000000000
     34319       276  PMPE      H14X           40.0360507179       -6.8602184219       -2.6082234911  MEMB      276             0.0000000000
     34320       276  PMPE      H14Y           40.4713255482       -8.2959018496       -3.5923028802  MEMB      276             0.0000000000
     34321       276  PMPE      C315           39.3800859165       -8.5773833064       -1.7548233078  MEMB      276             0.0000000000
     34322       276  PMPE      H15X           39.3038140285       -9.4902378386       -2.1883092673  MEMB      276             0.0000000000
     34323       276  PMPE      H15Y           38.4506935510       -8.3190353189       -1.2281720817  MEMB      276             0.0000000000
     34324       276  PMPE      C316           40.4932719322       -8.9452383004       -0.8378043768  MEMB      276             0.0000000000
     34325       276  PMPE      H16X           40.6993123208       -8.1165056158       -0.1598518682  MEMB      276             0.0000000000
     34326       276  PMPE      H16Y           41.3722456271       -9.3937468120       -1.3290244445  MEMB      276             0.0000000000
     34327       276  PMPE      H16Z           40.1590303936       -9.7768302700       -0.2314700892  MEMB      276             0.0000000000
     34328       277  PMPE      N             -25.5949715728       27.5490677422      -20.5119492788  MEMB      277             0.0000000000
     34329       277  PMPE      HN1           -24.8197827031       28.0869405951      -20.9727079735  MEMB      277             0.0000000000
     34330       277  PMPE      HN2           -25.3259717404       26.9738477374      -19.6840441486  MEMB      277             0.0000000000
     34331       277  PMPE      HN3           -26.1575669770       26.9228228388      -21.1136081860  MEMB      277             0.0000000000
     34332       277  PMPE      C12           -26.5290312141       28.6535756546      -20.1869152137  MEMB      277             0.0000000000
     34333       277  PMPE      H12A          -26.6431564822       29.2046849593      -21.1392109613  MEMB      277             0.0000000000
     34334       277  PMPE      H12B          -26.0075467999       29.3009041843      -19.4451031340  MEMB      277             0.0000000000
     34335       277  PMPE      C11           -27.8547899930       28.0916167889      -19.6926685265  MEMB      277             0.0000000000
     34336       277  PMPE      H11A          -28.5055992355       27.6330500752      -20.4876954044  MEMB      277             0.0000000000
     34337       277  PMPE      H11B          -28.4258789915       28.9237142909      -19.2422031380  MEMB      277             0.0000000000
     34338       277  PMPE      P             -28.5488939367       26.0039678729      -18.3117023169  MEMB      277             0.0000000000
     34339       277  PMPE      O13           -27.9779537211       25.3897164344      -17.1064646741  MEMB      277             0.0000000000
     34340       277  PMPE      O14           -28.7728840425       25.1590873166      -19.5043403335  MEMB      277             0.0000000000
     34341       277  PMPE      O11           -29.8124736855       26.9078512531      -18.0471506436  MEMB      277             0.0000000000
     34342       277  PMPE      O12           -27.5450688610       27.1786975830      -18.6643795510  MEMB      277             0.0000000000
     34343       277  PMPE      C1            -30.4765530989       26.7829786203      -16.7928568098  MEMB      277             0.0000000000
     34344       277  PMPE      HA            -30.2214959956       25.8161426363      -16.2979005046  MEMB      277             0.0000000000
     34345       277  PMPE      HB            -31.5696107307       26.7457545291      -16.9596083960  MEMB      277             0.0000000000
     34346       277  PMPE      C2            -30.0669377825       27.9447121225      -15.8534345548  MEMB      277             0.0000000000
     34347       277  PMPE      HS            -30.2984565726       28.9076403705      -16.3660295310  MEMB      277             0.0000000000
     34348       277  PMPE      O21           -28.6441970863       27.7892391676      -15.6925611259  MEMB      277             0.0000000000
     34349       277  PMPE      C21           -27.9694465112       28.7039472651      -15.0745124494  MEMB      277             0.0000000000
     34350       277  PMPE      O22           -28.4329786466       29.7452272855      -14.6387257292  MEMB      277             0.0000000000
     34351       277  PMPE      C22           -26.5174831096       28.2414332079      -14.9149226504  MEMB      277             0.0000000000
     34352       277  PMPE      H2R           -25.8146967964       28.7841347581      -15.5806562982  MEMB      277             0.0000000000
     34353       277  PMPE      H2S           -26.4374724571       27.1877173192      -15.2252721792  MEMB      277             0.0000000000
     34354       277  PMPE      C3            -30.8200240863       27.9013273516      -14.4998629366  MEMB      277             0.0000000000
     34355       277  PMPE      HX            -31.9061996149       27.7166469339      -14.5687460303  MEMB      277             0.0000000000
     34356       277  PMPE      HY            -30.7142660578       28.8341729584      -13.9223618702  MEMB      277             0.0000000000
     34357       277  PMPE      O31           -30.2492570800       26.8739237758      -13.7816480191  MEMB      277             0.0000000000
     34358       277  PMPE      C31           -30.4778579897       26.9126870210      -12.5120056646  MEMB      277             0.0000000000
     34359       277  PMPE      O32           -31.2063771193       27.5848208807      -11.8303916241  MEMB      277             0.0000000000
     34360       277  PMPE      C32           -29.8223960239       25.9010159773      -11.9557519022  MEMB      277             0.0000000000
     34361       277  PMPE      H2X           -28.8082351877       25.5862767992      -12.1885268914  MEMB      277             0.0000000000
     34362       277  PMPE      H2Y           -30.2159690697       25.2077501057      -12.7024937843  MEMB      277             0.0000000000
     34363       277  PMPE      C23           -26.0999692554       28.4100937496      -13.4599405445  MEMB      277             0.0000000000
     34364       277  PMPE      H3R           -26.6898045174       29.1687332237      -12.9549966467  MEMB      277             0.0000000000
     34365       277  PMPE      H3S           -25.0506403126       28.7208309841      -13.5067859406  MEMB      277             0.0000000000
     34366       277  PMPE      C24           -26.3765737283       27.2536975317      -12.5267455895  MEMB      277             0.0000000000
     34367       277  PMPE      H4R           -27.4803010468       27.1304060507      -12.4878043738  MEMB      277             0.0000000000
     34368       277  PMPE      H4S           -26.0765687278       27.5808285507      -11.5052712543  MEMB      277             0.0000000000
     34369       277  PMPE      C25           -25.5726438164       26.0068652465      -12.8886108241  MEMB      277             0.0000000000
     34370       277  PMPE      H5R           -24.5073472281       26.2497110607      -12.8255130895  MEMB      277             0.0000000000
     34371       277  PMPE      H5S           -25.6630521487       25.6682553453      -13.9363547992  MEMB      277             0.0000000000
     34372       277  PMPE      C26           -25.8419372025       24.8016140738      -11.9783223589  MEMB      277             0.0000000000
     34373       277  PMPE      H6R           -25.1832942337       24.0148136470      -12.3839526641  MEMB      277             0.0000000000
     34374       277  PMPE      H6S           -26.8852319698       24.4674494671      -12.1198225831  MEMB      277             0.0000000000
     34375       277  PMPE      C27           -25.4066767834       25.0963510536      -10.5289869108  MEMB      277             0.0000000000
     34376       277  PMPE      H7R           -25.8380755132       26.0823499419      -10.2492587001  MEMB      277             0.0000000000
     34377       277  PMPE      H7S           -24.3208808380       24.9473702723      -10.5349472582  MEMB      277             0.0000000000
     34378       277  PMPE      C28           -25.6039627135       24.2232010887       -9.2845921370  MEMB      277             0.0000000000
     34379       277  PMPE      H8R           -26.6402236423       24.6521735768       -9.0767804446  MEMB      277             0.0000000000
     34380       277  PMPE      H8S           -25.2506428611       24.4857275821       -8.3217611619  MEMB      277             0.0000000000
     34381       277  PMPE      C29           -25.3286194246       22.5838338998       -9.5415026925  MEMB      277             0.0000000000
     34382       277  PMPE      H9R           -24.6015868730       22.4289833821      -10.2704243765  MEMB      277             0.0000000000
     34383       277  PMPE      C217          -26.1634501622       21.7593558766      -10.6300323669  MEMB      277             0.0000000000
     34384       277  PMPE      H17R          -26.4351907184       21.0613033568      -11.2533674739  MEMB      277             0.0000000000
     34385       277  PMPE      H17S          -27.0853472585       22.2655425673      -11.4288576798  MEMB      277             0.0000000000
     34386       277  PMPE      C210          -26.0458219340       21.3939413119       -8.8189077130  MEMB      277             0.0000000000
     34387       277  PMPE      H10R          -25.7094388523       20.3929190146       -8.9036356948  MEMB      277             0.0000000000
     34388       277  PMPE      C211          -26.8065081628       21.6091327913       -7.1218417175  MEMB      277             0.0000000000
     34389       277  PMPE      H11R          -27.5055934579       20.8906709211       -6.8504606505  MEMB      277             0.0000000000
     34390       277  PMPE      H11S          -27.8361086209       22.3690306046       -6.8774115905  MEMB      277             0.0000000000
     34391       277  PMPE      C212          -26.1410508681       22.5366591365       -6.3289381562  MEMB      277             0.0000000000
     34392       277  PMPE      H12R          -26.2456181092       23.5884491375       -6.6690197382  MEMB      277             0.0000000000
     34393       277  PMPE      H12S          -25.1541264830       22.1174168404       -6.5476285253  MEMB      277             0.0000000000
     34394       277  PMPE      C213          -26.6966571748       22.3753270555       -4.9746010418  MEMB      277             0.0000000000
     34395       277  PMPE      H13R          -26.0328476824       22.9437756657       -4.3214003610  MEMB      277             0.0000000000
     34396       277  PMPE      H13S          -26.6967842305       21.2927068061       -4.7166130190  MEMB      277             0.0000000000
     34397       277  PMPE      C214          -27.9847371374       23.0464293535       -4.6511992328  MEMB      277             0.0000000000
     34398       277  PMPE      H14R          -28.9348735117       22.8167944086       -5.1211123277  MEMB      277             0.0000000000
     34399       277  PMPE      H14S          -28.0912595124       24.0885431075       -4.9737990214  MEMB      277             0.0000000000
     34400       277  PMPE      C215          -28.0347535498       22.7925306983       -3.1792212380  MEMB      277             0.0000000000
     34401       277  PMPE      H15R          -28.3694515821       21.8242258507       -2.7062241447  MEMB      277             0.0000000000
     34402       277  PMPE      H15S          -28.7826286332       23.2109221059       -3.3196851905  MEMB      277             0.0000000000
     34403       277  PMPE      C216          -27.8049211402       23.9686777785       -2.2524751168  MEMB      277             0.0000000000
     34404       277  PMPE      H16R          -28.0035710263       23.6307193474       -1.2017257997  MEMB      277             0.0000000000
     34405       277  PMPE      H16S          -26.8238345143       24.2019646332       -2.5318077231  MEMB      277             0.0000000000
     34406       277  PMPE      H16T          -28.4057582964       24.8763920496       -2.4523062256  MEMB      277             0.0000000000
     34407       277  PMPE      C33           -30.2472188510       25.7552544984      -10.4294428219  MEMB      277             0.0000000000
     34408       277  PMPE      H3X           -29.7034584615       26.4589101094       -9.8555787171  MEMB      277             0.0000000000
     34409       277  PMPE      H3Y           -29.6055927218       25.0245275069      -10.1847391410  MEMB      277             0.0000000000
     34410       277  PMPE      C34           -31.5769742840       25.0297348852       -9.9550258302  MEMB      277             0.0000000000
     34411       277  PMPE      H4X           -31.9715555684       23.9901797635      -10.0776622673  MEMB      277             0.0000000000
     34412       277  PMPE      H4Y           -32.3259126693       25.4570999907      -10.5876731241  MEMB      277             0.0000000000
     34413       277  PMPE      C35           -31.7511808076       25.2231505260       -8.5514661990  MEMB      277             0.0000000000
     34414       277  PMPE      H5X           -32.6915682967       24.7543208207       -8.1850631514  MEMB      277             0.0000000000
     34415       277  PMPE      H5Y           -31.7816946132       26.3460733457       -8.7184881539  MEMB      277             0.0000000000
     34416       277  PMPE      C36           -30.6649982092       25.1305856923       -7.5267248631  MEMB      277             0.0000000000
     34417       277  PMPE      H6X           -29.8787812313       25.8552941686       -7.6295958352  MEMB      277             0.0000000000
     34418       277  PMPE      H6Y           -30.2941611069       24.1075781492       -7.6635858690  MEMB      277             0.0000000000
     34419       277  PMPE      C37           -31.0122820377       25.2137354473       -6.0607236966  MEMB      277             0.0000000000
     34420       277  PMPE      H7X           -30.3353097022       24.7964599745       -5.3223176501  MEMB      277             0.0000000000
     34421       277  PMPE      H7Y           -31.4740411093       24.2275037403       -6.2429785029  MEMB      277             0.0000000000
     34422       277  PMPE      C38           -31.8260021353       26.4014202299       -5.3167758526  MEMB      277             0.0000000000
     34423       277  PMPE      H8X           -32.7683917809       26.2876352421       -4.6920849414  MEMB      277             0.0000000000
     34424       277  PMPE      H8Y           -32.6428635398       26.8916655314       -5.6812569515  MEMB      277             0.0000000000
     34425       277  PMPE      C39           -31.0524818786       27.3182543892       -4.5999147445  MEMB      277             0.0000000000
     34426       277  PMPE      H9X           -31.6502418812       28.2217838979       -4.4378524096  MEMB      277             0.0000000000
     34427       277  PMPE      H9Y           -30.2640317382       27.4927761108       -5.3331818315  MEMB      277             0.0000000000
     34428       277  PMPE      C310          -30.5493995858       26.7920595966       -3.2988915559  MEMB      277             0.0000000000
     34429       277  PMPE      H10X          -29.9141929990       25.9260149704       -3.5437042112  MEMB      277             0.0000000000
     34430       277  PMPE      H10Y          -31.2593677124       26.5217040105       -2.4969612063  MEMB      277             0.0000000000
     34431       277  PMPE      C311          -30.1334707177       27.9060452971       -2.4643265732  MEMB      277             0.0000000000
     34432       277  PMPE      H11X          -29.8473708864       27.6810671453       -1.4880277002  MEMB      277             0.0000000000
     34433       277  PMPE      H11Y          -31.0241162613       28.5263287028       -2.2355867344  MEMB      277             0.0000000000
     34434       277  PMPE      C312          -28.8497878222       28.4356977964       -2.9670216616  MEMB      277             0.0000000000
     34435       277  PMPE      H12X          -28.9002061502       28.7215625994       -4.0284992711  MEMB      277             0.0000000000
     34436       277  PMPE      H12Y          -28.0516799574       27.6595370429       -2.8433691937  MEMB      277             0.0000000000
     34437       277  PMPE      C313          -28.4700574164       29.6569377310       -2.2024993373  MEMB      277             0.0000000000
     34438       277  PMPE      H13X          -28.5145631384       29.4631899591       -1.1134814853  MEMB      277             0.0000000000
     34439       277  PMPE      H13Y          -29.1890957433       30.4664406392       -2.4421974530  MEMB      277             0.0000000000
     34440       277  PMPE      C314          -27.1023148457       30.0364348401       -2.6827691523  MEMB      277             0.0000000000
     34441       277  PMPE      H14X          -27.1765925841       30.6158987617       -3.6169494485  MEMB      277             0.0000000000
     34442       277  PMPE      H14Y          -26.3635222586       29.2203714488       -2.6757642790  MEMB      277             0.0000000000
     34443       277  PMPE      C315          -26.5105879477       30.9294102829       -1.8628368702  MEMB      277             0.0000000000
     34444       277  PMPE      H15X          -27.2273112771       31.7712975244       -2.0576383762  MEMB      277             0.0000000000
     34445       277  PMPE      H15Y          -25.6168278566       31.3712895294       -2.3280474977  MEMB      277             0.0000000000
     34446       277  PMPE      C316          -26.4389891469       30.2985293618       -0.4509079520  MEMB      277             0.0000000000
     34447       277  PMPE      H16X          -26.1433047044       29.3214128219       -0.2536129947  MEMB      277             0.0000000000
     34448       277  PMPE      H16Y          -27.1987806424       30.6660965850        0.2662505318  MEMB      277             0.0000000000
     34449       277  PMPE      H16Z          -25.5792975556       30.5965728126       -0.0222272348  MEMB      277             0.0000000000
     34450       278  PYPG      C13           -34.3456233367      -11.9251058055      -19.8852672604  MEMB      278             0.0000000000
     34451       278  PYPG      H13A          -33.9850486965      -11.7757950242      -18.8429908529  MEMB      278             0.0000000000
     34452       278  PYPG      H13B          -33.4954284004      -12.2096231399      -20.5435181000  MEMB      278             0.0000000000
     34453       278  PYPG      OC3           -34.9420786029      -10.7096526769      -20.3452802365  MEMB      278             0.0000000000
     34454       278  PYPG      HO3           -35.1986340094      -10.8344373178      -21.2689793029  MEMB      278             0.0000000000
     34455       278  PYPG      C12           -35.3131335677      -13.1233038270      -19.7836563535  MEMB      278             0.0000000000
     34456       278  PYPG      H12A          -34.7150735134      -14.0209117586      -19.5125667245  MEMB      278             0.0000000000
     34457       278  PYPG      OC2           -35.9274128106      -13.3921844273      -21.0386417627  MEMB      278             0.0000000000
     34458       278  PYPG      HO2           -36.6461866445      -13.9960243295      -20.8192568078  MEMB      278             0.0000000000
     34459       278  PYPG      C11           -36.3617626151      -12.9272892009      -18.6758861724  MEMB      278             0.0000000000
     34460       278  PYPG      H11A          -35.8961028614      -12.8463916621      -17.6684028920  MEMB      278             0.0000000000
     34461       278  PYPG      H11B          -36.9653288497      -13.8487301610      -18.6012797549  MEMB      278             0.0000000000
     34462       278  PYPG      P             -38.4577847484      -11.6391479001      -18.0923908701  MEMB      278             0.0000000000
     34463       278  PYPG      O13           -39.1202595164      -12.9593071157      -17.9701115974  MEMB      278             0.0000000000
     34464       278  PYPG      O14           -39.2426431439      -10.5008111083      -18.5838200684  MEMB      278             0.0000000000
     34465       278  PYPG      O11           -37.8710123324      -11.2155150255      -16.6931986820  MEMB      278             0.0000000000
     34466       278  PYPG      O12           -37.1815545719      -11.7996417890      -18.9720469510  MEMB      278             0.0000000000
     34467       278  PYPG      C1            -37.3167820318       -9.9122024414      -16.5017490689  MEMB      278             0.0000000000
     34468       278  PYPG      HA            -37.9753401629       -9.1044577433      -16.9241021607  MEMB      278             0.0000000000
     34469       278  PYPG      HB            -36.3444859133       -9.8757865271      -17.0358853872  MEMB      278             0.0000000000
     34470       278  PYPG      C2            -37.1879765158       -9.7077280236      -14.9686302440  MEMB      278             0.0000000000
     34471       278  PYPG      HS            -36.6182396099       -8.7851972481      -14.7335224115  MEMB      278             0.0000000000
     34472       278  PYPG      O21           -36.4206956325      -10.7919029900      -14.4239032576  MEMB      278             0.0000000000
     34473       278  PYPG      C21           -36.3214109934      -10.8492073282      -13.1292757576  MEMB      278             0.0000000000
     34474       278  PYPG      O22           -36.6557957654      -10.0097560898      -12.3181439727  MEMB      278             0.0000000000
     34475       278  PYPG      C22           -35.6383890140      -12.1094945950      -12.7870876960  MEMB      278             0.0000000000
     34476       278  PYPG      H2R           -34.5710693556      -12.0576189176      -13.1314520690  MEMB      278             0.0000000000
     34477       278  PYPG      H2S           -36.1976650364      -12.9262353088      -13.3042396156  MEMB      278             0.0000000000
     34478       278  PYPG      C3            -38.6520377871       -9.6291450144      -14.3868426555  MEMB      278             0.0000000000
     34479       278  PYPG      HX            -39.1784027596       -8.7647246723      -14.8385954214  MEMB      278             0.0000000000
     34480       278  PYPG      HY            -38.6544732039       -9.3280046870      -13.3333882818  MEMB      278             0.0000000000
     34481       278  PYPG      O31           -39.3621797866      -10.8784101389      -14.5483708922  MEMB      278             0.0000000000
     34482       278  PYPG      C31           -40.6513593483      -10.8727304337      -14.3432109339  MEMB      278             0.0000000000
     34483       278  PYPG      O32           -41.3530636479       -9.9114886109      -14.0789628121  MEMB      278             0.0000000000
     34484       278  PYPG      C32           -41.1210831762      -12.2886982969      -14.4023083509  MEMB      278             0.0000000000
     34485       278  PYPG      H2X           -42.2040761501      -12.2806562794      -14.5200292089  MEMB      278             0.0000000000
     34486       278  PYPG      H2Y           -40.8457090785      -12.7741804318      -15.3133695027  MEMB      278             0.0000000000
     34487       278  PYPG      C23           -35.6832077313      -12.2314137110      -11.2852133755  MEMB      278             0.0000000000
     34488       278  PYPG      H3R           -36.6654442991      -12.2737844441      -10.8126176816  MEMB      278             0.0000000000
     34489       278  PYPG      H3S           -35.0275056291      -11.5466364527      -10.7615851966  MEMB      278             0.0000000000
     34490       278  PYPG      C24           -35.0869772239      -13.4260923059      -10.9333469155  MEMB      278             0.0000000000
     34491       278  PYPG      H4R           -34.3583781929      -13.4452369981      -10.0396445198  MEMB      278             0.0000000000
     34492       278  PYPG      H4S           -34.3541823682      -13.6226317058      -11.7774561619  MEMB      278             0.0000000000
     34493       278  PYPG      C25           -36.2544821046      -14.5422017309      -10.8870935367  MEMB      278             0.0000000000
     34494       278  PYPG      H5R           -36.0573405178      -15.7128562504      -10.6724724349  MEMB      278             0.0000000000
     34495       278  PYPG      H5S           -36.7605647818      -14.6670930013      -11.8127684179  MEMB      278             0.0000000000
     34496       278  PYPG      C26           -37.0293343856      -14.4132976651       -9.7930457577  MEMB      278             0.0000000000
     34497       278  PYPG      H6R           -37.9094672813      -15.0864735888       -9.8750576236  MEMB      278             0.0000000000
     34498       278  PYPG      H6S           -37.1573947343      -13.5357784480       -9.2462667839  MEMB      278             0.0000000000
     34499       278  PYPG      C27           -36.0058723144      -14.8650030671       -9.0861378005  MEMB      278             0.0000000000
     34500       278  PYPG      H7R           -34.8738234602      -15.0768482597       -8.6784260724  MEMB      278             0.0000000000
     34501       278  PYPG      H7S           -35.2394294911      -15.4137061599       -8.5049210191  MEMB      278             0.0000000000
     34502       278  PYPG      C28           -37.3856306181      -15.5021538412       -7.0316509491  MEMB      278             0.0000000000
     34503       278  PYPG      H8R           -36.8053889322      -16.3905589947       -6.5596267433  MEMB      278             0.0000000000
     34504       278  PYPG      H8S           -38.1214967227      -16.2705970183       -7.1238721586  MEMB      278             0.0000000000
     34505       278  PYPG      C29           -37.9515201955      -14.4748347578       -6.2554640056  MEMB      278             0.0000000000
     34506       278  PYPG      H9R           -37.2329121215      -13.7516122263       -5.8815612622  MEMB      278             0.0000000000
     34507       278  PYPG      C210          -38.9911121403      -14.3139304281       -5.7750677022  MEMB      278             0.0000000000
     34508       278  PYPG      H10R          -39.0779702352      -13.2962708671       -5.5282105798  MEMB      278             0.0000000000
     34509       278  PYPG      C211          -40.0203413504      -15.2609729302       -5.8502008147  MEMB      278             0.0000000000
     34510       278  PYPG      H11R          -39.8141688311      -16.1942532605       -6.4046227964  MEMB      278             0.0000000000
     34511       278  PYPG      H11S          -40.7369001492      -14.7292774210       -6.3459828449  MEMB      278             0.0000000000
     34512       278  PYPG      C212          -40.6942152378      -15.4138737050       -4.5715133294  MEMB      278             0.0000000000
     34513       278  PYPG      H12R          -41.5690894308      -16.0707194369       -4.7694405195  MEMB      278             0.0000000000
     34514       278  PYPG      H12S          -40.9664961364      -14.3884233596       -4.2276368125  MEMB      278             0.0000000000
     34515       278  PYPG      C213          -39.8162590079      -16.0123572364       -3.5154085742  MEMB      278             0.0000000000
     34516       278  PYPG      H13R          -38.8499460626      -15.4811569942       -3.4649104360  MEMB      278             0.0000000000
     34517       278  PYPG      H13S          -39.6030152072      -17.0617768044       -3.7721531694  MEMB      278             0.0000000000
     34518       278  PYPG      C214          -40.4647564617      -15.9342840782       -2.1634171356  MEMB      278             0.0000000000
     34519       278  PYPG      H14R          -39.6744066419      -16.1286046635       -1.4067226157  MEMB      278             0.0000000000
     34520       278  PYPG      H14S          -40.8165235001      -14.8912201970       -2.0215986240  MEMB      278             0.0000000000
     34521       278  PYPG      C215          -41.6516058809      -16.8552358686       -2.1643820595  MEMB      278             0.0000000000
     34522       278  PYPG      H15R          -41.6134656415      -17.8493786441       -2.5869170158  MEMB      278             0.0000000000
     34523       278  PYPG      H15S          -42.5670355184      -16.3071286788       -2.5761533572  MEMB      278             0.0000000000
     34524       278  PYPG      C216          -41.9345962990      -17.4397959526       -0.9170936278  MEMB      278             0.0000000000
     34525       278  PYPG      H16R          -41.3813769254      -17.4398380748        0.0723494569  MEMB      278             0.0000000000
     34526       278  PYPG      H16S          -42.9377713364      -17.8905507913       -0.7615642360  MEMB      278             0.0000000000
     34527       278  PYPG      H16T          -42.4457450324      -16.4991638319       -0.8754283508  MEMB      278             0.0000000000
     34528       278  PYPG      C33           -40.4060863839      -13.0491807162      -13.3345903841  MEMB      278             0.0000000000
     34529       278  PYPG      H3X           -39.3890908026      -12.7273857613      -13.0677440345  MEMB      278             0.0000000000
     34530       278  PYPG      H3Y           -40.4543093345      -14.1575322062      -13.3020064791  MEMB      278             0.0000000000
     34531       278  PYPG      C34           -40.9234330825      -12.4856880040      -12.1403216760  MEMB      278             0.0000000000
     34532       278  PYPG      H4X           -41.9691145817      -12.7633478273      -12.1002001822  MEMB      278             0.0000000000
     34533       278  PYPG      H4Y           -41.6169594548      -11.6809489169      -12.0065791891  MEMB      278             0.0000000000
     34534       278  PYPG      C35           -39.9840815965      -12.8112049437      -10.9452537310  MEMB      278             0.0000000000
     34535       278  PYPG      H5X           -39.7522805010      -13.9645929053      -11.1425667122  MEMB      278             0.0000000000
     34536       278  PYPG      H5Y           -40.5661430942      -12.4577845523       -9.8251649367  MEMB      278             0.0000000000
     34537       278  PYPG      C36           -39.1183294552      -11.9775015588      -10.3371027796  MEMB      278             0.0000000000
     34538       278  PYPG      H6X           -38.5245620992      -11.9080955656      -11.2189044259  MEMB      278             0.0000000000
     34539       278  PYPG      H6Y           -38.6479479245      -12.4938354511       -9.4762916246  MEMB      278             0.0000000000
     34540       278  PYPG      C37           -39.8421299811      -10.7228531416       -9.8584751965  MEMB      278             0.0000000000
     34541       278  PYPG      H7X           -40.5581109096      -10.3421020693      -10.6260693226  MEMB      278             0.0000000000
     34542       278  PYPG      H7Y           -40.4404477980      -10.9510949846       -8.9238957582  MEMB      278             0.0000000000
     34543       278  PYPG      C38           -38.7965324433       -9.7518318397       -9.4844470748  MEMB      278             0.0000000000
     34544       278  PYPG      H8X           -39.3135923328       -8.8527323367       -9.1354571427  MEMB      278             0.0000000000
     34545       278  PYPG      H8Y           -38.2996908203       -9.4737168676      -10.4239288762  MEMB      278             0.0000000000
     34546       278  PYPG      C39           -37.6766874677      -10.2154090648       -8.5326096696  MEMB      278             0.0000000000
     34547       278  PYPG      H9X           -36.9206620457       -9.4064051150       -8.4630222372  MEMB      278             0.0000000000
     34548       278  PYPG      H9Y           -37.1523310717      -11.1029317511       -8.9268370552  MEMB      278             0.0000000000
     34549       278  PYPG      C310          -38.1518469657      -10.5814876488       -7.1499445110  MEMB      278             0.0000000000
     34550       278  PYPG      H10X          -37.5847543579      -11.3957335489       -6.6798611451  MEMB      278             0.0000000000
     34551       278  PYPG      H10Y          -39.1950791037      -10.8934426848       -7.2368528821  MEMB      278             0.0000000000
     34552       278  PYPG      C311          -37.9654028447       -9.4925340489       -6.2250906912  MEMB      278             0.0000000000
     34553       278  PYPG      H11X          -38.6551819543       -8.7078765243       -6.4668125954  MEMB      278             0.0000000000
     34554       278  PYPG      H11Y          -36.9440141234       -9.0473625552       -6.2571153309  MEMB      278             0.0000000000
     34555       278  PYPG      C312          -38.3232423411       -9.8329394773       -4.8303650289  MEMB      278             0.0000000000
     34556       278  PYPG      H12X          -38.2851720048       -8.8986849900       -4.3149253310  MEMB      278             0.0000000000
     34557       278  PYPG      H12Y          -39.3157332595      -10.2582887590       -4.6830889022  MEMB      278             0.0000000000
     34558       278  PYPG      C313          -37.2945230804      -10.3496996300       -3.9657937379  MEMB      278             0.0000000000
     34559       278  PYPG      H13X          -36.8067497481      -11.1407653070       -4.5268882525  MEMB      278             0.0000000000
     34560       278  PYPG      H13Y          -36.5999866227       -9.5074549340       -3.6850920514  MEMB      278             0.0000000000
     34561       278  PYPG      C314          -37.8246904180      -10.8795598752       -2.7106617978  MEMB      278             0.0000000000
     34562       278  PYPG      H14X          -36.7569826452      -11.1895678494       -2.4401165784  MEMB      278             0.0000000000
     34563       278  PYPG      H14Y          -38.3337918382      -10.1218473024       -2.0431846734  MEMB      278             0.0000000000
     34564       278  PYPG      C315          -38.6622360517      -12.1247229470       -2.5708710311  MEMB      278             0.0000000000
     34565       278  PYPG      H15X          -39.5419668284      -11.8852850301       -3.1935459944  MEMB      278             0.0000000000
     34566       278  PYPG      H15Y          -38.0352165017      -12.9349867807       -2.9815604061  MEMB      278             0.0000000000
     34567       278  PYPG      C316          -39.1296299610      -12.5620449212       -1.1579306901  MEMB      278             0.0000000000
     34568       278  PYPG      H16X          -38.4062626930      -13.2216222380       -0.6175234507  MEMB      278             0.0000000000
     34569       278  PYPG      H16Y          -40.0355390074      -13.1538772997       -1.2745405697  MEMB      278             0.0000000000
     34570       278  PYPG      H16Z          -39.3337277449      -11.7005743339       -0.4808944030  MEMB      278             0.0000000000
     34571       279  OYPE      N             -15.6353823858       33.9525107363      -21.1724637431  MEMB      279             0.0000000000
     34572       279  OYPE      HN1           -15.2119114235       34.2997861951      -22.0666084759  MEMB      279             0.0000000000
     34573       279  OYPE      HN2           -15.3021938447       32.9880338302      -21.0056176127  MEMB      279             0.0000000000
     34574       279  OYPE      HN3           -16.6883947274       34.0000956471      -21.2551028492  MEMB      279             0.0000000000
     34575       279  OYPE      C12           -15.1719549619       34.7527468237      -19.9805805800  MEMB      279             0.0000000000
     34576       279  OYPE      H12A          -15.1278304451       35.8216775211      -20.2670045212  MEMB      279             0.0000000000
     34577       279  OYPE      H12B          -14.1413752009       34.4168548431      -19.7760244778  MEMB      279             0.0000000000
     34578       279  OYPE      C11           -16.0660131577       34.6748506324      -18.7241684589  MEMB      279             0.0000000000
     34579       279  OYPE      H11A          -15.4674884273       35.0587684636      -17.8603184811  MEMB      279             0.0000000000
     34580       279  OYPE      H11B          -16.3879330788       33.6552841481      -18.4200464172  MEMB      279             0.0000000000
     34581       279  OYPE      P             -17.3082680457       37.0092716458      -18.4797916247  MEMB      279             0.0000000000
     34582       279  OYPE      O13           -18.3229017809       37.6911798250      -19.2998426709  MEMB      279             0.0000000000
     34583       279  OYPE      O14           -15.9058589525       37.5026539032      -18.4897780898  MEMB      279             0.0000000000
     34584       279  OYPE      O11           -17.8330970390       36.8025783279      -16.9942984092  MEMB      279             0.0000000000
     34585       279  OYPE      O12           -17.2136050069       35.4776499109      -18.9575869102  MEMB      279             0.0000000000
     34586       279  OYPE      C1            -17.5588479629       37.7923056611      -16.0071955921  MEMB      279             0.0000000000
     34587       279  OYPE      HA            -18.2866507654       37.6952812604      -15.1781443685  MEMB      279             0.0000000000
     34588       279  OYPE      HB            -17.6823808054       38.8140875070      -16.4624194355  MEMB      279             0.0000000000
     34589       279  OYPE      C2            -16.1745214413       37.4081820975      -15.3420262351  MEMB      279             0.0000000000
     34590       279  OYPE      HS            -15.4530594271       37.3873401066      -16.1710844446  MEMB      279             0.0000000000
     34591       279  OYPE      O21           -16.2635294339       36.2669375204      -14.5104517518  MEMB      279             0.0000000000
     34592       279  OYPE      C21           -15.0925800329       35.8063350183      -14.0412249297  MEMB      279             0.0000000000
     34593       279  OYPE      O22           -13.9743751741       36.2490781044      -14.2574143320  MEMB      279             0.0000000000
     34594       279  OYPE      C22           -15.3817900665       34.4676295798      -13.3798491626  MEMB      279             0.0000000000
     34595       279  OYPE      H2R           -14.5647917149       33.7639910560      -13.6578397878  MEMB      279             0.0000000000
     34596       279  OYPE      H2S           -16.3533998371       34.0808811092      -13.7688149731  MEMB      279             0.0000000000
     34597       279  OYPE      C3            -15.3561043948       38.2884071822      -14.5110856735  MEMB      279             0.0000000000
     34598       279  OYPE      HX            -14.9373402432       38.9489770203      -15.0911595365  MEMB      279             0.0000000000
     34599       279  OYPE      HY            -14.6431630489       38.3693463832      -13.8292217084  MEMB      279             0.0000000000
     34600       279  OYPE      O31           -15.9332539228       38.8995976386      -13.8149999680  MEMB      279             0.0000000000
     34601       279  OYPE      C31           -15.8998463392       40.1638911582      -12.1530571888  MEMB      279             0.0000000000
     34602       279  OYPE      O32           -14.7610617666       40.3175310680      -12.1996515002  MEMB      279             0.0000000000
     34603       279  OYPE      C32           -17.2047273458       39.6894435312      -10.6758430343  MEMB      279             0.0000000000
     34604       279  OYPE      H2X           -18.3373430732       39.3740163282      -10.9202230900  MEMB      279             0.0000000000
     34605       279  OYPE      H2Y           -17.4992210575       38.6232890606      -10.4173422706  MEMB      279             0.0000000000
     34606       279  OYPE      C23           -15.4707536443       34.5786813442      -11.8471603402  MEMB      279             0.0000000000
     34607       279  OYPE      H3R           -16.4204071071       35.0561588907      -11.5235003917  MEMB      279             0.0000000000
     34608       279  OYPE      H3S           -14.6603242465       35.1983836178      -11.4051934169  MEMB      279             0.0000000000
     34609       279  OYPE      C24           -15.2663998044       33.2201768980      -11.1900129695  MEMB      279             0.0000000000
     34610       279  OYPE      H4R           -14.2547258027       32.8778133281      -11.4647147791  MEMB      279             0.0000000000
     34611       279  OYPE      H4S           -15.9702338647       32.4419537933      -11.5614997982  MEMB      279             0.0000000000
     34612       279  OYPE      C25           -15.4142836864       33.3094419414       -9.6678927066  MEMB      279             0.0000000000
     34613       279  OYPE      H5R           -15.1287945506       32.3084622952       -9.2630487894  MEMB      279             0.0000000000
     34614       279  OYPE      H5S           -16.4741327762       33.5025275115       -9.4343025668  MEMB      279             0.0000000000
     34615       279  OYPE      C26           -14.5723929203       34.3350786659       -8.9270773204  MEMB      279             0.0000000000
     34616       279  OYPE      H6R           -14.7093104002       34.2766911217       -7.8333430250  MEMB      279             0.0000000000
     34617       279  OYPE      H6S           -14.5565613655       35.3997955619       -9.2573568839  MEMB      279             0.0000000000
     34618       279  OYPE      C27           -13.2448779293       33.8901342053       -9.0324289107  MEMB      279             0.0000000000
     34619       279  OYPE      H7R           -12.8129766920       34.6656469515       -9.7236216714  MEMB      279             0.0000000000
     34620       279  OYPE      H7S           -13.1547616395       32.8135735438       -9.3766147514  MEMB      279             0.0000000000
     34621       279  OYPE      C28           -12.4823186336       33.9791330129       -7.8366596680  MEMB      279             0.0000000000
     34622       279  OYPE      H8R           -11.6143823021       33.4234495270       -8.3759716093  MEMB      279             0.0000000000
     34623       279  OYPE      H8S           -12.6819781380       33.3692312759       -6.9624303337  MEMB      279             0.0000000000
     34624       279  OYPE      C29           -12.3204855874       35.4534940712       -7.4712824144  MEMB      279             0.0000000000
     34625       279  OYPE      H9R           -11.9186335723       35.9960797975       -8.3408726505  MEMB      279             0.0000000000
     34626       279  OYPE      C210          -12.2694407180       36.0864331627       -6.2823910054  MEMB      279             0.0000000000
     34627       279  OYPE      H10R          -11.5688140352       36.9637693306       -6.2015904859  MEMB      279             0.0000000000
     34628       279  OYPE      C211          -12.4345602203       35.3937515156       -4.9676390734  MEMB      279             0.0000000000
     34629       279  OYPE      H11R          -11.6994358645       35.7331589247       -4.2121102791  MEMB      279             0.0000000000
     34630       279  OYPE      H11S          -12.4388625518       34.2874443408       -5.0756534019  MEMB      279             0.0000000000
     34631       279  OYPE      C212          -13.8233518523       35.8184774235       -4.4996153454  MEMB      279             0.0000000000
     34632       279  OYPE      H12R          -14.0946521363       35.3940451368       -3.5121854305  MEMB      279             0.0000000000
     34633       279  OYPE      H12S          -14.6047802253       35.5691928346       -5.2708068244  MEMB      279             0.0000000000
     34634       279  OYPE      C213          -13.9508715572       37.2874092449       -4.3726534771  MEMB      279             0.0000000000
     34635       279  OYPE      H13R          -14.0245237609       37.5991722829       -5.4340420015  MEMB      279             0.0000000000
     34636       279  OYPE      H13S          -13.1687598196       37.8649367538       -3.8341781438  MEMB      279             0.0000000000
     34637       279  OYPE      C214          -15.2947376963       37.6075060157       -3.8856319144  MEMB      279             0.0000000000
     34638       279  OYPE      H14R          -16.1519401260       37.2952216766       -4.5047434859  MEMB      279             0.0000000000
     34639       279  OYPE      H14S          -15.1817071379       38.5817331214       -4.1622871704  MEMB      279             0.0000000000
     34640       279  OYPE      C215          -15.5500873897       37.5682732427       -2.3735116017  MEMB      279             0.0000000000
     34641       279  OYPE      H15R          -15.5554444260       36.5481572557       -2.2073673934  MEMB      279             0.0000000000
     34642       279  OYPE      H15S          -16.6222449940       37.7966118042       -2.1280237692  MEMB      279             0.0000000000
     34643       279  OYPE      C216          -14.5893550148       38.3558935148       -1.4362674943  MEMB      279             0.0000000000
     34644       279  OYPE      H16R          -14.8233989473       39.3932220764       -1.2737857381  MEMB      279             0.0000000000
     34645       279  OYPE      H16S          -13.6862795300       38.6436622041       -1.9595055303  MEMB      279             0.0000000000
     34646       279  OYPE      H16T          -14.5679053619       37.9873858093       -0.4253110775  MEMB      279             0.0000000000
     34647       279  OYPE      C33           -16.9188867194       40.8267833189      -10.0281525513  MEMB      279             0.0000000000
     34648       279  OYPE      H3X           -17.7141191464       41.2691232648       -9.7753004506  MEMB      279             0.0000000000
     34649       279  OYPE      H3Y           -16.8084950407       41.8014294737      -10.5089630133  MEMB      279             0.0000000000
     34650       279  OYPE      C34           -16.5786779197       40.4054282339       -8.9103405062  MEMB      279             0.0000000000
     34651       279  OYPE      H4X           -16.9013794215       39.3670805349       -8.6904598426  MEMB      279             0.0000000000
     34652       279  OYPE      H4Y           -15.6236454409       40.4729959801       -9.3639626507  MEMB      279             0.0000000000
     34653       279  OYPE      C35           -16.7311561666       41.3496172325       -7.9261894499  MEMB      279             0.0000000000
     34654       279  OYPE      H5X           -16.5230393700       42.3972409761       -8.1634314298  MEMB      279             0.0000000000
     34655       279  OYPE      H5Y           -15.9284342706       41.2899564731       -7.2764207889  MEMB      279             0.0000000000
     34656       279  OYPE      C36           -17.9295474602       40.8677614329       -7.2197373693  MEMB      279             0.0000000000
     34657       279  OYPE      H6X           -17.8601480458       41.2712400489       -6.1766934234  MEMB      279             0.0000000000
     34658       279  OYPE      H6Y           -18.3351577866       41.5943061794       -7.4537946038  MEMB      279             0.0000000000
     34659       279  OYPE      C37           -18.8286117174       39.5314782197       -7.1190593583  MEMB      279             0.0000000000
     34660       279  OYPE      H7X           -19.9446912455       39.5952653270       -6.7982163370  MEMB      279             0.0000000000
     34661       279  OYPE      H7Y           -19.1052687009       39.0597308252       -8.0174926913  MEMB      279             0.0000000000
     34662       279  OYPE      C38           -18.3068360766       38.6568749648       -6.2326031854  MEMB      279             0.0000000000
     34663       279  OYPE      H8X           -17.3131534119       38.5092498948       -6.7293313769  MEMB      279             0.0000000000
     34664       279  OYPE      H8Y           -18.3309545420       39.1650177559       -5.2245389914  MEMB      279             0.0000000000
     34665       279  OYPE      C39           -19.0139248818       37.4511222107       -6.3406297701  MEMB      279             0.0000000000
     34666       279  OYPE      H9X           -19.1099844902       37.1747927145       -7.3826620317  MEMB      279             0.0000000000
     34667       279  OYPE      C310          -19.5338627035       36.8489707035       -5.3333471267  MEMB      279             0.0000000000
     34668       279  OYPE      H10X          -20.0419907395       35.9047753134       -5.5553529193  MEMB      279             0.0000000000
     34669       279  OYPE      C311          -19.5247266829       37.2623190076       -3.8745194594  MEMB      279             0.0000000000
     34670       279  OYPE      H11X          -18.8984882866       38.0226747048       -3.4508117601  MEMB      279             0.0000000000
     34671       279  OYPE      H11Y          -20.2712750208       38.0179732504       -3.9224438568  MEMB      279             0.0000000000
     34672       279  OYPE      C312          -19.7130907859       36.1031797806       -2.8554688245  MEMB      279             0.0000000000
     34673       279  OYPE      H12X          -20.4354101629       35.3215635685       -3.1627413760  MEMB      279             0.0000000000
     34674       279  OYPE      H12Y          -19.8992081829       36.4558351016       -1.8091634316  MEMB      279             0.0000000000
     34675       279  OYPE      C313          -18.4228924498       35.3861248522       -2.8176934997  MEMB      279             0.0000000000
     34676       279  OYPE      H13X          -18.2595556459       35.1563199535       -3.8888793023  MEMB      279             0.0000000000
     34677       279  OYPE      H13Y          -17.6900087469       36.1124597568       -2.4632910121  MEMB      279             0.0000000000
     34678       279  OYPE      C314          -18.3827656110       34.2669831931       -1.8089233149  MEMB      279             0.0000000000
     34679       279  OYPE      H14X          -19.1160329653       33.5794971830       -2.1663002455  MEMB      279             0.0000000000
     34680       279  OYPE      H14Y          -18.6694795452       34.6850862415       -0.8145527236  MEMB      279             0.0000000000
     34681       279  OYPE      C315          -17.1357329123       33.3960588169       -1.7767162817  MEMB      279             0.0000000000
     34682       279  OYPE      H15X          -16.3612751413       34.1219133907       -1.4381994985  MEMB      279             0.0000000000
     34683       279  OYPE      H15Y          -16.9432095300       33.0071582884       -2.8018905509  MEMB      279             0.0000000000
     34684       279  OYPE      C316          -17.1601329362       32.2071341400       -0.8243553939  MEMB      279             0.0000000000
     34685       279  OYPE      H16X          -17.5730239513       31.2400211430       -1.2085414305  MEMB      279             0.0000000000
     34686       279  OYPE      H16Y          -17.7242336110       32.4795101745        0.1047419236  MEMB      279             0.0000000000
     34687       279  OYPE      C317          -15.8179095055       32.0323091001       -0.3672506877  MEMB      279             0.0000000000
     34688       279  OYPE      H17X          -15.3055853947       32.9804465972       -0.0596897047  MEMB      279             0.0000000000
     34689       279  OYPE      H17Y          -15.1533684945       31.3608637248       -0.9614288639  MEMB      279             0.0000000000
     34690       279  OYPE      C318          -15.9398955551       31.3194273503        0.7335467751  MEMB      279             0.0000000000
     34691       279  OYPE      H18X          -14.8073209131       31.3918212134        0.8159053196  MEMB      279             0.0000000000
     34692       279  OYPE      H18Y          -16.2840443067       31.5116054284        1.5984449086  MEMB      279             0.0000000000
     34693       279  OYPE      H18Z          -16.4620695636       30.3769615362        1.0272144890  MEMB      279             0.0000000000
     34694       280  PMPE      N              18.1833812097      -35.2782950746      -17.8053603451  MEMB      280             0.0000000000
     34695       280  PMPE      HN1            18.8516003873      -35.4820336723      -17.0248119900  MEMB      280             0.0000000000
     34696       280  PMPE      HN2            18.2508541922      -36.0656110193      -18.4785577031  MEMB      280             0.0000000000
     34697       280  PMPE      HN3            18.4306191909      -34.4041905306      -18.3050280435  MEMB      280             0.0000000000
     34698       280  PMPE      C12            16.7273740021      -35.1451254551      -17.3862809432  MEMB      280             0.0000000000
     34699       280  PMPE      H12A           16.7011040810      -34.2335705790      -16.7562290410  MEMB      280             0.0000000000
     34700       280  PMPE      H12B           16.4872854412      -36.0504302721      -16.7989096536  MEMB      280             0.0000000000
     34701       280  PMPE      C11            15.7253300109      -35.1048647269      -18.5691722769  MEMB      280             0.0000000000
     34702       280  PMPE      H11A           15.7762516185      -34.1019223152      -19.0391245966  MEMB      280             0.0000000000
     34703       280  PMPE      H11B           14.6458850565      -35.1451181902      -18.2274832889  MEMB      280             0.0000000000
     34704       280  PMPE      P              15.0808967906      -37.3086697167      -19.7530617545  MEMB      280             0.0000000000
     34705       280  PMPE      O13            15.7012892951      -38.3979105529      -20.5239274018  MEMB      280             0.0000000000
     34706       280  PMPE      O14            13.7993019768      -36.7283418533      -20.1965248285  MEMB      280             0.0000000000
     34707       280  PMPE      O11            14.8659926364      -37.7716746434      -18.2486537960  MEMB      280             0.0000000000
     34708       280  PMPE      O12            16.0969044686      -36.1223884011      -19.5225712649  MEMB      280             0.0000000000
     34709       280  PMPE      C1             14.8461205754      -39.1609241121      -17.9429563145  MEMB      280             0.0000000000
     34710       280  PMPE      HA             15.9067359858      -39.4414711533      -17.8085916546  MEMB      280             0.0000000000
     34711       280  PMPE      HB             14.4351936536      -39.7829465931      -18.7757597759  MEMB      280             0.0000000000
     34712       280  PMPE      C2             14.0377330074      -39.4651309581      -16.6447331971  MEMB      280             0.0000000000
     34713       280  PMPE      HS             12.9442690967      -39.3671758397      -16.8771910716  MEMB      280             0.0000000000
     34714       280  PMPE      O21            14.4676766965      -38.6075467603      -15.5602194949  MEMB      280             0.0000000000
     34715       280  PMPE      C21            13.9254834230      -37.3936049032      -15.4623524363  MEMB      280             0.0000000000
     34716       280  PMPE      O22            13.0244395792      -36.9716464265      -16.1669471881  MEMB      280             0.0000000000
     34717       280  PMPE      C22            14.4864373101      -36.5969091958      -14.2556485600  MEMB      280             0.0000000000
     34718       280  PMPE      H2R            15.5295187902      -36.2276879904      -14.3784535414  MEMB      280             0.0000000000
     34719       280  PMPE      H2S            14.4626415478      -37.2239217682      -13.3393396442  MEMB      280             0.0000000000
     34720       280  PMPE      C3             14.1780633260      -40.9301547082      -16.1699239356  MEMB      280             0.0000000000
     34721       280  PMPE      HX             15.2268231020      -41.2853013105      -16.1302646486  MEMB      280             0.0000000000
     34722       280  PMPE      HY             13.6638652801      -41.5435013867      -16.9146448458  MEMB      280             0.0000000000
     34723       280  PMPE      O31            13.4705942312      -41.1077039434      -14.9571097709  MEMB      280             0.0000000000
     34724       280  PMPE      C31            14.1909664458      -41.2263070081      -13.8971380282  MEMB      280             0.0000000000
     34725       280  PMPE      O32            15.3702383660      -41.5251747629      -13.8297485216  MEMB      280             0.0000000000
     34726       280  PMPE      C32            13.3153093307      -40.8948912921      -12.6989330144  MEMB      280             0.0000000000
     34727       280  PMPE      H2X            12.8819151026      -41.8659852401      -12.4653194951  MEMB      280             0.0000000000
     34728       280  PMPE      H2Y            12.5035451980      -40.1762045204      -12.9255820191  MEMB      280             0.0000000000
     34729       280  PMPE      C23            13.6047330888      -35.3559169760      -13.9390703267  MEMB      280             0.0000000000
     34730       280  PMPE      H3R            12.5128834096      -35.5064284475      -14.0621136171  MEMB      280             0.0000000000
     34731       280  PMPE      H3S            13.8791958753      -34.4952074221      -14.5850505835  MEMB      280             0.0000000000
     34732       280  PMPE      C24            13.6617675124      -34.9926429082      -12.4638340944  MEMB      280             0.0000000000
     34733       280  PMPE      H4R            13.1200348795      -35.7884991926      -11.9215695572  MEMB      280             0.0000000000
     34734       280  PMPE      H4S            13.0290804625      -34.0987854854      -12.2863384165  MEMB      280             0.0000000000
     34735       280  PMPE      C25            15.1052444778      -34.8837073013      -11.9620753011  MEMB      280             0.0000000000
     34736       280  PMPE      H5R            15.6245876954      -34.1564212650      -12.6289976234  MEMB      280             0.0000000000
     34737       280  PMPE      H5S            15.6217554935      -35.8631002898      -12.1140502753  MEMB      280             0.0000000000
     34738       280  PMPE      C26            15.1973358012      -34.2996406615      -10.5357021513  MEMB      280             0.0000000000
     34739       280  PMPE      H6R            14.7224993058      -33.2909295931      -10.6249942148  MEMB      280             0.0000000000
     34740       280  PMPE      H6S            16.2627455541      -34.1311233520      -10.2439198601  MEMB      280             0.0000000000
     34741       280  PMPE      C27            14.4574672404      -35.0802410007       -9.4116354727  MEMB      280             0.0000000000
     34742       280  PMPE      H7R            14.1071650317      -36.0579549315       -9.7549397385  MEMB      280             0.0000000000
     34743       280  PMPE      H7S            13.4789027514      -34.6201304395       -9.1596010031  MEMB      280             0.0000000000
     34744       280  PMPE      C28            15.3077783158      -35.3724972738       -8.1465900985  MEMB      280             0.0000000000
     34745       280  PMPE      H8R            14.7462486951      -35.9411560684       -7.3704891148  MEMB      280             0.0000000000
     34746       280  PMPE      H8S            15.5286353536      -34.3772815815       -7.7259700736  MEMB      280             0.0000000000
     34747       280  PMPE      C29            16.6118058815      -36.1378445152       -8.4361088014  MEMB      280             0.0000000000
     34748       280  PMPE      H9R            17.2055066086      -35.8789615010       -9.3246344792  MEMB      280             0.0000000000
     34749       280  PMPE      C217           16.3129986609      -37.6347716800       -8.4170761801  MEMB      280             0.0000000000
     34750       280  PMPE      H17R           16.7770798294      -38.2324292694       -9.1857790555  MEMB      280             0.0000000000
     34751       280  PMPE      H17S           15.3724289673      -37.8765543102       -7.9566081201  MEMB      280             0.0000000000
     34752       280  PMPE      C210           17.3047809569      -37.0418122189       -7.4328351792  MEMB      280             0.0000000000
     34753       280  PMPE      H10R           18.3719120102      -37.0207237540       -7.7011357894  MEMB      280             0.0000000000
     34754       280  PMPE      C211           16.8691858612      -36.8657508434       -5.9805402561  MEMB      280             0.0000000000
     34755       280  PMPE      H11R           17.3675700046      -37.5564146953       -5.2622616316  MEMB      280             0.0000000000
     34756       280  PMPE      H11S           15.7772326852      -37.0285907340       -5.9095328782  MEMB      280             0.0000000000
     34757       280  PMPE      C212           17.2286703838      -35.5027694374       -5.4430795688  MEMB      280             0.0000000000
     34758       280  PMPE      H12R           16.6701852115      -34.6816463461       -5.9222251627  MEMB      280             0.0000000000
     34759       280  PMPE      H12S           18.3286034343      -35.3697828816       -5.6153571744  MEMB      280             0.0000000000
     34760       280  PMPE      C213           17.0187433859      -35.4835899174       -3.9578994614  MEMB      280             0.0000000000
     34761       280  PMPE      H13R           17.8234233641      -34.7433137925       -3.7490863044  MEMB      280             0.0000000000
     34762       280  PMPE      H13S           17.2585454903      -36.4709179300       -3.4804379217  MEMB      280             0.0000000000
     34763       280  PMPE      C214           15.6976513081      -34.9239504791       -3.4286582848  MEMB      280             0.0000000000
     34764       280  PMPE      H14R           14.9471342552      -35.7141416024       -3.4576320389  MEMB      280             0.0000000000
     34765       280  PMPE      H14S           15.4397735269      -34.0635873981       -4.0502707747  MEMB      280             0.0000000000
     34766       280  PMPE      C215           15.6461724253      -34.3001170011       -2.0805085646  MEMB      280             0.0000000000
     34767       280  PMPE      H15R           16.3689397228      -33.4654715429       -2.1677854284  MEMB      280             0.0000000000
     34768       280  PMPE      H15S           15.8393373806      -35.0113864992       -1.2355080458  MEMB      280             0.0000000000
     34769       280  PMPE      C216           14.8412020295      -33.2121764045       -1.7507806966  MEMB      280             0.0000000000
     34770       280  PMPE      H16R           13.8493368666      -33.6617302399       -1.6730937726  MEMB      280             0.0000000000
     34771       280  PMPE      H16S           15.2017595140      -32.7051349513       -0.7783471323  MEMB      280             0.0000000000
     34772       280  PMPE      H16T           14.7950160379      -32.4056167497       -2.4368207844  MEMB      280             0.0000000000
     34773       280  PMPE      C33            14.1410531170      -40.4627905079      -11.4875115440  MEMB      280             0.0000000000
     34774       280  PMPE      H3X            14.2903068537      -39.3709306653      -11.5140624933  MEMB      280             0.0000000000
     34775       280  PMPE      H3Y            15.0285135865      -41.0974453118      -11.4889979686  MEMB      280             0.0000000000
     34776       280  PMPE      C34            13.7493205754      -40.8413763735      -10.0867029519  MEMB      280             0.0000000000
     34777       280  PMPE      H4X            13.5154808652      -41.8953105102       -9.9703385697  MEMB      280             0.0000000000
     34778       280  PMPE      H4Y            12.9078048781      -40.2594175760      -10.1326770901  MEMB      280             0.0000000000
     34779       280  PMPE      C35            14.1232080544      -39.9601407242       -8.9359357285  MEMB      280             0.0000000000
     34780       280  PMPE      H5X            13.9559641599      -38.8783027110       -9.2510864092  MEMB      280             0.0000000000
     34781       280  PMPE      H5Y            15.1101430117      -40.2291947855       -8.8064452078  MEMB      280             0.0000000000
     34782       280  PMPE      C36            13.7334800960      -40.3374535023       -7.5559585114  MEMB      280             0.0000000000
     34783       280  PMPE      H6X            13.4645666532      -41.3987765699       -7.3062488101  MEMB      280             0.0000000000
     34784       280  PMPE      H6Y            13.0051918808      -39.8165695505       -8.1835047943  MEMB      280             0.0000000000
     34785       280  PMPE      C37            13.5603628736      -39.4302060042       -6.4906978385  MEMB      280             0.0000000000
     34786       280  PMPE      H7X            12.6893601004      -39.4186144238       -5.9583775020  MEMB      280             0.0000000000
     34787       280  PMPE      H7Y            13.5943190385      -38.5123376562       -7.0158425638  MEMB      280             0.0000000000
     34788       280  PMPE      C38            14.4169949647      -39.8348170492       -5.4855877827  MEMB      280             0.0000000000
     34789       280  PMPE      H8X            15.3638767206      -39.7745092548       -5.9883585408  MEMB      280             0.0000000000
     34790       280  PMPE      H8Y            14.1294142933      -40.8308139113       -5.0573581103  MEMB      280             0.0000000000
     34791       280  PMPE      C39            14.4438703554      -38.9054343180       -4.3828923068  MEMB      280             0.0000000000
     34792       280  PMPE      H9X            13.4984474373      -39.1239137223       -4.0031042411  MEMB      280             0.0000000000
     34793       280  PMPE      H9Y            14.4715497536      -37.8324406533       -4.5369752746  MEMB      280             0.0000000000
     34794       280  PMPE      C310           15.4301473383      -39.4178465343       -3.3982760952  MEMB      280             0.0000000000
     34795       280  PMPE      H10X           16.2870844620      -39.7437794055       -3.8910730523  MEMB      280             0.0000000000
     34796       280  PMPE      H10Y           15.2507332937      -40.4964461809       -3.1294764986  MEMB      280             0.0000000000
     34797       280  PMPE      C311           15.6014153390      -38.4368614498       -2.2215317954  MEMB      280             0.0000000000
     34798       280  PMPE      H11X           14.8159323424      -38.3693062060       -1.4063806661  MEMB      280             0.0000000000
     34799       280  PMPE      H11Y           15.6195782549      -37.4491923646       -2.6767091149  MEMB      280             0.0000000000
     34800       280  PMPE      C312           16.8354694074      -38.7723754695       -1.4540404654  MEMB      280             0.0000000000
     34801       280  PMPE      H12X           17.6968595899      -38.9143876914       -2.1332107398  MEMB      280             0.0000000000
     34802       280  PMPE      H12Y           16.6805766899      -39.7592525727       -0.9461595105  MEMB      280             0.0000000000
     34803       280  PMPE      C313           17.1162413655      -37.6302367208       -0.5007998370  MEMB      280             0.0000000000
     34804       280  PMPE      H13X           16.5020998268      -37.5936754303        0.4342975240  MEMB      280             0.0000000000
     34805       280  PMPE      H13Y           17.4500259915      -36.6795049978       -0.9405441028  MEMB      280             0.0000000000
     34806       280  PMPE      C314           18.2584986034      -37.6051664844        0.0646372861  MEMB      280             0.0000000000
     34807       280  PMPE      H14X           17.9713265435      -38.6893472315        1.0231675775  MEMB      280             0.0000000000
     34808       280  PMPE      H14Y           18.5572204047      -36.7318871667        0.6994707146  MEMB      280             0.0000000000
     34809       280  PMPE      C315           19.8118321840      -37.8735683107       -0.6966256750  MEMB      280             0.0000000000
     34810       280  PMPE      H15X           19.4152979243      -38.6106929755       -1.2943652374  MEMB      280             0.0000000000
     34811       280  PMPE      H15Y           20.8061216040      -38.4515147974       -0.2688548698  MEMB      280             0.0000000000
     34812       280  PMPE      C316           20.8681415669      -36.8614806561       -0.6117871623  MEMB      280             0.0000000000
     34813       280  PMPE      H16X           20.2898990078      -36.0798792636       -0.3567813853  MEMB      280             0.0000000000
     34814       280  PMPE      H16Y           20.3962766027      -36.0406904533       -1.0454109272  MEMB      280             0.0000000000
     34815       280  PMPE      H16Z           21.6261564944      -36.9051418185       -1.3247761802  MEMB      280             0.0000000000
     34816       281  PYPG      C13            -7.4502071257      -37.0617796662      -19.1476427926  MEMB      281             0.0000000000
     34817       281  PYPG      H13A           -7.2372299785      -37.8032188516      -19.9322861660  MEMB      281             0.0000000000
     34818       281  PYPG      H13B           -6.9835892720      -36.1020341746      -19.4248688689  MEMB      281             0.0000000000
     34819       281  PYPG      OC3            -6.8856652565      -37.5589483318      -17.9516610809  MEMB      281             0.0000000000
     34820       281  PYPG      HO3            -7.5611182981      -38.1864819908      -17.6820805707  MEMB      281             0.0000000000
     34821       281  PYPG      C12            -8.9703484419      -36.8074657701      -19.0166119451  MEMB      281             0.0000000000
     34822       281  PYPG      H12A           -9.3604605290      -36.6779490892      -20.0505997149  MEMB      281             0.0000000000
     34823       281  PYPG      OC2            -9.2062585101      -35.5897679765      -18.3065731123  MEMB      281             0.0000000000
     34824       281  PYPG      HO2           -10.1504914866      -35.5806784839      -18.1656737159  MEMB      281             0.0000000000
     34825       281  PYPG      C11            -9.7368867815      -37.9714985533      -18.3410694279  MEMB      281             0.0000000000
     34826       281  PYPG      H11A          -10.8032616298      -37.6651316716      -18.2102412585  MEMB      281             0.0000000000
     34827       281  PYPG      H11B           -9.2928339769      -38.1285237558      -17.3392218655  MEMB      281             0.0000000000
     34828       281  PYPG      P             -10.7037937024      -40.1941597782      -19.4792772923  MEMB      281             0.0000000000
     34829       281  PYPG      O13           -10.5893635247      -40.5281402372      -20.9172246994  MEMB      281             0.0000000000
     34830       281  PYPG      O14           -12.0209105199      -39.7242135300      -18.9745077584  MEMB      281             0.0000000000
     34831       281  PYPG      O11           -10.3588510508      -41.5732404834      -18.7676531358  MEMB      281             0.0000000000
     34832       281  PYPG      O12            -9.5566308629      -39.1783164197      -19.0713419092  MEMB      281             0.0000000000
     34833       281  PYPG      C1             -9.6280516924      -41.6779854968      -17.5695844091  MEMB      281             0.0000000000
     34834       281  PYPG      HA             -8.9860247840      -40.8302749642      -17.3188410166  MEMB      281             0.0000000000
     34835       281  PYPG      HB             -9.0026553535      -42.6015781562      -17.5426983169  MEMB      281             0.0000000000
     34836       281  PYPG      C2            -10.5636123973      -41.7204100839      -16.4326233442  MEMB      281             0.0000000000
     34837       281  PYPG      HS            -11.3792318732      -42.3098228206      -16.8910565020  MEMB      281             0.0000000000
     34838       281  PYPG      O21           -11.1379685313      -40.4842337561      -16.0880122293  MEMB      281             0.0000000000
     34839       281  PYPG      C21           -11.7824036969      -40.3046650669      -14.9562870269  MEMB      281             0.0000000000
     34840       281  PYPG      O22           -12.0569769435      -41.1077955212      -14.1061477877  MEMB      281             0.0000000000
     34841       281  PYPG      C22           -12.0841083946      -38.8441643817      -14.7608942270  MEMB      281             0.0000000000
     34842       281  PYPG      H2R           -11.6218190884      -38.2072061531      -15.5304735095  MEMB      281             0.0000000000
     34843       281  PYPG      H2S           -11.6970495025      -38.5246453489      -13.7710905685  MEMB      281             0.0000000000
     34844       281  PYPG      C3             -9.7519138959      -42.3023036510      -15.2917075517  MEMB      281             0.0000000000
     34845       281  PYPG      HX             -9.1535953314      -43.1433559576      -15.7462915253  MEMB      281             0.0000000000
     34846       281  PYPG      HY            -10.4613645640      -42.6994471146      -14.5086897235  MEMB      281             0.0000000000
     34847       281  PYPG      O31            -8.8550265344      -41.3528480841      -14.7717725440  MEMB      281             0.0000000000
     34848       281  PYPG      C31            -8.7558199201      -41.4689771348      -13.4822577183  MEMB      281             0.0000000000
     34849       281  PYPG      O32            -9.2722761316      -42.3420137397      -12.7998868034  MEMB      281             0.0000000000
     34850       281  PYPG      C32            -7.9654143300      -40.2324860871      -13.0376643075  MEMB      281             0.0000000000
     34851       281  PYPG      H2X            -7.8330758768      -40.2341458842      -11.9901070029  MEMB      281             0.0000000000
     34852       281  PYPG      H2Y            -6.9618024812      -40.3027316555      -13.4969900210  MEMB      281             0.0000000000
     34853       281  PYPG      C23           -13.5656811921      -38.6811908346      -14.8042143724  MEMB      281             0.0000000000
     34854       281  PYPG      H3R           -14.1905810408      -39.3073859042      -14.1466591084  MEMB      281             0.0000000000
     34855       281  PYPG      H3S           -13.9792875042      -38.7227958677      -15.8397385123  MEMB      281             0.0000000000
     34856       281  PYPG      C24           -13.9329602442      -37.4108920555      -14.3332620162  MEMB      281             0.0000000000
     34857       281  PYPG      H4R           -14.9863366873      -37.5854581520      -14.5961654031  MEMB      281             0.0000000000
     34858       281  PYPG      H4S           -13.5480170506      -36.7460573137      -15.0232985499  MEMB      281             0.0000000000
     34859       281  PYPG      C25           -13.5830522667      -36.9840783681      -12.9617167825  MEMB      281             0.0000000000
     34860       281  PYPG      H5R           -13.8434181779      -35.9629185616      -12.9421319821  MEMB      281             0.0000000000
     34861       281  PYPG      H5S           -12.5092664026      -36.9097316604      -12.8075906018  MEMB      281             0.0000000000
     34862       281  PYPG      C26           -14.3696126609      -37.6115850922      -11.8989422366  MEMB      281             0.0000000000
     34863       281  PYPG      H6R           -14.2565318325      -38.6403350144      -11.9360854544  MEMB      281             0.0000000000
     34864       281  PYPG      H6S           -15.4548950594      -37.3391901455      -11.9090253478  MEMB      281             0.0000000000
     34865       281  PYPG      C27           -13.7802998663      -37.5328889495      -10.5638992777  MEMB      281             0.0000000000
     34866       281  PYPG      H7R           -14.4389783710      -37.8838706062       -9.7596742163  MEMB      281             0.0000000000
     34867       281  PYPG      H7S           -14.0071827183      -36.5412547403      -11.0510500105  MEMB      281             0.0000000000
     34868       281  PYPG      C28           -12.4312277092      -37.3813880339       -9.8749446806  MEMB      281             0.0000000000
     34869       281  PYPG      H8R           -12.3385862241      -36.9212916605       -8.8690969968  MEMB      281             0.0000000000
     34870       281  PYPG      H8S           -11.7015862380      -36.8702799775      -10.4883357120  MEMB      281             0.0000000000
     34871       281  PYPG      C29           -12.3510630005      -38.8538007556       -9.7378441303  MEMB      281             0.0000000000
     34872       281  PYPG      H9R           -12.6116442980      -39.2941726927      -10.7058371043  MEMB      281             0.0000000000
     34873       281  PYPG      C210          -12.2128939122      -39.5934103712       -8.6223982745  MEMB      281             0.0000000000
     34874       281  PYPG      H10R          -12.1450353159      -40.6893370545       -8.6630294952  MEMB      281             0.0000000000
     34875       281  PYPG      C211          -12.0894488550      -39.0646800797       -7.2293049818  MEMB      281             0.0000000000
     34876       281  PYPG      H11R          -12.5107725193      -38.0541828920       -7.0718963464  MEMB      281             0.0000000000
     34877       281  PYPG      H11S          -11.0132993948      -39.0348148352       -6.9624448275  MEMB      281             0.0000000000
     34878       281  PYPG      C212          -12.9301153471      -39.8032146367       -6.2284197745  MEMB      281             0.0000000000
     34879       281  PYPG      H12R          -12.8703674315      -40.8447111029       -6.3218668934  MEMB      281             0.0000000000
     34880       281  PYPG      H12S          -14.0036126906      -39.6232058190       -6.3744766959  MEMB      281             0.0000000000
     34881       281  PYPG      C213          -12.4346125432      -39.6126400956       -4.8166849989  MEMB      281             0.0000000000
     34882       281  PYPG      H13R          -11.5035430595      -40.0350870577       -4.5201093083  MEMB      281             0.0000000000
     34883       281  PYPG      H13S          -13.1108755861      -40.0078462465       -4.1896342344  MEMB      281             0.0000000000
     34884       281  PYPG      C214          -12.5740931999      -38.4104037165       -3.9759751602  MEMB      281             0.0000000000
     34885       281  PYPG      H14R          -12.1926671068      -38.6125294806       -2.9344570133  MEMB      281             0.0000000000
     34886       281  PYPG      H14S          -11.8647603116      -37.7694701741       -4.4732576465  MEMB      281             0.0000000000
     34887       281  PYPG      C215          -13.9666465939      -37.8604471918       -3.9722535628  MEMB      281             0.0000000000
     34888       281  PYPG      H15R          -14.4716298453      -37.9268734418       -4.9633571137  MEMB      281             0.0000000000
     34889       281  PYPG      H15S          -13.9022555141      -36.7930448637       -3.6977109816  MEMB      281             0.0000000000
     34890       281  PYPG      C216          -14.8141161043      -38.4652513679       -2.9062031983  MEMB      281             0.0000000000
     34891       281  PYPG      H16R          -15.3420131545      -39.3508371892       -3.2119840938  MEMB      281             0.0000000000
     34892       281  PYPG      H16S          -15.6140085068      -37.7748208782       -2.6123474112  MEMB      281             0.0000000000
     34893       281  PYPG      H16T          -14.2340831291      -38.6690976334       -2.0405297699  MEMB      281             0.0000000000
     34894       281  PYPG      C33            -8.7060623691      -38.9336755054      -13.4239767412  MEMB      281             0.0000000000
     34895       281  PYPG      H3X            -9.7502877764      -38.9250056794      -13.0678385393  MEMB      281             0.0000000000
     34896       281  PYPG      H3Y            -8.8169879144      -38.9599990461      -14.5241200625  MEMB      281             0.0000000000
     34897       281  PYPG      C34            -8.0978193250      -37.5808355152      -12.9826343943  MEMB      281             0.0000000000
     34898       281  PYPG      H4X            -8.2883010036      -36.8698841536      -13.8207669026  MEMB      281             0.0000000000
     34899       281  PYPG      H4Y            -6.9948794515      -37.6378375778      -12.8644383442  MEMB      281             0.0000000000
     34900       281  PYPG      C35            -8.6940662062      -37.0135162672      -11.6671177296  MEMB      281             0.0000000000
     34901       281  PYPG      H5X            -9.8007928542      -37.0179405917      -11.6783716850  MEMB      281             0.0000000000
     34902       281  PYPG      H5Y            -8.3546560074      -35.9688769080      -11.4601883490  MEMB      281             0.0000000000
     34903       281  PYPG      C36            -8.1836584952      -37.8208117007      -10.4758443042  MEMB      281             0.0000000000
     34904       281  PYPG      H6X            -7.0901196119      -37.7193918899      -10.5932185849  MEMB      281             0.0000000000
     34905       281  PYPG      H6Y            -8.4643421300      -38.8846353713      -10.6023615806  MEMB      281             0.0000000000
     34906       281  PYPG      C37            -8.5791836058      -37.3261154488       -9.0766776957  MEMB      281             0.0000000000
     34907       281  PYPG      H7X            -9.6494597947      -37.6073047251       -8.9778327372  MEMB      281             0.0000000000
     34908       281  PYPG      H7Y            -8.0028545334      -37.8628743231       -8.2771718615  MEMB      281             0.0000000000
     34909       281  PYPG      C38            -8.4180054490      -35.8100469429       -8.8472499693  MEMB      281             0.0000000000
     34910       281  PYPG      H8X            -9.0733812334      -35.1908807038       -9.4922632998  MEMB      281             0.0000000000
     34911       281  PYPG      H8Y            -7.4083421256      -35.4646753095       -9.1303387386  MEMB      281             0.0000000000
     34912       281  PYPG      C39            -8.7626897970      -35.3911103131       -7.4237761656  MEMB      281             0.0000000000
     34913       281  PYPG      H9X            -8.7509535735      -34.2764814567       -7.4030798055  MEMB      281             0.0000000000
     34914       281  PYPG      H9Y            -8.0144711897      -35.7927332543       -6.7079051999  MEMB      281             0.0000000000
     34915       281  PYPG      C310          -10.1784987523      -35.8188746828       -7.0708810439  MEMB      281             0.0000000000
     34916       281  PYPG      H10X          -10.2909073416      -36.9266703785       -7.1043526867  MEMB      281             0.0000000000
     34917       281  PYPG      H10Y          -10.8195537045      -35.3226356523       -7.8374986611  MEMB      281             0.0000000000
     34918       281  PYPG      C311          -10.6089550204      -35.3769910962       -5.6857993317  MEMB      281             0.0000000000
     34919       281  PYPG      H11X          -11.6809630781      -35.6563815208       -5.6511788651  MEMB      281             0.0000000000
     34920       281  PYPG      H11Y          -10.4404297133      -34.2759340346       -5.6139807025  MEMB      281             0.0000000000
     34921       281  PYPG      C312           -9.7662782934      -36.0608210849       -4.6042108620  MEMB      281             0.0000000000
     34922       281  PYPG      H12X           -9.7453233159      -37.1628996356       -4.7715388734  MEMB      281             0.0000000000
     34923       281  PYPG      H12Y           -8.7475649616      -35.6519878575       -4.7897667203  MEMB      281             0.0000000000
     34924       281  PYPG      C313          -10.1397756315      -35.7144232194       -3.1568229136  MEMB      281             0.0000000000
     34925       281  PYPG      H13X           -9.8740223058      -34.6580200483       -2.9630693167  MEMB      281             0.0000000000
     34926       281  PYPG      H13Y          -11.2223540720      -35.7975058296       -2.9545691887  MEMB      281             0.0000000000
     34927       281  PYPG      C314           -9.3449559806      -36.4716351625       -2.1058316366  MEMB      281             0.0000000000
     34928       281  PYPG      H14X           -9.7862856526      -36.1896366543       -1.1172337268  MEMB      281             0.0000000000
     34929       281  PYPG      H14Y           -9.4315964537      -37.5597902122       -2.2724253606  MEMB      281             0.0000000000
     34930       281  PYPG      C315           -7.9108181699      -35.9850610636       -2.0877738712  MEMB      281             0.0000000000
     34931       281  PYPG      H15X           -7.3838159886      -36.1381919508       -3.0569741564  MEMB      281             0.0000000000
     34932       281  PYPG      H15Y           -8.0685219375      -34.9118313169       -1.9927482694  MEMB      281             0.0000000000
     34933       281  PYPG      C316           -7.1416476207      -36.5247645315       -0.8734607123  MEMB      281             0.0000000000
     34934       281  PYPG      H16X           -6.6796804134      -37.4814968902       -1.0607688835  MEMB      281             0.0000000000
     34935       281  PYPG      H16Y           -7.6650492219      -36.4052265807        0.0913140214  MEMB      281             0.0000000000
     34936       281  PYPG      H16Z           -6.1825214453      -36.0812687880       -0.6289840052  MEMB      281             0.0000000000
     34937       282  PYPG      C13           -24.6816174068      -32.6655220485      -20.5473268485  MEMB      282             0.0000000000
     34938       282  PYPG      H13A          -24.3964163764      -31.5903167454      -20.5191757275  MEMB      282             0.0000000000
     34939       282  PYPG      H13B          -25.0397148395      -32.9152558608      -21.5637516464  MEMB      282             0.0000000000
     34940       282  PYPG      OC3           -25.8282469706      -32.7520993277      -19.7239447414  MEMB      282             0.0000000000
     34941       282  PYPG      HO3           -26.0496365555      -33.6802844877      -19.6655823436  MEMB      282             0.0000000000
     34942       282  PYPG      C12           -23.6248721848      -33.7245618710      -20.1258474772  MEMB      282             0.0000000000
     34943       282  PYPG      H12A          -22.7161943370      -33.6104620302      -20.7650009019  MEMB      282             0.0000000000
     34944       282  PYPG      OC2           -24.1424591487      -35.0433378247      -20.3624594093  MEMB      282             0.0000000000
     34945       282  PYPG      HO2           -23.5007987395      -35.6387931608      -19.9462587454  MEMB      282             0.0000000000
     34946       282  PYPG      C11           -23.1463229071      -33.5897846970      -18.6533944003  MEMB      282             0.0000000000
     34947       282  PYPG      H11A          -22.3210459732      -34.3291980786      -18.5718912827  MEMB      282             0.0000000000
     34948       282  PYPG      H11B          -23.9257121951      -33.8341603478      -17.8911787893  MEMB      282             0.0000000000
     34949       282  PYPG      P             -21.2177495186      -31.7040109908      -18.1639989934  MEMB      282             0.0000000000
     34950       282  PYPG      O13           -21.1055350890      -30.4448351723      -18.9124849389  MEMB      282             0.0000000000
     34951       282  PYPG      O14           -20.2212875178      -32.7472777165      -18.4600386453  MEMB      282             0.0000000000
     34952       282  PYPG      O11           -21.2342224704      -31.4551255294      -16.5793865551  MEMB      282             0.0000000000
     34953       282  PYPG      O12           -22.7041757179      -32.2663850845      -18.4015730498  MEMB      282             0.0000000000
     34954       282  PYPG      C1            -20.1018158422      -31.8020168805      -15.7473423479  MEMB      282             0.0000000000
     34955       282  PYPG      HA            -20.1506582711      -31.2555942212      -14.7787819472  MEMB      282             0.0000000000
     34956       282  PYPG      HB            -19.1567649374      -31.4805000167      -16.2225909470  MEMB      282             0.0000000000
     34957       282  PYPG      C2            -19.9943795799      -33.2949965995      -15.3353550023  MEMB      282             0.0000000000
     34958       282  PYPG      HS            -19.2537130103      -33.7637973298      -16.0407255137  MEMB      282             0.0000000000
     34959       282  PYPG      O21           -21.3136270928      -33.8087280433      -15.4539517858  MEMB      282             0.0000000000
     34960       282  PYPG      C21           -21.3457347955      -35.0682959024      -15.4756000549  MEMB      282             0.0000000000
     34961       282  PYPG      O22           -20.3880588674      -35.7831889052      -15.7489634298  MEMB      282             0.0000000000
     34962       282  PYPG      C22           -22.8230886307      -35.3146635337      -15.0387030206  MEMB      282             0.0000000000
     34963       282  PYPG      H2R           -23.4041949190      -36.1948358635      -15.1824817124  MEMB      282             0.0000000000
     34964       282  PYPG      H2S           -23.4546063159      -35.0338576410      -15.8589239655  MEMB      282             0.0000000000
     34965       282  PYPG      C3            -19.4919158472      -33.4786986943      -13.8632046915  MEMB      282             0.0000000000
     34966       282  PYPG      HX            -18.5496067944      -32.9599295356      -13.8143950121  MEMB      282             0.0000000000
     34967       282  PYPG      HY            -19.3620138307      -34.5514283285      -13.6006176785  MEMB      282             0.0000000000
     34968       282  PYPG      O31           -20.3444290782      -32.8283396272      -12.9370018353  MEMB      282             0.0000000000
     34969       282  PYPG      C31           -19.8169717023      -32.0848993358      -12.0061221912  MEMB      282             0.0000000000
     34970       282  PYPG      O32           -18.6445449411      -32.1524009247      -11.6476959486  MEMB      282             0.0000000000
     34971       282  PYPG      C32           -20.9477886494      -31.0934903195      -11.6169235331  MEMB      282             0.0000000000
     34972       282  PYPG      H2X           -21.1921515618      -31.0845061187      -10.5403702102  MEMB      282             0.0000000000
     34973       282  PYPG      H2Y           -20.6604979080      -30.0862471640      -11.8932246644  MEMB      282             0.0000000000
     34974       282  PYPG      C23           -23.1264897268      -34.9916055501      -13.5695576807  MEMB      282             0.0000000000
     34975       282  PYPG      H3R           -24.2100550767      -35.0159217502      -13.4237391899  MEMB      282             0.0000000000
     34976       282  PYPG      H3S           -22.7792716027      -33.9590218262      -13.5816355872  MEMB      282             0.0000000000
     34977       282  PYPG      C24           -22.5633204697      -35.8169540871      -12.3960287982  MEMB      282             0.0000000000
     34978       282  PYPG      H4R           -21.4685986865      -35.6648999794      -12.4014046168  MEMB      282             0.0000000000
     34979       282  PYPG      H4S           -22.7962527013      -36.9125808370      -12.4226031340  MEMB      282             0.0000000000
     34980       282  PYPG      C25           -23.0885858339      -35.5383683858      -11.0102922315  MEMB      282             0.0000000000
     34981       282  PYPG      H5R           -24.1143230836      -35.9527521966      -10.9444359605  MEMB      282             0.0000000000
     34982       282  PYPG      H5S           -23.0547755207      -34.4623756950      -10.8000548115  MEMB      282             0.0000000000
     34983       282  PYPG      C26           -22.3199661733      -36.2610209002       -9.9438908517  MEMB      282             0.0000000000
     34984       282  PYPG      H6R           -21.5055584950      -35.5921477031       -9.5705134104  MEMB      282             0.0000000000
     34985       282  PYPG      H6S           -21.8657182271      -37.1736370392      -10.4108272485  MEMB      282             0.0000000000
     34986       282  PYPG      C27           -23.1826334265      -36.8807357267       -8.8234937326  MEMB      282             0.0000000000
     34987       282  PYPG      H7R           -23.8063016257      -37.6515140368       -9.3302431730  MEMB      282             0.0000000000
     34988       282  PYPG      H7S           -23.8024324444      -36.0104236589       -8.5520808716  MEMB      282             0.0000000000
     34989       282  PYPG      C28           -22.5474129916      -37.4151886975       -7.4612201193  MEMB      282             0.0000000000
     34990       282  PYPG      H8R           -23.2697790896      -37.7225308574       -6.7243906147  MEMB      282             0.0000000000
     34991       282  PYPG      H8S           -21.9826588387      -36.5222873250       -7.0671609149  MEMB      282             0.0000000000
     34992       282  PYPG      C29           -21.8443061093      -38.7539444349       -7.4858125957  MEMB      282             0.0000000000
     34993       282  PYPG      H9R           -22.3140292709      -39.4702218664       -8.1275680838  MEMB      282             0.0000000000
     34994       282  PYPG      C210          -20.5603262155      -38.8940545944       -7.2588341634  MEMB      282             0.0000000000
     34995       282  PYPG      H10R          -19.9945809073      -39.5937550420       -7.9603189752  MEMB      282             0.0000000000
     34996       282  PYPG      C211          -19.6477186093      -37.7371689586       -6.8894559525  MEMB      282             0.0000000000
     34997       282  PYPG      H11R          -19.8675099038      -36.6831285541       -6.8009848532  MEMB      282             0.0000000000
     34998       282  PYPG      H11S          -19.1286159727      -36.8838018771       -7.4907139117  MEMB      282             0.0000000000
     34999       282  PYPG      C212          -18.7722736625      -38.6499532786       -6.3763172883  MEMB      282             0.0000000000
     35000       282  PYPG      H12R          -18.2946543634      -37.9419832909       -6.6694410070  MEMB      282             0.0000000000
     35001       282  PYPG      H12S          -17.7950456930      -39.0683974866       -6.6729027323  MEMB      282             0.0000000000
     35002       282  PYPG      C213          -19.3624469360      -38.6079630304       -5.0874350409  MEMB      282             0.0000000000
     35003       282  PYPG      H13R          -18.4915903291      -38.8571812723       -4.6655663908  MEMB      282             0.0000000000
     35004       282  PYPG      H13S          -19.8087862884      -39.5119959061       -5.1901208142  MEMB      282             0.0000000000
     35005       282  PYPG      C214          -20.2278130714      -37.5077823200       -4.3634856536  MEMB      282             0.0000000000
     35006       282  PYPG      H14R          -21.1128763100      -37.4171945144       -4.8381123351  MEMB      282             0.0000000000
     35007       282  PYPG      H14S          -20.4779345891      -37.9388082416       -3.3435373307  MEMB      282             0.0000000000
     35008       282  PYPG      C215          -19.9466821657      -35.9761543151       -4.2166708712  MEMB      282             0.0000000000
     35009       282  PYPG      H15R          -19.4572753483      -35.3908116723       -4.9366101046  MEMB      282             0.0000000000
     35010       282  PYPG      H15S          -18.8396226036      -35.9746838625       -3.8760442720  MEMB      282             0.0000000000
     35011       282  PYPG      C216          -20.8658059705      -35.3373714140       -3.1192562134  MEMB      282             0.0000000000
     35012       282  PYPG      H16R          -20.2646126677      -34.6835653685       -2.6118576907  MEMB      282             0.0000000000
     35013       282  PYPG      H16S          -20.8281866828      -35.4471326234       -1.9655829259  MEMB      282             0.0000000000
     35014       282  PYPG      H16T          -21.5862858152      -34.8826242392       -3.6539914699  MEMB      282             0.0000000000
     35015       282  PYPG      C33           -22.1551272275      -31.2351429876      -12.5277378030  MEMB      282             0.0000000000
     35016       282  PYPG      H3X           -22.6219051543      -32.2181073604      -12.3941083071  MEMB      282             0.0000000000
     35017       282  PYPG      H3Y           -21.8624766996      -31.2067927247      -13.6031968246  MEMB      282             0.0000000000
     35018       282  PYPG      C34           -23.1411027275      -30.0971073636      -12.3522602869  MEMB      282             0.0000000000
     35019       282  PYPG      H4X           -23.2064339480      -29.6831322444      -13.3859702376  MEMB      282             0.0000000000
     35020       282  PYPG      H4Y           -22.7132854065      -29.3070104891      -11.7028564328  MEMB      282             0.0000000000
     35021       282  PYPG      C35           -24.4493179896      -30.5708780420      -11.7014645930  MEMB      282             0.0000000000
     35022       282  PYPG      H5X           -24.9321645623      -31.3152145476      -12.3700759256  MEMB      282             0.0000000000
     35023       282  PYPG      H5Y           -25.1883171290      -29.7560104732      -11.5447387466  MEMB      282             0.0000000000
     35024       282  PYPG      C36           -24.2135784806      -31.2577303518      -10.3413809274  MEMB      282             0.0000000000
     35025       282  PYPG      H6X           -23.3366055368      -30.8104643127       -9.8161462163  MEMB      282             0.0000000000
     35026       282  PYPG      H6Y           -23.9344963475      -32.3155296999      -10.5208521034  MEMB      282             0.0000000000
     35027       282  PYPG      C37           -25.4601131740      -31.2979237457       -9.4423566771  MEMB      282             0.0000000000
     35028       282  PYPG      H7X           -25.8203538419      -30.2498538500       -9.2565742806  MEMB      282             0.0000000000
     35029       282  PYPG      H7Y           -26.2757841602      -31.9002860209       -9.9118799126  MEMB      282             0.0000000000
     35030       282  PYPG      C38           -25.1209276192      -31.8856758018       -8.0583698704  MEMB      282             0.0000000000
     35031       282  PYPG      H8X           -25.9705657900      -31.9222477924       -7.3760023751  MEMB      282             0.0000000000
     35032       282  PYPG      H8Y           -24.4340582463      -31.1355525024       -7.6278130537  MEMB      282             0.0000000000
     35033       282  PYPG      C39           -24.5329803239      -33.3083192967       -7.9580239565  MEMB      282             0.0000000000
     35034       282  PYPG      H9X           -23.5547432661      -33.2904539392       -8.4704129122  MEMB      282             0.0000000000
     35035       282  PYPG      H9Y           -25.1562090487      -34.0292236148       -8.5332677038  MEMB      282             0.0000000000
     35036       282  PYPG      C310          -24.3061919093      -33.7328589664       -6.4711903972  MEMB      282             0.0000000000
     35037       282  PYPG      H10X          -24.2134001685      -32.8199383621       -5.8489103500  MEMB      282             0.0000000000
     35038       282  PYPG      H10Y          -23.4606519017      -34.4347530529       -6.3605627839  MEMB      282             0.0000000000
     35039       282  PYPG      C311          -25.4063722659      -34.5572438745       -5.8463783195  MEMB      282             0.0000000000
     35040       282  PYPG      H11X          -25.3801509140      -35.5592798066       -6.2788967362  MEMB      282             0.0000000000
     35041       282  PYPG      H11Y          -26.1153566679      -34.1588600618       -6.4350777719  MEMB      282             0.0000000000
     35042       282  PYPG      C312          -25.6287093144      -34.4943354293       -4.3264427213  MEMB      282             0.0000000000
     35043       282  PYPG      H12X          -26.2673649830      -35.3696650553       -4.0622762795  MEMB      282             0.0000000000
     35044       282  PYPG      H12Y          -24.6135839825      -34.6382177608       -3.8964075883  MEMB      282             0.0000000000
     35045       282  PYPG      C313          -26.2287652480      -33.2109159963       -3.6890680398  MEMB      282             0.0000000000
     35046       282  PYPG      H13X          -25.9751091168      -32.3188608743       -4.2838805861  MEMB      282             0.0000000000
     35047       282  PYPG      H13Y          -27.3167641924      -33.1978412316       -3.6827587071  MEMB      282             0.0000000000
     35048       282  PYPG      C314          -25.8075313025      -32.9737090833       -2.2279652178  MEMB      282             0.0000000000
     35049       282  PYPG      H14X          -24.7159586586      -32.8027839832       -2.1941718915  MEMB      282             0.0000000000
     35050       282  PYPG      H14Y          -26.2763422579      -32.0204092734       -1.8870797437  MEMB      282             0.0000000000
     35051       282  PYPG      C315          -26.0249479928      -34.1753709110       -1.3072550377  MEMB      282             0.0000000000
     35052       282  PYPG      H15X          -25.3540810373      -35.0127006833       -1.4998806662  MEMB      282             0.0000000000
     35053       282  PYPG      H15Y          -26.0125054900      -33.9086916592       -0.2859833086  MEMB      282             0.0000000000
     35054       282  PYPG      C316          -27.2461243867      -34.8965771511       -1.4419534773  MEMB      282             0.0000000000
     35055       282  PYPG      H16X          -27.4820705094      -35.7629144593       -0.7828974288  MEMB      282             0.0000000000
     35056       282  PYPG      H16Y          -27.5750180082      -35.0881571503       -2.4475772516  MEMB      282             0.0000000000
     35057       282  PYPG      H16Z          -28.0395910807      -34.2024430032       -1.3332935320  MEMB      282             0.0000000000
     35058       283  PMPE      N              28.0661315308      -30.3449355886      -16.8897387107  MEMB      283             0.0000000000
     35059       283  PMPE      HN1            28.2462253346      -31.2178699190      -17.4330343127  MEMB      283             0.0000000000
     35060       283  PMPE      HN2            27.9602322484      -30.4846408397      -15.8726552960  MEMB      283             0.0000000000
     35061       283  PMPE      HN3            27.2199038212      -29.8702671137      -17.2724546151  MEMB      283             0.0000000000
     35062       283  PMPE      C12            29.3089157592      -29.5407503039      -17.1571310933  MEMB      283             0.0000000000
     35063       283  PMPE      H12A           30.0955949459      -30.0065643086      -16.5443215168  MEMB      283             0.0000000000
     35064       283  PMPE      H12B           29.1912555096      -28.5022025177      -16.7907372363  MEMB      283             0.0000000000
     35065       283  PMPE      C11            29.6866551926      -29.6502937487      -18.6368567972  MEMB      283             0.0000000000
     35066       283  PMPE      H11A           30.2325741913      -30.6020812387      -18.8588386192  MEMB      283             0.0000000000
     35067       283  PMPE      H11B           30.3873603002      -28.8467138476      -18.9182904834  MEMB      283             0.0000000000
     35068       283  PMPE      P              27.7708399862      -28.3285601141      -19.9405765508  MEMB      283             0.0000000000
     35069       283  PMPE      O13            26.5864517394      -28.7827850169      -20.6729573293  MEMB      283             0.0000000000
     35070       283  PMPE      O14            28.7287658798      -27.4019889212      -20.5867270811  MEMB      283             0.0000000000
     35071       283  PMPE      O11            27.3156217667      -27.6690652058      -18.5644525668  MEMB      283             0.0000000000
     35072       283  PMPE      O12            28.5317940730      -29.6238776260      -19.4454540604  MEMB      283             0.0000000000
     35073       283  PMPE      C1             26.0691103629      -27.8898510216      -17.9077677383  MEMB      283             0.0000000000
     35074       283  PMPE      HA             25.8506081256      -28.9595309490      -17.6770437983  MEMB      283             0.0000000000
     35075       283  PMPE      HB             25.2371751434      -27.5390133761      -18.5457038386  MEMB      283             0.0000000000
     35076       283  PMPE      C2             26.0194222169      -27.0438456274      -16.6295664842  MEMB      283             0.0000000000
     35077       283  PMPE      HS             26.0598687182      -25.9755069704      -16.9782910205  MEMB      283             0.0000000000
     35078       283  PMPE      O21            27.1353990999      -27.4333387637      -15.7921617544  MEMB      283             0.0000000000
     35079       283  PMPE      C21            27.5449302156      -26.4406494776      -15.0006891625  MEMB      283             0.0000000000
     35080       283  PMPE      O22            27.0604389729      -25.3343171692      -14.9709923082  MEMB      283             0.0000000000
     35081       283  PMPE      C22            28.7623580287      -26.8849411873      -14.2082374723  MEMB      283             0.0000000000
     35082       283  PMPE      H2R            29.1338672470      -26.0328802516      -13.6025827745  MEMB      283             0.0000000000
     35083       283  PMPE      H2S            29.5449978070      -27.1062126724      -14.9676657808  MEMB      283             0.0000000000
     35084       283  PMPE      C3             24.7068293106      -27.3118455619      -15.8857743982  MEMB      283             0.0000000000
     35085       283  PMPE      HX             24.5744883544      -28.4234107128      -15.9787774354  MEMB      283             0.0000000000
     35086       283  PMPE      HY             23.8054368617      -26.9216050489      -16.3889028956  MEMB      283             0.0000000000
     35087       283  PMPE      O31            24.8112624056      -26.6554458564      -14.5678534369  MEMB      283             0.0000000000
     35088       283  PMPE      C31            24.2883274395      -27.3821365813      -13.6698089368  MEMB      283             0.0000000000
     35089       283  PMPE      O32            23.7818443928      -28.4039425794      -14.0560846232  MEMB      283             0.0000000000
     35090       283  PMPE      C32            24.2774629451      -26.7210294250      -12.1963145122  MEMB      283             0.0000000000
     35091       283  PMPE      H2X            23.2087556182      -26.5720819062      -12.0041584314  MEMB      283             0.0000000000
     35092       283  PMPE      H2Y            24.9059509001      -25.8302031362      -12.3084423463  MEMB      283             0.0000000000
     35093       283  PMPE      C23            28.4271962632      -28.0834286408      -13.2797323461  MEMB      283             0.0000000000
     35094       283  PMPE      H3R            27.7254512927      -28.7609015348      -13.8148978748  MEMB      283             0.0000000000
     35095       283  PMPE      H3S            27.9487248717      -27.7625202382      -12.3296089337  MEMB      283             0.0000000000
     35096       283  PMPE      C24            29.6776009772      -28.8705418334      -12.9169594399  MEMB      283             0.0000000000
     35097       283  PMPE      H4R            30.1556538277      -29.0342416775      -13.8989626884  MEMB      283             0.0000000000
     35098       283  PMPE      H4S            29.5634626741      -29.8410264745      -12.3730702701  MEMB      283             0.0000000000
     35099       283  PMPE      C25            30.6648164668      -28.1022597881      -12.0661713942  MEMB      283             0.0000000000
     35100       283  PMPE      H5R            31.0510906298      -27.1937696689      -12.5651814178  MEMB      283             0.0000000000
     35101       283  PMPE      H5S            31.5384578498      -28.7719202610      -11.9199618963  MEMB      283             0.0000000000
     35102       283  PMPE      C26            30.1470939471      -27.7204572734      -10.6901800823  MEMB      283             0.0000000000
     35103       283  PMPE      H6R            29.1960512423      -27.1537571913      -10.6850993239  MEMB      283             0.0000000000
     35104       283  PMPE      H6S            30.9220278214      -27.0015097967      -10.3465224696  MEMB      283             0.0000000000
     35105       283  PMPE      C27            30.0960594964      -28.9064850449       -9.7146799949  MEMB      283             0.0000000000
     35106       283  PMPE      H7R            31.0635594818      -29.4453509140       -9.8577215558  MEMB      283             0.0000000000
     35107       283  PMPE      H7S            29.2739153523      -29.6184074753       -9.9366250070  MEMB      283             0.0000000000
     35108       283  PMPE      C28            30.0098237794      -28.3721391361       -8.2823774793  MEMB      283             0.0000000000
     35109       283  PMPE      H8R            29.5333816114      -29.0519065315       -7.5293749089  MEMB      283             0.0000000000
     35110       283  PMPE      H8S            29.4869701000      -27.3892101282       -8.3459772847  MEMB      283             0.0000000000
     35111       283  PMPE      C29            31.4252707621      -27.9964408601       -7.9156682950  MEMB      283             0.0000000000
     35112       283  PMPE      H9R            31.9697982683      -27.2789465544       -8.5566754502  MEMB      283             0.0000000000
     35113       283  PMPE      C217           32.2426170340      -29.0790167032       -7.2185849292  MEMB      283             0.0000000000
     35114       283  PMPE      H17R           33.2066666979      -29.0878807545       -7.7042860299  MEMB      283             0.0000000000
     35115       283  PMPE      H17S           31.6716493264      -29.9666298692       -6.9924320741  MEMB      283             0.0000000000
     35116       283  PMPE      C210           31.8383497053      -27.7957368465       -6.4962402769  MEMB      283             0.0000000000
     35117       283  PMPE      H10R           32.6689415547      -27.0850527728       -6.3890862013  MEMB      283             0.0000000000
     35118       283  PMPE      C211           30.8305999336      -27.8732913204       -5.3509456360  MEMB      283             0.0000000000
     35119       283  PMPE      H11R           31.3678285918      -28.1624058849       -4.4147163174  MEMB      283             0.0000000000
     35120       283  PMPE      H11S           30.1631374846      -28.7392423652       -5.5238419117  MEMB      283             0.0000000000
     35121       283  PMPE      C212           30.0957762517      -26.5000871578       -5.2148613904  MEMB      283             0.0000000000
     35122       283  PMPE      H12R           29.0542294826      -26.5190655652       -5.5949183819  MEMB      283             0.0000000000
     35123       283  PMPE      H12S           30.6214256080      -25.7268942908       -5.8241562186  MEMB      283             0.0000000000
     35124       283  PMPE      C213           29.9679447713      -25.9908960921       -3.7781024613  MEMB      283             0.0000000000
     35125       283  PMPE      H13R           29.5943765383      -24.9318277884       -3.8187387190  MEMB      283             0.0000000000
     35126       283  PMPE      H13S           31.0083880057      -26.0165822638       -3.3804930417  MEMB      283             0.0000000000
     35127       283  PMPE      C214           29.0707440832      -26.9488991998       -2.9771035867  MEMB      283             0.0000000000
     35128       283  PMPE      H14R           29.6186134023      -27.3452919831       -2.0958103873  MEMB      283             0.0000000000
     35129       283  PMPE      H14S           28.7873159905      -27.8254738245       -3.5885312506  MEMB      283             0.0000000000
     35130       283  PMPE      C215           27.7002527991      -26.4196350580       -2.6535906425  MEMB      283             0.0000000000
     35131       283  PMPE      H15R           27.1430652255      -26.1347268147       -3.5667687035  MEMB      283             0.0000000000
     35132       283  PMPE      H15S           27.9570639086      -25.4470174269       -2.1486804280  MEMB      283             0.0000000000
     35133       283  PMPE      C216           26.8189043382      -27.4420899605       -1.8381333721  MEMB      283             0.0000000000
     35134       283  PMPE      H16R           25.8316544514      -27.0346366826       -1.6681780659  MEMB      283             0.0000000000
     35135       283  PMPE      H16S           26.4123649531      -28.2945923196       -2.3103324490  MEMB      283             0.0000000000
     35136       283  PMPE      H16T           27.1079880465      -27.5029921674       -0.7488645495  MEMB      283             0.0000000000
     35137       283  PMPE      C33            24.7766677200      -27.4141460115      -10.8702704509  MEMB      283             0.0000000000
     35138       283  PMPE      H3X            25.9228087905      -27.5534276209      -11.1000821390  MEMB      283             0.0000000000
     35139       283  PMPE      H3Y            23.9586007597      -28.3324208354      -10.7604199576  MEMB      283             0.0000000000
     35140       283  PMPE      C34            24.6855620473      -27.0942453836       -9.5014979863  MEMB      283             0.0000000000
     35141       283  PMPE      H4X            23.5918506715      -27.0715523012       -9.3470813008  MEMB      283             0.0000000000
     35142       283  PMPE      H4Y            25.2579724326      -26.2003904138       -9.4712804338  MEMB      283             0.0000000000
     35143       283  PMPE      C35            25.5004988150      -27.9774194629       -8.6042994640  MEMB      283             0.0000000000
     35144       283  PMPE      H5X            26.4704519728      -28.3530412275       -8.9228646928  MEMB      283             0.0000000000
     35145       283  PMPE      H5Y            24.9744669693      -28.7894683304       -8.5116714476  MEMB      283             0.0000000000
     35146       283  PMPE      C36            25.5886947417      -27.5815642671       -7.2183004989  MEMB      283             0.0000000000
     35147       283  PMPE      H6X            24.6350797695      -27.0706504773       -7.0707907251  MEMB      283             0.0000000000
     35148       283  PMPE      H6Y            26.3550885048      -26.8089247847       -7.4027420133  MEMB      283             0.0000000000
     35149       283  PMPE      C37            26.0545683155      -28.6572428957       -6.1829804760  MEMB      283             0.0000000000
     35150       283  PMPE      H7X            26.0320718674      -28.1081488162       -5.2166740509  MEMB      283             0.0000000000
     35151       283  PMPE      H7Y            27.0652437564      -28.9794080523       -6.5138306298  MEMB      283             0.0000000000
     35152       283  PMPE      C38            25.2375473901      -29.8921218165       -5.7313031754  MEMB      283             0.0000000000
     35153       283  PMPE      H8X            25.2555294418      -30.7802803656       -6.4174888370  MEMB      283             0.0000000000
     35154       283  PMPE      H8Y            24.1946961125      -29.5317185736       -5.5497055411  MEMB      283             0.0000000000
     35155       283  PMPE      C39            25.7307382540      -30.7675671061       -4.6859568401  MEMB      283             0.0000000000
     35156       283  PMPE      H9X            24.8677436065      -31.3552628468       -4.3002286883  MEMB      283             0.0000000000
     35157       283  PMPE      H9Y            26.0775052061      -29.9929532990       -3.9954650712  MEMB      283             0.0000000000
     35158       283  PMPE      C310           26.7714560885      -31.7190003973       -5.2803533100  MEMB      283             0.0000000000
     35159       283  PMPE      H10X           27.5193495508      -31.0992661004       -5.8237166142  MEMB      283             0.0000000000
     35160       283  PMPE      H10Y           26.3781207254      -32.4523574959       -6.0189706455  MEMB      283             0.0000000000
     35161       283  PMPE      C311           27.4395056062      -32.4630591242       -4.2003009143  MEMB      283             0.0000000000
     35162       283  PMPE      H11X           28.1460236301      -33.1941280206       -4.6490148811  MEMB      283             0.0000000000
     35163       283  PMPE      H11Y           26.7343025518      -33.0836573531       -3.5931987890  MEMB      283             0.0000000000
     35164       283  PMPE      C312           28.2110113480      -31.4398861206       -3.4514696055  MEMB      283             0.0000000000
     35165       283  PMPE      H12X           27.7022385121      -30.7512380775       -2.7642429844  MEMB      283             0.0000000000
     35166       283  PMPE      H12Y           28.9978546534      -30.8824550328       -4.0212973959  MEMB      283             0.0000000000
     35167       283  PMPE      C313           28.8297288583      -32.2028625383       -2.6098431428  MEMB      283             0.0000000000
     35168       283  PMPE      H13X           29.6638216687      -32.7240042068       -3.2995735984  MEMB      283             0.0000000000
     35169       283  PMPE      H13Y           28.0336494122      -33.2001975780       -2.1586834847  MEMB      283             0.0000000000
     35170       283  PMPE      C314           29.8971768909      -30.9867835514       -1.6966925025  MEMB      283             0.0000000000
     35171       283  PMPE      H14X           30.6936319329      -30.3897166411       -2.2040428219  MEMB      283             0.0000000000
     35172       283  PMPE      H14Y           30.8455286629      -31.3288321385       -1.0828674596  MEMB      283             0.0000000000
     35173       283  PMPE      C315           29.2750044326      -30.4653238105       -0.4051006161  MEMB      283             0.0000000000
     35174       283  PMPE      H15X           28.5646886148      -29.9955840040       -1.0652773354  MEMB      283             0.0000000000
     35175       283  PMPE      H15Y           29.9458799827      -29.8030530599        0.1576415975  MEMB      283             0.0000000000
     35176       283  PMPE      C316           28.6243127417      -31.3837562568        0.6571540930  MEMB      283             0.0000000000
     35177       283  PMPE      H16X           29.4156657034      -31.9496727850        1.2350641276  MEMB      283             0.0000000000
     35178       283  PMPE      H16Y           27.9591847105      -32.1097305771        0.1905725453  MEMB      283             0.0000000000
     35179       283  PMPE      H16Z           27.8179509577      -31.0640315252        1.2305599076  MEMB      283             0.0000000000
     35180       284  PYPG      C13            25.1873473491       33.6432203979      -18.1858199349  MEMB      284             0.0000000000
     35181       284  PYPG      H13A           25.2237073596       32.7472184338      -17.5377583317  MEMB      284             0.0000000000
     35182       284  PYPG      H13B           25.9801805172       33.5294097361      -18.9638744802  MEMB      284             0.0000000000
     35183       284  PYPG      OC3            25.5235683061       34.7455473733      -17.3636776248  MEMB      284             0.0000000000
     35184       284  PYPG      HO3            26.3645410741       35.0447889222      -17.6710461690  MEMB      284             0.0000000000
     35185       284  PYPG      C12            23.8038908037       33.9248059014      -18.8333907324  MEMB      284             0.0000000000
     35186       284  PYPG      H12A           23.9785925390       34.4172281264      -19.8059702879  MEMB      284             0.0000000000
     35187       284  PYPG      OC2            23.0379056328       34.8617772860      -18.0473487377  MEMB      284             0.0000000000
     35188       284  PYPG      HO2            22.1674059756       34.8264076068      -18.3951945397  MEMB      284             0.0000000000
     35189       284  PYPG      C11            22.9405947997       32.6687498363      -19.0854087533  MEMB      284             0.0000000000
     35190       284  PYPG      H11A           21.9413288710       32.9800137997      -19.4452986341  MEMB      284             0.0000000000
     35191       284  PYPG      H11B           22.8576224036       32.2374771237      -18.0571592968  MEMB      284             0.0000000000
     35192       284  PYPG      P              23.8205916026       30.2772964729      -19.7290841973  MEMB      284             0.0000000000
     35193       284  PYPG      O13            24.5788869324       29.6811458352      -20.8465127034  MEMB      284             0.0000000000
     35194       284  PYPG      O14            22.5795012919       29.5648004077      -19.3589258398  MEMB      284             0.0000000000
     35195       284  PYPG      O11            24.7290641556       30.4898253459      -18.4936381921  MEMB      284             0.0000000000
     35196       284  PYPG      O12            23.4605406912       31.7756054290      -20.0751151851  MEMB      284             0.0000000000
     35197       284  PYPG      C1             25.3981999158       29.3547141406      -17.9827336144  MEMB      284             0.0000000000
     35198       284  PYPG      HA             26.2373417831       29.0674999092      -18.6672021855  MEMB      284             0.0000000000
     35199       284  PYPG      HB             24.7056763668       28.5118149575      -17.8085153965  MEMB      284             0.0000000000
     35200       284  PYPG      C2             25.8455744022       29.7427763178      -16.6254125338  MEMB      284             0.0000000000
     35201       284  PYPG      HS             26.2877502047       28.8146564106      -16.1338536044  MEMB      284             0.0000000000
     35202       284  PYPG      O21            24.8009812911       30.4353312173      -15.9066635612  MEMB      284             0.0000000000
     35203       284  PYPG      C21            24.6059757973       30.1395536415      -14.7295833184  MEMB      284             0.0000000000
     35204       284  PYPG      O22            25.0035962255       29.2880645830      -14.0461790242  MEMB      284             0.0000000000
     35205       284  PYPG      C22            23.4926785306       30.6469459894      -14.2085640652  MEMB      284             0.0000000000
     35206       284  PYPG      H2R            23.2913420087       29.6388455829      -13.6560491706  MEMB      284             0.0000000000
     35207       284  PYPG      H2S            22.7665791513       30.9490584238      -14.9909644994  MEMB      284             0.0000000000
     35208       284  PYPG      C3             26.8759712230       30.6818814779      -16.8047105878  MEMB      284             0.0000000000
     35209       284  PYPG      HX             26.8419213392       31.5783953246      -17.3346371042  MEMB      284             0.0000000000
     35210       284  PYPG      HY             27.7207690382       30.2290545167      -17.3410898731  MEMB      284             0.0000000000
     35211       284  PYPG      O31            26.8570538657       31.1149196279      -15.4744303666  MEMB      284             0.0000000000
     35212       284  PYPG      C31            26.7380834909       32.2498218955      -14.8106535291  MEMB      284             0.0000000000
     35213       284  PYPG      O32            26.5634445125       33.2880846381      -15.3775674559  MEMB      284             0.0000000000
     35214       284  PYPG      C32            27.0218584586       32.1164105742      -13.1992573609  MEMB      284             0.0000000000
     35215       284  PYPG      H2X            26.7373770293       31.1155160726      -12.7948435716  MEMB      284             0.0000000000
     35216       284  PYPG      H2Y            28.1420986299       32.3038359381      -13.0944539114  MEMB      284             0.0000000000
     35217       284  PYPG      C23            23.3227079680       31.3381001945      -12.9611771457  MEMB      284             0.0000000000
     35218       284  PYPG      H3R            24.0695023240       30.9467997520      -12.2535789051  MEMB      284             0.0000000000
     35219       284  PYPG      H3S            22.3362489320       31.0876211516      -12.4942746803  MEMB      284             0.0000000000
     35220       284  PYPG      C24            23.3072981961       32.7616873421      -13.4487307158  MEMB      284             0.0000000000
     35221       284  PYPG      H4R            22.5036689112       32.9191313431      -14.2122341008  MEMB      284             0.0000000000
     35222       284  PYPG      H4S            24.2663619602       32.9844862832      -13.9685718925  MEMB      284             0.0000000000
     35223       284  PYPG      C25            23.0296077610       33.7208795879      -12.3255895271  MEMB      284             0.0000000000
     35224       284  PYPG      H5R            23.4485090800       34.7274522532      -12.5004313186  MEMB      284             0.0000000000
     35225       284  PYPG      H5S            23.4458816349       33.3841318121      -11.3571156408  MEMB      284             0.0000000000
     35226       284  PYPG      C26            21.5607192068       33.8525939482      -12.1134684677  MEMB      284             0.0000000000
     35227       284  PYPG      H6R            21.0970645005       32.8555522557      -11.9456448414  MEMB      284             0.0000000000
     35228       284  PYPG      H6S            21.0247982189       34.3512399699      -12.9492321066  MEMB      284             0.0000000000
     35229       284  PYPG      C27            21.3513700830       34.5127344910      -10.8219162713  MEMB      284             0.0000000000
     35230       284  PYPG      H7R            21.7008429515       35.5960657671      -10.7764515090  MEMB      284             0.0000000000
     35231       284  PYPG      H7S            21.8371819926       34.0533124689       -9.9743985129  MEMB      284             0.0000000000
     35232       284  PYPG      C28            19.9030934300       34.2814602302      -10.5501588959  MEMB      284             0.0000000000
     35233       284  PYPG      H8R            19.4192280388       33.3686708988      -10.5345752913  MEMB      284             0.0000000000
     35234       284  PYPG      H8S            19.3347492470       34.6343561046      -11.4959343468  MEMB      284             0.0000000000
     35235       284  PYPG      C29            19.7167756809       34.8949401680       -9.1981027777  MEMB      284             0.0000000000
     35236       284  PYPG      H9R            19.1746540271       35.9339434981       -8.9938964426  MEMB      284             0.0000000000
     35237       284  PYPG      C210           19.8863221911       34.4622175215       -8.0334418369  MEMB      284             0.0000000000
     35238       284  PYPG      H10R           19.6424556023       35.1977757826       -7.1987253458  MEMB      284             0.0000000000
     35239       284  PYPG      C211           20.3267161074       33.2647432624       -7.6431740767  MEMB      284             0.0000000000
     35240       284  PYPG      H11R           20.4345594172       32.8460949029       -8.6194039907  MEMB      284             0.0000000000
     35241       284  PYPG      H11S           19.5369282081       32.8035781991       -7.0830404211  MEMB      284             0.0000000000
     35242       284  PYPG      C212           21.5610436392       33.7197056673       -6.8728442722  MEMB      284             0.0000000000
     35243       284  PYPG      H12R           22.3230649337       34.2415506414       -7.4972905177  MEMB      284             0.0000000000
     35244       284  PYPG      H12S           22.0159753457       32.7656653509       -6.6291519076  MEMB      284             0.0000000000
     35245       284  PYPG      C213           21.3663936090       34.4059753791       -5.4909184851  MEMB      284             0.0000000000
     35246       284  PYPG      H13R           20.6104570895       33.8446807139       -4.9261732998  MEMB      284             0.0000000000
     35247       284  PYPG      H13S           20.9336428483       35.4090682257       -5.6249530648  MEMB      284             0.0000000000
     35248       284  PYPG      C214           22.6455041849       34.6088358756       -4.6596113328  MEMB      284             0.0000000000
     35249       284  PYPG      H14R           23.1246101430       33.6199022524       -4.5086777530  MEMB      284             0.0000000000
     35250       284  PYPG      H14S           23.3465726829       35.2752716862       -5.2305535877  MEMB      284             0.0000000000
     35251       284  PYPG      C215           22.4091848368       35.2351331978       -3.2691034862  MEMB      284             0.0000000000
     35252       284  PYPG      H15R           23.4050883175       35.5983233680       -2.9369772762  MEMB      284             0.0000000000
     35253       284  PYPG      H15S           22.1030674561       34.5117139846       -2.4741566642  MEMB      284             0.0000000000
     35254       284  PYPG      C216           21.4715807967       36.4415039973       -3.2342566188  MEMB      284             0.0000000000
     35255       284  PYPG      H16R           21.3649003217       36.7339472174       -2.1717880793  MEMB      284             0.0000000000
     35256       284  PYPG      H16S           20.4523328245       36.2524554408       -3.6365770378  MEMB      284             0.0000000000
     35257       284  PYPG      H16T           21.9132876859       37.2888567509       -3.7978455229  MEMB      284             0.0000000000
     35258       284  PYPG      C33            26.5213244527       33.0720849345      -12.4912733905  MEMB      284             0.0000000000
     35259       284  PYPG      H3X            25.5204736449       33.0898426278      -12.6096728327  MEMB      284             0.0000000000
     35260       284  PYPG      H3Y            26.8834589707       33.7492748379      -13.2324602004  MEMB      284             0.0000000000
     35261       284  PYPG      C34            26.7921667700       33.2119227071      -11.0757825153  MEMB      284             0.0000000000
     35262       284  PYPG      H4X            26.3859206319       34.2469198561      -10.7688403570  MEMB      284             0.0000000000
     35263       284  PYPG      H4Y            27.9003903809       33.0361043242      -10.9474613005  MEMB      284             0.0000000000
     35264       284  PYPG      C35            26.0035057688       32.5175781164      -10.1351721285  MEMB      284             0.0000000000
     35265       284  PYPG      H5X            25.5082035284       31.7679300119      -10.7392788737  MEMB      284             0.0000000000
     35266       284  PYPG      H5Y            25.2891866022       33.1773509504       -9.6142368856  MEMB      284             0.0000000000
     35267       284  PYPG      C36            26.7909423020       31.8196067944       -9.1052194418  MEMB      284             0.0000000000
     35268       284  PYPG      H6X            27.4916105732       31.1096786082       -9.5492378099  MEMB      284             0.0000000000
     35269       284  PYPG      H6Y            26.0831351460       31.1194837525       -8.6661560338  MEMB      284             0.0000000000
     35270       284  PYPG      C37            27.3142253707       32.7176270889       -7.9929126953  MEMB      284             0.0000000000
     35271       284  PYPG      H7X            27.6120684979       31.9854769387       -7.2690048786  MEMB      284             0.0000000000
     35272       284  PYPG      H7Y            28.2448038556       33.2689323056       -8.1793627087  MEMB      284             0.0000000000
     35273       284  PYPG      C38            26.2979532718       33.2847922087       -7.0404619021  MEMB      284             0.0000000000
     35274       284  PYPG      H8X            26.3970864720       32.7263005120       -6.0609653235  MEMB      284             0.0000000000
     35275       284  PYPG      H8Y            25.3224021110       33.0711993648       -7.5063263736  MEMB      284             0.0000000000
     35276       284  PYPG      C39            26.5453072684       34.7363512997       -6.7458159463  MEMB      284             0.0000000000
     35277       284  PYPG      H9X            25.6054203584       35.1967382032       -6.3472688226  MEMB      284             0.0000000000
     35278       284  PYPG      H9Y            26.8129748453       35.3330261958       -7.6511825713  MEMB      284             0.0000000000
     35279       284  PYPG      C310           27.7347146933       34.7410362764       -5.7751299116  MEMB      284             0.0000000000
     35280       284  PYPG      H10X           28.1179688524       35.7030168682       -5.7601604542  MEMB      284             0.0000000000
     35281       284  PYPG      H10Y           28.7634446023       34.7116609864       -6.0805696867  MEMB      284             0.0000000000
     35282       284  PYPG      C311           27.5246259445       34.3747572824       -4.2645433634  MEMB      284             0.0000000000
     35283       284  PYPG      H11X           28.3843094094       34.9226612400       -3.7928276488  MEMB      284             0.0000000000
     35284       284  PYPG      H11Y           27.6101554443       33.2900576423       -4.2592260976  MEMB      284             0.0000000000
     35285       284  PYPG      C312           26.2863554662       34.7752060428       -3.4024275251  MEMB      284             0.0000000000
     35286       284  PYPG      H12X           26.0658180205       35.8344421347       -3.1990803253  MEMB      284             0.0000000000
     35287       284  PYPG      H12Y           25.4103709200       34.6296257452       -3.9728752290  MEMB      284             0.0000000000
     35288       284  PYPG      C313           26.3170288218       34.5345719327       -1.9742472935  MEMB      284             0.0000000000
     35289       284  PYPG      H13X           27.0034770258       35.2267945188       -1.5908850826  MEMB      284             0.0000000000
     35290       284  PYPG      H13Y           25.3721827906       34.8757136783       -1.5254771363  MEMB      284             0.0000000000
     35291       284  PYPG      C314           26.6910031352       33.1833757358       -1.7347208398  MEMB      284             0.0000000000
     35292       284  PYPG      H14X           26.1906872888       32.4726068797       -2.4148011609  MEMB      284             0.0000000000
     35293       284  PYPG      H14Y           27.8032568288       33.0878175217       -1.7207867187  MEMB      284             0.0000000000
     35294       284  PYPG      C315           26.0638939957       33.0526064482       -0.5065665833  MEMB      284             0.0000000000
     35295       284  PYPG      H15X           26.6520444683       32.1819992210       -0.6902430349  MEMB      284             0.0000000000
     35296       284  PYPG      H15Y           26.2428218277       33.6491880766        0.3123199779  MEMB      284             0.0000000000
     35297       284  PYPG      C316           25.4626260965       32.0467806136        0.0751054558  MEMB      284             0.0000000000
     35298       284  PYPG      H16X           25.0878552280       31.9909155154        1.2005518700  MEMB      284             0.0000000000
     35299       284  PYPG      H16Y           25.0078414169       31.4401191299       -0.7083838641  MEMB      284             0.0000000000
     35300       284  PYPG      H16Z           24.9500308562       32.7576681520       -0.2339419537  MEMB      284             0.0000000000
     35301       285  PVCL2     C3             10.6511162718       39.8619620138      -19.7734053923  MEMB      285             0.0000000000
     35302       285  PVCL2     HG31            9.7352438687       39.8133401186      -19.1466458650  MEMB      285             0.0000000000
     35303       285  PVCL2     HG32           11.2550851101       38.9511577346      -19.5760889623  MEMB      285             0.0000000000
     35304       285  PVCL2     P3             11.4012969098       41.6918694097      -17.9937060757  MEMB      285             0.0000000000
     35305       285  PVCL2     OP33           10.1299461102       42.4302776118      -17.8189245847  MEMB      285             0.0000000000
     35306       285  PVCL2     OP34           12.6601191560       42.4558255969      -17.8626694476  MEMB      285             0.0000000000
     35307       285  PVCL2     OP31           11.4360714766       40.9886199396      -19.4042371061  MEMB      285             0.0000000000
     35308       285  PVCL2     OP32           11.4205753207       40.4521140495      -17.0313106807  MEMB      285             0.0000000000
     35309       285  PVCL2     C31            12.2689005311       40.4163379046      -15.8916649554  MEMB      285             0.0000000000
     35310       285  PVCL2     H31J           12.8490400667       41.3500718847      -15.7051094841  MEMB      285             0.0000000000
     35311       285  PVCL2     H31K           11.6315339462       40.2768424960      -14.9932459178  MEMB      285             0.0000000000
     35312       285  PVCL2     C2             10.2416421801       39.8604478943      -21.2910892390  MEMB      285             0.0000000000
     35313       285  PVCL2     HG22           11.1362751200       39.9825430799      -21.9236692716  MEMB      285             0.0000000000
     35314       285  PVCL2     OG12            9.7547828896       38.5679129674      -21.6754246459  MEMB      285             0.0000000000
     35315       285  PVCL2     HO12           10.3510571201       37.9117516636      -21.3079286546  MEMB      285             0.0000000000
     35316       285  PVCL2     C1              9.2411920006       40.9747760126      -21.7258819203  MEMB      285             0.0000000000
     35317       285  PVCL2     HG11            9.0488268491       40.8317730738      -22.8159806342  MEMB      285             0.0000000000
     35318       285  PVCL2     HG12            9.6123213778       42.0173720068      -21.6810026727  MEMB      285             0.0000000000
     35319       285  PVCL2     P1              6.7543879347       41.5483383101      -21.4777580220  MEMB      285             0.0000000000
     35320       285  PVCL2     OP13            6.7356947398       42.9885737383      -21.1282969319  MEMB      285             0.0000000000
     35321       285  PVCL2     OP14            6.6671385151       41.1894645654      -22.9083983300  MEMB      285             0.0000000000
     35322       285  PVCL2     OP11            8.0698703419       40.8883421909      -20.9204435800  MEMB      285             0.0000000000
     35323       285  PVCL2     OP12            5.6324053032       40.7353264304      -20.7129708884  MEMB      285             0.0000000000
     35324       285  PVCL2     C11             5.8035329040       39.3712035803      -20.3244229051  MEMB      285             0.0000000000
     35325       285  PVCL2     H11J            6.6314274486       38.8512766258      -20.8634390328  MEMB      285             0.0000000000
     35326       285  PVCL2     H11K            4.8709503902       38.8418414853      -20.6035208006  MEMB      285             0.0000000000
     35327       285  PVCL2     C12             5.9576849713       39.2293003661      -18.7836959899  MEMB      285             0.0000000000
     35328       285  PVCL2     H12J            4.9197055487       39.0711616722      -18.3779085161  MEMB      285             0.0000000000
     35329       285  PVCL2     O12             6.6441224619       40.3258613972      -18.2001510754  MEMB      285             0.0000000000
     35330       285  PVCL2     CA1             5.8718035064       41.3294237728      -17.8318466287  MEMB      285             0.0000000000
     35331       285  PVCL2     OA1             4.6537451744       41.2957682356      -17.8340608054  MEMB      285             0.0000000000
     35332       285  PVCL2     CA2             6.7621093059       42.4783754260      -17.3360383825  MEMB      285             0.0000000000
     35333       285  PVCL2     H2A             6.9948622052       43.0875884375      -18.2289108658  MEMB      285             0.0000000000
     35334       285  PVCL2     H2B             7.7178521324       42.0948650347      -16.9212252995  MEMB      285             0.0000000000
     35335       285  PVCL2     C13             6.7593634644       38.0722057187      -18.2995370032  MEMB      285             0.0000000000
     35336       285  PVCL2     H13J            7.6739455017       37.7314507022      -18.8258603789  MEMB      285             0.0000000000
     35337       285  PVCL2     H13K            6.1483780579       37.2735385662      -18.6252541894  MEMB      285             0.0000000000
     35338       285  PVCL2     O13             6.8664937936       38.0849106849      -16.8396053018  MEMB      285             0.0000000000
     35339       285  PVCL2     CB1             8.1116454260       38.1682413064      -16.3410173796  MEMB      285             0.0000000000
     35340       285  PVCL2     OB1             9.1476269668       38.0092436250      -16.9652108140  MEMB      285             0.0000000000
     35341       285  PVCL2     CB2             8.0404527396       38.4148373854      -14.8366135869  MEMB      285             0.0000000000
     35342       285  PVCL2     H2D             8.0674631083       37.4912677281      -14.2289217380  MEMB      285             0.0000000000
     35343       285  PVCL2     H2E             7.1065470682       38.9729226020      -14.6407996871  MEMB      285             0.0000000000
     35344       285  PVCL2     C32            13.3107158987       39.3059914187      -16.1437668245  MEMB      285             0.0000000000
     35345       285  PVCL2     H32J           13.8133826839       39.5369030527      -17.1155451155  MEMB      285             0.0000000000
     35346       285  PVCL2     O32            12.5571653925       38.0685837005      -16.1972629975  MEMB      285             0.0000000000
     35347       285  PVCL2     CC1            13.1329005081       37.0662808892      -16.8478565670  MEMB      285             0.0000000000
     35348       285  PVCL2     OC1            14.2661386515       37.0242408159      -17.2652346555  MEMB      285             0.0000000000
     35349       285  PVCL2     CC2            12.1905120516       35.9282748174      -17.0146601403  MEMB      285             0.0000000000
     35350       285  PVCL2     H2R            12.5583967516       35.1065011873      -17.6449550601  MEMB      285             0.0000000000
     35351       285  PVCL2     H2S            11.1781555577       36.2046591961      -17.3476735365  MEMB      285             0.0000000000
     35352       285  PVCL2     C33            14.4323343694       39.2799558506      -15.0596522418  MEMB      285             0.0000000000
     35353       285  PVCL2     H33J           15.2673831516       38.5979055481      -15.3433013705  MEMB      285             0.0000000000
     35354       285  PVCL2     H33K           14.8810496787       40.2829820838      -14.9050100018  MEMB      285             0.0000000000
     35355       285  PVCL2     O33            13.8689566864       38.9950410075      -13.7984220630  MEMB      285             0.0000000000
     35356       285  PVCL2     CD1            14.2083128020       37.9094895232      -13.2195455355  MEMB      285             0.0000000000
     35357       285  PVCL2     OD1            14.9716139292       37.0351581743      -13.6075687455  MEMB      285             0.0000000000
     35358       285  PVCL2     CD2            13.5582758486       38.0262045958      -11.9045866041  MEMB      285             0.0000000000
     35359       285  PVCL2     H2X            12.4351627883       38.1824836354      -11.8761818334  MEMB      285             0.0000000000
     35360       285  PVCL2     H2Y            13.9855362705       38.7200143335      -11.1639239120  MEMB      285             0.0000000000
     35361       285  PVCL2     CA3             6.0453964832       43.3604439915      -16.3046983868  MEMB      285             0.0000000000
     35362       285  PVCL2     H3A             5.1248714841       43.7587300103      -16.7711635409  MEMB      285             0.0000000000
     35363       285  PVCL2     H3B             6.6030386840       44.2782413565      -16.0211603423  MEMB      285             0.0000000000
     35364       285  PVCL2     CA4             5.7808023626       42.5759521369      -15.0144517163  MEMB      285             0.0000000000
     35365       285  PVCL2     H4A             6.0881313916       41.5082597401      -15.1125300905  MEMB      285             0.0000000000
     35366       285  PVCL2     H4B             4.6901051713       42.5625850704      -14.8192950115  MEMB      285             0.0000000000
     35367       285  PVCL2     CA5             6.5720694630       43.1672156711      -13.8365618760  MEMB      285             0.0000000000
     35368       285  PVCL2     H5A             6.6271507216       44.2734454721      -13.9097567380  MEMB      285             0.0000000000
     35369       285  PVCL2     H5B             7.6075728310       42.7786554561      -13.9251541228  MEMB      285             0.0000000000
     35370       285  PVCL2     CA6             6.0691699059       42.7693207165      -12.4514147486  MEMB      285             0.0000000000
     35371       285  PVCL2     H6A             6.7783598022       43.0583561569      -11.6564531936  MEMB      285             0.0000000000
     35372       285  PVCL2     H6B             5.9695080020       41.6730865689      -12.4123524661  MEMB      285             0.0000000000
     35373       285  PVCL2     CA7             4.7809720113       43.4048560511      -12.0565787894  MEMB      285             0.0000000000
     35374       285  PVCL2     H7A             4.0306351143       43.1171837114      -12.8542528804  MEMB      285             0.0000000000
     35375       285  PVCL2     H7B             4.8802599322       44.5207786166      -12.0990044472  MEMB      285             0.0000000000
     35376       285  PVCL2     CA8             4.2684866215       42.9260926253      -10.6506044385  MEMB      285             0.0000000000
     35377       285  PVCL2     H8A             4.9159418501       42.1441818362      -10.2870718229  MEMB      285             0.0000000000
     35378       285  PVCL2     H8B             3.2028080553       42.5634525637      -10.7079072825  MEMB      285             0.0000000000
     35379       285  PVCL2     CA9             4.4155095750       43.9269621427       -9.5271604064  MEMB      285             0.0000000000
     35380       285  PVCL2     H9A             3.5685972337       44.4442203700       -9.5262242756  MEMB      285             0.0000000000
     35381       285  PVCL2     H9B             5.2002428887       44.6461957696       -9.7003361086  MEMB      285             0.0000000000
     35382       285  PVCL2     CA10            4.2652806611       43.5584829067       -8.0723689293  MEMB      285             0.0000000000
     35383       285  PVCL2     H10A            4.3628466395       44.5087252680       -7.5003987044  MEMB      285             0.0000000000
     35384       285  PVCL2     H10B            5.1052034357       42.8853710980       -7.9129964183  MEMB      285             0.0000000000
     35385       285  PVCL2     CA11            2.9741939060       42.9015191962       -7.7868563806  MEMB      285             0.0000000000
     35386       285  PVCL2     H11A            2.1016618997       43.5692303852       -7.6424491450  MEMB      285             0.0000000000
     35387       285  PVCL2     CA12            2.8687273927       41.6096672890       -7.5620771067  MEMB      285             0.0000000000
     35388       285  PVCL2     H12A            1.8928585679       41.3436710334       -7.4201195066  MEMB      285             0.0000000000
     35389       285  PVCL2     CA13            3.7530706611       40.3950083691       -7.4714182795  MEMB      285             0.0000000000
     35390       285  PVCL2     H13A            4.7169021375       40.7400514026       -7.8579898274  MEMB      285             0.0000000000
     35391       285  PVCL2     H13B            3.3608923319       39.5118971223       -8.0419332243  MEMB      285             0.0000000000
     35392       285  PVCL2     CA14            4.0967186663       39.9481261603       -6.0180373485  MEMB      285             0.0000000000
     35393       285  PVCL2     H14A            4.5875298612       38.9777576476       -5.8846701101  MEMB      285             0.0000000000
     35394       285  PVCL2     H14B            3.2435808006       39.7597137835       -5.3828198529  MEMB      285             0.0000000000
     35395       285  PVCL2     CA15            4.9921233040       40.9864246574       -5.3419197631  MEMB      285             0.0000000000
     35396       285  PVCL2     H15A            4.6931992505       41.1507663912       -4.2832985838  MEMB      285             0.0000000000
     35397       285  PVCL2     H15B            4.9101238623       41.9247498494       -5.9277729886  MEMB      285             0.0000000000
     35398       285  PVCL2     CA16            6.4680444251       40.5868026816       -5.2838255603  MEMB      285             0.0000000000
     35399       285  PVCL2     H16A            7.1212579572       41.4771090752       -5.1523408895  MEMB      285             0.0000000000
     35400       285  PVCL2     H16B            6.7791718312       40.1489505024       -6.2545106089  MEMB      285             0.0000000000
     35401       285  PVCL2     CA17            6.7182076902       39.5709463150       -4.1609852144  MEMB      285             0.0000000000
     35402       285  PVCL2     H17A            7.4765303329       38.8563289297       -4.5183413732  MEMB      285             0.0000000000
     35403       285  PVCL2     H17B            5.8092626954       38.9604436540       -3.9552962850  MEMB      285             0.0000000000
     35404       285  PVCL2     CA18            7.2445175846       40.1140462209       -2.8353257242  MEMB      285             0.0000000000
     35405       285  PVCL2     H18A            6.6316893261       40.9650623623       -2.4675322148  MEMB      285             0.0000000000
     35406       285  PVCL2     H18B            8.3135491885       40.4168110281       -2.8981537907  MEMB      285             0.0000000000
     35407       285  PVCL2     H18C            7.1934921625       39.2682199124       -2.1169409817  MEMB      285             0.0000000000
     35408       285  PVCL2     CB3             9.2401239537       39.2833761414      -14.5025076336  MEMB      285             0.0000000000
     35409       285  PVCL2     H3D             9.2487419637       40.0273020253      -15.3313540552  MEMB      285             0.0000000000
     35410       285  PVCL2     H3E            10.1854889955       38.7037484933      -14.6174254295  MEMB      285             0.0000000000
     35411       285  PVCL2     CB4             9.1070123243       40.0228481760      -13.1695055319  MEMB      285             0.0000000000
     35412       285  PVCL2     H4D             8.2678331286       40.7516786868      -13.2525860072  MEMB      285             0.0000000000
     35413       285  PVCL2     H4E            10.0492934750       40.6035824339      -13.0195286198  MEMB      285             0.0000000000
     35414       285  PVCL2     CB5             8.8035096453       39.1000496367      -11.9738878132  MEMB      285             0.0000000000
     35415       285  PVCL2     H5D             9.2162031137       38.0922863975      -12.1438927166  MEMB      285             0.0000000000
     35416       285  PVCL2     H5E             7.7164761483       38.9396188581      -11.8401130806  MEMB      285             0.0000000000
     35417       285  PVCL2     CB6             9.3859933305       39.6285995655      -10.6736312119  MEMB      285             0.0000000000
     35418       285  PVCL2     H6D            10.2933943294       40.2000306266      -10.9473790203  MEMB      285             0.0000000000
     35419       285  PVCL2     H6E             9.6803968529       38.7829258923      -10.0128732173  MEMB      285             0.0000000000
     35420       285  PVCL2     CB7             8.4064529018       40.5087389319       -9.9019971116  MEMB      285             0.0000000000
     35421       285  PVCL2     H7D             7.4287279533       39.9706939633       -9.9027183313  MEMB      285             0.0000000000
     35422       285  PVCL2     H7E             8.2906373245       41.4675571460      -10.4512180033  MEMB      285             0.0000000000
     35423       285  PVCL2     CB8             8.8798705342       40.7624268888       -8.4618360592  MEMB      285             0.0000000000
     35424       285  PVCL2     H8D             9.1453126196       39.7657666319       -8.0312534469  MEMB      285             0.0000000000
     35425       285  PVCL2     H8E             8.0660554661       41.1836873641       -7.8425280916  MEMB      285             0.0000000000
     35426       285  PVCL2     CB9            10.0645205005       41.7389661500       -8.3826381184  MEMB      285             0.0000000000
     35427       285  PVCL2     H9D             9.9635396607       42.6886892680       -8.9459798247  MEMB      285             0.0000000000
     35428       285  PVCL2     H9E            10.9220593565       41.2266470474       -8.8417379130  MEMB      285             0.0000000000
     35429       285  PVCL2     CB10           10.5288830078       42.1550185978       -6.9935928849  MEMB      285             0.0000000000
     35430       285  PVCL2     H10D           11.5892468616       42.4596999203       -7.1520819364  MEMB      285             0.0000000000
     35431       285  PVCL2     H10E           10.5072355243       41.2765385334       -6.3159558168  MEMB      285             0.0000000000
     35432       285  PVCL2     CB11            9.7736595030       43.3935217013       -6.4961458615  MEMB      285             0.0000000000
     35433       285  PVCL2     H11D            8.7487084410       43.0681397180       -6.2233291384  MEMB      285             0.0000000000
     35434       285  PVCL2     H11E            9.7092508737       44.1521798832       -7.3154963387  MEMB      285             0.0000000000
     35435       285  PVCL2     CB12           10.4201547356       44.0793784426       -5.3013400646  MEMB      285             0.0000000000
     35436       285  PVCL2     H12D            9.8126412513       44.9571417832       -4.9828970672  MEMB      285             0.0000000000
     35437       285  PVCL2     H12E           11.4414119775       44.4263538862       -5.5867692467  MEMB      285             0.0000000000
     35438       285  PVCL2     CB13           10.5852089541       43.1587277304       -4.1236300503  MEMB      285             0.0000000000
     35439       285  PVCL2     H13D           11.4832059415       42.5409688487       -4.3313936143  MEMB      285             0.0000000000
     35440       285  PVCL2     H13E            9.7106452776       42.4974034192       -3.9116736611  MEMB      285             0.0000000000
     35441       285  PVCL2     CB14           10.7422891200       43.9626324911       -2.9027093596  MEMB      285             0.0000000000
     35442       285  PVCL2     H14D           10.0602521654       44.8362943470       -2.8143432602  MEMB      285             0.0000000000
     35443       285  PVCL2     H14E           11.7124379597       44.4817204753       -2.9023089016  MEMB      285             0.0000000000
     35444       285  PVCL2     CB15           10.3256767158       43.0347783760       -1.8076865761  MEMB      285             0.0000000000
     35445       285  PVCL2     H15D           10.6813681110       43.4438624382       -1.1067615629  MEMB      285             0.0000000000
     35446       285  PVCL2     H15E           10.8131975660       42.1086603794       -1.6342568277  MEMB      285             0.0000000000
     35447       285  PVCL2     CB16            9.0075370593       43.1747106829       -1.2317777972  MEMB      285             0.0000000000
     35448       285  PVCL2     H16D            8.8755477986       42.5151964121       -0.3516653506  MEMB      285             0.0000000000
     35449       285  PVCL2     H16E            8.3811982204       42.8703050950       -2.0511417701  MEMB      285             0.0000000000
     35450       285  PVCL2     H16F            8.7855898611       44.2004510914       -0.8841755043  MEMB      285             0.0000000000
     35451       285  PVCL2     CC3            12.1715297642       35.4307444847      -15.6996477949  MEMB      285             0.0000000000
     35452       285  PVCL2     H3R            11.8271509809       36.2112966763      -14.9550521616  MEMB      285             0.0000000000
     35453       285  PVCL2     H3S            13.1083160964       34.9031525683      -15.3252140083  MEMB      285             0.0000000000
     35454       285  PVCL2     CC4            11.0520470212       34.5674651106      -15.7105345742  MEMB      285             0.0000000000
     35455       285  PVCL2     H4R            11.4119905789       33.7591201546      -15.4147774528  MEMB      285             0.0000000000
     35456       285  PVCL2     H4S            10.9824144304       33.8411506853      -16.4873454832  MEMB      285             0.0000000000
     35457       285  PVCL2     CC5             9.8829986147       34.9114140138      -14.6356472294  MEMB      285             0.0000000000
     35458       285  PVCL2     H5R             9.7579708480       35.8889213177      -14.4312653363  MEMB      285             0.0000000000
     35459       285  PVCL2     H5S            10.6138972958       35.2005182090      -14.1753684604  MEMB      285             0.0000000000
     35460       285  PVCL2     CC6             8.0277297200       34.1967098517      -14.2503145611  MEMB      285             0.0000000000
     35461       285  PVCL2     H6R             7.8254187653       33.0104439116      -13.9403124854  MEMB      285             0.0000000000
     35462       285  PVCL2     H6S             7.4744914266       33.7181410752      -15.0453347165  MEMB      285             0.0000000000
     35463       285  PVCL2     CC7             7.1928468165       34.6129895544      -13.4238357751  MEMB      285             0.0000000000
     35464       285  PVCL2     H7R             6.3420416103       34.0890600011      -13.7649256266  MEMB      285             0.0000000000
     35465       285  PVCL2     H7S             7.4672806109       35.4411122679      -14.0062546692  MEMB      285             0.0000000000
     35466       285  PVCL2     CC8             7.3991154635       34.6753794588      -12.0602911298  MEMB      285             0.0000000000
     35467       285  PVCL2     H8R             6.4468881860       34.9287156584      -11.6907348023  MEMB      285             0.0000000000
     35468       285  PVCL2     H8S             8.0740375371       35.4736454722      -11.8829984079  MEMB      285             0.0000000000
     35469       285  PVCL2     CC9             7.7255131792       33.5598796260      -11.3082619065  MEMB      285             0.0000000000
     35470       285  PVCL2     H9R             8.6567554873       33.5526825316      -11.6760632394  MEMB      285             0.0000000000
     35471       285  PVCL2     H9S             7.5540823191       32.5426202387      -11.4941067168  MEMB      285             0.0000000000
     35472       285  PVCL2     CC10            7.7062735789       33.9431847276       -9.9866125608  MEMB      285             0.0000000000
     35473       285  PVCL2     H10R            8.3341075576       33.2382861801       -9.6685125583  MEMB      285             0.0000000000
     35474       285  PVCL2     H10S            6.9517248189       33.6121164405       -9.3145034721  MEMB      285             0.0000000000
     35475       285  PVCL2     CC11            8.5462032341       35.0279087064       -9.6098011350  MEMB      285             0.0000000000
     35476       285  PVCL2     H11R            9.4244838407       34.5527377098       -9.8648620957  MEMB      285             0.0000000000
     35477       285  PVCL2     CC12            8.4878530772       36.1954068396       -9.0440326840  MEMB      285             0.0000000000
     35478       285  PVCL2     H12R            9.3749463737       36.7283884605       -8.6222753933  MEMB      285             0.0000000000
     35479       285  PVCL2     CC13            7.1270617244       36.5147719033       -8.7220388174  MEMB      285             0.0000000000
     35480       285  PVCL2     H13R            6.4295933531       35.7705534193       -9.1946790593  MEMB      285             0.0000000000
     35481       285  PVCL2     H13S            7.0583855166       37.4868920438       -9.2224012363  MEMB      285             0.0000000000
     35482       285  PVCL2     CC14            6.7277426376       36.6585597323       -7.3022595750  MEMB      285             0.0000000000
     35483       285  PVCL2     H14R            5.7248335689       37.1440235855       -7.3003398426  MEMB      285             0.0000000000
     35484       285  PVCL2     H14S            7.4298045114       37.3030868430       -6.7367841550  MEMB      285             0.0000000000
     35485       285  PVCL2     CC15            6.5724223106       35.3441232885       -6.6300402731  MEMB      285             0.0000000000
     35486       285  PVCL2     H15R            7.5233373428       34.8863885426       -6.3368712361  MEMB      285             0.0000000000
     35487       285  PVCL2     H15S            5.9632220291       34.5989413999       -7.2069345284  MEMB      285             0.0000000000
     35488       285  PVCL2     CC16            6.1001058361       35.6615527682       -5.3307751353  MEMB      285             0.0000000000
     35489       285  PVCL2     H16R            5.1593809560       36.1982794028       -5.6525282131  MEMB      285             0.0000000000
     35490       285  PVCL2     H16S            6.3381853024       36.5131236636       -4.7396067863  MEMB      285             0.0000000000
     35491       285  PVCL2     CC17            6.4040539329       34.3859570243       -4.5657502131  MEMB      285             0.0000000000
     35492       285  PVCL2     H17R            7.2922817353       34.0734764775       -4.0929446817  MEMB      285             0.0000000000
     35493       285  PVCL2     H17S            6.0223836567       33.3814006700       -5.0064404928  MEMB      285             0.0000000000
     35494       285  PVCL2     CC18            5.9578079717       34.6713451377       -3.4250074725  MEMB      285             0.0000000000
     35495       285  PVCL2     H18R            4.8286442546       34.2273715765       -3.4972764458  MEMB      285             0.0000000000
     35496       285  PVCL2     H18S            6.0434337683       35.5232353862       -2.3565645458  MEMB      285             0.0000000000
     35497       285  PVCL2     H18T            5.9151384309       33.8326918346       -3.0752020242  MEMB      285             0.0000000000
     35498       285  PVCL2     CD3            14.0818448084       36.8370706762      -11.3088696612  MEMB      285             0.0000000000
     35499       285  PVCL2     H3X            14.7452379746       36.6985255114      -10.4846391545  MEMB      285             0.0000000000
     35500       285  PVCL2     H3Y            14.1004183663       35.8795798484      -11.9268008910  MEMB      285             0.0000000000
     35501       285  PVCL2     CD4            13.0817402063       36.9808007158      -10.4789030390  MEMB      285             0.0000000000
     35502       285  PVCL2     H4X            12.5203413903       36.1895435168      -11.6912839389  MEMB      285             0.0000000000
     35503       285  PVCL2     H4Y            12.4457336127       37.7443189380       -9.8605788930  MEMB      285             0.0000000000
     35504       285  PVCL2     CD5            13.2302129333       36.3660395948       -9.1009344534  MEMB      285             0.0000000000
     35505       285  PVCL2     H5X            13.7530420890       35.0479152383       -9.4056599972  MEMB      285             0.0000000000
     35506       285  PVCL2     H5Y            11.9251409351       36.5571953682       -8.4738031507  MEMB      285             0.0000000000
     35507       285  PVCL2     CD6            13.8851660376       36.9192790819       -7.9939057461  MEMB      285             0.0000000000
     35508       285  PVCL2     H6X            14.6276407140       37.2703092638       -8.6565569871  MEMB      285             0.0000000000
     35509       285  PVCL2     H6Y            14.2880611742       36.1208063349       -7.3241356537  MEMB      285             0.0000000000
     35510       285  PVCL2     CD7            12.8617627237       37.8388395578       -7.2915526186  MEMB      285             0.0000000000
     35511       285  PVCL2     H7X            12.2669833237       38.3277936474       -8.0845200611  MEMB      285             0.0000000000
     35512       285  PVCL2     H7Y            13.5424322277       38.5718419772       -6.9128288371  MEMB      285             0.0000000000
     35513       285  PVCL2     CD8            11.7663882721       37.3316883455       -6.2680489094  MEMB      285             0.0000000000
     35514       285  PVCL2     H8X            12.1687114807       36.4903659185       -5.6770160401  MEMB      285             0.0000000000
     35515       285  PVCL2     H8Y            10.8437089940       36.9393253691       -6.7686470902  MEMB      285             0.0000000000
     35516       285  PVCL2     CD9            11.1617720975       38.4466307390       -5.4581570986  MEMB      285             0.0000000000
     35517       285  PVCL2     H9X            10.7432829727       39.1941792075       -6.1708512500  MEMB      285             0.0000000000
     35518       285  PVCL2     H9Y            12.0344180493       38.8662955650       -4.9192878795  MEMB      285             0.0000000000
     35519       285  PVCL2     CD10           10.0551202542       38.0791456740       -4.4521663507  MEMB      285             0.0000000000
     35520       285  PVCL2     H10X            9.0901702451       37.7456411899       -4.7931438678  MEMB      285             0.0000000000
     35521       285  PVCL2     H10Y            9.9198724110       38.9650597942       -3.8037350169  MEMB      285             0.0000000000
     35522       285  PVCL2     CD11           10.3410287131       37.0565295879       -3.5005383830  MEMB      285             0.0000000000
     35523       285  PVCL2     H11X           10.4582278019       36.0441141734       -3.8843933011  MEMB      285             0.0000000000
     35524       285  PVCL2     H11Y            9.6443519065       36.8064130602       -2.6784555197  MEMB      285             0.0000000000
     35525       285  PVCL2     CD12           11.4895615685       37.6677017322       -2.8552769315  MEMB      285             0.0000000000
     35526       285  PVCL2     H12X           12.4607040525       37.7214028341       -3.2487624652  MEMB      285             0.0000000000
     35527       285  PVCL2     H12Y           11.3521818450       36.6897742587       -2.3412656568  MEMB      285             0.0000000000
     35528       285  PVCL2     CD13           11.9108929649       38.9828304832       -2.1329915500  MEMB      285             0.0000000000
     35529       285  PVCL2     H13X           11.3509164568       39.5807567612       -2.7508519914  MEMB      285             0.0000000000
     35530       285  PVCL2     H13Y           13.0570733890       39.0087743466       -2.0754301234  MEMB      285             0.0000000000
     35531       285  PVCL2     CD14           11.3743880035       38.9758545148       -0.7728206144  MEMB      285             0.0000000000
     35532       285  PVCL2     H14X           11.8971468875       38.5016927970        0.1933288284  MEMB      285             0.0000000000
     35533       285  PVCL2     H14Y           10.5088902421       38.3864268567       -1.2293348487  MEMB      285             0.0000000000
     35534       285  PVCL2     CD15           11.1065117587       39.9369706429        0.1173479732  MEMB      285             0.0000000000
     35535       285  PVCL2     H15X           10.4893379762       39.5789936170        0.9733902410  MEMB      285             0.0000000000
     35536       285  PVCL2     H15Y           10.6992813923       40.5054550070       -0.6604421771  MEMB      285             0.0000000000
     35537       285  PVCL2     CD16           12.4018913864       40.2770193981        0.5164685927  MEMB      285             0.0000000000
     35538       285  PVCL2     H16X           12.3186235065       41.2395189988        0.8715408031  MEMB      285             0.0000000000
     35539       285  PVCL2     H16Y           13.1479123380       40.3068363336       -0.3272355570  MEMB      285             0.0000000000
     35540       285  PVCL2     H16Z           12.8096982222       39.5337400093        1.3261673682  MEMB      285             0.0000000000
     35541       286  PMPE      N              44.2766641480        3.1751054011      -20.9524798148  MEMB      286             0.0000000000
     35542       286  PMPE      HN1            44.5724577574        2.1754576041      -21.0502266394  MEMB      286             0.0000000000
     35543       286  PMPE      HN2            44.3747954862        3.6749582696      -21.8635765608  MEMB      286             0.0000000000
     35544       286  PMPE      HN3            44.8664986874        3.6504955122      -20.2362510119  MEMB      286             0.0000000000
     35545       286  PMPE      C12            42.8353465117        3.1282750514      -20.5131775442  MEMB      286             0.0000000000
     35546       286  PMPE      H12A           42.2272500217        3.0646484719      -21.4464564644  MEMB      286             0.0000000000
     35547       286  PMPE      H12B           42.5815477328        4.0719226595      -19.9807591657  MEMB      286             0.0000000000
     35548       286  PMPE      C11            42.6224210803        1.9432121516      -19.5597610857  MEMB      286             0.0000000000
     35549       286  PMPE      H11A           43.3245861352        1.9568841996      -18.6885845924  MEMB      286             0.0000000000
     35550       286  PMPE      H11B           42.7606012245        0.9757585810      -20.1075543086  MEMB      286             0.0000000000
     35551       286  PMPE      P              40.8762948866        0.7917502970      -18.1349265829  MEMB      286             0.0000000000
     35552       286  PMPE      O13            41.5862375939        0.9462043554      -16.8607395269  MEMB      286             0.0000000000
     35553       286  PMPE      O14            41.0979050911       -0.4226984493      -18.9277623054  MEMB      286             0.0000000000
     35554       286  PMPE      O11            39.3204323356        0.9820814208      -17.9647846447  MEMB      286             0.0000000000
     35555       286  PMPE      O12            41.3080943443        2.0299539334      -19.0423632644  MEMB      286             0.0000000000
     35556       286  PMPE      C1             38.7097178700        2.2195893541      -18.2983802114  MEMB      286             0.0000000000
     35557       286  PMPE      HA             37.9967816724        2.0395928174      -19.1258403747  MEMB      286             0.0000000000
     35558       286  PMPE      HB             39.4325221918        3.0323987298      -18.5534313089  MEMB      286             0.0000000000
     35559       286  PMPE      C2             37.9097144869        2.7868348249      -17.1208196066  MEMB      286             0.0000000000
     35560       286  PMPE      HS             37.5512728311        3.8058895518      -17.4065167286  MEMB      286             0.0000000000
     35561       286  PMPE      O21            38.7299399279        2.9482201385      -15.9712486077  MEMB      286             0.0000000000
     35562       286  PMPE      C21            39.6318497490        3.9258940696      -16.0446713055  MEMB      286             0.0000000000
     35563       286  PMPE      O22            39.6816634718        4.7710655596      -16.9202421104  MEMB      286             0.0000000000
     35564       286  PMPE      C22            40.4614747365        3.9441185446      -14.7618957372  MEMB      286             0.0000000000
     35565       286  PMPE      H2R            40.9929260376        4.9227277625      -14.6994042313  MEMB      286             0.0000000000
     35566       286  PMPE      H2S            41.1987271066        3.1085979273      -14.8067073562  MEMB      286             0.0000000000
     35567       286  PMPE      C3             36.7206447610        1.8432273196      -16.7846407543  MEMB      286             0.0000000000
     35568       286  PMPE      HX             36.1413652517        1.5375421627      -17.6738666462  MEMB      286             0.0000000000
     35569       286  PMPE      HY             36.0921413248        2.4583099209      -16.1330285643  MEMB      286             0.0000000000
     35570       286  PMPE      O31            37.1073914346        0.5664957554      -16.2540134503  MEMB      286             0.0000000000
     35571       286  PMPE      C31            37.2159302444        0.3727136535      -14.9390513298  MEMB      286             0.0000000000
     35572       286  PMPE      O32            37.0902112794        1.2627884837      -14.1331040646  MEMB      286             0.0000000000
     35573       286  PMPE      C32            37.6819364890       -1.0382860425      -14.5880801312  MEMB      286             0.0000000000
     35574       286  PMPE      H2X            37.4822706019       -1.7526806865      -15.4235840379  MEMB      286             0.0000000000
     35575       286  PMPE      H2Y            37.1882448383       -1.4366071184      -13.6740795124  MEMB      286             0.0000000000
     35576       286  PMPE      C23            39.5333112737        3.7606208820      -13.5396653801  MEMB      286             0.0000000000
     35577       286  PMPE      H3R            39.0513534286        2.7573788155      -13.6080893558  MEMB      286             0.0000000000
     35578       286  PMPE      H3S            38.7390506969        4.5454981061      -13.5428292119  MEMB      286             0.0000000000
     35579       286  PMPE      C24            40.3122428051        3.9225837051      -12.2282648131  MEMB      286             0.0000000000
     35580       286  PMPE      H4R            40.7029722150        4.9596814243      -12.2951880643  MEMB      286             0.0000000000
     35581       286  PMPE      H4S            41.1223239333        3.2049560022      -12.1616057612  MEMB      286             0.0000000000
     35582       286  PMPE      C25            39.5315506912        3.6365548234      -10.9625837561  MEMB      286             0.0000000000
     35583       286  PMPE      H5R            38.9512794422        2.7197907938      -10.9877764645  MEMB      286             0.0000000000
     35584       286  PMPE      H5S            38.7978992349        4.2749089190      -11.3325837964  MEMB      286             0.0000000000
     35585       286  PMPE      C26            40.1524528196        4.0024138830       -9.5843047706  MEMB      286             0.0000000000
     35586       286  PMPE      H6R            40.5761773913        3.0955512263       -9.2026992207  MEMB      286             0.0000000000
     35587       286  PMPE      H6S            39.3478523395        4.2394373822       -8.8560269936  MEMB      286             0.0000000000
     35588       286  PMPE      C27            41.0232562907        5.3106371853       -9.5979377722  MEMB      286             0.0000000000
     35589       286  PMPE      H7R            40.5284913266        6.2743609732       -9.8816953055  MEMB      286             0.0000000000
     35590       286  PMPE      H7S            41.7803924401        5.1321027284      -10.3569745804  MEMB      286             0.0000000000
     35591       286  PMPE      C28            41.6191444683        5.5984440906       -8.2567258654  MEMB      286             0.0000000000
     35592       286  PMPE      H8R            41.8809653027        4.5862051503       -7.9086368783  MEMB      286             0.0000000000
     35593       286  PMPE      H8S            41.1025981653        6.1413943926       -7.4643328646  MEMB      286             0.0000000000
     35594       286  PMPE      C29            42.6046975982        6.6343462028       -8.3468123638  MEMB      286             0.0000000000
     35595       286  PMPE      H9R            42.5051640403        7.4271890928       -9.1024226996  MEMB      286             0.0000000000
     35596       286  PMPE      C217           43.7542407193        5.8439655325       -8.4664440662  MEMB      286             0.0000000000
     35597       286  PMPE      H17R           44.1653222931        6.4076975356       -9.1590252507  MEMB      286             0.0000000000
     35598       286  PMPE      H17S           43.7937806859        4.7913788674       -8.3819190429  MEMB      286             0.0000000000
     35599       286  PMPE      C210           43.6651157120        6.7376610342       -7.3058216513  MEMB      286             0.0000000000
     35600       286  PMPE      H10R           44.3598600967        7.6152412626       -7.3087822259  MEMB      286             0.0000000000
     35601       286  PMPE      C211           43.4674819865        5.9149949816       -6.1116621055  MEMB      286             0.0000000000
     35602       286  PMPE      H11R           44.2660976574        6.2908038874       -5.4837998519  MEMB      286             0.0000000000
     35603       286  PMPE      H11S           43.5616189834        4.8084091307       -6.2807237679  MEMB      286             0.0000000000
     35604       286  PMPE      C212           42.3190127787        6.1467191519       -5.2720211113  MEMB      286             0.0000000000
     35605       286  PMPE      H12R           41.4314650159        5.7521396195       -5.7193892276  MEMB      286             0.0000000000
     35606       286  PMPE      H12S           42.4288114078        7.2304908433       -5.1047357270  MEMB      286             0.0000000000
     35607       286  PMPE      C213           42.3763526932        5.4214381279       -3.9973753655  MEMB      286             0.0000000000
     35608       286  PMPE      H13R           43.2822464137        5.9263333843       -3.7384338473  MEMB      286             0.0000000000
     35609       286  PMPE      H13S           42.5276638061        4.3390365589       -4.0918743778  MEMB      286             0.0000000000
     35610       286  PMPE      C214           41.2124882332        5.4097687061       -3.1275479764  MEMB      286             0.0000000000
     35611       286  PMPE      H14R           40.3930250124        5.0841024438       -3.7774869452  MEMB      286             0.0000000000
     35612       286  PMPE      H14S           41.0116881220        6.4217959374       -2.7649320297  MEMB      286             0.0000000000
     35613       286  PMPE      C215           41.3796718023        4.4773806322       -1.9891937829  MEMB      286             0.0000000000
     35614       286  PMPE      H15R           42.1399576046        3.6783514641       -2.0881732726  MEMB      286             0.0000000000
     35615       286  PMPE      H15S           40.3980140390        4.0293000517       -1.7469111909  MEMB      286             0.0000000000
     35616       286  PMPE      C216           41.7311584736        5.3370174697       -0.9000668235  MEMB      286             0.0000000000
     35617       286  PMPE      H16R           42.6329931473        5.8299746748       -0.8182944113  MEMB      286             0.0000000000
     35618       286  PMPE      H16S           41.0189953295        6.0623958186       -0.5310612057  MEMB      286             0.0000000000
     35619       286  PMPE      H16T           41.9061950027        4.5783411335       -0.2194732676  MEMB      286             0.0000000000
     35620       286  PMPE      C33            39.1916675277       -0.8798024772      -14.3714773621  MEMB      286             0.0000000000
     35621       286  PMPE      H3X            39.7445107715       -0.5118748428      -15.2577484100  MEMB      286             0.0000000000
     35622       286  PMPE      H3Y            39.5260841733       -1.8348271511      -14.2413946786  MEMB      286             0.0000000000
     35623       286  PMPE      C34            39.7458758608       -0.3752923659      -13.0462730751  MEMB      286             0.0000000000
     35624       286  PMPE      H4X            39.3433356132       -0.9237395975      -12.1703322139  MEMB      286             0.0000000000
     35625       286  PMPE      H4Y            39.3835100008        0.6648659146      -13.0110530223  MEMB      286             0.0000000000
     35626       286  PMPE      C35            41.2920471988       -0.4350733458      -12.9588845816  MEMB      286             0.0000000000
     35627       286  PMPE      H5X            41.6517933436        0.1482676101      -13.8234848641  MEMB      286             0.0000000000
     35628       286  PMPE      H5Y            41.7095775500       -1.4551424476      -13.1066862276  MEMB      286             0.0000000000
     35629       286  PMPE      C36            41.8074659858        0.1227416622      -11.6183001602  MEMB      286             0.0000000000
     35630       286  PMPE      H6X            41.5176022828       -0.6247710842      -10.8466158806  MEMB      286             0.0000000000
     35631       286  PMPE      H6Y            41.3921702674        1.1320482014      -11.4337671820  MEMB      286             0.0000000000
     35632       286  PMPE      C37            43.3131701398        0.3231469765      -11.4452512596  MEMB      286             0.0000000000
     35633       286  PMPE      H7X            43.6610852683        1.2538009992      -11.9422701219  MEMB      286             0.0000000000
     35634       286  PMPE      H7Y            43.7390827514       -0.5553788274      -11.9551469064  MEMB      286             0.0000000000
     35635       286  PMPE      C38            43.7734475911        0.2775917772       -9.9720431065  MEMB      286             0.0000000000
     35636       286  PMPE      H8X            44.8758544641        0.1358305605       -9.9304982843  MEMB      286             0.0000000000
     35637       286  PMPE      H8Y            43.3398569805       -0.6573910729       -9.5613186448  MEMB      286             0.0000000000
     35638       286  PMPE      C39            43.3478514189        1.5166215300       -9.1584164566  MEMB      286             0.0000000000
     35639       286  PMPE      H9X            42.3111223752        1.7746325813       -9.4687503080  MEMB      286             0.0000000000
     35640       286  PMPE      H9Y            43.9908320826        2.3769360908       -9.4539592632  MEMB      286             0.0000000000
     35641       286  PMPE      C310           43.2826466034        1.3263699703       -7.6233099836  MEMB      286             0.0000000000
     35642       286  PMPE      H10X           43.3315334708        2.3222799090       -7.1289049178  MEMB      286             0.0000000000
     35643       286  PMPE      H10Y           44.1611462835        0.7538891267       -7.2520508127  MEMB      286             0.0000000000
     35644       286  PMPE      C311           41.9335450810        0.6856807993       -7.2051264038  MEMB      286             0.0000000000
     35645       286  PMPE      H11X           42.0562416867       -0.4149145527       -7.1470341624  MEMB      286             0.0000000000
     35646       286  PMPE      H11Y           41.1569459093        0.9792695420       -7.9523825205  MEMB      286             0.0000000000
     35647       286  PMPE      C312           41.3129904582        1.1593269556       -5.8889896924  MEMB      286             0.0000000000
     35648       286  PMPE      H12X           40.2095223221        1.0097881335       -5.8342741956  MEMB      286             0.0000000000
     35649       286  PMPE      H12Y           41.5236048561        2.2425887731       -5.8133731979  MEMB      286             0.0000000000
     35650       286  PMPE      C313           41.8587386145        0.4278606066       -4.6799333109  MEMB      286             0.0000000000
     35651       286  PMPE      H13X           42.9460090911        0.6222864158       -4.6869566858  MEMB      286             0.0000000000
     35652       286  PMPE      H13Y           41.7396482209       -0.6603577001       -4.8120980864  MEMB      286             0.0000000000
     35653       286  PMPE      C314           41.1990459298        0.9299498068       -3.3802381207  MEMB      286             0.0000000000
     35654       286  PMPE      H14X           41.4544987855        2.0012977512       -3.2532703456  MEMB      286             0.0000000000
     35655       286  PMPE      H14Y           41.6138602097        0.3852178549       -2.5098958801  MEMB      286             0.0000000000
     35656       286  PMPE      C315           39.6650992042        0.7772932275       -3.3451332160  MEMB      286             0.0000000000
     35657       286  PMPE      H15X           39.4766318756       -0.2886783477       -3.6139483582  MEMB      286             0.0000000000
     35658       286  PMPE      H15Y           39.2494557174        1.4780738142       -4.1162826398  MEMB      286             0.0000000000
     35659       286  PMPE      C316           39.0024653706        1.0576203635       -1.9878032722  MEMB      286             0.0000000000
     35660       286  PMPE      H16X           38.2307441440        0.3559658991       -1.6897976039  MEMB      286             0.0000000000
     35661       286  PMPE      H16Y           38.4510318534        2.0047962328       -1.9802597109  MEMB      286             0.0000000000
     35662       286  PMPE      H16Z           39.7410182696        1.0873959064       -1.1703194258  MEMB      286             0.0000000000
     35663       287  PMPE      N             -39.4859399185       -3.7465815625      -17.2052503950  MEMB      287             0.0000000000
     35664       287  PMPE      HN1           -40.0078163861       -4.5467740412      -16.8085129027  MEMB      287             0.0000000000
     35665       287  PMPE      HN2           -38.5087124325       -4.0798530842      -17.3188783583  MEMB      287             0.0000000000
     35666       287  PMPE      HN3           -39.5903982874       -2.9390293917      -16.5675936782  MEMB      287             0.0000000000
     35667       287  PMPE      C12           -40.1017706922       -3.3652761564      -18.5288407798  MEMB      287             0.0000000000
     35668       287  PMPE      H12A          -39.5789504982       -2.4688967559      -18.9316781809  MEMB      287             0.0000000000
     35669       287  PMPE      H12B          -41.1512882578       -3.1095723819      -18.3093868885  MEMB      287             0.0000000000
     35670       287  PMPE      C11           -40.1063008345       -4.5780769799      -19.4484899721  MEMB      287             0.0000000000
     35671       287  PMPE      H11A          -39.0492380788       -4.9416924426      -19.3653635891  MEMB      287             0.0000000000
     35672       287  PMPE      H11B          -40.3288925517       -4.2773142198      -20.5040603694  MEMB      287             0.0000000000
     35673       287  PMPE      P             -42.5780684898       -5.5637133858      -19.4411834660  MEMB      287             0.0000000000
     35674       287  PMPE      O13           -43.0752091682       -6.9478359049      -19.5179206145  MEMB      287             0.0000000000
     35675       287  PMPE      O14           -42.7601101382       -4.6462531317      -20.5977421323  MEMB      287             0.0000000000
     35676       287  PMPE      O11           -43.2294938935       -4.8994882660      -18.2019405801  MEMB      287             0.0000000000
     35677       287  PMPE      O12           -41.0352800755       -5.5582586523      -18.9655363279  MEMB      287             0.0000000000
     35678       287  PMPE      C1            -44.3095193706       -3.9907655932      -18.1842938645  MEMB      287             0.0000000000
     35679       287  PMPE      HA            -45.2950964381       -4.5111051674      -18.2905895267  MEMB      287             0.0000000000
     35680       287  PMPE      HB            -44.2517524696       -3.2091898535      -18.9818326956  MEMB      287             0.0000000000
     35681       287  PMPE      C2            -44.2966627053       -3.3208280424      -16.7931845071  MEMB      287             0.0000000000
     35682       287  PMPE      HS            -45.0832597383       -2.5487633229      -16.8499313976  MEMB      287             0.0000000000
     35683       287  PMPE      O21           -42.9980133545       -2.7152368393      -16.5036901425  MEMB      287             0.0000000000
     35684       287  PMPE      C21           -43.0312352251       -1.7457291896      -15.5686893557  MEMB      287             0.0000000000
     35685       287  PMPE      O22           -44.0344185006       -1.3074406655      -15.0540407229  MEMB      287             0.0000000000
     35686       287  PMPE      C22           -41.5963783456       -1.1766390199      -15.3797191167  MEMB      287             0.0000000000
     35687       287  PMPE      H2R           -41.4147274324       -0.2869067074      -16.0183434294  MEMB      287             0.0000000000
     35688       287  PMPE      H2S           -40.9133995988       -1.9506588754      -15.7447006100  MEMB      287             0.0000000000
     35689       287  PMPE      C3            -44.6963810973       -4.3663718251      -15.6829321526  MEMB      287             0.0000000000
     35690       287  PMPE      HX            -45.5754440056       -4.9383734541      -16.0820006301  MEMB      287             0.0000000000
     35691       287  PMPE      HY            -45.0801914401       -3.7283654209      -14.8580145123  MEMB      287             0.0000000000
     35692       287  PMPE      O31           -43.5974645183       -5.2029074818      -15.2099346404  MEMB      287             0.0000000000
     35693       287  PMPE      C31           -43.9648659548       -6.1739028910      -14.3682002883  MEMB      287             0.0000000000
     35694       287  PMPE      O32           -45.1149828535       -6.5243301408      -14.1810599723  MEMB      287             0.0000000000
     35695       287  PMPE      C32           -42.7345104160       -6.6839588063      -13.5908551375  MEMB      287             0.0000000000
     35696       287  PMPE      H2X           -41.8692492360       -5.9902474584      -13.7161879413  MEMB      287             0.0000000000
     35697       287  PMPE      H2Y           -42.4467197442       -7.7036522181      -13.9508427660  MEMB      287             0.0000000000
     35698       287  PMPE      C23           -41.1388399556       -0.8743174940      -13.9225214001  MEMB      287             0.0000000000
     35699       287  PMPE      H3R           -41.7884200967       -0.1105802792      -13.4513778075  MEMB      287             0.0000000000
     35700       287  PMPE      H3S           -40.0842169062       -0.4887603190      -13.9554861170  MEMB      287             0.0000000000
     35701       287  PMPE      C24           -41.0912113446       -2.0768690381      -12.9743914305  MEMB      287             0.0000000000
     35702       287  PMPE      H4R           -40.6281084461       -2.9196982538      -13.5292869600  MEMB      287             0.0000000000
     35703       287  PMPE      H4S           -42.0962331366       -2.4482710457      -12.6690030881  MEMB      287             0.0000000000
     35704       287  PMPE      C25           -40.1943985748       -1.7890546840      -11.7542222896  MEMB      287             0.0000000000
     35705       287  PMPE      H5R           -40.6275404506       -1.0805268240      -11.0127167487  MEMB      287             0.0000000000
     35706       287  PMPE      H5S           -39.2502767944       -1.3173430093      -12.1140631639  MEMB      287             0.0000000000
     35707       287  PMPE      C26           -39.8642889157       -3.1146756549      -11.0766252996  MEMB      287             0.0000000000
     35708       287  PMPE      H6R           -39.4824806406       -3.7602411499      -11.8954669693  MEMB      287             0.0000000000
     35709       287  PMPE      H6S           -40.8239628950       -3.5000930124      -10.6685456146  MEMB      287             0.0000000000
     35710       287  PMPE      C27           -38.8954373385       -2.8804208172       -9.9273340960  MEMB      287             0.0000000000
     35711       287  PMPE      H7R           -39.4874606465       -2.1697231637       -9.3191213853  MEMB      287             0.0000000000
     35712       287  PMPE      H7S           -37.9858082280       -2.3556802253      -10.2914514084  MEMB      287             0.0000000000
     35713       287  PMPE      C28           -38.5224740449       -4.0348001755       -8.9971580176  MEMB      287             0.0000000000
     35714       287  PMPE      H8R           -39.3608205576       -4.4601054762       -8.4644679098  MEMB      287             0.0000000000
     35715       287  PMPE      H8S           -37.6581253744       -3.7192817993       -8.3535948799  MEMB      287             0.0000000000
     35716       287  PMPE      C29           -38.0301523115       -5.1961992701       -9.6754459467  MEMB      287             0.0000000000
     35717       287  PMPE      H9R           -37.4437994113       -4.8789007006      -10.4483278873  MEMB      287             0.0000000000
     35718       287  PMPE      C217          -38.7645045072       -6.4113658803      -10.2017133283  MEMB      287             0.0000000000
     35719       287  PMPE      H17R          -38.3359640034       -6.7355806864      -11.1456253727  MEMB      287             0.0000000000
     35720       287  PMPE      H17S          -39.7001689010       -6.0125544707      -10.2856058269  MEMB      287             0.0000000000
     35721       287  PMPE      C210          -37.8857860272       -6.4501603361       -8.9017846179  MEMB      287             0.0000000000
     35722       287  PMPE      H10R          -37.0385306048       -7.1643388310       -8.8159434385  MEMB      287             0.0000000000
     35723       287  PMPE      C211          -38.4350129297       -6.6805921071       -7.6428227015  MEMB      287             0.0000000000
     35724       287  PMPE      H11R          -38.4675209898       -7.7501992921       -7.8543422161  MEMB      287             0.0000000000
     35725       287  PMPE      H11S          -39.4105967863       -6.2494208844       -7.5950630188  MEMB      287             0.0000000000
     35726       287  PMPE      C212          -37.5163669226       -6.3079513158       -6.4940607739  MEMB      287             0.0000000000
     35727       287  PMPE      H12R          -37.5533980660       -5.2280898137       -6.3726643344  MEMB      287             0.0000000000
     35728       287  PMPE      H12S          -36.4489490168       -6.6518022795       -6.5921895998  MEMB      287             0.0000000000
     35729       287  PMPE      C213          -38.0023083960       -6.7963947991       -5.1525519603  MEMB      287             0.0000000000
     35730       287  PMPE      H13R          -37.4008408636       -6.4238519796       -4.3350518173  MEMB      287             0.0000000000
     35731       287  PMPE      H13S          -37.3919376620       -7.6640722085       -5.1622850516  MEMB      287             0.0000000000
     35732       287  PMPE      C214          -39.5484776684       -7.0862009371       -4.9385517335  MEMB      287             0.0000000000
     35733       287  PMPE      H14R          -39.9678881218       -7.6813946746       -5.7800284853  MEMB      287             0.0000000000
     35734       287  PMPE      H14S          -40.0799404972       -6.1376694841       -4.9999653184  MEMB      287             0.0000000000
     35735       287  PMPE      C215          -39.9884128522       -7.8043891183       -3.6091439941  MEMB      287             0.0000000000
     35736       287  PMPE      H15R          -39.8646237147       -8.8997115245       -3.4970189859  MEMB      287             0.0000000000
     35737       287  PMPE      H15S          -41.0382537256       -8.0082782168       -3.5068193601  MEMB      287             0.0000000000
     35738       287  PMPE      C216          -39.2030076680       -7.3346817618       -2.4112929205  MEMB      287             0.0000000000
     35739       287  PMPE      H16R          -39.9133050781       -7.3971915902       -1.5723712281  MEMB      287             0.0000000000
     35740       287  PMPE      H16S          -38.2850467775       -7.9653498390       -2.2466767963  MEMB      287             0.0000000000
     35741       287  PMPE      H16T          -38.9103562242       -6.2810022541       -2.5652961424  MEMB      287             0.0000000000
     35742       287  PMPE      C33           -43.0613272706       -6.7078892386      -12.0721889754  MEMB      287             0.0000000000
     35743       287  PMPE      H3X           -42.2238391362       -7.2809093830      -11.6408482798  MEMB      287             0.0000000000
     35744       287  PMPE      H3Y           -43.9807952648       -7.2824660520      -11.8398935775  MEMB      287             0.0000000000
     35745       287  PMPE      C34           -43.1982970824       -5.2863509750      -11.4631265064  MEMB      287             0.0000000000
     35746       287  PMPE      H4X           -44.1200430053       -4.8611899102      -11.9190809041  MEMB      287             0.0000000000
     35747       287  PMPE      H4Y           -42.2957287955       -4.7001074730      -11.7636006651  MEMB      287             0.0000000000
     35748       287  PMPE      C35           -43.3649332804       -5.1138085284       -9.9329623649  MEMB      287             0.0000000000
     35749       287  PMPE      H5X           -42.4264964642       -5.4899639916       -9.4656389332  MEMB      287             0.0000000000
     35750       287  PMPE      H5Y           -44.2090078370       -5.6966568404       -9.5052584341  MEMB      287             0.0000000000
     35751       287  PMPE      C36           -43.5365805353       -3.6358065866       -9.5018742845  MEMB      287             0.0000000000
     35752       287  PMPE      H6X           -44.5375158459       -3.1906082208       -9.7118271597  MEMB      287             0.0000000000
     35753       287  PMPE      H6Y           -42.7531144642       -3.0484829909      -10.0307740374  MEMB      287             0.0000000000
     35754       287  PMPE      C37           -43.3330493794       -3.4513097599       -8.0012114070  MEMB      287             0.0000000000
     35755       287  PMPE      H7X           -43.3214052782       -2.3552122054       -7.7833504478  MEMB      287             0.0000000000
     35756       287  PMPE      H7Y           -42.3410395284       -3.8862011310       -7.7714339107  MEMB      287             0.0000000000
     35757       287  PMPE      C38           -44.3408594030       -4.2515833272       -7.1644346586  MEMB      287             0.0000000000
     35758       287  PMPE      H8X           -44.1737063577       -5.3396667451       -7.3133861297  MEMB      287             0.0000000000
     35759       287  PMPE      H8Y           -45.3694130191       -4.0617460175       -7.5443005063  MEMB      287             0.0000000000
     35760       287  PMPE      C39           -44.2619267124       -3.9789034718       -5.6581027063  MEMB      287             0.0000000000
     35761       287  PMPE      H9X           -45.2601839964       -4.2118733126       -5.2111058245  MEMB      287             0.0000000000
     35762       287  PMPE      H9Y           -44.0034691776       -2.9207390228       -5.4431164014  MEMB      287             0.0000000000
     35763       287  PMPE      C310          -43.1961145284       -4.7402194041       -4.8745777254  MEMB      287             0.0000000000
     35764       287  PMPE      H10X          -42.1603546170       -4.3680702139       -5.0747621171  MEMB      287             0.0000000000
     35765       287  PMPE      H10Y          -43.2274037433       -5.8339574501       -5.0188640145  MEMB      287             0.0000000000
     35766       287  PMPE      C311          -43.4480639896       -4.5315998838       -3.3935514885  MEMB      287             0.0000000000
     35767       287  PMPE      H11X          -44.3978950847       -5.0141172670       -3.0707646262  MEMB      287             0.0000000000
     35768       287  PMPE      H11Y          -43.5629486332       -3.4333986912       -3.2574022814  MEMB      287             0.0000000000
     35769       287  PMPE      C312          -42.2317007845       -5.0190404036       -2.6111810268  MEMB      287             0.0000000000
     35770       287  PMPE      H12X          -41.3596208258       -4.4513865671       -3.0128447576  MEMB      287             0.0000000000
     35771       287  PMPE      H12Y          -41.9955634289       -6.0884915907       -2.7840992836  MEMB      287             0.0000000000
     35772       287  PMPE      C313          -42.3029961399       -4.7249366472       -1.1103275437  MEMB      287             0.0000000000
     35773       287  PMPE      H13X          -42.4810198541       -3.6251882798       -1.0520185534  MEMB      287             0.0000000000
     35774       287  PMPE      H13Y          -41.3298760099       -5.0722404532       -0.6771517167  MEMB      287             0.0000000000
     35775       287  PMPE      C314          -43.4476577920       -5.3995381662       -0.3426227523  MEMB      287             0.0000000000
     35776       287  PMPE      H14X          -43.5169546574       -6.4327965490       -0.7242458739  MEMB      287             0.0000000000
     35777       287  PMPE      H14Y          -44.4085165437       -4.9022817623       -0.5991434514  MEMB      287             0.0000000000
     35778       287  PMPE      C315          -43.2916656282       -5.4714458583        1.1952635736  MEMB      287             0.0000000000
     35779       287  PMPE      H15X          -43.3614042461       -4.4323478084        1.5874598143  MEMB      287             0.0000000000
     35780       287  PMPE      H15Y          -42.3274121512       -5.9666879150        1.4615538323  MEMB      287             0.0000000000
     35781       287  PMPE      C316          -44.4107879575       -6.2580677002        1.8526277456  MEMB      287             0.0000000000
     35782       287  PMPE      H16X          -45.3658323787       -5.7505763163        1.6214732556  MEMB      287             0.0000000000
     35783       287  PMPE      H16Y          -44.3986515877       -6.4592482303        2.9262340170  MEMB      287             0.0000000000
     35784       287  PMPE      H16Z          -44.3947428828       -7.2880868400        1.4867190852  MEMB      287             0.0000000000
     35785       288  PMPE      N             -24.8258809862       36.1176371489      -21.5476288808  MEMB      288             0.0000000000
     35786       288  PMPE      HN1           -23.8608474333       36.3997240363      -21.2682295877  MEMB      288             0.0000000000
     35787       288  PMPE      HN2           -24.8022598728       35.0917358980      -21.7438436677  MEMB      288             0.0000000000
     35788       288  PMPE      HN3           -25.1476657993       36.5769308413      -22.4155310315  MEMB      288             0.0000000000
     35789       288  PMPE      C12           -25.8035214222       36.4623064649      -20.4419909168  MEMB      288             0.0000000000
     35790       288  PMPE      H12A          -26.7670390979       36.0248174999      -20.7760719275  MEMB      288             0.0000000000
     35791       288  PMPE      H12B          -25.9144221827       37.5669939557      -20.4261196770  MEMB      288             0.0000000000
     35792       288  PMPE      C11           -25.3727273257       35.9067171522      -19.0679091929  MEMB      288             0.0000000000
     35793       288  PMPE      H11A          -26.1511260357       36.1199178128      -18.2931778519  MEMB      288             0.0000000000
     35794       288  PMPE      H11B          -24.4385003486       36.4206636289      -18.7346830087  MEMB      288             0.0000000000
     35795       288  PMPE      P             -24.1853812263       33.6995028772      -18.2094531858  MEMB      288             0.0000000000
     35796       288  PMPE      O13           -22.7917336189       34.0198708833      -18.5185967867  MEMB      288             0.0000000000
     35797       288  PMPE      O14           -24.6234317056       32.2894873534      -18.2646866926  MEMB      288             0.0000000000
     35798       288  PMPE      O11           -24.5559844912       34.3350194891      -16.8278630865  MEMB      288             0.0000000000
     35799       288  PMPE      O12           -25.1749284137       34.5045068059      -19.1870058526  MEMB      288             0.0000000000
     35800       288  PMPE      C1            -25.8850773468       34.1747588295      -16.3457880948  MEMB      288             0.0000000000
     35801       288  PMPE      HA            -26.5824986162       33.7215755777      -17.0844275100  MEMB      288             0.0000000000
     35802       288  PMPE      HB            -26.2779931967       35.1919041999      -16.1291501147  MEMB      288             0.0000000000
     35803       288  PMPE      C2            -25.9007405246       33.3999182421      -15.0088089462  MEMB      288             0.0000000000
     35804       288  PMPE      HS            -26.9446454933       33.4663424913      -14.6286850489  MEMB      288             0.0000000000
     35805       288  PMPE      O21           -24.9773785107       34.0476949741      -14.1247236053  MEMB      288             0.0000000000
     35806       288  PMPE      C21           -25.1981116634       35.2634411834      -13.6924565584  MEMB      288             0.0000000000
     35807       288  PMPE      O22           -26.2324887909       35.9003691394      -13.7414643674  MEMB      288             0.0000000000
     35808       288  PMPE      C22           -23.8723383969       35.7892157685      -13.1516868759  MEMB      288             0.0000000000
     35809       288  PMPE      H2R           -24.0262218972       36.8365392441      -12.8034001659  MEMB      288             0.0000000000
     35810       288  PMPE      H2S           -23.2118310299       35.7729979208      -14.0456024531  MEMB      288             0.0000000000
     35811       288  PMPE      C3            -25.5231584930       31.8731491782      -15.0635488871  MEMB      288             0.0000000000
     35812       288  PMPE      HX            -24.7547686544       31.7080377446      -15.8509987437  MEMB      288             0.0000000000
     35813       288  PMPE      HY            -26.4063466006       31.2530788961      -15.3311844201  MEMB      288             0.0000000000
     35814       288  PMPE      O31           -24.9433277045       31.4273056373      -13.8190580297  MEMB      288             0.0000000000
     35815       288  PMPE      C31           -25.7661522072       31.2394436344      -12.8218547491  MEMB      288             0.0000000000
     35816       288  PMPE      O32           -26.9843375544       31.2383586230      -12.8533846641  MEMB      288             0.0000000000
     35817       288  PMPE      C32           -24.9581457273       30.9712390534      -11.5568387091  MEMB      288             0.0000000000
     35818       288  PMPE      H2X           -24.1895534599       31.7605326584      -11.5493982035  MEMB      288             0.0000000000
     35819       288  PMPE      H2Y           -24.4486150259       29.9986322248      -11.5548674680  MEMB      288             0.0000000000
     35820       288  PMPE      C23           -23.2967901807       34.8798580660      -12.0421608727  MEMB      288             0.0000000000
     35821       288  PMPE      H3R           -22.2649046240       35.2176418458      -11.7638561334  MEMB      288             0.0000000000
     35822       288  PMPE      H3S           -23.2225723820       33.8036185434      -12.3491042724  MEMB      288             0.0000000000
     35823       288  PMPE      C24           -24.2188703141       34.8400080571      -10.8184738339  MEMB      288             0.0000000000
     35824       288  PMPE      H4R           -23.6805123708       34.1913954917      -10.0974912413  MEMB      288             0.0000000000
     35825       288  PMPE      H4S           -25.1755605892       34.3261638806      -11.0460942468  MEMB      288             0.0000000000
     35826       288  PMPE      C25           -24.5681050702       36.1867786243      -10.1876140830  MEMB      288             0.0000000000
     35827       288  PMPE      H5R           -25.3632218843       36.7501822294      -10.7480797620  MEMB      288             0.0000000000
     35828       288  PMPE      H5S           -23.6511965857       36.7996740722      -10.2153067892  MEMB      288             0.0000000000
     35829       288  PMPE      C26           -24.9662307201       36.0487804450       -8.7341335125  MEMB      288             0.0000000000
     35830       288  PMPE      H6R           -25.0365478462       37.0742767321       -8.3713731469  MEMB      288             0.0000000000
     35831       288  PMPE      H6S           -24.2714420341       35.5876372928       -8.0073254034  MEMB      288             0.0000000000
     35832       288  PMPE      C27           -26.2655618641       35.3656074033       -8.5934676014  MEMB      288             0.0000000000
     35833       288  PMPE      H7R           -26.3238438778       34.3750619900       -9.0709936692  MEMB      288             0.0000000000
     35834       288  PMPE      H7S           -27.0522648103       35.9312969018       -9.0626686192  MEMB      288             0.0000000000
     35835       288  PMPE      C28           -26.6315011822       35.2185694647       -7.1848166890  MEMB      288             0.0000000000
     35836       288  PMPE      H8R           -26.0200804357       34.5625408699       -6.6189902207  MEMB      288             0.0000000000
     35837       288  PMPE      H8S           -27.5731180600       34.8949202210       -7.2789629235  MEMB      288             0.0000000000
     35838       288  PMPE      C29           -26.9584018540       36.4051684147       -6.5848672652  MEMB      288             0.0000000000
     35839       288  PMPE      H9R           -27.3640750051       37.1250799797       -7.2493633409  MEMB      288             0.0000000000
     35840       288  PMPE      C217          -25.8485013334       36.7312699859       -6.0648789737  MEMB      288             0.0000000000
     35841       288  PMPE      H17R          -25.5618061672       37.6422635416       -6.4540006505  MEMB      288             0.0000000000
     35842       288  PMPE      H17S          -25.0427339777       36.1894594298       -5.7779422803  MEMB      288             0.0000000000
     35843       288  PMPE      C210          -27.1290290017       36.5421456384       -5.1374373867  MEMB      288             0.0000000000
     35844       288  PMPE      H10R          -28.0493215187       37.2850200625       -4.8448074272  MEMB      288             0.0000000000
     35845       288  PMPE      C211          -26.8821836058       35.4908994983       -4.0950142294  MEMB      288             0.0000000000
     35846       288  PMPE      H11R          -26.3460027580       34.6964497724       -4.3659772449  MEMB      288             0.0000000000
     35847       288  PMPE      H11S          -27.2366106963       34.4671766141       -4.4878462810  MEMB      288             0.0000000000
     35848       288  PMPE      C212          -27.5109051104       35.8524663110       -2.7668338915  MEMB      288             0.0000000000
     35849       288  PMPE      H12R          -28.4370358063       36.4606310098       -2.4675706021  MEMB      288             0.0000000000
     35850       288  PMPE      H12S          -27.0962868990       36.7971996564       -2.5362401143  MEMB      288             0.0000000000
     35851       288  PMPE      C213          -27.4143080002       34.6425963274       -1.8711365396  MEMB      288             0.0000000000
     35852       288  PMPE      H13R          -27.8404698332       33.8505957961       -2.1808354095  MEMB      288             0.0000000000
     35853       288  PMPE      H13S          -27.8821356823       34.9843782731       -0.8783195770  MEMB      288             0.0000000000
     35854       288  PMPE      C214          -26.2707456308       33.9574456360       -1.7077849083  MEMB      288             0.0000000000
     35855       288  PMPE      H14R          -25.4887137687       34.4421450886       -1.2551511735  MEMB      288             0.0000000000
     35856       288  PMPE      H14S          -25.7551464186       33.5663133736       -2.4997482116  MEMB      288             0.0000000000
     35857       288  PMPE      C215          -26.4671442716       33.0801884649       -0.6858084057  MEMB      288             0.0000000000
     35858       288  PMPE      H15R          -27.0605905080       32.3756454209       -0.2102520919  MEMB      288             0.0000000000
     35859       288  PMPE      H15S          -26.7544206608       33.9089303366        0.0907145385  MEMB      288             0.0000000000
     35860       288  PMPE      C216          -24.2757115177       32.1154303576       -0.6422778840  MEMB      288             0.0000000000
     35861       288  PMPE      H16R          -24.4144200299       31.5362885979       -1.2442461244  MEMB      288             0.0000000000
     35862       288  PMPE      H16S          -23.6733147820       33.1467762889       -0.3989319822  MEMB      288             0.0000000000
     35863       288  PMPE      H16T          -24.0971057249       31.2539224379        0.3904082508  MEMB      288             0.0000000000
     35864       288  PMPE      C33           -25.8400507898       31.0543041734      -10.2894598125  MEMB      288             0.0000000000
     35865       288  PMPE      H3X           -26.5699175021       30.2200816646      -10.3362085769  MEMB      288             0.0000000000
     35866       288  PMPE      H3Y           -26.4983384735       31.9562004988      -10.3139554648  MEMB      288             0.0000000000
     35867       288  PMPE      C34           -24.9743972720       30.9879534441       -8.9975190772  MEMB      288             0.0000000000
     35868       288  PMPE      H4X           -24.2927792582       31.8647847337       -8.9912944205  MEMB      288             0.0000000000
     35869       288  PMPE      H4Y           -24.3449044039       30.0614820552       -8.9845074177  MEMB      288             0.0000000000
     35870       288  PMPE      C35           -25.7671505950       31.1410192044       -7.6849979009  MEMB      288             0.0000000000
     35871       288  PMPE      H5X           -26.6159338795       30.4296986753       -7.7214982162  MEMB      288             0.0000000000
     35872       288  PMPE      H5Y           -26.2032594186       32.1549584200       -7.6089716348  MEMB      288             0.0000000000
     35873       288  PMPE      C36           -25.0382343135       30.8319426441       -6.3578923781  MEMB      288             0.0000000000
     35874       288  PMPE      H6X           -24.3078452574       30.0165435871       -6.5641949464  MEMB      288             0.0000000000
     35875       288  PMPE      H6Y           -25.8706606522       30.3723795257       -5.7690231685  MEMB      288             0.0000000000
     35876       288  PMPE      C37           -24.5729706881       32.0739234931       -5.5304729762  MEMB      288             0.0000000000
     35877       288  PMPE      H7X           -25.3407336869       32.3188068909       -4.7598833222  MEMB      288             0.0000000000
     35878       288  PMPE      H7Y           -24.5257313304       32.9898932426       -6.1560573659  MEMB      288             0.0000000000
     35879       288  PMPE      C38           -23.2225340580       31.9978627603       -4.8012772240  MEMB      288             0.0000000000
     35880       288  PMPE      H8X           -22.3982699971       32.0379309610       -5.5434372353  MEMB      288             0.0000000000
     35881       288  PMPE      H8Y           -23.1332720439       31.0574115830       -4.2006880711  MEMB      288             0.0000000000
     35882       288  PMPE      C39           -22.9941326239       33.1946514927       -3.8677458161  MEMB      288             0.0000000000
     35883       288  PMPE      H9X           -22.0603522843       32.9378959662       -3.3202251766  MEMB      288             0.0000000000
     35884       288  PMPE      H9Y           -23.8283863342       33.2459051227       -3.1294122878  MEMB      288             0.0000000000
     35885       288  PMPE      C310          -22.7304334002       34.5537640475       -4.5504912691  MEMB      288             0.0000000000
     35886       288  PMPE      H10X          -23.5408446305       34.8517177898       -5.2569337597  MEMB      288             0.0000000000
     35887       288  PMPE      H10Y          -21.7841664424       34.5460126996       -5.1144117657  MEMB      288             0.0000000000
     35888       288  PMPE      C311          -22.6695490066       35.6105119810       -3.4733683297  MEMB      288             0.0000000000
     35889       288  PMPE      H11X          -22.1418069485       35.3413270101       -2.5344170729  MEMB      288             0.0000000000
     35890       288  PMPE      H11Y          -23.7013159193       35.5700041247       -3.2719941026  MEMB      288             0.0000000000
     35891       288  PMPE      C312          -22.3410431813       37.0302969187       -3.8762050448  MEMB      288             0.0000000000
     35892       288  PMPE      H12X          -22.7505228554       37.4279590521       -4.7938243455  MEMB      288             0.0000000000
     35893       288  PMPE      H12Y          -21.5567169276       36.6807235277       -4.4798790653  MEMB      288             0.0000000000
     35894       288  PMPE      C313          -21.9520794250       38.0770133672       -2.7127132237  MEMB      288             0.0000000000
     35895       288  PMPE      H13X          -21.5822487877       39.0673442050       -3.0886631164  MEMB      288             0.0000000000
     35896       288  PMPE      H13Y          -21.2090898854       37.6650155195       -2.0766923430  MEMB      288             0.0000000000
     35897       288  PMPE      C314          -22.7396472694       38.5733578460       -1.6435650781  MEMB      288             0.0000000000
     35898       288  PMPE      H14X          -23.2989761669       38.3981698883       -2.5248343439  MEMB      288             0.0000000000
     35899       288  PMPE      H14Y          -22.9871302285       39.5925303448       -1.4904522987  MEMB      288             0.0000000000
     35900       288  PMPE      C315          -23.0240173622       37.7921263293       -0.4093424504  MEMB      288             0.0000000000
     35901       288  PMPE      H15X          -22.1626555813       37.5376644642        0.0812755730  MEMB      288             0.0000000000
     35902       288  PMPE      H15Y          -23.0520698468       36.6834170280       -0.6811702421  MEMB      288             0.0000000000
     35903       288  PMPE      C316          -24.1889829145       38.4723373234        0.4866208462  MEMB      288             0.0000000000
     35904       288  PMPE      H16X          -25.2253762090       38.5830741831       -0.0305846489  MEMB      288             0.0000000000
     35905       288  PMPE      H16Y          -24.0079398050       39.3861163788        0.8714567483  MEMB      288             0.0000000000
     35906       288  PMPE      H16Z          -24.4538746658       37.6963716374        1.2654868995  MEMB      288             0.0000000000
     35907       289  PYPG      C13           -38.9140787562       19.0206094373      -19.2554122293  MEMB      289             0.0000000000
     35908       289  PYPG      H13A          -38.1327285618       18.8270812574      -18.5017865574  MEMB      289             0.0000000000
     35909       289  PYPG      H13B          -38.6049854007       18.4453370617      -20.1551919266  MEMB      289             0.0000000000
     35910       289  PYPG      OC3           -38.8849483444       20.4236932111      -19.5805027104  MEMB      289             0.0000000000
     35911       289  PYPG      HO3           -39.6133499519       20.8401165871      -19.1024644342  MEMB      289             0.0000000000
     35912       289  PYPG      C12           -40.2738128442       18.5203536854      -18.6515089860  MEMB      289             0.0000000000
     35913       289  PYPG      H12A          -41.0403629470       18.6246024943      -19.4523076630  MEMB      289             0.0000000000
     35914       289  PYPG      OC2           -40.6592167028       19.3578135850      -17.5641276104  MEMB      289             0.0000000000
     35915       289  PYPG      HO2           -41.4013895874       18.9003418047      -17.1723388592  MEMB      289             0.0000000000
     35916       289  PYPG      C11           -40.3439959717       17.0360416253      -18.1381861117  MEMB      289             0.0000000000
     35917       289  PYPG      H11A          -41.3899593389       16.8698616149      -17.7616738200  MEMB      289             0.0000000000
     35918       289  PYPG      H11B          -39.7149716692       16.8309777510      -17.2501961633  MEMB      289             0.0000000000
     35919       289  PYPG      P             -38.6940969760       15.3231900367      -19.4029102838  MEMB      289             0.0000000000
     35920       289  PYPG      O13           -38.4359788516       15.2845069170      -20.8512340075  MEMB      289             0.0000000000
     35921       289  PYPG      O14           -38.7975473830       14.0333311871      -18.6933388115  MEMB      289             0.0000000000
     35922       289  PYPG      O11           -37.5678709269       16.1960377683      -18.6928173471  MEMB      289             0.0000000000
     35923       289  PYPG      O12           -40.0484367088       16.1087938877      -19.1706641532  MEMB      289             0.0000000000
     35924       289  PYPG      C1            -36.3955154232       15.4878648331      -18.2511802984  MEMB      289             0.0000000000
     35925       289  PYPG      HA            -35.5383710117       15.8039627898      -18.8756365638  MEMB      289             0.0000000000
     35926       289  PYPG      HB            -36.4147465363       14.3893014299      -18.4405409236  MEMB      289             0.0000000000
     35927       289  PYPG      C2            -36.2478743938       15.6840389262      -16.7178515311  MEMB      289             0.0000000000
     35928       289  PYPG      HS            -35.3241034560       15.0982607218      -16.3510880044  MEMB      289             0.0000000000
     35929       289  PYPG      O21           -37.3333325843       15.5132520339      -15.8904835047  MEMB      289             0.0000000000
     35930       289  PYPG      C21           -37.6449134272       14.2975165877      -15.7649665230  MEMB      289             0.0000000000
     35931       289  PYPG      O22           -37.1152177431       13.3517243053      -16.3077330903  MEMB      289             0.0000000000
     35932       289  PYPG      C22           -38.6605041749       14.2078858295      -14.6449275982  MEMB      289             0.0000000000
     35933       289  PYPG      H2R           -38.4458091303       13.2563098850      -14.1033208240  MEMB      289             0.0000000000
     35934       289  PYPG      H2S           -39.6481480420       14.2233020598      -15.1519400740  MEMB      289             0.0000000000
     35935       289  PYPG      C3            -35.9502377510       16.9317149922      -16.1603179572  MEMB      289             0.0000000000
     35936       289  PYPG      HX            -35.5243237822       17.2432285620      -16.9689036317  MEMB      289             0.0000000000
     35937       289  PYPG      HY            -35.2545138424       16.7507934607      -15.2989660329  MEMB      289             0.0000000000
     35938       289  PYPG      O31           -36.6929201868       18.1202930702      -16.2759298027  MEMB      289             0.0000000000
     35939       289  PYPG      C31           -36.9195469479       18.6998880121      -15.1171793923  MEMB      289             0.0000000000
     35940       289  PYPG      O32           -36.3835977232       18.3883289773      -14.0586102745  MEMB      289             0.0000000000
     35941       289  PYPG      C32           -37.8366965542       19.9101724240      -15.3270021332  MEMB      289             0.0000000000
     35942       289  PYPG      H2X           -37.2639261795       20.8470163302      -15.1508740592  MEMB      289             0.0000000000
     35943       289  PYPG      H2Y           -38.1948300254       19.9849831980      -16.3813736290  MEMB      289             0.0000000000
     35944       289  PYPG      C23           -38.6156514654       15.3972132979      -13.6628747623  MEMB      289             0.0000000000
     35945       289  PYPG      H3R           -39.0221098358       16.3056721576      -14.1669376923  MEMB      289             0.0000000000
     35946       289  PYPG      H3S           -37.5667083008       15.6115576420      -13.3467569116  MEMB      289             0.0000000000
     35947       289  PYPG      C24           -39.4578751551       15.1498506866      -12.4141105476  MEMB      289             0.0000000000
     35948       289  PYPG      H4R           -39.1469081251       14.1841304123      -11.9583322224  MEMB      289             0.0000000000
     35949       289  PYPG      H4S           -40.5273352882       15.0335756904      -12.6964910268  MEMB      289             0.0000000000
     35950       289  PYPG      C25           -39.2757609939       16.3178309161      -11.4296754016  MEMB      289             0.0000000000
     35951       289  PYPG      H5R           -39.3801952483       17.2765256075      -11.9906423338  MEMB      289             0.0000000000
     35952       289  PYPG      H5S           -38.2344626741       16.3009922526      -11.0508170923  MEMB      289             0.0000000000
     35953       289  PYPG      C26           -40.1362351976       16.2326432749      -10.1630801796  MEMB      289             0.0000000000
     35954       289  PYPG      H6R           -41.2053931396       16.3381050956      -10.4463488680  MEMB      289             0.0000000000
     35955       289  PYPG      H6S           -39.8886582822       17.0741092007       -9.4779390936  MEMB      289             0.0000000000
     35956       289  PYPG      C27           -39.9743643174       14.9042465413       -9.4071724546  MEMB      289             0.0000000000
     35957       289  PYPG      H7R           -38.9225636028       14.6661230613       -9.1266173106  MEMB      289             0.0000000000
     35958       289  PYPG      H7S           -40.2995118542       14.0878269868      -10.0898286916  MEMB      289             0.0000000000
     35959       289  PYPG      C28           -40.8037647570       14.8805131675       -8.1239701435  MEMB      289             0.0000000000
     35960       289  PYPG      H8R           -40.5282427313       15.7313753379       -7.4590957394  MEMB      289             0.0000000000
     35961       289  PYPG      H8S           -40.5096923911       13.9474474786       -7.6035400632  MEMB      289             0.0000000000
     35962       289  PYPG      C29           -42.2644490139       14.8687975292       -8.4597859855  MEMB      289             0.0000000000
     35963       289  PYPG      H9R           -42.5555037728       14.2146264280       -9.2988824182  MEMB      289             0.0000000000
     35964       289  PYPG      C210          -43.1366811466       15.7859914810       -8.0544411431  MEMB      289             0.0000000000
     35965       289  PYPG      H10R          -44.1508678384       15.6573396395       -8.3364608218  MEMB      289             0.0000000000
     35966       289  PYPG      C211          -42.9231615127       16.9969433016       -7.2167262604  MEMB      289             0.0000000000
     35967       289  PYPG      H11R          -43.5664946414       17.8190068399       -7.6043879735  MEMB      289             0.0000000000
     35968       289  PYPG      H11S          -41.8736185495       17.3589965133       -7.3239222234  MEMB      289             0.0000000000
     35969       289  PYPG      C212          -43.0740365857       16.7526402063       -5.7062961648  MEMB      289             0.0000000000
     35970       289  PYPG      H12R          -42.9005819582       17.7512664925       -5.2488655627  MEMB      289             0.0000000000
     35971       289  PYPG      H12S          -42.2160564871       16.1206292643       -5.3951574945  MEMB      289             0.0000000000
     35972       289  PYPG      C213          -44.3127704672       16.0196956665       -5.1512137063  MEMB      289             0.0000000000
     35973       289  PYPG      H13R          -44.4906429913       15.0465935777       -5.6521420538  MEMB      289             0.0000000000
     35974       289  PYPG      H13S          -45.2301036840       16.6300468800       -5.3398999306  MEMB      289             0.0000000000
     35975       289  PYPG      C214          -44.1047739514       15.5831459354       -3.6855629445  MEMB      289             0.0000000000
     35976       289  PYPG      H14R          -45.0198399032       15.0468673962       -3.3528325694  MEMB      289             0.0000000000
     35977       289  PYPG      H14S          -43.3201570699       14.8182070875       -3.5170846870  MEMB      289             0.0000000000
     35978       289  PYPG      C215          -43.7589803181       16.7470853005       -2.7750591720  MEMB      289             0.0000000000
     35979       289  PYPG      H15R          -42.8450049105       17.3112582123       -2.9881550728  MEMB      289             0.0000000000
     35980       289  PYPG      H15S          -43.7152746523       16.3237277104       -1.7326390590  MEMB      289             0.0000000000
     35981       289  PYPG      C216          -44.6912410680       17.8862756863       -2.9769235731  MEMB      289             0.0000000000
     35982       289  PYPG      H16R          -44.6751585883       18.6379635196       -2.1519467887  MEMB      289             0.0000000000
     35983       289  PYPG      H16S          -45.6577978062       17.4160883471       -3.1886897129  MEMB      289             0.0000000000
     35984       289  PYPG      H16T          -45.0745013181       18.2482383706       -3.8990805547  MEMB      289             0.0000000000
     35985       289  PYPG      C33           -38.9307132068       19.7786970024      -14.2922061222  MEMB      289             0.0000000000
     35986       289  PYPG      H3X           -39.1338717991       18.6873945726      -14.1665068314  MEMB      289             0.0000000000
     35987       289  PYPG      H3Y           -39.8144317028       20.3390384277      -14.6618737153  MEMB      289             0.0000000000
     35988       289  PYPG      C34           -38.5482618229       20.3590742449      -12.9258180439  MEMB      289             0.0000000000
     35989       289  PYPG      H4X           -38.3827209076       21.4452035117      -13.0181712818  MEMB      289             0.0000000000
     35990       289  PYPG      H4Y           -37.5871173740       19.9031256145      -12.5922388385  MEMB      289             0.0000000000
     35991       289  PYPG      C35           -39.6503122066       20.2326929600      -11.8644631912  MEMB      289             0.0000000000
     35992       289  PYPG      H5X           -40.0711211500       19.2104532190      -11.8490089634  MEMB      289             0.0000000000
     35993       289  PYPG      H5Y           -40.4648872991       20.9691384962      -12.0453004392  MEMB      289             0.0000000000
     35994       289  PYPG      C36           -39.1318525125       20.5219207517      -10.4708778263  MEMB      289             0.0000000000
     35995       289  PYPG      H6X           -38.9153504745       21.5604676112      -10.3776601980  MEMB      289             0.0000000000
     35996       289  PYPG      H6Y           -38.2728724826       19.9369916383      -10.2133168231  MEMB      289             0.0000000000
     35997       289  PYPG      C37           -40.0197381162       20.1509634788       -9.3576276034  MEMB      289             0.0000000000
     35998       289  PYPG      H7X           -40.8888876858       20.5320307514       -9.8817931311  MEMB      289             0.0000000000
     35999       289  PYPG      H7Y           -40.4755708396       19.2051490736       -9.2264654454  MEMB      289             0.0000000000
     36000       289  PYPG      C38           -39.5298965673       20.4260719099       -7.9306327704  MEMB      289             0.0000000000
     36001       289  PYPG      H8X           -40.3417684915       20.3144243277       -7.2800867230  MEMB      289             0.0000000000
     36002       289  PYPG      H8Y           -39.0112230420       21.3005319548       -7.5900444853  MEMB      289             0.0000000000
     36003       289  PYPG      C39           -38.6830455392       19.3914602015       -7.3257150015  MEMB      289             0.0000000000
     36004       289  PYPG      H9X           -37.8135437917       19.3474383955       -7.9901753020  MEMB      289             0.0000000000
     36005       289  PYPG      H9Y           -39.2097947864       18.4287242894       -7.1937380118  MEMB      289             0.0000000000
     36006       289  PYPG      C310          -38.1250713998       19.8015206066       -5.9798924022  MEMB      289             0.0000000000
     36007       289  PYPG      H10X          -37.6791924703       20.8147858521       -6.0427264340  MEMB      289             0.0000000000
     36008       289  PYPG      H10Y          -37.2982950222       19.0881234147       -5.8246169539  MEMB      289             0.0000000000
     36009       289  PYPG      C311          -39.1457661686       19.6622224307       -4.8585763568  MEMB      289             0.0000000000
     36010       289  PYPG      H11X          -39.6533759611       18.6682352373       -4.9134182715  MEMB      289             0.0000000000
     36011       289  PYPG      H11Y          -39.8981879917       20.4694179657       -5.0077086199  MEMB      289             0.0000000000
     36012       289  PYPG      C312          -38.5574547629       19.8183371166       -3.4546970158  MEMB      289             0.0000000000
     36013       289  PYPG      H12X          -37.7203589527       19.1225658308       -3.2365024877  MEMB      289             0.0000000000
     36014       289  PYPG      H12Y          -38.1074026447       20.8284215570       -3.3626033216  MEMB      289             0.0000000000
     36015       289  PYPG      C313          -39.6361256588       19.6374035260       -2.3735861279  MEMB      289             0.0000000000
     36016       289  PYPG      H13X          -39.5987142709       20.5667209468       -1.7988669419  MEMB      289             0.0000000000
     36017       289  PYPG      H13Y          -40.6462563672       19.5738409493       -2.8486902764  MEMB      289             0.0000000000
     36018       289  PYPG      C314          -39.3238036309       18.4953975467       -1.4050904750  MEMB      289             0.0000000000
     36019       289  PYPG      H14X          -38.3351651649       18.6329060615       -0.9243742001  MEMB      289             0.0000000000
     36020       289  PYPG      H14Y          -39.9273441817       18.4419810545       -0.4997794541  MEMB      289             0.0000000000
     36021       289  PYPG      C315          -39.2847942522       17.1906108384       -2.1762018035  MEMB      289             0.0000000000
     36022       289  PYPG      H15X          -40.2560336468       16.9501546783       -2.6612349040  MEMB      289             0.0000000000
     36023       289  PYPG      H15Y          -38.5345994879       17.3163824222       -2.9809035629  MEMB      289             0.0000000000
     36024       289  PYPG      C316          -38.8164721653       16.0730438882       -1.2826175144  MEMB      289             0.0000000000
     36025       289  PYPG      H16X          -37.8106553994       16.3420739527       -0.8925723371  MEMB      289             0.0000000000
     36026       289  PYPG      H16Y          -38.7254380955       15.1086431146       -1.8273812305  MEMB      289             0.0000000000
     36027       289  PYPG      H16Z          -39.5524585207       16.0212667741       -0.4502532931  MEMB      289             0.0000000000
     36028       290  OYPE      N              37.5728431379       24.5972955650      -21.1880749414  MEMB      290             0.0000000000
     36029       290  OYPE      HN1            36.5415156219       24.5972924355      -21.2660500465  MEMB      290             0.0000000000
     36030       290  OYPE      HN2            37.8699585825       25.3922823100      -20.5874463185  MEMB      290             0.0000000000
     36031       290  OYPE      HN3            37.9721380975       24.7752397585      -22.1166582205  MEMB      290             0.0000000000
     36032       290  OYPE      C12            38.1041829813       23.3760647173      -20.5100849202  MEMB      290             0.0000000000
     36033       290  OYPE      H12A           39.2002502297       23.5497818225      -20.4511666492  MEMB      290             0.0000000000
     36034       290  OYPE      H12B           37.8783421031       22.4270618347      -21.0467780903  MEMB      290             0.0000000000
     36035       290  OYPE      C11            37.6086954957       23.3604097865      -19.0728249308  MEMB      290             0.0000000000
     36036       290  OYPE      H11A           38.0128177695       24.2568868893      -18.5315999735  MEMB      290             0.0000000000
     36037       290  OYPE      H11B           38.1702315502       22.4984452375      -18.6868140809  MEMB      290             0.0000000000
     36038       290  OYPE      P              35.1432542757       24.0166564930      -18.2811648740  MEMB      290             0.0000000000
     36039       290  OYPE      O13            33.7925272976       23.5744112232      -18.7219199182  MEMB      290             0.0000000000
     36040       290  OYPE      O14            35.5752876858       25.3974654695      -18.5900370770  MEMB      290             0.0000000000
     36041       290  OYPE      O11            35.4545861530       23.5966452233      -16.7951561090  MEMB      290             0.0000000000
     36042       290  OYPE      O12            36.2067518571       23.0768289404      -18.9594233018  MEMB      290             0.0000000000
     36043       290  OYPE      C1             34.8448185987       24.3017249641      -15.7256332747  MEMB      290             0.0000000000
     36044       290  OYPE      HA             34.5342577325       23.5357565922      -14.9887175002  MEMB      290             0.0000000000
     36045       290  OYPE      HB             33.9104660695       24.8406430724      -16.0321802237  MEMB      290             0.0000000000
     36046       290  OYPE      C2             35.7930086688       25.2989402756      -14.9898321788  MEMB      290             0.0000000000
     36047       290  OYPE      HS             36.2279967591       26.0483751953      -15.6960986945  MEMB      290             0.0000000000
     36048       290  OYPE      O21            36.8542807915       24.5928586451      -14.2992645269  MEMB      290             0.0000000000
     36049       290  OYPE      C21            37.8861340199       25.3292489116      -13.8707867186  MEMB      290             0.0000000000
     36050       290  OYPE      O22            38.0433081415       26.5090013164      -14.1156758216  MEMB      290             0.0000000000
     36051       290  OYPE      C22            38.8422520073       24.4217692662      -13.0622659618  MEMB      290             0.0000000000
     36052       290  OYPE      H2R            39.7335212002       24.1860015589      -13.6750785659  MEMB      290             0.0000000000
     36053       290  OYPE      H2S            38.3241539799       23.4582638621      -12.9507195840  MEMB      290             0.0000000000
     36054       290  OYPE      C3             34.9149495612       26.0689015066      -13.9698639516  MEMB      290             0.0000000000
     36055       290  OYPE      HX             34.0461196119       26.5705432184      -14.4770937291  MEMB      290             0.0000000000
     36056       290  OYPE      HY             35.5541116122       26.8826628033      -13.5917506298  MEMB      290             0.0000000000
     36057       290  OYPE      O31            34.4426533875       25.1719596339      -12.9300119403  MEMB      290             0.0000000000
     36058       290  OYPE      C31            35.0289233682       25.2083320100      -11.7234216027  MEMB      290             0.0000000000
     36059       290  OYPE      O32            35.9224876549       25.9683438893      -11.3986752897  MEMB      290             0.0000000000
     36060       290  OYPE      C32            34.4076534953       24.1206299098      -10.7999310022  MEMB      290             0.0000000000
     36061       290  OYPE      H2X            33.3170849674       24.0667881398      -11.0175658775  MEMB      290             0.0000000000
     36062       290  OYPE      H2Y            34.8533749239       23.1289662134      -11.0185533189  MEMB      290             0.0000000000
     36063       290  OYPE      C23            39.1604760416       24.9876948504      -11.6534106209  MEMB      290             0.0000000000
     36064       290  OYPE      H3R            38.2062332570       25.2390802163      -11.1533489140  MEMB      290             0.0000000000
     36065       290  OYPE      H3S            39.6767114221       25.9610833847      -11.8053186341  MEMB      290             0.0000000000
     36066       290  OYPE      C24            40.0533624579       24.1180524243      -10.7397918953  MEMB      290             0.0000000000
     36067       290  OYPE      H4R            40.7935921487       23.6906681621      -11.4500127482  MEMB      290             0.0000000000
     36068       290  OYPE      H4S            39.5307377829       23.2763472203      -10.2245193302  MEMB      290             0.0000000000
     36069       290  OYPE      C25            40.7879627569       24.9662660427       -9.6903865691  MEMB      290             0.0000000000
     36070       290  OYPE      H5R            41.5775780413       25.5435910045      -10.2358647032  MEMB      290             0.0000000000
     36071       290  OYPE      H5S            41.3612378410       24.3329028344       -8.9821081155  MEMB      290             0.0000000000
     36072       290  OYPE      C26            39.8569713482       25.9747497116       -8.9823216547  MEMB      290             0.0000000000
     36073       290  OYPE      H6R            39.5421680350       26.7178586654       -9.7530951792  MEMB      290             0.0000000000
     36074       290  OYPE      H6S            40.4773837553       26.4915161184       -8.2224614131  MEMB      290             0.0000000000
     36075       290  OYPE      C27            38.6191288084       25.4962168392       -8.1844971920  MEMB      290             0.0000000000
     36076       290  OYPE      H7R            38.8794173550       24.6523470737       -7.5005273988  MEMB      290             0.0000000000
     36077       290  OYPE      H7S            37.7944572161       25.1392965379       -8.8276350224  MEMB      290             0.0000000000
     36078       290  OYPE      C28            38.0616728706       26.6510633936       -7.3088249890  MEMB      290             0.0000000000
     36079       290  OYPE      H8R            38.9276109187       27.1262623945       -6.8148862115  MEMB      290             0.0000000000
     36080       290  OYPE      H8S            37.4517213503       26.1902437878       -6.4951388426  MEMB      290             0.0000000000
     36081       290  OYPE      C29            37.3043663229       27.7719430132       -7.9889698862  MEMB      290             0.0000000000
     36082       290  OYPE      H9R            37.4524530262       27.9444188220       -9.0612067722  MEMB      290             0.0000000000
     36083       290  OYPE      C210           36.6307618386       28.7238631445       -7.3473799592  MEMB      290             0.0000000000
     36084       290  OYPE      H10R           36.0501959147       29.4791825903       -7.8813029882  MEMB      290             0.0000000000
     36085       290  OYPE      C211           36.5105160495       28.8427867628       -5.8853002205  MEMB      290             0.0000000000
     36086       290  OYPE      H11R           36.4245666052       29.8780562826       -5.5289102270  MEMB      290             0.0000000000
     36087       290  OYPE      H11S           37.1862109595       28.2319897857       -5.2878620826  MEMB      290             0.0000000000
     36088       290  OYPE      C212           35.3880153495       28.1424220661       -5.4976437693  MEMB      290             0.0000000000
     36089       290  OYPE      H12R           35.0525121060       27.2595364735       -6.1361422290  MEMB      290             0.0000000000
     36090       290  OYPE      H12S           34.4806346826       28.6198612688       -6.2174575965  MEMB      290             0.0000000000
     36091       290  OYPE      C213           34.9823658007       27.7783017994       -3.4010265399  MEMB      290             0.0000000000
     36092       290  OYPE      H13R           33.8282950237       27.1901196896       -3.2478288212  MEMB      290             0.0000000000
     36093       290  OYPE      H13S           34.3636391478       29.2188790561       -2.8074215263  MEMB      290             0.0000000000
     36094       290  OYPE      C214           35.7175720098       26.9495491054       -2.9226173916  MEMB      290             0.0000000000
     36095       290  OYPE      H14R           36.6806249498       27.2042559439       -3.2981915546  MEMB      290             0.0000000000
     36096       290  OYPE      H14S           35.2139976395       26.0653304680       -3.2066727283  MEMB      290             0.0000000000
     36097       290  OYPE      C215           35.7522297236       27.3265642053       -1.6967458866  MEMB      290             0.0000000000
     36098       290  OYPE      H15R           34.4659810212       27.4918609242       -1.4746569865  MEMB      290             0.0000000000
     36099       290  OYPE      H15S           36.8586954317       28.0631599062       -1.7786607276  MEMB      290             0.0000000000
     36100       290  OYPE      C216           35.9464962582       26.6249721684       -0.5692840259  MEMB      290             0.0000000000
     36101       290  OYPE      H16R           36.2213977890       27.2128383909        0.3658255703  MEMB      290             0.0000000000
     36102       290  OYPE      H16S           36.8884932278       26.1924799287       -0.9025257890  MEMB      290             0.0000000000
     36103       290  OYPE      H16T           35.1629318265       25.8881365934       -0.2420467530  MEMB      290             0.0000000000
     36104       290  OYPE      C33            34.6864785542       24.3850747372       -9.2893104218  MEMB      290             0.0000000000
     36105       290  OYPE      H3X            34.1358892641       25.2985627313       -8.9983678903  MEMB      290             0.0000000000
     36106       290  OYPE      H3Y            35.7493482404       24.5454139763       -9.0719786400  MEMB      290             0.0000000000
     36107       290  OYPE      C34            34.2271674049       23.3237711257       -8.2951736403  MEMB      290             0.0000000000
     36108       290  OYPE      H4X            34.1673279395       23.6409225203       -7.2523761465  MEMB      290             0.0000000000
     36109       290  OYPE      H4Y            33.1523275723       23.4996599418       -8.4937162503  MEMB      290             0.0000000000
     36110       290  OYPE      C35            34.8155107461       21.8685097723       -8.4891865185  MEMB      290             0.0000000000
     36111       290  OYPE      H5X            35.2286589314       21.8265315004       -9.5024105762  MEMB      290             0.0000000000
     36112       290  OYPE      H5Y            34.1154447601       21.0260308416       -8.5104943794  MEMB      290             0.0000000000
     36113       290  OYPE      C36            35.7639442639       21.3152415497       -7.4479841562  MEMB      290             0.0000000000
     36114       290  OYPE      H6X            35.3113195452       21.2162697760       -6.4393936115  MEMB      290             0.0000000000
     36115       290  OYPE      H6Y            36.1346613563       20.3021828899       -7.7400828836  MEMB      290             0.0000000000
     36116       290  OYPE      C37            36.9074910011       22.2752097306       -7.2974518976  MEMB      290             0.0000000000
     36117       290  OYPE      H7X            37.3234165499       22.4760519962       -8.3110044802  MEMB      290             0.0000000000
     36118       290  OYPE      H7Y            36.5276136985       23.2217338177       -6.8604284332  MEMB      290             0.0000000000
     36119       290  OYPE      C38            38.0398059310       21.7582680916       -6.4090144924  MEMB      290             0.0000000000
     36120       290  OYPE      H8X            38.4957185198       20.9073189612       -6.9523421520  MEMB      290             0.0000000000
     36121       290  OYPE      H8Y            38.8396796809       22.5076501134       -6.3451132165  MEMB      290             0.0000000000
     36122       290  OYPE      C39            37.6964412847       21.3686349252       -5.0043794066  MEMB      290             0.0000000000
     36123       290  OYPE      H9X            37.2521790612       20.3655359409       -4.9847731802  MEMB      290             0.0000000000
     36124       290  OYPE      C310           37.7640551208       22.1481635046       -3.8961899864  MEMB      290             0.0000000000
     36125       290  OYPE      H10X           37.3317575855       21.7734913656       -2.9512726672  MEMB      290             0.0000000000
     36126       290  OYPE      C311           38.2042030521       23.6030095797       -3.8995534879  MEMB      290             0.0000000000
     36127       290  OYPE      H11X           39.0414547242       23.8282769892       -4.5901202764  MEMB      290             0.0000000000
     36128       290  OYPE      H11Y           37.3603973046       24.1707884882       -4.3436277765  MEMB      290             0.0000000000
     36129       290  OYPE      C312           38.4999473817       24.3253103638       -2.5669456961  MEMB      290             0.0000000000
     36130       290  OYPE      H12X           37.6040399471       24.2289411835       -1.9237424119  MEMB      290             0.0000000000
     36131       290  OYPE      H12Y           38.5496836499       25.4156930270       -2.7779395654  MEMB      290             0.0000000000
     36132       290  OYPE      C313           39.8962119709       24.0520076383       -1.9610899784  MEMB      290             0.0000000000
     36133       290  OYPE      H13X           40.5966516391       23.6863443486       -2.7085310732  MEMB      290             0.0000000000
     36134       290  OYPE      H13Y           40.3484898403       24.9711207254       -1.5374260979  MEMB      290             0.0000000000
     36135       290  OYPE      C314           39.9796105721       23.0592735902       -0.9131840144  MEMB      290             0.0000000000
     36136       290  OYPE      H14X           40.8993789847       23.0177722298       -0.2652873878  MEMB      290             0.0000000000
     36137       290  OYPE      H14Y           39.7157107444       22.0246589136       -1.2246243694  MEMB      290             0.0000000000
     36138       290  OYPE      C315           39.0110265341       23.4600531186        0.0173961175  MEMB      290             0.0000000000
     36139       290  OYPE      H15X           37.9658288472       23.3935959898       -0.3235207684  MEMB      290             0.0000000000
     36140       290  OYPE      H15Y           39.0942171825       24.3050741438        0.5982401707  MEMB      290             0.0000000000
     36141       290  OYPE      C316           39.3847313466       22.8408555856        1.2273171633  MEMB      290             0.0000000000
     36142       290  OYPE      H16X           40.2589389752       22.7696717330        1.5123205028  MEMB      290             0.0000000000
     36143       290  OYPE      H16Y           39.7165096661       21.9420838623        0.6290801355  MEMB      290             0.0000000000
     36144       290  OYPE      C317           38.5330780639       22.7513286800        2.3390002707  MEMB      290             0.0000000000
     36145       290  OYPE      H17X           38.8379712933       23.6584116990        3.1392241883  MEMB      290             0.0000000000
     36146       290  OYPE      H17Y           39.0559012938       21.6594405888        2.8285722607  MEMB      290             0.0000000000
     36147       290  OYPE      C318           35.4416065554       21.6170667432        1.6433645916  MEMB      290             0.0000000000
     36148       290  OYPE      H18X           36.4664986226       23.1393023535        3.4477527224  MEMB      290             0.0000000000
     36149       290  OYPE      H18Y           36.1094785089       22.4921265072        1.6118932119  MEMB      290             0.0000000000
     36150       290  OYPE      H18Z           35.5006871627       20.7255010152        1.5485917916  MEMB      290             0.0000000000
     36151       291  PMPE      N             -15.2213874412      -40.2492471207      -20.3781966736  MEMB      291             0.0000000000
     36152       291  PMPE      HN1           -15.0511416058      -40.3277671252      -19.3430469723  MEMB      291             0.0000000000
     36153       291  PMPE      HN2           -15.2600478859      -41.1980081929      -20.7975609584  MEMB      291             0.0000000000
     36154       291  PMPE      HN3           -14.3945664635      -39.7623972170      -20.7851860326  MEMB      291             0.0000000000
     36155       291  PMPE      C12           -16.5363797212      -39.6233875413      -20.8110839559  MEMB      291             0.0000000000
     36156       291  PMPE      H12A          -16.5577806235      -39.7272468819      -21.9206591552  MEMB      291             0.0000000000
     36157       291  PMPE      H12B          -16.5178039072      -38.5496234231      -20.5583760260  MEMB      291             0.0000000000
     36158       291  PMPE      C11           -17.7600724213      -40.3089900751      -20.1648886646  MEMB      291             0.0000000000
     36159       291  PMPE      H11A          -17.6687434236      -41.3921833416      -20.4079943556  MEMB      291             0.0000000000
     36160       291  PMPE      H11B          -18.6966214091      -39.8776388353      -20.6262769402  MEMB      291             0.0000000000
     36161       291  PMPE      P             -18.7071283120      -39.0506912266      -18.0881984996  MEMB      291             0.0000000000
     36162       291  PMPE      O13           -18.9369702246      -38.0307139551      -19.1238803666  MEMB      291             0.0000000000
     36163       291  PMPE      O14           -18.0893432251      -38.5899694428      -16.8321931554  MEMB      291             0.0000000000
     36164       291  PMPE      O11           -19.9881144675      -39.9433917173      -17.8794540501  MEMB      291             0.0000000000
     36165       291  PMPE      O12           -17.7304889851      -40.1501034718      -18.7419904092  MEMB      291             0.0000000000
     36166       291  PMPE      C1            -19.9707999715      -41.1692338187      -17.1597898502  MEMB      291             0.0000000000
     36167       291  PMPE      HA            -19.3975375324      -41.0892676799      -16.2148199329  MEMB      291             0.0000000000
     36168       291  PMPE      HB            -19.6761004908      -42.0363544957      -17.7603193733  MEMB      291             0.0000000000
     36169       291  PMPE      C2            -21.3141624812      -41.6373160555      -16.8051400122  MEMB      291             0.0000000000
     36170       291  PMPE      HS            -21.9404449010      -41.8647086127      -17.7040435477  MEMB      291             0.0000000000
     36171       291  PMPE      O21           -21.8597732785      -40.5516508267      -16.0265784590  MEMB      291             0.0000000000
     36172       291  PMPE      C21           -22.4759883664      -39.6232314573      -16.6652412292  MEMB      291             0.0000000000
     36173       291  PMPE      O22           -22.3281967787      -39.1683379351      -17.7309459515  MEMB      291             0.0000000000
     36174       291  PMPE      C22           -23.2731060132      -38.7910666551      -16.0178201461  MEMB      291             0.0000000000
     36175       291  PMPE      H2R           -24.1396630058      -39.3699132301      -15.7496401348  MEMB      291             0.0000000000
     36176       291  PMPE      H2S           -24.1988754022      -38.3641274800      -16.4741008507  MEMB      291             0.0000000000
     36177       291  PMPE      C3            -21.2547281692      -43.0681779022      -15.9991383211  MEMB      291             0.0000000000
     36178       291  PMPE      HX            -21.1505328600      -43.7994488724      -16.8033556141  MEMB      291             0.0000000000
     36179       291  PMPE      HY            -22.1311766283      -43.5581515471      -15.5471419683  MEMB      291             0.0000000000
     36180       291  PMPE      O31           -20.3440775262      -43.1084126760      -14.9162798311  MEMB      291             0.0000000000
     36181       291  PMPE      C31           -20.6786658749      -42.8622078495      -13.6513488587  MEMB      291             0.0000000000
     36182       291  PMPE      O32           -21.7309668968      -42.7414557283      -13.0910142133  MEMB      291             0.0000000000
     36183       291  PMPE      C32           -19.4358637289      -42.8916223739      -12.8868665448  MEMB      291             0.0000000000
     36184       291  PMPE      H2X           -18.8394450355      -42.0889678632      -13.3099332190  MEMB      291             0.0000000000
     36185       291  PMPE      H2Y           -18.8873554531      -43.7726752984      -13.1966152450  MEMB      291             0.0000000000
     36186       291  PMPE      C23           -22.2493989893      -37.9652958727      -15.1281919657  MEMB      291             0.0000000000
     36187       291  PMPE      H3R           -22.3967696392      -37.3420441386      -14.2155885519  MEMB      291             0.0000000000
     36188       291  PMPE      H3S           -22.0622621402      -37.2707846665      -15.9335766388  MEMB      291             0.0000000000
     36189       291  PMPE      C24           -20.9779075793      -38.3406275612      -14.5391543148  MEMB      291             0.0000000000
     36190       291  PMPE      H4R           -20.5268409975      -38.5868509896      -15.4594892476  MEMB      291             0.0000000000
     36191       291  PMPE      H4S           -20.8872424126      -39.1660815952      -13.9192812481  MEMB      291             0.0000000000
     36192       291  PMPE      C25           -20.3415586825      -37.4640946001      -13.4948372849  MEMB      291             0.0000000000
     36193       291  PMPE      H5R           -21.0183284948      -37.4414094949      -12.6418123654  MEMB      291             0.0000000000
     36194       291  PMPE      H5S           -20.1665074012      -36.4680844328      -13.8237607724  MEMB      291             0.0000000000
     36195       291  PMPE      C26           -19.0604201278      -38.0083225851      -12.9385866347  MEMB      291             0.0000000000
     36196       291  PMPE      H6R           -18.3660757782      -38.2923423666      -13.7535204726  MEMB      291             0.0000000000
     36197       291  PMPE      H6S           -19.3292405047      -38.9269425325      -12.3808027699  MEMB      291             0.0000000000
     36198       291  PMPE      C27           -18.3788375046      -37.0290234736      -11.9992397513  MEMB      291             0.0000000000
     36199       291  PMPE      H7R           -18.1786139531      -36.0767455974      -12.4723506361  MEMB      291             0.0000000000
     36200       291  PMPE      H7S           -17.4327184609      -37.5054035069      -11.6920692367  MEMB      291             0.0000000000
     36201       291  PMPE      C28           -19.1753622588      -36.6998775688      -10.8194865017  MEMB      291             0.0000000000
     36202       291  PMPE      H8R           -20.1509983505      -36.2382055273      -11.0685052434  MEMB      291             0.0000000000
     36203       291  PMPE      H8S           -18.6572436675      -35.9303244645      -10.1828976676  MEMB      291             0.0000000000
     36204       291  PMPE      C29           -19.2530301572      -37.9743407582      -10.1431121844  MEMB      291             0.0000000000
     36205       291  PMPE      H9R           -19.9497060310      -38.8058260380      -10.2828501886  MEMB      291             0.0000000000
     36206       291  PMPE      C217          -19.8874097640      -37.2484909137       -9.2882008476  MEMB      291             0.0000000000
     36207       291  PMPE      H17R          -20.7575936831      -37.5191269852       -8.9121617260  MEMB      291             0.0000000000
     36208       291  PMPE      H17S          -19.9807363627      -36.2366650303       -8.8040134525  MEMB      291             0.0000000000
     36209       291  PMPE      C210          -18.3539589548      -38.1258208753       -9.0022408980  MEMB      291             0.0000000000
     36210       291  PMPE      H10R          -18.2954808528      -39.1570818435       -8.5162559507  MEMB      291             0.0000000000
     36211       291  PMPE      C211          -17.1796854734      -37.1471177347       -8.2823008583  MEMB      291             0.0000000000
     36212       291  PMPE      H11R          -17.6135692852      -36.1055587263       -8.2635790252  MEMB      291             0.0000000000
     36213       291  PMPE      H11S          -16.6516721497      -37.3864474568       -9.0908555925  MEMB      291             0.0000000000
     36214       291  PMPE      C212          -16.4077810955      -37.3804131610       -6.7995406614  MEMB      291             0.0000000000
     36215       291  PMPE      H12R          -16.0140534709      -36.6417914588       -6.4404479568  MEMB      291             0.0000000000
     36216       291  PMPE      H12S          -16.1327094041      -38.3600942908       -6.4305064336  MEMB      291             0.0000000000
     36217       291  PMPE      C213          -17.3160078687      -36.7801465325       -5.4175295778  MEMB      291             0.0000000000
     36218       291  PMPE      H13R          -18.3456701528      -36.6874226148       -5.4460721746  MEMB      291             0.0000000000
     36219       291  PMPE      H13S          -17.8230387750      -35.8772428428       -5.7723204296  MEMB      291             0.0000000000
     36220       291  PMPE      C214          -17.1949143807      -37.4902888828       -4.0928847103  MEMB      291             0.0000000000
     36221       291  PMPE      H14R          -16.5808358730      -36.9217625191       -4.0042863441  MEMB      291             0.0000000000
     36222       291  PMPE      H14S          -16.5419306123      -38.2512907941       -4.3745930209  MEMB      291             0.0000000000
     36223       291  PMPE      C215          -18.1505026275      -37.8366698286       -2.7892605017  MEMB      291             0.0000000000
     36224       291  PMPE      H15R          -17.5750285687      -38.3012628130       -2.1429063903  MEMB      291             0.0000000000
     36225       291  PMPE      H15S          -18.8297086677      -38.7063602897       -2.9321564797  MEMB      291             0.0000000000
     36226       291  PMPE      C216          -18.8382765131      -36.9328936930       -1.7393152129  MEMB      291             0.0000000000
     36227       291  PMPE      H16R          -18.5606026814      -35.8956780401       -1.8641903963  MEMB      291             0.0000000000
     36228       291  PMPE      H16S          -19.4725404332      -36.6632007653       -2.3624038819  MEMB      291             0.0000000000
     36229       291  PMPE      H16T          -19.9389868250      -37.0654898101       -1.6724261481  MEMB      291             0.0000000000
     36230       291  PMPE      C33           -19.6373802629      -42.5904849190      -11.3898191735  MEMB      291             0.0000000000
     36231       291  PMPE      H3X           -20.1343784567      -43.4146061176      -10.8364088200  MEMB      291             0.0000000000
     36232       291  PMPE      H3Y           -20.2751161346      -41.6735595532      -11.2987090585  MEMB      291             0.0000000000
     36233       291  PMPE      C34           -18.2742187889      -42.3145268431      -10.7596576387  MEMB      291             0.0000000000
     36234       291  PMPE      H4X           -17.7583255329      -41.6105981362      -11.4642213334  MEMB      291             0.0000000000
     36235       291  PMPE      H4Y           -17.7267586776      -43.2825677517      -10.7063259709  MEMB      291             0.0000000000
     36236       291  PMPE      C35           -18.3565969958      -41.5867816518       -9.4052485902  MEMB      291             0.0000000000
     36237       291  PMPE      H5X           -18.7208235021      -40.5998422333       -9.7545364621  MEMB      291             0.0000000000
     36238       291  PMPE      H5Y           -17.3454549970      -41.4736432411       -8.9548598643  MEMB      291             0.0000000000
     36239       291  PMPE      C36           -19.3206912690      -42.2043035427       -8.3612602996  MEMB      291             0.0000000000
     36240       291  PMPE      H6X           -19.0219820632      -43.2747614799       -8.3346285773  MEMB      291             0.0000000000
     36241       291  PMPE      H6Y           -20.3602991165      -42.0925984090       -8.7552882197  MEMB      291             0.0000000000
     36242       291  PMPE      C37           -19.2539271251      -41.7068772403       -6.8986864330  MEMB      291             0.0000000000
     36243       291  PMPE      H7X           -19.9874099168      -42.0819346057       -6.1725864918  MEMB      291             0.0000000000
     36244       291  PMPE      H7Y           -19.6376818217      -40.7805152147       -6.7398272332  MEMB      291             0.0000000000
     36245       291  PMPE      C38           -17.8896860461      -41.5566900660       -6.2690004267  MEMB      291             0.0000000000
     36246       291  PMPE      H8X           -17.2334025812      -40.8492640266       -6.8274811032  MEMB      291             0.0000000000
     36247       291  PMPE      H8Y           -17.4563621502      -42.5355445021       -6.2951327421  MEMB      291             0.0000000000
     36248       291  PMPE      C39           -18.0593130640      -41.2468232813       -4.8043637526  MEMB      291             0.0000000000
     36249       291  PMPE      H9X           -18.9856093904      -41.4170086751       -4.2741074977  MEMB      291             0.0000000000
     36250       291  PMPE      H9Y           -18.0305121565      -40.3450295835       -4.9239595021  MEMB      291             0.0000000000
     36251       291  PMPE      C310          -16.9775111585      -40.9281047753       -3.9224437344  MEMB      291             0.0000000000
     36252       291  PMPE      H10X          -17.1534600042      -40.4350516294       -2.9401033929  MEMB      291             0.0000000000
     36253       291  PMPE      H10Y          -16.0717495288      -40.4788057902       -4.4071119784  MEMB      291             0.0000000000
     36254       291  PMPE      C311          -16.8518631660      -42.2545733980       -3.6363106428  MEMB      291             0.0000000000
     36255       291  PMPE      H11X          -16.3980779213      -42.1535933747       -2.5856002700  MEMB      291             0.0000000000
     36256       291  PMPE      H11Y          -15.9807023043      -42.5014717640       -4.4578748846  MEMB      291             0.0000000000
     36257       291  PMPE      C312          -18.0147488740      -43.4639973540       -3.4504249707  MEMB      291             0.0000000000
     36258       291  PMPE      H12X          -17.5940782053      -44.8865939454       -4.0046574106  MEMB      291             0.0000000000
     36259       291  PMPE      H12Y          -18.6544078192      -43.4399237574       -4.1154880341  MEMB      291             0.0000000000
     36260       291  PMPE      C313          -18.5155766809      -43.0972994990       -2.0364109848  MEMB      291             0.0000000000
     36261       291  PMPE      H13X          -19.0656100164      -43.9922460644       -1.8059679248  MEMB      291             0.0000000000
     36262       291  PMPE      H13Y          -19.0020906456      -42.2146124760       -2.3596297996  MEMB      291             0.0000000000
     36263       291  PMPE      C314          -17.7265217822      -42.6418971412       -0.8529677084  MEMB      291             0.0000000000
     36264       291  PMPE      H14X          -16.7588280602      -42.2983495701       -0.8281618048  MEMB      291             0.0000000000
     36265       291  PMPE      H14Y          -17.5172528470      -43.7133961927       -0.8437286395  MEMB      291             0.0000000000
     36266       291  PMPE      C315          -18.5299095558      -42.1077866183        0.2396340832  MEMB      291             0.0000000000
     36267       291  PMPE      H15X          -18.1381330780      -42.1354653600        1.1175364680  MEMB      291             0.0000000000
     36268       291  PMPE      H15Y          -19.3149869215      -42.7925372457        0.3045018567  MEMB      291             0.0000000000
     36269       291  PMPE      C316          -19.1327692053      -40.9702421864        0.1848630130  MEMB      291             0.0000000000
     36270       291  PMPE      H16X          -19.9721166002      -41.3449883187       -0.4277805143  MEMB      291             0.0000000000
     36271       291  PMPE      H16Y          -18.2658078988      -40.5205406528       -0.3088544944  MEMB      291             0.0000000000
     36272       291  PMPE      H16Z          -19.4236568652      -40.6603312519        1.2050851955  MEMB      291             0.0000000000
     36273       292  QMPE      N              23.9228740007      -33.4635744343      -17.1649873523  MEMB      292             0.0000000000
     36274       292  QMPE      HN1            22.9903547667      -33.7816139059      -17.5154920040  MEMB      292             0.0000000000
     36275       292  QMPE      HN2            24.3301666368      -34.1473224544      -16.4937366981  MEMB      292             0.0000000000
     36276       292  QMPE      HN3            23.8486535881      -32.5815767226      -16.6128185095  MEMB      292             0.0000000000
     36277       292  QMPE      C12            24.7206617120      -33.3516865862      -18.4225459449  MEMB      292             0.0000000000
     36278       292  QMPE      H12A           25.5876412941      -32.6931788660      -18.2058671693  MEMB      292             0.0000000000
     36279       292  QMPE      H12B           24.1097361088      -32.9256565665      -19.2526145741  MEMB      292             0.0000000000
     36280       292  QMPE      C11            25.1590877376      -34.7778477326      -18.8122330632  MEMB      292             0.0000000000
     36281       292  QMPE      H11A           25.7686061681      -35.1936985050      -17.9869647748  MEMB      292             0.0000000000
     36282       292  QMPE      H11B           25.7948748013      -34.7395840907      -19.7223731625  MEMB      292             0.0000000000
     36283       292  QMPE      P              24.4904887877      -37.1468837094      -19.6094520605  MEMB      292             0.0000000000
     36284       292  QMPE      O13            25.7816731099      -37.6172512266      -19.0685089513  MEMB      292             0.0000000000
     36285       292  QMPE      O14            24.2484829076      -37.1761489414      -21.0720656313  MEMB      292             0.0000000000
     36286       292  QMPE      O11            23.3369160788      -37.9364528581      -18.9068066844  MEMB      292             0.0000000000
     36287       292  QMPE      O12            24.0785790843      -35.6828658495      -19.0288207115  MEMB      292             0.0000000000
     36288       292  QMPE      C1             23.0485434844      -39.2725848497      -19.2841691314  MEMB      292             0.0000000000
     36289       292  QMPE      HA             23.9788599370      -39.7743889842      -19.6707464879  MEMB      292             0.0000000000
     36290       292  QMPE      HB             22.2867665635      -39.3047389074      -20.0787939365  MEMB      292             0.0000000000
     36291       292  QMPE      C2             22.6150297825      -40.0006500219      -18.0287020516  MEMB      292             0.0000000000
     36292       292  QMPE      HS             22.1155983268      -40.9713058557      -18.1212222913  MEMB      292             0.0000000000
     36293       292  QMPE      O21            21.8131140225      -39.3041336050      -17.0671922855  MEMB      292             0.0000000000
     36294       292  QMPE      C21            20.6171424602      -38.9771676961      -17.4386684107  MEMB      292             0.0000000000
     36295       292  QMPE      O22            20.0572482257      -39.2988289838      -18.4669090437  MEMB      292             0.0000000000
     36296       292  QMPE      C22            20.0486063151      -38.0148285911      -16.4063680905  MEMB      292             0.0000000000
     36297       292  QMPE      H2R            19.5994003958      -37.1716737918      -16.9456979561  MEMB      292             0.0000000000
     36298       292  QMPE      H2S            20.8740692101      -37.6809369650      -15.7409416703  MEMB      292             0.0000000000
     36299       292  QMPE      C3             23.9488536718      -40.3119172109      -17.4388670354  MEMB      292             0.0000000000
     36300       292  QMPE      HX             24.5439312578      -41.1903076355      -17.7846467676  MEMB      292             0.0000000000
     36301       292  QMPE      HY             23.3037451571      -40.7707822909      -16.7990116698  MEMB      292             0.0000000000
     36302       292  QMPE      O31            24.6348123018      -39.2299691403      -16.7918355627  MEMB      292             0.0000000000
     36303       292  QMPE      C31            24.6299550404      -38.7016206525      -15.5680635011  MEMB      292             0.0000000000
     36304       292  QMPE      O32            24.2699306524      -39.0903613372      -14.4849039983  MEMB      292             0.0000000000
     36305       292  QMPE      C32            25.1316726759      -37.3555283554      -15.5728739474  MEMB      292             0.0000000000
     36306       292  QMPE      H2X            25.9797298101      -37.2787819191      -14.8641934054  MEMB      292             0.0000000000
     36307       292  QMPE      H2Y            25.4076685544      -37.1105989985      -16.6036747559  MEMB      292             0.0000000000
     36308       292  QMPE      C23            18.9266573283      -38.6467632610      -15.5860615594  MEMB      292             0.0000000000
     36309       292  QMPE      H3R            19.2986224682      -39.6351764554      -15.2418843371  MEMB      292             0.0000000000
     36310       292  QMPE      H3S            18.0168549110      -38.8061933530      -16.2164764780  MEMB      292             0.0000000000
     36311       292  QMPE      C24            18.5973492805      -37.8105263711      -14.3517059932  MEMB      292             0.0000000000
     36312       292  QMPE      H4R            17.5976746720      -38.1991126493      -14.0703508676  MEMB      292             0.0000000000
     36313       292  QMPE      H4S            18.4948669125      -36.7296563109      -14.6092879798  MEMB      292             0.0000000000
     36314       292  QMPE      C25            19.5774875811      -38.0379233295      -13.1762795284  MEMB      292             0.0000000000
     36315       292  QMPE      H5R            19.7771665355      -37.0546431668      -12.6907345413  MEMB      292             0.0000000000
     36316       292  QMPE      H5S            20.5468329938      -38.4895132227      -13.4917441285  MEMB      292             0.0000000000
     36317       292  QMPE      C26            19.0365515367      -38.9418355201      -12.0548386053  MEMB      292             0.0000000000
     36318       292  QMPE      H6R            18.7754094850      -39.9630067703      -12.4038762558  MEMB      292             0.0000000000
     36319       292  QMPE      H6S            18.1139275072      -38.4809655194      -11.6590451373  MEMB      292             0.0000000000
     36320       292  QMPE      C27            20.0612879537      -39.1574534740      -10.9343182013  MEMB      292             0.0000000000
     36321       292  QMPE      H7R            20.6191085758      -38.2264481811      -10.7031882441  MEMB      292             0.0000000000
     36322       292  QMPE      H7S            20.7619081977      -39.9338102380      -11.3195468759  MEMB      292             0.0000000000
     36323       292  QMPE      C28            19.4301959264      -39.5176085137       -9.5806686111  MEMB      292             0.0000000000
     36324       292  QMPE      H8R            18.7684239237      -40.4075115559       -9.6845138091  MEMB      292             0.0000000000
     36325       292  QMPE      H8S            18.8077289095      -38.6434785050       -9.3209285118  MEMB      292             0.0000000000
     36326       292  QMPE      C29            20.4917453133      -39.5840690957       -8.4673609826  MEMB      292             0.0000000000
     36327       292  QMPE      H9R            21.1952326386      -38.7609474264       -8.3055763986  MEMB      292             0.0000000000
     36328       292  QMPE      C217           21.0574660065      -40.9238272721       -8.3693327502  MEMB      292             0.0000000000
     36329       292  QMPE      H17R           20.7141592922      -41.5092790485       -9.1337025212  MEMB      292             0.0000000000
     36330       292  QMPE      H17S           21.9689177905      -41.0239071888       -8.0130041161  MEMB      292             0.0000000000
     36331       292  QMPE      C210           20.3920379042      -40.4315512272       -7.2031690469  MEMB      292             0.0000000000
     36332       292  QMPE      H10R           21.1175775317      -40.1394854564       -6.4217546300  MEMB      292             0.0000000000
     36333       292  QMPE      C211           19.1945567898      -41.2357271172       -6.8701603876  MEMB      292             0.0000000000
     36334       292  QMPE      H11R           18.6410820941      -41.4726994007       -7.7800449567  MEMB      292             0.0000000000
     36335       292  QMPE      H11S           19.3815185507      -42.2226846819       -6.4555213992  MEMB      292             0.0000000000
     36336       292  QMPE      C212           18.3581937863      -40.4533919407       -5.8930576408  MEMB      292             0.0000000000
     36337       292  QMPE      H12R           17.4301108164      -40.9912833147       -5.6798915206  MEMB      292             0.0000000000
     36338       292  QMPE      H12S           18.0528191860      -39.4535465840       -6.2213074538  MEMB      292             0.0000000000
     36339       292  QMPE      C213           19.0187531502      -40.1837909535       -4.6179650052  MEMB      292             0.0000000000
     36340       292  QMPE      H13R           18.4144610931      -39.4546385619       -4.0513871961  MEMB      292             0.0000000000
     36341       292  QMPE      H13S           19.9302598399      -39.5981544551       -4.7004674972  MEMB      292             0.0000000000
     36342       292  QMPE      C214           19.1621543911      -41.4029017385       -3.7669295071  MEMB      292             0.0000000000
     36343       292  QMPE      H14R           19.0052896932      -40.9975829270       -2.7995766296  MEMB      292             0.0000000000
     36344       292  QMPE      H14S           20.1169909755      -41.8112462147       -3.8019854305  MEMB      292             0.0000000000
     36345       292  QMPE      C215           18.0759597195      -42.3282130391       -3.4976345197  MEMB      292             0.0000000000
     36346       292  QMPE      H15R           18.1316918211      -42.9777821843       -4.3676391615  MEMB      292             0.0000000000
     36347       292  QMPE      H15S           17.1937492001      -41.6731487197       -3.4851475179  MEMB      292             0.0000000000
     36348       292  QMPE      C216           18.0901352472      -43.0988577037       -2.1949293124  MEMB      292             0.0000000000
     36349       292  QMPE      H16R           17.2218851248      -43.7051061094       -2.3435005537  MEMB      292             0.0000000000
     36350       292  QMPE      H16S           17.9434405560      -42.4359650879       -1.3118830682  MEMB      292             0.0000000000
     36351       292  QMPE      H16T           18.9869882802      -43.7445811640       -2.1163144069  MEMB      292             0.0000000000
     36352       292  QMPE      C33            23.9478405010      -36.5138172397      -15.1196253141  MEMB      292             0.0000000000
     36353       292  QMPE      H3X            22.9925162653      -36.8763450422      -15.5714896554  MEMB      292             0.0000000000
     36354       292  QMPE      H3Y            24.1363977123      -35.5202899927      -15.5484077341  MEMB      292             0.0000000000
     36355       292  QMPE      C34            23.8403348425      -36.3352552601      -13.5941401824  MEMB      292             0.0000000000
     36356       292  QMPE      H4X            24.8239137623      -36.0070935630      -13.1982361509  MEMB      292             0.0000000000
     36357       292  QMPE      H4Y            23.5380547007      -37.2557000399      -13.0510721828  MEMB      292             0.0000000000
     36358       292  QMPE      C35            22.8175950048      -35.2558556440      -13.2666615327  MEMB      292             0.0000000000
     36359       292  QMPE      H5X            22.0792950720      -35.2933151305      -14.1043455644  MEMB      292             0.0000000000
     36360       292  QMPE      H5Y            23.3666373342      -34.3048541816      -13.2921324387  MEMB      292             0.0000000000
     36361       292  QMPE      C36            22.1934663989      -35.2535819210      -11.8530929932  MEMB      292             0.0000000000
     36362       292  QMPE      H6X            21.6533327283      -36.2195357128      -11.7507375296  MEMB      292             0.0000000000
     36363       292  QMPE      H6Y            21.4833345797      -34.3969359044      -11.7518032409  MEMB      292             0.0000000000
     36364       292  QMPE      C37            23.1877575293      -35.0816193291      -10.6767378156  MEMB      292             0.0000000000
     36365       292  QMPE      H7X            24.1106664600      -35.6207280835      -10.9496412672  MEMB      292             0.0000000000
     36366       292  QMPE      H7Y            23.5391238422      -34.0348238567      -10.5400536772  MEMB      292             0.0000000000
     36367       292  QMPE      C38            22.6858433841      -35.6459557518       -9.3229229867  MEMB      292             0.0000000000
     36368       292  QMPE      H8X            22.2413251218      -36.6422261665       -9.4688533759  MEMB      292             0.0000000000
     36369       292  QMPE      H8Y            23.5835327795      -35.7662108964       -8.6726090619  MEMB      292             0.0000000000
     36370       292  QMPE      C39            21.5493896036      -34.8279279141       -8.6986852284  MEMB      292             0.0000000000
     36371       292  QMPE      H9X            20.7599590081      -34.7236743833       -9.4738801323  MEMB      292             0.0000000000
     36372       292  QMPE      H9Y            22.0416573606      -33.8823678598       -8.5136672632  MEMB      292             0.0000000000
     36373       292  QMPE      C310           20.8705599187      -35.3723966883       -7.4346567656  MEMB      292             0.0000000000
     36374       292  QMPE      H10X           20.2207745997      -36.1976170312       -7.7607527952  MEMB      292             0.0000000000
     36375       292  QMPE      H10Y           20.2099466959      -34.6277466594       -6.9252067908  MEMB      292             0.0000000000
     36376       292  QMPE      C311           21.8491584729      -35.9426392741       -6.4331986036  MEMB      292             0.0000000000
     36377       292  QMPE      H11X           22.6405144969      -35.1736454795       -6.3487015861  MEMB      292             0.0000000000
     36378       292  QMPE      H11Y           22.3017650209      -36.8723370862       -6.8641770308  MEMB      292             0.0000000000
     36379       292  QMPE      C312           21.1738016046      -36.1293731837       -5.0894280084  MEMB      292             0.0000000000
     36380       292  QMPE      H12X           21.8137102746      -36.7749238096       -4.5088678574  MEMB      292             0.0000000000
     36381       292  QMPE      H12Y           20.1745830506      -36.6067508131       -5.1981786072  MEMB      292             0.0000000000
     36382       292  QMPE      C313           21.0326432864      -34.8517824670       -4.2730975865  MEMB      292             0.0000000000
     36383       292  QMPE      H13X           21.9096212653      -34.2021681934       -4.2654769769  MEMB      292             0.0000000000
     36384       292  QMPE      H13Y           20.1011933450      -34.3098135297       -4.5262783286  MEMB      292             0.0000000000
     36385       292  QMPE      C314           20.8781801418      -35.2459729163       -2.9181630676  MEMB      292             0.0000000000
     36386       292  QMPE      H14X           20.7672909010      -34.3701282601       -2.2097760529  MEMB      292             0.0000000000
     36387       292  QMPE      H14Y           21.8508313163      -35.6704215803       -2.5551874821  MEMB      292             0.0000000000
     36388       292  QMPE      C315           19.6244997075      -36.2228685003       -3.0585695750  MEMB      292             0.0000000000
     36389       292  QMPE      H15X           19.4462513051      -36.9505679549       -2.3817942743  MEMB      292             0.0000000000
     36390       292  QMPE      H15Y           18.8053560559      -36.0611914656       -2.4060118401  MEMB      292             0.0000000000
     36391       292  QMPE      H15Z           19.6894429550      -37.2181581817       -3.3842514773  MEMB      292             0.0000000000
     36392       293  POPE      N             -45.2163896961        9.2709487675      -20.6234310475  MEMB      293             0.0000000000
     36393       293  POPE      HN1           -45.2743073472        9.0834324366      -19.5968613648  MEMB      293             0.0000000000
     36394       293  POPE      HN2           -45.9958421735        9.8074592519      -21.0272449843  MEMB      293             0.0000000000
     36395       293  POPE      HN3           -45.1039667198        8.3767086571      -21.1655149601  MEMB      293             0.0000000000
     36396       293  POPE      C12           -44.0195981720       10.1677819070      -20.7326337869  MEMB      293             0.0000000000
     36397       293  POPE      H12A          -44.2958966428       11.2367933972      -20.7356217268  MEMB      293             0.0000000000
     36398       293  POPE      H12B          -43.5956164907        9.8977640462      -21.6479604967  MEMB      293             0.0000000000
     36399       293  POPE      C11           -42.9650546326       10.0100257280      -19.6394200459  MEMB      293             0.0000000000
     36400       293  POPE      H11A          -43.3274797302       10.5527465033      -18.7500549553  MEMB      293             0.0000000000
     36401       293  POPE      H11B          -42.0518165537       10.5598983393      -19.9718104611  MEMB      293             0.0000000000
     36402       293  POPE      P             -41.6344218908        8.2645251315      -18.1693466205  MEMB      293             0.0000000000
     36403       293  POPE      O13           -40.3030996735        8.7736545359      -18.5171957449  MEMB      293             0.0000000000
     36404       293  POPE      O14           -41.8240830693        6.8120443461      -17.9347903748  MEMB      293             0.0000000000
     36405       293  POPE      O11           -42.2155692781        9.1121937507      -16.9736652478  MEMB      293             0.0000000000
     36406       293  POPE      O12           -42.6943888791        8.6496306647      -19.3240387065  MEMB      293             0.0000000000
     36407       293  POPE      C1            -43.4394827167        8.7577651524      -16.3696836997  MEMB      293             0.0000000000
     36408       293  POPE      HA            -43.4110908826        7.7138226598      -15.9694184371  MEMB      293             0.0000000000
     36409       293  POPE      HB            -44.2066366351        8.8338087736      -17.1581469860  MEMB      293             0.0000000000
     36410       293  POPE      C2            -43.7809546784        9.7147910758      -15.1936290272  MEMB      293             0.0000000000
     36411       293  POPE      HS            -43.9580317578       10.7310195251      -15.6071810832  MEMB      293             0.0000000000
     36412       293  POPE      O21           -42.7027053879        9.7739236904      -14.2565586996  MEMB      293             0.0000000000
     36413       293  POPE      C21           -41.8059973296       10.7277984049      -14.3705654525  MEMB      293             0.0000000000
     36414       293  POPE      O22           -41.8222130939       11.6876633522      -15.1195646163  MEMB      293             0.0000000000
     36415       293  POPE      C22           -40.7279659104       10.4849893646      -13.3193589298  MEMB      293             0.0000000000
     36416       293  POPE      H2R           -41.0353706473        9.6591576634      -12.6556372897  MEMB      293             0.0000000000
     36417       293  POPE      H2S           -40.6953654293       11.3982313162      -12.6838052613  MEMB      293             0.0000000000
     36418       293  POPE      C3            -45.0939476783        9.2641457818      -14.4548845154  MEMB      293             0.0000000000
     36419       293  POPE      HX            -45.9271401874        9.3475266574      -15.1881617336  MEMB      293             0.0000000000
     36420       293  POPE      HY            -45.3223335885       10.0151825641      -13.6703401757  MEMB      293             0.0000000000
     36421       293  POPE      O31           -44.9924108395        7.9766260611      -13.7926239039  MEMB      293             0.0000000000
     36422       293  POPE      C31           -45.4344561331        6.8648557605      -14.3795460825  MEMB      293             0.0000000000
     36423       293  POPE      O32           -46.1294069981        6.8190976036      -15.3708809482  MEMB      293             0.0000000000
     36424       293  POPE      C32           -44.9259602487        5.6686307509      -13.5865241140  MEMB      293             0.0000000000
     36425       293  POPE      H2X           -43.9963296986        5.8874328920      -13.0675840308  MEMB      293             0.0000000000
     36426       293  POPE      H2Y           -44.8489414918        4.6930311536      -14.0958387442  MEMB      293             0.0000000000
     36427       293  POPE      C23           -39.3965825327       10.1081183008      -14.0249782950  MEMB      293             0.0000000000
     36428       293  POPE      H3R           -38.5857302787        9.9800538889      -13.2774735239  MEMB      293             0.0000000000
     36429       293  POPE      H3S           -39.0931212273       10.9748947741      -14.6593615348  MEMB      293             0.0000000000
     36430       293  POPE      C24           -39.4394490978        8.8257166598      -14.9174583618  MEMB      293             0.0000000000
     36431       293  POPE      H4R           -38.4192334347        8.5888876903      -15.2881693075  MEMB      293             0.0000000000
     36432       293  POPE      H4S           -39.9914538412        9.0426285483      -15.8626755391  MEMB      293             0.0000000000
     36433       293  POPE      C25           -39.9577718386        7.5109098310      -14.2718639054  MEMB      293             0.0000000000
     36434       293  POPE      H5R           -40.0536608723        6.7494325093      -15.0802538530  MEMB      293             0.0000000000
     36435       293  POPE      H5S           -40.9384089957        7.6305684008      -13.7764510224  MEMB      293             0.0000000000
     36436       293  POPE      C26           -39.0943339171        6.9429197853      -13.1583588105  MEMB      293             0.0000000000
     36437       293  POPE      H6R           -38.7833415401        7.8167136159      -12.5840352985  MEMB      293             0.0000000000
     36438       293  POPE      H6S           -38.2055869823        6.4814545203      -13.5725266800  MEMB      293             0.0000000000
     36439       293  POPE      C27           -39.7467204652        5.7824674850      -12.3855029317  MEMB      293             0.0000000000
     36440       293  POPE      H7R           -39.1903345847        5.3470324459      -11.5391876168  MEMB      293             0.0000000000
     36441       293  POPE      H7S           -39.8687600345        4.9514755530      -13.1122895911  MEMB      293             0.0000000000
     36442       293  POPE      C28           -40.8927063601        6.0650417890      -11.4694900462  MEMB      293             0.0000000000
     36443       293  POPE      H8R           -41.3054858085        5.0803097552      -11.1538842821  MEMB      293             0.0000000000
     36444       293  POPE      H8S           -41.5823144359        6.6486103738      -12.0209491886  MEMB      293             0.0000000000
     36445       293  POPE      C29           -40.5145324276        6.7810854341      -10.2542434516  MEMB      293             0.0000000000
     36446       293  POPE      H91           -39.8142597453        6.1380771127       -9.8593747564  MEMB      293             0.0000000000
     36447       293  POPE      C210          -40.8535493932        7.8530037058       -9.5489437344  MEMB      293             0.0000000000
     36448       293  POPE      H101          -40.4027873621        8.0894953732       -8.5592243222  MEMB      293             0.0000000000
     36449       293  POPE      C211          -41.9317016655        8.7469016538       -9.9332602828  MEMB      293             0.0000000000
     36450       293  POPE      H11R          -42.2395589706        8.5521158309      -10.9807158993  MEMB      293             0.0000000000
     36451       293  POPE      H11S          -41.5981777342        9.7871914117       -9.9362731235  MEMB      293             0.0000000000
     36452       293  POPE      C212          -43.2040012888        8.5963833491       -9.1024103739  MEMB      293             0.0000000000
     36453       293  POPE      H12R          -43.6225131197        7.5932723337       -9.2445830510  MEMB      293             0.0000000000
     36454       293  POPE      H12S          -43.9093492101        9.2939906813       -9.5825783435  MEMB      293             0.0000000000
     36455       293  POPE      C213          -43.3084579173        8.9282659570       -7.6123697902  MEMB      293             0.0000000000
     36456       293  POPE      H13R          -44.3829307498        8.7814309434       -7.3749203578  MEMB      293             0.0000000000
     36457       293  POPE      H13S          -43.0828858300        9.9824170730       -7.3705215520  MEMB      293             0.0000000000
     36458       293  POPE      C214          -42.5662671674        8.0117404420       -6.6784280617  MEMB      293             0.0000000000
     36459       293  POPE      H14R          -41.5794974650        8.5230644494       -6.5384697070  MEMB      293             0.0000000000
     36460       293  POPE      H14S          -42.3791423937        7.0052556167       -7.1210034467  MEMB      293             0.0000000000
     36461       293  POPE      C215          -43.1574783046        7.9404561739       -5.2374958108  MEMB      293             0.0000000000
     36462       293  POPE      H15R          -43.1203490431        8.8733367410       -4.8126709718  MEMB      293             0.0000000000
     36463       293  POPE      H15S          -42.6589588088        7.3885963062       -4.5370790988  MEMB      293             0.0000000000
     36464       293  POPE      C216          -44.4062516922        7.3719429020       -4.7449083003  MEMB      293             0.0000000000
     36465       293  POPE      H16R          -44.0322668670        6.2020977312       -4.8292960188  MEMB      293             0.0000000000
     36466       293  POPE      H16S          -45.1494793409        7.8670805468       -5.5024351634  MEMB      293             0.0000000000
     36467       293  POPE      C217          -45.0368756661        7.3565907779       -3.4307894837  MEMB      293             0.0000000000
     36468       293  POPE      H17R          -45.9764675874        6.7909843974       -3.2885940728  MEMB      293             0.0000000000
     36469       293  POPE      H17S          -45.4889786343        8.3063292274       -3.3485365344  MEMB      293             0.0000000000
     36470       293  POPE      C218          -44.1687181858        6.6112866607       -2.4482276850  MEMB      293             0.0000000000
     36471       293  POPE      H18R          -43.2362943811        7.1211287873       -2.4836253236  MEMB      293             0.0000000000
     36472       293  POPE      H18S          -43.8158800541        5.5737211503       -2.7334755604  MEMB      293             0.0000000000
     36473       293  POPE      H18T          -44.7609505040        6.4452166237       -1.5379224181  MEMB      293             0.0000000000
     36474       293  POPE      C33           -46.0042356448        5.5000736506      -12.6713574574  MEMB      293             0.0000000000
     36475       293  POPE      H3X           -46.7630561542        5.2416435096      -13.3234626076  MEMB      293             0.0000000000
     36476       293  POPE      H3Y           -46.3343602566        6.3539778985      -12.0612091115  MEMB      293             0.0000000000
     36477       293  POPE      C34           -45.9612306623        4.4417540605      -11.8362488332  MEMB      293             0.0000000000
     36478       293  POPE      H4X           -45.8859901827        3.3591749238      -12.0308779501  MEMB      293             0.0000000000
     36479       293  POPE      H4Y           -46.7209379787        4.2269545049      -11.0057541149  MEMB      293             0.0000000000
     36480       293  POPE      C35           -45.1849109830        5.2345376934      -10.9655346839  MEMB      293             0.0000000000
     36481       293  POPE      H5X           -45.0172449326        6.0429030857      -10.5146518761  MEMB      293             0.0000000000
     36482       293  POPE      H5Y           -43.9832759787        4.9741531225      -11.5042843705  MEMB      293             0.0000000000
     36483       293  POPE      C36           -45.3373459681        3.1206348003       -8.4224720349  MEMB      293             0.0000000000
     36484       293  POPE      H6X           -45.4789297469        2.2763785756       -9.1836840290  MEMB      293             0.0000000000
     36485       293  POPE      H6Y           -46.0534199740        3.8463915698       -8.5264808935  MEMB      293             0.0000000000
     36486       293  POPE      C37           -43.3868712059        3.2937178568       -7.6958491140  MEMB      293             0.0000000000
     36487       293  POPE      H7X           -43.9654721168        2.7751430306       -7.2047849196  MEMB      293             0.0000000000
     36488       293  POPE      H7Y           -43.1704439467        4.2897384379       -7.3302698406  MEMB      293             0.0000000000
     36489       293  POPE      C38           -41.9172346348        3.0829747743       -8.4564403817  MEMB      293             0.0000000000
     36490       293  POPE      H8X           -41.5259663594        3.5614564600       -9.5037698299  MEMB      293             0.0000000000
     36491       293  POPE      H8Y           -41.8847444651        2.0234759785       -8.5218382492  MEMB      293             0.0000000000
     36492       293  POPE      C39           -41.2052081124        3.5291370958       -7.8169819445  MEMB      293             0.0000000000
     36493       293  POPE      H9X           -41.6981214813        4.6289291624       -7.9442688240  MEMB      293             0.0000000000
     36494       293  POPE      H9Y           -40.2301112410        3.5492061107       -8.2996202876  MEMB      293             0.0000000000
     36495       293  POPE      C310          -41.2752392228        2.8380718349       -6.4542101455  MEMB      293             0.0000000000
     36496       293  POPE      H10X          -41.0533059704        1.8147162070       -6.6010595796  MEMB      293             0.0000000000
     36497       293  POPE      H10Y          -42.1973460459        3.1733424160       -5.9312828018  MEMB      293             0.0000000000
     36498       293  POPE      C311          -40.2324133390        3.1341232110       -5.4134906035  MEMB      293             0.0000000000
     36499       293  POPE      H11X          -39.1879116453        3.3878138585       -5.7998063481  MEMB      293             0.0000000000
     36500       293  POPE      H11Y          -40.2657495678        2.6504724932       -4.5561481724  MEMB      293             0.0000000000
     36501       293  POPE      C312          -40.7908036799        4.1544272481       -4.5272423725  MEMB      293             0.0000000000
     36502       293  POPE      H12X          -41.5413096437        4.4542215327       -3.8186604153  MEMB      293             0.0000000000
     36503       293  POPE      H12Y          -41.8049421253        4.6413860486       -5.1497653539  MEMB      293             0.0000000000
     36504       293  POPE      C313          -39.1863771055        4.8405821569       -4.5900674657  MEMB      293             0.0000000000
     36505       293  POPE      H13X          -38.5366821372        5.6420637624       -4.8023710967  MEMB      293             0.0000000000
     36506       293  POPE      H13Y          -38.9548264484        3.9458389443       -3.6397034476  MEMB      293             0.0000000000
     36507       293  POPE      C314          -38.9766634528        7.1306973227       -4.0547737824  MEMB      293             0.0000000000
     36508       293  POPE      H14X          -40.3735522320        7.2421042335       -3.4082593635  MEMB      293             0.0000000000
     36509       293  POPE      H14Y          -39.7823731583        7.9790124164       -4.2415445582  MEMB      293             0.0000000000
     36510       293  POPE      C315          -37.7363905432        7.7809896795       -3.2092931533  MEMB      293             0.0000000000
     36511       293  POPE      H15X          -37.4615136900        8.2229459414       -3.9885135576  MEMB      293             0.0000000000
     36512       293  POPE      H15Y          -37.5170362922        6.7538094860       -3.1939875655  MEMB      293             0.0000000000
     36513       293  POPE      C316          -37.8932070424        8.7291140382       -1.6889969009  MEMB      293             0.0000000000
     36514       293  POPE      H16X          -38.7515107827        8.4804259117       -0.8471657221  MEMB      293             0.0000000000
     36515       293  POPE      H16Y          -38.8167344828        9.2858823805       -1.6517829963  MEMB      293             0.0000000000
     36516       293  POPE      H16Z          -36.9933832430        8.8822832581       -1.3301136536  MEMB      293             0.0000000000
     36517       294  PMPG      C13            40.3074223105       13.8166266006      -17.6886569439  MEMB      294             0.0000000000
     36518       294  PMPG      H13A           40.5680181654       12.9866729209      -18.3813741086  MEMB      294             0.0000000000
     36519       294  PMPG      H13B           40.1839194547       13.3891723410      -16.6689500836  MEMB      294             0.0000000000
     36520       294  PMPG      OC3            39.0480532547       14.3306641101      -18.0854243685  MEMB      294             0.0000000000
     36521       294  PMPG      HO3            39.2037568468       14.8017884607      -18.9115544095  MEMB      294             0.0000000000
     36522       294  PMPG      C12            41.4082185413       14.9218742282      -17.6598535943  MEMB      294             0.0000000000
     36523       294  PMPG      H12A           42.3659966464       14.4312679882      -17.3772294016  MEMB      294             0.0000000000
     36524       294  PMPG      OC2            41.1502328314       15.8177892626      -16.5982850323  MEMB      294             0.0000000000
     36525       294  PMPG      HO2            41.7265560861       16.5756891398      -16.7527399575  MEMB      294             0.0000000000
     36526       294  PMPG      C11            41.6560327345       15.6994947371      -19.0005972432  MEMB      294             0.0000000000
     36527       294  PMPG      H11A           41.6271152859       15.0374303407      -19.8739848635  MEMB      294             0.0000000000
     36528       294  PMPG      H11B           42.6911437463       16.1123079254      -18.9911205517  MEMB      294             0.0000000000
     36529       294  PMPG      P              41.1313272871       17.8894098524      -20.2456736327  MEMB      294             0.0000000000
     36530       294  PMPG      O13            41.4166621610       17.3118881871      -21.5717574933  MEMB      294             0.0000000000
     36531       294  PMPG      O14            42.2229398907       18.6593991923      -19.5905450602  MEMB      294             0.0000000000
     36532       294  PMPG      O11            39.8245701222       18.7582815780      -20.3748401203  MEMB      294             0.0000000000
     36533       294  PMPG      O12            40.6885404093       16.7117723231      -19.2709814664  MEMB      294             0.0000000000
     36534       294  PMPG      C1             38.8144004373       18.8950085816      -19.3804004262  MEMB      294             0.0000000000
     36535       294  PMPG      HA             38.2429716304       17.9436540603      -19.1938896316  MEMB      294             0.0000000000
     36536       294  PMPG      HB             38.0862878250       19.6294865202      -19.7918713422  MEMB      294             0.0000000000
     36537       294  PMPG      C2             39.2865472509       19.6645425946      -18.1039851849  MEMB      294             0.0000000000
     36538       294  PMPG      HS             39.7070670035       20.6284737336      -18.4300544961  MEMB      294             0.0000000000
     36539       294  PMPG      O21            40.2599264184       18.9176386475      -17.3716241885  MEMB      294             0.0000000000
     36540       294  PMPG      C21            41.0603293645       19.5469936470      -16.5558071541  MEMB      294             0.0000000000
     36541       294  PMPG      O22            41.0405053531       20.7230283700      -16.2350898401  MEMB      294             0.0000000000
     36542       294  PMPG      C22            42.0241954087       18.4767046866      -16.0608991389  MEMB      294             0.0000000000
     36543       294  PMPG      H2R            42.4277405575       17.9999279236      -16.9834274155  MEMB      294             0.0000000000
     36544       294  PMPG      H2S            41.4609650092       17.7623676860      -15.4310214507  MEMB      294             0.0000000000
     36545       294  PMPG      C3             38.0710790983       19.9904038475      -17.2131730190  MEMB      294             0.0000000000
     36546       294  PMPG      HX             37.3378312553       20.6036036455      -17.7830975579  MEMB      294             0.0000000000
     36547       294  PMPG      HY             38.3901848681       20.6307311460      -16.3621209703  MEMB      294             0.0000000000
     36548       294  PMPG      O31            37.4441068815       18.7530954636      -16.8402823058  MEMB      294             0.0000000000
     36549       294  PMPG      C31            37.7162009758       18.3430524172      -15.6101643431  MEMB      294             0.0000000000
     36550       294  PMPG      O32            38.1732449344       19.0253596862      -14.7091272155  MEMB      294             0.0000000000
     36551       294  PMPG      C32            37.4624136704       16.8521307764      -15.4851169195  MEMB      294             0.0000000000
     36552       294  PMPG      H2X            38.0633888880       16.3153816245      -16.2542794176  MEMB      294             0.0000000000
     36553       294  PMPG      H2Y            36.3778042881       16.6899357313      -15.6633203021  MEMB      294             0.0000000000
     36554       294  PMPG      C23            43.1290309872       18.9559704212      -15.1368814124  MEMB      294             0.0000000000
     36555       294  PMPG      H3R            42.6563301180       19.2212132683      -14.1598545373  MEMB      294             0.0000000000
     36556       294  PMPG      H3S            43.5929348633       19.8220462475      -15.6526889164  MEMB      294             0.0000000000
     36557       294  PMPG      C24            44.2316145056       17.9172605692      -14.9487738133  MEMB      294             0.0000000000
     36558       294  PMPG      H4R            45.1517833967       18.4172189323      -14.5799632982  MEMB      294             0.0000000000
     36559       294  PMPG      H4S            44.4504325266       17.5049958254      -15.9611318743  MEMB      294             0.0000000000
     36560       294  PMPG      C25            43.9086824248       16.7845874340      -13.9665912709  MEMB      294             0.0000000000
     36561       294  PMPG      H5R            44.8279015164       16.1511047528      -13.9358996948  MEMB      294             0.0000000000
     36562       294  PMPG      H5S            43.0475310599       16.2289656233      -14.3976194321  MEMB      294             0.0000000000
     36563       294  PMPG      C26            43.4757874568       17.2188574442      -12.5457087035  MEMB      294             0.0000000000
     36564       294  PMPG      H6R            42.3862996789       17.4338161105      -12.5714965525  MEMB      294             0.0000000000
     36565       294  PMPG      H6S            43.9527337392       18.1901571813      -12.3248556244  MEMB      294             0.0000000000
     36566       294  PMPG      C27            43.7196555434       16.1364676566      -11.4731402744  MEMB      294             0.0000000000
     36567       294  PMPG      H7R            44.8007630579       15.8818627197      -11.4453645129  MEMB      294             0.0000000000
     36568       294  PMPG      H7S            43.1671322072       15.2501646314      -11.8800235237  MEMB      294             0.0000000000
     36569       294  PMPG      C28            43.1580472970       16.4235027279      -10.0457868349  MEMB      294             0.0000000000
     36570       294  PMPG      H8R            43.5830186583       15.6315073865       -9.3812987066  MEMB      294             0.0000000000
     36571       294  PMPG      H8S            42.0465392006       16.3439212372      -10.1155285828  MEMB      294             0.0000000000
     36572       294  PMPG      C29            43.5804644079       17.7534831380       -9.3954318514  MEMB      294             0.0000000000
     36573       294  PMPG      H9R            44.6575602526       17.9708258500       -9.2922146806  MEMB      294             0.0000000000
     36574       294  PMPG      C217           42.6124691318       18.9225757003       -9.4908338486  MEMB      294             0.0000000000
     36575       294  PMPG      H17R           43.1083645962       19.8686654547       -9.6276930583  MEMB      294             0.0000000000
     36576       294  PMPG      H17S           41.5978610966       18.7349272982       -9.8021937857  MEMB      294             0.0000000000
     36577       294  PMPG      C210           42.8916673741       18.2564197813       -8.1388171358  MEMB      294             0.0000000000
     36578       294  PMPG      H10R           43.5505637580       18.8557503205       -7.4654717113  MEMB      294             0.0000000000
     36579       294  PMPG      C211           41.7262312463       17.4427112543       -7.5476330037  MEMB      294             0.0000000000
     36580       294  PMPG      H11R           41.0513117490       16.9955432093       -8.3047168832  MEMB      294             0.0000000000
     36581       294  PMPG      H11S           42.0562677297       16.5753266512       -6.9395575149  MEMB      294             0.0000000000
     36582       294  PMPG      C212           40.9946132902       18.3310045136       -6.5617427163  MEMB      294             0.0000000000
     36583       294  PMPG      H12R           40.2458602707       18.9622670249       -7.1007766526  MEMB      294             0.0000000000
     36584       294  PMPG      H12S           41.7819180336       18.9690882798       -6.0851917858  MEMB      294             0.0000000000
     36585       294  PMPG      C213           40.4356261259       17.5290041069       -5.4080414759  MEMB      294             0.0000000000
     36586       294  PMPG      H13R           41.2812308386       17.3959441323       -4.6844035380  MEMB      294             0.0000000000
     36587       294  PMPG      H13S           40.2012075779       16.4773573114       -5.7076672948  MEMB      294             0.0000000000
     36588       294  PMPG      C214           39.3882101038       18.4259389595       -4.7740181406  MEMB      294             0.0000000000
     36589       294  PMPG      H14R           38.4017584785       18.6279068714       -5.2153334035  MEMB      294             0.0000000000
     36590       294  PMPG      H14S           39.8603943083       19.2200159228       -4.1488830326  MEMB      294             0.0000000000
     36591       294  PMPG      C215           38.7915986762       17.7854105104       -3.8271790447  MEMB      294             0.0000000000
     36592       294  PMPG      H15R           39.7610345414       17.6499267101       -3.2136849130  MEMB      294             0.0000000000
     36593       294  PMPG      H15S           38.5529992695       16.7093143776       -4.1921297175  MEMB      294             0.0000000000
     36594       294  PMPG      C216           37.6658983518       18.4422644643       -3.0049008708  MEMB      294             0.0000000000
     36595       294  PMPG      H16R           37.2240833493       17.7665035828       -2.2061306105  MEMB      294             0.0000000000
     36596       294  PMPG      H16S           36.7430643466       18.2981549074       -3.4976035538  MEMB      294             0.0000000000
     36597       294  PMPG      H16T           37.8794464954       19.3520701077       -2.3977184430  MEMB      294             0.0000000000
     36598       294  PMPG      C33            37.8466471761       16.2283120317      -14.1314643402  MEMB      294             0.0000000000
     36599       294  PMPG      H3X            37.5821089868       15.1576727823      -14.2666705261  MEMB      294             0.0000000000
     36600       294  PMPG      H3Y            37.1945384298       16.6199766266      -13.3303514736  MEMB      294             0.0000000000
     36601       294  PMPG      C34            39.3198453288       16.3175425860      -13.6957446993  MEMB      294             0.0000000000
     36602       294  PMPG      H4X            39.8315257454       17.2204902970      -14.0941901020  MEMB      294             0.0000000000
     36603       294  PMPG      H4Y            39.9131670611       15.4764313283      -14.0948948595  MEMB      294             0.0000000000
     36604       294  PMPG      C35            39.4043927252       16.3604107116      -12.1712877877  MEMB      294             0.0000000000
     36605       294  PMPG      H5X            38.8254956152       17.2482622712      -11.8346927071  MEMB      294             0.0000000000
     36606       294  PMPG      H5Y            40.4661483388       16.4523248201      -11.8865809367  MEMB      294             0.0000000000
     36607       294  PMPG      C36            38.9033906558       15.1258755810      -11.4497811580  MEMB      294             0.0000000000
     36608       294  PMPG      H6X            38.7834519176       14.3259235126      -12.2053523773  MEMB      294             0.0000000000
     36609       294  PMPG      H6Y            37.9073533226       15.3657652729      -11.0361589309  MEMB      294             0.0000000000
     36610       294  PMPG      C37            39.8864176677       14.6446131580      -10.4026902727  MEMB      294             0.0000000000
     36611       294  PMPG      H7X            40.1901191961       15.4272826437       -9.6748624519  MEMB      294             0.0000000000
     36612       294  PMPG      H7Y            40.8316787068       14.3271101143      -10.9059677135  MEMB      294             0.0000000000
     36613       294  PMPG      C38            39.2588606963       13.5714812514       -9.5809432745  MEMB      294             0.0000000000
     36614       294  PMPG      H8X            39.1314035070       12.5994969554      -10.1068717768  MEMB      294             0.0000000000
     36615       294  PMPG      H8Y            38.2507277882       13.8199270249       -9.3457848460  MEMB      294             0.0000000000
     36616       294  PMPG      C39            40.1754212478       13.5590916897       -8.4019080433  MEMB      294             0.0000000000
     36617       294  PMPG      H9X            40.5693264469       14.4280156908       -7.9829069710  MEMB      294             0.0000000000
     36618       294  PMPG      H9Y            41.1089932890       13.0215648593       -8.4746088072  MEMB      294             0.0000000000
     36619       294  PMPG      C310           39.5102471542       13.2051066660       -7.2593431302  MEMB      294             0.0000000000
     36620       294  PMPG      H10X           39.0515972629       12.2482235377       -7.7728906181  MEMB      294             0.0000000000
     36621       294  PMPG      H10Y           38.5901847989       13.5707045245       -7.0025895599  MEMB      294             0.0000000000
     36622       294  PMPG      C311           40.3902577447       13.0583037009       -5.7321449593  MEMB      294             0.0000000000
     36623       294  PMPG      H11X           40.5211368196       13.9206808453       -5.4748940679  MEMB      294             0.0000000000
     36624       294  PMPG      H11Y           41.2929382119       12.4554435952       -6.1427028161  MEMB      294             0.0000000000
     36625       294  PMPG      C312           39.2900294058       12.1947923275       -3.8385465030  MEMB      294             0.0000000000
     36626       294  PMPG      H12X           39.3588688196       11.0713382968       -3.9455952934  MEMB      294             0.0000000000
     36627       294  PMPG      H12Y           38.1898474981       11.3091543753       -3.9627108899  MEMB      294             0.0000000000
     36628       294  PMPG      C313           39.6322437991       13.2334278093       -3.3330497784  MEMB      294             0.0000000000
     36629       294  PMPG      H13X           39.2045362070       12.4231776405       -2.6529164611  MEMB      294             0.0000000000
     36630       294  PMPG      H13Y           39.1410222179       13.9300340000       -4.0526218105  MEMB      294             0.0000000000
     36631       294  PMPG      C314           40.7180616147       13.6260751231       -2.6009340591  MEMB      294             0.0000000000
     36632       294  PMPG      H14X           41.4575398657       14.0634647176       -3.2054661629  MEMB      294             0.0000000000
     36633       294  PMPG      H14Y           40.9835058038       12.6727987731       -2.5188427570  MEMB      294             0.0000000000
     36634       294  PMPG      C315           40.5935097792       14.0440036993       -1.2552056471  MEMB      294             0.0000000000
     36635       294  PMPG      H15X           40.0332660791       13.4411753586       -0.5872745697  MEMB      294             0.0000000000
     36636       294  PMPG      H15Y           39.9252558299       14.5935823166       -1.5835190791  MEMB      294             0.0000000000
     36637       294  PMPG      C316           41.7239846895       14.8007003296       -0.7702415687  MEMB      294             0.0000000000
     36638       294  PMPG      H16X           41.4613071878       15.5607455438       -0.0330375931  MEMB      294             0.0000000000
     36639       294  PMPG      H16Y           42.2478232752       15.2717714670       -1.6021967521  MEMB      294             0.0000000000
     36640       294  PMPG      H16Z           42.3904354194       14.0487003552       -0.4021336600  MEMB      294             0.0000000000
     36641       295  PMPE      N              39.4622277382      -23.8538916253      -21.4690754621  MEMB      295             0.0000000000
     36642       295  PMPE      HN1            40.0064886816      -23.6884786175      -22.3463614517  MEMB      295             0.0000000000
     36643       295  PMPE      HN2            40.0907158330      -24.3725213535      -20.8416124589  MEMB      295             0.0000000000
     36644       295  PMPE      HN3            38.6196075518      -24.4338576312      -21.6954385580  MEMB      295             0.0000000000
     36645       295  PMPE      C12            39.1469154713      -22.5746183823      -20.7083664937  MEMB      295             0.0000000000
     36646       295  PMPE      H12A           38.6527168526      -21.9336235249      -21.4626977762  MEMB      295             0.0000000000
     36647       295  PMPE      H12B           40.0803735015      -22.1230448342      -20.3187421963  MEMB      295             0.0000000000
     36648       295  PMPE      C11            38.1625759879      -22.6477139453      -19.5228982176  MEMB      295             0.0000000000
     36649       295  PMPE      H11A           38.5276353636      -23.1268166881      -18.5865199283  MEMB      295             0.0000000000
     36650       295  PMPE      H11B           37.2820673442      -23.2157217951      -19.9244133798  MEMB      295             0.0000000000
     36651       295  PMPE      P              38.3971457489      -20.3571904105      -18.0583100430  MEMB      295             0.0000000000
     36652       295  PMPE      O13            37.8540961539      -18.9906378849      -18.2907597579  MEMB      295             0.0000000000
     36653       295  PMPE      O14            39.8666712000      -20.5350599409      -18.0566697231  MEMB      295             0.0000000000
     36654       295  PMPE      O11            37.7409318117      -20.9032763571      -16.7261820758  MEMB      295             0.0000000000
     36655       295  PMPE      O12            37.7994858591      -21.3077299724      -19.2139772211  MEMB      295             0.0000000000
     36656       295  PMPE      C1             36.3701546522      -21.2985257572      -16.7698863411  MEMB      295             0.0000000000
     36657       295  PMPE      HA             36.2068370449      -22.0675302145      -17.5665285257  MEMB      295             0.0000000000
     36658       295  PMPE      HB             35.6920033912      -20.4288832354      -16.9493256553  MEMB      295             0.0000000000
     36659       295  PMPE      C2             35.9242509074      -21.9389131093      -15.4249739017  MEMB      295             0.0000000000
     36660       295  PMPE      HS             34.8469167196      -22.2005845604      -15.5266318201  MEMB      295             0.0000000000
     36661       295  PMPE      O21            36.1848947636      -21.1140398577      -14.2625052618  MEMB      295             0.0000000000
     36662       295  PMPE      C21            35.1714270237      -20.3606300842      -13.9149882981  MEMB      295             0.0000000000
     36663       295  PMPE      O22            34.1431353755      -20.2621357811      -14.5635111734  MEMB      295             0.0000000000
     36664       295  PMPE      C22            35.4409078743      -19.6896073077      -12.5842801428  MEMB      295             0.0000000000
     36665       295  PMPE      H2R            35.7567416046      -18.6351608968      -12.7702556012  MEMB      295             0.0000000000
     36666       295  PMPE      H2S            36.2432887225      -20.1630823276      -11.9952244311  MEMB      295             0.0000000000
     36667       295  PMPE      C3             36.5842274969      -23.3153667376      -15.1753412992  MEMB      295             0.0000000000
     36668       295  PMPE      HX             36.3520279947      -23.9211540351      -16.0767326938  MEMB      295             0.0000000000
     36669       295  PMPE      HY             36.0428347669      -23.8401335827      -14.3585620880  MEMB      295             0.0000000000
     36670       295  PMPE      O31            38.0138319117      -23.2632352757      -14.9858637931  MEMB      295             0.0000000000
     36671       295  PMPE      C31            38.5151812646      -23.2330279655      -13.7507697049  MEMB      295             0.0000000000
     36672       295  PMPE      O32            37.8733288830      -23.1903378029      -12.7168531876  MEMB      295             0.0000000000
     36673       295  PMPE      C32            40.0539257398      -23.3284920533      -13.8503786653  MEMB      295             0.0000000000
     36674       295  PMPE      H2X            40.3518777651      -24.3073476955      -14.2819048944  MEMB      295             0.0000000000
     36675       295  PMPE      H2Y            40.5090061385      -23.2458543937      -12.8383556573  MEMB      295             0.0000000000
     36676       295  PMPE      C23            34.1862792740      -19.6787942625      -11.7590589797  MEMB      295             0.0000000000
     36677       295  PMPE      H3R            34.1453006490      -20.5340780537      -11.0279050983  MEMB      295             0.0000000000
     36678       295  PMPE      H3S            33.2296916424      -19.7634463111      -12.2953248123  MEMB      295             0.0000000000
     36679       295  PMPE      C24            34.3699236974      -18.3374627384      -11.1928123473  MEMB      295             0.0000000000
     36680       295  PMPE      H4R            33.4678172036      -17.9521080345      -10.6334495551  MEMB      295             0.0000000000
     36681       295  PMPE      H4S            33.9872249574      -17.3987045235      -11.0545256755  MEMB      295             0.0000000000
     36682       295  PMPE      C25            35.7575709551      -18.0060795059      -10.6226645962  MEMB      295             0.0000000000
     36683       295  PMPE      H5R            35.3701759525      -16.9627929502      -10.1295883109  MEMB      295             0.0000000000
     36684       295  PMPE      H5S            36.6027460792      -18.1835911324      -10.8684030158  MEMB      295             0.0000000000
     36685       295  PMPE      C26            36.4671196688      -19.5675846369       -9.5115389347  MEMB      295             0.0000000000
     36686       295  PMPE      H6R            36.9538450125      -19.2815624918       -8.6295534435  MEMB      295             0.0000000000
     36687       295  PMPE      H6S            36.0871442714      -20.3917913973       -9.9205241408  MEMB      295             0.0000000000
     36688       295  PMPE      C27            35.2416007270      -20.5456933199       -8.1014397706  MEMB      295             0.0000000000
     36689       295  PMPE      H7R            35.3922354217      -21.4391862902       -7.7525168208  MEMB      295             0.0000000000
     36690       295  PMPE      H7S            34.1462524457      -20.4930735636       -8.3890801244  MEMB      295             0.0000000000
     36691       295  PMPE      C28            34.7632353514      -19.8226184418       -6.7242305669  MEMB      295             0.0000000000
     36692       295  PMPE      H8R            34.3090135601      -18.7451517803       -6.6938889488  MEMB      295             0.0000000000
     36693       295  PMPE      H8S            35.8095457464      -19.8202204224       -6.3316227443  MEMB      295             0.0000000000
     36694       295  PMPE      C29            33.7518126845      -20.2661218517       -5.8277794037  MEMB      295             0.0000000000
     36695       295  PMPE      H9R            34.1080965447      -21.1246938485       -5.3510474198  MEMB      295             0.0000000000
     36696       295  PMPE      C217           32.2782459196      -20.1047650132       -6.1200129692  MEMB      295             0.0000000000
     36697       295  PMPE      H17R           31.8876164424      -21.0562412189       -6.0124457608  MEMB      295             0.0000000000
     36698       295  PMPE      H17S           31.8324937696      -19.2921898210       -6.6331721584  MEMB      295             0.0000000000
     36699       295  PMPE      C210           32.9059444538      -19.4943464161       -4.9474500336  MEMB      295             0.0000000000
     36700       295  PMPE      H10R           32.8952489019      -20.0877430861       -3.9929182353  MEMB      295             0.0000000000
     36701       295  PMPE      C211           32.9849021422      -17.9796275872       -4.9388033085  MEMB      295             0.0000000000
     36702       295  PMPE      H11R           32.2569218977      -17.4755164939       -4.3336636199  MEMB      295             0.0000000000
     36703       295  PMPE      H11S           32.9597228618      -17.4933613735       -5.8822308926  MEMB      295             0.0000000000
     36704       295  PMPE      C212           33.8129166933      -17.0261949942       -4.6925886462  MEMB      295             0.0000000000
     36705       295  PMPE      H12R           33.8540243397      -15.6641826141       -4.7320014561  MEMB      295             0.0000000000
     36706       295  PMPE      H12S           34.6980002296      -16.6796467098       -4.5740424199  MEMB      295             0.0000000000
     36707       295  PMPE      C213           34.0953769238      -17.7272254278       -1.5757184258  MEMB      295             0.0000000000
     36708       295  PMPE      H13R           35.1098162071      -17.1650631304       -1.6425884417  MEMB      295             0.0000000000
     36709       295  PMPE      H13S           33.6740976996      -18.5723296733       -1.9737874379  MEMB      295             0.0000000000
     36710       295  PMPE      C214           32.6806465850      -17.1506456610       -0.8878463809  MEMB      295             0.0000000000
     36711       295  PMPE      H14R           31.8459920735      -17.4078614053       -1.6152394471  MEMB      295             0.0000000000
     36712       295  PMPE      H14S           32.6359526515      -15.9891289065       -0.9294534495  MEMB      295             0.0000000000
     36713       295  PMPE      C215           32.6247779171      -17.6719999683        0.2552333065  MEMB      295             0.0000000000
     36714       295  PMPE      H15R           32.0794026344      -16.9276206696        0.7658979580  MEMB      295             0.0000000000
     36715       295  PMPE      H15S           33.6822568208      -17.5524426833        0.5361370382  MEMB      295             0.0000000000
     36716       295  PMPE      C216           32.0641710592      -19.0783850712        0.1574992896  MEMB      295             0.0000000000
     36717       295  PMPE      H16R           32.4980840817      -19.8297731494       -0.5553042315  MEMB      295             0.0000000000
     36718       295  PMPE      H16S           32.1635612633      -19.4597908217        1.1583318107  MEMB      295             0.0000000000
     36719       295  PMPE      H16T           31.3100595833      -19.2607732162       -0.4912686678  MEMB      295             0.0000000000
     36720       295  PMPE      C33            40.6024023416      -22.2237692949      -14.7734637014  MEMB      295             0.0000000000
     36721       295  PMPE      H3X            40.1570285181      -22.2612106447      -15.7946172790  MEMB      295             0.0000000000
     36722       295  PMPE      H3Y            41.7013212212      -22.3978643798      -14.8888009122  MEMB      295             0.0000000000
     36723       295  PMPE      C34            40.1929490074      -20.8559841840      -14.2597254223  MEMB      295             0.0000000000
     36724       295  PMPE      H4X            39.3043718793      -20.8912962473      -13.6027671791  MEMB      295             0.0000000000
     36725       295  PMPE      H4Y            39.9474885915      -20.1247089124      -15.0749044344  MEMB      295             0.0000000000
     36726       295  PMPE      C35            41.2436709545      -20.2261472025      -13.4739943889  MEMB      295             0.0000000000
     36727       295  PMPE      H5X            42.0903267807      -20.0806546058      -14.2056053062  MEMB      295             0.0000000000
     36728       295  PMPE      H5Y            41.6437978271      -20.7620946767      -12.5719541563  MEMB      295             0.0000000000
     36729       295  PMPE      C36            40.6491714756      -18.8799317361      -13.0879754890  MEMB      295             0.0000000000
     36730       295  PMPE      H6X            40.7049182292      -18.0303624351      -13.7663140385  MEMB      295             0.0000000000
     36731       295  PMPE      H6Y            41.4823270333      -18.3419623920      -12.9064151869  MEMB      295             0.0000000000
     36732       295  PMPE      C37            39.7028483403      -18.8239678725      -11.8607557370  MEMB      295             0.0000000000
     36733       295  PMPE      H7X            38.7058507875      -18.6918026693      -12.1043242909  MEMB      295             0.0000000000
     36734       295  PMPE      H7Y            39.6589934138      -17.8252912239      -11.4859625657  MEMB      295             0.0000000000
     36735       295  PMPE      C38            40.0067860994      -19.8026644972      -10.6454358100  MEMB      295             0.0000000000
     36736       295  PMPE      H8X            39.8017501201      -20.7238538980      -11.1585236790  MEMB      295             0.0000000000
     36737       295  PMPE      H8Y            39.2328302144      -19.5047944243       -9.9291556228  MEMB      295             0.0000000000
     36738       295  PMPE      C39            41.3259091333      -20.0375161602       -9.7841323510  MEMB      295             0.0000000000
     36739       295  PMPE      H9X            41.2440904375      -19.2739841900       -8.9573870826  MEMB      295             0.0000000000
     36740       295  PMPE      H9Y            42.3120724680      -19.8531430885      -10.3280769793  MEMB      295             0.0000000000
     36741       295  PMPE      C310           41.5447710318      -21.3478737667       -9.1775702299  MEMB      295             0.0000000000
     36742       295  PMPE      H10X           42.5293058298      -21.4105166631       -8.6640916343  MEMB      295             0.0000000000
     36743       295  PMPE      H10Y           41.6680085237      -21.9674932262      -10.0843503218  MEMB      295             0.0000000000
     36744       295  PMPE      C311           40.3407693076      -21.8261008258       -8.3821830505  MEMB      295             0.0000000000
     36745       295  PMPE      H11X           40.7384294851      -22.6885503225       -7.8187033245  MEMB      295             0.0000000000
     36746       295  PMPE      H11Y           39.5788622161      -22.1487134788       -9.1233800351  MEMB      295             0.0000000000
     36747       295  PMPE      C312           39.6518108559      -20.9178349664       -7.3498284708  MEMB      295             0.0000000000
     36748       295  PMPE      H12X           39.0083316915      -20.1627965097       -7.8569360933  MEMB      295             0.0000000000
     36749       295  PMPE      H12Y           40.4705796807      -20.4556110976       -6.7522376547  MEMB      295             0.0000000000
     36750       295  PMPE      C313           38.7659972050      -21.7307200357       -6.3909434502  MEMB      295             0.0000000000
     36751       295  PMPE      H13X           39.3087841640      -22.6873278859       -6.2228895286  MEMB      295             0.0000000000
     36752       295  PMPE      H13Y           37.7589271628      -21.8985369823       -6.8419094929  MEMB      295             0.0000000000
     36753       295  PMPE      C314           38.5963673417      -21.0648427822       -5.0229071636  MEMB      295             0.0000000000
     36754       295  PMPE      H14X           38.2616332335      -20.0411976270       -5.2448751060  MEMB      295             0.0000000000
     36755       295  PMPE      H14Y           39.6038201907      -20.9920713706       -4.5548961267  MEMB      295             0.0000000000
     36756       295  PMPE      C315           37.6571801870      -21.8171652815       -4.0553133781  MEMB      295             0.0000000000
     36757       295  PMPE      H15X           38.0392102194      -22.8581699664       -4.0518811747  MEMB      295             0.0000000000
     36758       295  PMPE      H15Y           36.6220666239      -21.9402386690       -4.4348679786  MEMB      295             0.0000000000
     36759       295  PMPE      C316           37.5499429500      -21.2369926591       -2.6290766848  MEMB      295             0.0000000000
     36760       295  PMPE      H16X           37.2136267417      -22.0024963655       -1.9024134042  MEMB      295             0.0000000000
     36761       295  PMPE      H16Y           36.8166585255      -20.4124129343       -2.5864772784  MEMB      295             0.0000000000
     36762       295  PMPE      H16Z           38.4869867451      -20.8029399128       -2.2404837054  MEMB      295             0.0000000000
     36763       296  PMPE      N             -36.6995830975       28.0959138148      -21.1040008259  MEMB      296             0.0000000000
     36764       296  PMPE      HN1           -36.0373437270       28.6381341385      -21.7044486804  MEMB      296             0.0000000000
     36765       296  PMPE      HN2           -36.6585036279       27.0816156354      -21.3411206770  MEMB      296             0.0000000000
     36766       296  PMPE      HN3           -37.6637393238       28.4490119779      -21.1625598177  MEMB      296             0.0000000000
     36767       296  PMPE      C12           -36.3104783023       28.1067849429      -19.6611948564  MEMB      296             0.0000000000
     36768       296  PMPE      H12A          -37.2039337773       27.8368430402      -19.0574850700  MEMB      296             0.0000000000
     36769       296  PMPE      H12B          -36.0001578372       29.1410604527      -19.3965347995  MEMB      296             0.0000000000
     36770       296  PMPE      C11           -35.2534819571       27.0080375884      -19.5440782864  MEMB      296             0.0000000000
     36771       296  PMPE      H11A          -34.6413905782       27.1744668519      -18.6230667172  MEMB      296             0.0000000000
     36772       296  PMPE      H11B          -34.5426271396       27.0757854562      -20.3962990031  MEMB      296             0.0000000000
     36773       296  PMPE      P             -35.6081176683       24.7251497174      -18.3561069015  MEMB      296             0.0000000000
     36774       296  PMPE      O13           -34.1505834119       24.6298645491      -18.1798393018  MEMB      296             0.0000000000
     36775       296  PMPE      O14           -36.4641237195       23.5373056988      -18.4440826263  MEMB      296             0.0000000000
     36776       296  PMPE      O11           -36.1099016711       25.5862219393      -17.1342833480  MEMB      296             0.0000000000
     36777       296  PMPE      O12           -35.8701883253       25.7099062533      -19.6058662733  MEMB      296             0.0000000000
     36778       296  PMPE      C1            -37.5056921911       25.8311271389      -16.9708241758  MEMB      296             0.0000000000
     36779       296  PMPE      HA            -38.1604191081       25.1423350241      -17.5573539168  MEMB      296             0.0000000000
     36780       296  PMPE      HB            -37.7540808125       26.8352777758      -17.3394462215  MEMB      296             0.0000000000
     36781       296  PMPE      C2            -37.8473965464       25.7339132097      -15.4855653039  MEMB      296             0.0000000000
     36782       296  PMPE      HS            -38.8820391537       26.0754255604      -15.2956995260  MEMB      296             0.0000000000
     36783       296  PMPE      O21           -36.9388308201       26.4843305630      -14.6603491086  MEMB      296             0.0000000000
     36784       296  PMPE      C21           -37.0752319912       27.7706374229      -14.5971749744  MEMB      296             0.0000000000
     36785       296  PMPE      O22           -37.7561613036       28.4943843562      -15.3062321325  MEMB      296             0.0000000000
     36786       296  PMPE      C22           -36.2785296161       28.2160430392      -13.4006008900  MEMB      296             0.0000000000
     36787       296  PMPE      H2R           -35.2492168205       28.3903609583      -13.7809409551  MEMB      296             0.0000000000
     36788       296  PMPE      H2S           -36.2675966782       27.4912176755      -12.5492020056  MEMB      296             0.0000000000
     36789       296  PMPE      C3            -37.8250655432       24.2642184449      -15.0497088030  MEMB      296             0.0000000000
     36790       296  PMPE      HX            -36.9226217444       23.7540089559      -15.4264752234  MEMB      296             0.0000000000
     36791       296  PMPE      HY            -38.6521542666       23.6871062638      -15.5317581818  MEMB      296             0.0000000000
     36792       296  PMPE      O31           -37.8090355185       24.2714841073      -13.6156510365  MEMB      296             0.0000000000
     36793       296  PMPE      C31           -38.9425501765       23.9540583492      -13.0677436788  MEMB      296             0.0000000000
     36794       296  PMPE      O32           -39.9329370277       23.5141481726      -13.6295090360  MEMB      296             0.0000000000
     36795       296  PMPE      C32           -38.7972874128       24.1939063202      -11.5752273625  MEMB      296             0.0000000000
     36796       296  PMPE      H2X           -39.7778355430       24.0416924804      -11.0695783889  MEMB      296             0.0000000000
     36797       296  PMPE      H2Y           -38.5033738372       25.2462859443      -11.4373452932  MEMB      296             0.0000000000
     36798       296  PMPE      C23           -36.8128578483       29.5337340366      -12.9641462658  MEMB      296             0.0000000000
     36799       296  PMPE      H3R           -37.8046415168       29.5349601751      -12.4614025569  MEMB      296             0.0000000000
     36800       296  PMPE      H3S           -36.8702087112       30.2372964919      -13.8292037965  MEMB      296             0.0000000000
     36801       296  PMPE      C24           -35.8705058757       29.9799079496      -11.9439283640  MEMB      296             0.0000000000
     36802       296  PMPE      H4R           -36.1344684564       30.9253421991      -12.2237099486  MEMB      296             0.0000000000
     36803       296  PMPE      H4S           -34.8106095154       30.1429590112      -12.1808152415  MEMB      296             0.0000000000
     36804       296  PMPE      C25           -36.2304876897       29.3990878972      -10.5742653031  MEMB      296             0.0000000000
     36805       296  PMPE      H5R           -35.7437338227       28.4312824753      -10.4537994220  MEMB      296             0.0000000000
     36806       296  PMPE      H5S           -37.1877518733       29.5472510382      -10.0690227133  MEMB      296             0.0000000000
     36807       296  PMPE      C26           -35.5368290642       29.8595819376       -9.4570994367  MEMB      296             0.0000000000
     36808       296  PMPE      H6R           -35.9336753700       30.8989090493       -9.3534332462  MEMB      296             0.0000000000
     36809       296  PMPE      H6S           -34.5090573133       29.8845113220       -9.9023368417  MEMB      296             0.0000000000
     36810       296  PMPE      C27           -35.9091230480       29.5402606112       -7.9583162492  MEMB      296             0.0000000000
     36811       296  PMPE      H7R           -36.7680143471       30.1292687860       -7.6731624862  MEMB      296             0.0000000000
     36812       296  PMPE      H7S           -35.4636422942       30.0433849458       -7.0635376582  MEMB      296             0.0000000000
     36813       296  PMPE      C28           -35.5223149688       28.2430687797       -7.5299312360  MEMB      296             0.0000000000
     36814       296  PMPE      H8R           -36.2785843071       27.7732821430       -8.1755460063  MEMB      296             0.0000000000
     36815       296  PMPE      H8S           -35.6934554902       28.2454692746       -6.4355065974  MEMB      296             0.0000000000
     36816       296  PMPE      C29           -34.1266677027       27.8991959778       -7.9033395454  MEMB      296             0.0000000000
     36817       296  PMPE      H9R           -33.2817197392       28.5870164929       -8.1418782179  MEMB      296             0.0000000000
     36818       296  PMPE      C217          -34.1204397499       26.7523199175       -8.8992900356  MEMB      296             0.0000000000
     36819       296  PMPE      H17R          -33.3396002975       26.8911389042       -9.6206663945  MEMB      296             0.0000000000
     36820       296  PMPE      H17S          -35.0516615725       26.3712792295       -9.1671028428  MEMB      296             0.0000000000
     36821       296  PMPE      C210          -33.8090336420       26.5743757248       -7.4609094817  MEMB      296             0.0000000000
     36822       296  PMPE      H10R          -32.7951301061       26.6137353804       -7.3183744819  MEMB      296             0.0000000000
     36823       296  PMPE      C211          -34.7343094692       25.7399085026       -6.6246074914  MEMB      296             0.0000000000
     36824       296  PMPE      H11R          -35.5990252449       25.5722668927       -7.2731400721  MEMB      296             0.0000000000
     36825       296  PMPE      H11S          -34.9860634409       26.2369735289       -5.6713062521  MEMB      296             0.0000000000
     36826       296  PMPE      C212          -34.3271811784       24.3301167777       -6.3631841751  MEMB      296             0.0000000000
     36827       296  PMPE      H12R          -33.8939447079       23.7993872089       -7.2207705086  MEMB      296             0.0000000000
     36828       296  PMPE      H12S          -35.1042685125       23.6908266059       -5.9532812012  MEMB      296             0.0000000000
     36829       296  PMPE      C213          -33.5458001684       24.0724827810       -5.2655865069  MEMB      296             0.0000000000
     36830       296  PMPE      H13R          -32.7804971729       24.5910160181       -5.1256179893  MEMB      296             0.0000000000
     36831       296  PMPE      H13S          -32.9168047612       23.2660492751       -5.6654740817  MEMB      296             0.0000000000
     36832       296  PMPE      C214          -33.9033845643       24.3271121892       -3.8377863703  MEMB      296             0.0000000000
     36833       296  PMPE      H14R          -34.1404909279       23.3023351518       -3.5772986760  MEMB      296             0.0000000000
     36834       296  PMPE      H14S          -34.4068693122       25.2097297037       -3.6036376415  MEMB      296             0.0000000000
     36835       296  PMPE      C215          -33.0374998213       24.9708748220       -2.8856030771  MEMB      296             0.0000000000
     36836       296  PMPE      H15R          -32.2116611725       25.3933038840       -3.3060648592  MEMB      296             0.0000000000
     36837       296  PMPE      H15S          -32.5198997123       24.2854249575       -2.9074176239  MEMB      296             0.0000000000
     36838       296  PMPE      C216          -33.5301608007       25.0684607177       -1.5248223804  MEMB      296             0.0000000000
     36839       296  PMPE      H16R          -34.0010953204       24.1085079181       -1.1674710298  MEMB      296             0.0000000000
     36840       296  PMPE      H16S          -32.6973033734       25.2818623371       -0.9687771454  MEMB      296             0.0000000000
     36841       296  PMPE      H16T          -33.8102724116       26.0023746678       -1.3450301926  MEMB      296             0.0000000000
     36842       296  PMPE      C33           -37.6016088655       23.4362748118      -10.9604539158  MEMB      296             0.0000000000
     36843       296  PMPE      H3X           -36.5971433725       23.6723758812      -11.3618574910  MEMB      296             0.0000000000
     36844       296  PMPE      H3Y           -37.6386540817       22.3774251099      -11.2199569922  MEMB      296             0.0000000000
     36845       296  PMPE      C34           -37.4985308972       23.6503505085       -9.4493859785  MEMB      296             0.0000000000
     36846       296  PMPE      H4X           -37.2508575207       24.6877708126       -9.1906041712  MEMB      296             0.0000000000
     36847       296  PMPE      H4Y           -36.6399103286       23.0572155557       -9.0975689120  MEMB      296             0.0000000000
     36848       296  PMPE      C35           -38.7157356792       23.3577189002       -8.6129701364  MEMB      296             0.0000000000
     36849       296  PMPE      H5X           -39.0900488724       22.4331858522       -8.8997479319  MEMB      296             0.0000000000
     36850       296  PMPE      H5Y           -39.6060991377       23.9206754650       -8.8805272346  MEMB      296             0.0000000000
     36851       296  PMPE      C36           -38.4202340858       23.4651863274       -7.1314955008  MEMB      296             0.0000000000
     36852       296  PMPE      H6X           -38.0248775591       24.4731415512       -7.0519034445  MEMB      296             0.0000000000
     36853       296  PMPE      H6Y           -37.6917360660       22.7410781981       -6.7165439525  MEMB      296             0.0000000000
     36854       296  PMPE      C37           -39.6109335978       23.3395744980       -6.2896599461  MEMB      296             0.0000000000
     36855       296  PMPE      H7X           -39.7978581976       22.2622860546       -6.1185985136  MEMB      296             0.0000000000
     36856       296  PMPE      H7Y           -40.4306091478       23.9221091201       -6.7704656113  MEMB      296             0.0000000000
     36857       296  PMPE      C38           -39.3996598730       24.0212773650       -5.0129243509  MEMB      296             0.0000000000
     36858       296  PMPE      H8X           -38.7931306528       23.5471177314       -4.2384910357  MEMB      296             0.0000000000
     36859       296  PMPE      H8Y           -40.4429134148       23.9549015758       -4.7984031763  MEMB      296             0.0000000000
     36860       296  PMPE      C39           -39.2010215038       25.5073805666       -5.1245897097  MEMB      296             0.0000000000
     36861       296  PMPE      H9X           -39.9701193006       25.7844647065       -5.8758976594  MEMB      296             0.0000000000
     36862       296  PMPE      H9Y           -38.1902439053       25.7645115480       -5.4785582583  MEMB      296             0.0000000000
     36863       296  PMPE      C310          -39.3145753110       26.3767230055       -3.8767114397  MEMB      296             0.0000000000
     36864       296  PMPE      H10X          -40.2578340746       26.4200386070       -3.3451237665  MEMB      296             0.0000000000
     36865       296  PMPE      H10Y          -39.3671572128       27.3720493801       -4.2848755580  MEMB      296             0.0000000000
     36866       296  PMPE      C311          -38.1752009571       26.1883182762       -2.8811117855  MEMB      296             0.0000000000
     36867       296  PMPE      H11X          -37.3817784568       25.5472167682       -3.3100079882  MEMB      296             0.0000000000
     36868       296  PMPE      H11Y          -38.5465613945       25.6368531250       -1.9896964364  MEMB      296             0.0000000000
     36869       296  PMPE      C312          -37.4725672401       27.4904147569       -2.4670897546  MEMB      296             0.0000000000
     36870       296  PMPE      H12X          -36.7485613734       27.1626846990       -1.7032020147  MEMB      296             0.0000000000
     36871       296  PMPE      H12Y          -38.1699124772       28.1903179013       -1.9714375520  MEMB      296             0.0000000000
     36872       296  PMPE      C313          -36.7026723625       28.2495904047       -3.5630401347  MEMB      296             0.0000000000
     36873       296  PMPE      H13X          -37.4105378153       28.3062797701       -4.4265980016  MEMB      296             0.0000000000
     36874       296  PMPE      H13Y          -35.7931532507       27.6786211638       -3.8709081751  MEMB      296             0.0000000000
     36875       296  PMPE      C314          -36.2246012181       29.6576493217       -3.1254293353  MEMB      296             0.0000000000
     36876       296  PMPE      H14X          -37.1110630911       30.3204004329       -2.9777994201  MEMB      296             0.0000000000
     36877       296  PMPE      H14Y          -35.6008487315       30.0535072114       -3.9659585993  MEMB      296             0.0000000000
     36878       296  PMPE      C315          -35.4277547190       29.7681679430       -1.8004036141  MEMB      296             0.0000000000
     36879       296  PMPE      H15X          -36.0735130822       29.6392078310       -0.9096017211  MEMB      296             0.0000000000
     36880       296  PMPE      H15Y          -35.0969317795       30.8103985164       -1.7329736379  MEMB      296             0.0000000000
     36881       296  PMPE      C316          -34.2676702431       28.8039426560       -1.5688098700  MEMB      296             0.0000000000
     36882       296  PMPE      H16X          -33.5516144825       28.7921869419       -2.4186990783  MEMB      296             0.0000000000
     36883       296  PMPE      H16Y          -34.6550606298       27.8037244420       -1.2689733043  MEMB      296             0.0000000000
     36884       296  PMPE      H16Z          -33.6959322469       29.1166132885       -0.6796497263  MEMB      296             0.0000000000
     36885       297  PMPE      N              22.0407887351       37.8380201585      -18.0585428998  MEMB      297             0.0000000000
     36886       297  PMPE      HN1            22.6968051619       37.9012278035      -17.2558600745  MEMB      297             0.0000000000
     36887       297  PMPE      HN2            21.0501871430       37.7020143182      -17.7525440568  MEMB      297             0.0000000000
     36888       297  PMPE      HN3            22.3412795041       37.0668762498      -18.6729714069  MEMB      297             0.0000000000
     36889       297  PMPE      C12            22.1066996004       39.0756785700      -18.8883627383  MEMB      297             0.0000000000
     36890       297  PMPE      H12A           23.1133722790       39.1026734657      -19.3768285069  MEMB      297             0.0000000000
     36891       297  PMPE      H12B           21.9416334255       39.9201370833      -18.1989834240  MEMB      297             0.0000000000
     36892       297  PMPE      C11            21.0557833378       39.0192614511      -19.9991361743  MEMB      297             0.0000000000
     36893       297  PMPE      H11A           21.2504804979       38.0822383247      -20.5422399384  MEMB      297             0.0000000000
     36894       297  PMPE      H11B           21.1900005904       39.8633402200      -20.6957878808  MEMB      297             0.0000000000
     36895       297  PMPE      P              18.8664528498       40.1701924835      -19.0551573408  MEMB      297             0.0000000000
     36896       297  PMPE      O13            17.4804393230       39.6922203290      -19.1881485038  MEMB      297             0.0000000000
     36897       297  PMPE      O14            19.3901302706       41.3784382787      -19.7276429064  MEMB      297             0.0000000000
     36898       297  PMPE      O11            19.2964110355       40.2552484545      -17.5468251839  MEMB      297             0.0000000000
     36899       297  PMPE      O12            19.7235352814       38.9325261579      -19.5583729183  MEMB      297             0.0000000000
     36900       297  PMPE      C1             19.7845428144       41.4928544574      -17.0371336655  MEMB      297             0.0000000000
     36901       297  PMPE      HA             18.9631920957       42.2507384697      -17.0477746726  MEMB      297             0.0000000000
     36902       297  PMPE      HB             20.6697524084       41.8819747220      -17.6071447250  MEMB      297             0.0000000000
     36903       297  PMPE      C2             20.1866874458       41.1970782363      -15.5955912661  MEMB      297             0.0000000000
     36904       297  PMPE      HS             20.5579592563       42.1299285518      -15.1178331351  MEMB      297             0.0000000000
     36905       297  PMPE      O21            21.2079035500       40.1652643056      -15.5403905662  MEMB      297             0.0000000000
     36906       297  PMPE      C21            22.4725787781       40.4882548820      -15.8498358667  MEMB      297             0.0000000000
     36907       297  PMPE      O22            22.8190585346       41.4661902965      -16.4706521190  MEMB      297             0.0000000000
     36908       297  PMPE      C22            23.4739472454       39.4260737601      -15.3840658814  MEMB      297             0.0000000000
     36909       297  PMPE      H2R            24.2292972407       39.2301560282      -16.1792058312  MEMB      297             0.0000000000
     36910       297  PMPE      H2S            22.9915724061       38.4390243137      -15.2550141231  MEMB      297             0.0000000000
     36911       297  PMPE      C3             18.9337680361       40.7124858295      -14.7969210650  MEMB      297             0.0000000000
     36912       297  PMPE      HX             18.2479998296       40.1341782736      -15.4706330300  MEMB      297             0.0000000000
     36913       297  PMPE      HY             18.3940385019       41.6363862432      -14.4845984196  MEMB      297             0.0000000000
     36914       297  PMPE      O31            19.3431660195       39.9568575223      -13.6349949256  MEMB      297             0.0000000000
     36915       297  PMPE      C31            19.2662455547       38.6489930587      -13.7995662308  MEMB      297             0.0000000000
     36916       297  PMPE      O32            18.7484824863       38.0574888623      -14.7248706668  MEMB      297             0.0000000000
     36917       297  PMPE      C32            19.9681720464       37.9460047569      -12.7187901044  MEMB      297             0.0000000000
     36918       297  PMPE      H2X            20.7082761100       38.5151273644      -12.1218979445  MEMB      297             0.0000000000
     36919       297  PMPE      H2Y            20.4446515558       37.0321734645      -13.1582893908  MEMB      297             0.0000000000
     36920       297  PMPE      C23            24.2165631765       40.0116659940      -14.1428338139  MEMB      297             0.0000000000
     36921       297  PMPE      H3R            24.5003268373       41.0961298346      -14.2018815539  MEMB      297             0.0000000000
     36922       297  PMPE      H3S            25.1782543855       39.4818923287      -13.9857222276  MEMB      297             0.0000000000
     36923       297  PMPE      C24            23.4265980926       39.7976975688      -12.8548167018  MEMB      297             0.0000000000
     36924       297  PMPE      H4R            24.1550462163       39.5342488312      -12.0414316801  MEMB      297             0.0000000000
     36925       297  PMPE      H4S            22.7526553576       38.9426262701      -13.0499599958  MEMB      297             0.0000000000
     36926       297  PMPE      C25            22.5845973818       41.0346012504      -12.5286250426  MEMB      297             0.0000000000
     36927       297  PMPE      H5R            21.8530687060       41.2325351335      -13.3388828184  MEMB      297             0.0000000000
     36928       297  PMPE      H5S            23.2974528580       41.8809977995      -12.5023585318  MEMB      297             0.0000000000
     36929       297  PMPE      C26            21.8734580205       40.9679303382      -11.2061440035  MEMB      297             0.0000000000
     36930       297  PMPE      H6R            22.5944221422       40.5829482513      -10.4294712936  MEMB      297             0.0000000000
     36931       297  PMPE      H6S            20.9621435113       40.3424406964      -11.2682400294  MEMB      297             0.0000000000
     36932       297  PMPE      C27            21.3314924789       42.2673688230      -10.7373007514  MEMB      297             0.0000000000
     36933       297  PMPE      H7R            20.4744711099       42.7100287960      -11.3216036899  MEMB      297             0.0000000000
     36934       297  PMPE      H7S            22.0955475177       43.0383475245      -10.7278840215  MEMB      297             0.0000000000
     36935       297  PMPE      C28            21.1009658066       41.8918335722       -9.3364323839  MEMB      297             0.0000000000
     36936       297  PMPE      H8R            21.5958121679       41.2115712424       -8.7120157104  MEMB      297             0.0000000000
     36937       297  PMPE      H8S            20.1625839177       41.2311085130       -9.5907057644  MEMB      297             0.0000000000
     36938       297  PMPE      C29            21.0462398385       43.1976107327       -8.5221350949  MEMB      297             0.0000000000
     36939       297  PMPE      H9R            20.8922822183       44.0252997344       -9.0792437031  MEMB      297             0.0000000000
     36940       297  PMPE      C217           21.9881933173       43.7131174989       -7.5992072722  MEMB      297             0.0000000000
     36941       297  PMPE      H17R           22.1043572480       44.7567818864       -7.9865295309  MEMB      297             0.0000000000
     36942       297  PMPE      H17S           22.6128928873       42.8887390905       -7.6992990524  MEMB      297             0.0000000000
     36943       297  PMPE      C210           20.6655297147       43.3293664482       -7.0602411215  MEMB      297             0.0000000000
     36944       297  PMPE      H10R           20.2774488923       44.3737176459       -6.6997689869  MEMB      297             0.0000000000
     36945       297  PMPE      C211           20.3211694132       41.8634861569       -6.2265873135  MEMB      297             0.0000000000
     36946       297  PMPE      H11R           20.6769504667       42.0688410047       -5.2098228033  MEMB      297             0.0000000000
     36947       297  PMPE      H11S           20.9576149555       41.1664244157       -6.5528514797  MEMB      297             0.0000000000
     36948       297  PMPE      C212           18.7010532802       40.9492142811       -6.2291523902  MEMB      297             0.0000000000
     36949       297  PMPE      H12R           18.0868966092       40.6878364976       -7.3955267129  MEMB      297             0.0000000000
     36950       297  PMPE      H12S           17.9362433124       41.4497220873       -5.7041612923  MEMB      297             0.0000000000
     36951       297  PMPE      C213           18.5591377053       39.7484783967       -5.9226500729  MEMB      297             0.0000000000
     36952       297  PMPE      H13R           19.1350383725       39.3070216309       -6.7249717899  MEMB      297             0.0000000000
     36953       297  PMPE      H13S           17.4849201045       39.6287814890       -6.2088293877  MEMB      297             0.0000000000
     36954       297  PMPE      C214           19.1502837170       39.7407262863       -4.5763826919  MEMB      297             0.0000000000
     36955       297  PMPE      H14R           20.1608502188       40.2037603648       -4.5843862765  MEMB      297             0.0000000000
     36956       297  PMPE      H14S           19.3290832644       38.6807305914       -4.4420285362  MEMB      297             0.0000000000
     36957       297  PMPE      C215           18.2916756478       40.4332650764       -3.5104514006  MEMB      297             0.0000000000
     36958       297  PMPE      H15R           17.2385317502       40.4883042930       -3.8486049850  MEMB      297             0.0000000000
     36959       297  PMPE      H15S           18.5599214071       41.4604025450       -3.3542480570  MEMB      297             0.0000000000
     36960       297  PMPE      C216           18.4099807336       39.9152929833       -2.0986749141  MEMB      297             0.0000000000
     36961       297  PMPE      H16R           19.4652539569       39.8147158988       -1.7798068689  MEMB      297             0.0000000000
     36962       297  PMPE      H16S           17.9732144847       40.6043150239       -1.3473486998  MEMB      297             0.0000000000
     36963       297  PMPE      H16T           17.8608112261       38.9614798287       -2.0670895010  MEMB      297             0.0000000000
     36964       297  PMPE      C33            18.8857837793       37.4666630919      -11.8505269311  MEMB      297             0.0000000000
     36965       297  PMPE      H3X            18.2443387403       36.6796975905      -12.3871200188  MEMB      297             0.0000000000
     36966       297  PMPE      H3Y            18.3466864594       38.1450290305      -11.2045720892  MEMB      297             0.0000000000
     36967       297  PMPE      C34            19.6257751589       36.8525622406      -10.8692007895  MEMB      297             0.0000000000
     36968       297  PMPE      H4X            20.2217051873       36.2458133421      -11.5168072084  MEMB      297             0.0000000000
     36969       297  PMPE      H4Y            18.7077984242       36.1876965723      -10.7247486515  MEMB      297             0.0000000000
     36970       297  PMPE      C35            20.4622638699       37.4378886658       -9.5871628929  MEMB      297             0.0000000000
     36971       297  PMPE      H5X            19.6294080283       37.8937905196       -9.0064976143  MEMB      297             0.0000000000
     36972       297  PMPE      H5Y            21.3224730840       37.8088182395      -10.0585364746  MEMB      297             0.0000000000
     36973       297  PMPE      C36            21.3633862714       36.6292732932       -8.5169875475  MEMB      297             0.0000000000
     36974       297  PMPE      H6X            21.7709768070       35.6494394030       -8.8579463310  MEMB      297             0.0000000000
     36975       297  PMPE      H6Y            20.7385934069       36.3569502199       -7.6702958695  MEMB      297             0.0000000000
     36976       297  PMPE      C37            21.9041443506       37.1118130971       -7.3572434248  MEMB      297             0.0000000000
     36977       297  PMPE      H7X            22.1606714056       36.3572802287       -6.5692941071  MEMB      297             0.0000000000
     36978       297  PMPE      H7Y            21.1925702514       37.8843510286       -7.0019306063  MEMB      297             0.0000000000
     36979       297  PMPE      C38            23.0563425207       37.5198720961       -8.0574503277  MEMB      297             0.0000000000
     36980       297  PMPE      H8X            22.8844171913       38.3544758257       -8.7742330034  MEMB      297             0.0000000000
     36981       297  PMPE      H8Y            23.4847981533       36.6569806410       -8.6465284136  MEMB      297             0.0000000000
     36982       297  PMPE      C39            23.8533310333       38.0402964529       -6.9498261847  MEMB      297             0.0000000000
     36983       297  PMPE      H9X            24.5646083489       38.4175331368       -7.5918991120  MEMB      297             0.0000000000
     36984       297  PMPE      H9Y            24.2073133505       37.2666894750       -6.2555432909  MEMB      297             0.0000000000
     36985       297  PMPE      C310           23.3305788176       39.2595018007       -6.2228627496  MEMB      297             0.0000000000
     36986       297  PMPE      H10X           22.4550945799       38.8912242195       -5.6744386473  MEMB      297             0.0000000000
     36987       297  PMPE      H10Y           23.0048047796       40.0887816065       -6.8901101856  MEMB      297             0.0000000000
     36988       297  PMPE      C311           24.2434515940       39.9159484642       -5.2032941367  MEMB      297             0.0000000000
     36989       297  PMPE      H11X           25.1857582249       40.2520776067       -5.6636021004  MEMB      297             0.0000000000
     36990       297  PMPE      H11Y           24.3773776521       39.3495231570       -4.2813501880  MEMB      297             0.0000000000
     36991       297  PMPE      C312           23.5074036503       41.1147854265       -4.7129237641  MEMB      297             0.0000000000
     36992       297  PMPE      H12X           22.4389159049       40.9738184478       -4.7235020566  MEMB      297             0.0000000000
     36993       297  PMPE      H12Y           23.5921518146       41.6344582571       -5.6503384967  MEMB      297             0.0000000000
     36994       297  PMPE      C313           23.9688998199       41.7729099318       -3.3867970111  MEMB      297             0.0000000000
     36995       297  PMPE      H13X           23.6941435826       42.8459144489       -3.3491180849  MEMB      297             0.0000000000
     36996       297  PMPE      H13Y           25.0786128223       41.6786105576       -3.2833738584  MEMB      297             0.0000000000
     36997       297  PMPE      C314           23.2092016761       41.2270651056       -2.2609119578  MEMB      297             0.0000000000
     36998       297  PMPE      H14X           23.4414547234       40.1515465041       -2.3874079384  MEMB      297             0.0000000000
     36999       297  PMPE      H14Y           22.1711235106       41.4751177779       -2.4930408258  MEMB      297             0.0000000000
     37000       297  PMPE      C315           23.5391372846       41.6916008964       -0.8505961733  MEMB      297             0.0000000000
     37001       297  PMPE      H15X           23.1844516173       40.8974444911       -0.1448406358  MEMB      297             0.0000000000
     37002       297  PMPE      H15Y           23.2931886329       42.7008609264       -0.5759988355  MEMB      297             0.0000000000
     37003       297  PMPE      C316           24.9146647104       41.7942343808       -0.6458260543  MEMB      297             0.0000000000
     37004       297  PMPE      H16X           24.8720351453       40.7776008985       -1.1481912031  MEMB      297             0.0000000000
     37005       297  PMPE      H16Y           25.2836339983       41.7648847486        0.4195783593  MEMB      297             0.0000000000
     37006       297  PMPE      H16Z           25.5937467737       42.3339683139       -1.3292272084  MEMB      297             0.0000000000
     37007       298  PMPE      N              40.7161953632      -15.9434068893      -20.5697882586  MEMB      298             0.0000000000
     37008       298  PMPE      HN1            41.7307097655      -16.1343261660      -20.6483574116  MEMB      298             0.0000000000
     37009       298  PMPE      HN2            40.4628768060      -16.3879834131      -19.6675087073  MEMB      298             0.0000000000
     37010       298  PMPE      HN3            40.2055354995      -16.3327626292      -21.3901430365  MEMB      298             0.0000000000
     37011       298  PMPE      C12            40.4223312158      -14.4729309675      -20.3952784239  MEMB      298             0.0000000000
     37012       298  PMPE      H12A           39.3380177618      -14.3300382399      -20.5603855748  MEMB      298             0.0000000000
     37013       298  PMPE      H12B           40.9792099077      -13.9024866793      -21.1617741411  MEMB      298             0.0000000000
     37014       298  PMPE      C11            40.7760494954      -14.0142054231      -18.9771517538  MEMB      298             0.0000000000
     37015       298  PMPE      H11A           40.2713875979      -14.6690413875      -18.2315549032  MEMB      298             0.0000000000
     37016       298  PMPE      H11B           40.4247726834      -12.9510834278      -18.8544216580  MEMB      298             0.0000000000
     37017       298  PMPE      P              43.1447312746      -12.9548063786      -18.3985016427  MEMB      298             0.0000000000
     37018       298  PMPE      O13            42.8164443066      -12.4033560181      -17.0759089920  MEMB      298             0.0000000000
     37019       298  PMPE      O14            43.1358089784      -12.0522202269      -19.5513907685  MEMB      298             0.0000000000
     37020       298  PMPE      O11            44.5143646629      -13.6698225181      -18.3434498481  MEMB      298             0.0000000000
     37021       298  PMPE      O12            42.1638986838      -14.1815096617      -18.7558410330  MEMB      298             0.0000000000
     37022       298  PMPE      C1             44.6063694975      -15.0669316463      -18.3444122840  MEMB      298             0.0000000000
     37023       298  PMPE      HA             45.6104398325      -15.3370390801      -18.7146484366  MEMB      298             0.0000000000
     37024       298  PMPE      HB             43.8916538423      -15.5933602736      -19.0257780939  MEMB      298             0.0000000000
     37025       298  PMPE      C2             44.4970237294      -15.5230940275      -16.9031161971  MEMB      298             0.0000000000
     37026       298  PMPE      HS             43.5136004261      -15.2905150916      -16.4632778740  MEMB      298             0.0000000000
     37027       298  PMPE      O21            45.5912263060      -14.9828243087      -16.1366169942  MEMB      298             0.0000000000
     37028       298  PMPE      C21            45.3744410144      -14.6623057286      -14.8816469509  MEMB      298             0.0000000000
     37029       298  PMPE      O22            44.3992896596      -14.9349654504      -14.2010954386  MEMB      298             0.0000000000
     37030       298  PMPE      C22            46.4869547966      -13.6932176029      -14.4294415968  MEMB      298             0.0000000000
     37031       298  PMPE      H2R            46.4667809187      -12.8793153111      -15.1899861191  MEMB      298             0.0000000000
     37032       298  PMPE      H2S            47.4739522960      -14.1795835357      -14.4063962297  MEMB      298             0.0000000000
     37033       298  PMPE      C3             44.5372176302      -16.9692583365      -16.9740482982  MEMB      298             0.0000000000
     37034       298  PMPE      HX             45.4449213503      -17.2373606342      -17.6325112339  MEMB      298             0.0000000000
     37035       298  PMPE      HY             43.6710375550      -17.4460809495      -17.4641263265  MEMB      298             0.0000000000
     37036       298  PMPE      O31            44.6883392430      -17.4107732820      -15.6290634741  MEMB      298             0.0000000000
     37037       298  PMPE      C31            43.7209389721      -17.7645840781      -14.8442861268  MEMB      298             0.0000000000
     37038       298  PMPE      O32            42.6062629950      -18.0421728269      -15.2449399898  MEMB      298             0.0000000000
     37039       298  PMPE      C32            44.4285691915      -18.0240174287      -13.3889081630  MEMB      298             0.0000000000
     37040       298  PMPE      H2X            44.9670370616      -17.1344682195      -13.1419421086  MEMB      298             0.0000000000
     37041       298  PMPE      H2Y            45.1408916966      -18.8882807296      -13.2189606018  MEMB      298             0.0000000000
     37042       298  PMPE      C23            46.2174186485      -13.0204392516      -13.0530149444  MEMB      298             0.0000000000
     37043       298  PMPE      H3R            45.1671541025      -12.6740227995      -13.1513922460  MEMB      298             0.0000000000
     37044       298  PMPE      H3S            46.8476129987      -12.1051960125      -12.9306414443  MEMB      298             0.0000000000
     37045       298  PMPE      C24            46.4925238043      -13.9331642604      -11.8310533920  MEMB      298             0.0000000000
     37046       298  PMPE      H4R            47.4901640024      -14.3962101880      -12.0019053441  MEMB      298             0.0000000000
     37047       298  PMPE      H4S            45.7680173599      -14.7766894509      -11.7867002715  MEMB      298             0.0000000000
     37048       298  PMPE      C25            46.4477112871      -13.2660345440      -10.4284940489  MEMB      298             0.0000000000
     37049       298  PMPE      H5R            45.4561919643      -12.7805049733      -10.2909280683  MEMB      298             0.0000000000
     37050       298  PMPE      H5S            47.2336381467      -12.4744348860      -10.3043595737  MEMB      298             0.0000000000
     37051       298  PMPE      C26            46.6893882938      -14.2821207901       -9.2888096623  MEMB      298             0.0000000000
     37052       298  PMPE      H6R            47.7516815145      -14.5684388579       -9.4410688906  MEMB      298             0.0000000000
     37053       298  PMPE      H6S            46.1055832652      -15.2343180266       -9.3392912563  MEMB      298             0.0000000000
     37054       298  PMPE      C27            46.5453068191      -13.6267838721       -7.8947410099  MEMB      298             0.0000000000
     37055       298  PMPE      H7R            45.5962659046      -13.0866897456       -7.8326946973  MEMB      298             0.0000000000
     37056       298  PMPE      H7S            47.4068191594      -12.9227326012       -7.7619601010  MEMB      298             0.0000000000
     37057       298  PMPE      C28            46.4736953465      -14.5755367116       -6.7159897755  MEMB      298             0.0000000000
     37058       298  PMPE      H8R            45.6621246703      -15.2797152120       -6.7018602742  MEMB      298             0.0000000000
     37059       298  PMPE      H8S            46.5842538418      -14.1248653713       -5.7119777840  MEMB      298             0.0000000000
     37060       298  PMPE      C29            47.5256078342      -15.3710465919       -6.9614186124  MEMB      298             0.0000000000
     37061       298  PMPE      H9R            48.3845146737      -14.6212820462       -7.2078287698  MEMB      298             0.0000000000
     37062       298  PMPE      C217           47.4551992310      -16.8148257594       -7.3275107963  MEMB      298             0.0000000000
     37063       298  PMPE      H17R           48.2774558812      -17.3729427477       -7.1599481549  MEMB      298             0.0000000000
     37064       298  PMPE      H17S           46.6593539081      -17.1417082014       -7.8651311951  MEMB      298             0.0000000000
     37065       298  PMPE      C210           47.4636622623      -16.5651659518       -5.9240258301  MEMB      298             0.0000000000
     37066       298  PMPE      H10R           48.2735415476      -16.8586185803       -5.4049524010  MEMB      298             0.0000000000
     37067       298  PMPE      C211           46.5453420240      -17.4420851391       -5.2349123045  MEMB      298             0.0000000000
     37068       298  PMPE      H11R           46.3639272891      -18.4383101889       -5.6335243908  MEMB      298             0.0000000000
     37069       298  PMPE      H11S           45.8179180393      -16.6782861892       -5.3175219740  MEMB      298             0.0000000000
     37070       298  PMPE      C212           46.7153215561      -17.6969780571       -3.7773619810  MEMB      298             0.0000000000
     37071       298  PMPE      H12R           47.1869880007      -18.4592046930       -3.1985681067  MEMB      298             0.0000000000
     37072       298  PMPE      H12S           45.8290723273      -17.3475068633       -3.2909466489  MEMB      298             0.0000000000
     37073       298  PMPE      C213           47.5829716453      -16.9423019640       -3.1694482376  MEMB      298             0.0000000000
     37074       298  PMPE      H13R           47.1635362778      -15.9061599155       -3.3688029155  MEMB      298             0.0000000000
     37075       298  PMPE      H13S           48.6259860122      -17.3184795038       -3.3850219599  MEMB      298             0.0000000000
     37076       298  PMPE      C214           47.4507780162      -16.7597337212       -1.7401692644  MEMB      298             0.0000000000
     37077       298  PMPE      H14R           47.4871395334      -17.4768290352       -1.0828078315  MEMB      298             0.0000000000
     37078       298  PMPE      H14S           46.4498319495      -16.0413319085       -1.8084075348  MEMB      298             0.0000000000
     37079       298  PMPE      C215           48.8801311068      -16.0792641144       -0.3189093321  MEMB      298             0.0000000000
     37080       298  PMPE      H15R           48.3450051877      -14.8872858554       -0.3447698696  MEMB      298             0.0000000000
     37081       298  PMPE      H15S           49.8834839261      -16.1633699550       -0.6373959114  MEMB      298             0.0000000000
     37082       298  PMPE      C216           48.6708535458      -15.3743896283        1.9864007869  MEMB      298             0.0000000000
     37083       298  PMPE      H16R           48.0875256819      -16.3492584475        2.3290815924  MEMB      298             0.0000000000
     37084       298  PMPE      H16S           49.5195448781      -15.0700200896        2.3326480708  MEMB      298             0.0000000000
     37085       298  PMPE      H16T           47.9533897334      -14.4505799264        1.7731745651  MEMB      298             0.0000000000
     37086       298  PMPE      C33            43.5392757841      -18.4373138187      -12.3238187990  MEMB      298             0.0000000000
     37087       298  PMPE      H3X            43.7668151326      -19.1956053235      -11.5945896061  MEMB      298             0.0000000000
     37088       298  PMPE      H3Y            43.0777676825      -19.1729837944      -12.9733023388  MEMB      298             0.0000000000
     37089       298  PMPE      C34            42.8409316695      -17.1783824432      -11.7056822612  MEMB      298             0.0000000000
     37090       298  PMPE      H4X            42.2447953704      -16.5984531769      -12.4439814474  MEMB      298             0.0000000000
     37091       298  PMPE      H4Y            43.4002942327      -16.6331577222      -10.9907177819  MEMB      298             0.0000000000
     37092       298  PMPE      C35            41.8100554455      -17.4196422793      -10.6859392073  MEMB      298             0.0000000000
     37093       298  PMPE      H5X            42.0556882785      -18.0689320887      -10.0037331622  MEMB      298             0.0000000000
     37094       298  PMPE      H5Y            41.5590887662      -18.2450958849      -11.1484877564  MEMB      298             0.0000000000
     37095       298  PMPE      C36            40.7180415737      -16.5177164320      -10.1913695179  MEMB      298             0.0000000000
     37096       298  PMPE      H6X            39.8141944258      -17.0385110982       -9.7334109152  MEMB      298             0.0000000000
     37097       298  PMPE      H6Y            40.3580738711      -16.0850603997      -11.1513964765  MEMB      298             0.0000000000
     37098       298  PMPE      C37            41.4152995967      -15.7135715464       -9.2069395064  MEMB      298             0.0000000000
     37099       298  PMPE      H7X            40.6310371489      -15.1144060476       -8.7253601134  MEMB      298             0.0000000000
     37100       298  PMPE      H7Y            42.1714077524      -15.1858531229       -9.8345725305  MEMB      298             0.0000000000
     37101       298  PMPE      C38            42.1642803426      -16.5367050335       -8.1612022365  MEMB      298             0.0000000000
     37102       298  PMPE      H8X            43.2560826518      -16.5153175708       -8.3949262040  MEMB      298             0.0000000000
     37103       298  PMPE      H8Y            41.8548795920      -17.5961206890       -8.2049187333  MEMB      298             0.0000000000
     37104       298  PMPE      C39            41.8402708052      -16.0943777051       -6.7362783438  MEMB      298             0.0000000000
     37105       298  PMPE      H9X            40.7535917313      -16.2490605657       -6.5356908058  MEMB      298             0.0000000000
     37106       298  PMPE      H9Y            42.0540675738      -15.0099799444       -6.6781809938  MEMB      298             0.0000000000
     37107       298  PMPE      C310           42.6776565264      -16.9192308319       -5.7524990150  MEMB      298             0.0000000000
     37108       298  PMPE      H10X           43.7449998413      -16.6347145001       -5.8660256848  MEMB      298             0.0000000000
     37109       298  PMPE      H10Y           42.5194535025      -17.9717767162       -6.0948184113  MEMB      298             0.0000000000
     37110       298  PMPE      C311           42.3442818407      -16.8015347806       -4.2549141477  MEMB      298             0.0000000000
     37111       298  PMPE      H11X           42.9588810355      -17.5492345138       -3.6940765375  MEMB      298             0.0000000000
     37112       298  PMPE      H11Y           41.2501348893      -16.9629927582       -4.1409809715  MEMB      298             0.0000000000
     37113       298  PMPE      C312           42.6555188997      -15.4285130376       -3.6388649833  MEMB      298             0.0000000000
     37114       298  PMPE      H12X           42.1766461999      -14.6956645314       -4.2979083504  MEMB      298             0.0000000000
     37115       298  PMPE      H12Y           43.7203023325      -15.1842845843       -3.7564454565  MEMB      298             0.0000000000
     37116       298  PMPE      C313           42.3006890976      -15.2619402172       -2.1516116215  MEMB      298             0.0000000000
     37117       298  PMPE      H13X           41.2169242842      -15.4735376022       -1.9913649667  MEMB      298             0.0000000000
     37118       298  PMPE      H13Y           42.5352516703      -14.2327763852       -1.7652637497  MEMB      298             0.0000000000
     37119       298  PMPE      C314           43.1459828811      -16.1895201806       -1.2922940247  MEMB      298             0.0000000000
     37120       298  PMPE      H14X           44.1841981719      -16.2248588812       -1.6959056668  MEMB      298             0.0000000000
     37121       298  PMPE      H14Y           42.7550356396      -17.2211490049       -1.3510554033  MEMB      298             0.0000000000
     37122       298  PMPE      C315           43.0765136608      -15.6987040537        0.1285692377  MEMB      298             0.0000000000
     37123       298  PMPE      H15X           43.1745209997      -16.5442096241        0.8368138013  MEMB      298             0.0000000000
     37124       298  PMPE      H15Y           42.0998399460      -15.2280875772        0.3482707860  MEMB      298             0.0000000000
     37125       298  PMPE      C316           44.0663911650      -14.6290380597        0.3764450627  MEMB      298             0.0000000000
     37126       298  PMPE      H16X           43.8402316544      -13.7380945792       -0.0976762452  MEMB      298             0.0000000000
     37127       298  PMPE      H16Y           45.0457164580      -14.6637466839       -0.1282503988  MEMB      298             0.0000000000
     37128       298  PMPE      H16Z           44.2685376532      -14.6271852783        1.4607170313  MEMB      298             0.0000000000
     37129       299  PMPE      N               1.7112496433      -46.5670942947      -19.6224410709  MEMB      299             0.0000000000
     37130       299  PMPE      HN1             1.7310748295      -47.5185254099      -19.2141777671  MEMB      299             0.0000000000
     37131       299  PMPE      HN2             1.4936104732      -45.8715191286      -18.8746948788  MEMB      299             0.0000000000
     37132       299  PMPE      HN3             1.0034585485      -46.5455086986      -20.3941696224  MEMB      299             0.0000000000
     37133       299  PMPE      C12             3.0894946275      -46.3347895695      -20.1716393293  MEMB      299             0.0000000000
     37134       299  PMPE      H12A            3.1743379319      -46.9857783083      -21.0675355764  MEMB      299             0.0000000000
     37135       299  PMPE      H12B            3.7649253523      -46.6620368471      -19.3581696205  MEMB      299             0.0000000000
     37136       299  PMPE      C11             3.4560813473      -44.8642310553      -20.4655365069  MEMB      299             0.0000000000
     37137       299  PMPE      H11A            2.8984741304      -44.4455683761      -21.3125035771  MEMB      299             0.0000000000
     37138       299  PMPE      H11B            4.5039586684      -44.7988144277      -20.8481430749  MEMB      299             0.0000000000
     37139       299  PMPE      P               4.4273139966      -43.6525095695      -18.3499467487  MEMB      299             0.0000000000
     37140       299  PMPE      O13             3.8556855281      -43.0752466629      -17.1269525963  MEMB      299             0.0000000000
     37141       299  PMPE      O14             5.4714884423      -43.0280355009      -19.1911437123  MEMB      299             0.0000000000
     37142       299  PMPE      O11             4.9310635604      -45.0117380224      -17.7743735398  MEMB      299             0.0000000000
     37143       299  PMPE      O12             3.2319923185      -44.0526215393      -19.3181775271  MEMB      299             0.0000000000
     37144       299  PMPE      C1              6.0007527206      -45.7227243632      -18.3461821941  MEMB      299             0.0000000000
     37145       299  PMPE      HA              6.7043124643      -45.1024772057      -18.9562484596  MEMB      299             0.0000000000
     37146       299  PMPE      HB              5.6150565664      -46.5302908039      -18.9665718028  MEMB      299             0.0000000000
     37147       299  PMPE      C2              6.8138654155      -46.4854576694      -17.3379701850  MEMB      299             0.0000000000
     37148       299  PMPE      HS              7.3411252286      -47.2969272192      -17.8951184364  MEMB      299             0.0000000000
     37149       299  PMPE      O21             6.1532005688      -47.0028438853      -16.1841594899  MEMB      299             0.0000000000
     37150       299  PMPE      C21             5.2371447873      -47.8788352188      -16.3749857124  MEMB      299             0.0000000000
     37151       299  PMPE      O22             4.9356834929      -48.3822540153      -17.4400102427  MEMB      299             0.0000000000
     37152       299  PMPE      C22             4.4685790405      -48.0646509826      -15.0530442079  MEMB      299             0.0000000000
     37153       299  PMPE      H2R             3.5559097221      -48.6589200676      -15.2337621334  MEMB      299             0.0000000000
     37154       299  PMPE      H2S             4.1862710498      -47.0491816657      -14.6765387337  MEMB      299             0.0000000000
     37155       299  PMPE      C3              7.7945651025      -45.5380175735      -16.8323541232  MEMB      299             0.0000000000
     37156       299  PMPE      HX              8.5006700150      -45.2424622740      -17.6676881025  MEMB      299             0.0000000000
     37157       299  PMPE      HY              8.2065511246      -46.2492227628      -16.0359394042  MEMB      299             0.0000000000
     37158       299  PMPE      O31             7.4417404936      -44.2921595905      -16.2862503728  MEMB      299             0.0000000000
     37159       299  PMPE      C31             6.7927253976      -44.5338756414      -15.1795690304  MEMB      299             0.0000000000
     37160       299  PMPE      O32             6.9654189306      -45.5492626567      -14.4751912279  MEMB      299             0.0000000000
     37161       299  PMPE      C32             6.4215949754      -43.1176626081      -14.6122510731  MEMB      299             0.0000000000
     37162       299  PMPE      H2X             6.1604189173      -42.5741352336      -15.4926789946  MEMB      299             0.0000000000
     37163       299  PMPE      H2Y             7.0125370069      -42.4064959295      -14.0028400651  MEMB      299             0.0000000000
     37164       299  PMPE      C23             5.2641190151      -48.8951117911      -14.0369613671  MEMB      299             0.0000000000
     37165       299  PMPE      H3R             6.2682167003      -49.1540436791      -14.4343937786  MEMB      299             0.0000000000
     37166       299  PMPE      H3S             4.7486394911      -49.8572505198      -13.8225797416  MEMB      299             0.0000000000
     37167       299  PMPE      C24             5.4190779879      -48.1283121214      -12.7540800865  MEMB      299             0.0000000000
     37168       299  PMPE      H4R             4.4309496815      -48.0364342815      -12.2628275260  MEMB      299             0.0000000000
     37169       299  PMPE      H4S             5.9473613691      -47.1819433378      -12.9431939353  MEMB      299             0.0000000000
     37170       299  PMPE      C25             6.2251128310      -48.8347955531      -11.7747680837  MEMB      299             0.0000000000
     37171       299  PMPE      H5R             7.1732710577      -49.1811499754      -12.2448484368  MEMB      299             0.0000000000
     37172       299  PMPE      H5S             5.6073336859      -49.7649175011      -11.7225181654  MEMB      299             0.0000000000
     37173       299  PMPE      C26             6.2931064885      -48.0951734009      -10.3585986155  MEMB      299             0.0000000000
     37174       299  PMPE      H6R             6.8372939284      -48.5008484260       -9.4475193756  MEMB      299             0.0000000000
     37175       299  PMPE      H6S             5.2992322319      -48.1918649588       -9.9216134247  MEMB      299             0.0000000000
     37176       299  PMPE      C27             7.1727104291      -46.9573146682      -10.2550577095  MEMB      299             0.0000000000
     37177       299  PMPE      H7R             6.4906491113      -46.2750712141      -10.7533262704  MEMB      299             0.0000000000
     37178       299  PMPE      H7S             8.1625117505      -47.1232263197      -10.7184713140  MEMB      299             0.0000000000
     37179       299  PMPE      C28             7.3583758164      -46.6557825810       -8.8333841224  MEMB      299             0.0000000000
     37180       299  PMPE      H8R             8.1749639262      -47.2751429460       -8.3349974958  MEMB      299             0.0000000000
     37181       299  PMPE      H8S             6.3669235464      -46.6605610872       -8.3360964452  MEMB      299             0.0000000000
     37182       299  PMPE      C29             7.6468847813      -45.3930326800       -8.6386434626  MEMB      299             0.0000000000
     37183       299  PMPE      H9R             7.1329149575      -44.6503486730       -9.3514667592  MEMB      299             0.0000000000
     37184       299  PMPE      C217            9.1808187175      -45.5560122800       -8.2161830212  MEMB      299             0.0000000000
     37185       299  PMPE      H17R           10.0862453237      -45.1420288533       -8.7047281250  MEMB      299             0.0000000000
     37186       299  PMPE      H17S            9.7457497097      -46.3196203280       -8.5245485433  MEMB      299             0.0000000000
     37187       299  PMPE      C210            7.9818848179      -44.9691527097       -7.2696594924  MEMB      299             0.0000000000
     37188       299  PMPE      H10R            7.6325594561      -43.8796071261       -7.1237831853  MEMB      299             0.0000000000
     37189       299  PMPE      C211            8.2886544950      -45.6686493788       -6.0887030758  MEMB      299             0.0000000000
     37190       299  PMPE      H11R            9.0885066735      -45.2355486321       -5.5002278062  MEMB      299             0.0000000000
     37191       299  PMPE      H11S            8.7903879327      -46.5682662047       -6.4778340460  MEMB      299             0.0000000000
     37192       299  PMPE      C212            6.9583470501      -45.7421184877       -5.3864301289  MEMB      299             0.0000000000
     37193       299  PMPE      H12R            6.1538431379      -46.2812644932       -5.8983634638  MEMB      299             0.0000000000
     37194       299  PMPE      H12S            6.4645607331      -44.7814772920       -5.2134564888  MEMB      299             0.0000000000
     37195       299  PMPE      C213            7.0068135206      -46.4610417196       -4.1077764131  MEMB      299             0.0000000000
     37196       299  PMPE      H13R            5.9981106306      -46.6992869894       -3.7945150605  MEMB      299             0.0000000000
     37197       299  PMPE      H13S            7.2306260764      -45.7326551116       -3.4311626545  MEMB      299             0.0000000000
     37198       299  PMPE      C214            7.8995783742      -47.6155943194       -3.8871393276  MEMB      299             0.0000000000
     37199       299  PMPE      H14R            8.8792776070      -47.5682250455       -4.4365328054  MEMB      299             0.0000000000
     37200       299  PMPE      H14S            7.0854967803      -48.2436619214       -4.1957785324  MEMB      299             0.0000000000
     37201       299  PMPE      C215            7.7278808163      -48.3460442910       -2.5982652704  MEMB      299             0.0000000000
     37202       299  PMPE      H15R            6.7330928014      -48.5976894604       -2.3140150680  MEMB      299             0.0000000000
     37203       299  PMPE      H15S            8.1259111889      -47.8893432248       -1.7240968675  MEMB      299             0.0000000000
     37204       299  PMPE      C216            8.1593827083      -49.6213114068       -2.7580761451  MEMB      299             0.0000000000
     37205       299  PMPE      H16R            7.8560153082      -50.4785399404       -2.8878768707  MEMB      299             0.0000000000
     37206       299  PMPE      H16S            8.9805448888      -49.7915046404       -3.2494315699  MEMB      299             0.0000000000
     37207       299  PMPE      H16T            8.1639071936      -50.3298401777       -1.9403849223  MEMB      299             0.0000000000
     37208       299  PMPE      C33             5.5081598704      -43.4324855942      -13.4884739741  MEMB      299             0.0000000000
     37209       299  PMPE      H3X             6.0338218366      -43.7170385773      -12.5488220713  MEMB      299             0.0000000000
     37210       299  PMPE      H3Y             4.9250834115      -44.2702718412      -13.8547935882  MEMB      299             0.0000000000
     37211       299  PMPE      C34             4.4812505814      -42.3839232180      -13.3284193660  MEMB      299             0.0000000000
     37212       299  PMPE      H4X             3.9976405116      -42.1827153747      -14.2761411642  MEMB      299             0.0000000000
     37213       299  PMPE      H4Y             5.0436048810      -41.5285343992      -13.2891445282  MEMB      299             0.0000000000
     37214       299  PMPE      C35             3.4723218658      -42.5585801743      -12.2243180370  MEMB      299             0.0000000000
     37215       299  PMPE      H5X             2.6560826214      -41.7964957571      -12.2680888949  MEMB      299             0.0000000000
     37216       299  PMPE      H5Y             4.0242000770      -42.5224699875      -11.2563871665  MEMB      299             0.0000000000
     37217       299  PMPE      C36             2.7427653850      -43.8921195717      -12.3300322541  MEMB      299             0.0000000000
     37218       299  PMPE      H6X             3.4583511729      -44.7142233692      -12.1889545028  MEMB      299             0.0000000000
     37219       299  PMPE      H6Y             2.3017759218      -44.0374964667      -13.3437899780  MEMB      299             0.0000000000
     37220       299  PMPE      C37             1.6672386630      -43.9824535441      -11.2522868616  MEMB      299             0.0000000000
     37221       299  PMPE      H7X             1.0728580551      -43.0968222876      -11.4363823772  MEMB      299             0.0000000000
     37222       299  PMPE      H7Y             2.0792100314      -43.7982996689      -10.2430880472  MEMB      299             0.0000000000
     37223       299  PMPE      C38             0.8075497601      -45.2619115325      -11.2655693809  MEMB      299             0.0000000000
     37224       299  PMPE      H8X             0.3633632704      -45.3893540697      -12.2865555193  MEMB      299             0.0000000000
     37225       299  PMPE      H8Y            -0.0668779757      -45.2126493148      -10.5752409016  MEMB      299             0.0000000000
     37226       299  PMPE      C39             1.6005769965      -46.5468573485      -10.9579719449  MEMB      299             0.0000000000
     37227       299  PMPE      H9X             2.3549213109      -46.6425985675      -11.7742458232  MEMB      299             0.0000000000
     37228       299  PMPE      H9Y             0.8688578848      -47.3788768664      -11.0053565022  MEMB      299             0.0000000000
     37229       299  PMPE      C310            2.4613498986      -46.7042719852       -9.6752608542  MEMB      299             0.0000000000
     37230       299  PMPE      H10X            3.1779471674      -45.8487423426       -9.6729583136  MEMB      299             0.0000000000
     37231       299  PMPE      H10Y            2.9958949789      -47.6797719284       -9.7923632837  MEMB      299             0.0000000000
     37232       299  PMPE      C311            1.7578952995      -46.5898522672       -8.3106217711  MEMB      299             0.0000000000
     37233       299  PMPE      H11X            0.8377178195      -47.2068753415       -8.2403595546  MEMB      299             0.0000000000
     37234       299  PMPE      H11Y            1.4999586463      -45.5087804612       -8.3305693564  MEMB      299             0.0000000000
     37235       299  PMPE      C312            2.6155959907      -46.8417884433       -7.0442488166  MEMB      299             0.0000000000
     37236       299  PMPE      H12X            3.5020909192      -46.1749208503       -7.0478243919  MEMB      299             0.0000000000
     37237       299  PMPE      H12Y            2.9556552164      -47.8985258981       -7.0005888915  MEMB      299             0.0000000000
     37238       299  PMPE      C313            1.8772205531      -46.6077011669       -5.7142235605  MEMB      299             0.0000000000
     37239       299  PMPE      H13X            0.9430419745      -47.1933645209       -5.7201820355  MEMB      299             0.0000000000
     37240       299  PMPE      H13Y            1.5034298611      -45.5616936632       -5.6341431154  MEMB      299             0.0000000000
     37241       299  PMPE      C314            2.6650216316      -47.0403857636       -4.4412037794  MEMB      299             0.0000000000
     37242       299  PMPE      H14X            2.1349682040      -46.4771628951       -3.6384787491  MEMB      299             0.0000000000
     37243       299  PMPE      H14Y            3.7464381350      -46.7650037716       -4.4782547638  MEMB      299             0.0000000000
     37244       299  PMPE      C315            2.6000042925      -48.5508568798       -4.0848750280  MEMB      299             0.0000000000
     37245       299  PMPE      H15X            2.9323271551      -49.1410090041       -4.9624890006  MEMB      299             0.0000000000
     37246       299  PMPE      H15Y            1.5546179595      -48.8570770423       -3.8771961558  MEMB      299             0.0000000000
     37247       299  PMPE      C316            3.4267141565      -49.0922944120       -2.9167581260  MEMB      299             0.0000000000
     37248       299  PMPE      H16X            3.3737695854      -50.1742905648       -2.9162350858  MEMB      299             0.0000000000
     37249       299  PMPE      H16Y            3.0987742927      -48.7757738738       -1.9443571258  MEMB      299             0.0000000000
     37250       299  PMPE      H16Z            4.4996021647      -48.9220531436       -2.9525614422  MEMB      299             0.0000000000
     37251       300  PMPE      N             -34.4528983646      -24.0268171971      -19.6827191482  MEMB      300             0.0000000000
     37252       300  PMPE      HN1           -35.1194849556      -23.4173096777      -20.2056744587  MEMB      300             0.0000000000
     37253       300  PMPE      HN2           -33.5227344135      -23.5642682064      -19.6157252904  MEMB      300             0.0000000000
     37254       300  PMPE      HN3           -34.3835848546      -24.9112202743      -20.2157304778  MEMB      300             0.0000000000
     37255       300  PMPE      C12           -34.9575094812      -24.5014279501      -18.3418757777  MEMB      300             0.0000000000
     37256       300  PMPE      H12A          -35.2924169752      -23.6101118196      -17.7766521964  MEMB      300             0.0000000000
     37257       300  PMPE      H12B          -34.1087704945      -25.0167479363      -17.8244799115  MEMB      300             0.0000000000
     37258       300  PMPE      C11           -36.1266453916      -25.4988379649      -18.4771015766  MEMB      300             0.0000000000
     37259       300  PMPE      H11A          -37.0127123715      -25.0961044555      -19.0245678990  MEMB      300             0.0000000000
     37260       300  PMPE      H11B          -36.5354403392      -25.6755996939      -17.4643833744  MEMB      300             0.0000000000
     37261       300  PMPE      P             -36.7112549316      -27.9454322858      -19.1903499779  MEMB      300             0.0000000000
     37262       300  PMPE      O13           -36.3192211747      -28.8315574579      -20.3036085770  MEMB      300             0.0000000000
     37263       300  PMPE      O14           -38.0487064925      -27.3278493795      -19.2337420456  MEMB      300             0.0000000000
     37264       300  PMPE      O11           -36.4837228062      -28.6633220796      -17.8100113675  MEMB      300             0.0000000000
     37265       300  PMPE      O12           -35.6524240570      -26.7315112581      -19.0291260434  MEMB      300             0.0000000000
     37266       300  PMPE      C1            -37.4794292635      -29.4823230439      -17.2362575657  MEMB      300             0.0000000000
     37267       300  PMPE      HA            -37.1871773824      -30.5657434714      -17.3103280849  MEMB      300             0.0000000000
     37268       300  PMPE      HB            -38.4348074896      -29.3832051991      -17.7871365669  MEMB      300             0.0000000000
     37269       300  PMPE      C2            -37.6683033523      -29.0587832028      -15.7488996865  MEMB      300             0.0000000000
     37270       300  PMPE      HS            -38.6424672000      -29.4132749570      -15.3568207210  MEMB      300             0.0000000000
     37271       300  PMPE      O21           -37.7566208505      -27.6834177018      -15.5706427338  MEMB      300             0.0000000000
     37272       300  PMPE      C21           -38.9054137344      -27.2178265019      -16.0102596048  MEMB      300             0.0000000000
     37273       300  PMPE      O22           -39.8905754834      -27.8305244052      -16.3856112631  MEMB      300             0.0000000000
     37274       300  PMPE      C22           -38.8254905329      -25.7706895047      -15.8797857529  MEMB      300             0.0000000000
     37275       300  PMPE      H2R           -39.2737372406      -25.3934106566      -16.8125021367  MEMB      300             0.0000000000
     37276       300  PMPE      H2S           -37.8124408474      -25.3712423077      -15.9085268292  MEMB      300             0.0000000000
     37277       300  PMPE      C3            -36.4597355157      -29.6831319107      -14.9513147504  MEMB      300             0.0000000000
     37278       300  PMPE      HX            -35.5716358040      -29.5833723175      -15.5997644238  MEMB      300             0.0000000000
     37279       300  PMPE      HY            -36.4689388675      -30.7630663570      -14.7446272222  MEMB      300             0.0000000000
     37280       300  PMPE      O31           -36.3084226285      -29.0985286208      -13.6735527341  MEMB      300             0.0000000000
     37281       300  PMPE      C31           -35.4284504443      -28.1321430701      -13.6195726791  MEMB      300             0.0000000000
     37282       300  PMPE      O32           -34.7488569718      -27.7049685964      -14.5402005076  MEMB      300             0.0000000000
     37283       300  PMPE      C32           -35.4230749983      -27.6484647377      -12.1892155778  MEMB      300             0.0000000000
     37284       300  PMPE      H2X           -34.9841447856      -28.4250733608      -11.5362925489  MEMB      300             0.0000000000
     37285       300  PMPE      H2Y           -36.4719314628      -27.5194718508      -11.8503166063  MEMB      300             0.0000000000
     37286       300  PMPE      C23           -39.5176999539      -25.4909056069      -14.5472996596  MEMB      300             0.0000000000
     37287       300  PMPE      H3R           -40.5567892918      -25.7873648832      -14.4096214718  MEMB      300             0.0000000000
     37288       300  PMPE      H3S           -39.8710075860      -24.5583780500      -14.6853404508  MEMB      300             0.0000000000
     37289       300  PMPE      C24           -38.7387918550      -25.5201437776      -13.2844578305  MEMB      300             0.0000000000
     37290       300  PMPE      H4R           -37.6777574667      -25.3070855094      -13.5396495969  MEMB      300             0.0000000000
     37291       300  PMPE      H4S           -38.8551812124      -26.5990082245      -13.1244816135  MEMB      300             0.0000000000
     37292       300  PMPE      C25           -39.2964454887      -24.6226765733      -12.1410852261  MEMB      300             0.0000000000
     37293       300  PMPE      H5R           -39.9411110431      -23.7632905458      -12.4414295422  MEMB      300             0.0000000000
     37294       300  PMPE      H5S           -38.4078318585      -24.1408619834      -11.7020155279  MEMB      300             0.0000000000
     37295       300  PMPE      C26           -40.1694444700      -25.3413049917      -11.1363012587  MEMB      300             0.0000000000
     37296       300  PMPE      H6R           -39.9319288728      -26.4041368100      -11.0797857717  MEMB      300             0.0000000000
     37297       300  PMPE      H6S           -41.1564374327      -25.2843355352      -11.5447061637  MEMB      300             0.0000000000
     37298       300  PMPE      C27           -40.1473984940      -24.8054805524       -9.7437406411  MEMB      300             0.0000000000
     37299       300  PMPE      H7R           -40.2786001565      -23.6926295904       -9.7785849389  MEMB      300             0.0000000000
     37300       300  PMPE      H7S           -39.1863571902      -25.0573054157       -9.2951604860  MEMB      300             0.0000000000
     37301       300  PMPE      C28           -41.1422637535      -25.5273718569       -8.8913051387  MEMB      300             0.0000000000
     37302       300  PMPE      H8R           -42.0732567090      -25.7631844323       -9.4558452286  MEMB      300             0.0000000000
     37303       300  PMPE      H8S           -41.2401684132      -24.7733988341       -8.1229360895  MEMB      300             0.0000000000
     37304       300  PMPE      C29           -40.9614868831      -26.8988317851       -8.3446447559  MEMB      300             0.0000000000
     37305       300  PMPE      H9R           -40.9470754723      -27.6401363747       -9.1526270722  MEMB      300             0.0000000000
     37306       300  PMPE      C217          -41.4946394994      -27.5202611437       -6.9847191369  MEMB      300             0.0000000000
     37307       300  PMPE      H17R          -41.7715908709      -28.5134391919       -7.1865333162  MEMB      300             0.0000000000
     37308       300  PMPE      H17S          -42.2040153210      -27.0637058038       -6.3781237583  MEMB      300             0.0000000000
     37309       300  PMPE      C210          -40.1624120786      -26.9514016500       -7.1003921857  MEMB      300             0.0000000000
     37310       300  PMPE      H10R          -39.5281777411      -27.8238533384       -7.0397434600  MEMB      300             0.0000000000
     37311       300  PMPE      C211          -39.9291947107      -25.6736186132       -6.2632077590  MEMB      300             0.0000000000
     37312       300  PMPE      H11R          -40.7477188802      -25.0783460113       -5.9836575340  MEMB      300             0.0000000000
     37313       300  PMPE      H11S          -39.4283985921      -24.8973926892       -6.8538173695  MEMB      300             0.0000000000
     37314       300  PMPE      C212          -39.2613635865      -25.9101395164       -4.9134041048  MEMB      300             0.0000000000
     37315       300  PMPE      H12R          -38.2643395552      -26.2971158197       -5.1996765605  MEMB      300             0.0000000000
     37316       300  PMPE      H12S          -39.8379432244      -26.7071400884       -4.3768595310  MEMB      300             0.0000000000
     37317       300  PMPE      C213          -39.1250401351      -24.5893742931       -4.0930160737  MEMB      300             0.0000000000
     37318       300  PMPE      H13R          -40.1265049073      -24.1372976663       -3.9145278584  MEMB      300             0.0000000000
     37319       300  PMPE      H13S          -38.5615608000      -23.8362896269       -4.7017857723  MEMB      300             0.0000000000
     37320       300  PMPE      C214          -38.4751548736      -24.7139945404       -2.6931339670  MEMB      300             0.0000000000
     37321       300  PMPE      H14R          -38.4587069836      -23.7134127873       -2.1993690000  MEMB      300             0.0000000000
     37322       300  PMPE      H14S          -37.4044365774      -25.0052676080       -2.8007386836  MEMB      300             0.0000000000
     37323       300  PMPE      C215          -39.1898346662      -25.6893873949       -1.7205106790  MEMB      300             0.0000000000
     37324       300  PMPE      H15R          -38.5504724976      -25.9066107755       -0.8484557688  MEMB      300             0.0000000000
     37325       300  PMPE      H15S          -39.3429352066      -26.6705686379       -2.1849891055  MEMB      300             0.0000000000
     37326       300  PMPE      C216          -40.5773815255      -25.3036469461       -1.2065269514  MEMB      300             0.0000000000
     37327       300  PMPE      H16R          -41.0042262374      -26.1183763632       -0.5920465417  MEMB      300             0.0000000000
     37328       300  PMPE      H16S          -40.5091939072      -24.3785822040       -0.6074420153  MEMB      300             0.0000000000
     37329       300  PMPE      H16T          -41.3520822651      -25.1989141193       -1.9802844643  MEMB      300             0.0000000000
     37330       300  PMPE      C33           -34.5459862421      -26.4218943958      -12.0682682275  MEMB      300             0.0000000000
     37331       300  PMPE      H3X           -34.7914952782      -25.6219562660      -12.8090176495  MEMB      300             0.0000000000
     37332       300  PMPE      H3Y           -33.4788795495      -26.6911815530      -12.2237143814  MEMB      300             0.0000000000
     37333       300  PMPE      C34           -34.6302800032      -25.8569058450      -10.6844297646  MEMB      300             0.0000000000
     37334       300  PMPE      H4X           -35.6018230259      -25.4022138771      -10.4612821123  MEMB      300             0.0000000000
     37335       300  PMPE      H4Y           -33.9392739573      -25.0697945643      -10.7831170345  MEMB      300             0.0000000000
     37336       300  PMPE      C35           -34.1714036473      -26.6818816491       -9.5074206353  MEMB      300             0.0000000000
     37337       300  PMPE      H5X           -33.0589675665      -26.7429173145       -9.5859747757  MEMB      300             0.0000000000
     37338       300  PMPE      H5Y           -34.5845000635      -27.7005714815       -9.4460580751  MEMB      300             0.0000000000
     37339       300  PMPE      C36           -34.6224376247      -25.8941774818       -8.2829757468  MEMB      300             0.0000000000
     37340       300  PMPE      H6X           -35.6162726301      -25.5245498057       -8.3073576155  MEMB      300             0.0000000000
     37341       300  PMPE      H6Y           -33.8874858152      -24.9950588392       -8.3296204726  MEMB      300             0.0000000000
     37342       300  PMPE      C37           -34.5488737663      -26.6441585588       -6.9080470464  MEMB      300             0.0000000000
     37343       300  PMPE      H7X           -34.2939486697      -25.8440904880       -6.1259420944  MEMB      300             0.0000000000
     37344       300  PMPE      H7Y           -33.7019631382      -27.4593196144       -7.0953200243  MEMB      300             0.0000000000
     37345       300  PMPE      C38           -35.1633240440      -27.8285923922       -6.5182930238  MEMB      300             0.0000000000
     37346       300  PMPE      H8X           -35.0071450012      -28.5949597371       -7.3331071490  MEMB      300             0.0000000000
     37347       300  PMPE      H8Y           -36.1405987709      -27.4394748729       -6.4355326086  MEMB      300             0.0000000000
     37348       300  PMPE      C39           -34.7330156289      -28.1308766649       -5.1313993482  MEMB      300             0.0000000000
     37349       300  PMPE      H9X           -33.6437041122      -28.1593936423       -4.9804666336  MEMB      300             0.0000000000
     37350       300  PMPE      H9Y           -35.1626996606      -29.1057862672       -4.8974406458  MEMB      300             0.0000000000
     37351       300  PMPE      C310          -35.0706615592      -27.2805783726       -4.0572378970  MEMB      300             0.0000000000
     37352       300  PMPE      H10X          -36.1012978794      -27.5145988899       -3.7856643364  MEMB      300             0.0000000000
     37353       300  PMPE      H10Y          -34.7887191635      -26.2460672665       -4.2942218095  MEMB      300             0.0000000000
     37354       300  PMPE      C311          -34.3426425298      -27.7782751155       -2.9463409917  MEMB      300             0.0000000000
     37355       300  PMPE      H11X          -33.2458312355      -27.5059866743       -3.0656564352  MEMB      300             0.0000000000
     37356       300  PMPE      H11Y          -34.6119309036      -28.8358751778       -2.6359464919  MEMB      300             0.0000000000
     37357       300  PMPE      C312          -34.7183208208      -27.0770837267       -1.9377734176  MEMB      300             0.0000000000
     37358       300  PMPE      H12X          -34.1104741161      -27.6494317219       -1.2468007574  MEMB      300             0.0000000000
     37359       300  PMPE      H12Y          -35.6162239930      -27.3015601738       -1.4195773975  MEMB      300             0.0000000000
     37360       300  PMPE      C313          -34.3102839066      -25.6163975953       -2.1899204212  MEMB      300             0.0000000000
     37361       300  PMPE      H13X          -35.1143955554      -25.0479921678       -2.5697234799  MEMB      300             0.0000000000
     37362       300  PMPE      H13Y          -33.2074621627      -25.4679908695       -2.2835511943  MEMB      300             0.0000000000
     37363       300  PMPE      C314          -34.1015508774      -24.7229768402       -1.3169370063  MEMB      300             0.0000000000
     37364       300  PMPE      H14X          -32.6178021023      -25.8997499333       -0.1224617764  MEMB      300             0.0000000000
     37365       300  PMPE      H14Y          -34.6722604414      -24.4490383004       -0.6352788654  MEMB      300             0.0000000000
     37366       300  PMPE      C315          -34.6739099675      -23.2137962130       -0.8014957527  MEMB      300             0.0000000000
     37367       300  PMPE      H15X          -35.2014091462      -22.5653806787       -1.2687830329  MEMB      300             0.0000000000
     37368       300  PMPE      H15Y          -33.5805734215      -23.2435144686       -0.9086128197  MEMB      300             0.0000000000
     37369       300  PMPE      C316          -35.1569488299      -22.3673490357        0.6218062614  MEMB      300             0.0000000000
     37370       300  PMPE      H16X          -33.7533207329      -22.5377198492        2.3616583199  MEMB      300             0.0000000000
     37371       300  PMPE      H16Y          -35.3647293395      -22.5379964175        1.3145109140  MEMB      300             0.0000000000
     37372       300  PMPE      H16Z          -35.1807492644      -21.3433034035        0.6120668245  MEMB      300             0.0000000000
     37373       301  PMPG      C13            33.4760130294       34.2382928092      -19.2677594092  MEMB      301             0.0000000000
     37374       301  PMPG      H13A           32.7162222234       34.8472416897      -18.7429614024  MEMB      301             0.0000000000
     37375       301  PMPG      H13B           34.4484067697       34.7086375782      -19.0153956939  MEMB      301             0.0000000000
     37376       301  PMPG      OC3            33.1958380162       34.3394358283      -20.6679493324  MEMB      301             0.0000000000
     37377       301  PMPG      HO3            33.7079734423       35.0572430776      -21.0355188957  MEMB      301             0.0000000000
     37378       301  PMPG      C12            33.4640344077       32.7648421350      -18.7499012369  MEMB      301             0.0000000000
     37379       301  PMPG      H12A           33.6892156080       32.7751080695      -17.6576892228  MEMB      301             0.0000000000
     37380       301  PMPG      OC2            34.4864328450       31.9856910499      -19.3748263682  MEMB      301             0.0000000000
     37381       301  PMPG      HO2            34.2511606994       31.0737471796      -19.1085779802  MEMB      301             0.0000000000
     37382       301  PMPG      C11            32.1134261552       32.0466764202      -18.9181793239  MEMB      301             0.0000000000
     37383       301  PMPG      H11A           31.7952760494       32.1112828586      -19.9813825475  MEMB      301             0.0000000000
     37384       301  PMPG      H11B           31.3448812191       32.5288872138      -18.2572560983  MEMB      301             0.0000000000
     37385       301  PMPG      P              30.9857899812       29.7948322635      -18.6846266907  MEMB      301             0.0000000000
     37386       301  PMPG      O13            31.2976357140       28.5119362557      -18.0152471379  MEMB      301             0.0000000000
     37387       301  PMPG      O14            30.4333284347       29.8101291129      -20.0562037972  MEMB      301             0.0000000000
     37388       301  PMPG      O11            30.0767693297       30.6588482610      -17.7287245490  MEMB      301             0.0000000000
     37389       301  PMPG      O12            32.2891938421       30.6669561477      -18.6058400406  MEMB      301             0.0000000000
     37390       301  PMPG      C1             29.7346950721       30.1124161556      -16.4794105673  MEMB      301             0.0000000000
     37391       301  PMPG      HA             30.5209955102       29.6563456338      -15.9250080587  MEMB      301             0.0000000000
     37392       301  PMPG      HB             28.9893246455       29.2450395570      -16.5893715104  MEMB      301             0.0000000000
     37393       301  PMPG      C2             29.3440279901       31.2846926521      -15.5844785529  MEMB      301             0.0000000000
     37394       301  PMPG      HS             28.6436064156       31.9174565852      -16.1981802187  MEMB      301             0.0000000000
     37395       301  PMPG      O21            30.2695079564       32.1671493671      -15.1524219911  MEMB      301             0.0000000000
     37396       301  PMPG      C21            29.9461616593       33.2595238960      -14.5327138314  MEMB      301             0.0000000000
     37397       301  PMPG      O22            28.9050258952       33.7586874725      -14.2641507323  MEMB      301             0.0000000000
     37398       301  PMPG      C22            31.2113063919       33.9246106610      -14.3160132685  MEMB      301             0.0000000000
     37399       301  PMPG      H2R            31.3846640275       34.5617349044      -15.1881482244  MEMB      301             0.0000000000
     37400       301  PMPG      H2S            31.9632761210       33.1514484030      -14.0964368989  MEMB      301             0.0000000000
     37401       301  PMPG      C3             28.8739477567       30.5113874288      -14.4403115398  MEMB      301             0.0000000000
     37402       301  PMPG      HX             28.2294596853       29.8486619375      -14.7726276976  MEMB      301             0.0000000000
     37403       301  PMPG      HY             28.0489321528       30.6005105560      -13.9733511386  MEMB      301             0.0000000000
     37404       301  PMPG      O31            29.4534892833       30.5150248120      -13.3099441584  MEMB      301             0.0000000000
     37405       301  PMPG      C31            29.4120660720       30.8575233381      -12.0803269049  MEMB      301             0.0000000000
     37406       301  PMPG      O32            28.5884107909       31.2831738940      -11.3919503748  MEMB      301             0.0000000000
     37407       301  PMPG      C32            30.3487072600       30.4689130896      -11.1892518735  MEMB      301             0.0000000000
     37408       301  PMPG      H2X            31.3670630892       30.2275991579      -11.4358813004  MEMB      301             0.0000000000
     37409       301  PMPG      H2Y            29.6793072186       29.7368666862      -11.5531290382  MEMB      301             0.0000000000
     37410       301  PMPG      C23            31.1606017480       34.8118212507      -13.1603092338  MEMB      301             0.0000000000
     37411       301  PMPG      H3R            30.9440836506       34.0828593851      -12.3293339611  MEMB      301             0.0000000000
     37412       301  PMPG      H3S            30.4036853662       35.6558275302      -13.2911252786  MEMB      301             0.0000000000
     37413       301  PMPG      C24            32.4280481139       35.3535014638      -12.6209636007  MEMB      301             0.0000000000
     37414       301  PMPG      H4R            32.2000007657       36.2410738938      -11.9950731076  MEMB      301             0.0000000000
     37415       301  PMPG      H4S            32.8683987328       35.9097002312      -13.4340608482  MEMB      301             0.0000000000
     37416       301  PMPG      C25            33.2688448621       34.3040243343      -11.7979125968  MEMB      301             0.0000000000
     37417       301  PMPG      H5R            34.0480320244       34.9288208944      -11.3257525814  MEMB      301             0.0000000000
     37418       301  PMPG      H5S            33.7488915603       33.6627305402      -12.5559138003  MEMB      301             0.0000000000
     37419       301  PMPG      C26            32.6517183568       33.3399497827      -10.7091772426  MEMB      301             0.0000000000
     37420       301  PMPG      H6R            33.3289000146       32.5954387636      -10.2628744876  MEMB      301             0.0000000000
     37421       301  PMPG      H6S            31.8091543889       32.7146683051      -11.0765295047  MEMB      301             0.0000000000
     37422       301  PMPG      C27            32.4597496561       33.9233493136       -9.3529752331  MEMB      301             0.0000000000
     37423       301  PMPG      H7R            31.7899921810       33.3394056747       -8.7074447875  MEMB      301             0.0000000000
     37424       301  PMPG      H7S            31.6754262187       34.2465971854       -8.8562907293  MEMB      301             0.0000000000
     37425       301  PMPG      C28            33.4642877579       34.6264855913       -8.7211991467  MEMB      301             0.0000000000
     37426       301  PMPG      H8R            32.9703422674       35.1639689083       -8.0726177897  MEMB      301             0.0000000000
     37427       301  PMPG      H8S            33.9824911493       35.3970805176       -9.2552022523  MEMB      301             0.0000000000
     37428       301  PMPG      C29            34.0716813730       33.7501606132       -7.7503217005  MEMB      301             0.0000000000
     37429       301  PMPG      H9R            34.5470528275       32.9554987795       -8.3054106782  MEMB      301             0.0000000000
     37430       301  PMPG      C217           34.9216611904       34.4070902082       -6.6728232922  MEMB      301             0.0000000000
     37431       301  PMPG      H17R           35.8312131672       33.8636675783       -6.4675816748  MEMB      301             0.0000000000
     37432       301  PMPG      H17S           34.7500107606       35.4299279142       -6.3763685438  MEMB      301             0.0000000000
     37433       301  PMPG      C210           33.6893902008       33.5702151356       -6.2912022919  MEMB      301             0.0000000000
     37434       301  PMPG      H10R           33.8756427437       32.5324987438       -6.0115360818  MEMB      301             0.0000000000
     37435       301  PMPG      C211           32.5004173059       34.2536042585       -5.5845583222  MEMB      301             0.0000000000
     37436       301  PMPG      H11R           32.5705904727       35.3565695098       -5.6292711980  MEMB      301             0.0000000000
     37437       301  PMPG      H11S           31.5273323217       33.9021057455       -6.0215957453  MEMB      301             0.0000000000
     37438       301  PMPG      C212           32.5820881318       34.1204107556       -4.0808269753  MEMB      301             0.0000000000
     37439       301  PMPG      H12R           33.3763535450       34.8051026718       -3.7288928156  MEMB      301             0.0000000000
     37440       301  PMPG      H12S           33.0383079651       33.1366780964       -3.9333271255  MEMB      301             0.0000000000
     37441       301  PMPG      C213           31.2786982983       34.3548473072       -3.2978568337  MEMB      301             0.0000000000
     37442       301  PMPG      H13R           30.8781814377       35.3852304268       -3.4794206835  MEMB      301             0.0000000000
     37443       301  PMPG      H13S           31.5098357675       34.2338469732       -2.2141679930  MEMB      301             0.0000000000
     37444       301  PMPG      C214           30.1618236017       33.3913223704       -3.6626462033  MEMB      301             0.0000000000
     37445       301  PMPG      H14R           29.8818836207       33.5206680626       -4.7325194043  MEMB      301             0.0000000000
     37446       301  PMPG      H14S           29.2829481151       33.5935418174       -3.0279956629  MEMB      301             0.0000000000
     37447       301  PMPG      C215           30.3764752275       31.9460412412       -3.3501090121  MEMB      301             0.0000000000
     37448       301  PMPG      H15R           31.4370190629       31.6861655016       -3.3243453907  MEMB      301             0.0000000000
     37449       301  PMPG      H15S           29.9055181424       31.3451356555       -4.1541150655  MEMB      301             0.0000000000
     37450       301  PMPG      C216           29.8053292549       31.5202426997       -2.0430677678  MEMB      301             0.0000000000
     37451       301  PMPG      H16R           30.3209903924       30.5869403969       -1.7589952580  MEMB      301             0.0000000000
     37452       301  PMPG      H16S           28.6993165989       31.3988593151       -2.1553809845  MEMB      301             0.0000000000
     37453       301  PMPG      H16T           29.9955387919       32.1937097143       -1.2150510981  MEMB      301             0.0000000000
     37454       301  PMPG      C33            29.6907502354       30.0535557028       -9.8093459817  MEMB      301             0.0000000000
     37455       301  PMPG      H3X            30.2669800134       29.3262181275       -9.3855548053  MEMB      301             0.0000000000
     37456       301  PMPG      H3Y            28.7852464436       29.3678974386       -9.7932755212  MEMB      301             0.0000000000
     37457       301  PMPG      C34            29.8337670007       31.2053696587       -8.9544109246  MEMB      301             0.0000000000
     37458       301  PMPG      H4X            29.1496329821       31.9193258124       -9.4322972930  MEMB      301             0.0000000000
     37459       301  PMPG      H4Y            30.8277892950       31.5972225514       -9.1526994624  MEMB      301             0.0000000000
     37460       301  PMPG      C35            29.5348198670       30.9757173991       -7.5090824528  MEMB      301             0.0000000000
     37461       301  PMPG      H5X            28.5178937848       30.4775282609       -7.4795902045  MEMB      301             0.0000000000
     37462       301  PMPG      H5Y            29.5081527255       32.0153143428       -7.0713982204  MEMB      301             0.0000000000
     37463       301  PMPG      C36            30.3329809765       29.9927454949       -6.7193141895  MEMB      301             0.0000000000
     37464       301  PMPG      H6X            30.3309156588       29.0149556900       -7.2261265496  MEMB      301             0.0000000000
     37465       301  PMPG      H6Y            29.8000868164       29.8242451779       -5.7547199516  MEMB      301             0.0000000000
     37466       301  PMPG      C37            31.7493655294       30.3825771555       -6.4359902007  MEMB      301             0.0000000000
     37467       301  PMPG      H7X            31.8142299808       31.4301854017       -6.0749067732  MEMB      301             0.0000000000
     37468       301  PMPG      H7Y            32.4299336458       30.2817620175       -7.3136018971  MEMB      301             0.0000000000
     37469       301  PMPG      C38            32.2589491775       29.4555258836       -5.4307854750  MEMB      301             0.0000000000
     37470       301  PMPG      H8X            32.5309996113       28.5026799323       -5.9926655782  MEMB      301             0.0000000000
     37471       301  PMPG      H8Y            31.5655373268       29.1040905737       -4.5896411270  MEMB      301             0.0000000000
     37472       301  PMPG      C39            33.4288212061       30.1608298002       -4.9013394751  MEMB      301             0.0000000000
     37473       301  PMPG      H9X            33.4727779247       30.8584818312       -4.0513585745  MEMB      301             0.0000000000
     37474       301  PMPG      H9Y            34.3928726434       30.3290859135       -5.4285564203  MEMB      301             0.0000000000
     37475       301  PMPG      C310           33.5152115497       29.0482502352       -4.3786748960  MEMB      301             0.0000000000
     37476       301  PMPG      H10X           33.6261868987       27.6416046764       -4.8401469491  MEMB      301             0.0000000000
     37477       301  PMPG      H10Y           32.9728033571       28.7630539198       -3.2066659688  MEMB      301             0.0000000000
     37478       301  PMPG      C311           36.0152489758       29.8146256607       -3.0862827269  MEMB      301             0.0000000000
     37479       301  PMPG      H11X           36.0134586692       30.5072013234       -3.7094914347  MEMB      301             0.0000000000
     37480       301  PMPG      H11Y           36.6946355428       29.0816342680       -3.4742782727  MEMB      301             0.0000000000
     37481       301  PMPG      C312           35.3307503291       29.6847312413       -1.2430495342  MEMB      301             0.0000000000
     37482       301  PMPG      H12X           36.2510584229       29.8626851837       -1.0934343657  MEMB      301             0.0000000000
     37483       301  PMPG      H12Y           35.0445146621       28.7680219302       -0.4482880547  MEMB      301             0.0000000000
     37484       301  PMPG      C313           34.2313905585       30.5539219668       -1.0054051229  MEMB      301             0.0000000000
     37485       301  PMPG      H13X           33.3838052987       30.2028381887       -1.6196948535  MEMB      301             0.0000000000
     37486       301  PMPG      H13Y           34.5854459318       31.5195892588       -1.3747653554  MEMB      301             0.0000000000
     37487       301  PMPG      C314           34.1401796330       30.2585220909        0.4210671306  MEMB      301             0.0000000000
     37488       301  PMPG      H14X           35.2042823529       30.3161217889        0.7467376068  MEMB      301             0.0000000000
     37489       301  PMPG      H14Y           33.8528697040       29.2196923541        0.7093855156  MEMB      301             0.0000000000
     37490       301  PMPG      C315           33.2369772051       31.2412465662        0.9867198368  MEMB      301             0.0000000000
     37491       301  PMPG      H15X           32.4655880960       31.5713093872        0.3266859308  MEMB      301             0.0000000000
     37492       301  PMPG      H15Y           33.8841416307       32.0913082037        1.2632921330  MEMB      301             0.0000000000
     37493       301  PMPG      C316           32.3609529526       30.8267928750        2.0666790035  MEMB      301             0.0000000000
     37494       301  PMPG      H16X           31.8231307965       30.0214185878        2.3349569103  MEMB      301             0.0000000000
     37495       301  PMPG      H16Y           32.0048756728       31.5097584488        2.8361175459  MEMB      301             0.0000000000
     37496       301  PMPG      H16Z           33.1751874136       30.2282732077        2.4533235612  MEMB      301             0.0000000000
     37497       302  PMPE      N             -39.7781473841      -21.8180702270      -20.5567977715  MEMB      302             0.0000000000
     37498       302  PMPE      HN1           -39.8971292263      -22.6736417276      -21.1331351678  MEMB      302             0.0000000000
     37499       302  PMPE      HN2           -38.7883639043      -21.5278500298      -20.6580880856  MEMB      302             0.0000000000
     37500       302  PMPE      HN3           -39.9783796179      -22.0810405578      -19.5572901282  MEMB      302             0.0000000000
     37501       302  PMPE      C12           -40.6122554872      -20.5879411083      -20.9244081014  MEMB      302             0.0000000000
     37502       302  PMPE      H12A          -41.6129831959      -20.9232049110      -21.2243603120  MEMB      302             0.0000000000
     37503       302  PMPE      H12B          -40.2017927400      -20.1284426463      -21.8437230485  MEMB      302             0.0000000000
     37504       302  PMPE      C11           -40.7751624960      -19.6045306389      -19.7382531998  MEMB      302             0.0000000000
     37505       302  PMPE      H11A          -41.4114174474      -18.7197209410      -20.0048469477  MEMB      302             0.0000000000
     37506       302  PMPE      H11B          -39.7980992842      -19.1297131523      -19.4832957925  MEMB      302             0.0000000000
     37507       302  PMPE      P             -42.8290180327      -20.2533329058      -18.2372419375  MEMB      302             0.0000000000
     37508       302  PMPE      O13           -43.6514812217      -20.6895429350      -19.3962289322  MEMB      302             0.0000000000
     37509       302  PMPE      O14           -42.9807783454      -18.9615185514      -17.6355349933  MEMB      302             0.0000000000
     37510       302  PMPE      O11           -42.8946820936      -21.3591054402      -17.1686915395  MEMB      302             0.0000000000
     37511       302  PMPE      O12           -41.2885418643      -20.3371577039      -18.6190064734  MEMB      302             0.0000000000
     37512       302  PMPE      C1            -42.7828731179      -22.6913585102      -17.5987839597  MEMB      302             0.0000000000
     37513       302  PMPE      HA            -41.9170104806      -22.8088301317      -18.2874636219  MEMB      302             0.0000000000
     37514       302  PMPE      HB            -43.7245948431      -23.0322552144      -18.0948379742  MEMB      302             0.0000000000
     37515       302  PMPE      C2            -42.4612585442      -23.5590869215      -16.4105456040  MEMB      302             0.0000000000
     37516       302  PMPE      HS            -43.0581017137      -24.5070704937      -16.5503780694  MEMB      302             0.0000000000
     37517       302  PMPE      O21           -42.6358157075      -22.9574077660      -15.0844776877  MEMB      302             0.0000000000
     37518       302  PMPE      C21           -43.6914627916      -22.1348742556      -14.8364174983  MEMB      302             0.0000000000
     37519       302  PMPE      O22           -44.7301585647      -22.0261202828      -15.4533795439  MEMB      302             0.0000000000
     37520       302  PMPE      C22           -43.5242483125      -21.5362700536      -13.4603253914  MEMB      302             0.0000000000
     37521       302  PMPE      H2R           -42.8499864807      -20.8097660443      -13.7582657996  MEMB      302             0.0000000000
     37522       302  PMPE      H2S           -42.9486304733      -22.3008810362      -12.8255217754  MEMB      302             0.0000000000
     37523       302  PMPE      C3            -41.0831994199      -24.0234893043      -16.5254392324  MEMB      302             0.0000000000
     37524       302  PMPE      HX            -40.9047826547      -24.6369044070      -17.4222239017  MEMB      302             0.0000000000
     37525       302  PMPE      HY            -41.1764078558      -24.8108626766      -15.8172642528  MEMB      302             0.0000000000
     37526       302  PMPE      O31           -40.0990107733      -22.9769207430      -16.3436968830  MEMB      302             0.0000000000
     37527       302  PMPE      C31           -39.4423147692      -22.4744063606      -15.2899423958  MEMB      302             0.0000000000
     37528       302  PMPE      O32           -38.9753454660      -22.8884404218      -14.2646757841  MEMB      302             0.0000000000
     37529       302  PMPE      C32           -39.1303437965      -21.1144427822      -15.4032595350  MEMB      302             0.0000000000
     37530       302  PMPE      H2X           -39.1410148432      -20.8116656551      -16.4419084268  MEMB      302             0.0000000000
     37531       302  PMPE      H2Y           -38.0832141740      -21.1315804560      -15.0004267668  MEMB      302             0.0000000000
     37532       302  PMPE      C23           -45.0033321801      -21.1655927626      -12.8585291335  MEMB      302             0.0000000000
     37533       302  PMPE      H3R           -45.7434676832      -21.0655398184      -13.7095091592  MEMB      302             0.0000000000
     37534       302  PMPE      H3S           -44.8316506312      -20.2950491430      -12.3216978368  MEMB      302             0.0000000000
     37535       302  PMPE      C24           -45.6311232809      -21.9770018856      -11.5770726165  MEMB      302             0.0000000000
     37536       302  PMPE      H4R           -44.8716456408      -22.4185801170      -11.1282842226  MEMB      302             0.0000000000
     37537       302  PMPE      H4S           -46.3063043773      -22.9822966241      -11.8097392128  MEMB      302             0.0000000000
     37538       302  PMPE      C25           -46.8567229486      -22.2199886229      -11.0262077459  MEMB      302             0.0000000000
     37539       302  PMPE      H5R           -47.8742246586      -22.2831282824      -11.4551875940  MEMB      302             0.0000000000
     37540       302  PMPE      H5S           -46.6876106188      -21.4020915003      -11.6094349945  MEMB      302             0.0000000000
     37541       302  PMPE      C26           -46.5677700985      -22.1742891705       -9.6312033463  MEMB      302             0.0000000000
     37542       302  PMPE      H6R           -47.3394791590      -21.7006425978       -9.0600134191  MEMB      302             0.0000000000
     37543       302  PMPE      H6S           -45.6368278016      -21.6491448566       -9.3223799328  MEMB      302             0.0000000000
     37544       302  PMPE      C27           -46.4031919423      -23.5648858619       -9.3678530259  MEMB      302             0.0000000000
     37545       302  PMPE      H7R           -46.1186898464      -24.2653505363      -10.1407921108  MEMB      302             0.0000000000
     37546       302  PMPE      H7S           -47.3800197768      -23.9916122724       -9.2360469185  MEMB      302             0.0000000000
     37547       302  PMPE      C28           -45.4829107206      -23.5337240580       -8.2055391504  MEMB      302             0.0000000000
     37548       302  PMPE      H8R           -45.4131930180      -24.5370934606       -8.1536822395  MEMB      302             0.0000000000
     37549       302  PMPE      H8S           -45.8850205865      -23.1366511566       -7.2787001094  MEMB      302             0.0000000000
     37550       302  PMPE      C29           -44.1043187655      -23.1333152325       -8.3181421472  MEMB      302             0.0000000000
     37551       302  PMPE      H9R           -43.8511912910      -22.2380045106       -8.8048887526  MEMB      302             0.0000000000
     37552       302  PMPE      C217          -43.3896434484      -24.0911133109       -9.1094134326  MEMB      302             0.0000000000
     37553       302  PMPE      H17R          -42.5547738310      -23.8963022555       -9.7281799044  MEMB      302             0.0000000000
     37554       302  PMPE      H17S          -43.9764681432      -24.8644241281       -9.6098060771  MEMB      302             0.0000000000
     37555       302  PMPE      C210          -43.0095245277      -23.7642328331       -7.5881623770  MEMB      302             0.0000000000
     37556       302  PMPE      H10R          -42.1158479396      -23.1621424630       -7.5520590818  MEMB      302             0.0000000000
     37557       302  PMPE      C211          -42.8564231588      -24.3617558294       -6.1506440276  MEMB      302             0.0000000000
     37558       302  PMPE      H11R          -42.3984256737      -25.3220354169       -5.9659996038  MEMB      302             0.0000000000
     37559       302  PMPE      H11S          -43.3714853194      -25.1077065585       -5.9160156257  MEMB      302             0.0000000000
     37560       302  PMPE      C212          -43.6203098194      -23.6854165375       -5.0984292691  MEMB      302             0.0000000000
     37561       302  PMPE      H12R          -44.6357058900      -23.4086001651       -5.4264931827  MEMB      302             0.0000000000
     37562       302  PMPE      H12S          -42.9758192591      -22.8179133840       -5.1342149424  MEMB      302             0.0000000000
     37563       302  PMPE      C213          -43.5766187428      -24.2313016404       -3.6707075426  MEMB      302             0.0000000000
     37564       302  PMPE      H13R          -44.0776321399      -23.5090296836       -3.0555760367  MEMB      302             0.0000000000
     37565       302  PMPE      H13S          -42.6469420033      -24.6498788346       -3.3592252870  MEMB      302             0.0000000000
     37566       302  PMPE      C214          -44.2121971803      -25.3750161243       -3.0875521518  MEMB      302             0.0000000000
     37567       302  PMPE      H14R          -43.8473571950      -26.2471129787       -3.6780006367  MEMB      302             0.0000000000
     37568       302  PMPE      H14S          -45.3031058145      -25.0777251601       -3.1113201249  MEMB      302             0.0000000000
     37569       302  PMPE      C215          -44.3989055774      -26.0149025547       -1.7527855797  MEMB      302             0.0000000000
     37570       302  PMPE      H15R          -43.4942628876      -26.4953965742       -1.8781551335  MEMB      302             0.0000000000
     37571       302  PMPE      H15S          -44.9073214319      -27.0529990426       -1.4858995334  MEMB      302             0.0000000000
     37572       302  PMPE      C216          -45.1313720163      -25.0532306738       -0.9304710378  MEMB      302             0.0000000000
     37573       302  PMPE      H16R          -44.4474759796      -24.4518278096       -0.5321661571  MEMB      302             0.0000000000
     37574       302  PMPE      H16S          -45.8683696666      -24.3473370184       -1.4781219049  MEMB      302             0.0000000000
     37575       302  PMPE      H16T          -45.8040021370      -25.7190259602       -0.3193214402  MEMB      302             0.0000000000
     37576       302  PMPE      C33           -40.1088950355      -20.4409705729      -14.4378755389  MEMB      302             0.0000000000
     37577       302  PMPE      H3X           -39.9922186115      -20.8436846012      -13.4048597174  MEMB      302             0.0000000000
     37578       302  PMPE      H3Y           -41.1458325730      -20.6895459611      -14.7740085400  MEMB      302             0.0000000000
     37579       302  PMPE      C34           -39.9709232627      -18.9270654119      -14.4663171076  MEMB      302             0.0000000000
     37580       302  PMPE      H4X           -40.1326151678      -18.7182408640      -15.5485362114  MEMB      302             0.0000000000
     37581       302  PMPE      H4Y           -38.9685396384      -18.5783465996      -14.1159967164  MEMB      302             0.0000000000
     37582       302  PMPE      C35           -41.0320758493      -18.2374163616      -13.6288630692  MEMB      302             0.0000000000
     37583       302  PMPE      H5X           -41.9748090120      -18.8178023495      -13.6275290754  MEMB      302             0.0000000000
     37584       302  PMPE      H5Y           -41.3036929546      -17.2342882821      -14.0224799105  MEMB      302             0.0000000000
     37585       302  PMPE      C36           -40.5467833546      -18.0886107870      -12.1951800726  MEMB      302             0.0000000000
     37586       302  PMPE      H6X           -39.6266107069      -17.4484666125      -12.1573580860  MEMB      302             0.0000000000
     37587       302  PMPE      H6Y           -40.3767383716      -19.0469455825      -11.7208892623  MEMB      302             0.0000000000
     37588       302  PMPE      C37           -41.5530863971      -17.4269775031      -11.3579132730  MEMB      302             0.0000000000
     37589       302  PMPE      H7X           -41.7129869492      -16.7580733578      -12.2205938487  MEMB      302             0.0000000000
     37590       302  PMPE      H7Y           -41.1145846847      -16.9775787937      -10.4574108398  MEMB      302             0.0000000000
     37591       302  PMPE      C38           -42.9474566774      -17.8860622546      -11.0918933356  MEMB      302             0.0000000000
     37592       302  PMPE      H8X           -43.4305552507      -18.0435527454      -12.0711656485  MEMB      302             0.0000000000
     37593       302  PMPE      H8Y           -43.5001041792      -17.0871625867      -10.5103068621  MEMB      302             0.0000000000
     37594       302  PMPE      C39           -42.9418859509      -19.1700004167      -10.3003046178  MEMB      302             0.0000000000
     37595       302  PMPE      H9X           -42.2059156979      -19.7814065459      -10.8625344192  MEMB      302             0.0000000000
     37596       302  PMPE      H9Y           -43.9149398281      -19.6955757614      -10.3417822038  MEMB      302             0.0000000000
     37597       302  PMPE      C310          -42.5595427969      -19.0267318105       -8.8170302017  MEMB      302             0.0000000000
     37598       302  PMPE      H10X          -42.2129082238      -18.0019464573       -8.5628983083  MEMB      302             0.0000000000
     37599       302  PMPE      H10Y          -41.7645077356      -19.7560411573       -8.5661088915  MEMB      302             0.0000000000
     37600       302  PMPE      C311          -43.7123165770      -19.2134598680       -7.8355612344  MEMB      302             0.0000000000
     37601       302  PMPE      H11X          -44.3132931389      -20.1198141918       -8.0249185582  MEMB      302             0.0000000000
     37602       302  PMPE      H11Y          -44.3925239840      -18.3616160131       -8.0432109087  MEMB      302             0.0000000000
     37603       302  PMPE      C312          -43.2208867691      -19.2106963497       -6.3775018775  MEMB      302             0.0000000000
     37604       302  PMPE      H12X          -42.5100130171      -18.3710536690       -6.2433503373  MEMB      302             0.0000000000
     37605       302  PMPE      H12Y          -42.6007619904      -20.1111106433       -6.1932572104  MEMB      302             0.0000000000
     37606       302  PMPE      C313          -44.4291116697      -19.2571204802       -5.4383326141  MEMB      302             0.0000000000
     37607       302  PMPE      H13X          -44.9798078248      -20.1622881013       -5.7760516336  MEMB      302             0.0000000000
     37608       302  PMPE      H13Y          -45.1209520845      -18.4209124018       -5.6679870434  MEMB      302             0.0000000000
     37609       302  PMPE      C314          -44.1431987964      -19.3473075860       -3.9292916526  MEMB      302             0.0000000000
     37610       302  PMPE      H14X          -43.6456464783      -18.4204310111       -3.5480786734  MEMB      302             0.0000000000
     37611       302  PMPE      H14Y          -43.4848157415      -20.1984388034       -3.6735934759  MEMB      302             0.0000000000
     37612       302  PMPE      C315          -45.4149965151      -19.7569378588       -3.2212125946  MEMB      302             0.0000000000
     37613       302  PMPE      H15X          -45.9358807746      -20.5865908811       -3.7146407128  MEMB      302             0.0000000000
     37614       302  PMPE      H15Y          -46.2130567098      -19.1088883871       -3.4622854722  MEMB      302             0.0000000000
     37615       302  PMPE      C316          -45.2886417795      -19.9877029863       -1.7283712863  MEMB      302             0.0000000000
     37616       302  PMPE      H16X          -46.1298861733      -19.7969980907       -1.0315193786  MEMB      302             0.0000000000
     37617       302  PMPE      H16Y          -44.5270848198      -19.5092018274       -1.2027025515  MEMB      302             0.0000000000
     37618       302  PMPE      H16Z          -45.2196734149      -21.0231674281       -1.6255818097  MEMB      302             0.0000000000
     37619       303  PMPE      N              12.6191501705      -44.7171838880      -21.4890882903  MEMB      303             0.0000000000
     37620       303  PMPE      HN1            12.8629771215      -44.7324834218      -22.5013411599  MEMB      303             0.0000000000
     37621       303  PMPE      HN2            12.3861087377      -45.6890321664      -21.1822983919  MEMB      303             0.0000000000
     37622       303  PMPE      HN3            11.8509366500      -44.0625906976      -21.2333730932  MEMB      303             0.0000000000
     37623       303  PMPE      C12            13.7545168222      -44.1845355029      -20.7089047185  MEMB      303             0.0000000000
     37624       303  PMPE      H12A           14.1779979864      -43.3834051043      -21.3491169229  MEMB      303             0.0000000000
     37625       303  PMPE      H12B           14.4859956341      -45.0000535305      -20.5639529497  MEMB      303             0.0000000000
     37626       303  PMPE      C11            13.2432726773      -43.5368866272      -19.4185966585  MEMB      303             0.0000000000
     37627       303  PMPE      H11A           12.4390170104      -42.8003316457      -19.6134696086  MEMB      303             0.0000000000
     37628       303  PMPE      H11B           14.0792931235      -42.9178230053      -19.0330512972  MEMB      303             0.0000000000
     37629       303  PMPE      P              11.3756973036      -44.8660097106      -18.1731579700  MEMB      303             0.0000000000
     37630       303  PMPE      O13            10.8697033761      -45.8263165942      -19.1732890460  MEMB      303             0.0000000000
     37631       303  PMPE      O14            10.6216277753      -43.6206051728      -17.9912145406  MEMB      303             0.0000000000
     37632       303  PMPE      O11            11.4720044401      -45.5838581022      -16.7856118952  MEMB      303             0.0000000000
     37633       303  PMPE      O12            12.8578010295      -44.4872905039      -18.4447785244  MEMB      303             0.0000000000
     37634       303  PMPE      C1             10.4191310551      -46.3439519769      -16.2501464681  MEMB      303             0.0000000000
     37635       303  PMPE      HA             10.1998230572      -47.3328671871      -16.6287839856  MEMB      303             0.0000000000
     37636       303  PMPE      HB              9.7997728585      -45.6809165423      -16.5689978134  MEMB      303             0.0000000000
     37637       303  PMPE      C2             10.1448663478      -46.3222120662      -14.7477564118  MEMB      303             0.0000000000
     37638       303  PMPE      HS              9.1621444563      -46.5259799568      -14.3260452312  MEMB      303             0.0000000000
     37639       303  PMPE      O21            10.4969492933      -45.0702932424      -14.5490571049  MEMB      303             0.0000000000
     37640       303  PMPE      C21             9.4335592840      -44.1365073789      -14.2940068221  MEMB      303             0.0000000000
     37641       303  PMPE      O22             8.5225700643      -44.1321377473      -13.7593405994  MEMB      303             0.0000000000
     37642       303  PMPE      C22             9.9451929311      -42.3160543737      -12.7039843090  MEMB      303             0.0000000000
     37643       303  PMPE      H2R            10.4712794687      -41.4961351467      -13.1051495141  MEMB      303             0.0000000000
     37644       303  PMPE      H2S            11.1743088068      -42.4615913482      -12.5528654355  MEMB      303             0.0000000000
     37645       303  PMPE      C3             11.0322841497      -47.2712346551      -14.1797532476  MEMB      303             0.0000000000
     37646       303  PMPE      HX             11.7350482776      -46.8759703614      -14.9330826253  MEMB      303             0.0000000000
     37647       303  PMPE      HY             10.7776018112      -48.3009939876      -14.4278275744  MEMB      303             0.0000000000
     37648       303  PMPE      O31            11.3628669887      -47.0865158097      -12.7985120676  MEMB      303             0.0000000000
     37649       303  PMPE      C31            12.4756388241      -46.4869509791      -12.3394516135  MEMB      303             0.0000000000
     37650       303  PMPE      O32            13.4895818856      -46.1124752059      -12.8366405556  MEMB      303             0.0000000000
     37651       303  PMPE      C32            12.3704207548      -45.9782571271      -10.9720322777  MEMB      303             0.0000000000
     37652       303  PMPE      H2X            12.0483826264      -46.6816506822      -10.2747087848  MEMB      303             0.0000000000
     37653       303  PMPE      H2Y            11.4537121971      -45.6818961474      -10.8819874711  MEMB      303             0.0000000000
     37654       303  PMPE      C23             8.9622264110      -41.9899478406      -11.9450994254  MEMB      303             0.0000000000
     37655       303  PMPE      H3R             8.7019301587      -42.4338703453      -11.1081701340  MEMB      303             0.0000000000
     37656       303  PMPE      H3S             8.0958990747      -42.5562330379      -12.2229677152  MEMB      303             0.0000000000
     37657       303  PMPE      C24             9.6840753885      -40.7799372363      -11.4279521885  MEMB      303             0.0000000000
     37658       303  PMPE      H4R             8.9159696463      -40.4857850728      -10.8100215264  MEMB      303             0.0000000000
     37659       303  PMPE      H4S            10.0037510583      -40.1325262187      -12.2593929447  MEMB      303             0.0000000000
     37660       303  PMPE      C25            10.9417656382      -40.7369932103      -10.6223639608  MEMB      303             0.0000000000
     37661       303  PMPE      H5R            11.2648437353      -39.7295232619      -10.5482237334  MEMB      303             0.0000000000
     37662       303  PMPE      H5S            11.7640452470      -41.4695888163      -10.8932399714  MEMB      303             0.0000000000
     37663       303  PMPE      C26            10.8433015948      -41.0893425824       -9.2888486928  MEMB      303             0.0000000000
     37664       303  PMPE      H6R            11.2368891375      -42.1803670388       -9.3901883083  MEMB      303             0.0000000000
     37665       303  PMPE      H6S             9.8013953053      -40.7671865353       -9.0191387212  MEMB      303             0.0000000000
     37666       303  PMPE      C27            11.1660812750      -40.6601459453       -7.9079232290  MEMB      303             0.0000000000
     37667       303  PMPE      H7R            11.3214545778      -39.7083709396       -8.0472705044  MEMB      303             0.0000000000
     37668       303  PMPE      H7S            11.9883540744      -41.2956867691       -8.2546092401  MEMB      303             0.0000000000
     37669       303  PMPE      C28            11.3033689753      -40.9841686275       -6.4171935138  MEMB      303             0.0000000000
     37670       303  PMPE      H8R            12.1623560493      -41.1753976192       -5.7860696774  MEMB      303             0.0000000000
     37671       303  PMPE      H8S            11.3127142571      -41.8868683192       -6.2456982260  MEMB      303             0.0000000000
     37672       303  PMPE      C29            10.3339210831      -40.2666767289       -5.7820416351  MEMB      303             0.0000000000
     37673       303  PMPE      H9R             9.9808754985      -39.5652192593       -6.5735572977  MEMB      303             0.0000000000
     37674       303  PMPE      C217           10.8320233896      -39.5573995386       -4.9361489756  MEMB      303             0.0000000000
     37675       303  PMPE      H17R           10.1553050823      -38.6977033862       -5.0012963501  MEMB      303             0.0000000000
     37676       303  PMPE      H17S           11.7768553635      -39.6869101623       -4.4581889895  MEMB      303             0.0000000000
     37677       303  PMPE      C210            9.9096840598      -40.1699802613       -4.2527204937  MEMB      303             0.0000000000
     37678       303  PMPE      H10R            9.0765940092      -39.4400551932       -3.8982901610  MEMB      303             0.0000000000
     37679       303  PMPE      C211           10.3488101090      -41.0949393682       -3.3147013905  MEMB      303             0.0000000000
     37680       303  PMPE      H11R           10.1428546131      -40.6080145394       -2.3541312761  MEMB      303             0.0000000000
     37681       303  PMPE      H11S           11.3885284047      -41.3206612288       -3.5670857038  MEMB      303             0.0000000000
     37682       303  PMPE      C212            9.5185509684      -42.2841426546       -3.3963358947  MEMB      303             0.0000000000
     37683       303  PMPE      H12R            9.9980073870      -42.8572738663       -4.2204182819  MEMB      303             0.0000000000
     37684       303  PMPE      H12S            8.4255751071      -42.0275817714       -3.4270746124  MEMB      303             0.0000000000
     37685       303  PMPE      C213            9.8674668822      -43.4342674501       -2.5866712567  MEMB      303             0.0000000000
     37686       303  PMPE      H13R            9.8686299098      -43.0874383857       -1.5694995692  MEMB      303             0.0000000000
     37687       303  PMPE      H13S           10.8642732667      -43.7995033401       -2.9275061360  MEMB      303             0.0000000000
     37688       303  PMPE      C214            8.8916994678      -44.5088369173       -2.7471348020  MEMB      303             0.0000000000
     37689       303  PMPE      H14R            8.8316046099      -44.8014143984       -3.8056811065  MEMB      303             0.0000000000
     37690       303  PMPE      H14S            7.8596499330      -44.2722679344       -2.4063538997  MEMB      303             0.0000000000
     37691       303  PMPE      C215            9.2185883266      -45.7246237261       -1.9699052498  MEMB      303             0.0000000000
     37692       303  PMPE      H15R           10.0024609744      -46.2135562129       -2.5200528668  MEMB      303             0.0000000000
     37693       303  PMPE      H15S            8.4208582923      -46.2819968509       -2.2405515442  MEMB      303             0.0000000000
     37694       303  PMPE      C216            9.1297649175      -45.5990865238       -0.4744542156  MEMB      303             0.0000000000
     37695       303  PMPE      H16R            8.0947230710      -45.3397556122       -0.2165080162  MEMB      303             0.0000000000
     37696       303  PMPE      H16S            9.2718791868      -46.4381676108        0.1893384243  MEMB      303             0.0000000000
     37697       303  PMPE      H16T            9.8947919509      -44.8985228213       -0.1489853794  MEMB      303             0.0000000000
     37698       303  PMPE      C33            13.2925960800      -44.7816892308      -10.6350395699  MEMB      303             0.0000000000
     37699       303  PMPE      H3X            13.0873013776      -43.8496871142      -11.2208889097  MEMB      303             0.0000000000
     37700       303  PMPE      H3Y            14.2965254587      -45.0820013235      -10.8711541234  MEMB      303             0.0000000000
     37701       303  PMPE      C34            13.1820038293      -44.3546362888       -9.1975166542  MEMB      303             0.0000000000
     37702       303  PMPE      H4X            12.1974852058      -44.1025193027       -9.2447885301  MEMB      303             0.0000000000
     37703       303  PMPE      H4Y            13.5692287846      -43.3871884978       -8.9293234634  MEMB      303             0.0000000000
     37704       303  PMPE      C35            13.3991918221      -45.3936651704       -8.1698215272  MEMB      303             0.0000000000
     37705       303  PMPE      H5X            14.5051039813      -45.3482243131       -8.1530141085  MEMB      303             0.0000000000
     37706       303  PMPE      H5Y            13.0253233954      -46.3473168846       -8.5806579109  MEMB      303             0.0000000000
     37707       303  PMPE      C36            12.8187187165      -45.1014522762       -6.8200258602  MEMB      303             0.0000000000
     37708       303  PMPE      H6X            11.7435585045      -45.3579850726       -6.7182268743  MEMB      303             0.0000000000
     37709       303  PMPE      H6Y            12.9767481701      -44.0487339861       -6.5311120498  MEMB      303             0.0000000000
     37710       303  PMPE      C37            13.4497064655      -45.9240231080       -5.8553648716  MEMB      303             0.0000000000
     37711       303  PMPE      H7X            14.5592434807      -45.8672323761       -5.7737523942  MEMB      303             0.0000000000
     37712       303  PMPE      H7Y            13.0957526075      -46.9413740939       -6.0313379714  MEMB      303             0.0000000000
     37713       303  PMPE      C38            12.9877378291      -45.5972540297       -4.6145737975  MEMB      303             0.0000000000
     37714       303  PMPE      H8X            11.8986060751      -45.7293966166       -4.4495886364  MEMB      303             0.0000000000
     37715       303  PMPE      H8Y            13.2893601583      -44.6219485467       -4.1961820123  MEMB      303             0.0000000000
     37716       303  PMPE      C39            13.7720503007      -46.5201885300       -3.9468611583  MEMB      303             0.0000000000
     37717       303  PMPE      H9X            13.7283493128      -47.5492554742       -3.8668420431  MEMB      303             0.0000000000
     37718       303  PMPE      H9Y            13.5764998979      -46.4711451784       -2.9215821117  MEMB      303             0.0000000000
     37719       303  PMPE      C310           14.3662768106      -46.2582705746       -3.0764906966  MEMB      303             0.0000000000
     37720       303  PMPE      H10X           14.9046866093      -46.3708106502       -3.9328049718  MEMB      303             0.0000000000
     37721       303  PMPE      H10Y           14.7601401843      -47.5169687380       -2.5175888414  MEMB      303             0.0000000000
     37722       303  PMPE      C311           14.7849014433      -44.5777012850       -2.3718737583  MEMB      303             0.0000000000
     37723       303  PMPE      H11X           14.9062167835      -44.0715670207       -3.1398221180  MEMB      303             0.0000000000
     37724       303  PMPE      H11Y           15.7819491526      -44.3982378560       -1.7958727291  MEMB      303             0.0000000000
     37725       303  PMPE      C312           14.0777249871      -43.8909941143       -1.2630977980  MEMB      303             0.0000000000
     37726       303  PMPE      H12X           14.2109859092      -44.8342620923       -1.2611438068  MEMB      303             0.0000000000
     37727       303  PMPE      H12Y           13.0868586671      -43.8878426985       -0.8734908220  MEMB      303             0.0000000000
     37728       303  PMPE      C313           14.1455331275      -43.0370582791       -0.2286759521  MEMB      303             0.0000000000
     37729       303  PMPE      H13X           14.6718986946      -43.1163822672        0.6335938057  MEMB      303             0.0000000000
     37730       303  PMPE      H13Y           13.3758460791      -43.1375292254        0.5864781583  MEMB      303             0.0000000000
     37731       303  PMPE      C314           14.4225217935      -41.9792798584       -1.0413455916  MEMB      303             0.0000000000
     37732       303  PMPE      H14X           15.0007043238      -42.2762910858       -1.9673553852  MEMB      303             0.0000000000
     37733       303  PMPE      H14Y           15.0766183929      -41.4462542701       -0.3703474867  MEMB      303             0.0000000000
     37734       303  PMPE      C315           13.0899687054      -41.3318411994       -1.2307998753  MEMB      303             0.0000000000
     37735       303  PMPE      H15X           12.8277286912      -40.7275865400       -0.3336869932  MEMB      303             0.0000000000
     37736       303  PMPE      H15Y           12.3318979970      -41.9882407013       -1.6739751655  MEMB      303             0.0000000000
     37737       303  PMPE      C316           13.1939301190      -40.3577228251       -2.2021472934  MEMB      303             0.0000000000
     37738       303  PMPE      H16X           12.5760733598      -39.4802433809       -2.2855335256  MEMB      303             0.0000000000
     37739       303  PMPE      H16Y           13.3962777962      -40.7596811473       -3.2364102186  MEMB      303             0.0000000000
     37740       303  PMPE      H16Z           14.0976239262      -39.9650880675       -1.7557793330  MEMB      303             0.0000000000
     37741       304  POPE      N              -7.0466402531       45.7677721655      -21.8083384551  MEMB      304             0.0000000000
     37742       304  POPE      HN1            -7.1458539460       44.7403071140      -21.6123766473  MEMB      304             0.0000000000
     37743       304  POPE      HN2            -7.9346554700       46.1621479402      -22.1645843297  MEMB      304             0.0000000000
     37744       304  POPE      HN3            -6.3194573316       45.9895534392      -22.5210297829  MEMB      304             0.0000000000
     37745       304  POPE      C12            -6.6389502611       46.3433056662      -20.4798696846  MEMB      304             0.0000000000
     37746       304  POPE      H12A           -6.7115586852       47.4398457095      -20.5560776365  MEMB      304             0.0000000000
     37747       304  POPE      H12B           -5.5802039285       46.0666057940      -20.2633771933  MEMB      304             0.0000000000
     37748       304  POPE      C11            -7.5122873263       45.7164489310      -19.3892590204  MEMB      304             0.0000000000
     37749       304  POPE      H11A           -8.5842238617       45.7326056447      -19.6369514387  MEMB      304             0.0000000000
     37750       304  POPE      H11B           -7.4998692568       46.2714596460      -18.4234666756  MEMB      304             0.0000000000
     37751       304  POPE      P              -6.1178023905       43.9545682416      -18.0392843690  MEMB      304             0.0000000000
     37752       304  POPE      O13            -4.9621830716       43.2304843516      -18.5849530604  MEMB      304             0.0000000000
     37753       304  POPE      O14            -6.8489253152       43.3650940718      -16.9063838232  MEMB      304             0.0000000000
     37754       304  POPE      O11            -5.6327268503       45.4150091941      -17.6822565872  MEMB      304             0.0000000000
     37755       304  POPE      O12            -7.1151989264       44.3537476552      -19.2334350555  MEMB      304             0.0000000000
     37756       304  POPE      C1             -5.4312512499       45.5380563237      -16.3182611713  MEMB      304             0.0000000000
     37757       304  POPE      HA             -4.4407891254       45.6628965869      -16.4397833510  MEMB      304             0.0000000000
     37758       304  POPE      HB             -5.1525792405       44.6726200246      -15.6335359942  MEMB      304             0.0000000000
     37759       304  POPE      C2             -6.0432052209       46.8001174474      -15.6824739368  MEMB      304             0.0000000000
     37760       304  POPE      HS             -5.9269276446       46.6735173565      -14.6182738431  MEMB      304             0.0000000000
     37761       304  POPE      O21            -7.3839886682       46.7502730605      -15.6175424332  MEMB      304             0.0000000000
     37762       304  POPE      C21            -7.8283829363       45.7876395324      -14.7356933179  MEMB      304             0.0000000000
     37763       304  POPE      O22            -7.1538619846       45.0906424331      -13.9910429195  MEMB      304             0.0000000000
     37764       304  POPE      C22            -9.3181925295       45.9295608061      -14.7338045730  MEMB      304             0.0000000000
     37765       304  POPE      H2R            -9.7557788340       45.0969513389      -15.2808443230  MEMB      304             0.0000000000
     37766       304  POPE      H2S            -9.6071313291       46.7892203727      -15.3641309700  MEMB      304             0.0000000000
     37767       304  POPE      C3             -5.6094719762       48.2681570238      -16.3289497108  MEMB      304             0.0000000000
     37768       304  POPE      HX             -5.5631490871       48.1396974431      -17.4007941657  MEMB      304             0.0000000000
     37769       304  POPE      HY             -4.6108977756       48.6890780696      -16.5685698228  MEMB      304             0.0000000000
     37770       304  POPE      O31            -5.9749425934       49.4662707760      -15.6655990187  MEMB      304             0.0000000000
     37771       304  POPE      C31            -5.3418212463       49.8555224674      -14.5339133245  MEMB      304             0.0000000000
     37772       304  POPE      O32            -4.2375688240       49.6604839492      -14.1475940947  MEMB      304             0.0000000000
     37773       304  POPE      C32            -6.1971661285       50.5622572153      -13.6088887979  MEMB      304             0.0000000000
     37774       304  POPE      H2X            -7.2294387369       50.5972751981      -13.9478354463  MEMB      304             0.0000000000
     37775       304  POPE      H2Y            -5.7007233914       51.5501434356      -13.6210772934  MEMB      304             0.0000000000
     37776       304  POPE      C23            -9.8366625887       46.0237363987      -13.2877630559  MEMB      304             0.0000000000
     37777       304  POPE      H3R           -10.8025358259       46.5767853702      -13.2332491478  MEMB      304             0.0000000000
     37778       304  POPE      H3S            -9.0819594640       46.6763622278      -12.7889644908  MEMB      304             0.0000000000
     37779       304  POPE      C24            -9.9950966268       44.6372258424      -12.6178690627  MEMB      304             0.0000000000
     37780       304  POPE      H4R            -9.2651773061       43.8723009637      -12.9856613561  MEMB      304             0.0000000000
     37781       304  POPE      H4S           -11.0298621572       44.2777497555      -12.8457858382  MEMB      304             0.0000000000
     37782       304  POPE      C25            -9.8682690292       44.7492032796      -11.1127942823  MEMB      304             0.0000000000
     37783       304  POPE      H5R           -10.6396421459       45.5148149338      -10.8411806894  MEMB      304             0.0000000000
     37784       304  POPE      H5S            -8.8823244140       45.0968181756      -10.7485191950  MEMB      304             0.0000000000
     37785       304  POPE      C26           -10.1703958342       43.4899755313      -10.3653659948  MEMB      304             0.0000000000
     37786       304  POPE      H6R            -9.4599548822       43.3110373383       -9.5616877556  MEMB      304             0.0000000000
     37787       304  POPE      H6S           -10.4050547134       42.5594310708      -10.9542372209  MEMB      304             0.0000000000
     37788       304  POPE      C27           -11.3127658678       43.8752027677       -9.5938826553  MEMB      304             0.0000000000
     37789       304  POPE      H7R           -11.9645159935       43.1966630614       -9.9274507157  MEMB      304             0.0000000000
     37790       304  POPE      H7S           -11.9271114566       44.4957043962      -10.1358940336  MEMB      304             0.0000000000
     37791       304  POPE      C28           -11.3056339691       44.5372414579       -8.2544278443  MEMB      304             0.0000000000
     37792       304  POPE      H8R           -12.2551539816       44.7645987540       -7.7545709953  MEMB      304             0.0000000000
     37793       304  POPE      H8S           -10.8791936608       45.4814768212       -8.5606061496  MEMB      304             0.0000000000
     37794       304  POPE      C29           -10.6126560322       43.9508572578       -7.1617632951  MEMB      304             0.0000000000
     37795       304  POPE      H91           -11.1626104172       43.1492881454       -6.6615509800  MEMB      304             0.0000000000
     37796       304  POPE      C210           -9.4520937421       44.3072495044       -6.6775094474  MEMB      304             0.0000000000
     37797       304  POPE      H101           -8.9807526809       43.6760093292       -5.8992929147  MEMB      304             0.0000000000
     37798       304  POPE      C211           -8.6476146589       45.3929743749       -7.1769184159  MEMB      304             0.0000000000
     37799       304  POPE      H11R           -9.0755275069       46.3406796217       -6.8583139337  MEMB      304             0.0000000000
     37800       304  POPE      H11S           -8.4510908193       45.4352561274       -8.2731889394  MEMB      304             0.0000000000
     37801       304  POPE      C212           -7.4721359772       45.3574093531       -6.3296893037  MEMB      304             0.0000000000
     37802       304  POPE      H12R           -6.9760299101       45.8499484922       -7.0767916763  MEMB      304             0.0000000000
     37803       304  POPE      H12S           -6.8992522227       44.5284028655       -6.1697347929  MEMB      304             0.0000000000
     37804       304  POPE      C213           -7.4923277424       45.8153118852       -4.9142773872  MEMB      304             0.0000000000
     37805       304  POPE      H13R           -8.4317542270       45.3784101239       -4.5625753716  MEMB      304             0.0000000000
     37806       304  POPE      H13S           -7.5807039010       46.8873924465       -5.0205722971  MEMB      304             0.0000000000
     37807       304  POPE      C214           -6.3024019644       45.4052906494       -4.0052352120  MEMB      304             0.0000000000
     37808       304  POPE      H14R           -5.4955647660       46.0941827202       -4.1668638817  MEMB      304             0.0000000000
     37809       304  POPE      H14S           -6.0215580473       44.3283976294       -4.0608217889  MEMB      304             0.0000000000
     37810       304  POPE      C215           -6.1660582710       45.8548696027       -2.5734706865  MEMB      304             0.0000000000
     37811       304  POPE      H15R           -7.0706660571       46.1157163404       -2.1241640885  MEMB      304             0.0000000000
     37812       304  POPE      H15S           -5.9069012789       46.8128982170       -2.2987861310  MEMB      304             0.0000000000
     37813       304  POPE      C216           -5.4724567357       44.8723693462       -1.7409148112  MEMB      304             0.0000000000
     37814       304  POPE      H16R           -4.4395998242       45.0268161092       -1.9763959649  MEMB      304             0.0000000000
     37815       304  POPE      H16S           -5.7805541968       43.9432616827       -2.2976989149  MEMB      304             0.0000000000
     37816       304  POPE      C217           -5.7113049464       44.8715639310       -0.1660008857  MEMB      304             0.0000000000
     37817       304  POPE      H17R           -6.7235867188       44.5568658019        0.0546239983  MEMB      304             0.0000000000
     37818       304  POPE      H17S           -5.4220175714       45.8576736252        0.1526804405  MEMB      304             0.0000000000
     37819       304  POPE      C218           -4.9131112542       44.0514963523        0.8100667902  MEMB      304             0.0000000000
     37820       304  POPE      H18R           -3.8535503032       44.1266886970        0.3022949978  MEMB      304             0.0000000000
     37821       304  POPE      H18S           -5.3146407548       42.9424885450        0.7427599777  MEMB      304             0.0000000000
     37822       304  POPE      H18T           -4.8817279639       43.8476640682        1.8095869846  MEMB      304             0.0000000000
     37823       304  POPE      C33            -6.1574899664       50.0001280984      -12.1732316514  MEMB      304             0.0000000000
     37824       304  POPE      H3X            -6.5155941266       50.8360576047      -11.5384189103  MEMB      304             0.0000000000
     37825       304  POPE      H3Y            -5.1419001047       49.7198723280      -11.8104372805  MEMB      304             0.0000000000
     37826       304  POPE      C34            -7.0753733690       48.7908367919      -11.9864751970  MEMB      304             0.0000000000
     37827       304  POPE      H4X            -6.5373947257       47.9406607519      -12.4371147312  MEMB      304             0.0000000000
     37828       304  POPE      H4Y            -7.9697522270       48.8987378431      -12.6127898518  MEMB      304             0.0000000000
     37829       304  POPE      C35            -7.2856203882       48.4886394839      -10.5044401328  MEMB      304             0.0000000000
     37830       304  POPE      H5X            -6.3320702699       48.8584987600      -10.0967731389  MEMB      304             0.0000000000
     37831       304  POPE      H5Y            -7.5014583852       47.3888177473      -10.4028635507  MEMB      304             0.0000000000
     37832       304  POPE      C36            -8.3522390957       49.2988164615       -9.8403880233  MEMB      304             0.0000000000
     37833       304  POPE      H6X            -9.1550304032       48.7738534757      -10.4009572424  MEMB      304             0.0000000000
     37834       304  POPE      H6Y            -8.2795945276       50.3657523038      -10.1487611384  MEMB      304             0.0000000000
     37835       304  POPE      C37            -8.5373896202       49.3466303124       -8.2992934066  MEMB      304             0.0000000000
     37836       304  POPE      H7X            -7.6371164215       49.7575220345       -7.8561132635  MEMB      304             0.0000000000
     37837       304  POPE      H7Y            -8.7968178125       48.3558964500       -7.8391062084  MEMB      304             0.0000000000
     37838       304  POPE      C38            -9.3659063622       50.5230359898       -7.7696908157  MEMB      304             0.0000000000
     37839       304  POPE      H8X            -9.6112009269       50.9120492248       -8.8197358035  MEMB      304             0.0000000000
     37840       304  POPE      H8Y            -9.3400537052       51.5605634600       -7.8910026665  MEMB      304             0.0000000000
     37841       304  POPE      C39            -9.9805554089       50.2773392641       -6.3114312778  MEMB      304             0.0000000000
     37842       304  POPE      H9X           -10.5581485781       49.2722309892       -6.1026627023  MEMB      304             0.0000000000
     37843       304  POPE      H9Y           -10.6910230585       51.1446453689       -6.0313367926  MEMB      304             0.0000000000
     37844       304  POPE      C310           -9.0812651116       50.2873320948       -5.1910815164  MEMB      304             0.0000000000
     37845       304  POPE      H10X           -8.6815133374       51.3243077850       -5.2125818586  MEMB      304             0.0000000000
     37846       304  POPE      H10Y           -8.3177467011       49.5289888291       -5.4101031884  MEMB      304             0.0000000000
     37847       304  POPE      C311           -9.7727837092       49.7471147300       -3.9337822000  MEMB      304             0.0000000000
     37848       304  POPE      H11X           -9.0110872338       49.7430051350       -3.1918705451  MEMB      304             0.0000000000
     37849       304  POPE      H11Y           -9.9641314643       48.6650990824       -3.9754331970  MEMB      304             0.0000000000
     37850       304  POPE      C312          -11.0943053441       50.3809946454       -3.5349884248  MEMB      304             0.0000000000
     37851       304  POPE      H12X          -11.7664823701       49.9712232075       -4.2854408221  MEMB      304             0.0000000000
     37852       304  POPE      H12Y          -11.0546787176       51.4827616771       -3.6243256973  MEMB      304             0.0000000000
     37853       304  POPE      C313          -11.7865202970       49.8113458658       -2.2963868691  MEMB      304             0.0000000000
     37854       304  POPE      H13X          -11.8411399607       48.7365206002       -2.3978216451  MEMB      304             0.0000000000
     37855       304  POPE      H13Y          -12.7435237234       50.3016572044       -2.0622905022  MEMB      304             0.0000000000
     37856       304  POPE      C314          -11.1150141787       49.9153100181       -1.0553342079  MEMB      304             0.0000000000
     37857       304  POPE      H14X          -10.0702183422       49.4774305863       -1.2862156394  MEMB      304             0.0000000000
     37858       304  POPE      H14Y          -11.1403298796       49.4599741035       -0.1737964821  MEMB      304             0.0000000000
     37859       304  POPE      C315          -11.4243457492       51.4517014369       -0.5619130939  MEMB      304             0.0000000000
     37860       304  POPE      H15X          -12.2239545768       51.8829626402       -0.6341472640  MEMB      304             0.0000000000
     37861       304  POPE      H15Y          -11.2107947131       51.9274044044       -1.5276855140  MEMB      304             0.0000000000
     37862       304  POPE      C316          -11.3448412056       52.2465350705        1.0356525023  MEMB      304             0.0000000000
     37863       304  POPE      H16X          -10.9043348424       51.7000320042        1.8396637658  MEMB      304             0.0000000000
     37864       304  POPE      H16Y          -11.1659716021       53.1313939582        1.0244879347  MEMB      304             0.0000000000
     37865       304  POPE      H16Z          -10.3589522239       52.2448900282        1.1833995516  MEMB      304             0.0000000000
     37866       305  PMPE      N             -31.1369981724      -34.3272713711      -22.0572108465  MEMB      305             0.0000000000
     37867       305  PMPE      HN1           -32.0416710868      -34.6811632977      -21.7057026986  MEMB      305             0.0000000000
     37868       305  PMPE      HN2           -31.1901683474      -33.9601102690      -23.0355925040  MEMB      305             0.0000000000
     37869       305  PMPE      HN3           -30.4474521753      -35.1010805960      -22.0038436220  MEMB      305             0.0000000000
     37870       305  PMPE      C12           -30.7326504883      -33.1667325929      -21.2146120668  MEMB      305             0.0000000000
     37871       305  PMPE      H12A          -31.5945856455      -32.5150849534      -21.1003715797  MEMB      305             0.0000000000
     37872       305  PMPE      H12B          -29.9293638490      -32.6865185920      -21.7997841127  MEMB      305             0.0000000000
     37873       305  PMPE      C11           -30.0936300546      -33.4723958144      -19.8594660592  MEMB      305             0.0000000000
     37874       305  PMPE      H11A          -29.7079729521      -32.4781542934      -19.4896736943  MEMB      305             0.0000000000
     37875       305  PMPE      H11B          -29.2163052108      -34.0968473032      -20.0943690447  MEMB      305             0.0000000000
     37876       305  PMPE      P             -31.6776035239      -33.4521907609      -17.7273839565  MEMB      305             0.0000000000
     37877       305  PMPE      O13           -32.5176471770      -34.4002858911      -16.9750212329  MEMB      305             0.0000000000
     37878       305  PMPE      O14           -32.3516950755      -32.2972873954      -18.3174466010  MEMB      305             0.0000000000
     37879       305  PMPE      O11           -30.4654363132      -32.8794851741      -16.8656916032  MEMB      305             0.0000000000
     37880       305  PMPE      O12           -30.9450158034      -34.1880261060      -18.9553581264  MEMB      305             0.0000000000
     37881       305  PMPE      C1            -29.5090900120      -33.6451722325      -16.1426442594  MEMB      305             0.0000000000
     37882       305  PMPE      HA            -28.4767176987      -33.3656910729      -16.4549460959  MEMB      305             0.0000000000
     37883       305  PMPE      HB            -29.6215545363      -34.7006551621      -16.4557128253  MEMB      305             0.0000000000
     37884       305  PMPE      C2            -29.6431813530      -33.4775855131      -14.5768206448  MEMB      305             0.0000000000
     37885       305  PMPE      HS            -29.0279410212      -34.2448230305      -14.0583714778  MEMB      305             0.0000000000
     37886       305  PMPE      O21           -31.0239497528      -33.5945912449      -14.1877115932  MEMB      305             0.0000000000
     37887       305  PMPE      C21           -31.4156523461      -34.8476730838      -14.0421205538  MEMB      305             0.0000000000
     37888       305  PMPE      O22           -30.6783568854      -35.8232689610      -13.9900155125  MEMB      305             0.0000000000
     37889       305  PMPE      C22           -32.9399496318      -34.9046780347      -13.8484106530  MEMB      305             0.0000000000
     37890       305  PMPE      H2R           -33.3316752043      -35.4184609980      -14.7564037414  MEMB      305             0.0000000000
     37891       305  PMPE      H2S           -33.4419845932      -33.9224623346      -13.7786893516  MEMB      305             0.0000000000
     37892       305  PMPE      C3            -29.0749395322      -32.1333748366      -14.0154506656  MEMB      305             0.0000000000
     37893       305  PMPE      HX            -29.4486116071      -31.2823789599      -14.6256847577  MEMB      305             0.0000000000
     37894       305  PMPE      HY            -27.9799230049      -32.1058176746      -14.1677295572  MEMB      305             0.0000000000
     37895       305  PMPE      O31           -29.3983023078      -31.9024673541      -12.6225756243  MEMB      305             0.0000000000
     37896       305  PMPE      C31           -28.8170814890      -32.6224387229      -11.6667741085  MEMB      305             0.0000000000
     37897       305  PMPE      O32           -28.0608298853      -33.5610854997      -11.8092802346  MEMB      305             0.0000000000
     37898       305  PMPE      C32           -29.2356040689      -32.0671831101      -10.3000237319  MEMB      305             0.0000000000
     37899       305  PMPE      H2X           -30.3467618533      -32.1022031972      -10.2897428270  MEMB      305             0.0000000000
     37900       305  PMPE      H2Y           -28.8837831586      -31.0109564058      -10.3197202315  MEMB      305             0.0000000000
     37901       305  PMPE      C23           -33.2642912175      -35.5977984475      -12.5086810914  MEMB      305             0.0000000000
     37902       305  PMPE      H3R           -32.5569950315      -36.4210123778      -12.3904031693  MEMB      305             0.0000000000
     37903       305  PMPE      H3S           -34.3033994880      -35.9917876728      -12.5615486823  MEMB      305             0.0000000000
     37904       305  PMPE      C24           -33.0126393819      -34.7031186496      -11.2663660803  MEMB      305             0.0000000000
     37905       305  PMPE      H4R           -33.4526885973      -33.7082920015      -11.4827717647  MEMB      305             0.0000000000
     37906       305  PMPE      H4S           -31.9183289886      -34.5402675674      -11.1667967017  MEMB      305             0.0000000000
     37907       305  PMPE      C25           -33.4379937869      -35.2742278747       -9.8816999442  MEMB      305             0.0000000000
     37908       305  PMPE      H5R           -32.5843089136      -35.8358219455       -9.4439833780  MEMB      305             0.0000000000
     37909       305  PMPE      H5S           -34.2209271778      -36.0371629440      -10.0742064642  MEMB      305             0.0000000000
     37910       305  PMPE      C26           -33.7562377456      -34.1878829793       -8.8127176214  MEMB      305             0.0000000000
     37911       305  PMPE      H6R           -34.7633630899      -33.7521737933       -8.9798056350  MEMB      305             0.0000000000
     37912       305  PMPE      H6S           -33.0208047895      -33.3580055830       -8.9435594024  MEMB      305             0.0000000000
     37913       305  PMPE      C27           -33.6826595793      -34.5900735089       -7.3105418304  MEMB      305             0.0000000000
     37914       305  PMPE      H7R           -32.7607484912      -35.1629039582       -7.0795724479  MEMB      305             0.0000000000
     37915       305  PMPE      H7S           -34.5611073451      -35.2157257755       -7.0149029870  MEMB      305             0.0000000000
     37916       305  PMPE      C28           -33.5716675317      -33.3840308916       -6.3421139874  MEMB      305             0.0000000000
     37917       305  PMPE      H8R           -32.7352410274      -32.6951228840       -6.5885519320  MEMB      305             0.0000000000
     37918       305  PMPE      H8S           -33.3492962895      -33.8104644660       -5.3346017767  MEMB      305             0.0000000000
     37919       305  PMPE      C29           -34.8822488189      -32.5948617204       -6.3195669374  MEMB      305             0.0000000000
     37920       305  PMPE      H9R           -35.8237065795      -33.1367188113       -6.2318926695  MEMB      305             0.0000000000
     37921       305  PMPE      C217          -34.9688019911      -31.5523789189       -7.4410038348  MEMB      305             0.0000000000
     37922       305  PMPE      H17R          -35.9611991752      -31.5177659889       -7.8697516263  MEMB      305             0.0000000000
     37923       305  PMPE      H17S          -34.0653790340      -31.3552688595       -7.9836177575  MEMB      305             0.0000000000
     37924       305  PMPE      C210          -34.9125893630      -31.1548896212       -5.9871943767  MEMB      305             0.0000000000
     37925       305  PMPE      H10R          -35.8856414702      -30.6881587639       -5.7087596279  MEMB      305             0.0000000000
     37926       305  PMPE      C211          -33.5854959565      -30.7006142410       -5.4070597438  MEMB      305             0.0000000000
     37927       305  PMPE      H11R          -33.5122913909      -29.7351551797       -5.7575195618  MEMB      305             0.0000000000
     37928       305  PMPE      H11S          -32.6770335576      -30.8035146291       -5.9775732503  MEMB      305             0.0000000000
     37929       305  PMPE      C212          -33.4643366490      -30.9283888535       -3.9070614041  MEMB      305             0.0000000000
     37930       305  PMPE      H12R          -33.1133468677      -31.9669753395       -3.8322983063  MEMB      305             0.0000000000
     37931       305  PMPE      H12S          -34.4540613010      -30.8128668586       -3.4152165597  MEMB      305             0.0000000000
     37932       305  PMPE      C213          -32.4372860084      -30.0529704600       -3.2525164653  MEMB      305             0.0000000000
     37933       305  PMPE      H13R          -32.7848696644      -29.1601523244       -2.9967681142  MEMB      305             0.0000000000
     37934       305  PMPE      H13S          -31.7010280465      -29.6936839680       -3.9656237635  MEMB      305             0.0000000000
     37935       305  PMPE      C214          -31.8216245939      -30.4862487959       -1.9792941952  MEMB      305             0.0000000000
     37936       305  PMPE      H14R          -30.9124488486      -29.9200710657       -1.9734361152  MEMB      305             0.0000000000
     37937       305  PMPE      H14S          -31.4382221635      -31.4899782655       -2.1302202204  MEMB      305             0.0000000000
     37938       305  PMPE      C215          -32.6328951878      -30.4213649214       -0.6901418302  MEMB      305             0.0000000000
     37939       305  PMPE      H15R          -32.1329749372      -31.1637750762       -0.0525341523  MEMB      305             0.0000000000
     37940       305  PMPE      H15S          -33.6988384301      -30.6330990559       -0.8971921378  MEMB      305             0.0000000000
     37941       305  PMPE      C216          -32.7492692564      -29.2194033179        0.1747534270  MEMB      305             0.0000000000
     37942       305  PMPE      H16R          -33.4997788611      -28.7037517130       -0.1527038882  MEMB      305             0.0000000000
     37943       305  PMPE      H16S          -32.5990995628      -29.2538496646        1.2051169834  MEMB      305             0.0000000000
     37944       305  PMPE      H16T          -32.1011206877      -28.4207097548        0.3041537436  MEMB      305             0.0000000000
     37945       305  PMPE      C33           -28.6632387409      -32.9058284655       -9.1029213900  MEMB      305             0.0000000000
     37946       305  PMPE      H3X           -27.7515785760      -33.4669620450       -9.4121688424  MEMB      305             0.0000000000
     37947       305  PMPE      H3Y           -29.4052140529      -33.6620267450       -8.7897024029  MEMB      305             0.0000000000
     37948       305  PMPE      C34           -28.3724939159      -32.1413768302       -7.8017148290  MEMB      305             0.0000000000
     37949       305  PMPE      H4X           -29.1791444203      -31.4724899806       -7.5545895828  MEMB      305             0.0000000000
     37950       305  PMPE      H4Y           -27.5575718531      -31.4275681246       -7.9806345018  MEMB      305             0.0000000000
     37951       305  PMPE      C35           -28.2653820574      -32.9497298259       -6.4873047900  MEMB      305             0.0000000000
     37952       305  PMPE      H5X           -27.7914139562      -32.2928501324       -5.7358209265  MEMB      305             0.0000000000
     37953       305  PMPE      H5Y           -27.6455068156      -33.7246248248       -6.7821372240  MEMB      305             0.0000000000
     37954       305  PMPE      C36           -29.4084908331      -33.8142251792       -5.9179139864  MEMB      305             0.0000000000
     37955       305  PMPE      H6X           -29.5290048443      -34.7998257466       -6.4279655121  MEMB      305             0.0000000000
     37956       305  PMPE      H6Y           -30.3427159548      -33.2449359651       -6.0470608377  MEMB      305             0.0000000000
     37957       305  PMPE      C37           -29.2877142265      -34.2313588157       -4.4437995596  MEMB      305             0.0000000000
     37958       305  PMPE      H7X           -29.1364306523      -33.3240030050       -3.8181282077  MEMB      305             0.0000000000
     37959       305  PMPE      H7Y           -28.4297910752      -34.9321217988       -4.2744448722  MEMB      305             0.0000000000
     37960       305  PMPE      C38           -30.5818126554      -34.9314801262       -4.0366029306  MEMB      305             0.0000000000
     37961       305  PMPE      H8X           -30.4236896837      -35.9769523822       -4.3575869592  MEMB      305             0.0000000000
     37962       305  PMPE      H8Y           -31.3888486871      -34.4434006551       -4.6387954955  MEMB      305             0.0000000000
     37963       305  PMPE      C39           -30.8978238696      -34.7710478865       -2.5546949618  MEMB      305             0.0000000000
     37964       305  PMPE      H9X           -31.9205410870      -35.0131209390       -2.2536832554  MEMB      305             0.0000000000
     37965       305  PMPE      H9Y           -30.6978056687      -33.6757825577       -2.4513681673  MEMB      305             0.0000000000
     37966       305  PMPE      C310          -30.0206873811      -35.6009699763       -1.6329331834  MEMB      305             0.0000000000
     37967       305  PMPE      H10X          -29.2992161894      -35.0874983609       -2.0218783956  MEMB      305             0.0000000000
     37968       305  PMPE      H10Y          -29.7625059739      -36.6189000886       -1.8993499716  MEMB      305             0.0000000000
     37969       305  PMPE      C311          -29.9179452017      -35.2219319327       -0.2002671853  MEMB      305             0.0000000000
     37970       305  PMPE      H11X          -29.4624481658      -35.9241267554        0.5344538403  MEMB      305             0.0000000000
     37971       305  PMPE      H11Y          -30.9375541114      -35.3871803361       -0.4936591198  MEMB      305             0.0000000000
     37972       305  PMPE      C312          -30.0164443227      -33.8902794802        0.3632281172  MEMB      305             0.0000000000
     37973       305  PMPE      H12X          -30.6042693703      -33.7404436351        1.3179212246  MEMB      305             0.0000000000
     37974       305  PMPE      H12Y          -30.4202868570      -33.1214456479       -0.3068846027  MEMB      305             0.0000000000
     37975       305  PMPE      C313          -28.6329717243      -33.7645066011        0.6378824333  MEMB      305             0.0000000000
     37976       305  PMPE      H13X          -28.2489754989      -33.0796723611       -0.1717381588  MEMB      305             0.0000000000
     37977       305  PMPE      H13Y          -27.9982843440      -34.5775212737        1.0576868866  MEMB      305             0.0000000000
     37978       305  PMPE      C314          -28.4845627318      -32.9262027665        1.3616039032  MEMB      305             0.0000000000
     37979       305  PMPE      H14X          -28.5844956980      -33.3987046851        2.3741778761  MEMB      305             0.0000000000
     37980       305  PMPE      H14Y          -29.4751608592      -32.2858470439        1.2872735765  MEMB      305             0.0000000000
     37981       305  PMPE      C315          -27.0171604827      -32.3952767061        1.0365596139  MEMB      305             0.0000000000
     37982       305  PMPE      H15X          -27.1121504466      -31.1628499226        1.2537543132  MEMB      305             0.0000000000
     37983       305  PMPE      H15Y          -26.8617989937      -31.7194918715        0.1939719868  MEMB      305             0.0000000000
     37984       305  PMPE      C316          -25.5351270049      -33.4612517817        1.7985528309  MEMB      305             0.0000000000
     37985       305  PMPE      H16X          -24.3588452226      -32.7684369155        1.6252306324  MEMB      305             0.0000000000
     37986       305  PMPE      H16Y          -24.9595501598      -33.5401103139        1.0714334503  MEMB      305             0.0000000000
     37987       305  PMPE      H16Z          -25.4581370294      -33.5162298831        3.0591105473  MEMB      305             0.0000000000
     37988       306  POPE      N              -7.8920377682      -44.9344277783      -20.0216745485  MEMB      306             0.0000000000
     37989       306  POPE      HN1            -7.8909906159      -45.6197559790      -19.2290515639  MEMB      306             0.0000000000
     37990       306  POPE      HN2            -8.1546197758      -43.9758288613      -19.7083387504  MEMB      306             0.0000000000
     37991       306  POPE      HN3            -8.5901936516      -45.2536887097      -20.7373082388  MEMB      306             0.0000000000
     37992       306  POPE      C12            -6.5271239426      -44.8245465860      -20.6556264063  MEMB      306             0.0000000000
     37993       306  POPE      H12A           -6.6256239615      -43.9745652133      -21.3508280092  MEMB      306             0.0000000000
     37994       306  POPE      H12B           -6.3881169539      -45.6691249778      -21.3411572958  MEMB      306             0.0000000000
     37995       306  POPE      C11            -5.3118398521      -44.6380086398      -19.6770365709  MEMB      306             0.0000000000
     37996       306  POPE      H11A           -5.4452034402      -43.7859950093      -18.9741161450  MEMB      306             0.0000000000
     37997       306  POPE      H11B           -4.4344333489      -44.4564263535      -20.3571343073  MEMB      306             0.0000000000
     37998       306  POPE      P              -3.5369308228      -46.0385496762      -18.3868007671  MEMB      306             0.0000000000
     37999       306  POPE      O13            -2.9376686081      -44.8471708420      -17.7542118972  MEMB      306             0.0000000000
     38000       306  POPE      O14            -2.8316556923      -46.6128948125      -19.5519661228  MEMB      306             0.0000000000
     38001       306  POPE      O11            -3.7300225817      -47.0974233001      -17.2933325868  MEMB      306             0.0000000000
     38002       306  POPE      O12            -5.0521295097      -45.7552340388      -18.8380186418  MEMB      306             0.0000000000
     38003       306  POPE      C1             -2.5651445486      -47.8033917601      -16.8592859308  MEMB      306             0.0000000000
     38004       306  POPE      HA             -1.7429635459      -47.1209486473      -16.6291021715  MEMB      306             0.0000000000
     38005       306  POPE      HB             -2.3020282133      -48.6744478680      -17.5225305548  MEMB      306             0.0000000000
     38006       306  POPE      C2             -2.8908399994      -48.2946879038      -15.5415661073  MEMB      306             0.0000000000
     38007       306  POPE      HS             -2.1275081483      -49.0865548792      -15.2065591845  MEMB      306             0.0000000000
     38008       306  POPE      O21            -4.2349350297      -48.7633224470      -15.7427872754  MEMB      306             0.0000000000
     38009       306  POPE      C21            -4.4835585069      -49.7071883917      -16.5335541932  MEMB      306             0.0000000000
     38010       306  POPE      O22            -3.7952296141      -50.5500266937      -17.0684308670  MEMB      306             0.0000000000
     38011       306  POPE      C22            -5.8572976649      -49.7672221188      -16.4222498406  MEMB      306             0.0000000000
     38012       306  POPE      H2R            -5.8188278486      -50.7360891564      -16.0772266527  MEMB      306             0.0000000000
     38013       306  POPE      H2S            -6.0759503178      -50.1449612256      -17.3349186543  MEMB      306             0.0000000000
     38014       306  POPE      C3             -2.9138072987      -47.2040785769      -14.4048772452  MEMB      306             0.0000000000
     38015       306  POPE      HX             -2.0187681272      -46.5919498470      -14.5614318050  MEMB      306             0.0000000000
     38016       306  POPE      HY             -2.8464111554      -47.6209343873      -13.3580857035  MEMB      306             0.0000000000
     38017       306  POPE      O31            -4.1638499477      -46.4982086003      -14.5099908724  MEMB      306             0.0000000000
     38018       306  POPE      C31            -4.1236267232      -45.2246060733      -14.8622478433  MEMB      306             0.0000000000
     38019       306  POPE      O32            -3.1324897473      -44.5151825971      -14.8172884082  MEMB      306             0.0000000000
     38020       306  POPE      C32            -5.5288636245      -44.7529431281      -15.2730386615  MEMB      306             0.0000000000
     38021       306  POPE      H2X            -6.2856148413      -45.5588056825      -15.2215321617  MEMB      306             0.0000000000
     38022       306  POPE      H2Y            -5.4079606475      -44.3993786089      -16.3239064988  MEMB      306             0.0000000000
     38023       306  POPE      C23            -6.9398027234      -48.8633778476      -15.7370836637  MEMB      306             0.0000000000
     38024       306  POPE      H3R            -6.8091522148      -47.9171285586      -16.1710767314  MEMB      306             0.0000000000
     38025       306  POPE      H3S            -6.7084414246      -48.5122762807      -14.8110279030  MEMB      306             0.0000000000
     38026       306  POPE      C24            -8.4508325292      -49.2284721954      -15.5090498652  MEMB      306             0.0000000000
     38027       306  POPE      H4R            -8.8973357567      -50.1273087752      -15.1078956392  MEMB      306             0.0000000000
     38028       306  POPE      H4S            -8.9942558396      -49.2940478182      -16.4736758891  MEMB      306             0.0000000000
     38029       306  POPE      C25            -8.9796470965      -48.4251047548      -14.6870397245  MEMB      306             0.0000000000
     38030       306  POPE      H5R           -10.0693793972      -48.6928858455      -14.6618709677  MEMB      306             0.0000000000
     38031       306  POPE      H5S            -8.7016687485      -47.6715909557      -15.5005041684  MEMB      306             0.0000000000
     38032       306  POPE      C26            -8.3761826709      -48.1953906295      -13.3339788024  MEMB      306             0.0000000000
     38033       306  POPE      H6R            -7.4710853684      -47.6578442403      -13.1126047605  MEMB      306             0.0000000000
     38034       306  POPE      H6S            -8.5197829147      -49.1349088460      -12.7401735864  MEMB      306             0.0000000000
     38035       306  POPE      C27            -8.7339221098      -47.0565380325      -12.6695332162  MEMB      306             0.0000000000
     38036       306  POPE      H7R            -9.7010548120      -48.0537886080      -12.7643934391  MEMB      306             0.0000000000
     38037       306  POPE      H7S            -9.0366677805      -46.0479095778      -13.0933102883  MEMB      306             0.0000000000
     38038       306  POPE      C28            -8.3854041922      -46.4576314208      -10.9973228543  MEMB      306             0.0000000000
     38039       306  POPE      H8R            -7.4255034452      -46.1891085212      -11.1246605114  MEMB      306             0.0000000000
     38040       306  POPE      H8S            -8.4329961375      -47.3549458354      -10.2624632113  MEMB      306             0.0000000000
     38041       306  POPE      C29            -9.1369730618      -45.3016758745      -10.1958115308  MEMB      306             0.0000000000
     38042       306  POPE      H91            -9.8870054406      -44.6461788404      -10.7237163273  MEMB      306             0.0000000000
     38043       306  POPE      C210           -9.3393061046      -45.2728925773       -8.9016714026  MEMB      306             0.0000000000
     38044       306  POPE      H101           -9.9031459362      -44.4692008748       -8.6218118463  MEMB      306             0.0000000000
     38045       306  POPE      C211           -8.9761925594      -46.1800617258       -7.8133861752  MEMB      306             0.0000000000
     38046       306  POPE      H11R           -8.8688524527      -47.2234353487       -8.1624164659  MEMB      306             0.0000000000
     38047       306  POPE      H11S           -9.7333710307      -46.1434664981       -7.0024742468  MEMB      306             0.0000000000
     38048       306  POPE      C212           -7.6185531904      -45.5997243601       -7.4077807787  MEMB      306             0.0000000000
     38049       306  POPE      H12R           -7.7103749524      -44.6146220998       -6.8865566641  MEMB      306             0.0000000000
     38050       306  POPE      H12S           -6.9348600353      -45.4915966324       -8.2867311025  MEMB      306             0.0000000000
     38051       306  POPE      C213           -6.9079818608      -46.5558442530       -6.4700630451  MEMB      306             0.0000000000
     38052       306  POPE      H13R           -7.0944105177      -47.5815678202       -6.8742742909  MEMB      306             0.0000000000
     38053       306  POPE      H13S           -7.4261579240      -46.4205719456       -5.4992363195  MEMB      306             0.0000000000
     38054       306  POPE      C214           -5.4099693881      -46.2643845678       -6.2496334918  MEMB      306             0.0000000000
     38055       306  POPE      H14R           -5.2409982997      -45.2667427496       -5.7998154077  MEMB      306             0.0000000000
     38056       306  POPE      H14S           -4.8668377867      -46.2292647439       -7.2099472139  MEMB      306             0.0000000000
     38057       306  POPE      C215           -4.7110103607      -47.2857098137       -5.3460773617  MEMB      306             0.0000000000
     38058       306  POPE      H15R           -3.6247099771      -47.0529237204       -5.3256400924  MEMB      306             0.0000000000
     38059       306  POPE      H15S           -4.8181641197      -48.2629605593       -5.8265614304  MEMB      306             0.0000000000
     38060       306  POPE      C216           -5.1907630189      -47.1550050810       -3.8980961409  MEMB      306             0.0000000000
     38061       306  POPE      H16R           -6.2872154230      -47.3017803704       -3.8312458391  MEMB      306             0.0000000000
     38062       306  POPE      H16S           -4.9360952449      -46.0944238883       -3.6749237458  MEMB      306             0.0000000000
     38063       306  POPE      C217           -4.5834214913      -48.1527068700       -2.9144700282  MEMB      306             0.0000000000
     38064       306  POPE      H17R           -3.4903294450      -48.1935800940       -3.0960132192  MEMB      306             0.0000000000
     38065       306  POPE      H17S           -5.0040303878      -49.1053649028       -3.1820985993  MEMB      306             0.0000000000
     38066       306  POPE      C218           -5.0265444854      -47.9966401669       -1.4572665279  MEMB      306             0.0000000000
     38067       306  POPE      H18R           -6.1228338280      -47.8359232620       -1.4327508340  MEMB      306             0.0000000000
     38068       306  POPE      H18S           -4.5820124645      -47.0726771438       -1.0652304956  MEMB      306             0.0000000000
     38069       306  POPE      H18T           -4.8031093585      -48.8609430096       -0.7812692260  MEMB      306             0.0000000000
     38070       306  POPE      C33            -6.0069404509      -43.6261565638      -14.3271495512  MEMB      306             0.0000000000
     38071       306  POPE      H3X            -6.8325672350      -43.0671728289      -14.8120825180  MEMB      306             0.0000000000
     38072       306  POPE      H3Y            -5.1586189957      -42.9065676129      -14.2809405711  MEMB      306             0.0000000000
     38073       306  POPE      C34            -6.4365789418      -44.1275055141      -12.9049351642  MEMB      306             0.0000000000
     38074       306  POPE      H4X            -5.6373474285      -44.7752345671      -12.4883647537  MEMB      306             0.0000000000
     38075       306  POPE      H4Y            -7.3607711210      -44.7471465366      -12.9159869625  MEMB      306             0.0000000000
     38076       306  POPE      C35            -6.5700243579      -43.0041546410      -11.8572592525  MEMB      306             0.0000000000
     38077       306  POPE      H5X            -7.5115989377      -42.5249287393      -11.8376256772  MEMB      306             0.0000000000
     38078       306  POPE      H5Y            -5.8835575826      -42.2139269542      -12.1797711317  MEMB      306             0.0000000000
     38079       306  POPE      C36            -6.4782649813      -43.3227195480      -10.3513965294  MEMB      306             0.0000000000
     38080       306  POPE      H6X            -5.4321392833      -43.3486086294      -10.0153696653  MEMB      306             0.0000000000
     38081       306  POPE      H6Y            -6.8602079209      -44.3451781495      -10.1723473814  MEMB      306             0.0000000000
     38082       306  POPE      C37            -7.2556685398      -42.3535702158       -9.4070710293  MEMB      306             0.0000000000
     38083       306  POPE      H7X            -7.0937994652      -42.6977764879       -8.3676297077  MEMB      306             0.0000000000
     38084       306  POPE      H7Y            -8.3458847823      -42.4860859310       -9.5406640689  MEMB      306             0.0000000000
     38085       306  POPE      C38            -6.9498089725      -40.8409606747       -9.4838431296  MEMB      306             0.0000000000
     38086       306  POPE      H8X            -7.5779457034      -40.2694447518       -8.7818685665  MEMB      306             0.0000000000
     38087       306  POPE      H8Y            -7.3220674292      -40.4287801589      -10.3793537744  MEMB      306             0.0000000000
     38088       306  POPE      C39            -5.5194421893      -40.4006201915       -9.2007951202  MEMB      306             0.0000000000
     38089       306  POPE      H9X            -5.4507699291      -39.2911722909       -9.1054364980  MEMB      306             0.0000000000
     38090       306  POPE      H9Y            -4.8297024513      -40.7022202549      -10.0196577143  MEMB      306             0.0000000000
     38091       306  POPE      C310           -5.0616271173      -40.9942050253       -7.8759175048  MEMB      306             0.0000000000
     38092       306  POPE      H10X           -3.9989496671      -40.8768948247       -7.8049608658  MEMB      306             0.0000000000
     38093       306  POPE      H10Y           -5.1540599785      -42.0902570674       -7.8602116827  MEMB      306             0.0000000000
     38094       306  POPE      C311           -5.7258452333      -40.4017938723       -6.6277169923  MEMB      306             0.0000000000
     38095       306  POPE      H11X           -6.8362022046      -40.4365229952       -6.7240672366  MEMB      306             0.0000000000
     38096       306  POPE      H11Y           -5.4522147840      -39.3403128032       -6.5096724422  MEMB      306             0.0000000000
     38097       306  POPE      C312           -5.2311722954      -41.1262279341       -5.3773075050  MEMB      306             0.0000000000
     38098       306  POPE      H12X           -5.4268939328      -40.5641885104       -4.4420160621  MEMB      306             0.0000000000
     38099       306  POPE      H12Y           -4.1385072712      -41.2644310466       -5.4404903612  MEMB      306             0.0000000000
     38100       306  POPE      C313           -5.9338023623      -42.4698797067       -5.2791443087  MEMB      306             0.0000000000
     38101       306  POPE      H13X           -5.3835199318      -43.1835185019       -5.9249244966  MEMB      306             0.0000000000
     38102       306  POPE      H13Y           -6.9553281110      -42.3246931498       -5.6915059931  MEMB      306             0.0000000000
     38103       306  POPE      C314           -5.9535763100      -43.0634298216       -3.8771476566  MEMB      306             0.0000000000
     38104       306  POPE      H14X           -6.3143742229      -44.1193555756       -3.9196312324  MEMB      306             0.0000000000
     38105       306  POPE      H14Y           -6.6559418964      -42.5080900072       -3.2297790118  MEMB      306             0.0000000000
     38106       306  POPE      C315           -4.5657858917      -42.9864013555       -3.2892508422  MEMB      306             0.0000000000
     38107       306  POPE      H15X           -4.2466870159      -41.9460855629       -3.0306395011  MEMB      306             0.0000000000
     38108       306  POPE      H15Y           -3.8643455011      -43.3927201562       -4.0480922276  MEMB      306             0.0000000000
     38109       306  POPE      C316           -4.4212706108      -43.7716627331       -2.0622427526  MEMB      306             0.0000000000
     38110       306  POPE      H16X           -3.3330148913      -43.6317138856       -1.8719788302  MEMB      306             0.0000000000
     38111       306  POPE      H16Y           -4.5623350921      -44.8696638596       -2.1214822376  MEMB      306             0.0000000000
     38112       306  POPE      H16Z           -5.0078650814      -43.3742391249       -1.2040336753  MEMB      306             0.0000000000
     38113       307  OYPE      N             -11.8909331241       45.7036226339      -19.6801401987  MEMB      307             0.0000000000
     38114       307  OYPE      HN1           -12.4785003770       46.2552685409      -20.3303563774  MEMB      307             0.0000000000
     38115       307  OYPE      HN2           -10.9606156371       46.1572931792      -19.7035572500  MEMB      307             0.0000000000
     38116       307  OYPE      HN3           -11.8263943032       44.7545835070      -20.0935226312  MEMB      307             0.0000000000
     38117       307  OYPE      C12           -12.5384158534       45.5404323680      -18.3141935816  MEMB      307             0.0000000000
     38118       307  OYPE      H12A          -12.8670927066       46.5378366374      -17.9560262960  MEMB      307             0.0000000000
     38119       307  OYPE      H12B          -11.7889753253       45.0659818444      -17.6448829893  MEMB      307             0.0000000000
     38120       307  OYPE      C11           -13.7639060149       44.6099074963      -18.3144574346  MEMB      307             0.0000000000
     38121       307  OYPE      H11A          -14.5135077936       45.0028756271      -19.0499889375  MEMB      307             0.0000000000
     38122       307  OYPE      H11B          -14.2220852988       44.6944639466      -17.2929440563  MEMB      307             0.0000000000
     38123       307  OYPE      P             -14.3850078322       42.2467190366      -19.2557704918  MEMB      307             0.0000000000
     38124       307  OYPE      O13           -13.7435250003       40.9418952672      -19.5666944797  MEMB      307             0.0000000000
     38125       307  OYPE      O14           -15.0541798947       42.9686458745      -20.3460864603  MEMB      307             0.0000000000
     38126       307  OYPE      O11           -15.3595353440       42.0265306640      -18.0635701695  MEMB      307             0.0000000000
     38127       307  OYPE      O12           -13.3280781365       43.2617054208      -18.5884569282  MEMB      307             0.0000000000
     38128       307  OYPE      C1            -14.9621677032       41.2566457286      -16.9509120823  MEMB      307             0.0000000000
     38129       307  OYPE      HA            -13.8740475564       41.3521495448      -16.7111805972  MEMB      307             0.0000000000
     38130       307  OYPE      HB            -15.1174156139       40.1727544160      -17.1826392757  MEMB      307             0.0000000000
     38131       307  OYPE      C2            -15.8454626727       41.7879767291      -15.8025568454  MEMB      307             0.0000000000
     38132       307  OYPE      HS            -16.8993393984       41.9625738042      -16.0461511424  MEMB      307             0.0000000000
     38133       307  OYPE      O21           -15.1203672976       42.7272920997      -15.0464304698  MEMB      307             0.0000000000
     38134       307  OYPE      C21           -15.7089145295       43.3137853308      -14.0463425211  MEMB      307             0.0000000000
     38135       307  OYPE      O22           -16.8861530446       43.3207628235      -13.7538364264  MEMB      307             0.0000000000
     38136       307  OYPE      C22           -14.6060442948       43.8747570403      -13.2185114173  MEMB      307             0.0000000000
     38137       307  OYPE      H2R           -14.5234520828       44.9773850655      -13.3187815335  MEMB      307             0.0000000000
     38138       307  OYPE      H2S           -13.6390999065       43.3742415083      -13.4717185195  MEMB      307             0.0000000000
     38139       307  OYPE      C3            -16.1584103686       40.7641888186      -14.9676553857  MEMB      307             0.0000000000
     38140       307  OYPE      HX            -15.0969081540       40.6240378334      -14.3882068213  MEMB      307             0.0000000000
     38141       307  OYPE      HY            -16.2970594649       39.9411450510      -15.8021916560  MEMB      307             0.0000000000
     38142       307  OYPE      O31           -17.4106968077       40.5117623317      -14.0934120999  MEMB      307             0.0000000000
     38143       307  OYPE      C31           -17.9537944373       39.4160992109      -13.1606475146  MEMB      307             0.0000000000
     38144       307  OYPE      O32           -17.4303506438       38.4292722421      -12.5183403253  MEMB      307             0.0000000000
     38145       307  OYPE      C32           -18.8860193359       40.1721610202      -12.9048463073  MEMB      307             0.0000000000
     38146       307  OYPE      H2X           -19.5712719741       40.5908281429      -13.6145554480  MEMB      307             0.0000000000
     38147       307  OYPE      H2Y           -19.3592561714       39.1389594246      -12.5987529068  MEMB      307             0.0000000000
     38148       307  OYPE      C23           -14.8272107208       43.4289853550      -11.7994017538  MEMB      307             0.0000000000
     38149       307  OYPE      H3R           -14.4490191521       42.3876012473      -11.6867354448  MEMB      307             0.0000000000
     38150       307  OYPE      H3S           -15.8211729645       43.6023958259      -11.3548605467  MEMB      307             0.0000000000
     38151       307  OYPE      C24           -13.8703417163       44.1663460166      -11.0098730821  MEMB      307             0.0000000000
     38152       307  OYPE      H4R           -13.7709142116       45.2455827468      -11.2410320927  MEMB      307             0.0000000000
     38153       307  OYPE      H4S           -12.9160923366       43.6962416479      -11.4300598089  MEMB      307             0.0000000000
     38154       307  OYPE      C25           -14.1081406798       44.0876898833       -9.4700860830  MEMB      307             0.0000000000
     38155       307  OYPE      H5R           -14.9638990120       44.6538698100       -9.1078165860  MEMB      307             0.0000000000
     38156       307  OYPE      H5S           -13.4119069958       44.8337372892       -9.0910943813  MEMB      307             0.0000000000
     38157       307  OYPE      C26           -14.0074529213       42.6732359008       -8.7855111264  MEMB      307             0.0000000000
     38158       307  OYPE      H6R           -14.7829928068       42.0977360816       -9.2826756577  MEMB      307             0.0000000000
     38159       307  OYPE      H6S           -14.1248043674       42.7575032806       -7.6928641236  MEMB      307             0.0000000000
     38160       307  OYPE      C27           -12.8902584323       41.6280539726       -9.0097491010  MEMB      307             0.0000000000
     38161       307  OYPE      H7R           -11.9185993762       42.0200647912       -8.5872180697  MEMB      307             0.0000000000
     38162       307  OYPE      H7S           -12.7701915130       41.5592495730      -10.1349658251  MEMB      307             0.0000000000
     38163       307  OYPE      C28           -12.8500275624       40.4076675474       -8.2440235535  MEMB      307             0.0000000000
     38164       307  OYPE      H8R           -12.5957424499       40.6875181653       -7.2047132105  MEMB      307             0.0000000000
     38165       307  OYPE      H8S           -11.9914191047       39.8768926854       -8.6719634546  MEMB      307             0.0000000000
     38166       307  OYPE      C29           -13.9347928584       39.4554267212       -8.3547075454  MEMB      307             0.0000000000
     38167       307  OYPE      H9R           -14.2460433882       39.2129918044       -9.3948504559  MEMB      307             0.0000000000
     38168       307  OYPE      C210          -14.7956364722       39.2033978613       -7.3778820363  MEMB      307             0.0000000000
     38169       307  OYPE      H10R          -15.7023566342       38.6227107172       -7.6392483908  MEMB      307             0.0000000000
     38170       307  OYPE      C211          -14.7800028298       39.8930753720       -6.0370785105  MEMB      307             0.0000000000
     38171       307  OYPE      H11R          -14.2889217624       40.8442539391       -5.9729701127  MEMB      307             0.0000000000
     38172       307  OYPE      H11S          -14.1889096760       39.3386473778       -5.4475041193  MEMB      307             0.0000000000
     38173       307  OYPE      C212          -16.0809073486       40.0466404442       -5.2916651070  MEMB      307             0.0000000000
     38174       307  OYPE      H12R          -16.4950124092       39.0806860235       -5.2259855653  MEMB      307             0.0000000000
     38175       307  OYPE      H12S          -16.5807445497       40.2130826196       -5.9615317788  MEMB      307             0.0000000000
     38176       307  OYPE      C213          -16.5359851645       40.7868847719       -4.0864970325  MEMB      307             0.0000000000
     38177       307  OYPE      H13R          -17.6270073603       40.8613695530       -4.0652536821  MEMB      307             0.0000000000
     38178       307  OYPE      H13S          -15.9152858402       41.6471744984       -4.0654924523  MEMB      307             0.0000000000
     38179       307  OYPE      C214          -16.4090130659       39.9557462263       -2.9511675533  MEMB      307             0.0000000000
     38180       307  OYPE      H14R          -15.2975165175       39.8589661538       -2.9685680304  MEMB      307             0.0000000000
     38181       307  OYPE      H14S          -17.0000810289       39.0762994035       -3.3710456616  MEMB      307             0.0000000000
     38182       307  OYPE      C215          -16.9204195297       40.0680053384       -1.5744225521  MEMB      307             0.0000000000
     38183       307  OYPE      H15R          -16.8224235945       39.1578201436       -0.8846283061  MEMB      307             0.0000000000
     38184       307  OYPE      H15S          -17.9708972519       40.0712949352       -1.8656812615  MEMB      307             0.0000000000
     38185       307  OYPE      C216          -16.1401475206       41.1737234638       -0.9042520334  MEMB      307             0.0000000000
     38186       307  OYPE      H16R          -15.9820592792       42.0110896130       -1.5613363721  MEMB      307             0.0000000000
     38187       307  OYPE      H16S          -15.2647711285       40.8265836979       -0.3247779571  MEMB      307             0.0000000000
     38188       307  OYPE      H16T          -16.4451835412       41.5545068852       -0.0000266320  MEMB      307             0.0000000000
     38189       307  OYPE      C33           -18.6619333877       41.5025641586      -11.7954509773  MEMB      307             0.0000000000
     38190       307  OYPE      H3X           -18.0783008130       42.2719053315      -11.8949732413  MEMB      307             0.0000000000
     38191       307  OYPE      H3Y           -18.8421898403       41.1261551672      -11.0063435760  MEMB      307             0.0000000000
     38192       307  OYPE      C34           -20.2463436738       42.4380589223      -10.7399681746  MEMB      307             0.0000000000
     38193       307  OYPE      H4X           -21.1401796447       42.5914846227      -11.5158025491  MEMB      307             0.0000000000
     38194       307  OYPE      H4Y           -21.2668149206       41.6969925298       -9.9885924398  MEMB      307             0.0000000000
     38195       307  OYPE      C35           -20.2124235673       43.2595183990      -10.2784667611  MEMB      307             0.0000000000
     38196       307  OYPE      H5X           -21.3643995036       43.2321193886       -9.8947547904  MEMB      307             0.0000000000
     38197       307  OYPE      H5Y           -20.2063545876       43.7504887523      -11.0166025818  MEMB      307             0.0000000000
     38198       307  OYPE      C36           -18.8118350138       43.4236149641       -9.7540788956  MEMB      307             0.0000000000
     38199       307  OYPE      H6X           -18.6345886670       42.5188643546       -9.2070464506  MEMB      307             0.0000000000
     38200       307  OYPE      H6Y           -17.9260123011       42.9718899065       -9.5066951942  MEMB      307             0.0000000000
     38201       307  OYPE      C37           -18.8367206612       44.5139826998       -8.7464847171  MEMB      307             0.0000000000
     38202       307  OYPE      H7X           -18.8612745581       45.1019123279       -9.6292401128  MEMB      307             0.0000000000
     38203       307  OYPE      H7Y           -19.7565707538       44.6345417241       -8.0461543315  MEMB      307             0.0000000000
     38204       307  OYPE      C38           -17.7837892746       44.8414145577       -7.5809048210  MEMB      307             0.0000000000
     38205       307  OYPE      H8X           -16.8557047927       44.8968541636       -8.1114381123  MEMB      307             0.0000000000
     38206       307  OYPE      H8Y           -17.9423675534       45.8510225390       -7.2024611261  MEMB      307             0.0000000000
     38207       307  OYPE      C39           -17.5659063447       44.1268026915       -6.2838235579  MEMB      307             0.0000000000
     38208       307  OYPE      H9X           -17.4959548552       43.0765017366       -6.4358670855  MEMB      307             0.0000000000
     38209       307  OYPE      C310          -17.3448788366       44.5216249738       -5.0366987874  MEMB      307             0.0000000000
     38210       307  OYPE      H10X          -17.2448669569       43.7896764679       -4.2165486769  MEMB      307             0.0000000000
     38211       307  OYPE      C311          -17.2574319522       45.9377846560       -4.6483995970  MEMB      307             0.0000000000
     38212       307  OYPE      H11X          -17.8626114288       46.5540526197       -5.3175181431  MEMB      307             0.0000000000
     38213       307  OYPE      H11Y          -17.6584608733       46.1315571907       -3.6637737354  MEMB      307             0.0000000000
     38214       307  OYPE      C312          -15.7995895853       46.3624463914       -4.5632868773  MEMB      307             0.0000000000
     38215       307  OYPE      H12X          -15.7130442686       47.4217893513       -4.1994701773  MEMB      307             0.0000000000
     38216       307  OYPE      H12Y          -15.2876007369       46.2594511519       -5.5405187258  MEMB      307             0.0000000000
     38217       307  OYPE      C313          -14.9628904790       45.5131027625       -3.6030445697  MEMB      307             0.0000000000
     38218       307  OYPE      H13X          -14.7567986465       44.4778057932       -3.9530944579  MEMB      307             0.0000000000
     38219       307  OYPE      H13Y          -13.9879837598       46.0334205990       -3.6892291802  MEMB      307             0.0000000000
     38220       307  OYPE      C314          -15.5280403467       45.5471255877       -2.1725744182  MEMB      307             0.0000000000
     38221       307  OYPE      H14X          -16.3668591896       44.8552350843       -2.0175603280  MEMB      307             0.0000000000
     38222       307  OYPE      H14Y          -15.9269943591       46.5656009188       -1.9847624348  MEMB      307             0.0000000000
     38223       307  OYPE      C315          -14.5627756357       45.0896252277       -1.0939165258  MEMB      307             0.0000000000
     38224       307  OYPE      H15X          -13.7446100753       45.8207910312       -0.9382181490  MEMB      307             0.0000000000
     38225       307  OYPE      H15Y          -14.1456467087       44.1059919638       -1.4015564759  MEMB      307             0.0000000000
     38226       307  OYPE      C316          -15.1984955110       44.9125067639        0.2825816035  MEMB      307             0.0000000000
     38227       307  OYPE      H16X          -15.9920247294       44.1311478473        0.2873300105  MEMB      307             0.0000000000
     38228       307  OYPE      H16Y          -15.6598566290       45.8792171055        0.5763123518  MEMB      307             0.0000000000
     38229       307  OYPE      C317          -14.1396300373       44.5101955163        1.3024496859  MEMB      307             0.0000000000
     38230       307  OYPE      H17X          -14.6586056273       44.1672521131        2.2104944556  MEMB      307             0.0000000000
     38231       307  OYPE      H17Y          -13.5006650533       45.3798648780        1.5879049363  MEMB      307             0.0000000000
     38232       307  OYPE      C318          -13.3048683097       43.3377009925        0.8600172563  MEMB      307             0.0000000000
     38233       307  OYPE      H18X          -12.5395239875       43.1592112284        1.5976604699  MEMB      307             0.0000000000
     38234       307  OYPE      H18Y          -13.8710616509       42.4086874906        0.6927188398  MEMB      307             0.0000000000
     38235       307  OYPE      H18Z          -12.7614430083       43.5831065327       -0.0630983731  MEMB      307             0.0000000000
     38236       308  QMPE      N               0.6094269546       48.6478087661      -20.1511832955  MEMB      308             0.0000000000
     38237       308  QMPE      HN1             0.9320833075       49.6349092424      -20.0388756029  MEMB      308             0.0000000000
     38238       308  QMPE      HN2             0.6822036135       48.3910843172      -21.1608744600  MEMB      308             0.0000000000
     38239       308  QMPE      HN3            -0.3805211787       48.6269453985      -19.8589759223  MEMB      308             0.0000000000
     38240       308  QMPE      C12             1.4931790832       47.7941140651      -19.2567044419  MEMB      308             0.0000000000
     38241       308  QMPE      H12A            1.0963620379       47.8897273567      -18.2232980696  MEMB      308             0.0000000000
     38242       308  QMPE      H12B            2.4956723111       48.2532538960      -19.3235729030  MEMB      308             0.0000000000
     38243       308  QMPE      C11             1.6011549311       46.3090181058      -19.6622944181  MEMB      308             0.0000000000
     38244       308  QMPE      H11A            2.0604606407       46.2114930630      -20.6734220592  MEMB      308             0.0000000000
     38245       308  QMPE      H11B            0.5575852703       45.9406001886      -19.6936661130  MEMB      308             0.0000000000
     38246       308  QMPE      P               2.2211045832       43.9849560174      -18.6228022309  MEMB      308             0.0000000000
     38247       308  QMPE      O13             3.1058707497       43.5248237187      -17.5652062502  MEMB      308             0.0000000000
     38248       308  QMPE      O14             2.2837910528       43.3143090329      -19.9297388610  MEMB      308             0.0000000000
     38249       308  QMPE      O11             0.7131628917       43.9227752537      -18.1459030456  MEMB      308             0.0000000000
     38250       308  QMPE      O12             2.3609073220       45.5732326803      -18.7103393035  MEMB      308             0.0000000000
     38251       308  QMPE      C1              0.3920217281       43.1091874720      -17.0280542968  MEMB      308             0.0000000000
     38252       308  QMPE      HA              1.0354953696       43.2115767357      -16.1398678229  MEMB      308             0.0000000000
     38253       308  QMPE      HB              0.6125716290       42.1367512486      -17.3051753845  MEMB      308             0.0000000000
     38254       308  QMPE      C2             -1.0540053149       43.2390535808      -16.6018047662  MEMB      308             0.0000000000
     38255       308  QMPE      HS             -1.7093438730       42.8915481931      -17.4520643379  MEMB      308             0.0000000000
     38256       308  QMPE      O21            -1.1151874370       44.6461298179      -16.3983726666  MEMB      308             0.0000000000
     38257       308  QMPE      C21            -2.2954001919       44.9882362834      -16.4206326370  MEMB      308             0.0000000000
     38258       308  QMPE      O22            -3.1673021415       44.1847575030      -16.7748338620  MEMB      308             0.0000000000
     38259       308  QMPE      C22            -2.1403732681       46.5144065578      -16.0613615965  MEMB      308             0.0000000000
     38260       308  QMPE      H2R            -1.8395243507       47.0847991811      -16.9668177815  MEMB      308             0.0000000000
     38261       308  QMPE      H2S            -1.5015570565       46.7445251455      -15.2040807651  MEMB      308             0.0000000000
     38262       308  QMPE      C3             -1.3888666324       42.3944376939      -15.3154160053  MEMB      308             0.0000000000
     38263       308  QMPE      HX             -1.1837198665       41.3126978079      -15.4644849610  MEMB      308             0.0000000000
     38264       308  QMPE      HY             -2.4705884044       42.4387647928      -15.0590489032  MEMB      308             0.0000000000
     38265       308  QMPE      O31            -0.5397833505       42.7871810830      -14.2371133665  MEMB      308             0.0000000000
     38266       308  QMPE      C31            -1.0424739414       43.6023667743      -13.3253179856  MEMB      308             0.0000000000
     38267       308  QMPE      O32            -2.1855189833       44.0167582118      -13.2815577128  MEMB      308             0.0000000000
     38268       308  QMPE      C32             0.0396120070       43.9195679813      -12.3082991200  MEMB      308             0.0000000000
     38269       308  QMPE      H2X            -0.4236379880       44.5285210212      -11.5023884475  MEMB      308             0.0000000000
     38270       308  QMPE      H2Y             0.4048994618       42.9655259253      -11.8753817574  MEMB      308             0.0000000000
     38271       308  QMPE      C23            -3.2144896560       47.3437859362      -15.5841595976  MEMB      308             0.0000000000
     38272       308  QMPE      H3R            -3.7354627225       47.1826995504      -16.5632615517  MEMB      308             0.0000000000
     38273       308  QMPE      H3S            -3.0000483800       48.4161786562      -15.6679643836  MEMB      308             0.0000000000
     38274       308  QMPE      C24            -3.8966737087       47.0439411172      -14.2425054455  MEMB      308             0.0000000000
     38275       308  QMPE      H4R            -4.2912012777       45.9987491059      -14.2458897545  MEMB      308             0.0000000000
     38276       308  QMPE      H4S            -4.7782738867       47.7263137190      -14.0679568530  MEMB      308             0.0000000000
     38277       308  QMPE      C25            -3.3038770223       47.2893727337      -12.9747979680  MEMB      308             0.0000000000
     38278       308  QMPE      H5R            -3.0503496553       48.3537447060      -12.9138595240  MEMB      308             0.0000000000
     38279       308  QMPE      H5S            -2.4514303893       46.6436736259      -13.1581007153  MEMB      308             0.0000000000
     38280       308  QMPE      C26            -4.1856667456       46.8816215049      -11.7981776909  MEMB      308             0.0000000000
     38281       308  QMPE      H6R            -4.5661987236       45.8516482642      -11.9217094930  MEMB      308             0.0000000000
     38282       308  QMPE      H6S            -5.0059919295       47.5663455284      -11.6173334252  MEMB      308             0.0000000000
     38283       308  QMPE      C27            -3.3745028338       46.9534263574      -10.5327748159  MEMB      308             0.0000000000
     38284       308  QMPE      H7R            -3.1677078746       48.0225245047      -10.3196445120  MEMB      308             0.0000000000
     38285       308  QMPE      H7S            -2.4373354267       46.4761088245      -10.8608309261  MEMB      308             0.0000000000
     38286       308  QMPE      C28            -3.9447593386       46.2243970833       -9.3134996546  MEMB      308             0.0000000000
     38287       308  QMPE      H8R            -3.1018445614       45.9697953437       -8.6447850095  MEMB      308             0.0000000000
     38288       308  QMPE      H8S            -4.4717585252       45.2893445286       -9.6178973491  MEMB      308             0.0000000000
     38289       308  QMPE      C29            -4.8941737624       47.1451478845       -8.5916502971  MEMB      308             0.0000000000
     38290       308  QMPE      H9R            -5.6616086045       47.5536071903       -9.1486402156  MEMB      308             0.0000000000
     38291       308  QMPE      C217           -4.3648018625       48.0318224959       -7.4783919655  MEMB      308             0.0000000000
     38292       308  QMPE      H17R           -3.4215624568       47.7247651434       -7.1141519079  MEMB      308             0.0000000000
     38293       308  QMPE      H17S           -4.9309350878       48.9399650276       -7.2506814818  MEMB      308             0.0000000000
     38294       308  QMPE      C210           -5.2492280498       46.9008234776       -7.1956983097  MEMB      308             0.0000000000
     38295       308  QMPE      H10R           -6.2098973157       47.4312056952       -6.8760266829  MEMB      308             0.0000000000
     38296       308  QMPE      C211           -4.6818702926       45.5402370059       -6.6252070219  MEMB      308             0.0000000000
     38297       308  QMPE      H11R           -3.6230348275       45.5717532440       -6.4759995127  MEMB      308             0.0000000000
     38298       308  QMPE      H11S           -4.9096883143       45.4941794713       -5.6344582348  MEMB      308             0.0000000000
     38299       308  QMPE      C212           -4.9931205615       44.0552928604       -7.0747156795  MEMB      308             0.0000000000
     38300       308  QMPE      H12R           -4.4905610229       43.9207308280       -7.9983055504  MEMB      308             0.0000000000
     38301       308  QMPE      H12S           -6.0013799657       43.7159721258       -7.4126576702  MEMB      308             0.0000000000
     38302       308  QMPE      C213           -4.7247577494       43.0733231440       -5.9260230462  MEMB      308             0.0000000000
     38303       308  QMPE      H13R           -5.0430864899       42.0868257096       -6.2497679756  MEMB      308             0.0000000000
     38304       308  QMPE      H13S           -5.4233354202       43.1042343565       -5.1370078864  MEMB      308             0.0000000000
     38305       308  QMPE      C214           -3.3400088061       43.2617324321       -5.3872352841  MEMB      308             0.0000000000
     38306       308  QMPE      H14R           -3.0526306550       44.2369712752       -4.9947263598  MEMB      308             0.0000000000
     38307       308  QMPE      H14S           -2.8589777513       43.1826790501       -6.3304771573  MEMB      308             0.0000000000
     38308       308  QMPE      C215           -2.8052736088       42.2811542283       -4.4389530431  MEMB      308             0.0000000000
     38309       308  QMPE      H15R           -3.1439196877       41.2126196077       -4.4658608051  MEMB      308             0.0000000000
     38310       308  QMPE      H15S           -3.4862807792       42.4217953401       -3.8906580200  MEMB      308             0.0000000000
     38311       308  QMPE      C216           -1.4510278935       42.6152507310       -3.7364741677  MEMB      308             0.0000000000
     38312       308  QMPE      H16R           -0.6258053412       42.4502047863       -4.4120744368  MEMB      308             0.0000000000
     38313       308  QMPE      H16S           -1.2936637034       41.8938611541       -2.8563482091  MEMB      308             0.0000000000
     38314       308  QMPE      H16T           -1.3485880228       43.5748316490       -3.2603514883  MEMB      308             0.0000000000
     38315       308  QMPE      C33             1.2095359315       44.6824677385      -12.9563938801  MEMB      308             0.0000000000
     38316       308  QMPE      H3X             0.8886669035       45.7066390057      -13.2099051550  MEMB      308             0.0000000000
     38317       308  QMPE      H3Y             1.6128151753       44.1742595815      -13.8696000210  MEMB      308             0.0000000000
     38318       308  QMPE      C34             2.3486980421       44.8675679452      -12.0079981652  MEMB      308             0.0000000000
     38319       308  QMPE      H4X             3.1416028089       45.4720718911      -12.4951473944  MEMB      308             0.0000000000
     38320       308  QMPE      H4Y             2.6413836568       43.8493234908      -11.8977498382  MEMB      308             0.0000000000
     38321       308  QMPE      C35             1.9861579630       45.3328630162      -10.6413689696  MEMB      308             0.0000000000
     38322       308  QMPE      H5X             2.8538076863       45.8174842906      -10.1115092559  MEMB      308             0.0000000000
     38323       308  QMPE      H5Y             1.4427450450       44.5666160660      -10.0351973158  MEMB      308             0.0000000000
     38324       308  QMPE      C36             1.3805849381       46.6055098389      -10.6142408546  MEMB      308             0.0000000000
     38325       308  QMPE      H6X             0.3203035072       46.4460906465      -10.7941195296  MEMB      308             0.0000000000
     38326       308  QMPE      H6Y             1.8147436775       47.1807536974      -11.4524283756  MEMB      308             0.0000000000
     38327       308  QMPE      C37             1.5640266412       47.1410184342       -9.2456835306  MEMB      308             0.0000000000
     38328       308  QMPE      H7X             1.0600634227       46.6835746533       -8.4051860837  MEMB      308             0.0000000000
     38329       308  QMPE      H7Y             2.6336807587       47.4863225620       -8.9988644407  MEMB      308             0.0000000000
     38330       308  QMPE      C38             0.5720766722       48.1111001315       -9.2206770852  MEMB      308             0.0000000000
     38331       308  QMPE      H8X             1.2168149892       48.4318484560       -8.2292612994  MEMB      308             0.0000000000
     38332       308  QMPE      H8Y             0.4948089407       48.6169883141      -10.1549260781  MEMB      308             0.0000000000
     38333       308  QMPE      C39            -0.8509215687       48.6839419618       -8.8815987127  MEMB      308             0.0000000000
     38334       308  QMPE      H9X            -1.2611759458       47.7260479687       -8.9942966916  MEMB      308             0.0000000000
     38335       308  QMPE      H9Y            -1.1724141886       49.4936237777       -9.6570023284  MEMB      308             0.0000000000
     38336       308  QMPE      C310           -1.0110473926       49.4087138793       -7.4986091281  MEMB      308             0.0000000000
     38337       308  QMPE      H10X           -2.0317135117       49.7303491618       -7.4969666240  MEMB      308             0.0000000000
     38338       308  QMPE      H10Y           -0.6475109916       50.4309495204       -7.3728462428  MEMB      308             0.0000000000
     38339       308  QMPE      C311           -0.4297344366       48.6030511971       -6.3256160211  MEMB      308             0.0000000000
     38340       308  QMPE      H11X            0.6758221669       48.5042713725       -6.4168652284  MEMB      308             0.0000000000
     38341       308  QMPE      H11Y           -0.7776897965       47.5868690656       -6.5017277053  MEMB      308             0.0000000000
     38342       308  QMPE      C312           -0.6660751994       49.1694705801       -4.8991423431  MEMB      308             0.0000000000
     38343       308  QMPE      H12X           -1.7145636357       49.5301546667       -4.8654916252  MEMB      308             0.0000000000
     38344       308  QMPE      H12Y           -0.0612153573       50.0840010810       -4.6953494310  MEMB      308             0.0000000000
     38345       308  QMPE      C313           -0.3257764528       48.1007764763       -3.8397477304  MEMB      308             0.0000000000
     38346       308  QMPE      H13X           -0.5408385918       47.0850448756       -4.2510949042  MEMB      308             0.0000000000
     38347       308  QMPE      H13Y            0.7631142027       48.0537517701       -3.5811105163  MEMB      308             0.0000000000
     38348       308  QMPE      C314           -1.0519543769       48.2303919165       -2.4956741868  MEMB      308             0.0000000000
     38349       308  QMPE      H14X           -2.1566530265       48.3207299000       -2.5575225836  MEMB      308             0.0000000000
     38350       308  QMPE      H14Y           -0.7226915466       49.1765221518       -2.0009424363  MEMB      308             0.0000000000
     38351       308  QMPE      C315           -0.7184535917       46.9611878048       -1.7023897521  MEMB      308             0.0000000000
     38352       308  QMPE      H15X            0.3687719546       46.9367864893       -1.5045557642  MEMB      308             0.0000000000
     38353       308  QMPE      H15Y           -1.2662493307       46.9045198926       -0.7396461857  MEMB      308             0.0000000000
     38354       308  QMPE      H15Z           -0.9132674308       46.0396951569       -2.3034553401  MEMB      308             0.0000000000
     38355       309  PMPE      N              44.6592676501        8.5244303992      -21.8268117021  MEMB      309             0.0000000000
     38356       309  PMPE      HN1            45.3128143982        9.3293115245      -21.8769118465  MEMB      309             0.0000000000
     38357       309  PMPE      HN2            45.2298992872        7.6985161947      -21.5925207458  MEMB      309             0.0000000000
     38358       309  PMPE      HN3            44.1612878021        8.3702633483      -22.7350892226  MEMB      309             0.0000000000
     38359       309  PMPE      C12            43.6487626306        8.8122242141      -20.7424122567  MEMB      309             0.0000000000
     38360       309  PMPE      H12A           42.8642239230        8.0439117313      -20.8539522659  MEMB      309             0.0000000000
     38361       309  PMPE      H12B           43.2312803313        9.8101689340      -20.9661561061  MEMB      309             0.0000000000
     38362       309  PMPE      C11            44.1913586713        8.8583447309      -19.3028909766  MEMB      309             0.0000000000
     38363       309  PMPE      H11A           44.1515227851        7.8373297161      -18.8556989924  MEMB      309             0.0000000000
     38364       309  PMPE      H11B           43.4723881460        9.4242214780      -18.6702790916  MEMB      309             0.0000000000
     38365       309  PMPE      P              46.4064948831        9.2858793957      -18.0247156844  MEMB      309             0.0000000000
     38366       309  PMPE      O13            47.5655191577       10.1726047631      -18.2459129014  MEMB      309             0.0000000000
     38367       309  PMPE      O14            46.5811567556        7.8190913753      -17.8383900283  MEMB      309             0.0000000000
     38368       309  PMPE      O11            45.4722377661        9.8990347926      -16.9041762752  MEMB      309             0.0000000000
     38369       309  PMPE      O12            45.4772197046        9.4843962920      -19.2836473914  MEMB      309             0.0000000000
     38370       309  PMPE      C1             45.0422185850        9.1469109020      -15.7864262879  MEMB      309             0.0000000000
     38371       309  PMPE      HA             44.9539659609        8.0477543456      -16.0007816636  MEMB      309             0.0000000000
     38372       309  PMPE      HB             44.0445274334        9.5682018702      -15.5411349941  MEMB      309             0.0000000000
     38373       309  PMPE      C2             46.0030523821        9.3638036395      -14.5858457539  MEMB      309             0.0000000000
     38374       309  PMPE      HS             45.4551661498        9.0951869778      -13.6551188054  MEMB      309             0.0000000000
     38375       309  PMPE      O21            46.4250990706       10.7357540602      -14.5295551428  MEMB      309             0.0000000000
     38376       309  PMPE      C21            45.4722593757       11.5874638639      -14.1975146477  MEMB      309             0.0000000000
     38377       309  PMPE      O22            44.4465602141       11.3317326525      -13.5932164774  MEMB      309             0.0000000000
     38378       309  PMPE      C22            45.8314385662       12.9955187947      -14.6381194607  MEMB      309             0.0000000000
     38379       309  PMPE      H2R            45.1844404973       13.6361801320      -14.0141445221  MEMB      309             0.0000000000
     38380       309  PMPE      H2S            45.5949529657       13.1355648971      -15.7205009672  MEMB      309             0.0000000000
     38381       309  PMPE      C3             47.2470689291        8.4301630896      -14.7164157363  MEMB      309             0.0000000000
     38382       309  PMPE      HX             47.9720845349        8.9107326286      -15.4066637227  MEMB      309             0.0000000000
     38383       309  PMPE      HY             46.9072246889        7.4670718965      -15.1743968321  MEMB      309             0.0000000000
     38384       309  PMPE      O31            47.9164749704        8.2476690755      -13.4705218208  MEMB      309             0.0000000000
     38385       309  PMPE      C31            47.2652113635        7.5754478177      -12.6708130221  MEMB      309             0.0000000000
     38386       309  PMPE      O32            46.2440563667        6.9268233612      -12.8278171802  MEMB      309             0.0000000000
     38387       309  PMPE      C32            47.8695109372        7.8441633702      -11.3601575994  MEMB      309             0.0000000000
     38388       309  PMPE      H2X            48.4213160187        8.7347557816      -11.1159271559  MEMB      309             0.0000000000
     38389       309  PMPE      H2Y            48.5392703566        6.9571603889      -11.1801717286  MEMB      309             0.0000000000
     38390       309  PMPE      C23            47.2936690011       13.3376497277      -14.3297113151  MEMB      309             0.0000000000
     38391       309  PMPE      H3R            47.4224259223       14.3420565657      -14.8010829134  MEMB      309             0.0000000000
     38392       309  PMPE      H3S            47.8782457886       12.5832220918      -14.9096525105  MEMB      309             0.0000000000
     38393       309  PMPE      C24            47.7093913322       13.2524616756      -12.8139055678  MEMB      309             0.0000000000
     38394       309  PMPE      H4R            48.8156124895       13.4191856218      -12.7312986271  MEMB      309             0.0000000000
     38395       309  PMPE      H4S            47.6717624944       12.2262623567      -12.4295844245  MEMB      309             0.0000000000
     38396       309  PMPE      C25            46.8532695515       14.0491605743      -11.7801955570  MEMB      309             0.0000000000
     38397       309  PMPE      H5R            45.7722907244       13.9847469323      -11.9058526516  MEMB      309             0.0000000000
     38398       309  PMPE      H5S            46.9147548190       15.0944081179      -11.9265759328  MEMB      309             0.0000000000
     38399       309  PMPE      C26            47.2714526221       13.9415137187      -10.3098100162  MEMB      309             0.0000000000
     38400       309  PMPE      H6R            46.8970125939       14.9011762826       -9.8203686375  MEMB      309             0.0000000000
     38401       309  PMPE      H6S            48.3955327766       13.9024245761      -10.2528799320  MEMB      309             0.0000000000
     38402       309  PMPE      C27            46.7770477747       12.7810462616       -9.4983965039  MEMB      309             0.0000000000
     38403       309  PMPE      H7R            46.9717581968       11.7838751553       -9.9314279564  MEMB      309             0.0000000000
     38404       309  PMPE      H7S            45.6932706083       12.9628791749       -9.3825708326  MEMB      309             0.0000000000
     38405       309  PMPE      C28            47.4226873411       12.7620436563       -8.1150859273  MEMB      309             0.0000000000
     38406       309  PMPE      H8R            47.4575438933       13.8366999734       -7.8500362286  MEMB      309             0.0000000000
     38407       309  PMPE      H8S            48.4437439919       12.3363286659       -8.1526718691  MEMB      309             0.0000000000
     38408       309  PMPE      C29            46.6101710335       11.9444075680       -7.1274551050  MEMB      309             0.0000000000
     38409       309  PMPE      H9R            46.1678030157       10.9840599828       -7.4391597822  MEMB      309             0.0000000000
     38410       309  PMPE      C217           45.5733789786       12.7642447862       -6.3919664390  MEMB      309             0.0000000000
     38411       309  PMPE      H17R           44.6989388344       12.1795534280       -6.1356858768  MEMB      309             0.0000000000
     38412       309  PMPE      H17S           45.7096069216       13.8315291817       -6.5340201723  MEMB      309             0.0000000000
     38413       309  PMPE      C210           46.7193202584       12.1737074979       -5.6382989171  MEMB      309             0.0000000000
     38414       309  PMPE      H10R           46.5043845914       11.2670575307       -5.0456690493  MEMB      309             0.0000000000
     38415       309  PMPE      C211           47.6630256858       13.1836317883       -5.0215113057  MEMB      309             0.0000000000
     38416       309  PMPE      H11R           47.9421240408       14.0441842930       -5.6731617716  MEMB      309             0.0000000000
     38417       309  PMPE      H11S           48.5980177280       12.6176746899       -4.8453004071  MEMB      309             0.0000000000
     38418       309  PMPE      C212           47.1145404775       13.6960919810       -3.6593145128  MEMB      309             0.0000000000
     38419       309  PMPE      H12R           46.1240510574       14.1279717675       -3.6923956637  MEMB      309             0.0000000000
     38420       309  PMPE      H12S           47.5650054643       14.6082287268       -3.3231709945  MEMB      309             0.0000000000
     38421       309  PMPE      C213           47.2792848242       12.8245072955       -2.4140591023  MEMB      309             0.0000000000
     38422       309  PMPE      H13R           48.3078383183       12.4194300306       -2.4089161313  MEMB      309             0.0000000000
     38423       309  PMPE      H13S           46.5619923409       11.9865421639       -2.4321740047  MEMB      309             0.0000000000
     38424       309  PMPE      C214           47.1100999100       13.6192059901       -1.0993499386  MEMB      309             0.0000000000
     38425       309  PMPE      H14R           46.1081462352       14.0789311294       -1.0646840589  MEMB      309             0.0000000000
     38426       309  PMPE      H14S           47.8713741468       14.4144607729       -0.9830976979  MEMB      309             0.0000000000
     38427       309  PMPE      C215           47.1443795986       12.7626783371        0.1431112860  MEMB      309             0.0000000000
     38428       309  PMPE      H15R           48.0425437895       12.1447500064        0.1123910863  MEMB      309             0.0000000000
     38429       309  PMPE      H15S           46.3619231429       12.0077669338        0.0993798282  MEMB      309             0.0000000000
     38430       309  PMPE      C216           46.9633251605       13.5470423990        1.4647909154  MEMB      309             0.0000000000
     38431       309  PMPE      H16R           47.7933146939       14.2664942984        1.7181180832  MEMB      309             0.0000000000
     38432       309  PMPE      H16S           46.1117767444       14.1869448565        1.4736454820  MEMB      309             0.0000000000
     38433       309  PMPE      H16T           46.9685390359       12.7736316576        2.2589577934  MEMB      309             0.0000000000
     38434       309  PMPE      C33            46.6830469230        8.1151755082      -10.4850122607  MEMB      309             0.0000000000
     38435       309  PMPE      H3X            46.4889388090        7.0321999534      -10.7986236642  MEMB      309             0.0000000000
     38436       309  PMPE      H3Y            45.6132645244        8.1480407741      -10.5153666525  MEMB      309             0.0000000000
     38437       309  PMPE      C34            47.0527161152        8.5946368520       -9.0592401664  MEMB      309             0.0000000000
     38438       309  PMPE      H4X            46.2373408955        8.6876126932       -8.2691515517  MEMB      309             0.0000000000
     38439       309  PMPE      H4Y            47.3959585679        9.6000384229       -9.3016490193  MEMB      309             0.0000000000
     38440       309  PMPE      C35            48.4059213021        8.0907313539       -8.4492790866  MEMB      309             0.0000000000
     38441       309  PMPE      H5X            48.2324083586        8.8335225358       -7.8120630832  MEMB      309             0.0000000000
     38442       309  PMPE      H5Y            49.3715599242        8.0287928360       -8.8339131734  MEMB      309             0.0000000000
     38443       309  PMPE      C36            48.9823302681        6.5441378413       -7.8181640964  MEMB      309             0.0000000000
     38444       309  PMPE      H6X            48.4608651277        5.5742069805       -7.7721019845  MEMB      309             0.0000000000
     38445       309  PMPE      H6Y            48.2055963986        6.3408230656       -7.3244107071  MEMB      309             0.0000000000
     38446       309  PMPE      C37            49.8855806327        6.5181602663       -7.0631494436  MEMB      309             0.0000000000
     38447       309  PMPE      H7X            50.4061900168        5.6049166238       -7.0810797415  MEMB      309             0.0000000000
     38448       309  PMPE      H7Y            49.6074421610        5.3349233578       -6.7423691847  MEMB      309             0.0000000000
     38449       309  PMPE      C38            50.2159098655        8.0560607159       -5.0978798375  MEMB      309             0.0000000000
     38450       309  PMPE      H8X            50.3068215344        8.3058569320       -6.0073860193  MEMB      309             0.0000000000
     38451       309  PMPE      H8Y            51.0801482136        7.4492271060       -4.5112469458  MEMB      309             0.0000000000
     38452       309  PMPE      C39            48.2229540272        7.6698118751       -3.6993811815  MEMB      309             0.0000000000
     38453       309  PMPE      H9X            47.6300510347        6.5798447782       -3.8304518857  MEMB      309             0.0000000000
     38454       309  PMPE      H9Y            47.1468915498        7.5488524790       -4.1746828496  MEMB      309             0.0000000000
     38455       309  PMPE      C310           48.4948915302        8.3519721803       -2.7941509191  MEMB      309             0.0000000000
     38456       309  PMPE      H10X           48.9782711907        9.1245779428       -3.4199469573  MEMB      309             0.0000000000
     38457       309  PMPE      H10Y           49.2471192219        7.6668335972       -2.3664739671  MEMB      309             0.0000000000
     38458       309  PMPE      C311           47.1461636136        8.3345795709       -2.3986126713  MEMB      309             0.0000000000
     38459       309  PMPE      H11X           47.4063615200        8.8640048597       -1.5147474526  MEMB      309             0.0000000000
     38460       309  PMPE      H11Y           46.9755264056        7.1911044911       -2.2352327560  MEMB      309             0.0000000000
     38461       309  PMPE      C312           45.9971967226        9.0530121803       -3.1814768575  MEMB      309             0.0000000000
     38462       309  PMPE      H12X           45.7549134831        8.5617824404       -4.1563358830  MEMB      309             0.0000000000
     38463       309  PMPE      H12Y           46.4541424185       10.0272228102       -3.3038868008  MEMB      309             0.0000000000
     38464       309  PMPE      C313           44.6507528273        9.2890561678       -2.5526308262  MEMB      309             0.0000000000
     38465       309  PMPE      H13X           43.9006449675        8.4346003701       -2.7210051777  MEMB      309             0.0000000000
     38466       309  PMPE      H13Y           44.1070680289        9.9013307207       -3.1410800169  MEMB      309             0.0000000000
     38467       309  PMPE      C314           44.9057348976        9.8267969990       -1.1531377835  MEMB      309             0.0000000000
     38468       309  PMPE      H14X           43.9848318126        9.7966006472       -0.8950154499  MEMB      309             0.0000000000
     38469       309  PMPE      H14Y           45.5446117453       10.6403353672       -0.9879626085  MEMB      309             0.0000000000
     38470       309  PMPE      C315           44.9019487658        9.2295040116        0.1790858604  MEMB      309             0.0000000000
     38471       309  PMPE      H15X           46.1204023425        9.2302046560       -0.0271240534  MEMB      309             0.0000000000
     38472       309  PMPE      H15Y           44.1716917085        8.3452436878        0.2862323835  MEMB      309             0.0000000000
     38473       309  PMPE      C316           44.6246214517        9.0063928394        1.6584894091  MEMB      309             0.0000000000
     38474       309  PMPE      H16X           45.0535170427        9.9964642314        1.7977471856  MEMB      309             0.0000000000
     38475       309  PMPE      H16Y           45.1568376474        8.3373885935        2.3228952658  MEMB      309             0.0000000000
     38476       309  PMPE      H16Z           43.5152413647        8.7522344876        1.8112566223  MEMB      309             0.0000000000
     38477       310  PMPE      N             -43.1345212646        1.5839073648      -18.2680354858  MEMB      310             0.0000000000
     38478       310  PMPE      HN1           -42.7038292276        2.4714464550      -17.9492014479  MEMB      310             0.0000000000
     38479       310  PMPE      HN2           -43.2534545448        0.9996996107      -17.4179265386  MEMB      310             0.0000000000
     38480       310  PMPE      HN3           -42.4767618159        1.0853702971      -18.9113758625  MEMB      310             0.0000000000
     38481       310  PMPE      C12           -44.5052401767        1.8590492411      -18.9041009404  MEMB      310             0.0000000000
     38482       310  PMPE      H12A          -44.9572983175        0.8675993205      -19.1217948626  MEMB      310             0.0000000000
     38483       310  PMPE      H12B          -44.3329312578        2.3834712162      -19.8638594237  MEMB      310             0.0000000000
     38484       310  PMPE      C11           -45.4922798391        2.7728590852      -18.1064700171  MEMB      310             0.0000000000
     38485       310  PMPE      H11A          -44.9915164551        3.7259893325      -17.8167558058  MEMB      310             0.0000000000
     38486       310  PMPE      H11B          -45.8048429013        2.2707728722      -17.1588009359  MEMB      310             0.0000000000
     38487       310  PMPE      P             -47.6976413481        2.1006015227      -19.4343522489  MEMB      310             0.0000000000
     38488       310  PMPE      O13           -47.0315859671        1.1117898084      -20.3077344221  MEMB      310             0.0000000000
     38489       310  PMPE      O14           -48.8920212336        2.7682490430      -19.9735566815  MEMB      310             0.0000000000
     38490       310  PMPE      O11           -48.0208925171        1.3905791314      -18.1073483390  MEMB      310             0.0000000000
     38491       310  PMPE      O12           -46.6125546016        3.1550939297      -18.9197782385  MEMB      310             0.0000000000
     38492       310  PMPE      C1            -49.1947579709        0.6800772649      -17.9453071358  MEMB      310             0.0000000000
     38493       310  PMPE      HA            -48.9904169223       -0.1051730855      -17.1818812699  MEMB      310             0.0000000000
     38494       310  PMPE      HB            -49.6767881209        0.2031279237      -18.8391957503  MEMB      310             0.0000000000
     38495       310  PMPE      C2            -50.1211865955        1.5771554817      -17.2912613727  MEMB      310             0.0000000000
     38496       310  PMPE      HS            -50.7963593033        2.0864298190      -18.0526514582  MEMB      310             0.0000000000
     38497       310  PMPE      O21           -49.6187069187        2.4630036814      -16.3287187825  MEMB      310             0.0000000000
     38498       310  PMPE      C21           -50.3173054858        3.5067606799      -15.9382199013  MEMB      310             0.0000000000
     38499       310  PMPE      O22           -51.4957653989        3.7632587606      -16.0552447529  MEMB      310             0.0000000000
     38500       310  PMPE      C22           -49.4015795536        4.4145496501      -15.2330578524  MEMB      310             0.0000000000
     38501       310  PMPE      H2R           -49.1200193313        5.2228742490      -15.9364078256  MEMB      310             0.0000000000
     38502       310  PMPE      H2S           -48.4927899863        3.8364106388      -15.0061054652  MEMB      310             0.0000000000
     38503       310  PMPE      C3            -50.7933229319        0.6385607523      -16.6811229266  MEMB      310             0.0000000000
     38504       310  PMPE      HX            -51.5078241361        0.0514592529      -17.4190450189  MEMB      310             0.0000000000
     38505       310  PMPE      HY            -51.3060229406        1.4312492874      -16.0793272102  MEMB      310             0.0000000000
     38506       310  PMPE      O31           -50.3565724976       -0.2823469826      -15.6437076329  MEMB      310             0.0000000000
     38507       310  PMPE      C31           -50.2992502020       -0.0831668436      -14.3812098437  MEMB      310             0.0000000000
     38508       310  PMPE      O32           -50.4604599931        0.8319206099      -13.6463139861  MEMB      310             0.0000000000
     38509       310  PMPE      C32           -49.3761220484       -0.9192584899      -13.8065054046  MEMB      310             0.0000000000
     38510       310  PMPE      H2X           -49.3504500354       -1.8654545417      -14.2953598533  MEMB      310             0.0000000000
     38511       310  PMPE      H2Y           -49.7240300818       -0.7840292252      -12.8069721761  MEMB      310             0.0000000000
     38512       310  PMPE      C23           -50.0807402430        4.9781608020      -13.9753729398  MEMB      310             0.0000000000
     38513       310  PMPE      H3R           -50.6264792600        4.2452182864      -13.3382350899  MEMB      310             0.0000000000
     38514       310  PMPE      H3S           -50.7465720586        5.8343280419      -14.2147486954  MEMB      310             0.0000000000
     38515       310  PMPE      C24           -49.1264138120        5.5755647305      -13.0378383152  MEMB      310             0.0000000000
     38516       310  PMPE      H4R           -49.6931745044        6.1388400505      -12.3147012867  MEMB      310             0.0000000000
     38517       310  PMPE      H4S           -48.4270179222        6.2836932688      -13.5664217975  MEMB      310             0.0000000000
     38518       310  PMPE      C25           -48.5026054207        4.5910552685      -12.1559934997  MEMB      310             0.0000000000
     38519       310  PMPE      H5R           -47.9622201523        5.3723093638      -11.4725797725  MEMB      310             0.0000000000
     38520       310  PMPE      H5S           -47.8765629181        3.9290768337      -12.8621961459  MEMB      310             0.0000000000
     38521       310  PMPE      C26           -48.9743680939        3.4880548215      -11.2697488111  MEMB      310             0.0000000000
     38522       310  PMPE      H6R           -48.1008319832        2.8276983921      -10.9479821733  MEMB      310             0.0000000000
     38523       310  PMPE      H6S           -49.6124476092        2.8496856925      -11.8834761252  MEMB      310             0.0000000000
     38524       310  PMPE      C27           -49.5862205144        4.1525922461      -10.0568088177  MEMB      310             0.0000000000
     38525       310  PMPE      H7R           -50.2625351350        4.9809311236      -10.3563681420  MEMB      310             0.0000000000
     38526       310  PMPE      H7S           -48.7416255122        4.5682342215       -9.4777751183  MEMB      310             0.0000000000
     38527       310  PMPE      C28           -50.3475221093        3.2748870834       -9.1129976317  MEMB      310             0.0000000000
     38528       310  PMPE      H8R           -51.3925889986        3.1866610621       -9.4919649708  MEMB      310             0.0000000000
     38529       310  PMPE      H8S           -50.4751976140        3.7270762304       -8.1204688023  MEMB      310             0.0000000000
     38530       310  PMPE      C29           -49.5465623307        2.0551407613       -8.8255713819  MEMB      310             0.0000000000
     38531       310  PMPE      H9R           -48.5806410594        1.9929125881       -8.3512916607  MEMB      310             0.0000000000
     38532       310  PMPE      C217          -49.7751154437        0.9530514372       -9.7094481650  MEMB      310             0.0000000000
     38533       310  PMPE      H17R          -49.0611839189        0.1756971774       -9.8449813086  MEMB      310             0.0000000000
     38534       310  PMPE      H17S          -50.6013517269        1.1182004457      -10.3021762477  MEMB      310             0.0000000000
     38535       310  PMPE      C210          -50.3441479247        1.0180967150       -8.3782780682  MEMB      310             0.0000000000
     38536       310  PMPE      H10R          -49.6376267561        0.4705315136       -7.5992149992  MEMB      310             0.0000000000
     38537       310  PMPE      C211          -51.9254307040        1.4973789903       -8.2217409533  MEMB      310             0.0000000000
     38538       310  PMPE      H11R          -52.6850243179        0.6022924140       -8.2829857803  MEMB      310             0.0000000000
     38539       310  PMPE      H11S          -52.6947669302        1.5438456905       -8.8976897091  MEMB      310             0.0000000000
     38540       310  PMPE      C212          -52.1144516505        2.3192178355       -7.0115813445  MEMB      310             0.0000000000
     38541       310  PMPE      H12R          -53.1360942161        2.1443974321       -6.9210948989  MEMB      310             0.0000000000
     38542       310  PMPE      H12S          -52.0722895878        3.3034014255       -7.1599587037  MEMB      310             0.0000000000
     38543       310  PMPE      C213          -51.0343134086        2.4985371210       -5.8542140083  MEMB      310             0.0000000000
     38544       310  PMPE      H13R          -50.0829697286        2.1813288308       -5.9757475209  MEMB      310             0.0000000000
     38545       310  PMPE      H13S          -50.5669199156        1.4198030882       -5.6793623522  MEMB      310             0.0000000000
     38546       310  PMPE      C214          -51.4254678762        3.2178844039       -4.2744676233  MEMB      310             0.0000000000
     38547       310  PMPE      H14R          -51.2560922295        2.7995533691       -3.1733454197  MEMB      310             0.0000000000
     38548       310  PMPE      H14S          -52.2133442250        2.8778983184       -3.7355849012  MEMB      310             0.0000000000
     38549       310  PMPE      C215          -51.4759228569        4.3358609400       -4.3786411240  MEMB      310             0.0000000000
     38550       310  PMPE      H15R          -51.9310721506        4.5450713305       -5.4070432405  MEMB      310             0.0000000000
     38551       310  PMPE      H15S          -50.4045865720        4.1532303318       -4.4526327809  MEMB      310             0.0000000000
     38552       310  PMPE      C216          -52.0301524277        4.9464467266       -3.1790914235  MEMB      310             0.0000000000
     38553       310  PMPE      H16R          -52.5234214950        5.8863002285       -3.4811199697  MEMB      310             0.0000000000
     38554       310  PMPE      H16S          -53.0223313859        5.3509310595       -3.3064986285  MEMB      310             0.0000000000
     38555       310  PMPE      H16T          -51.4252185642        5.0807193910       -2.2697935223  MEMB      310             0.0000000000
     38556       310  PMPE      C33           -48.1706818504       -0.1041893531      -13.4031816547  MEMB      310             0.0000000000
     38557       310  PMPE      H3X           -48.4564375103        0.5647198221      -12.5278730368  MEMB      310             0.0000000000
     38558       310  PMPE      H3Y           -47.9784883662        0.5113667708      -14.2996336437  MEMB      310             0.0000000000
     38559       310  PMPE      C34           -46.9791838889       -0.9360635662      -12.9599528503  MEMB      310             0.0000000000
     38560       310  PMPE      H4X           -46.6388155350       -1.6465985411      -13.7479297158  MEMB      310             0.0000000000
     38561       310  PMPE      H4Y           -47.2210168817       -1.5073488225      -12.0309946008  MEMB      310             0.0000000000
     38562       310  PMPE      C35           -45.7908873876       -0.0379071306      -12.6420050335  MEMB      310             0.0000000000
     38563       310  PMPE      H5X           -45.6763906346        0.7423031206      -13.4311884164  MEMB      310             0.0000000000
     38564       310  PMPE      H5Y           -44.8707730660       -0.6662484971      -12.6462171055  MEMB      310             0.0000000000
     38565       310  PMPE      C36           -45.9036798909        0.5388277049      -11.2396809210  MEMB      310             0.0000000000
     38566       310  PMPE      H6X           -46.6424494590       -0.0238271443      -10.6334676490  MEMB      310             0.0000000000
     38567       310  PMPE      H6Y           -46.2694968685        1.5822167766      -11.3022118474  MEMB      310             0.0000000000
     38568       310  PMPE      C37           -44.5530883387        0.5311282410      -10.5643128690  MEMB      310             0.0000000000
     38569       310  PMPE      H7X           -43.8720814943       -0.2823560714      -10.8399086888  MEMB      310             0.0000000000
     38570       310  PMPE      H7Y           -44.7102127783        0.4214672154       -9.4590883182  MEMB      310             0.0000000000
     38571       310  PMPE      C38           -43.8212186574        1.7313206578      -11.0965343782  MEMB      310             0.0000000000
     38572       310  PMPE      H8X           -44.3472464423        2.3789907069      -11.7790965772  MEMB      310             0.0000000000
     38573       310  PMPE      H8Y           -42.7631909126        1.5747772260      -11.3065879179  MEMB      310             0.0000000000
     38574       310  PMPE      C39           -43.5050240072        2.4909586713      -10.0969071637  MEMB      310             0.0000000000
     38575       310  PMPE      H9X           -43.0060020420        3.4892839963      -10.2637115281  MEMB      310             0.0000000000
     38576       310  PMPE      H9Y           -43.5898765961        1.8457112686       -9.1417887872  MEMB      310             0.0000000000
     38577       310  PMPE      C310          -43.8759436823        3.8998632915       -9.8765099297  MEMB      310             0.0000000000
     38578       310  PMPE      H10X          -45.2555144667        3.6369729652      -10.1350343754  MEMB      310             0.0000000000
     38579       310  PMPE      H10Y          -44.7248848010        3.3875773232      -10.3671834127  MEMB      310             0.0000000000
     38580       310  PMPE      C311          -44.4164178401        5.3247063340       -8.5972758370  MEMB      310             0.0000000000
     38581       310  PMPE      H11X          -45.1652705052        6.0529644833       -8.8250062512  MEMB      310             0.0000000000
     38582       310  PMPE      H11Y          -43.4070295907        5.6812009379       -8.7346043194  MEMB      310             0.0000000000
     38583       310  PMPE      C312          -45.0796230732        5.0228000834       -7.0392998810  MEMB      310             0.0000000000
     38584       310  PMPE      H12X          -44.5469739863        4.3681757032       -6.2801015295  MEMB      310             0.0000000000
     38585       310  PMPE      H12Y          -45.9640794788        4.3599406002       -6.8767881342  MEMB      310             0.0000000000
     38586       310  PMPE      C313          -45.2938755458        5.9663155353       -6.5177297212  MEMB      310             0.0000000000
     38587       310  PMPE      H13X          -45.5146672549        6.8903955086       -7.0728745544  MEMB      310             0.0000000000
     38588       310  PMPE      H13Y          -44.2970535430        6.3972755855       -6.6247994076  MEMB      310             0.0000000000
     38589       310  PMPE      C314          -46.1878561272        5.4931064351       -5.2326025094  MEMB      310             0.0000000000
     38590       310  PMPE      H14X          -46.9906298529        4.8751990810       -5.5009091667  MEMB      310             0.0000000000
     38591       310  PMPE      H14Y          -46.6636639600        6.3643203607       -4.8120299712  MEMB      310             0.0000000000
     38592       310  PMPE      C315          -45.7606805464        4.5855313234       -4.1545312695  MEMB      310             0.0000000000
     38593       310  PMPE      H15X          -45.0911882128        5.1746698610       -3.7972273045  MEMB      310             0.0000000000
     38594       310  PMPE      H15Y          -44.9566384585        3.9515568451       -4.4503585364  MEMB      310             0.0000000000
     38595       310  PMPE      C316          -46.6856756075        4.3380813662       -2.9833507633  MEMB      310             0.0000000000
     38596       310  PMPE      H16X          -47.2708572836        3.5251565961       -3.4223100180  MEMB      310             0.0000000000
     38597       310  PMPE      H16Y          -47.3666101545        5.1741876818       -2.6616026865  MEMB      310             0.0000000000
     38598       310  PMPE      H16Z          -46.0586082366        4.0242291927       -2.1218182654  MEMB      310             0.0000000000
     38599       311  POPE      N              49.2296295094       -5.0549715519      -19.5260797517  MEMB      311             0.0000000000
     38600       311  POPE      HN1            49.0958714023       -5.7089481968      -18.7290358517  MEMB      311             0.0000000000
     38601       311  POPE      HN2            49.8444967926       -5.4122056927      -20.2753747206  MEMB      311             0.0000000000
     38602       311  POPE      HN3            49.7521531009       -4.2761377719      -19.0863751738  MEMB      311             0.0000000000
     38603       311  POPE      C12            47.8887856889       -4.5917050376      -19.9853536081  MEMB      311             0.0000000000
     38604       311  POPE      H12A           48.0306216945       -3.7812223535      -20.7188274349  MEMB      311             0.0000000000
     38605       311  POPE      H12B           47.4025253577       -4.1255587270      -19.1132892743  MEMB      311             0.0000000000
     38606       311  POPE      C11            47.1139555022       -5.7591690344      -20.6011022681  MEMB      311             0.0000000000
     38607       311  POPE      H11A           47.7178549511       -6.0806501651      -21.4792224446  MEMB      311             0.0000000000
     38608       311  POPE      H11B           46.1124852336       -5.4140587063      -20.9609637051  MEMB      311             0.0000000000
     38609       311  POPE      P              46.1106584718       -6.8821232020      -18.3922083832  MEMB      311             0.0000000000
     38610       311  POPE      O13            45.9645428159       -8.2754062592      -17.9395694732  MEMB      311             0.0000000000
     38611       311  POPE      O14            44.9173864602       -6.0787878811      -18.6431918996  MEMB      311             0.0000000000
     38612       311  POPE      O11            47.0327544770       -6.0998699423      -17.3620562568  MEMB      311             0.0000000000
     38613       311  POPE      O12            47.0039116375       -6.8588127428      -19.7084690962  MEMB      311             0.0000000000
     38614       311  POPE      C1             47.9051004066       -6.7454267982      -16.4582872915  MEMB      311             0.0000000000
     38615       311  POPE      HA             48.6643964694       -5.9664618521      -16.4437846938  MEMB      311             0.0000000000
     38616       311  POPE      HB             48.3948719080       -7.6585068956      -16.8671554787  MEMB      311             0.0000000000
     38617       311  POPE      C2             47.2406251606       -6.9964426778      -15.0781895763  MEMB      311             0.0000000000
     38618       311  POPE      HS             46.6275217382       -7.9369310335      -15.2036312723  MEMB      311             0.0000000000
     38619       311  POPE      O21            46.5042427336       -5.8013563651      -14.7820310870  MEMB      311             0.0000000000
     38620       311  POPE      C21            45.7110912817       -6.0135127376      -13.8232055478  MEMB      311             0.0000000000
     38621       311  POPE      O22            45.6373952053       -7.1626806192      -13.3691204037  MEMB      311             0.0000000000
     38622       311  POPE      C22            45.1194617751       -4.6239111287      -13.4314518596  MEMB      311             0.0000000000
     38623       311  POPE      H2R            44.0861454004       -4.3470688382      -13.1992092658  MEMB      311             0.0000000000
     38624       311  POPE      H2S            45.1198588477       -3.9579455691      -14.2941193042  MEMB      311             0.0000000000
     38625       311  POPE      C3             48.1523919212       -7.1921058793      -13.9200968216  MEMB      311             0.0000000000
     38626       311  POPE      HX             48.9400760094       -7.7842677728      -14.3412103145  MEMB      311             0.0000000000
     38627       311  POPE      HY             47.7825100546       -7.7666327554      -13.0219826665  MEMB      311             0.0000000000
     38628       311  POPE      O31            48.5233093706       -5.8728388001      -13.3917947486  MEMB      311             0.0000000000
     38629       311  POPE      C31            49.7306008831       -5.5222026710      -13.5055577453  MEMB      311             0.0000000000
     38630       311  POPE      O32            50.3693845036       -6.2480076338      -13.9735112314  MEMB      311             0.0000000000
     38631       311  POPE      C32            50.3876454298       -4.3617029815      -12.9840971189  MEMB      311             0.0000000000
     38632       311  POPE      H2X            49.9196666456       -3.6872987832      -13.7110512787  MEMB      311             0.0000000000
     38633       311  POPE      H2Y            51.5205447325       -4.2925617822      -13.0160874581  MEMB      311             0.0000000000
     38634       311  POPE      C23            45.9042475672       -4.3408347217      -12.1968672884  MEMB      311             0.0000000000
     38635       311  POPE      H3R            46.9619128248       -4.4291495794      -12.5335575930  MEMB      311             0.0000000000
     38636       311  POPE      H3S            45.7279117616       -5.1220220934      -11.4267530458  MEMB      311             0.0000000000
     38637       311  POPE      C24            45.6799748554       -2.9297146315      -11.7143273663  MEMB      311             0.0000000000
     38638       311  POPE      H4R            44.9505822070       -2.3954194127      -12.3607767321  MEMB      311             0.0000000000
     38639       311  POPE      H4S            46.6861498238       -2.5091452377      -11.8790627189  MEMB      311             0.0000000000
     38640       311  POPE      C25            45.2768971763       -2.7525796531      -10.2525830973  MEMB      311             0.0000000000
     38641       311  POPE      H5R            44.2390567207       -3.0827765780      -10.0560913456  MEMB      311             0.0000000000
     38642       311  POPE      H5S            45.3163519338       -1.6755701344      -10.0482968165  MEMB      311             0.0000000000
     38643       311  POPE      C26            46.2490035655       -3.4500143081       -9.3099526261  MEMB      311             0.0000000000
     38644       311  POPE      H6R            47.2802929236       -3.1629770687       -9.5916222756  MEMB      311             0.0000000000
     38645       311  POPE      H6S            46.1509499944       -4.5363115571       -9.4273495537  MEMB      311             0.0000000000
     38646       311  POPE      C27            45.9842420622       -3.1875311319       -7.8325523599  MEMB      311             0.0000000000
     38647       311  POPE      H7R            44.9062944299       -3.2693453041       -7.6742892820  MEMB      311             0.0000000000
     38648       311  POPE      H7S            46.2152541955       -2.1255287908       -7.6467542468  MEMB      311             0.0000000000
     38649       311  POPE      C28            46.8723586205       -4.0659600481       -6.9234720015  MEMB      311             0.0000000000
     38650       311  POPE      H8R            46.6405224067       -3.9067531222       -5.8494031779  MEMB      311             0.0000000000
     38651       311  POPE      H8S            47.8964117664       -3.6434701612       -7.0830366128  MEMB      311             0.0000000000
     38652       311  POPE      C29            46.8513107131       -5.5484230734       -7.2618116440  MEMB      311             0.0000000000
     38653       311  POPE      H91            47.4567159691       -5.7773385047       -8.1411267813  MEMB      311             0.0000000000
     38654       311  POPE      C210           46.2204322632       -6.5570147593       -6.6172245749  MEMB      311             0.0000000000
     38655       311  POPE      H101           46.3267516546       -7.6046355709       -6.9381888964  MEMB      311             0.0000000000
     38656       311  POPE      C211           45.3991279347       -6.3378977758       -5.3954846783  MEMB      311             0.0000000000
     38657       311  POPE      H11R           44.3997534660       -6.8187329319       -5.4298291290  MEMB      311             0.0000000000
     38658       311  POPE      H11S           45.1688091946       -5.2679672012       -5.4670936310  MEMB      311             0.0000000000
     38659       311  POPE      C212           46.0954357173       -6.7184795640       -4.0627703967  MEMB      311             0.0000000000
     38660       311  POPE      H12R           46.2095991007       -7.8156429156       -4.0998617310  MEMB      311             0.0000000000
     38661       311  POPE      H12S           45.4599225766       -6.5184396434       -3.1727742291  MEMB      311             0.0000000000
     38662       311  POPE      C213           47.4831980164       -6.0735823834       -3.9353323278  MEMB      311             0.0000000000
     38663       311  POPE      H13R           47.3605066196       -4.9945963796       -4.1574341348  MEMB      311             0.0000000000
     38664       311  POPE      H13S           48.1292758231       -6.5500519055       -4.7039347398  MEMB      311             0.0000000000
     38665       311  POPE      C214           48.2438145923       -6.2847520980       -2.6407660420  MEMB      311             0.0000000000
     38666       311  POPE      H14R           49.2130291750       -5.7412366806       -2.6131003614  MEMB      311             0.0000000000
     38667       311  POPE      H14S           48.5630225714       -7.3167110589       -2.6379421655  MEMB      311             0.0000000000
     38668       311  POPE      C215           47.4970483805       -5.8315692901       -1.3921610767  MEMB      311             0.0000000000
     38669       311  POPE      H15R           46.5513904788       -6.3524591566       -1.1429923259  MEMB      311             0.0000000000
     38670       311  POPE      H15S           47.3805700143       -4.7433714474       -1.4646822319  MEMB      311             0.0000000000
     38671       311  POPE      C216           48.3346435074       -6.0724257715       -0.1919803988  MEMB      311             0.0000000000
     38672       311  POPE      H16R           49.3287977647       -5.6553989936       -0.1883660961  MEMB      311             0.0000000000
     38673       311  POPE      H16S           48.6778286182       -6.9515673756       -0.5508977965  MEMB      311             0.0000000000
     38674       311  POPE      C217           47.6659361752       -6.2168928496        1.1826819662  MEMB      311             0.0000000000
     38675       311  POPE      H17R           48.4864705776       -6.5063656505        1.9215664548  MEMB      311             0.0000000000
     38676       311  POPE      H17S           46.9554891692       -7.1028706898        1.2353386896  MEMB      311             0.0000000000
     38677       311  POPE      C218           47.1478704847       -4.9713704551        1.6591454222  MEMB      311             0.0000000000
     38678       311  POPE      H18R           46.1365992122       -4.8344518582        1.2464319621  MEMB      311             0.0000000000
     38679       311  POPE      H18S           47.7971040098       -4.1679550197        1.2780635977  MEMB      311             0.0000000000
     38680       311  POPE      H18T           47.2269240372       -4.9955464759        2.7633176285  MEMB      311             0.0000000000
     38681       311  POPE      C33            49.9430733876       -4.2385943467      -11.6248857639  MEMB      311             0.0000000000
     38682       311  POPE      H3X            50.6426798583       -4.7457882279      -10.9808496151  MEMB      311             0.0000000000
     38683       311  POPE      H3Y            48.9623314870       -4.7344920827      -11.5590806247  MEMB      311             0.0000000000
     38684       311  POPE      C34            49.8103966230       -2.8141848367      -11.2712318584  MEMB      311             0.0000000000
     38685       311  POPE      H4X            48.8594778770       -2.6442732107      -10.7897037734  MEMB      311             0.0000000000
     38686       311  POPE      H4Y            49.8620649691       -2.1487897683      -12.1644536465  MEMB      311             0.0000000000
     38687       311  POPE      C35            50.7601696533       -2.3722546672      -10.2450629676  MEMB      311             0.0000000000
     38688       311  POPE      H5X            50.6205440458       -1.3516243140      -10.1381573531  MEMB      311             0.0000000000
     38689       311  POPE      H5Y            51.5114690040       -2.3460741084      -10.9494668517  MEMB      311             0.0000000000
     38690       311  POPE      C36            50.8780648329       -3.1566122286       -8.8708763827  MEMB      311             0.0000000000
     38691       311  POPE      H6X            51.2966789386       -4.1052768577       -9.1120391019  MEMB      311             0.0000000000
     38692       311  POPE      H6Y            49.9591458800       -2.8298309745       -8.3991184048  MEMB      311             0.0000000000
     38693       311  POPE      C37            52.0256128678       -3.2881242037       -7.7099408133  MEMB      311             0.0000000000
     38694       311  POPE      H7X            51.5607810411       -2.3855560862       -7.3970240038  MEMB      311             0.0000000000
     38695       311  POPE      H7Y            53.1849115824       -3.1472076941       -7.8921846588  MEMB      311             0.0000000000
     38696       311  POPE      C38            52.1400272927       -3.5830525793       -6.3192521261  MEMB      311             0.0000000000
     38697       311  POPE      H8X            53.0218870698       -3.1427957668       -5.7732059822  MEMB      311             0.0000000000
     38698       311  POPE      H8Y            52.3921489448       -4.5560338045       -6.6766583148  MEMB      311             0.0000000000
     38699       311  POPE      C39            50.9119454216       -3.1541074400       -5.6166373364  MEMB      311             0.0000000000
     38700       311  POPE      H9X            50.9846038980       -3.7930704033       -4.7444889982  MEMB      311             0.0000000000
     38701       311  POPE      H9Y            50.0664098251       -3.3041237301       -6.3157816486  MEMB      311             0.0000000000
     38702       311  POPE      C310           50.7029572014       -1.7818156825       -4.9967419651  MEMB      311             0.0000000000
     38703       311  POPE      H10X           50.8024439192       -0.9771799806       -5.7778563103  MEMB      311             0.0000000000
     38704       311  POPE      H10Y           51.4708804886       -1.5837370476       -4.2534183211  MEMB      311             0.0000000000
     38705       311  POPE      C311           49.3086094360       -1.9191573093       -4.4412551953  MEMB      311             0.0000000000
     38706       311  POPE      H11X           48.6283935114       -2.1326544541       -5.2643056210  MEMB      311             0.0000000000
     38707       311  POPE      H11Y           48.8720688908       -1.0299776561       -4.2082174051  MEMB      311             0.0000000000
     38708       311  POPE      C312           49.0744765412       -2.4148791522       -3.0340960768  MEMB      311             0.0000000000
     38709       311  POPE      H12X           49.9302127325       -2.0516860780       -2.4114255366  MEMB      311             0.0000000000
     38710       311  POPE      H12Y           49.0961933991       -3.4666417604       -3.1192139499  MEMB      311             0.0000000000
     38711       311  POPE      C313           47.8046142715       -1.9347182865       -2.2654902499  MEMB      311             0.0000000000
     38712       311  POPE      H13X           47.7640474323       -0.9181627541       -2.0583678211  MEMB      311             0.0000000000
     38713       311  POPE      H13Y           47.8799280847       -2.2471868712       -1.2212248443  MEMB      311             0.0000000000
     38714       311  POPE      C314           46.4816764302       -2.0363921919       -2.9786473228  MEMB      311             0.0000000000
     38715       311  POPE      H14X           46.2572580002       -3.0979199378       -2.9503646525  MEMB      311             0.0000000000
     38716       311  POPE      H14Y           46.5460665441       -1.7107092332       -4.0379027615  MEMB      311             0.0000000000
     38717       311  POPE      C315           45.2844999764       -1.2619375412       -2.4585814641  MEMB      311             0.0000000000
     38718       311  POPE      H15X           44.9444353366       -1.3574147787       -1.4489034750  MEMB      311             0.0000000000
     38719       311  POPE      H15Y           44.4250266825       -1.4740174532       -3.1244664815  MEMB      311             0.0000000000
     38720       311  POPE      C316           45.3312545735        0.1495640247       -2.4781346672  MEMB      311             0.0000000000
     38721       311  POPE      H16X           44.2903797080        0.5321607260       -2.3649608282  MEMB      311             0.0000000000
     38722       311  POPE      H16Y           45.5513926502        0.4526593558       -3.5131610296  MEMB      311             0.0000000000
     38723       311  POPE      H16Z           45.9208098397        0.7359625315       -1.7441971563  MEMB      311             0.0000000000
     38724       312  PMPE      N             -29.9678591564       35.5720866344      -19.4644889936  MEMB      312             0.0000000000
     38725       312  PMPE      HN1           -30.7783059056       35.9297474891      -20.0052343012  MEMB      312             0.0000000000
     38726       312  PMPE      HN2           -29.9124979872       36.0956398764      -18.5719966556  MEMB      312             0.0000000000
     38727       312  PMPE      HN3           -29.0759410089       35.6352031013      -19.9943035807  MEMB      312             0.0000000000
     38728       312  PMPE      C12           -30.2014607878       34.1477423777      -19.0585474914  MEMB      312             0.0000000000
     38729       312  PMPE      H12A          -29.3330643824       33.9113091122      -18.3928256887  MEMB      312             0.0000000000
     38730       312  PMPE      H12B          -30.1673340722       33.5254605463      -19.9827151223  MEMB      312             0.0000000000
     38731       312  PMPE      C11           -31.5612898620       33.9728220150      -18.3184301857  MEMB      312             0.0000000000
     38732       312  PMPE      H11A          -31.6384270996       34.6090917667      -17.4072945765  MEMB      312             0.0000000000
     38733       312  PMPE      H11B          -31.5811355803       32.9031045573      -17.9999675255  MEMB      312             0.0000000000
     38734       312  PMPE      P             -34.0222965151       33.3305710242      -19.0927620091  MEMB      312             0.0000000000
     38735       312  PMPE      O13           -33.5513454623       32.0158214938      -19.5787227767  MEMB      312             0.0000000000
     38736       312  PMPE      O14           -35.1396061780       33.9466321955      -19.8211415305  MEMB      312             0.0000000000
     38737       312  PMPE      O11           -34.3978679832       33.2393766391      -17.5525290220  MEMB      312             0.0000000000
     38738       312  PMPE      O12           -32.6987588693       34.2824657587      -19.1265600701  MEMB      312             0.0000000000
     38739       312  PMPE      C1            -34.5241513934       34.4887544362      -16.8742799006  MEMB      312             0.0000000000
     38740       312  PMPE      HA            -35.2578245710       35.1887319974      -17.3427466377  MEMB      312             0.0000000000
     38741       312  PMPE      HB            -33.5606264486       35.0045563201      -16.8110046566  MEMB      312             0.0000000000
     38742       312  PMPE      C2            -34.9977427392       34.2816021794      -15.4810044857  MEMB      312             0.0000000000
     38743       312  PMPE      HS            -34.9122731192       35.2502511621      -14.9256397746  MEMB      312             0.0000000000
     38744       312  PMPE      O21           -34.3212541560       33.2021861870      -14.7718184246  MEMB      312             0.0000000000
     38745       312  PMPE      C21           -33.0584196930       33.4025092221      -14.5322831660  MEMB      312             0.0000000000
     38746       312  PMPE      O22           -32.4522992666       34.4450853713      -14.6975932149  MEMB      312             0.0000000000
     38747       312  PMPE      C22           -32.4586040632       32.1168993786      -13.9642247134  MEMB      312             0.0000000000
     38748       312  PMPE      H2R           -32.1418608030       31.4416454229      -14.7899132794  MEMB      312             0.0000000000
     38749       312  PMPE      H2S           -33.2718731024       31.5520024986      -13.4743375240  MEMB      312             0.0000000000
     38750       312  PMPE      C3            -36.4545181706       33.9660470290      -15.6109101015  MEMB      312             0.0000000000
     38751       312  PMPE      HX            -36.6335556325       33.0471392843      -16.1711032006  MEMB      312             0.0000000000
     38752       312  PMPE      HY            -37.1919345503       34.7148441267      -15.9298687619  MEMB      312             0.0000000000
     38753       312  PMPE      O31           -36.6091074005       33.6739001712      -14.3581604356  MEMB      312             0.0000000000
     38754       312  PMPE      C31           -36.8022212483       34.7059534565      -13.5626365899  MEMB      312             0.0000000000
     38755       312  PMPE      O32           -36.5534742092       35.8038538510      -13.9019604712  MEMB      312             0.0000000000
     38756       312  PMPE      C32           -37.2602525905       34.5167295404      -12.2737016178  MEMB      312             0.0000000000
     38757       312  PMPE      H2X           -37.3412709687       33.5530632414      -12.6914561006  MEMB      312             0.0000000000
     38758       312  PMPE      H2Y           -38.2770150824       34.6797007268      -11.7164175045  MEMB      312             0.0000000000
     38759       312  PMPE      C23           -31.1741646440       32.3983420018      -13.1204136842  MEMB      312             0.0000000000
     38760       312  PMPE      H3R           -30.4025155570       32.8023459266      -13.8164442047  MEMB      312             0.0000000000
     38761       312  PMPE      H3S           -30.7957634414       31.4211678205      -12.7712403949  MEMB      312             0.0000000000
     38762       312  PMPE      C24           -31.2128838128       33.3745679569      -11.9098241794  MEMB      312             0.0000000000
     38763       312  PMPE      H4R           -32.0880599268       33.2513589117      -11.2500345782  MEMB      312             0.0000000000
     38764       312  PMPE      H4S           -31.2911133892       34.3931452115      -12.3529597651  MEMB      312             0.0000000000
     38765       312  PMPE      C25           -29.9671810739       33.2877376887      -10.9801108825  MEMB      312             0.0000000000
     38766       312  PMPE      H5R           -29.1617996023       33.9055109267      -11.4380476802  MEMB      312             0.0000000000
     38767       312  PMPE      H5S           -29.6528515053       32.2239448611      -10.8214330046  MEMB      312             0.0000000000
     38768       312  PMPE      C26           -30.2053064972       33.7913944706       -9.5514353114  MEMB      312             0.0000000000
     38769       312  PMPE      H6R           -30.9815598578       33.1322248622       -9.1077684139  MEMB      312             0.0000000000
     38770       312  PMPE      H6S           -30.4197985349       34.8848677760       -9.5809236641  MEMB      312             0.0000000000
     38771       312  PMPE      C27           -29.0193091273       33.6367168837       -8.6238680744  MEMB      312             0.0000000000
     38772       312  PMPE      H7R           -28.3371311146       34.4355228155       -8.9062338725  MEMB      312             0.0000000000
     38773       312  PMPE      H7S           -28.4642091666       32.7227148882       -8.8519397746  MEMB      312             0.0000000000
     38774       312  PMPE      C28           -29.2928108112       33.6045693921       -7.0995057765  MEMB      312             0.0000000000
     38775       312  PMPE      H8R           -28.2958150658       33.4859117723       -6.6410582543  MEMB      312             0.0000000000
     38776       312  PMPE      H8S           -29.6009202517       32.6278511305       -6.7640268275  MEMB      312             0.0000000000
     38777       312  PMPE      C29           -30.2043694419       34.8040463617       -6.6440366894  MEMB      312             0.0000000000
     38778       312  PMPE      H9R           -31.1896014401       34.7275058132       -6.9527827576  MEMB      312             0.0000000000
     38779       312  PMPE      C217          -29.6976009903       36.2191213519       -6.8948332604  MEMB      312             0.0000000000
     38780       312  PMPE      H17R          -30.2536743162       36.9227237747       -7.3998328861  MEMB      312             0.0000000000
     38781       312  PMPE      H17S          -28.8452809490       36.0982892780       -7.2991252639  MEMB      312             0.0000000000
     38782       312  PMPE      C210          -30.0762262120       35.8042240710       -5.5529581524  MEMB      312             0.0000000000
     38783       312  PMPE      H10R          -30.7815940033       36.4022994351       -5.0796162626  MEMB      312             0.0000000000
     38784       312  PMPE      C211          -29.3202883782       35.3075644676       -4.6171807549  MEMB      312             0.0000000000
     38785       312  PMPE      H11R          -29.1717695996       36.2430862883       -4.0328504694  MEMB      312             0.0000000000
     38786       312  PMPE      H11S          -28.5648479979       35.0717224004       -5.4300105732  MEMB      312             0.0000000000
     38787       312  PMPE      C212          -29.3511411627       34.0338181717       -3.8006765871  MEMB      312             0.0000000000
     38788       312  PMPE      H12R          -28.4081363913       33.3533949147       -3.7110000703  MEMB      312             0.0000000000
     38789       312  PMPE      H12S          -29.9117981551       33.3213979700       -4.2924683964  MEMB      312             0.0000000000
     38790       312  PMPE      C213          -29.9265989003       34.3452056896       -2.4337594550  MEMB      312             0.0000000000
     38791       312  PMPE      H13R          -30.7902506184       34.9031136671       -2.4042982460  MEMB      312             0.0000000000
     38792       312  PMPE      H13S          -29.4715868055       35.1300514054       -1.8060826588  MEMB      312             0.0000000000
     38793       312  PMPE      C214          -29.8917046618       33.0610839172       -1.6968975329  MEMB      312             0.0000000000
     38794       312  PMPE      H14R          -29.0548598961       32.3424423126       -1.7315610724  MEMB      312             0.0000000000
     38795       312  PMPE      H14S          -30.9020893411       32.6795300831       -1.7266237094  MEMB      312             0.0000000000
     38796       312  PMPE      C215          -29.6341168194       33.2609757011       -0.3406328000  MEMB      312             0.0000000000
     38797       312  PMPE      H15R          -30.4948253427       33.9969038707       -0.2491471932  MEMB      312             0.0000000000
     38798       312  PMPE      H15S          -28.8358599536       33.8919157978        0.0359178564  MEMB      312             0.0000000000
     38799       312  PMPE      C216          -29.7043549285       31.9193530041        0.4913285360  MEMB      312             0.0000000000
     38800       312  PMPE      H16R          -28.8406721953       31.3861709242        0.6006221699  MEMB      312             0.0000000000
     38801       312  PMPE      H16S          -29.6111099063       31.8728247994        1.6819012969  MEMB      312             0.0000000000
     38802       312  PMPE      H16T          -30.7355509166       31.5882766629        0.3417543162  MEMB      312             0.0000000000
     38803       312  PMPE      C33           -35.9226669564       34.8266694448      -11.4917828158  MEMB      312             0.0000000000
     38804       312  PMPE      H3X           -35.8770681492       34.8588581214      -10.4270792947  MEMB      312             0.0000000000
     38805       312  PMPE      H3Y           -36.2433917358       35.6779734911      -10.9752270091  MEMB      312             0.0000000000
     38806       312  PMPE      C34           -34.6388753062       33.8162625324      -11.2693673338  MEMB      312             0.0000000000
     38807       312  PMPE      H4X           -33.9780436017       34.4665961358      -10.8091165863  MEMB      312             0.0000000000
     38808       312  PMPE      H4Y           -34.4728813650       33.5324338846      -12.3060117631  MEMB      312             0.0000000000
     38809       312  PMPE      C35           -34.4496734397       32.3939510351      -10.5614997036  MEMB      312             0.0000000000
     38810       312  PMPE      H5X           -34.1071689597       31.5663523645      -11.1796076338  MEMB      312             0.0000000000
     38811       312  PMPE      H5Y           -35.2278609763       31.7356837059      -10.6793090202  MEMB      312             0.0000000000
     38812       312  PMPE      C36           -34.1964503700       32.4744531461       -9.0478903918  MEMB      312             0.0000000000
     38813       312  PMPE      H6X           -35.0040885422       32.8582560946       -8.3372459690  MEMB      312             0.0000000000
     38814       312  PMPE      H6Y           -33.3868165647       33.1202344004       -9.0628227052  MEMB      312             0.0000000000
     38815       312  PMPE      C37           -33.6435177530       31.2961814812       -8.3544813308  MEMB      312             0.0000000000
     38816       312  PMPE      H7X           -33.1738808230       30.5146851501       -8.9480844389  MEMB      312             0.0000000000
     38817       312  PMPE      H7Y           -34.6498570893       31.2012464147       -8.1266475520  MEMB      312             0.0000000000
     38818       312  PMPE      C38           -33.5052014529       31.0172008634       -6.9272572366  MEMB      312             0.0000000000
     38819       312  PMPE      H8X           -33.5959914971       29.9049262031       -6.7359527077  MEMB      312             0.0000000000
     38820       312  PMPE      H8Y           -34.3084617984       31.5377154223       -6.3505636822  MEMB      312             0.0000000000
     38821       312  PMPE      C39           -32.1725503417       31.4682489209       -6.8517540658  MEMB      312             0.0000000000
     38822       312  PMPE      H9X           -32.1935346528       32.5660270142       -7.0191343540  MEMB      312             0.0000000000
     38823       312  PMPE      H9Y           -31.5994869437       30.9491181715       -7.6674197643  MEMB      312             0.0000000000
     38824       312  PMPE      C310          -31.6886633982       31.1312882875       -5.5029867374  MEMB      312             0.0000000000
     38825       312  PMPE      H10X          -30.6889285077       31.5761537357       -5.5041831034  MEMB      312             0.0000000000
     38826       312  PMPE      H10Y          -31.5954262495       30.0250520797       -5.4085424570  MEMB      312             0.0000000000
     38827       312  PMPE      C311          -32.5169417193       31.7164811192       -4.3313364648  MEMB      312             0.0000000000
     38828       312  PMPE      H11X          -31.9507993182       31.3752273986       -3.4443870135  MEMB      312             0.0000000000
     38829       312  PMPE      H11Y          -33.5045340782       31.2080264865       -4.2548256367  MEMB      312             0.0000000000
     38830       312  PMPE      C312          -32.7111165717       33.2649382165       -4.2998610738  MEMB      312             0.0000000000
     38831       312  PMPE      H12X          -32.8350918824       33.6139692858       -5.3423636069  MEMB      312             0.0000000000
     38832       312  PMPE      H12Y          -31.8333889539       33.8447962118       -3.9715556542  MEMB      312             0.0000000000
     38833       312  PMPE      C313          -33.8701039116       33.8156445281       -3.4372487889  MEMB      312             0.0000000000
     38834       312  PMPE      H13X          -34.8246078959       33.6148625022       -3.9732894177  MEMB      312             0.0000000000
     38835       312  PMPE      H13Y          -33.7209946831       34.9221743514       -3.3473697537  MEMB      312             0.0000000000
     38836       312  PMPE      C314          -34.0724334786       33.1728913614       -2.0615040271  MEMB      312             0.0000000000
     38837       312  PMPE      H14X          -33.3204541412       33.4917724358       -1.3185138573  MEMB      312             0.0000000000
     38838       312  PMPE      H14Y          -33.9088472055       32.0908031529       -2.1598324895  MEMB      312             0.0000000000
     38839       312  PMPE      C315          -35.4751029406       33.4577386343       -1.5264101851  MEMB      312             0.0000000000
     38840       312  PMPE      H15X          -35.7856004036       32.6719646209       -0.8114193773  MEMB      312             0.0000000000
     38841       312  PMPE      H15Y          -36.2384263586       33.4383117284       -2.3243202202  MEMB      312             0.0000000000
     38842       312  PMPE      C316          -35.5618675189       34.7884081668       -0.8531265193  MEMB      312             0.0000000000
     38843       312  PMPE      H16X          -36.5657108131       34.8720629738       -0.3848421315  MEMB      312             0.0000000000
     38844       312  PMPE      H16Y          -35.4481495754       35.6358197231       -1.5346041665  MEMB      312             0.0000000000
     38845       312  PMPE      H16Z          -34.7738465626       34.9617473994       -0.1340145357  MEMB      312             0.0000000000
     38846       313  QMPE      N             -43.4299946867      -11.4104638234      -20.8041644774  MEMB      313             0.0000000000
     38847       313  QMPE      HN1           -43.0458993724      -12.3327547755      -21.0561564846  MEMB      313             0.0000000000
     38848       313  QMPE      HN2           -44.1590204529      -11.1695246233      -21.5020266594  MEMB      313             0.0000000000
     38849       313  QMPE      HN3           -42.6184843369      -10.7711935524      -20.9123819232  MEMB      313             0.0000000000
     38850       313  QMPE      C12           -43.9513527230      -11.4401313074      -19.3823798229  MEMB      313             0.0000000000
     38851       313  QMPE      H12A          -43.8511663229      -10.4347294855      -18.9328242199  MEMB      313             0.0000000000
     38852       313  QMPE      H12B          -43.2603918315      -12.0903197547      -18.8032059210  MEMB      313             0.0000000000
     38853       313  QMPE      C11           -45.3998363865      -11.9680230504      -19.3475759462  MEMB      313             0.0000000000
     38854       313  QMPE      H11A          -46.0462642841      -11.6004079696      -20.1595999172  MEMB      313             0.0000000000
     38855       313  QMPE      H11B          -45.9123969231      -11.6256003162      -18.4119747558  MEMB      313             0.0000000000
     38856       313  QMPE      P             -46.0181332755      -14.3813465791      -18.4459326836  MEMB      313             0.0000000000
     38857       313  QMPE      O13           -46.1362999338      -15.6372471589      -19.2097817940  MEMB      313             0.0000000000
     38858       313  QMPE      O14           -47.2723443044      -13.8396199970      -17.8858788822  MEMB      313             0.0000000000
     38859       313  QMPE      O11           -44.8745767684      -14.3630442594      -17.3701631012  MEMB      313             0.0000000000
     38860       313  QMPE      O12           -45.3759544835      -13.3668291794      -19.5209228618  MEMB      313             0.0000000000
     38861       313  QMPE      C1            -43.7409459937      -15.2312766751      -17.4288373752  MEMB      313             0.0000000000
     38862       313  QMPE      HA            -42.8278347894      -14.6596838964      -17.7075827895  MEMB      313             0.0000000000
     38863       313  QMPE      HB            -43.8520567982      -16.0479355039      -18.1797321008  MEMB      313             0.0000000000
     38864       313  QMPE      C2            -43.4402141070      -15.8463911501      -16.0320272802  MEMB      313             0.0000000000
     38865       313  QMPE      HS            -42.7364985569      -16.6992647807      -16.1143664078  MEMB      313             0.0000000000
     38866       313  QMPE      O21           -44.6071807316      -16.2269183746      -15.2803775492  MEMB      313             0.0000000000
     38867       313  QMPE      C21           -45.1884392909      -17.2880917606      -15.7829803533  MEMB      313             0.0000000000
     38868       313  QMPE      O22           -44.8796425028      -17.8896538245      -16.7616627435  MEMB      313             0.0000000000
     38869       313  QMPE      C22           -46.2018567994      -17.8365786583      -14.8881415127  MEMB      313             0.0000000000
     38870       313  QMPE      H2R           -46.4892156381      -18.8477273351      -15.3274627640  MEMB      313             0.0000000000
     38871       313  QMPE      H2S           -47.1351326319      -17.2299342079      -14.8151118892  MEMB      313             0.0000000000
     38872       313  QMPE      C3            -42.6900677300      -14.8371544588      -15.1821255860  MEMB      313             0.0000000000
     38873       313  QMPE      HX            -43.2818225284      -13.8855496542      -15.3097118178  MEMB      313             0.0000000000
     38874       313  QMPE      HY            -41.6858934884      -14.6552975604      -15.6140060588  MEMB      313             0.0000000000
     38875       313  QMPE      O31           -42.5149636850      -15.3832238027      -13.8414558235  MEMB      313             0.0000000000
     38876       313  QMPE      C31           -42.8542848127      -14.5148060699      -12.9606901896  MEMB      313             0.0000000000
     38877       313  QMPE      O32           -43.4691695867      -13.4922571642      -13.2635757292  MEMB      313             0.0000000000
     38878       313  QMPE      C32           -42.1155416534      -14.8322239221      -11.4900116463  MEMB      313             0.0000000000
     38879       313  QMPE      H2X           -42.8403982444      -15.5160294993      -11.1325137954  MEMB      313             0.0000000000
     38880       313  QMPE      H2Y           -41.0462467206      -15.2080035048      -11.6360097126  MEMB      313             0.0000000000
     38881       313  QMPE      C23           -45.6412946171      -18.0764117006      -13.4515091441  MEMB      313             0.0000000000
     38882       313  QMPE      H3R           -44.6241745581      -17.7942558143      -13.3797937446  MEMB      313             0.0000000000
     38883       313  QMPE      H3S           -45.7310737657      -19.1390921531      -13.2960061957  MEMB      313             0.0000000000
     38884       313  QMPE      C24           -46.4829161876      -17.4263402403      -12.3496725625  MEMB      313             0.0000000000
     38885       313  QMPE      H4R           -47.5742466003      -17.5892049493      -12.3366732346  MEMB      313             0.0000000000
     38886       313  QMPE      H4S           -46.4117876964      -16.3881470945      -12.4124313686  MEMB      313             0.0000000000
     38887       313  QMPE      C25           -46.0547653772      -17.4917318047      -10.9655366016  MEMB      313             0.0000000000
     38888       313  QMPE      H5R           -45.1477001254      -17.9809367467      -10.7022934310  MEMB      313             0.0000000000
     38889       313  QMPE      H5S           -46.3841898216      -18.3161855806      -10.6703916582  MEMB      313             0.0000000000
     38890       313  QMPE      C26           -46.9484469819      -16.7360312625       -9.9226452994  MEMB      313             0.0000000000
     38891       313  QMPE      H6R           -46.6441048646      -16.8993930532       -8.7679090900  MEMB      313             0.0000000000
     38892       313  QMPE      H6S           -48.0832053259      -16.8869070894       -9.9256250435  MEMB      313             0.0000000000
     38893       313  QMPE      C27           -46.7465011875      -15.5144238412       -9.8365826252  MEMB      313             0.0000000000
     38894       313  QMPE      H7R           -47.2591555821      -15.4182314322      -10.8048907076  MEMB      313             0.0000000000
     38895       313  QMPE      H7S           -45.6750694743      -15.5076733751       -9.9607263185  MEMB      313             0.0000000000
     38896       313  QMPE      C28           -47.3002951884      -15.0820946152       -8.4590322440  MEMB      313             0.0000000000
     38897       313  QMPE      H8R           -47.2485591770      -14.0090904925       -8.5939007619  MEMB      313             0.0000000000
     38898       313  QMPE      H8S           -46.5918430088      -15.4082711425       -7.6709726698  MEMB      313             0.0000000000
     38899       313  QMPE      C29           -48.5937431419      -15.6994543210       -7.8568442984  MEMB      313             0.0000000000
     38900       313  QMPE      H9R           -48.9099913470      -16.6668869979       -7.6982198334  MEMB      313             0.0000000000
     38901       313  QMPE      C217          -49.6511362323      -15.3606196049       -8.4362459200  MEMB      313             0.0000000000
     38902       313  QMPE      H17R          -49.0897989781      -14.2680393992       -8.9233257482  MEMB      313             0.0000000000
     38903       313  QMPE      H17S          -50.7514840101      -15.7592280706       -8.6824960350  MEMB      313             0.0000000000
     38904       313  QMPE      C210          -49.3997868688      -14.9569513816       -6.8630361473  MEMB      313             0.0000000000
     38905       313  QMPE      H10R          -50.3293532493      -15.2881135673       -6.3938703820  MEMB      313             0.0000000000
     38906       313  QMPE      C211          -49.0191797913      -13.4418817592       -6.3209048127  MEMB      313             0.0000000000
     38907       313  QMPE      H11R          -48.5019879207      -12.8812588600       -7.1340163161  MEMB      313             0.0000000000
     38908       313  QMPE      H11S          -49.9834699115      -12.8249204892       -6.1955457966  MEMB      313             0.0000000000
     38909       313  QMPE      C212          -48.0713375239      -13.3729230540       -5.3595007580  MEMB      313             0.0000000000
     38910       313  QMPE      H12R          -47.8471777821      -12.2880265386       -5.3518145434  MEMB      313             0.0000000000
     38911       313  QMPE      H12S          -47.2088283916      -13.9486428425       -5.7315649956  MEMB      313             0.0000000000
     38912       313  QMPE      C213          -48.9093409140      -14.0226151085       -4.3338795269  MEMB      313             0.0000000000
     38913       313  QMPE      H13R          -48.4656171319      -15.0105191820       -4.2522614564  MEMB      313             0.0000000000
     38914       313  QMPE      H13S          -50.0067412476      -14.1766070964       -4.5719465417  MEMB      313             0.0000000000
     38915       313  QMPE      C214          -48.8879873570      -13.2260188181       -3.1234709028  MEMB      313             0.0000000000
     38916       313  QMPE      H14R          -47.9113312762      -12.8371973581       -2.7837343556  MEMB      313             0.0000000000
     38917       313  QMPE      H14S          -49.3134122290      -13.8335672410       -2.3735958216  MEMB      313             0.0000000000
     38918       313  QMPE      C215          -49.7541977868      -12.1248528063       -3.2721811579  MEMB      313             0.0000000000
     38919       313  QMPE      H15R          -50.8584543611      -12.2807103942       -3.5156014702  MEMB      313             0.0000000000
     38920       313  QMPE      H15S          -49.3135731757      -11.4122614455       -3.9669324664  MEMB      313             0.0000000000
     38921       313  QMPE      C216          -49.5275628553      -11.3933378179       -2.0696858827  MEMB      313             0.0000000000
     38922       313  QMPE      H16R          -48.8415768587      -10.5122682690       -2.0565762514  MEMB      313             0.0000000000
     38923       313  QMPE      H16S          -50.0556710795      -11.6684017358       -1.2460953490  MEMB      313             0.0000000000
     38924       313  QMPE      H16T          -50.5307313674      -11.0577024778       -2.1265914931  MEMB      313             0.0000000000
     38925       313  QMPE      C33           -41.9472897279      -14.0609963876      -10.1621331554  MEMB      313             0.0000000000
     38926       313  QMPE      H3X           -42.6632427938      -13.2625285005      -10.1102898311  MEMB      313             0.0000000000
     38927       313  QMPE      H3Y           -42.0305113534      -12.9558144492      -10.3825784415  MEMB      313             0.0000000000
     38928       313  QMPE      C34           -40.6060085739      -14.3661028226       -9.1339498384  MEMB      313             0.0000000000
     38929       313  QMPE      H4X           -40.0565156422      -13.5238784620       -8.4982523234  MEMB      313             0.0000000000
     38930       313  QMPE      H4Y           -39.6289788128      -14.7505782919       -9.5508790357  MEMB      313             0.0000000000
     38931       313  QMPE      C35           -41.2214796160      -15.1825627771       -8.4122991142  MEMB      313             0.0000000000
     38932       313  QMPE      H5X           -40.2446413270      -15.3680175145       -7.9913256348  MEMB      313             0.0000000000
     38933       313  QMPE      H5Y           -41.4111806617      -16.0183115264       -9.0073931595  MEMB      313             0.0000000000
     38934       313  QMPE      C36           -42.3638548864      -14.4239649653       -7.7391107929  MEMB      313             0.0000000000
     38935       313  QMPE      H6X           -43.0567569126      -13.8832339338       -8.3585605674  MEMB      313             0.0000000000
     38936       313  QMPE      H6Y           -41.9818154488      -13.6182682773       -7.0488217729  MEMB      313             0.0000000000
     38937       313  QMPE      C37           -43.1270334013      -15.4872593808       -6.9954303594  MEMB      313             0.0000000000
     38938       313  QMPE      H7X           -43.5093310072      -16.2877842841       -7.6495956195  MEMB      313             0.0000000000
     38939       313  QMPE      H7Y           -42.3685036935      -16.0125860339       -6.4165765506  MEMB      313             0.0000000000
     38940       313  QMPE      C38           -44.1960046621      -14.9275098246       -6.0749513664  MEMB      313             0.0000000000
     38941       313  QMPE      H8X           -43.6895501049      -14.2933852421       -5.3088003995  MEMB      313             0.0000000000
     38942       313  QMPE      H8Y           -44.9111833227      -14.3309193538       -6.6734236072  MEMB      313             0.0000000000
     38943       313  QMPE      C39           -44.9321700560      -15.9896645054       -5.2916932493  MEMB      313             0.0000000000
     38944       313  QMPE      H9X           -44.1809395940      -16.8001048851       -5.1539561002  MEMB      313             0.0000000000
     38945       313  QMPE      H9Y           -45.8519844589      -16.3755276360       -5.8063428503  MEMB      313             0.0000000000
     38946       313  QMPE      C310          -45.2532222452      -15.5138709008       -3.9032332675  MEMB      313             0.0000000000
     38947       313  QMPE      H10X          -45.7742757222      -14.5452713412       -3.8139035127  MEMB      313             0.0000000000
     38948       313  QMPE      H10Y          -44.3566365876      -15.4479127022       -3.2641809007  MEMB      313             0.0000000000
     38949       313  QMPE      C311          -46.2055900977      -16.4171342038       -3.3283908154  MEMB      313             0.0000000000
     38950       313  QMPE      H11X          -45.9173973975      -17.4339928291       -3.3489768986  MEMB      313             0.0000000000
     38951       313  QMPE      H11Y          -47.1786257265      -16.3844975889       -3.8458846592  MEMB      313             0.0000000000
     38952       313  QMPE      C312          -46.4219197992      -15.9962752125       -1.9508581071  MEMB      313             0.0000000000
     38953       313  QMPE      H12X          -47.4420652906      -16.2046612509       -1.7131239749  MEMB      313             0.0000000000
     38954       313  QMPE      H12Y          -46.7527540401      -15.0150248221       -1.7738318029  MEMB      313             0.0000000000
     38955       313  QMPE      C313          -45.4285936096      -16.4676222310       -1.0090997433  MEMB      313             0.0000000000
     38956       313  QMPE      H13X          -45.1265020483      -17.5459312108       -1.0070788679  MEMB      313             0.0000000000
     38957       313  QMPE      H13Y          -44.4490962135      -16.0757496868       -1.2301170446  MEMB      313             0.0000000000
     38958       313  QMPE      C314          -46.1358992374      -16.1578214032        0.3275452347  MEMB      313             0.0000000000
     38959       313  QMPE      H14X          -45.7511876147      -16.8478521578        1.1092875513  MEMB      313             0.0000000000
     38960       313  QMPE      H14Y          -46.5707403227      -16.7383559418        0.9437521289  MEMB      313             0.0000000000
     38961       313  QMPE      C315          -46.5708631382      -15.0477651021        0.6969863393  MEMB      313             0.0000000000
     38962       313  QMPE      H15X          -47.3266814184      -14.6651428373        0.2022490528  MEMB      313             0.0000000000
     38963       313  QMPE      H15Y          -46.7739033117      -15.2048299479        1.7369743048  MEMB      313             0.0000000000
     38964       313  QMPE      H15Z          -45.6031636277      -14.7125136802        0.4604344610  MEMB      313             0.0000000000
     38965       314  QMPE      N              22.3320217352      -42.5078473266      -21.4034933803  MEMB      314             0.0000000000
     38966       314  QMPE      HN1            21.3020839142      -42.3502483185      -21.4703308840  MEMB      314             0.0000000000
     38967       314  QMPE      HN2            22.8069686169      -41.6357990716      -21.7140479424  MEMB      314             0.0000000000
     38968       314  QMPE      HN3            22.6122715573      -43.3085556319      -22.0067275744  MEMB      314             0.0000000000
     38969       314  QMPE      C12            22.5633057075      -42.8404901681      -19.9523727417  MEMB      314             0.0000000000
     38970       314  QMPE      H12A           22.1659830953      -41.9863922658      -19.4566258723  MEMB      314             0.0000000000
     38971       314  QMPE      H12B           23.6376249212      -42.9374280484      -19.7356190418  MEMB      314             0.0000000000
     38972       314  QMPE      C11            21.7757876464      -44.0853592619      -19.5826611157  MEMB      314             0.0000000000
     38973       314  QMPE      H11A           22.1080654813      -44.5946623254      -18.6445303953  MEMB      314             0.0000000000
     38974       314  QMPE      H11B           21.9612591126      -44.7819721205      -20.4262532713  MEMB      314             0.0000000000
     38975       314  QMPE      P              19.5525281503      -43.5404249902      -18.2284860651  MEMB      314             0.0000000000
     38976       314  QMPE      O13            18.6581852332      -44.6864589547      -18.1049560685  MEMB      314             0.0000000000
     38977       314  QMPE      O14            18.9607399502      -42.1896601110      -18.2424933907  MEMB      314             0.0000000000
     38978       314  QMPE      O11            20.5693768588      -43.6528880254      -17.0437844518  MEMB      314             0.0000000000
     38979       314  QMPE      O12            20.4049122781      -43.7618761225      -19.5615268273  MEMB      314             0.0000000000
     38980       314  QMPE      C1             20.0146695147      -43.5836892631      -15.7192832371  MEMB      314             0.0000000000
     38981       314  QMPE      HA             20.3556701476      -44.4717507701      -15.1362729242  MEMB      314             0.0000000000
     38982       314  QMPE      HB             18.8931473827      -43.5747071735      -15.6665170572  MEMB      314             0.0000000000
     38983       314  QMPE      C2             20.4866835488      -42.2802317579      -15.0779288890  MEMB      314             0.0000000000
     38984       314  QMPE      HS             20.1090710190      -41.4322993996      -15.6868072798  MEMB      314             0.0000000000
     38985       314  QMPE      O21            21.8969639206      -42.3045883940      -15.1075493285  MEMB      314             0.0000000000
     38986       314  QMPE      C21            22.5223077797      -41.2515914655      -14.8077302754  MEMB      314             0.0000000000
     38987       314  QMPE      O22            22.0458754875      -40.1396388712      -14.6152844770  MEMB      314             0.0000000000
     38988       314  QMPE      C22            23.9623523586      -41.7522901356      -15.0963413609  MEMB      314             0.0000000000
     38989       314  QMPE      H2R            24.5570123668      -40.9447761672      -15.3963898774  MEMB      314             0.0000000000
     38990       314  QMPE      H2S            24.1562428552      -42.2555315793      -16.0784944358  MEMB      314             0.0000000000
     38991       314  QMPE      C3             19.9704482274      -42.1821716855      -13.6462632987  MEMB      314             0.0000000000
     38992       314  QMPE      HX             18.8633658074      -42.3236865269      -13.7221377452  MEMB      314             0.0000000000
     38993       314  QMPE      HY             20.2390040304      -41.1611110845      -13.2797357227  MEMB      314             0.0000000000
     38994       314  QMPE      O31            20.5852964165      -43.2412352924      -12.8674511799  MEMB      314             0.0000000000
     38995       314  QMPE      C31            20.4512597044      -43.0589228807      -11.5703918555  MEMB      314             0.0000000000
     38996       314  QMPE      O32            19.7409417303      -42.2259486956      -11.0491393216  MEMB      314             0.0000000000
     38997       314  QMPE      C32            21.2766096698      -44.0614640432      -10.7732700820  MEMB      314             0.0000000000
     38998       314  QMPE      H2X            20.8990496324      -45.0709246811      -10.9853842123  MEMB      314             0.0000000000
     38999       314  QMPE      H2Y            22.3361427057      -43.9928212845      -11.0771097269  MEMB      314             0.0000000000
     39000       314  QMPE      C23            24.6482500322      -42.5018727952      -14.1107920401  MEMB      314             0.0000000000
     39001       314  QMPE      H3R            25.6418427437      -42.5842962551      -14.6617775873  MEMB      314             0.0000000000
     39002       314  QMPE      H3S            24.0980543413      -43.3931503458      -14.0545705568  MEMB      314             0.0000000000
     39003       314  QMPE      C24            24.8452402800      -41.7965557566      -12.8348571815  MEMB      314             0.0000000000
     39004       314  QMPE      H4R            24.6676346502      -40.7353605996      -13.0816109113  MEMB      314             0.0000000000
     39005       314  QMPE      H4S            25.9256776642      -42.0464306684      -12.7794561463  MEMB      314             0.0000000000
     39006       314  QMPE      C25            24.0162138344      -41.8377686102      -11.6130098536  MEMB      314             0.0000000000
     39007       314  QMPE      H5R            24.0483978114      -42.8790707438      -11.3109547961  MEMB      314             0.0000000000
     39008       314  QMPE      H5S            23.0051026371      -41.4966749887      -11.8592408483  MEMB      314             0.0000000000
     39009       314  QMPE      C26            24.4009687865      -40.8952065043      -10.4839296435  MEMB      314             0.0000000000
     39010       314  QMPE      H6R            24.4985827908      -39.8204707837      -10.6299919314  MEMB      314             0.0000000000
     39011       314  QMPE      H6S            25.1930972852      -41.2199280785       -9.8886585194  MEMB      314             0.0000000000
     39012       314  QMPE      C27            23.5167575617      -40.8212222187       -9.4299308110  MEMB      314             0.0000000000
     39013       314  QMPE      H7R            23.3136956032      -41.8432405140       -9.0326565631  MEMB      314             0.0000000000
     39014       314  QMPE      H7S            22.6449724887      -40.3216339508       -9.9361023425  MEMB      314             0.0000000000
     39015       314  QMPE      C28            23.8409534346      -39.9212747430       -8.1986289869  MEMB      314             0.0000000000
     39016       314  QMPE      H8R            23.1366672176      -39.8758548391       -7.3627482822  MEMB      314             0.0000000000
     39017       314  QMPE      H8S            23.8635850215      -38.9201008850       -8.6097284467  MEMB      314             0.0000000000
     39018       314  QMPE      C29            24.9765473019      -40.1982976761       -7.3950969996  MEMB      314             0.0000000000
     39019       314  QMPE      H9R            25.7190136866      -39.5409913222       -7.6806808376  MEMB      314             0.0000000000
     39020       314  QMPE      C217           25.0337360070      -41.4321023088       -6.6701029193  MEMB      314             0.0000000000
     39021       314  QMPE      H17R           24.3477941785      -42.1547894664       -7.0853746916  MEMB      314             0.0000000000
     39022       314  QMPE      H17S           26.0183275241      -41.7416381779       -6.3368666938  MEMB      314             0.0000000000
     39023       314  QMPE      C210           25.0627535166      -40.3916402259       -5.8781311689  MEMB      314             0.0000000000
     39024       314  QMPE      H10R           26.0951461527      -40.2866738311       -5.3918581643  MEMB      314             0.0000000000
     39025       314  QMPE      C211           23.8887355500      -40.7407377041       -5.1470829771  MEMB      314             0.0000000000
     39026       314  QMPE      H11R           23.0856067029      -41.1824308235       -5.7820807623  MEMB      314             0.0000000000
     39027       314  QMPE      H11S           24.0800661083      -41.3736530507       -4.3082083955  MEMB      314             0.0000000000
     39028       314  QMPE      C212           23.6945511166      -39.3960557950       -4.6036173732  MEMB      314             0.0000000000
     39029       314  QMPE      H12R           23.7256151366      -38.7240403221       -5.4873469597  MEMB      314             0.0000000000
     39030       314  QMPE      H12S           24.5419909385      -39.1757246572       -3.9184281480  MEMB      314             0.0000000000
     39031       314  QMPE      C213           22.3760541477      -39.2175770650       -3.9432566638  MEMB      314             0.0000000000
     39032       314  QMPE      H13R           21.6680206227      -39.4307379671       -4.7294784316  MEMB      314             0.0000000000
     39033       314  QMPE      H13S           22.2656629745      -38.1889221865       -3.6355878881  MEMB      314             0.0000000000
     39034       314  QMPE      C214           22.2011065564      -39.9933001612       -2.6698020877  MEMB      314             0.0000000000
     39035       314  QMPE      H14R           22.7825424414      -39.4817775707       -1.8529728498  MEMB      314             0.0000000000
     39036       314  QMPE      H14S           22.4043556407      -41.0456343575       -2.7774804554  MEMB      314             0.0000000000
     39037       314  QMPE      C215           20.8658182076      -39.9518352288       -2.1607344716  MEMB      314             0.0000000000
     39038       314  QMPE      H15R           20.0950682566      -39.5309221525       -2.7990199639  MEMB      314             0.0000000000
     39039       314  QMPE      H15S           21.0882517957      -38.9684344114       -1.9072786740  MEMB      314             0.0000000000
     39040       314  QMPE      C216           20.4008100392      -41.0253874699       -1.1368178167  MEMB      314             0.0000000000
     39041       314  QMPE      H16R           20.2680797928      -41.9544001996       -1.7446741629  MEMB      314             0.0000000000
     39042       314  QMPE      H16S           19.3780504842      -40.8586939981       -0.7308505889  MEMB      314             0.0000000000
     39043       314  QMPE      H16T           21.1456831257      -41.2789797546       -0.4186085022  MEMB      314             0.0000000000
     39044       314  QMPE      C33            21.1181009245      -43.8548861625       -9.2566701411  MEMB      314             0.0000000000
     39045       314  QMPE      H3X            20.0486408156      -43.7696859141       -8.9593283548  MEMB      314             0.0000000000
     39046       314  QMPE      H3Y            21.6977521634      -42.9853347273       -9.0006371836  MEMB      314             0.0000000000
     39047       314  QMPE      C34            21.9140577499      -44.8037322853       -8.3976317930  MEMB      314             0.0000000000
     39048       314  QMPE      H4X            22.9992895003      -44.6211974258       -8.5232393401  MEMB      314             0.0000000000
     39049       314  QMPE      H4Y            21.6948439888      -45.7223255993       -8.8819877945  MEMB      314             0.0000000000
     39050       314  QMPE      C35            21.5446146796      -44.9848492202       -6.9215191992  MEMB      314             0.0000000000
     39051       314  QMPE      H5X            22.3132841423      -45.6482415199       -6.4821933299  MEMB      314             0.0000000000
     39052       314  QMPE      H5Y            20.5672240429      -45.5074944961       -6.8504844545  MEMB      314             0.0000000000
     39053       314  QMPE      C36            21.5420470075      -43.7265736835       -6.0910682877  MEMB      314             0.0000000000
     39054       314  QMPE      H6X            20.8749642505      -43.0659361748       -6.6014185756  MEMB      314             0.0000000000
     39055       314  QMPE      H6Y            22.4673264831      -43.1563334479       -6.1544084976  MEMB      314             0.0000000000
     39056       314  QMPE      C37            21.2522024125      -43.9332948823       -4.6016576622  MEMB      314             0.0000000000
     39057       314  QMPE      H7X            21.2700190283      -42.9183171656       -4.2874506469  MEMB      314             0.0000000000
     39058       314  QMPE      H7Y            20.3021104354      -44.4505671879       -4.4020483138  MEMB      314             0.0000000000
     39059       314  QMPE      C38            22.3583221702      -44.5750726213       -3.7778049334  MEMB      314             0.0000000000
     39060       314  QMPE      H8X            22.4076725424      -45.6112442603       -4.0855576439  MEMB      314             0.0000000000
     39061       314  QMPE      H8Y            23.2356565906      -44.1926371777       -4.1953833536  MEMB      314             0.0000000000
     39062       314  QMPE      C39            22.5679874374      -44.2579083201       -2.2698603073  MEMB      314             0.0000000000
     39063       314  QMPE      H9X            21.6274029882      -44.1056316212       -1.6980966141  MEMB      314             0.0000000000
     39064       314  QMPE      H9Y            23.0138433635      -43.2834250348       -2.2006646527  MEMB      314             0.0000000000
     39065       314  QMPE      C310           23.5047321629      -45.2620657055       -1.5371242017  MEMB      314             0.0000000000
     39066       314  QMPE      H10X           24.2994645429      -45.2844678437       -2.2343747228  MEMB      314             0.0000000000
     39067       314  QMPE      H10Y           23.2735834115      -46.3371172716       -1.5471847611  MEMB      314             0.0000000000
     39068       314  QMPE      C311           24.0308716321      -44.8315394610       -0.1623273062  MEMB      314             0.0000000000
     39069       314  QMPE      H11X           24.5697231022      -43.8746438322       -0.2845619019  MEMB      314             0.0000000000
     39070       314  QMPE      H11Y           24.7017238772      -45.6394823196        0.2086510485  MEMB      314             0.0000000000
     39071       314  QMPE      C312           22.9657028325      -44.5951302553        0.8917228123  MEMB      314             0.0000000000
     39072       314  QMPE      H12X           22.3238003257      -45.4877506415        0.8288846640  MEMB      314             0.0000000000
     39073       314  QMPE      H12Y           22.3530505275      -43.7350373968        0.5498914238  MEMB      314             0.0000000000
     39074       314  QMPE      C313           23.5049865686      -44.4823529615        2.3343030206  MEMB      314             0.0000000000
     39075       314  QMPE      H13X           22.6545962386      -44.4480103236        3.0572992064  MEMB      314             0.0000000000
     39076       314  QMPE      H13Y           24.1418012174      -45.3576942710        2.5978606904  MEMB      314             0.0000000000
     39077       314  QMPE      C314           24.4467281811      -43.3083022869        2.5826330439  MEMB      314             0.0000000000
     39078       314  QMPE      H14X           25.4458851796      -43.5588633315        2.1624920032  MEMB      314             0.0000000000
     39079       314  QMPE      H14Y           24.6346068523      -43.2686136565        3.6790860058  MEMB      314             0.0000000000
     39080       314  QMPE      C315           23.9210586326      -41.9767719701        2.0392472842  MEMB      314             0.0000000000
     39081       314  QMPE      H15X           24.2185909983      -41.8139347978        0.9740022805  MEMB      314             0.0000000000
     39082       314  QMPE      H15Y           22.8132139605      -41.9074219742        2.1488559080  MEMB      314             0.0000000000
     39083       314  QMPE      H15Z           24.3511031043      -41.1609010662        2.6438332766  MEMB      314             0.0000000000
     39084       315  POPE      N             -27.8174445795      -42.1280203839      -18.4648961155  MEMB      315             0.0000000000
     39085       315  POPE      HN1           -28.1981573421      -42.7720036484      -19.1823965972  MEMB      315             0.0000000000
     39086       315  POPE      HN2           -26.8580984868      -42.4600446240      -18.2004821098  MEMB      315             0.0000000000
     39087       315  POPE      HN3           -28.3827106519      -42.2080662357      -17.6015091956  MEMB      315             0.0000000000
     39088       315  POPE      C12           -27.7264081868      -40.6444816791      -18.8237658679  MEMB      315             0.0000000000
     39089       315  POPE      H12A          -27.4541342506      -40.1408376512      -17.8758160943  MEMB      315             0.0000000000
     39090       315  POPE      H12B          -28.7212122162      -40.2407203057      -19.1014007103  MEMB      315             0.0000000000
     39091       315  POPE      C11           -26.7731297781      -40.3109829911      -20.0003316167  MEMB      315             0.0000000000
     39092       315  POPE      H11A          -26.7156784026      -39.1994808661      -20.1452105406  MEMB      315             0.0000000000
     39093       315  POPE      H11B          -27.2533020762      -40.6995342879      -20.9097234737  MEMB      315             0.0000000000
     39094       315  POPE      P             -24.4643436053      -40.2782065199      -19.0016435321  MEMB      315             0.0000000000
     39095       315  POPE      O13           -24.7793660648      -38.8347452123      -18.8070613712  MEMB      315             0.0000000000
     39096       315  POPE      O14           -23.1412578471      -40.7047984206      -19.5200442048  MEMB      315             0.0000000000
     39097       315  POPE      O11           -24.8398437862      -41.0400756900      -17.6417270651  MEMB      315             0.0000000000
     39098       315  POPE      O12           -25.4948744957      -40.9247288585      -19.9453874951  MEMB      315             0.0000000000
     39099       315  POPE      C1            -24.5727282423      -42.4346673535      -17.5069371931  MEMB      315             0.0000000000
     39100       315  POPE      HA            -23.5896731981      -42.6952095744      -17.9501968934  MEMB      315             0.0000000000
     39101       315  POPE      HB            -25.3600854602      -43.0035932372      -18.0221601625  MEMB      315             0.0000000000
     39102       315  POPE      C2            -24.5787241807      -42.9257025221      -16.0237507650  MEMB      315             0.0000000000
     39103       315  POPE      HS            -24.1228948695      -43.9629021633      -16.0089953115  MEMB      315             0.0000000000
     39104       315  POPE      O21           -25.8095303947      -42.8859746100      -15.3755134851  MEMB      315             0.0000000000
     39105       315  POPE      C21           -26.7230951128      -43.6866824260      -15.7236080187  MEMB      315             0.0000000000
     39106       315  POPE      O22           -26.6481690395      -44.5154468360      -16.6161785669  MEMB      315             0.0000000000
     39107       315  POPE      C22           -27.9723719271      -43.3371775876      -14.9232708787  MEMB      315             0.0000000000
     39108       315  POPE      H2R           -28.8733081277      -43.3764289089      -15.5187769244  MEMB      315             0.0000000000
     39109       315  POPE      H2S           -27.7886304392      -42.3983481810      -14.3412990301  MEMB      315             0.0000000000
     39110       315  POPE      C3            -23.7969734031      -42.1471154110      -15.0466040120  MEMB      315             0.0000000000
     39111       315  POPE      HX            -23.0151323385      -41.9760026267      -15.5068331921  MEMB      315             0.0000000000
     39112       315  POPE      HY            -23.3846933120      -42.5572618487      -14.2131491799  MEMB      315             0.0000000000
     39113       315  POPE      O31           -24.2593648247      -40.9496878683      -14.6395044863  MEMB      315             0.0000000000
     39114       315  POPE      C31           -23.5239147110      -40.1014000048      -13.7982732255  MEMB      315             0.0000000000
     39115       315  POPE      O32           -22.3976932253      -40.3894296403      -13.4833660086  MEMB      315             0.0000000000
     39116       315  POPE      C32           -24.3718410231      -38.6207458499      -13.7579943774  MEMB      315             0.0000000000
     39117       315  POPE      H2X           -24.7282976461      -38.0329826952      -14.6866016016  MEMB      315             0.0000000000
     39118       315  POPE      H2Y           -23.9350052620      -37.7089642513      -13.6386869211  MEMB      315             0.0000000000
     39119       315  POPE      C23           -28.3208352595      -44.2724599488      -13.8709508751  MEMB      315             0.0000000000
     39120       315  POPE      H3R           -28.6008011265      -45.2972247616      -14.0545056432  MEMB      315             0.0000000000
     39121       315  POPE      H3S           -29.2398259762      -44.2706396196      -13.3152746960  MEMB      315             0.0000000000
     39122       315  POPE      C24           -27.2399938633      -44.1475817486      -13.0270393412  MEMB      315             0.0000000000
     39123       315  POPE      H4R           -26.1722271197      -44.4356951388      -13.4216847770  MEMB      315             0.0000000000
     39124       315  POPE      H4S           -27.9238148540      -45.0454040911      -12.4885542217  MEMB      315             0.0000000000
     39125       315  POPE      C25           -27.0608664892      -43.1343285416      -11.8796299856  MEMB      315             0.0000000000
     39126       315  POPE      H5R           -28.0833174938      -43.0255347373      -11.5097617752  MEMB      315             0.0000000000
     39127       315  POPE      H5S           -26.6280797588      -42.2720571954      -12.3248237456  MEMB      315             0.0000000000
     39128       315  POPE      C26           -26.0924680651      -43.3179366837      -10.6353504076  MEMB      315             0.0000000000
     39129       315  POPE      H6R           -25.1032387256      -43.7946298584      -10.8758279603  MEMB      315             0.0000000000
     39130       315  POPE      H6S           -26.6421030834      -43.9550705973       -9.9314950034  MEMB      315             0.0000000000
     39131       315  POPE      C27           -26.0482024619      -42.2120490506       -9.6793727599  MEMB      315             0.0000000000
     39132       315  POPE      H7R           -27.0113389240      -42.0977880012       -9.1507839743  MEMB      315             0.0000000000
     39133       315  POPE      H7S           -25.9285845216      -41.3864265176      -10.3816452186  MEMB      315             0.0000000000
     39134       315  POPE      C28           -24.9446654307      -42.3771802797       -8.6616612436  MEMB      315             0.0000000000
     39135       315  POPE      H8R           -24.6511031163      -41.3294612903       -8.4296006738  MEMB      315             0.0000000000
     39136       315  POPE      H8S           -24.0994362800      -42.9123655510       -9.1581167545  MEMB      315             0.0000000000
     39137       315  POPE      C29           -25.4073149068      -43.1332495407       -7.4375235717  MEMB      315             0.0000000000
     39138       315  POPE      H91           -25.7300957685      -44.1700939042       -7.5955676976  MEMB      315             0.0000000000
     39139       315  POPE      C210          -25.6832067534      -42.6306168300       -6.2305157418  MEMB      315             0.0000000000
     39140       315  POPE      H101          -25.8505067963      -43.3537921652       -5.4212437030  MEMB      315             0.0000000000
     39141       315  POPE      C211          -25.6041771957      -41.1913899564       -5.8135775022  MEMB      315             0.0000000000
     39142       315  POPE      H11R          -26.4527199790      -40.9766044929       -5.1350587652  MEMB      315             0.0000000000
     39143       315  POPE      H11S          -25.7874241662      -40.5416619269       -6.7001797415  MEMB      315             0.0000000000
     39144       315  POPE      C212          -24.3007087866      -40.7103381356       -5.1378679796  MEMB      315             0.0000000000
     39145       315  POPE      H12R          -24.4367502946      -39.6013035314       -5.0735092588  MEMB      315             0.0000000000
     39146       315  POPE      H12S          -23.4634477948      -40.8484169418       -5.8411380438  MEMB      315             0.0000000000
     39147       315  POPE      C213          -23.9659215233      -41.3186997360       -3.7453687152  MEMB      315             0.0000000000
     39148       315  POPE      H13R          -23.0100106743      -40.8547822578       -3.3915696375  MEMB      315             0.0000000000
     39149       315  POPE      H13S          -23.7637213025      -42.4125882064       -3.7311361606  MEMB      315             0.0000000000
     39150       315  POPE      C214          -25.1750492093      -41.1135617149       -2.8156751085  MEMB      315             0.0000000000
     39151       315  POPE      H14R          -26.0155009669      -41.7701469820       -3.1638373015  MEMB      315             0.0000000000
     39152       315  POPE      H14S          -25.5079574481      -40.0609331326       -2.9763639613  MEMB      315             0.0000000000
     39153       315  POPE      C215          -24.9772434767      -41.4190065478       -1.3207146879  MEMB      315             0.0000000000
     39154       315  POPE      H15R          -25.0641886061      -42.5118010490       -1.1234092280  MEMB      315             0.0000000000
     39155       315  POPE      H15S          -25.8065888714      -40.9363276520       -0.7653425696  MEMB      315             0.0000000000
     39156       315  POPE      C216          -23.6522624336      -41.0285040742       -0.6767573123  MEMB      315             0.0000000000
     39157       315  POPE      H16R          -22.8482434612      -41.5869995576       -1.1658128901  MEMB      315             0.0000000000
     39158       315  POPE      H16S          -23.7670523525      -41.5179745839        0.3102097900  MEMB      315             0.0000000000
     39159       315  POPE      C217          -23.3248079857      -39.5235274122       -0.7154361604  MEMB      315             0.0000000000
     39160       315  POPE      H17R          -23.6822138758      -39.1559458300       -1.6811874210  MEMB      315             0.0000000000
     39161       315  POPE      H17S          -22.2561128009      -39.2763725011       -0.5050868287  MEMB      315             0.0000000000
     39162       315  POPE      C218          -24.1132015877      -38.7156293700        0.2078793531  MEMB      315             0.0000000000
     39163       315  POPE      H18R          -24.1690576922      -37.6231923317        0.2005904422  MEMB      315             0.0000000000
     39164       315  POPE      H18S          -23.5645073148      -38.7261759179        1.1581282894  MEMB      315             0.0000000000
     39165       315  POPE      H18T          -25.1265601111      -39.1587156047        0.3799360557  MEMB      315             0.0000000000
     39166       315  POPE      C33           -25.6275791792      -38.6800137005      -13.3196500174  MEMB      315             0.0000000000
     39167       315  POPE      H3X           -26.1385544264      -39.3888535611      -13.9980777278  MEMB      315             0.0000000000
     39168       315  POPE      H3Y           -25.9612808048      -37.6123027607      -13.4429283529  MEMB      315             0.0000000000
     39169       315  POPE      C34           -25.2303416726      -39.1907928405      -11.9965315658  MEMB      315             0.0000000000
     39170       315  POPE      H4X           -24.1569103976      -38.9096498053      -11.7376151897  MEMB      315             0.0000000000
     39171       315  POPE      H4Y           -25.2544949316      -40.2922918796      -12.1497541209  MEMB      315             0.0000000000
     39172       315  POPE      C35           -26.2254427774      -38.6496100956      -11.0257704622  MEMB      315             0.0000000000
     39173       315  POPE      H5X           -26.1528973883      -37.5416411937      -11.1269888344  MEMB      315             0.0000000000
     39174       315  POPE      H5Y           -25.9706081012      -38.8732998582       -9.9785767906  MEMB      315             0.0000000000
     39175       315  POPE      C36           -27.6598836214      -39.0691540453      -11.3394034945  MEMB      315             0.0000000000
     39176       315  POPE      H6X           -27.8746021913      -40.1345090217      -11.0657496971  MEMB      315             0.0000000000
     39177       315  POPE      H6Y           -27.8482453009      -38.9605894922      -12.4327146604  MEMB      315             0.0000000000
     39178       315  POPE      C37           -28.6217765297      -38.1383199781      -10.6270971060  MEMB      315             0.0000000000
     39179       315  POPE      H7X           -29.5642902737      -38.4344199973      -11.0779953334  MEMB      315             0.0000000000
     39180       315  POPE      H7Y           -28.6753036836      -37.0973549960      -10.9777923145  MEMB      315             0.0000000000
     39181       315  POPE      C38           -28.5295234170      -38.2070147632       -9.0489100686  MEMB      315             0.0000000000
     39182       315  POPE      H8X           -29.2368911195      -37.4100762271       -8.6444401675  MEMB      315             0.0000000000
     39183       315  POPE      H8Y           -27.5513205489      -37.8866072743       -8.7936702180  MEMB      315             0.0000000000
     39184       315  POPE      C39           -28.7621284971      -39.6639132082       -8.3644563005  MEMB      315             0.0000000000
     39185       315  POPE      H9X           -28.5578205694      -39.4819411849       -7.3045048243  MEMB      315             0.0000000000
     39186       315  POPE      H9Y           -28.2604013335      -40.4749437107       -8.8598668323  MEMB      315             0.0000000000
     39187       315  POPE      C310          -30.0158037968      -40.5203039727       -8.6341938168  MEMB      315             0.0000000000
     39188       315  POPE      H10X          -30.4457403901      -40.4981709258       -9.6587034916  MEMB      315             0.0000000000
     39189       315  POPE      H10Y          -30.7166631311      -40.1252845537       -7.9016706210  MEMB      315             0.0000000000
     39190       315  POPE      C311          -30.6794707325      -41.6473760285       -8.4014637124  MEMB      315             0.0000000000
     39191       315  POPE      H11X          -30.0019265630      -42.3058707571       -8.7440411143  MEMB      315             0.0000000000
     39192       315  POPE      H11Y          -31.8170731347      -41.7079092061       -8.7416098559  MEMB      315             0.0000000000
     39193       315  POPE      C312          -30.4510499599      -42.0300273596       -7.1883963090  MEMB      315             0.0000000000
     39194       315  POPE      H12X          -31.4299034330      -42.6563869976       -7.3812869589  MEMB      315             0.0000000000
     39195       315  POPE      H12Y          -31.0303733424      -41.4666823872       -6.9824239681  MEMB      315             0.0000000000
     39196       315  POPE      C313          -29.3551182854      -42.0080770730       -5.8030862072  MEMB      315             0.0000000000
     39197       315  POPE      H13X          -28.9029676430      -41.0817409173       -5.5194554771  MEMB      315             0.0000000000
     39198       315  POPE      H13Y          -28.7459423724      -42.5718860801       -6.4694431986  MEMB      315             0.0000000000
     39199       315  POPE      C314          -29.4624864250      -42.8497620759       -4.2621495340  MEMB      315             0.0000000000
     39200       315  POPE      H14X          -28.6280022163      -42.6158319340       -3.7346257325  MEMB      315             0.0000000000
     39201       315  POPE      H14Y          -29.3323202992      -44.0170595350       -4.3307487175  MEMB      315             0.0000000000
     39202       315  POPE      C315          -30.6583090922      -42.8560724172       -3.2582575388  MEMB      315             0.0000000000
     39203       315  POPE      H15X          -30.5141361432      -43.6450744071       -2.6066853750  MEMB      315             0.0000000000
     39204       315  POPE      H15Y          -31.5451950683      -43.3209307748       -3.5998679420  MEMB      315             0.0000000000
     39205       315  POPE      C316          -31.1261773542      -41.5382681042       -2.7611353984  MEMB      315             0.0000000000
     39206       315  POPE      H16X          -31.9039387227      -41.6843806224       -2.0187279608  MEMB      315             0.0000000000
     39207       315  POPE      H16Y          -31.5050097435      -40.8032016854       -3.5025290914  MEMB      315             0.0000000000
     39208       315  POPE      H16Z          -30.1383779788      -41.2455571814       -2.4490427364  MEMB      315             0.0000000000
     39209       316  PMPE      N             -14.3956453047      -48.9545421030      -19.8793058679  MEMB      316             0.0000000000
     39210       316  PMPE      HN1           -14.8454045841      -49.8923204366      -19.9625651906  MEMB      316             0.0000000000
     39211       316  PMPE      HN2           -13.9385778491      -48.7121530974      -20.7797231018  MEMB      316             0.0000000000
     39212       316  PMPE      HN3           -13.6588447334      -49.0295262764      -19.1531321187  MEMB      316             0.0000000000
     39213       316  PMPE      C12           -15.3048477808      -47.8330061309      -19.4235688944  MEMB      316             0.0000000000
     39214       316  PMPE      H12A          -15.7049384663      -48.1822934408      -18.4540261748  MEMB      316             0.0000000000
     39215       316  PMPE      H12B          -16.1126102868      -47.7064996367      -20.1695871614  MEMB      316             0.0000000000
     39216       316  PMPE      C11           -14.5564019910      -46.4758787232      -19.3021705754  MEMB      316             0.0000000000
     39217       316  PMPE      H11A          -15.2500379904      -45.6393746893      -19.0749035810  MEMB      316             0.0000000000
     39218       316  PMPE      H11B          -14.2061598444      -46.2535314532      -20.3337965708  MEMB      316             0.0000000000
     39219       316  PMPE      P             -12.1492724152      -45.6482412402      -18.7008801025  MEMB      316             0.0000000000
     39220       316  PMPE      O13           -12.0478996500      -45.5378182452      -20.1709941402  MEMB      316             0.0000000000
     39221       316  PMPE      O14           -10.9762678538      -46.2153170564      -18.0076044653  MEMB      316             0.0000000000
     39222       316  PMPE      O11           -12.4560451863      -44.2127915257      -18.1960520771  MEMB      316             0.0000000000
     39223       316  PMPE      O12           -13.4855362115      -46.4895432722      -18.3401123033  MEMB      316             0.0000000000
     39224       316  PMPE      C1            -13.2519401613      -43.9585082806      -17.0412725756  MEMB      316             0.0000000000
     39225       316  PMPE      HA            -14.1050133330      -44.6359414529      -16.9307351629  MEMB      316             0.0000000000
     39226       316  PMPE      HB            -13.7180273741      -42.9678756134      -17.1805366364  MEMB      316             0.0000000000
     39227       316  PMPE      C2            -12.4655694212      -43.9740285686      -15.7211850018  MEMB      316             0.0000000000
     39228       316  PMPE      HS            -11.7672055041      -43.2944822647      -15.5687775232  MEMB      316             0.0000000000
     39229       316  PMPE      O21           -11.8416621133      -45.1742548234      -15.5214893168  MEMB      316             0.0000000000
     39230       316  PMPE      C21           -10.7422356786      -45.2760124391      -14.9422308294  MEMB      316             0.0000000000
     39231       316  PMPE      O22            -9.8321657822      -44.6157254076      -14.5172244026  MEMB      316             0.0000000000
     39232       316  PMPE      C22           -10.6136955465      -46.5233898457      -14.7196714148  MEMB      316             0.0000000000
     39233       316  PMPE      H2R            -9.4735200220      -46.3699947772      -14.7653965925  MEMB      316             0.0000000000
     39234       316  PMPE      H2S           -10.8308996177      -47.2212323054      -15.5511968405  MEMB      316             0.0000000000
     39235       316  PMPE      C3            -13.2820094145      -43.5994281134      -14.4995047237  MEMB      316             0.0000000000
     39236       316  PMPE      HX            -13.9888437070      -44.3951783426      -14.3061914241  MEMB      316             0.0000000000
     39237       316  PMPE      HY            -13.8374600638      -42.6678334642      -14.7992299982  MEMB      316             0.0000000000
     39238       316  PMPE      O31           -12.3843722534      -43.3858354158      -13.3745653333  MEMB      316             0.0000000000
     39239       316  PMPE      C31           -13.0447276613      -43.2542488221      -12.2604406183  MEMB      316             0.0000000000
     39240       316  PMPE      O32           -14.2523923903      -43.1160693844      -12.1798355511  MEMB      316             0.0000000000
     39241       316  PMPE      C32           -12.0932821265      -43.4778570911      -11.0893723654  MEMB      316             0.0000000000
     39242       316  PMPE      H2X           -11.1953497404      -42.8336806573      -11.2108005383  MEMB      316             0.0000000000
     39243       316  PMPE      H2Y           -11.8086061873      -44.5423904322      -11.1600394492  MEMB      316             0.0000000000
     39244       316  PMPE      C23           -11.3441571072      -47.0485578449      -13.3876979731  MEMB      316             0.0000000000
     39245       316  PMPE      H3R           -11.4346184915      -48.1770821929      -13.5468074816  MEMB      316             0.0000000000
     39246       316  PMPE      H3S           -12.2509249704      -46.6769194850      -13.2694188207  MEMB      316             0.0000000000
     39247       316  PMPE      C24           -10.9033858805      -46.7711708248      -11.7557279204  MEMB      316             0.0000000000
     39248       316  PMPE      H4R           -10.4275557714      -45.7479483109      -11.9595274342  MEMB      316             0.0000000000
     39249       316  PMPE      H4S           -10.0062810919      -47.6553949045      -11.2359598730  MEMB      316             0.0000000000
     39250       316  PMPE      C25           -11.1581581569      -47.4305043320      -10.5335917217  MEMB      316             0.0000000000
     39251       316  PMPE      H5R           -12.1262721529      -47.0814236182      -10.7465656341  MEMB      316             0.0000000000
     39252       316  PMPE      H5S           -10.7199956553      -46.9538064337       -9.6730174160  MEMB      316             0.0000000000
     39253       316  PMPE      C26           -10.8953613118      -48.9559740695      -10.3009608987  MEMB      316             0.0000000000
     39254       316  PMPE      H6R            -9.9475898501      -49.1048667687       -9.7156402722  MEMB      316             0.0000000000
     39255       316  PMPE      H6S           -10.7350853196      -49.5013463689      -11.2546529716  MEMB      316             0.0000000000
     39256       316  PMPE      C27           -12.0401342024      -49.3621144096       -9.5767654674  MEMB      316             0.0000000000
     39257       316  PMPE      H7R           -12.0662266657      -50.4672098963       -9.5911612297  MEMB      316             0.0000000000
     39258       316  PMPE      H7S           -12.9277062602      -48.9651098069      -10.1355820236  MEMB      316             0.0000000000
     39259       316  PMPE      C28           -12.0263996707      -48.7453753161       -8.1952728134  MEMB      316             0.0000000000
     39260       316  PMPE      H8R           -11.7960562644      -47.6589222092       -8.0588393761  MEMB      316             0.0000000000
     39261       316  PMPE      H8S           -11.4791542297      -49.3667479920       -7.4644429769  MEMB      316             0.0000000000
     39262       316  PMPE      C29           -13.4078572651      -48.7357742725       -7.9522064104  MEMB      316             0.0000000000
     39263       316  PMPE      H9R           -14.0184901324      -49.5351108291       -8.4658271639  MEMB      316             0.0000000000
     39264       316  PMPE      C217          -13.9520985077      -47.3134938000       -7.8626237303  MEMB      316             0.0000000000
     39265       316  PMPE      H17R          -14.7402454048      -47.1574066146       -8.4056271084  MEMB      316             0.0000000000
     39266       316  PMPE      H17S          -13.5393517382      -46.3763849600       -7.8589763262  MEMB      316             0.0000000000
     39267       316  PMPE      C210          -13.7218671651      -48.1990897055       -6.6128038811  MEMB      316             0.0000000000
     39268       316  PMPE      H10R          -14.3543195066      -48.6091235853       -5.8054613488  MEMB      316             0.0000000000
     39269       316  PMPE      C211          -13.2091333702      -47.5502257077       -5.4707830398  MEMB      316             0.0000000000
     39270       316  PMPE      H11R          -13.9768663981      -47.0871081988       -4.7621183928  MEMB      316             0.0000000000
     39271       316  PMPE      H11S          -12.6133956132      -46.8312105242       -5.9445569216  MEMB      316             0.0000000000
     39272       316  PMPE      C212          -12.6608481135      -48.6771573302       -4.6652798586  MEMB      316             0.0000000000
     39273       316  PMPE      H12R          -11.9236249945      -49.0999962065       -5.3354197819  MEMB      316             0.0000000000
     39274       316  PMPE      H12S          -13.2734895653      -49.5264358288       -4.7502474340  MEMB      316             0.0000000000
     39275       316  PMPE      C213          -12.3751337108      -48.2160136697       -3.2653509218  MEMB      316             0.0000000000
     39276       316  PMPE      H13R          -12.0180305732      -49.0361889769       -2.6233756232  MEMB      316             0.0000000000
     39277       316  PMPE      H13S          -13.2011861984      -47.7575235903       -2.6637233020  MEMB      316             0.0000000000
     39278       316  PMPE      C214          -11.2436472100      -47.2407290857       -3.4940095885  MEMB      316             0.0000000000
     39279       316  PMPE      H14R          -11.4686665855      -46.5133690172       -4.3086318097  MEMB      316             0.0000000000
     39280       316  PMPE      H14S          -10.3760202478      -47.8274619752       -3.8671719371  MEMB      316             0.0000000000
     39281       316  PMPE      C215          -10.8638014070      -46.5134291814       -2.2311511269  MEMB      316             0.0000000000
     39282       316  PMPE      H15R          -10.7994015314      -47.2182407861       -1.3746736173  MEMB      316             0.0000000000
     39283       316  PMPE      H15S          -11.6746692253      -45.7780099255       -2.0186509733  MEMB      316             0.0000000000
     39284       316  PMPE      C216           -9.5464265959      -45.8012549269       -2.4502607858  MEMB      316             0.0000000000
     39285       316  PMPE      H16R           -9.7215151680      -45.1005528533       -3.2940567524  MEMB      316             0.0000000000
     39286       316  PMPE      H16S           -9.2671219910      -45.2224332703       -1.5456933538  MEMB      316             0.0000000000
     39287       316  PMPE      H16T           -8.7375607465      -46.5149983276       -2.7445600098  MEMB      316             0.0000000000
     39288       316  PMPE      C33           -12.7148111253      -43.1942380826       -9.7099810553  MEMB      316             0.0000000000
     39289       316  PMPE      H3X           -13.5739806429      -43.8752507212       -9.5080553933  MEMB      316             0.0000000000
     39290       316  PMPE      H3Y           -12.9770655067      -42.1275287765       -9.6532900984  MEMB      316             0.0000000000
     39291       316  PMPE      C34           -11.7451215770      -43.4141041124       -8.5893283610  MEMB      316             0.0000000000
     39292       316  PMPE      H4X           -10.7715871674      -42.8870589432       -8.7524598523  MEMB      316             0.0000000000
     39293       316  PMPE      H4Y           -11.6457272350      -44.5127541570       -8.6315716066  MEMB      316             0.0000000000
     39294       316  PMPE      C35           -12.1772246831      -43.1515726534       -7.1841173035  MEMB      316             0.0000000000
     39295       316  PMPE      H5X           -13.1786715744      -43.5524678378       -7.0566159846  MEMB      316             0.0000000000
     39296       316  PMPE      H5Y           -12.2557106235      -42.1214839866       -7.1833183032  MEMB      316             0.0000000000
     39297       316  PMPE      C36           -11.1367315005      -43.4005426271       -6.0993914910  MEMB      316             0.0000000000
     39298       316  PMPE      H6X           -10.1733211171      -43.0300259753       -6.5373946045  MEMB      316             0.0000000000
     39299       316  PMPE      H6Y           -11.0924597965      -44.4672565519       -5.8570643426  MEMB      316             0.0000000000
     39300       316  PMPE      C37           -11.2346750643      -42.6258876740       -4.7970257641  MEMB      316             0.0000000000
     39301       316  PMPE      H7X           -11.1832592482      -41.6141959031       -5.0854302033  MEMB      316             0.0000000000
     39302       316  PMPE      H7Y           -10.3238345615      -42.8186832674       -4.2183081976  MEMB      316             0.0000000000
     39303       316  PMPE      C38           -12.3204473364      -42.8906867270       -3.8386010955  MEMB      316             0.0000000000
     39304       316  PMPE      H8X           -12.0691881537      -42.2923779326       -2.9021431774  MEMB      316             0.0000000000
     39305       316  PMPE      H8Y           -12.4081714426      -43.9791939974       -3.6803319991  MEMB      316             0.0000000000
     39306       316  PMPE      C39           -13.6091982377      -42.4595658203       -4.2878109976  MEMB      316             0.0000000000
     39307       316  PMPE      H9X           -14.0235422989      -42.4474723179       -5.3042354670  MEMB      316             0.0000000000
     39308       316  PMPE      H9Y           -13.6216688584      -41.5054149636       -4.2027081214  MEMB      316             0.0000000000
     39309       316  PMPE      C310          -14.3327536376      -42.5734198017       -3.0587128979  MEMB      316             0.0000000000
     39310       316  PMPE      H10X          -14.9049858173      -41.5589226543       -3.1887298278  MEMB      316             0.0000000000
     39311       316  PMPE      H10Y          -14.3191737385      -42.0526364593       -2.1356743011  MEMB      316             0.0000000000
     39312       316  PMPE      C311          -14.8014433549      -44.0789462507       -3.0075937399  MEMB      316             0.0000000000
     39313       316  PMPE      H11X          -14.5985384241      -44.5663923457       -2.0915056871  MEMB      316             0.0000000000
     39314       316  PMPE      H11Y          -14.8212072470      -44.6683201071       -3.9217922846  MEMB      316             0.0000000000
     39315       316  PMPE      C312          -16.0509697057      -44.4701083860       -2.8324214206  MEMB      316             0.0000000000
     39316       316  PMPE      H12X          -16.3706691629      -44.0729353168       -4.4527215214  MEMB      316             0.0000000000
     39317       316  PMPE      H12Y          -16.2721187855      -43.8048368670       -1.9595693389  MEMB      316             0.0000000000
     39318       316  PMPE      C313          -17.0989797885      -45.7305420105       -2.2981711335  MEMB      316             0.0000000000
     39319       316  PMPE      H13X          -16.9568902565      -46.4842897667       -3.0935983580  MEMB      316             0.0000000000
     39320       316  PMPE      H13Y          -18.2634830290      -45.5495251692       -2.4775930133  MEMB      316             0.0000000000
     39321       316  PMPE      C314          -16.4472168008      -46.2511539464       -1.3196056995  MEMB      316             0.0000000000
     39322       316  PMPE      H14X          -17.0047301775      -46.8298421061       -0.7260367019  MEMB      316             0.0000000000
     39323       316  PMPE      H14Y          -16.3044578434      -45.5635459436       -0.6858999307  MEMB      316             0.0000000000
     39324       316  PMPE      C315          -15.4985888696      -47.1226694537       -1.5079247903  MEMB      316             0.0000000000
     39325       316  PMPE      H15X          -14.5439409783      -46.6202651634       -1.4509149755  MEMB      316             0.0000000000
     39326       316  PMPE      H15Y          -15.8763284371      -47.9554350962       -2.0943066179  MEMB      316             0.0000000000
     39327       316  PMPE      C316          -15.3745426901      -47.7895577165       -0.4297103255  MEMB      316             0.0000000000
     39328       316  PMPE      H16X          -15.4383884283      -47.0582118214        0.5461272804  MEMB      316             0.0000000000
     39329       316  PMPE      H16Y          -14.4468158693      -48.3294839955       -0.4680514512  MEMB      316             0.0000000000
     39330       316  PMPE      H16Z          -15.9556713920      -48.8133890329       -0.4259394807  MEMB      316             0.0000000000
     39331       317  PMPG      C13            30.1793899402       39.8318737976      -20.6113538875  MEMB      317             0.0000000000
     39332       317  PMPG      H13A           30.7731863778       40.0038160634      -19.6841544280  MEMB      317             0.0000000000
     39333       317  PMPG      H13B           30.8155795582       39.8823396777      -21.5231005215  MEMB      317             0.0000000000
     39334       317  PMPG      OC3            29.1588430026       40.8176658184      -20.6944028597  MEMB      317             0.0000000000
     39335       317  PMPG      HO3            29.5689381740       41.6428876486      -20.9431118062  MEMB      317             0.0000000000
     39336       317  PMPG      C12            29.5613314244       38.4268478856      -20.5383293307  MEMB      317             0.0000000000
     39337       317  PMPG      H12A           30.3363531413       37.7402444364      -20.1388239106  MEMB      317             0.0000000000
     39338       317  PMPG      OC2            29.2246040272       37.9734562046      -21.8439625451  MEMB      317             0.0000000000
     39339       317  PMPG      HO2            28.6982587727       37.1851421636      -21.7097686433  MEMB      317             0.0000000000
     39340       317  PMPG      C11            28.3377408301       38.3613076462      -19.6011232033  MEMB      317             0.0000000000
     39341       317  PMPG      H11A           28.0002132168       37.3167282970      -19.5185119207  MEMB      317             0.0000000000
     39342       317  PMPG      H11B           27.4961936106       38.9337792988      -20.0751282092  MEMB      317             0.0000000000
     39343       317  PMPG      P              27.6534531450       39.5092924335      -17.3513674949  MEMB      317             0.0000000000
     39344       317  PMPG      O13            26.3446030389       38.8546501209      -17.6166167390  MEMB      317             0.0000000000
     39345       317  PMPG      O14            27.7595008504       40.9604387414      -17.5842131081  MEMB      317             0.0000000000
     39346       317  PMPG      O11            28.1406781795       39.1325028391      -15.8941393147  MEMB      317             0.0000000000
     39347       317  PMPG      O12            28.7120309856       38.7929768022      -18.2805676941  MEMB      317             0.0000000000
     39348       317  PMPG      C1             29.5071893862       39.0711036102      -15.5011425581  MEMB      317             0.0000000000
     39349       317  PMPG      HA             30.0451679353       39.9241336372      -15.9628586113  MEMB      317             0.0000000000
     39350       317  PMPG      HB             30.0035705503       38.1134483140      -15.8184666925  MEMB      317             0.0000000000
     39351       317  PMPG      C2             29.5692563252       39.2254874141      -13.9531041722  MEMB      317             0.0000000000
     39352       317  PMPG      HS             30.5627150127       38.9258614196      -13.5504091949  MEMB      317             0.0000000000
     39353       317  PMPG      O21            28.5277192316       38.5682510658      -13.2144026080  MEMB      317             0.0000000000
     39354       317  PMPG      C21            28.1702495574       37.3916516267      -13.5737577804  MEMB      317             0.0000000000
     39355       317  PMPG      O22            28.6936349834       36.6931432157      -14.4308721138  MEMB      317             0.0000000000
     39356       317  PMPG      C22            27.0456557631       36.9676252837      -12.6529765725  MEMB      317             0.0000000000
     39357       317  PMPG      H2R            26.0753310576       37.0497260505      -13.1631666351  MEMB      317             0.0000000000
     39358       317  PMPG      H2S            27.0127386437       37.4217647025      -11.6596909521  MEMB      317             0.0000000000
     39359       317  PMPG      C3             29.4443861221       40.7142384377      -13.6039178988  MEMB      317             0.0000000000
     39360       317  PMPG      HX             28.5000659579       41.1312853513      -14.0190866206  MEMB      317             0.0000000000
     39361       317  PMPG      HY             30.2529449585       41.2590710837      -14.1221778584  MEMB      317             0.0000000000
     39362       317  PMPG      O31            29.6431184405       40.9168214161      -12.1960594353  MEMB      317             0.0000000000
     39363       317  PMPG      C31            28.5953532372       40.8148771410      -11.3944562823  MEMB      317             0.0000000000
     39364       317  PMPG      O32            27.4418521446       40.6184533405      -11.7215740181  MEMB      317             0.0000000000
     39365       317  PMPG      C32            29.0835377012       41.0190636558       -9.9498051159  MEMB      317             0.0000000000
     39366       317  PMPG      H2X            29.4728576991       42.0568724084       -9.8790020677  MEMB      317             0.0000000000
     39367       317  PMPG      H2Y            29.9490616629       40.3339611658       -9.7888294317  MEMB      317             0.0000000000
     39368       317  PMPG      C23            27.3225518993       35.6236700769      -12.3377522908  MEMB      317             0.0000000000
     39369       317  PMPG      H3R            27.8220799914       35.1762353879      -13.2144972295  MEMB      317             0.0000000000
     39370       317  PMPG      H3S            26.2422800397       35.2290116055      -12.3409619185  MEMB      317             0.0000000000
     39371       317  PMPG      C24            28.1439593599       35.4655220219      -11.0486211128  MEMB      317             0.0000000000
     39372       317  PMPG      H4R            28.2354056750       34.5851219830      -10.4478843062  MEMB      317             0.0000000000
     39373       317  PMPG      H4S            27.6759695818       35.6946751150      -10.1565271443  MEMB      317             0.0000000000
     39374       317  PMPG      C25            29.4401024557       35.3462904004      -11.2177151364  MEMB      317             0.0000000000
     39375       317  PMPG      H5R            29.7805567144       36.3535617587      -11.3818815236  MEMB      317             0.0000000000
     39376       317  PMPG      H5S            29.2724040856       34.6664426932      -12.0881935399  MEMB      317             0.0000000000
     39377       317  PMPG      C26            30.1637209725       34.7126807129      -10.1925488141  MEMB      317             0.0000000000
     39378       317  PMPG      H6R            31.1253956018       35.1870494954      -10.6773945506  MEMB      317             0.0000000000
     39379       317  PMPG      H6S            30.2455560254       33.5609428350      -10.2413260803  MEMB      317             0.0000000000
     39380       317  PMPG      C27            29.8302224098       35.1476971669       -8.6739873468  MEMB      317             0.0000000000
     39381       317  PMPG      H7R            30.2131655362       34.4032226062       -7.8763515625  MEMB      317             0.0000000000
     39382       317  PMPG      H7S            28.8158539492       35.0395513036       -8.3418553028  MEMB      317             0.0000000000
     39383       317  PMPG      C28            30.4664252312       36.5423101203       -8.4107674837  MEMB      317             0.0000000000
     39384       317  PMPG      H8R            29.7037886470       37.0120372385       -7.7937172183  MEMB      317             0.0000000000
     39385       317  PMPG      H8S            30.7257707547       37.0241633594       -9.3605895207  MEMB      317             0.0000000000
     39386       317  PMPG      C29            31.6395085294       36.6076167036       -7.4890029498  MEMB      317             0.0000000000
     39387       317  PMPG      H9R            31.6019147988       35.6316207080       -7.0859913582  MEMB      317             0.0000000000
     39388       317  PMPG      C217           33.0070331532       37.3005784393       -7.9728814185  MEMB      317             0.0000000000
     39389       317  PMPG      H17R           33.9243201162       36.7327042722       -7.7543778439  MEMB      317             0.0000000000
     39390       317  PMPG      H17S           32.8225312820       37.6718872767       -8.9592674492  MEMB      317             0.0000000000
     39391       317  PMPG      C210           32.2308973458       37.7356982746       -6.7809898953  MEMB      317             0.0000000000
     39392       317  PMPG      H10R           32.6913227222       37.4510232356       -5.8200184112  MEMB      317             0.0000000000
     39393       317  PMPG      C211           31.4605789931       38.9796409700       -7.0408052876  MEMB      317             0.0000000000
     39394       317  PMPG      H11R           31.3592154919       39.1231174999       -8.1473119313  MEMB      317             0.0000000000
     39395       317  PMPG      H11S           30.4392648566       38.9150674629       -6.6088680121  MEMB      317             0.0000000000
     39396       317  PMPG      C212           32.2130027354       40.1822053133       -6.4863871031  MEMB      317             0.0000000000
     39397       317  PMPG      H12R           31.7047575798       41.0431195786       -6.9863000090  MEMB      317             0.0000000000
     39398       317  PMPG      H12S           33.2789713110       40.1450275589       -6.8079145278  MEMB      317             0.0000000000
     39399       317  PMPG      C213           32.0603296492       40.3585593785       -4.9579246421  MEMB      317             0.0000000000
     39400       317  PMPG      H13R           31.1785715933       39.7728371571       -4.6252860564  MEMB      317             0.0000000000
     39401       317  PMPG      H13S           31.8252578299       41.4192429104       -4.7222528347  MEMB      317             0.0000000000
     39402       317  PMPG      C214           33.2514450020       39.9867012430       -4.0614659731  MEMB      317             0.0000000000
     39403       317  PMPG      H14R           34.2073545117       40.2969846531       -4.5610296700  MEMB      317             0.0000000000
     39404       317  PMPG      H14S           33.3217945780       38.8934543989       -3.9360906860  MEMB      317             0.0000000000
     39405       317  PMPG      C215           33.0741563039       40.5166182066       -2.6128061779  MEMB      317             0.0000000000
     39406       317  PMPG      H15R           33.0783691950       41.6435463922       -2.6165943626  MEMB      317             0.0000000000
     39407       317  PMPG      H15S           34.0176724168       40.2382165874       -2.0624662387  MEMB      317             0.0000000000
     39408       317  PMPG      C216           32.0514495174       39.8506425212       -1.7245149809  MEMB      317             0.0000000000
     39409       317  PMPG      H16R           31.8822774396       40.4800927553       -0.8355712419  MEMB      317             0.0000000000
     39410       317  PMPG      H16S           32.4846031363       38.8856100122       -1.3778807581  MEMB      317             0.0000000000
     39411       317  PMPG      H16T           31.0630147225       39.6683357975       -2.1688795982  MEMB      317             0.0000000000
     39412       317  PMPG      C33            27.9401533259       40.8475838531       -8.9078380984  MEMB      317             0.0000000000
     39413       317  PMPG      H3X            26.9876004592       41.3605661331       -9.1808311847  MEMB      317             0.0000000000
     39414       317  PMPG      H3Y            28.2310363203       41.2662156789       -7.9180033539  MEMB      317             0.0000000000
     39415       317  PMPG      C34            27.5881290408       39.4013832551       -8.6522015839  MEMB      317             0.0000000000
     39416       317  PMPG      H4X            28.4930664342       38.7933941351       -8.5006237363  MEMB      317             0.0000000000
     39417       317  PMPG      H4Y            27.0864550151       38.9652973826       -9.5461819134  MEMB      317             0.0000000000
     39418       317  PMPG      C35            26.6639001427       39.2847062305       -7.4739226063  MEMB      317             0.0000000000
     39419       317  PMPG      H5X            26.2336076054       38.3208662720       -7.7627908340  MEMB      317             0.0000000000
     39420       317  PMPG      H5Y            25.9005327932       40.0889698046       -7.4003050137  MEMB      317             0.0000000000
     39421       317  PMPG      C36            27.2684121985       39.0825074208       -6.1286663915  MEMB      317             0.0000000000
     39422       317  PMPG      H6X            26.4847706669       39.1193585981       -5.3463561802  MEMB      317             0.0000000000
     39423       317  PMPG      H6Y            28.0753712298       39.7620816014       -5.8885570839  MEMB      317             0.0000000000
     39424       317  PMPG      C37            27.7154905890       37.7497698222       -5.9129851913  MEMB      317             0.0000000000
     39425       317  PMPG      H7X            28.7938497044       37.5695522469       -5.6636137712  MEMB      317             0.0000000000
     39426       317  PMPG      H7Y            27.5416948859       37.1141026912       -6.8333939799  MEMB      317             0.0000000000
     39427       317  PMPG      C38            26.9638161509       37.3258276247       -4.6242094069  MEMB      317             0.0000000000
     39428       317  PMPG      H8X            26.8150011978       36.3702095116       -4.7592007805  MEMB      317             0.0000000000
     39429       317  PMPG      H8Y            25.8623060519       37.2463126728       -4.5539286218  MEMB      317             0.0000000000
     39430       317  PMPG      C39            27.8258501555       37.2725984342       -3.3589404554  MEMB      317             0.0000000000
     39431       317  PMPG      H9X            28.8481667490       36.9548987535       -3.6110991337  MEMB      317             0.0000000000
     39432       317  PMPG      H9Y            27.6543331816       36.5400073294       -2.5726107971  MEMB      317             0.0000000000
     39433       317  PMPG      C310           27.6860017144       38.5987242144       -2.7738238516  MEMB      317             0.0000000000
     39434       317  PMPG      H10X           27.8290431138       39.2502616681       -3.6546266636  MEMB      317             0.0000000000
     39435       317  PMPG      H10Y           28.5749114562       38.6428923318       -2.1282291093  MEMB      317             0.0000000000
     39436       317  PMPG      C311           26.4249265230       38.8765475697       -1.9678219085  MEMB      317             0.0000000000
     39437       317  PMPG      H11X           26.1257785316       38.0217558288       -1.3300623680  MEMB      317             0.0000000000
     39438       317  PMPG      H11Y           25.5357261527       39.2075688701       -2.5945150364  MEMB      317             0.0000000000
     39439       317  PMPG      C312           26.7646933429       40.0054154418       -1.0463619240  MEMB      317             0.0000000000
     39440       317  PMPG      H12X           26.0764196530       39.9534902339       -0.0671523068  MEMB      317             0.0000000000
     39441       317  PMPG      H12Y           26.6762784528       40.8743706466       -1.8322615853  MEMB      317             0.0000000000
     39442       317  PMPG      C313           27.9292636763       40.2440512486       -0.2928864723  MEMB      317             0.0000000000
     39443       317  PMPG      H13X           28.7064796081       40.3992904927       -1.0338668701  MEMB      317             0.0000000000
     39444       317  PMPG      H13Y           27.9741303345       39.3078578659        0.2904606693  MEMB      317             0.0000000000
     39445       317  PMPG      C314           27.7731108575       41.4517183393        0.5783150032  MEMB      317             0.0000000000
     39446       317  PMPG      H14X           27.0518862232       41.1000763750        1.3126697092  MEMB      317             0.0000000000
     39447       317  PMPG      H14Y           27.2549248937       42.3514154505        0.1634284023  MEMB      317             0.0000000000
     39448       317  PMPG      C315           29.1914697409       41.7125963440        1.0073432534  MEMB      317             0.0000000000
     39449       317  PMPG      H15X           29.7303251344       41.0654312281        1.7026514046  MEMB      317             0.0000000000
     39450       317  PMPG      H15Y           29.1467862411       42.1014206617        1.9027143044  MEMB      317             0.0000000000
     39451       317  PMPG      C316           29.9927700375       42.6905860236        0.1769532689  MEMB      317             0.0000000000
     39452       317  PMPG      H16X           30.8572628156       43.0631891776        0.7659746780  MEMB      317             0.0000000000
     39453       317  PMPG      H16Y           29.3786457337       43.6013595592       -0.0360044339  MEMB      317             0.0000000000
     39454       317  PMPG      H16Z           30.3163577209       42.1060015656       -0.7065975438  MEMB      317             0.0000000000
     39455       318  PYPG      C13           -24.0758626173       41.0016295270      -19.0572675573  MEMB      318             0.0000000000
     39456       318  PYPG      H13A          -24.2441269360       39.9210218036      -18.7878790599  MEMB      318             0.0000000000
     39457       318  PYPG      H13B          -23.7809531912       41.5293768671      -18.1381287562  MEMB      318             0.0000000000
     39458       318  PYPG      OC3           -25.1258510555       41.7147866307      -19.6037850371  MEMB      318             0.0000000000
     39459       318  PYPG      HO3           -25.8336808638       41.0953323841      -19.7979607374  MEMB      318             0.0000000000
     39460       318  PYPG      C12           -23.4399121728       41.4500827618      -20.2747809539  MEMB      318             0.0000000000
     39461       318  PYPG      H12A          -24.0841526944       41.3353783432      -21.2231826597  MEMB      318             0.0000000000
     39462       318  PYPG      OC2           -22.3887839212       40.5734722709      -20.4618310496  MEMB      318             0.0000000000
     39463       318  PYPG      HO2           -21.8733965733       41.0486603916      -21.1053005017  MEMB      318             0.0000000000
     39464       318  PYPG      C11           -23.0616460251       42.9624901674      -20.0532629662  MEMB      318             0.0000000000
     39465       318  PYPG      H11A          -24.0344407511       43.5273680106      -19.9720073679  MEMB      318             0.0000000000
     39466       318  PYPG      H11B          -22.4934382639       43.4095675316      -20.8654481125  MEMB      318             0.0000000000
     39467       318  PYPG      P             -21.8303114682       44.4446712402      -18.2579844202  MEMB      318             0.0000000000
     39468       318  PYPG      O13           -21.2218316159       45.3633975087      -19.2425164921  MEMB      318             0.0000000000
     39469       318  PYPG      O14           -21.0781491975       44.2012484053      -17.0262387307  MEMB      318             0.0000000000
     39470       318  PYPG      O11           -23.1913684170       45.1305251882      -17.9223293858  MEMB      318             0.0000000000
     39471       318  PYPG      O12           -22.2978093404       43.0835234521      -18.8692771148  MEMB      318             0.0000000000
     39472       318  PYPG      C1            -24.1573912999       44.3606981175      -17.3515174591  MEMB      318             0.0000000000
     39473       318  PYPG      HA            -24.1005179985       43.2146889755      -17.2328201499  MEMB      318             0.0000000000
     39474       318  PYPG      HB            -24.8915977366       44.4077351189      -18.1599940190  MEMB      318             0.0000000000
     39475       318  PYPG      C2            -24.3664697046       45.0107292252      -16.0305448185  MEMB      318             0.0000000000
     39476       318  PYPG      HS            -24.8306964535       46.0972037069      -16.0753338196  MEMB      318             0.0000000000
     39477       318  PYPG      O21           -23.2487897737       44.9140375749      -15.1812032829  MEMB      318             0.0000000000
     39478       318  PYPG      C21           -23.1739435499       45.6291795947      -14.1091252948  MEMB      318             0.0000000000
     39479       318  PYPG      O22           -23.8683779167       46.5904414198      -13.8091151040  MEMB      318             0.0000000000
     39480       318  PYPG      C22           -21.9981462661       45.0730399465      -13.3889929166  MEMB      318             0.0000000000
     39481       318  PYPG      H2R           -21.2454640131       44.8723170207      -14.1882364977  MEMB      318             0.0000000000
     39482       318  PYPG      H2S           -22.2070293091       44.1151689022      -12.8761621878  MEMB      318             0.0000000000
     39483       318  PYPG      C3            -25.3134395371       44.0199697035      -15.7415199532  MEMB      318             0.0000000000
     39484       318  PYPG      HX            -26.5706797929       43.6520788534      -16.1068545946  MEMB      318             0.0000000000
     39485       318  PYPG      HY            -25.2220249060       44.9130765027      -14.7738418849  MEMB      318             0.0000000000
     39486       318  PYPG      O31           -25.1464910314       43.0214545100      -14.8298306950  MEMB      318             0.0000000000
     39487       318  PYPG      C31           -25.9261054526       41.9680483674      -15.0721336882  MEMB      318             0.0000000000
     39488       318  PYPG      O32           -26.9594719896       41.8651014054      -15.6160091983  MEMB      318             0.0000000000
     39489       318  PYPG      C32           -25.3293976062       40.7791128947      -14.7797023723  MEMB      318             0.0000000000
     39490       318  PYPG      H2X           -25.7964361085       40.4969267780      -13.8547590979  MEMB      318             0.0000000000
     39491       318  PYPG      H2Y           -25.5237324675       40.0531763688      -15.5973534069  MEMB      318             0.0000000000
     39492       318  PYPG      C23           -21.4802929440       46.1682976922      -12.4787156218  MEMB      318             0.0000000000
     39493       318  PYPG      H3R           -22.2694619999       46.4469951414      -11.7362166781  MEMB      318             0.0000000000
     39494       318  PYPG      H3S           -21.2610216099       47.0349048292      -13.1456023640  MEMB      318             0.0000000000
     39495       318  PYPG      C24           -20.1827007673       45.7676746800      -11.8344281005  MEMB      318             0.0000000000
     39496       318  PYPG      H4R           -19.5347435339       45.1347958780      -12.5029334996  MEMB      318             0.0000000000
     39497       318  PYPG      H4S           -20.4844344018       45.3116399481      -10.9336738516  MEMB      318             0.0000000000
     39498       318  PYPG      C25           -19.4145410451       46.8754045567      -11.1651309368  MEMB      318             0.0000000000
     39499       318  PYPG      H5R           -19.5338774362       47.6651300664      -11.9205476453  MEMB      318             0.0000000000
     39500       318  PYPG      H5S           -18.3627612195       46.5342531173      -11.0500327226  MEMB      318             0.0000000000
     39501       318  PYPG      C26           -19.9879870455       47.5015451564       -9.8638660271  MEMB      318             0.0000000000
     39502       318  PYPG      H6R           -21.0782602351       47.5021479308       -9.8680763306  MEMB      318             0.0000000000
     39503       318  PYPG      H6S           -19.6039641877       48.4911208260       -9.6683023272  MEMB      318             0.0000000000
     39504       318  PYPG      C27           -19.7049160969       46.8798866495       -8.5715007092  MEMB      318             0.0000000000
     39505       318  PYPG      H7R           -18.6028164773       46.6623334851       -8.7301080286  MEMB      318             0.0000000000
     39506       318  PYPG      H7S           -20.4993162062       46.0800501441       -8.6484842615  MEMB      318             0.0000000000
     39507       318  PYPG      C28           -19.6585187523       47.4241250681       -7.1971323946  MEMB      318             0.0000000000
     39508       318  PYPG      H8R           -18.7197069500       48.0094824742       -7.1843534045  MEMB      318             0.0000000000
     39509       318  PYPG      H8S           -19.5169918159       46.6369495822       -6.4129687528  MEMB      318             0.0000000000
     39510       318  PYPG      C29           -20.8846497956       48.2038587313       -7.0110768628  MEMB      318             0.0000000000
     39511       318  PYPG      H9R           -20.6667558394       49.2626591743       -7.0676547915  MEMB      318             0.0000000000
     39512       318  PYPG      C210          -22.1181575905       47.7425017383       -6.7697178209  MEMB      318             0.0000000000
     39513       318  PYPG      H10R          -22.9510887544       48.4555214218       -6.6747382973  MEMB      318             0.0000000000
     39514       318  PYPG      C211          -22.4979675166       46.2981225420       -6.6371339484  MEMB      318             0.0000000000
     39515       318  PYPG      H11R          -21.6215333791       45.6143925143       -6.6892921795  MEMB      318             0.0000000000
     39516       318  PYPG      H11S          -23.1729391772       46.0461134333       -7.4885487942  MEMB      318             0.0000000000
     39517       318  PYPG      C212          -23.2225784023       46.0271287028       -5.3255440666  MEMB      318             0.0000000000
     39518       318  PYPG      H12R          -23.6474141121       44.9947196064       -5.4328307962  MEMB      318             0.0000000000
     39519       318  PYPG      H12S          -24.0338920993       46.7679963656       -5.1660555610  MEMB      318             0.0000000000
     39520       318  PYPG      C213          -22.4163527107       46.1184640359       -4.0429429811  MEMB      318             0.0000000000
     39521       318  PYPG      H13R          -22.4179271762       47.1132734705       -3.5671499622  MEMB      318             0.0000000000
     39522       318  PYPG      H13S          -21.3844938569       45.7359532396       -4.1582096523  MEMB      318             0.0000000000
     39523       318  PYPG      C214          -22.9312406339       45.1849420295       -3.0868223567  MEMB      318             0.0000000000
     39524       318  PYPG      H14R          -23.4150509901       44.3104755629       -3.5934403458  MEMB      318             0.0000000000
     39525       318  PYPG      H14S          -22.1236710625       45.0214897004       -2.2921754428  MEMB      318             0.0000000000
     39526       318  PYPG      C215          -24.0411624983       45.5003447893       -2.3697794374  MEMB      318             0.0000000000
     39527       318  PYPG      H15R          -23.3628215315       46.2277088654       -1.8586257282  MEMB      318             0.0000000000
     39528       318  PYPG      H15S          -24.2653841502       45.1570275722       -1.3830670998  MEMB      318             0.0000000000
     39529       318  PYPG      C216          -25.2400900391       45.5286375372       -3.2465017811  MEMB      318             0.0000000000
     39530       318  PYPG      H16R          -26.0465478240       46.1310873256       -2.6843327405  MEMB      318             0.0000000000
     39531       318  PYPG      H16S          -25.7531912301       44.5654363939       -3.0597049206  MEMB      318             0.0000000000
     39532       318  PYPG      H16T          -25.3839591439       46.4167512290       -3.8047770293  MEMB      318             0.0000000000
     39533       318  PYPG      C33           -23.9258836785       41.0761669988      -14.5008060673  MEMB      318             0.0000000000
     39534       318  PYPG      H3X           -23.5340710631       41.8916892801      -15.1581119563  MEMB      318             0.0000000000
     39535       318  PYPG      H3Y           -23.3951561238       40.1914286687      -14.8469620269  MEMB      318             0.0000000000
     39536       318  PYPG      C34           -23.7528750367       41.2736596119      -13.0188218930  MEMB      318             0.0000000000
     39537       318  PYPG      H4X           -24.2555038581       40.5032986897      -12.3678990075  MEMB      318             0.0000000000
     39538       318  PYPG      H4Y           -24.0453394232       42.2667807297      -12.5896357482  MEMB      318             0.0000000000
     39539       318  PYPG      C35           -22.3694343812       41.0211451187      -12.8004107473  MEMB      318             0.0000000000
     39540       318  PYPG      H5X           -21.7269729658       41.7837200429      -13.2966568599  MEMB      318             0.0000000000
     39541       318  PYPG      H5Y           -21.9741515890       40.0075189131      -13.0426456262  MEMB      318             0.0000000000
     39542       318  PYPG      C36           -22.4342223610       40.9725232002      -11.4108309878  MEMB      318             0.0000000000
     39543       318  PYPG      H6X           -22.5938789212       40.2920313934      -10.6104994946  MEMB      318             0.0000000000
     39544       318  PYPG      H6Y           -22.6595639370       42.0720013323      -10.9260675208  MEMB      318             0.0000000000
     39545       318  PYPG      C37           -20.8611359579       40.4643111125      -11.4973772475  MEMB      318             0.0000000000
     39546       318  PYPG      H7X           -20.1553877414       39.8694510040      -11.1485946653  MEMB      318             0.0000000000
     39547       318  PYPG      H7Y           -20.3405847690       41.7459999849      -12.5772965233  MEMB      318             0.0000000000
     39548       318  PYPG      C38           -19.9254088123       40.6564111264       -9.2630246318  MEMB      318             0.0000000000
     39549       318  PYPG      H8X           -18.9974194266       40.4810359030       -9.0942256399  MEMB      318             0.0000000000
     39550       318  PYPG      H8Y           -20.4999873374       40.1564588430       -8.6963600542  MEMB      318             0.0000000000
     39551       318  PYPG      C39           -20.2334257221       42.2384250212       -8.0222233438  MEMB      318             0.0000000000
     39552       318  PYPG      H9X           -20.7732034107       43.2144248624       -8.3371775234  MEMB      318             0.0000000000
     39553       318  PYPG      H9Y           -19.2607559363       42.8836402155       -7.6072694421  MEMB      318             0.0000000000
     39554       318  PYPG      C310          -20.8164818029       42.4234978471       -6.8468907866  MEMB      318             0.0000000000
     39555       318  PYPG      H10X          -21.4859498171       41.7435138115       -7.3157516577  MEMB      318             0.0000000000
     39556       318  PYPG      H10Y          -20.8720898741       43.5349285203       -6.6913077895  MEMB      318             0.0000000000
     39557       318  PYPG      C311          -19.9478590449       42.0248634278       -5.8896702801  MEMB      318             0.0000000000
     39558       318  PYPG      H11X          -19.0540053310       42.5154480241       -5.8759082469  MEMB      318             0.0000000000
     39559       318  PYPG      H11Y          -19.7602532355       41.1338447096       -6.1841299033  MEMB      318             0.0000000000
     39560       318  PYPG      C312          -20.0949186962       41.5843447122       -4.6227469465  MEMB      318             0.0000000000
     39561       318  PYPG      H12X          -21.1528892468       41.4300892142       -4.7274534572  MEMB      318             0.0000000000
     39562       318  PYPG      H12Y          -19.5269745350       40.6290046590       -4.4631058242  MEMB      318             0.0000000000
     39563       318  PYPG      C313          -19.4449042553       42.6973081174       -3.8810032493  MEMB      318             0.0000000000
     39564       318  PYPG      H13X          -18.3799309975       42.4767196286       -3.7397730662  MEMB      318             0.0000000000
     39565       318  PYPG      H13Y          -19.5009539265       43.6940672273       -4.3980014274  MEMB      318             0.0000000000
     39566       318  PYPG      C314          -20.0167239020       42.7255245708       -2.5469718124  MEMB      318             0.0000000000
     39567       318  PYPG      H14X          -20.9695026288       43.1743276531       -2.7066148389  MEMB      318             0.0000000000
     39568       318  PYPG      H14Y          -20.1469821508       41.7100839150       -2.1329507022  MEMB      318             0.0000000000
     39569       318  PYPG      C315          -19.2201573960       43.5141218491       -1.5445348297  MEMB      318             0.0000000000
     39570       318  PYPG      H15X          -19.7141812382       43.5392413228       -0.5765016359  MEMB      318             0.0000000000
     39571       318  PYPG      H15Y          -18.2696314257       42.9791751842       -1.3666328866  MEMB      318             0.0000000000
     39572       318  PYPG      C316          -18.9253745785       44.9364985593       -1.9065663800  MEMB      318             0.0000000000
     39573       318  PYPG      H16X          -18.0776492787       44.8359181088       -2.5687637497  MEMB      318             0.0000000000
     39574       318  PYPG      H16Y          -18.5819111467       45.5082337871       -1.0245420177  MEMB      318             0.0000000000
     39575       318  PYPG      H16Z          -19.7558298961       45.4496244476       -2.4281350931  MEMB      318             0.0000000000
     39576       319  PVCL2     C3             34.0281596339      -32.3375799737      -17.9382180354  MEMB      319             0.0000000000
     39577       319  PVCL2     HG31           34.0500396560      -31.2340779708      -17.8592421236  MEMB      319             0.0000000000
     39578       319  PVCL2     HG32           33.2704357828      -32.6545561662      -17.1905890423  MEMB      319             0.0000000000
     39579       319  PVCL2     P3             35.5492458606      -34.2963375135      -17.0800278147  MEMB      319             0.0000000000
     39580       319  PVCL2     OP33           34.6938372676      -35.2535094061      -17.7970514145  MEMB      319             0.0000000000
     39581       319  PVCL2     OP34           35.3492468937      -34.3009858120      -15.6070930497  MEMB      319             0.0000000000
     39582       319  PVCL2     OP31           35.3364707122      -32.8242566028      -17.6201068367  MEMB      319             0.0000000000
     39583       319  PVCL2     OP32           37.0645887528      -34.5763495961      -17.3933216544  MEMB      319             0.0000000000
     39584       319  PVCL2     C31            37.9939048356      -33.7639698094      -18.1013034467  MEMB      319             0.0000000000
     39585       319  PVCL2     H31J           37.9155652005      -34.0489259593      -19.1624731502  MEMB      319             0.0000000000
     39586       319  PVCL2     H31K           37.8194117933      -32.6580173413      -18.0964249510  MEMB      319             0.0000000000
     39587       319  PVCL2     C2             33.5049817913      -32.7769922984      -19.3419972854  MEMB      319             0.0000000000
     39588       319  PVCL2     HG22           33.1444646744      -33.8148088993      -19.2719001620  MEMB      319             0.0000000000
     39589       319  PVCL2     OG12           32.3724698073      -31.9978199771      -19.7254250792  MEMB      319             0.0000000000
     39590       319  PVCL2     HO12           32.5120944064      -31.8500854294      -20.6674606402  MEMB      319             0.0000000000
     39591       319  PVCL2     C1             34.5235568602      -32.7478854067      -20.4949006806  MEMB      319             0.0000000000
     39592       319  PVCL2     HG11           35.0247371178      -31.7779543229      -20.3826647697  MEMB      319             0.0000000000
     39593       319  PVCL2     HG12           33.9828588473      -32.6768505557      -21.4617732425  MEMB      319             0.0000000000
     39594       319  PVCL2     P1             35.0745130104      -35.2657055504      -21.0432308107  MEMB      319             0.0000000000
     39595       319  PVCL2     OP13           34.8599693173      -35.0698646978      -22.5065913091  MEMB      319             0.0000000000
     39596       319  PVCL2     OP14           36.0911484791      -36.2705363850      -20.6471916581  MEMB      319             0.0000000000
     39597       319  PVCL2     OP11           35.4554569419      -33.8384571234      -20.4780839109  MEMB      319             0.0000000000
     39598       319  PVCL2     OP12           33.6709711468      -35.6771792244      -20.4129431901  MEMB      319             0.0000000000
     39599       319  PVCL2     C11            32.4356601107      -35.9281002934      -21.0682023543  MEMB      319             0.0000000000
     39600       319  PVCL2     H11J           32.5826504219      -36.5714718825      -21.9630608291  MEMB      319             0.0000000000
     39601       319  PVCL2     H11K           31.9767572431      -34.9574152884      -21.3457527762  MEMB      319             0.0000000000
     39602       319  PVCL2     C12            31.3746990520      -36.5878958105      -20.1231773418  MEMB      319             0.0000000000
     39603       319  PVCL2     H12J           30.3706260152      -36.5222723249      -20.6163246245  MEMB      319             0.0000000000
     39604       319  PVCL2     O12            31.4253773976      -35.8709367023      -18.8648151469  MEMB      319             0.0000000000
     39605       319  PVCL2     CA1            30.3002881100      -35.8270124563      -18.2123329602  MEMB      319             0.0000000000
     39606       319  PVCL2     OA1            29.2752654580      -36.4077480120      -18.5070586394  MEMB      319             0.0000000000
     39607       319  PVCL2     CA2            30.4052950643      -34.8685482724      -17.0511838475  MEMB      319             0.0000000000
     39608       319  PVCL2     H2A            29.5368317507      -34.1789733850      -17.1070615403  MEMB      319             0.0000000000
     39609       319  PVCL2     H2B            31.2951846854      -34.2221955494      -17.1773637875  MEMB      319             0.0000000000
     39610       319  PVCL2     C13            31.6921501787      -38.0921786674      -19.9406776174  MEMB      319             0.0000000000
     39611       319  PVCL2     H13J           31.7129275139      -38.5764071265      -20.9453586085  MEMB      319             0.0000000000
     39612       319  PVCL2     H13K           30.9138703640      -38.5908967384      -19.3118857541  MEMB      319             0.0000000000
     39613       319  PVCL2     O13            33.0187542563      -38.1866577893      -19.4308753995  MEMB      319             0.0000000000
     39614       319  PVCL2     CB1            33.2959969712      -39.0153795976      -18.4738021626  MEMB      319             0.0000000000
     39615       319  PVCL2     OB1            32.5271850745      -39.7219488923      -17.8571961434  MEMB      319             0.0000000000
     39616       319  PVCL2     CB2            34.7562087359      -38.9466264007      -18.1809658753  MEMB      319             0.0000000000
     39617       319  PVCL2     H2D            35.2643299786      -38.1388811158      -18.7620895967  MEMB      319             0.0000000000
     39618       319  PVCL2     H2E            35.1958944624      -39.9271505212      -18.3637013487  MEMB      319             0.0000000000
     39619       319  PVCL2     C32            39.4237569915      -34.0192883113      -17.5453619245  MEMB      319             0.0000000000
     39620       319  PVCL2     H32J           40.1433988345      -33.7670394586      -18.3533785156  MEMB      319             0.0000000000
     39621       319  PVCL2     O32            39.5374433128      -35.3951577571      -17.1442860019  MEMB      319             0.0000000000
     39622       319  PVCL2     CC1            40.7551610204      -35.8323623169      -17.0332813850  MEMB      319             0.0000000000
     39623       319  PVCL2     OC1            41.7480819172      -35.4572563497      -17.6283504457  MEMB      319             0.0000000000
     39624       319  PVCL2     CC2            40.7610520960      -36.9050155170      -15.9488257305  MEMB      319             0.0000000000
     39625       319  PVCL2     H2R            40.1750028933      -37.7587340086      -16.3270731137  MEMB      319             0.0000000000
     39626       319  PVCL2     H2S            40.1958891299      -36.5511985229      -15.0721674131  MEMB      319             0.0000000000
     39627       319  PVCL2     C33            39.6924523675      -33.0993421474      -16.3076329098  MEMB      319             0.0000000000
     39628       319  PVCL2     H33J           40.7651490632      -32.9307577708      -16.0811615909  MEMB      319             0.0000000000
     39629       319  PVCL2     H33K           39.3215172835      -32.1135649211      -16.6808459132  MEMB      319             0.0000000000
     39630       319  PVCL2     O33            38.9532281964      -33.5563764279      -15.1410964092  MEMB      319             0.0000000000
     39631       319  PVCL2     CD1            39.6142663139      -34.0406340679      -14.0846042353  MEMB      319             0.0000000000
     39632       319  PVCL2     OD1            40.8180250730      -33.9901172394      -13.8932357009  MEMB      319             0.0000000000
     39633       319  PVCL2     CD2            38.6010888495      -34.7636414802      -13.1757392690  MEMB      319             0.0000000000
     39634       319  PVCL2     H2X            39.0983419233      -35.5127401160      -12.5295153618  MEMB      319             0.0000000000
     39635       319  PVCL2     H2Y            37.8936817476      -35.2916948738      -13.8463167268  MEMB      319             0.0000000000
     39636       319  PVCL2     CA3            30.4121545467      -35.7708238150      -15.7991334159  MEMB      319             0.0000000000
     39637       319  PVCL2     H3A            29.5482952048      -36.4926712197      -15.8418485820  MEMB      319             0.0000000000
     39638       319  PVCL2     H3B            30.3294303291      -35.0931980166      -14.9330988857  MEMB      319             0.0000000000
     39639       319  PVCL2     CA4            31.7014703528      -36.5860852908      -15.6132205481  MEMB      319             0.0000000000
     39640       319  PVCL2     H4A            32.5880571755      -35.9091458428      -15.6817582905  MEMB      319             0.0000000000
     39641       319  PVCL2     H4B            31.7375614680      -37.2807051792      -16.4807495097  MEMB      319             0.0000000000
     39642       319  PVCL2     CA5            31.6701300611      -37.4798014731      -14.3572576249  MEMB      319             0.0000000000
     39643       319  PVCL2     H5A            32.4435140593      -38.2791496002      -14.4280724639  MEMB      319             0.0000000000
     39644       319  PVCL2     H5B            30.6936388740      -37.9996350146      -14.3343697021  MEMB      319             0.0000000000
     39645       319  PVCL2     CA6            31.7715704010      -36.6928398844      -13.0546128440  MEMB      319             0.0000000000
     39646       319  PVCL2     H6A            30.9142895582      -35.9947445807      -12.9743691719  MEMB      319             0.0000000000
     39647       319  PVCL2     H6B            32.7257102525      -36.1200291790      -13.0840388768  MEMB      319             0.0000000000
     39648       319  PVCL2     CA7            31.6547341098      -37.5283096299      -11.8074465663  MEMB      319             0.0000000000
     39649       319  PVCL2     H7A            30.8197490238      -38.2702407079      -11.8539606635  MEMB      319             0.0000000000
     39650       319  PVCL2     H7B            31.4051312066      -36.8984338166      -10.9371367727  MEMB      319             0.0000000000
     39651       319  PVCL2     CA8            32.9406309494      -38.1330235604      -11.4338795477  MEMB      319             0.0000000000
     39652       319  PVCL2     H8A            33.8572215238      -37.5414106467      -11.2271883002  MEMB      319             0.0000000000
     39653       319  PVCL2     H8B            33.3004323430      -38.6773786362      -12.3470976844  MEMB      319             0.0000000000
     39654       319  PVCL2     CA9            32.5463234297      -38.9090970388      -10.2034839985  MEMB      319             0.0000000000
     39655       319  PVCL2     H9A            31.9431218648      -39.8466282726      -10.4958187793  MEMB      319             0.0000000000
     39656       319  PVCL2     H9B            32.0569633985      -38.5356869833       -9.3212113696  MEMB      319             0.0000000000
     39657       319  PVCL2     CA10           33.7680348691      -39.1863508484       -9.6498235539  MEMB      319             0.0000000000
     39658       319  PVCL2     H10A           34.7813799811      -39.4931511118      -10.1128731066  MEMB      319             0.0000000000
     39659       319  PVCL2     H10B           33.0930648659      -40.2529214114       -9.3343260745  MEMB      319             0.0000000000
     39660       319  PVCL2     CA11           34.5769919996      -38.2684297777       -8.7968410941  MEMB      319             0.0000000000
     39661       319  PVCL2     H11A           35.7091956939      -38.3747202657       -8.9563999121  MEMB      319             0.0000000000
     39662       319  PVCL2     CA12           34.1315453978      -37.8984683133       -7.6088911207  MEMB      319             0.0000000000
     39663       319  PVCL2     H12A           34.9082042166      -37.4822032085       -6.9644232738  MEMB      319             0.0000000000
     39664       319  PVCL2     CA13           32.8613966348      -38.2815736358       -6.9408356549  MEMB      319             0.0000000000
     39665       319  PVCL2     H13A           32.4578729196      -39.2730095447       -7.2529485854  MEMB      319             0.0000000000
     39666       319  PVCL2     H13B           32.2533192076      -37.4591423374       -7.3099992127  MEMB      319             0.0000000000
     39667       319  PVCL2     CA14           32.7599315282      -38.2380274588       -5.4227717270  MEMB      319             0.0000000000
     39668       319  PVCL2     H14A           33.4794749775      -38.9586242864       -4.9886117414  MEMB      319             0.0000000000
     39669       319  PVCL2     H14B           31.7008624083      -38.4901104008       -5.1734544958  MEMB      319             0.0000000000
     39670       319  PVCL2     CA15           33.0314276661      -36.8570550109       -4.8739333378  MEMB      319             0.0000000000
     39671       319  PVCL2     H15A           32.2669305021      -36.1888919685       -5.3067855092  MEMB      319             0.0000000000
     39672       319  PVCL2     H15B           34.0182723115      -36.5655389422       -5.2815684037  MEMB      319             0.0000000000
     39673       319  PVCL2     CA16           33.0348117361      -36.7297012280       -3.3508869226  MEMB      319             0.0000000000
     39674       319  PVCL2     H16A           32.1311070232      -37.1754861574       -2.8878922527  MEMB      319             0.0000000000
     39675       319  PVCL2     H16B           33.0515947351      -35.6733287263       -3.0093377772  MEMB      319             0.0000000000
     39676       319  PVCL2     CA17           34.2607526846      -37.3843530672       -2.7629938977  MEMB      319             0.0000000000
     39677       319  PVCL2     H17A           35.0802791098      -37.3776704995       -3.5034283005  MEMB      319             0.0000000000
     39678       319  PVCL2     H17B           33.9905694247      -38.4486502437       -2.6238521408  MEMB      319             0.0000000000
     39679       319  PVCL2     CA18           34.6694436384      -36.7243619001       -1.4591595491  MEMB      319             0.0000000000
     39680       319  PVCL2     H18A           33.7570271226      -36.5388447896       -0.8640281295  MEMB      319             0.0000000000
     39681       319  PVCL2     H18B           35.2189351688      -35.7619459977       -1.5860154106  MEMB      319             0.0000000000
     39682       319  PVCL2     H18C           35.2626000788      -37.4391563885       -0.8880476725  MEMB      319             0.0000000000
     39683       319  PVCL2     CB3            34.8777812624      -38.6417992531      -16.7062275552  MEMB      319             0.0000000000
     39684       319  PVCL2     H3D            34.4535106280      -39.4378325438      -16.0844937143  MEMB      319             0.0000000000
     39685       319  PVCL2     H3E            34.2947104835      -37.7171014419      -16.5172294750  MEMB      319             0.0000000000
     39686       319  PVCL2     CB4            36.3417232363      -38.4462247031      -16.3821611623  MEMB      319             0.0000000000
     39687       319  PVCL2     H4D            36.7530857812      -37.8478721688      -17.2287651459  MEMB      319             0.0000000000
     39688       319  PVCL2     H4E            36.8070557069      -39.4513108874      -16.4414484371  MEMB      319             0.0000000000
     39689       319  PVCL2     CB5            36.5060063377      -37.7229130443      -15.0404104033  MEMB      319             0.0000000000
     39690       319  PVCL2     H5D            35.7337167045      -36.9191047731      -15.0380759327  MEMB      319             0.0000000000
     39691       319  PVCL2     H5E            37.4715786860      -37.1974357009      -14.9617918043  MEMB      319             0.0000000000
     39692       319  PVCL2     CB6            36.2483056691      -38.6109054978      -13.8180550386  MEMB      319             0.0000000000
     39693       319  PVCL2     H6D            35.4083930550      -39.2673000300      -14.1330467597  MEMB      319             0.0000000000
     39694       319  PVCL2     H6E            35.8778883872      -38.0078463438      -12.9660389824  MEMB      319             0.0000000000
     39695       319  PVCL2     CB7            37.4751096675      -39.4424564844      -13.3692993043  MEMB      319             0.0000000000
     39696       319  PVCL2     H7D            38.3970005145      -38.8736902534      -13.5066385231  MEMB      319             0.0000000000
     39697       319  PVCL2     H7E            37.5732917521      -40.2640977362      -14.1183694397  MEMB      319             0.0000000000
     39698       319  PVCL2     CB8            37.4076198745      -40.0981301041      -11.9618458396  MEMB      319             0.0000000000
     39699       319  PVCL2     H8D            37.5350901973      -41.1886576058      -12.0370159281  MEMB      319             0.0000000000
     39700       319  PVCL2     H8E            36.4368223767      -40.0564168387      -11.5179730917  MEMB      319             0.0000000000
     39701       319  PVCL2     CB9            38.2924585311      -39.5726333496      -10.8743162190  MEMB      319             0.0000000000
     39702       319  PVCL2     H9D            38.1245528112      -38.4878872808      -10.7815906638  MEMB      319             0.0000000000
     39703       319  PVCL2     H9E            39.3645604720      -39.6955410878      -11.0324153067  MEMB      319             0.0000000000
     39704       319  PVCL2     CB10           38.0989336555      -40.2791678775       -9.5973339303  MEMB      319             0.0000000000
     39705       319  PVCL2     H10D           38.2883347986      -41.3584280754       -9.5743303655  MEMB      319             0.0000000000
     39706       319  PVCL2     H10E           37.0892930442      -40.3024515150       -9.3470274452  MEMB      319             0.0000000000
     39707       319  PVCL2     CB11           38.9211126018      -39.5122233033       -8.5943437059  MEMB      319             0.0000000000
     39708       319  PVCL2     H11D           38.5600344456      -38.4438637358       -8.4311453295  MEMB      319             0.0000000000
     39709       319  PVCL2     H11E           39.9808323330      -39.6354570608       -8.7095654671  MEMB      319             0.0000000000
     39710       319  PVCL2     CB12           38.9614086217      -40.1711190681       -7.3603445879  MEMB      319             0.0000000000
     39711       319  PVCL2     H12D           37.7909735352      -40.0691854393       -7.6799505969  MEMB      319             0.0000000000
     39712       319  PVCL2     H12E           39.3366140531      -39.5563370922       -6.4489499971  MEMB      319             0.0000000000
     39713       319  PVCL2     CB13           39.0265681214      -41.5698632125       -6.8877842712  MEMB      319             0.0000000000
     39714       319  PVCL2     H13D           39.9881730397      -41.7707170185       -7.3199422594  MEMB      319             0.0000000000
     39715       319  PVCL2     H13E           38.2145820602      -42.1159100408       -7.3705688305  MEMB      319             0.0000000000
     39716       319  PVCL2     CB14           38.9037077045      -41.7478015922       -5.3153359328  MEMB      319             0.0000000000
     39717       319  PVCL2     H14D           39.5686240549      -41.1071685355       -4.7820800621  MEMB      319             0.0000000000
     39718       319  PVCL2     H14E           39.5245909122      -42.6254512042       -5.2941044746  MEMB      319             0.0000000000
     39719       319  PVCL2     CB15           37.4145822081      -42.0581667891       -4.6062004752  MEMB      319             0.0000000000
     39720       319  PVCL2     H15D           36.6409181368      -42.7548136977       -4.9352490556  MEMB      319             0.0000000000
     39721       319  PVCL2     H15E           36.7792996482      -41.5324386517       -4.9484066302  MEMB      319             0.0000000000
     39722       319  PVCL2     CB16           37.0609694855      -42.1532392959       -3.1686178164  MEMB      319             0.0000000000
     39723       319  PVCL2     H16D           37.0494134920      -42.9875175645       -2.7774845149  MEMB      319             0.0000000000
     39724       319  PVCL2     H16E           36.1937983879      -41.9503052533       -2.6279921056  MEMB      319             0.0000000000
     39725       319  PVCL2     H16F           38.0214243293      -41.6616315119       -2.9548695705  MEMB      319             0.0000000000
     39726       319  PVCL2     CC3            42.1906848322      -37.3334822900      -15.5585030848  MEMB      319             0.0000000000
     39727       319  PVCL2     H3R            42.7858755454      -36.4965122401      -15.1311504183  MEMB      319             0.0000000000
     39728       319  PVCL2     H3S            42.7412836301      -37.6151488200      -16.4920984642  MEMB      319             0.0000000000
     39729       319  PVCL2     CC4            42.1954688080      -38.5583661958      -14.6199308899  MEMB      319             0.0000000000
     39730       319  PVCL2     H4R            43.2543339516      -38.7442907361      -14.3536079405  MEMB      319             0.0000000000
     39731       319  PVCL2     H4S            41.7844837247      -39.4168608670      -15.1999643188  MEMB      319             0.0000000000
     39732       319  PVCL2     CC5            41.4168886997      -38.5699059417      -13.2887256528  MEMB      319             0.0000000000
     39733       319  PVCL2     H5R            41.4797477508      -39.6133918323      -12.8990137915  MEMB      319             0.0000000000
     39734       319  PVCL2     H5S            40.3372371765      -38.3822082794      -13.4554814465  MEMB      319             0.0000000000
     39735       319  PVCL2     CC6            42.0131372418      -37.6591429893      -12.2109106446  MEMB      319             0.0000000000
     39736       319  PVCL2     H6R            42.2722426887      -36.6972392225      -12.6902193540  MEMB      319             0.0000000000
     39737       319  PVCL2     H6S            42.9412885905      -38.0894446810      -11.7682181058  MEMB      319             0.0000000000
     39738       319  PVCL2     CC7            41.0165138387      -37.3968067026      -11.0993641101  MEMB      319             0.0000000000
     39739       319  PVCL2     H7R            40.7738581447      -38.4045312555      -10.6930052074  MEMB      319             0.0000000000
     39740       319  PVCL2     H7S            40.1303615077      -36.9134037163      -11.5526824560  MEMB      319             0.0000000000
     39741       319  PVCL2     CC8            41.4733760620      -36.4467430049       -9.9861076749  MEMB      319             0.0000000000
     39742       319  PVCL2     H8R            42.3893728741      -36.8780383620       -9.5626086506  MEMB      319             0.0000000000
     39743       319  PVCL2     H8S            40.6920906160      -36.5322626966       -9.2184341803  MEMB      319             0.0000000000
     39744       319  PVCL2     CC9            41.6416692546      -34.9726400968      -10.4359294183  MEMB      319             0.0000000000
     39745       319  PVCL2     H9R            40.8344323433      -34.7890041978      -11.1513360647  MEMB      319             0.0000000000
     39746       319  PVCL2     H9S            42.5325345358      -34.8313660626      -11.0722585657  MEMB      319             0.0000000000
     39747       319  PVCL2     CC10           41.4574400517      -33.8096389433       -9.4598678006  MEMB      319             0.0000000000
     39748       319  PVCL2     H10R           40.4962332503      -33.7940067035       -8.9657883217  MEMB      319             0.0000000000
     39749       319  PVCL2     H10S           41.6418200502      -32.8794582307      -10.0089678351  MEMB      319             0.0000000000
     39750       319  PVCL2     CC11           42.2650135061      -33.7084246988       -8.3304894388  MEMB      319             0.0000000000
     39751       319  PVCL2     H11R           43.3083226609      -33.5213043906       -8.5443041163  MEMB      319             0.0000000000
     39752       319  PVCL2     CC12           41.9805900794      -33.9975501363       -7.0916557062  MEMB      319             0.0000000000
     39753       319  PVCL2     H12R           42.7343325735      -34.3050284134       -6.5345928091  MEMB      319             0.0000000000
     39754       319  PVCL2     CC13           40.9732776205      -34.4717594046       -6.2584409242  MEMB      319             0.0000000000
     39755       319  PVCL2     H13R           40.4868377157      -35.1606086343       -6.9192673642  MEMB      319             0.0000000000
     39756       319  PVCL2     H13S           40.4880755764      -33.5108505345       -6.1723723497  MEMB      319             0.0000000000
     39757       319  PVCL2     CC14           41.2980130076      -35.1406563209       -4.9079422704  MEMB      319             0.0000000000
     39758       319  PVCL2     H14R           41.8545089134      -34.4938336702       -4.1982939237  MEMB      319             0.0000000000
     39759       319  PVCL2     H14S           41.8424178279      -36.1058847102       -5.0209973021  MEMB      319             0.0000000000
     39760       319  PVCL2     CC15           40.0428179789      -35.5958927747       -4.2286918671  MEMB      319             0.0000000000
     39761       319  PVCL2     H15R           39.4239888092      -36.0706755155       -5.0213514502  MEMB      319             0.0000000000
     39762       319  PVCL2     H15S           39.4279911938      -34.7558625181       -3.8368499796  MEMB      319             0.0000000000
     39763       319  PVCL2     CC16           40.4453580312      -36.5781129631       -3.1423324595  MEMB      319             0.0000000000
     39764       319  PVCL2     H16R           41.2055065725      -36.2546901844       -2.4355243396  MEMB      319             0.0000000000
     39765       319  PVCL2     H16S           40.8619896705      -37.5469560925       -3.5419585014  MEMB      319             0.0000000000
     39766       319  PVCL2     CC17           39.3115106370      -36.7851135334       -2.2970371114  MEMB      319             0.0000000000
     39767       319  PVCL2     H17R           38.5384687098      -36.1058690225       -1.9036563525  MEMB      319             0.0000000000
     39768       319  PVCL2     H17S           39.5072171648      -37.5899027163       -1.6271310249  MEMB      319             0.0000000000
     39769       319  PVCL2     CC18           38.6246625635      -37.5223235382       -3.0354962849  MEMB      319             0.0000000000
     39770       319  PVCL2     H18R           37.9299769714      -37.8119270270       -2.0799702284  MEMB      319             0.0000000000
     39771       319  PVCL2     H18S           39.1505294363      -38.3539445672       -3.6119086871  MEMB      319             0.0000000000
     39772       319  PVCL2     H18T           37.9563373949      -37.2599581993       -3.8148856340  MEMB      319             0.0000000000
     39773       319  PVCL2     CD3            37.7600209915      -33.8199105034      -12.2957898787  MEMB      319             0.0000000000
     39774       319  PVCL2     H3X            37.3895633618      -32.9584495496      -12.9001141150  MEMB      319             0.0000000000
     39775       319  PVCL2     H3Y            38.4577436137      -33.4393794230      -11.5229408101  MEMB      319             0.0000000000
     39776       319  PVCL2     CD4            36.5417860665      -34.5639780720      -11.7238657504  MEMB      319             0.0000000000
     39777       319  PVCL2     H4X            36.1021092748      -35.1367412390      -12.5802133308  MEMB      319             0.0000000000
     39778       319  PVCL2     H4Y            35.7547386405      -33.8501394809      -11.3879832152  MEMB      319             0.0000000000
     39779       319  PVCL2     CD5            36.8981979907      -35.4966698390      -10.5462450593  MEMB      319             0.0000000000
     39780       319  PVCL2     H5X            37.9273058573      -35.8928458598      -10.6501596355  MEMB      319             0.0000000000
     39781       319  PVCL2     H5Y            36.2050052284      -36.3604447127      -10.6066091375  MEMB      319             0.0000000000
     39782       319  PVCL2     CD6            36.7475234850      -34.7849326635       -9.1975273181  MEMB      319             0.0000000000
     39783       319  PVCL2     H6X            35.6578873936      -34.6332079300       -9.0225057592  MEMB      319             0.0000000000
     39784       319  PVCL2     H6Y            37.3094065673      -33.8227652281       -9.2556114059  MEMB      319             0.0000000000
     39785       319  PVCL2     CD7            37.3510668066      -35.4624260986       -7.9739971279  MEMB      319             0.0000000000
     39786       319  PVCL2     H7X            38.4045644052      -35.7048378165       -8.2074720874  MEMB      319             0.0000000000
     39787       319  PVCL2     H7Y            36.8366318675      -36.4147789140       -7.7689062689  MEMB      319             0.0000000000
     39788       319  PVCL2     CD8            37.3874903132      -34.5093123005       -6.7785236187  MEMB      319             0.0000000000
     39789       319  PVCL2     H8X            37.8134550796      -33.5462730763       -7.1483561999  MEMB      319             0.0000000000
     39790       319  PVCL2     H8Y            38.0605092611      -34.9820712213       -6.0285147227  MEMB      319             0.0000000000
     39791       319  PVCL2     CD9            36.0046277731      -34.1772100453       -6.2334925043  MEMB      319             0.0000000000
     39792       319  PVCL2     H9X            35.5227534127      -35.1323435952       -5.9320904566  MEMB      319             0.0000000000
     39793       319  PVCL2     H9Y            35.4001150448      -33.6924426545       -7.0306909821  MEMB      319             0.0000000000
     39794       319  PVCL2     CD10           36.0573237882      -33.2495370494       -5.0221588190  MEMB      319             0.0000000000
     39795       319  PVCL2     H10X           36.8845547003      -33.6274004205       -4.3794671081  MEMB      319             0.0000000000
     39796       319  PVCL2     H10Y           35.0898641485      -33.3303361062       -4.4801456838  MEMB      319             0.0000000000
     39797       319  PVCL2     CD11           36.2314478918      -31.7560739653       -5.3428362311  MEMB      319             0.0000000000
     39798       319  PVCL2     H11X           35.4506338744      -31.4254327279       -6.0784622671  MEMB      319             0.0000000000
     39799       319  PVCL2     H11Y           37.2334455149      -31.5569747711       -5.7726055488  MEMB      319             0.0000000000
     39800       319  PVCL2     CD12           36.2866938885      -30.8520576944       -4.0942640224  MEMB      319             0.0000000000
     39801       319  PVCL2     H12X           35.3567187400      -30.9137371551       -3.4976379924  MEMB      319             0.0000000000
     39802       319  PVCL2     H12Y           36.4288621412      -29.8085776583       -4.4634987994  MEMB      319             0.0000000000
     39803       319  PVCL2     CD13           37.5246731827      -31.0721728379       -3.2043058969  MEMB      319             0.0000000000
     39804       319  PVCL2     H13X           38.3794497825      -30.6514089069       -3.7735200525  MEMB      319             0.0000000000
     39805       319  PVCL2     H13Y           37.7605313483      -32.1465849064       -3.0603278003  MEMB      319             0.0000000000
     39806       319  PVCL2     CD14           37.3971522715      -30.5473999573       -1.7741794842  MEMB      319             0.0000000000
     39807       319  PVCL2     H14X           36.5828037568      -31.1421842106       -1.2952102219  MEMB      319             0.0000000000
     39808       319  PVCL2     H14Y           37.2148283139      -29.4536791737       -1.6306735007  MEMB      319             0.0000000000
     39809       319  PVCL2     CD15           38.6281872857      -30.8423363539       -0.9852498798  MEMB      319             0.0000000000
     39810       319  PVCL2     H15X           39.5326683646      -30.4299297144       -1.5014666172  MEMB      319             0.0000000000
     39811       319  PVCL2     H15Y           38.7542093286      -31.9193502310       -0.8349252568  MEMB      319             0.0000000000
     39812       319  PVCL2     CD16           38.4171206221      -30.2261347835        0.3135859462  MEMB      319             0.0000000000
     39813       319  PVCL2     H16X           39.4412275551      -30.0876496555        0.6068463176  MEMB      319             0.0000000000
     39814       319  PVCL2     H16Y           37.8315872308      -30.6899161997        1.1320618981  MEMB      319             0.0000000000
     39815       319  PVCL2     H16Z           38.0024152758      -29.2221562136        0.1825634581  MEMB      319             0.0000000000
     39816       320  QMPE      N              50.6752341552        2.3530200054      -16.4670965341  MEMB      320             0.0000000000
     39817       320  QMPE      HN1            50.5246229749        1.3323989651      -16.3446202426  MEMB      320             0.0000000000
     39818       320  QMPE      HN2            51.2142366069        2.6950547196      -15.6451259807  MEMB      320             0.0000000000
     39819       320  QMPE      HN3            49.7601097130        2.8387008063      -16.4115618714  MEMB      320             0.0000000000
     39820       320  QMPE      C12            51.3992945829        2.6458899335      -17.7772929202  MEMB      320             0.0000000000
     39821       320  QMPE      H12A           52.3613633743        2.0801862632      -17.7765616364  MEMB      320             0.0000000000
     39822       320  QMPE      H12B           51.6459383363        3.7166966105      -17.8023244984  MEMB      320             0.0000000000
     39823       320  QMPE      C11            50.5234499882        2.4276551600      -19.0168633125  MEMB      320             0.0000000000
     39824       320  QMPE      H11A           50.9606221521        2.8898022642      -19.9183398451  MEMB      320             0.0000000000
     39825       320  QMPE      H11B           49.5443410226        2.9595539577      -18.9862467995  MEMB      320             0.0000000000
     39826       320  QMPE      P              49.0305440046        0.5140443421      -19.8479821722  MEMB      320             0.0000000000
     39827       320  QMPE      O13            49.0672012641       -0.9671425776      -19.9520004035  MEMB      320             0.0000000000
     39828       320  QMPE      O14            48.7041481723        1.3566260226      -21.0312249351  MEMB      320             0.0000000000
     39829       320  QMPE      O11            48.0090417653        0.9257818146      -18.6823337988  MEMB      320             0.0000000000
     39830       320  QMPE      O12            50.4122573162        1.0337052842      -19.2327183514  MEMB      320             0.0000000000
     39831       320  QMPE      C1             47.9996571030        0.1666489972      -17.4688314194  MEMB      320             0.0000000000
     39832       320  QMPE      HA             48.9620072879        0.3279568815      -16.9448951711  MEMB      320             0.0000000000
     39833       320  QMPE      HB             48.0257134934       -0.9279339817      -17.6914013307  MEMB      320             0.0000000000
     39834       320  QMPE      C2             46.6993812152        0.4835119916      -16.6098463097  MEMB      320             0.0000000000
     39835       320  QMPE      HS             45.8803946517       -0.1388893833      -17.0291494095  MEMB      320             0.0000000000
     39836       320  QMPE      O21            46.3880739324        1.9049494185      -16.6236086027  MEMB      320             0.0000000000
     39837       320  QMPE      C21            45.1763871666        2.3481297109      -16.2354042267  MEMB      320             0.0000000000
     39838       320  QMPE      O22            44.2229154332        1.6558853375      -15.9737529171  MEMB      320             0.0000000000
     39839       320  QMPE      C22            45.1190392000        3.8701297308      -16.2363702661  MEMB      320             0.0000000000
     39840       320  QMPE      H2R            45.0583689996        4.2354716586      -17.2810985655  MEMB      320             0.0000000000
     39841       320  QMPE      H2S            46.0253416738        4.2712078161      -15.7601449169  MEMB      320             0.0000000000
     39842       320  QMPE      C3             46.7639410688        0.0219181088      -15.1408782517  MEMB      320             0.0000000000
     39843       320  QMPE      HX             46.9996833214       -1.0627480737      -15.2113033040  MEMB      320             0.0000000000
     39844       320  QMPE      HY             45.7658701516        0.1822170205      -14.6614095462  MEMB      320             0.0000000000
     39845       320  QMPE      O31            47.7833762274        0.7241380738      -14.4111739226  MEMB      320             0.0000000000
     39846       320  QMPE      C31            48.1490158414        0.0512240400      -13.3307572120  MEMB      320             0.0000000000
     39847       320  QMPE      O32            47.7520236067       -1.0437798740      -13.0120297345  MEMB      320             0.0000000000
     39848       320  QMPE      C32            49.2117368455        0.7923143791      -12.5495538669  MEMB      320             0.0000000000
     39849       320  QMPE      H2X            50.1718762024        0.3353202107      -12.8439472031  MEMB      320             0.0000000000
     39850       320  QMPE      H2Y            49.2314235421        1.8611812574      -12.7665742721  MEMB      320             0.0000000000
     39851       320  QMPE      C23            43.8822002029        4.4113090495      -15.4651211355  MEMB      320             0.0000000000
     39852       320  QMPE      H3R            42.9656934798        4.0219341792      -15.9385220316  MEMB      320             0.0000000000
     39853       320  QMPE      H3S            43.8005766206        5.5062830739      -15.6432267536  MEMB      320             0.0000000000
     39854       320  QMPE      C24            43.8400930920        4.1034696920      -13.9458600729  MEMB      320             0.0000000000
     39855       320  QMPE      H4R            43.6480669527        3.0361690940      -13.7295989221  MEMB      320             0.0000000000
     39856       320  QMPE      H4S            42.9539809486        4.5755630664      -13.4753774956  MEMB      320             0.0000000000
     39857       320  QMPE      C25            45.1583374257        4.3237593257      -13.2112730774  MEMB      320             0.0000000000
     39858       320  QMPE      H5R            45.6777827323        5.1631303887      -13.6660049137  MEMB      320             0.0000000000
     39859       320  QMPE      H5S            45.8203021495        3.4607138134      -13.4236883587  MEMB      320             0.0000000000
     39860       320  QMPE      C26            45.0031361781        4.4741895858      -11.6918820815  MEMB      320             0.0000000000
     39861       320  QMPE      H6R            44.2640050855        3.7393008703      -11.3287741232  MEMB      320             0.0000000000
     39862       320  QMPE      H6S            44.5765040793        5.4691988677      -11.4297128153  MEMB      320             0.0000000000
     39863       320  QMPE      C27            46.3012432743        4.1664430311      -10.9465549134  MEMB      320             0.0000000000
     39864       320  QMPE      H7R            47.1441398182        4.7280477374      -11.3994526913  MEMB      320             0.0000000000
     39865       320  QMPE      H7S            46.5564596030        3.0948297547      -10.9889256311  MEMB      320             0.0000000000
     39866       320  QMPE      C28            46.1818803839        4.3228588292       -9.4627674852  MEMB      320             0.0000000000
     39867       320  QMPE      H8R            47.0063752270        3.7864252375       -8.9472527657  MEMB      320             0.0000000000
     39868       320  QMPE      H8S            45.2573533197        4.0097709510       -9.0798469118  MEMB      320             0.0000000000
     39869       320  QMPE      C29            46.2235694972        5.6341802486       -9.1525527455  MEMB      320             0.0000000000
     39870       320  QMPE      H9R            45.7868436725        6.4966079180       -9.3813928085  MEMB      320             0.0000000000
     39871       320  QMPE      C217           47.4230914106        5.7541832635       -9.4395449439  MEMB      320             0.0000000000
     39872       320  QMPE      H17R           48.2817100934        5.1168265378       -9.4314249256  MEMB      320             0.0000000000
     39873       320  QMPE      H17S           47.9817925258        6.5307375599       -9.5927928211  MEMB      320             0.0000000000
     39874       320  QMPE      C210           46.4100282235        5.9684383539       -7.9041399742  MEMB      320             0.0000000000
     39875       320  QMPE      H10R           46.3261267475        7.0321304729       -7.4660654511  MEMB      320             0.0000000000
     39876       320  QMPE      C211           46.7826324828        4.8683082908       -6.7632539746  MEMB      320             0.0000000000
     39877       320  QMPE      H11R           47.4029459732        4.1112907251       -7.1735454631  MEMB      320             0.0000000000
     39878       320  QMPE      H11S           47.5776196671        5.1514363527       -6.0323019399  MEMB      320             0.0000000000
     39879       320  QMPE      C212           45.9600016155        4.9566623095       -5.7150780544  MEMB      320             0.0000000000
     39880       320  QMPE      H12R           45.2917948961        4.8552238187       -6.5611539352  MEMB      320             0.0000000000
     39881       320  QMPE      H12S           45.9775901474        5.9852691246       -5.2819719055  MEMB      320             0.0000000000
     39882       320  QMPE      C213           45.9926815916        3.8747022867       -4.7509342768  MEMB      320             0.0000000000
     39883       320  QMPE      H13R           46.6431260740        4.2720101713       -3.9626785086  MEMB      320             0.0000000000
     39884       320  QMPE      H13S           46.4171534299        3.0112982969       -5.2451193183  MEMB      320             0.0000000000
     39885       320  QMPE      C214           44.6044008795        3.4824591890       -4.3538380582  MEMB      320             0.0000000000
     39886       320  QMPE      H14R           44.0363615539        2.9889289922       -5.1709976626  MEMB      320             0.0000000000
     39887       320  QMPE      H14S           44.3232108606        4.4994277580       -4.2823875727  MEMB      320             0.0000000000
     39888       320  QMPE      C215           44.3145150941        2.7999039083       -3.0381108796  MEMB      320             0.0000000000
     39889       320  QMPE      H15R           45.0148070998        2.1006380441       -3.2330338191  MEMB      320             0.0000000000
     39890       320  QMPE      H15S           43.3270307148        2.3410701770       -2.8801714422  MEMB      320             0.0000000000
     39891       320  QMPE      C216           44.8177290453        3.3094233282       -1.7651023982  MEMB      320             0.0000000000
     39892       320  QMPE      H16R           43.9061369198        3.8891668137       -1.5216262898  MEMB      320             0.0000000000
     39893       320  QMPE      H16S           45.7556393936        3.8849479902       -1.9842287916  MEMB      320             0.0000000000
     39894       320  QMPE      H16T           44.9506669720        2.7459413226       -0.8549764006  MEMB      320             0.0000000000
     39895       320  QMPE      C33            48.9798420832        0.5100802574      -11.0562371753  MEMB      320             0.0000000000
     39896       320  QMPE      H3X            48.9171942722       -0.5829761554      -11.0004291352  MEMB      320             0.0000000000
     39897       320  QMPE      H3Y            48.0173551479        0.8988190644      -10.7100375986  MEMB      320             0.0000000000
     39898       320  QMPE      C34            50.0301256985        0.8986089245      -10.0412963888  MEMB      320             0.0000000000
     39899       320  QMPE      H4X            50.7130859491        1.5274670371      -10.4196278030  MEMB      320             0.0000000000
     39900       320  QMPE      H4Y            50.8886221908        0.3014653999      -10.0001436771  MEMB      320             0.0000000000
     39901       320  QMPE      C35            49.6552135689        1.6076854783       -8.7692950774  MEMB      320             0.0000000000
     39902       320  QMPE      H5X            48.8929102337        2.3445503818       -9.0223166232  MEMB      320             0.0000000000
     39903       320  QMPE      H5Y            50.5730904176        2.0721717401       -8.3616077695  MEMB      320             0.0000000000
     39904       320  QMPE      C36            49.1484716454        0.8129974261       -7.6408392042  MEMB      320             0.0000000000
     39905       320  QMPE      H6X            49.8644504153        0.1167029093       -7.3738558593  MEMB      320             0.0000000000
     39906       320  QMPE      H6Y            48.2393593276        0.2392648062       -7.8197365443  MEMB      320             0.0000000000
     39907       320  QMPE      C37            49.1363688881        1.5278282225       -6.3259902624  MEMB      320             0.0000000000
     39908       320  QMPE      H7X            50.1697936353        1.5534910790       -5.9196815953  MEMB      320             0.0000000000
     39909       320  QMPE      H7Y            48.6223789462        2.4713996397       -6.3587449667  MEMB      320             0.0000000000
     39910       320  QMPE      C38            48.3797275838        0.6472230094       -5.4486775874  MEMB      320             0.0000000000
     39911       320  QMPE      H8X            47.5390739476        0.0678523073       -5.8517144242  MEMB      320             0.0000000000
     39912       320  QMPE      H8Y            49.1702956182       -0.0753238811       -5.6454040815  MEMB      320             0.0000000000
     39913       320  QMPE      C39            48.1663521538        1.1302564107       -3.9993825699  MEMB      320             0.0000000000
     39914       320  QMPE      H9X            47.1799021908        0.8917223772       -3.7557000989  MEMB      320             0.0000000000
     39915       320  QMPE      H9Y            48.1553202503        2.2070135685       -4.0894219926  MEMB      320             0.0000000000
     39916       320  QMPE      C310           49.1420828913        0.7282843913       -2.8652075079  MEMB      320             0.0000000000
     39917       320  QMPE      H10X           50.1331022259        0.8085748738       -3.2779005415  MEMB      320             0.0000000000
     39918       320  QMPE      H10Y           49.3527628658       -0.2739701642       -2.7008091401  MEMB      320             0.0000000000
     39919       320  QMPE      C311           48.7803487423        0.9155066626       -1.3914178707  MEMB      320             0.0000000000
     39920       320  QMPE      H11X           49.4376800854        0.2644402028       -0.7658539124  MEMB      320             0.0000000000
     39921       320  QMPE      H11Y           47.7499252711        0.5721654405       -1.0939738187  MEMB      320             0.0000000000
     39922       320  QMPE      C312           48.7754602519        2.3527839446       -1.1501803290  MEMB      320             0.0000000000
     39923       320  QMPE      H12X           48.5984213833        2.5325946035       -0.1089131257  MEMB      320             0.0000000000
     39924       320  QMPE      H12Y           47.9324478303        2.7560747481       -1.7494907525  MEMB      320             0.0000000000
     39925       320  QMPE      C313           50.0613314880        3.0575570622       -1.3691416649  MEMB      320             0.0000000000
     39926       320  QMPE      H13X           50.9531540237        2.4587137829       -1.4961024879  MEMB      320             0.0000000000
     39927       320  QMPE      H13Y           49.8669674116        3.5581695450       -2.2092435405  MEMB      320             0.0000000000
     39928       320  QMPE      C314           50.3421223200        4.4600472796       -0.8641099138  MEMB      320             0.0000000000
     39929       320  QMPE      H14X           51.1464780039        4.9594249238       -1.4475899310  MEMB      320             0.0000000000
     39930       320  QMPE      H14Y           50.8089426659        4.2396078605        0.0530495191  MEMB      320             0.0000000000
     39931       320  QMPE      C315           49.1560443470        5.3748782005       -0.6541287070  MEMB      320             0.0000000000
     39932       320  QMPE      H15X           49.4110749926        6.2938932981       -0.0969089566  MEMB      320             0.0000000000
     39933       320  QMPE      H15Y           48.7404780660        5.7604462957       -1.5973907299  MEMB      320             0.0000000000
     39934       320  QMPE      H15Z           48.4086196629        4.8046543872       -0.0668243202  MEMB      320             0.0000000000
     39935       321  PMPG      C13           -41.7663494504       26.0401612355      -17.6373726151  MEMB      321             0.0000000000
     39936       321  PMPG      H13A          -42.5066762375       26.6434542753      -17.0854638010  MEMB      321             0.0000000000
     39937       321  PMPG      H13B          -40.8558085633       25.9971974527      -16.9861565061  MEMB      321             0.0000000000
     39938       321  PMPG      OC3           -41.5843244329       26.6984874946      -18.8930888630  MEMB      321             0.0000000000
     39939       321  PMPG      HO3           -41.9902704305       26.0684008291      -19.5177481695  MEMB      321             0.0000000000
     39940       321  PMPG      C12           -42.2850410524       24.5997088517      -17.8686764311  MEMB      321             0.0000000000
     39941       321  PMPG      H12A          -42.5413283121       24.1766464821      -16.8798441372  MEMB      321             0.0000000000
     39942       321  PMPG      OC2           -41.2684068856       23.7964593532      -18.4592859087  MEMB      321             0.0000000000
     39943       321  PMPG      HO2           -41.7564075891       22.9949724192      -18.6991979645  MEMB      321             0.0000000000
     39944       321  PMPG      C11           -43.5581526962       24.4792097251      -18.7333969677  MEMB      321             0.0000000000
     39945       321  PMPG      H11A          -43.3693998872       25.0643078953      -19.6708055217  MEMB      321             0.0000000000
     39946       321  PMPG      H11B          -44.4345685042       24.9166287497      -18.2066037796  MEMB      321             0.0000000000
     39947       321  PMPG      P             -45.1769508177       22.7533059681      -19.7545884665  MEMB      321             0.0000000000
     39948       321  PMPG      O13           -44.9941881272       21.3694225098      -20.2220040554  MEMB      321             0.0000000000
     39949       321  PMPG      O14           -45.3651163149       23.7889240502      -20.7898476514  MEMB      321             0.0000000000
     39950       321  PMPG      O11           -46.2979558203       22.8703417097      -18.6456871878  MEMB      321             0.0000000000
     39951       321  PMPG      O12           -43.8343062391       23.0948612800      -18.9735944522  MEMB      321             0.0000000000
     39952       321  PMPG      C1            -46.3178325422       22.0549406505      -17.4913877424  MEMB      321             0.0000000000
     39953       321  PMPG      HA            -45.3360971431       22.0186750553      -17.0047948550  MEMB      321             0.0000000000
     39954       321  PMPG      HB            -46.7123704142       21.0509024551      -17.7792035477  MEMB      321             0.0000000000
     39955       321  PMPG      C2            -47.1514097032       22.6969295459      -16.4182987569  MEMB      321             0.0000000000
     39956       321  PMPG      HS            -48.0788458147       22.5348607311      -16.8619323963  MEMB      321             0.0000000000
     39957       321  PMPG      O21           -46.6932962949       24.0790489615      -16.3017499778  MEMB      321             0.0000000000
     39958       321  PMPG      C21           -47.7745614266       24.7406367153      -16.5586203192  MEMB      321             0.0000000000
     39959       321  PMPG      O22           -48.8287651250       24.1337983213      -16.2175220594  MEMB      321             0.0000000000
     39960       321  PMPG      C22           -47.3516393578       26.4463012855      -16.4778117177  MEMB      321             0.0000000000
     39961       321  PMPG      H2R           -48.0577063698       27.2715405040      -15.9327646474  MEMB      321             0.0000000000
     39962       321  PMPG      H2S           -47.6778276256       26.6461103317      -17.3815658523  MEMB      321             0.0000000000
     39963       321  PMPG      C3            -47.1033093244       21.9271030085      -15.1025714606  MEMB      321             0.0000000000
     39964       321  PMPG      HX            -47.2344762773       20.8531328266      -15.3566737547  MEMB      321             0.0000000000
     39965       321  PMPG      HY            -47.8884417695       22.2373865246      -14.4530140138  MEMB      321             0.0000000000
     39966       321  PMPG      O31           -45.8806672196       21.9854887728      -14.4525967009  MEMB      321             0.0000000000
     39967       321  PMPG      C31           -45.7900102177       22.5529716712      -13.2617298059  MEMB      321             0.0000000000
     39968       321  PMPG      O32           -46.6356380912       23.1937393938      -12.6734534962  MEMB      321             0.0000000000
     39969       321  PMPG      C32           -44.4113948368       22.2624212849      -12.7181363705  MEMB      321             0.0000000000
     39970       321  PMPG      H2X           -43.8349025509       23.1966700866      -12.8724648121  MEMB      321             0.0000000000
     39971       321  PMPG      H2Y           -43.9515797580       21.4600032719      -13.3333219929  MEMB      321             0.0000000000
     39972       321  PMPG      C23           -45.9371742789       26.7081285448      -15.9373296280  MEMB      321             0.0000000000
     39973       321  PMPG      H3R           -45.7019528558       27.7259380280      -16.2691946713  MEMB      321             0.0000000000
     39974       321  PMPG      H3S           -45.4063655982       25.9304880690      -16.4883614898  MEMB      321             0.0000000000
     39975       321  PMPG      C24           -45.4565884431       26.4826998866      -14.4835731102  MEMB      321             0.0000000000
     39976       321  PMPG      H4R           -44.3752650303       26.5830701591      -14.3652907426  MEMB      321             0.0000000000
     39977       321  PMPG      H4S           -45.7951674269       25.5071837445      -14.0492421138  MEMB      321             0.0000000000
     39978       321  PMPG      C25           -45.8245487984       27.5325770033      -13.5470132958  MEMB      321             0.0000000000
     39979       321  PMPG      H5R           -46.6725439746       26.9696389793      -13.3217160722  MEMB      321             0.0000000000
     39980       321  PMPG      H5S           -46.1162376721       28.5027632454      -13.9998713377  MEMB      321             0.0000000000
     39981       321  PMPG      C26           -45.1028856721       27.6416328242      -12.2138103751  MEMB      321             0.0000000000
     39982       321  PMPG      H6R           -45.6083300302       28.3665114383      -11.5280095471  MEMB      321             0.0000000000
     39983       321  PMPG      H6S           -44.1262641648       27.9928849247      -12.5787973887  MEMB      321             0.0000000000
     39984       321  PMPG      C27           -44.9495321654       26.3898208132      -11.3246779218  MEMB      321             0.0000000000
     39985       321  PMPG      H7R           -44.5273683961       25.5905323586      -11.9644468511  MEMB      321             0.0000000000
     39986       321  PMPG      H7S           -45.9394392425       26.0619254751      -10.9320046091  MEMB      321             0.0000000000
     39987       321  PMPG      C28           -44.0456203088       26.6646666016      -10.0920463295  MEMB      321             0.0000000000
     39988       321  PMPG      H8R           -44.5904811507       27.3350441293       -9.3842083358  MEMB      321             0.0000000000
     39989       321  PMPG      H8S           -43.1185522010       27.1661116247      -10.4381102989  MEMB      321             0.0000000000
     39990       321  PMPG      C29           -43.5380063296       25.4440611410       -9.3206062280  MEMB      321             0.0000000000
     39991       321  PMPG      H9R           -42.8941431228       24.7181059303       -9.8403553242  MEMB      321             0.0000000000
     39992       321  PMPG      C217          -43.3179790806       25.6829735358       -7.8257416326  MEMB      321             0.0000000000
     39993       321  PMPG      H17R          -42.5023086978       25.1372943901       -7.3848414943  MEMB      321             0.0000000000
     39994       321  PMPG      H17S          -43.5870076456       26.6932866228       -7.5451775759  MEMB      321             0.0000000000
     39995       321  PMPG      C210          -44.4344812288       24.7695444144       -8.3307307621  MEMB      321             0.0000000000
     39996       321  PMPG      H10R          -44.2180608935       23.7146009289       -8.0913957984  MEMB      321             0.0000000000
     39997       321  PMPG      C211          -45.7996975538       25.3178418560       -7.9793445023  MEMB      321             0.0000000000
     39998       321  PMPG      H11R          -45.7735388883       26.4269305438       -7.9181660962  MEMB      321             0.0000000000
     39999       321  PMPG      H11S          -46.5340430946       24.9921396702       -8.7558925688  MEMB      321             0.0000000000
     40000       321  PMPG      C212          -46.2229941192       24.7790016904       -6.6032322849  MEMB      321             0.0000000000
     40001       321  PMPG      H12R          -46.1722617456       23.6651210900       -6.6296753651  MEMB      321             0.0000000000
     40002       321  PMPG      H12S          -47.2732536571       25.0787020602       -6.4465616133  MEMB      321             0.0000000000
     40003       321  PMPG      C213          -45.4904955240       25.4175568734       -5.4152035754  MEMB      321             0.0000000000
     40004       321  PMPG      H13R          -45.5766616377       26.5318584007       -5.4610125041  MEMB      321             0.0000000000
     40005       321  PMPG      H13S          -44.4172536527       25.1821850954       -5.5001192602  MEMB      321             0.0000000000
     40006       321  PMPG      C214          -45.9111460035       24.9060604897       -4.0305643839  MEMB      321             0.0000000000
     40007       321  PMPG      H14R          -45.2629629303       25.4856114975       -3.3468632329  MEMB      321             0.0000000000
     40008       321  PMPG      H14S          -45.6401085680       23.8327720225       -3.9181481412  MEMB      321             0.0000000000
     40009       321  PMPG      C215          -47.3866332955       25.0972257839       -3.6873533996  MEMB      321             0.0000000000
     40010       321  PMPG      H15R          -47.9223524781       24.4024567118       -4.3785673978  MEMB      321             0.0000000000
     40011       321  PMPG      H15S          -47.6789141128       26.1359260521       -3.9471767385  MEMB      321             0.0000000000
     40012       321  PMPG      C216          -47.7037977189       24.9376853994       -2.1939571991  MEMB      321             0.0000000000
     40013       321  PMPG      H16R          -47.1781448388       25.7361632072       -1.6222134390  MEMB      321             0.0000000000
     40014       321  PMPG      H16S          -47.3559594790       23.9618322317       -1.7938923123  MEMB      321             0.0000000000
     40015       321  PMPG      H16T          -48.7896899698       25.0756111580       -2.0046904698  MEMB      321             0.0000000000
     40016       321  PMPG      C33           -44.4722107235       21.8291319762      -11.2225163678  MEMB      321             0.0000000000
     40017       321  PMPG      H3X           -45.3650075956       21.1970788631      -11.0518037846  MEMB      321             0.0000000000
     40018       321  PMPG      H3Y           -44.6402320964       22.7148027771      -10.5674152975  MEMB      321             0.0000000000
     40019       321  PMPG      C34           -43.2613605749       20.9742041060      -10.7885025997  MEMB      321             0.0000000000
     40020       321  PMPG      H4X           -42.3862602492       21.2771200390      -11.3530595547  MEMB      321             0.0000000000
     40021       321  PMPG      H4Y           -43.2443204790       19.9865751771      -11.1921626680  MEMB      321             0.0000000000
     40022       321  PMPG      C35           -42.9924860232       20.8834041440       -9.2784258882  MEMB      321             0.0000000000
     40023       321  PMPG      H5X           -42.5314114639       19.8958213047       -8.9862207431  MEMB      321             0.0000000000
     40024       321  PMPG      H5Y           -43.9549834554       20.9959430668       -8.7752647698  MEMB      321             0.0000000000
     40025       321  PMPG      C36           -42.0737826978       21.9835876074       -8.7099768616  MEMB      321             0.0000000000
     40026       321  PMPG      H6X           -42.0764554955       22.8950165343       -9.2775589568  MEMB      321             0.0000000000
     40027       321  PMPG      H6Y           -40.9969735277       22.0696465072       -8.9228124876  MEMB      321             0.0000000000
     40028       321  PMPG      C37           -42.0464630966       22.0086265997       -7.2173544500  MEMB      321             0.0000000000
     40029       321  PMPG      H7X           -41.8762325716       23.0111687096       -7.0074388579  MEMB      321             0.0000000000
     40030       321  PMPG      H7Y           -41.2770610871       21.5681753866       -6.6933098920  MEMB      321             0.0000000000
     40031       321  PMPG      C38           -43.0743454884       21.4680207082       -6.3128178482  MEMB      321             0.0000000000
     40032       321  PMPG      H8X           -43.3162834683       20.4384656548       -6.6392744984  MEMB      321             0.0000000000
     40033       321  PMPG      H8Y           -43.8869183308       22.1815645202       -6.4392903488  MEMB      321             0.0000000000
     40034       321  PMPG      C39           -42.7124254834       21.2677738555       -4.8243281607  MEMB      321             0.0000000000
     40035       321  PMPG      H9X           -42.0799946573       20.3359910623       -4.7926391037  MEMB      321             0.0000000000
     40036       321  PMPG      H9Y           -43.7097846381       21.1113084412       -4.3864443651  MEMB      321             0.0000000000
     40037       321  PMPG      C310          -41.9821295903       22.3020421402       -3.9653688829  MEMB      321             0.0000000000
     40038       321  PMPG      H10X          -41.0585245449       22.3757790531       -4.4796346483  MEMB      321             0.0000000000
     40039       321  PMPG      H10Y          -41.6714080747       21.8336010864       -3.0192490854  MEMB      321             0.0000000000
     40040       321  PMPG      C311          -42.5839482269       23.6373334258       -3.6361644949  MEMB      321             0.0000000000
     40041       321  PMPG      H11X          -43.3864149852       23.4546910014       -2.8884263791  MEMB      321             0.0000000000
     40042       321  PMPG      H11Y          -42.9986618899       24.2776976117       -4.4178910893  MEMB      321             0.0000000000
     40043       321  PMPG      C312          -41.6298775166       24.6560066588       -3.0792659603  MEMB      321             0.0000000000
     40044       321  PMPG      H12X          -41.9749524435       25.7167832820       -3.0777536544  MEMB      321             0.0000000000
     40045       321  PMPG      H12Y          -40.6232661623       24.6517348549       -3.2969590707  MEMB      321             0.0000000000
     40046       321  PMPG      C313          -40.8457610910       24.5051502211       -2.0339130034  MEMB      321             0.0000000000
     40047       321  PMPG      H13X          -42.3772161713       24.5778313248       -2.0219071877  MEMB      321             0.0000000000
     40048       321  PMPG      H13Y          -40.3672164838       25.3952195848       -1.5421691803  MEMB      321             0.0000000000
     40049       321  PMPG      C314          -39.9215269523       23.1658856450       -1.3534274461  MEMB      321             0.0000000000
     40050       321  PMPG      H14X          -38.8875377818       23.2426654866       -1.4195270670  MEMB      321             0.0000000000
     40051       321  PMPG      H14Y          -40.5014145233       22.2047847290       -1.4874809902  MEMB      321             0.0000000000
     40052       321  PMPG      C315          -39.7285474972       22.8358170887        0.0864827215  MEMB      321             0.0000000000
     40053       321  PMPG      H15X          -39.6119679158       21.6748880506        0.2249742054  MEMB      321             0.0000000000
     40054       321  PMPG      H15Y          -40.7566051946       22.3442710986        0.3537692069  MEMB      321             0.0000000000
     40055       321  PMPG      C316          -39.3513736363       24.3228122776        0.9164883527  MEMB      321             0.0000000000
     40056       321  PMPG      H16X          -39.9471308876       24.4832457879        1.6466593406  MEMB      321             0.0000000000
     40057       321  PMPG      H16Y          -40.1027322578       25.1915844351        1.6103614244  MEMB      321             0.0000000000
     40058       321  PMPG      H16Z          -38.8155049152       25.0771372230        0.9905598609  MEMB      321             0.0000000000
     40059       322  PMPE      N              17.7432842057       49.2877609703      -17.2067466195  MEMB      322             0.0000000000
     40060       322  PMPE      HN1            18.4047584239       48.5602239090      -16.8751110626  MEMB      322             0.0000000000
     40061       322  PMPE      HN2            18.0399597943       50.2164557182      -16.8292701829  MEMB      322             0.0000000000
     40062       322  PMPE      HN3            16.7963097439       49.0156872306      -16.8661493649  MEMB      322             0.0000000000
     40063       322  PMPE      C12            17.6000086039       49.3042439771      -18.7086404053  MEMB      322             0.0000000000
     40064       322  PMPE      H12A           18.4346314273       49.9023385217      -19.1136564087  MEMB      322             0.0000000000
     40065       322  PMPE      H12B           16.6567282066       49.8224256142      -18.9878215130  MEMB      322             0.0000000000
     40066       322  PMPE      C11            17.5011891653       47.8852744645      -19.3009508925  MEMB      322             0.0000000000
     40067       322  PMPE      H11A           18.4589207434       47.3224560369      -19.2993443239  MEMB      322             0.0000000000
     40068       322  PMPE      H11B           17.1873636250       48.0710609937      -20.3593480882  MEMB      322             0.0000000000
     40069       322  PMPE      P              15.8040563266       45.8979276852      -19.4522699490  MEMB      322             0.0000000000
     40070       322  PMPE      O13            16.8803491640       44.9821123243      -19.8349671695  MEMB      322             0.0000000000
     40071       322  PMPE      O14            14.9503386335       46.5060921972      -20.4831603122  MEMB      322             0.0000000000
     40072       322  PMPE      O11            14.9087522475       45.3124653615      -18.3295402562  MEMB      322             0.0000000000
     40073       322  PMPE      O12            16.5214643730       47.1068577560      -18.6242205273  MEMB      322             0.0000000000
     40074       322  PMPE      C1             14.2378366596       46.2087480670      -17.4565912359  MEMB      322             0.0000000000
     40075       322  PMPE      HA             13.1868601305       45.8515109479      -17.4221471939  MEMB      322             0.0000000000
     40076       322  PMPE      HB             14.2335435894       47.2857424141      -17.7675965162  MEMB      322             0.0000000000
     40077       322  PMPE      C2             14.8082078768       46.1159344616      -16.0228201877  MEMB      322             0.0000000000
     40078       322  PMPE      HS             14.2259611284       46.8793112342      -15.4660634931  MEMB      322             0.0000000000
     40079       322  PMPE      O21            16.2338345727       46.4129459919      -15.9202353325  MEMB      322             0.0000000000
     40080       322  PMPE      C21            16.5431393964       47.1538502756      -14.8671561557  MEMB      322             0.0000000000
     40081       322  PMPE      O22            15.7593031324       47.8117427679      -14.2089376822  MEMB      322             0.0000000000
     40082       322  PMPE      C22            18.0665334348       47.1217084332      -14.6472991344  MEMB      322             0.0000000000
     40083       322  PMPE      H2R            18.5561142432       47.1380236589      -15.6401948184  MEMB      322             0.0000000000
     40084       322  PMPE      H2S            18.3052920809       46.1211381841      -14.2358997046  MEMB      322             0.0000000000
     40085       322  PMPE      C3             14.5421635796       44.6679318517      -15.4918747705  MEMB      322             0.0000000000
     40086       322  PMPE      HX             14.8621188960       43.9617303250      -16.3028312456  MEMB      322             0.0000000000
     40087       322  PMPE      HY             13.4631381123       44.4262620484      -15.3503967760  MEMB      322             0.0000000000
     40088       322  PMPE      O31            15.3497181198       44.4286064703      -14.3136786893  MEMB      322             0.0000000000
     40089       322  PMPE      C31            14.8010337254       44.6651211925      -13.1170914655  MEMB      322             0.0000000000
     40090       322  PMPE      O32            13.6135869406       44.7273918719      -12.8721966901  MEMB      322             0.0000000000
     40091       322  PMPE      C32            15.9262835899       44.9320255286      -12.1017189276  MEMB      322             0.0000000000
     40092       322  PMPE      H2X            16.6664356185       45.5151220297      -12.6845344795  MEMB      322             0.0000000000
     40093       322  PMPE      H2Y            16.4252155477       44.0007776499      -11.7839606324  MEMB      322             0.0000000000
     40094       322  PMPE      C23            18.5460100659       48.2795031350      -13.7197661356  MEMB      322             0.0000000000
     40095       322  PMPE      H3R            17.9713656308       49.2061471271      -13.9488271774  MEMB      322             0.0000000000
     40096       322  PMPE      H3S            19.6070099700       48.5019620343      -13.9875703964  MEMB      322             0.0000000000
     40097       322  PMPE      C24            18.4714150499       47.9559210795      -12.2057616979  MEMB      322             0.0000000000
     40098       322  PMPE      H4R            17.5318659869       47.5117884938      -11.8693194496  MEMB      322             0.0000000000
     40099       322  PMPE      H4S            18.6592084856       48.8838862745      -11.5927330725  MEMB      322             0.0000000000
     40100       322  PMPE      C25            19.3379056652       46.7778143776      -11.8261266551  MEMB      322             0.0000000000
     40101       322  PMPE      H5R            20.1419833772       47.3355632315      -12.2641439558  MEMB      322             0.0000000000
     40102       322  PMPE      H5S            19.7754133324       46.0560127281      -12.4965138023  MEMB      322             0.0000000000
     40103       322  PMPE      C26            19.3586470937       46.3945837868      -10.3036210208  MEMB      322             0.0000000000
     40104       322  PMPE      H6R            18.4344583413       46.8228224343       -9.9545865166  MEMB      322             0.0000000000
     40105       322  PMPE      H6S            20.0249827192       46.8107568978       -9.4810636995  MEMB      322             0.0000000000
     40106       322  PMPE      C27            19.2886401446       44.9450942265      -10.2508879332  MEMB      322             0.0000000000
     40107       322  PMPE      H7R            20.3073681955       44.5870890206      -10.6139479581  MEMB      322             0.0000000000
     40108       322  PMPE      H7S            18.6219192973       44.4498835719      -10.9428283674  MEMB      322             0.0000000000
     40109       322  PMPE      C28            18.7693105184       44.6015733302       -8.8573197779  MEMB      322             0.0000000000
     40110       322  PMPE      H8R            17.9504388513       44.9939181150       -8.3981498587  MEMB      322             0.0000000000
     40111       322  PMPE      H8S            19.5111148729       44.9943641591       -8.1583049664  MEMB      322             0.0000000000
     40112       322  PMPE      C29            18.5299122204       43.2023489524       -8.8908938981  MEMB      322             0.0000000000
     40113       322  PMPE      H9R            19.1089987691       42.5890263463       -9.2845540497  MEMB      322             0.0000000000
     40114       322  PMPE      C217           17.3543340986       42.3985675971       -8.9069475879  MEMB      322             0.0000000000
     40115       322  PMPE      H17R           17.3787273710       41.3670486154       -9.3032101816  MEMB      322             0.0000000000
     40116       322  PMPE      H17S           16.6138072062       43.1240610162       -8.9837308507  MEMB      322             0.0000000000
     40117       322  PMPE      C210           18.4286820989       42.6059330237       -7.8052244771  MEMB      322             0.0000000000
     40118       322  PMPE      H10R           19.3803773259       41.5001954133       -8.0325096932  MEMB      322             0.0000000000
     40119       322  PMPE      C211           17.8220090573       43.4147782551       -6.3911828966  MEMB      322             0.0000000000
     40120       322  PMPE      H11R           16.8788625953       42.8552921597       -6.0013657502  MEMB      322             0.0000000000
     40121       322  PMPE      H11S           17.4283761391       44.3667489907       -6.5151010219  MEMB      322             0.0000000000
     40122       322  PMPE      C212           18.7441519064       43.4594138178       -5.0743923625  MEMB      322             0.0000000000
     40123       322  PMPE      H12R           19.7800128304       43.6679938358       -5.2163241371  MEMB      322             0.0000000000
     40124       322  PMPE      H12S           19.0089550990       42.5468907163       -4.5772469310  MEMB      322             0.0000000000
     40125       322  PMPE      C213           18.9477619884       44.5070099526       -4.2184145851  MEMB      322             0.0000000000
     40126       322  PMPE      H13R           18.7601280526       45.3201765138       -4.9118785890  MEMB      322             0.0000000000
     40127       322  PMPE      H13S           19.9967775496       44.5545381957       -3.7860067499  MEMB      322             0.0000000000
     40128       322  PMPE      C214           17.9527551808       44.1829010891       -3.2635317324  MEMB      322             0.0000000000
     40129       322  PMPE      H14R           17.8697625208       43.1259735305       -2.8918500380  MEMB      322             0.0000000000
     40130       322  PMPE      H14S           16.9517169635       44.4389898371       -3.6814021298  MEMB      322             0.0000000000
     40131       322  PMPE      C215           18.2298813442       45.0394911677       -2.1989774355  MEMB      322             0.0000000000
     40132       322  PMPE      H15R           18.0003473357       46.1535526498       -2.4110205529  MEMB      322             0.0000000000
     40133       322  PMPE      H15S           19.1575943629       45.0329457801       -1.6048975072  MEMB      322             0.0000000000
     40134       322  PMPE      C216           17.1238689669       44.4156104847       -1.4925472649  MEMB      322             0.0000000000
     40135       322  PMPE      H16R           16.8257613017       44.9639697923       -0.7687094829  MEMB      322             0.0000000000
     40136       322  PMPE      H16S           16.4290089886       45.0770773470       -1.8874641765  MEMB      322             0.0000000000
     40137       322  PMPE      H16T           16.9896599604       43.7608148344       -0.6444115037  MEMB      322             0.0000000000
     40138       322  PMPE      C33            15.5341416175       45.7895742481      -10.8606592864  MEMB      322             0.0000000000
     40139       322  PMPE      H3X            15.1845301771       46.7688809948      -11.2532681408  MEMB      322             0.0000000000
     40140       322  PMPE      H3Y            16.4951435059       45.9439386207      -10.3189847703  MEMB      322             0.0000000000
     40141       322  PMPE      C34            14.4360158997       45.2000923574       -9.9374937610  MEMB      322             0.0000000000
     40142       322  PMPE      H4X            14.5851025230       44.1058557822       -9.8857806469  MEMB      322             0.0000000000
     40143       322  PMPE      H4Y            13.4583096901       45.3365594526      -10.4636995698  MEMB      322             0.0000000000
     40144       322  PMPE      C35            14.3207251726       45.7874193458       -8.4957368980  MEMB      322             0.0000000000
     40145       322  PMPE      H5X            13.3567714872       45.4111509810       -8.0734534313  MEMB      322             0.0000000000
     40146       322  PMPE      H5Y            14.2158366513       46.8890413876       -8.6049403205  MEMB      322             0.0000000000
     40147       322  PMPE      C36            15.5191318577       45.4741868645       -7.5502718216  MEMB      322             0.0000000000
     40148       322  PMPE      H6X            16.4277770034       45.9074135672       -7.9881720770  MEMB      322             0.0000000000
     40149       322  PMPE      H6Y            15.6937049945       44.3775908346       -7.4659668709  MEMB      322             0.0000000000
     40150       322  PMPE      C37            15.5711072356       46.0864407846       -6.1196149507  MEMB      322             0.0000000000
     40151       322  PMPE      H7X            16.5672623644       45.8608753047       -5.6474379806  MEMB      322             0.0000000000
     40152       322  PMPE      H7Y            14.7457836272       45.5875704921       -5.5965050332  MEMB      322             0.0000000000
     40153       322  PMPE      C38            15.2412429188       47.5867345692       -6.0551561206  MEMB      322             0.0000000000
     40154       322  PMPE      H8X            14.3121880564       47.6464912286       -6.6729076356  MEMB      322             0.0000000000
     40155       322  PMPE      H8Y            16.1185481226       48.0809959546       -6.5156438230  MEMB      322             0.0000000000
     40156       322  PMPE      C39            14.8519621289       48.2569665544       -4.7086590010  MEMB      322             0.0000000000
     40157       322  PMPE      H9X            14.3829041920       49.2639177929       -4.8920326224  MEMB      322             0.0000000000
     40158       322  PMPE      H9Y            15.7083251208       48.3698363987       -4.0106064339  MEMB      322             0.0000000000
     40159       322  PMPE      C310           13.8129590114       47.4126176146       -3.9853906084  MEMB      322             0.0000000000
     40160       322  PMPE      H10X           14.2778045311       46.4236736929       -3.7873375688  MEMB      322             0.0000000000
     40161       322  PMPE      H10Y           12.9677584348       47.3457826745       -4.6972660348  MEMB      322             0.0000000000
     40162       322  PMPE      C311           13.3326874707       47.9763367720       -2.6697107364  MEMB      322             0.0000000000
     40163       322  PMPE      H11X           13.0455134610       49.0146915029       -2.8148555712  MEMB      322             0.0000000000
     40164       322  PMPE      H11Y           14.1685933677       47.9984629886       -2.0090354537  MEMB      322             0.0000000000
     40165       322  PMPE      C312           12.2038996917       47.2232565458       -1.9843574218  MEMB      322             0.0000000000
     40166       322  PMPE      H12X           11.4521912682       46.9848707634       -2.7424689760  MEMB      322             0.0000000000
     40167       322  PMPE      H12Y           11.8246907176       47.9236620845       -1.2053491520  MEMB      322             0.0000000000
     40168       322  PMPE      C313           12.5494279799       45.9301596005       -1.2813418219  MEMB      322             0.0000000000
     40169       322  PMPE      H13X           13.1697665675       46.2858637730       -0.5682174141  MEMB      322             0.0000000000
     40170       322  PMPE      H13Y           13.1033702037       45.1620464788       -1.8436750762  MEMB      322             0.0000000000
     40171       322  PMPE      C314           11.5134846294       45.3474580274       -0.3253917909  MEMB      322             0.0000000000
     40172       322  PMPE      H14X           10.7680828978       45.2757816336       -1.0589209286  MEMB      322             0.0000000000
     40173       322  PMPE      H14Y           11.0564088553       46.0173873718        0.3911975548  MEMB      322             0.0000000000
     40174       322  PMPE      C315           11.8178122769       44.0060306251        0.3469050808  MEMB      322             0.0000000000
     40175       322  PMPE      H15X           12.3229030550       43.2239896710       -0.3609730164  MEMB      322             0.0000000000
     40176       322  PMPE      H15Y           10.9170530782       43.4863748180        0.8202097447  MEMB      322             0.0000000000
     40177       322  PMPE      C316           12.6351697605       44.3794958125        0.9636256147  MEMB      322             0.0000000000
     40178       322  PMPE      H16X           12.2046685517       44.9262541852        1.8744263745  MEMB      322             0.0000000000
     40179       322  PMPE      H16Y           13.4553624309       45.0233852252        0.5302566819  MEMB      322             0.0000000000
     40180       322  PMPE      H16Z           13.0961583310       43.2867788969        1.1542826756  MEMB      322             0.0000000000
     40181       323  PMPE      N             -49.9620310119       -2.4151049932      -20.6587023736  MEMB      323             0.0000000000
     40182       323  PMPE      HN1           -49.3465887006       -1.6721884665      -21.0664663289  MEMB      323             0.0000000000
     40183       323  PMPE      HN2           -50.3115745465       -3.0283496939      -21.4209204739  MEMB      323             0.0000000000
     40184       323  PMPE      HN3           -50.7536189144       -1.9602688168      -20.1427152579  MEMB      323             0.0000000000
     40185       323  PMPE      C12           -49.0104719610       -3.1398898781      -19.7406878218  MEMB      323             0.0000000000
     40186       323  PMPE      H12A          -48.5258743093       -2.3305769383      -19.1541513040  MEMB      323             0.0000000000
     40187       323  PMPE      H12B          -48.2758518991       -3.6804025768      -20.3702043958  MEMB      323             0.0000000000
     40188       323  PMPE      C11           -49.6133974125       -4.1909953465      -18.7965751058  MEMB      323             0.0000000000
     40189       323  PMPE      H11A          -50.5872255574       -3.8178126299      -18.4484022706  MEMB      323             0.0000000000
     40190       323  PMPE      H11B          -48.9671636912       -4.3231025006      -17.8982725307  MEMB      323             0.0000000000
     40191       323  PMPE      P             -50.1808895804       -6.7366852362      -18.5729046791  MEMB      323             0.0000000000
     40192       323  PMPE      O13           -48.9724828314       -7.2947492163      -17.9341372645  MEMB      323             0.0000000000
     40193       323  PMPE      O14           -50.9808270921       -7.5908784202      -19.4642788139  MEMB      323             0.0000000000
     40194       323  PMPE      O11           -51.1355877883       -6.1735755083      -17.4342829376  MEMB      323             0.0000000000
     40195       323  PMPE      O12           -49.7625661353       -5.4427542585      -19.4346856317  MEMB      323             0.0000000000
     40196       323  PMPE      C1            -51.4192896360       -6.9624779183      -16.2705010414  MEMB      323             0.0000000000
     40197       323  PMPE      HA            -50.5067700632       -7.4841449168      -15.9148528037  MEMB      323             0.0000000000
     40198       323  PMPE      HB            -52.1250818707       -7.7962187542      -16.5038604562  MEMB      323             0.0000000000
     40199       323  PMPE      C2            -51.8474644390       -6.0141983717      -15.1139224440  MEMB      323             0.0000000000
     40200       323  PMPE      HS            -51.9571080251       -6.6415879920      -14.1953862699  MEMB      323             0.0000000000
     40201       323  PMPE      O21           -53.0479903071       -5.2736123164      -15.4422284951  MEMB      323             0.0000000000
     40202       323  PMPE      C21           -54.1239909029       -5.9148154201      -15.1384450918  MEMB      323             0.0000000000
     40203       323  PMPE      O22           -54.2897972363       -7.1079703975      -15.0289398881  MEMB      323             0.0000000000
     40204       323  PMPE      C22           -55.2609846888       -5.0112101281      -14.9318377548  MEMB      323             0.0000000000
     40205       323  PMPE      H2R           -56.1858383883       -5.1590373259      -15.3831531881  MEMB      323             0.0000000000
     40206       323  PMPE      H2S           -55.3568136650       -4.3208109633      -15.6664293133  MEMB      323             0.0000000000
     40207       323  PMPE      C3            -50.7329614092       -4.9923455119      -14.7501479961  MEMB      323             0.0000000000
     40208       323  PMPE      HX            -50.5501867218       -4.3591526238      -15.6416616249  MEMB      323             0.0000000000
     40209       323  PMPE      HY            -49.8323837921       -5.6220135935      -14.5313343823  MEMB      323             0.0000000000
     40210       323  PMPE      O31           -51.1195073805       -4.1278672501      -13.6594031123  MEMB      323             0.0000000000
     40211       323  PMPE      C31           -50.1314693328       -3.8823510337      -12.8124282753  MEMB      323             0.0000000000
     40212       323  PMPE      O32           -49.0329258108       -4.3851006423      -12.7996584752  MEMB      323             0.0000000000
     40213       323  PMPE      C32           -50.5725216411       -2.9191787575      -11.8003362538  MEMB      323             0.0000000000
     40214       323  PMPE      H2X           -51.6227123794       -2.9950750142      -11.6908295326  MEMB      323             0.0000000000
     40215       323  PMPE      H2Y           -50.5094867396       -1.9455053816      -12.0100229530  MEMB      323             0.0000000000
     40216       323  PMPE      C23           -55.5044768977       -4.6422779842      -13.5385081515  MEMB      323             0.0000000000
     40217       323  PMPE      H3R           -55.7879357311       -5.5772797304      -13.3354142713  MEMB      323             0.0000000000
     40218       323  PMPE      H3S           -56.5363294758       -4.2118134204      -13.4133841798  MEMB      323             0.0000000000
     40219       323  PMPE      C24           -54.2546635813       -4.1767826217      -12.7274048058  MEMB      323             0.0000000000
     40220       323  PMPE      H4R           -53.8733610021       -3.3003648813      -13.2734433126  MEMB      323             0.0000000000
     40221       323  PMPE      H4S           -53.4075489394       -4.7900309706      -12.7364642777  MEMB      323             0.0000000000
     40222       323  PMPE      C25           -54.4932508523       -3.6465953020      -11.3180373690  MEMB      323             0.0000000000
     40223       323  PMPE      H5R           -55.4570424187       -3.0683684434      -11.1596005914  MEMB      323             0.0000000000
     40224       323  PMPE      H5S           -53.7507247141       -3.0898392535      -10.7801520760  MEMB      323             0.0000000000
     40225       323  PMPE      C26           -54.8810608131       -4.6112787722      -10.5654124692  MEMB      323             0.0000000000
     40226       323  PMPE      H6R           -55.8004068008       -4.8939199773      -11.1833258942  MEMB      323             0.0000000000
     40227       323  PMPE      H6S           -55.2684191476       -3.9767346481       -9.6389460949  MEMB      323             0.0000000000
     40228       323  PMPE      C27           -54.0037736762       -5.8743724118      -10.1858814027  MEMB      323             0.0000000000
     40229       323  PMPE      H7R           -53.0033995335       -5.5638238099      -10.2998249195  MEMB      323             0.0000000000
     40230       323  PMPE      H7S           -54.1734956169       -6.7024391891      -10.9096819028  MEMB      323             0.0000000000
     40231       323  PMPE      C28           -54.0926366895       -6.5057312539       -8.7241006381  MEMB      323             0.0000000000
     40232       323  PMPE      H8R           -55.0626835376       -7.0108685100       -8.4310800992  MEMB      323             0.0000000000
     40233       323  PMPE      H8S           -54.0609697231       -5.6819788492       -8.0539123044  MEMB      323             0.0000000000
     40234       323  PMPE      C29           -53.0138474978       -7.3625333667       -8.3232799981  MEMB      323             0.0000000000
     40235       323  PMPE      H9R           -51.9928440960       -7.1801705349       -8.6618118570  MEMB      323             0.0000000000
     40236       323  PMPE      C217          -53.3037947911       -8.6683794587       -8.8356861038  MEMB      323             0.0000000000
     40237       323  PMPE      H17R          -52.4008595492       -9.2416110365       -9.1708108002  MEMB      323             0.0000000000
     40238       323  PMPE      H17S          -54.3231152383       -8.7350114958       -9.1784748351  MEMB      323             0.0000000000
     40239       323  PMPE      C210          -53.4961322584       -8.4455211103       -7.4695029824  MEMB      323             0.0000000000
     40240       323  PMPE      H10R          -52.9766278707       -9.1085071980       -7.1660259508  MEMB      323             0.0000000000
     40241       323  PMPE      C211          -54.6096688703       -8.6781654245       -6.5429979240  MEMB      323             0.0000000000
     40242       323  PMPE      H11R          -54.6944189326       -9.6984593108       -6.2133290921  MEMB      323             0.0000000000
     40243       323  PMPE      H11S          -55.4447945126       -8.4606683937       -7.1640407146  MEMB      323             0.0000000000
     40244       323  PMPE      C212          -54.5815212417       -7.8111915606       -5.3524112340  MEMB      323             0.0000000000
     40245       323  PMPE      H12R          -55.5159574596       -7.9872383244       -4.8327963528  MEMB      323             0.0000000000
     40246       323  PMPE      H12S          -54.3319936642       -6.7961458494       -5.7060809111  MEMB      323             0.0000000000
     40247       323  PMPE      C213          -53.8168532684       -7.9895777438       -4.1683967730  MEMB      323             0.0000000000
     40248       323  PMPE      H13R          -52.9149995817       -7.4630417609       -4.5625814533  MEMB      323             0.0000000000
     40249       323  PMPE      H13S          -53.8262611957       -8.9464999309       -3.6003997654  MEMB      323             0.0000000000
     40250       323  PMPE      C214          -53.5029099872       -7.0195088207       -3.1633838446  MEMB      323             0.0000000000
     40251       323  PMPE      H14R          -54.2192985480       -7.3144063588       -2.5527852742  MEMB      323             0.0000000000
     40252       323  PMPE      H14S          -53.2068899527       -6.0500794227       -3.4326039749  MEMB      323             0.0000000000
     40253       323  PMPE      C215          -52.7623804797       -7.2455555988       -2.0002553510  MEMB      323             0.0000000000
     40254       323  PMPE      H15R          -51.9096307353       -7.2081402118       -2.4869280545  MEMB      323             0.0000000000
     40255       323  PMPE      H15S          -52.8845252112       -8.3125965406       -1.7757681206  MEMB      323             0.0000000000
     40256       323  PMPE      C216          -52.3235210034       -6.0380138854       -1.1548021406  MEMB      323             0.0000000000
     40257       323  PMPE      H16R          -51.8230104871       -5.2883598703       -1.6231428801  MEMB      323             0.0000000000
     40258       323  PMPE      H16S          -53.1985528238       -5.5176423140       -0.7512920461  MEMB      323             0.0000000000
     40259       323  PMPE      H16T          -51.7677017404       -6.3389681874       -0.2443565944  MEMB      323             0.0000000000
     40260       323  PMPE      C33           -49.8355139092       -2.9363450680      -10.5067870113  MEMB      323             0.0000000000
     40261       323  PMPE      H3X           -50.0759195609       -2.1139053574       -9.8863836482  MEMB      323             0.0000000000
     40262       323  PMPE      H3Y           -48.7835591619       -2.6937528342      -10.5273312801  MEMB      323             0.0000000000
     40263       323  PMPE      C34           -50.3740727706       -4.1308788385       -9.7791423687  MEMB      323             0.0000000000
     40264       323  PMPE      H4X           -49.7425240529       -4.9561247384      -10.0540695579  MEMB      323             0.0000000000
     40265       323  PMPE      H4Y           -51.4378262153       -4.2976956576      -10.0746574615  MEMB      323             0.0000000000
     40266       323  PMPE      C35           -50.2465537319       -4.1259987246       -8.2755652509  MEMB      323             0.0000000000
     40267       323  PMPE      H5X           -49.2596335000       -3.6103706251       -8.0328939520  MEMB      323             0.0000000000
     40268       323  PMPE      H5Y           -50.5382502195       -5.0261846610       -7.7621073299  MEMB      323             0.0000000000
     40269       323  PMPE      C36           -51.4428015580       -3.6112949457       -7.6749935959  MEMB      323             0.0000000000
     40270       323  PMPE      H6X           -52.4208109259       -3.5169408815       -8.1435557036  MEMB      323             0.0000000000
     40271       323  PMPE      H6Y           -50.7689448724       -2.8444231969       -8.1429097416  MEMB      323             0.0000000000
     40272       323  PMPE      C37           -51.8784220264       -3.5430599770       -6.2093975252  MEMB      323             0.0000000000
     40273       323  PMPE      H7X           -50.9985168153       -3.0967678225       -5.6662616777  MEMB      323             0.0000000000
     40274       323  PMPE      H7Y           -52.2187273332       -4.5219438913       -6.0766827156  MEMB      323             0.0000000000
     40275       323  PMPE      C38           -53.1404826656       -2.6939591605       -5.8285618581  MEMB      323             0.0000000000
     40276       323  PMPE      H8X           -54.0503064901       -2.8719382926       -6.3581709772  MEMB      323             0.0000000000
     40277       323  PMPE      H8Y           -53.3986695319       -1.8166268732       -6.4068743357  MEMB      323             0.0000000000
     40278       323  PMPE      C39           -53.1378885096       -2.4523973839       -4.3117733306  MEMB      323             0.0000000000
     40279       323  PMPE      H9X           -53.0690562373       -3.3964048606       -3.8588531159  MEMB      323             0.0000000000
     40280       323  PMPE      H9Y           -54.0731654392       -1.8578503698       -4.1374391181  MEMB      323             0.0000000000
     40281       323  PMPE      C310          -51.9792623472       -1.7637350193       -3.4290463661  MEMB      323             0.0000000000
     40282       323  PMPE      H10X          -51.3700793247       -1.2933759005       -3.9561660248  MEMB      323             0.0000000000
     40283       323  PMPE      H10Y          -51.0499851730       -2.2066645177       -3.2986716997  MEMB      323             0.0000000000
     40284       323  PMPE      C311          -52.2436549346       -0.5560693325       -2.5267299457  MEMB      323             0.0000000000
     40285       323  PMPE      H11X          -53.1362464975        0.1167518643       -2.8260843640  MEMB      323             0.0000000000
     40286       323  PMPE      H11Y          -51.4229835528        0.0508542757       -2.1166099073  MEMB      323             0.0000000000
     40287       323  PMPE      C312          -52.8544664662       -1.0329890111       -1.5149842099  MEMB      323             0.0000000000
     40288       323  PMPE      H12X          -53.5031066266       -1.7130455883       -2.2582381234  MEMB      323             0.0000000000
     40289       323  PMPE      H12Y          -53.6006348770       -0.2828409156       -1.1201369430  MEMB      323             0.0000000000
     40290       323  PMPE      C313          -52.0911330689       -1.7348642875       -0.2715917742  MEMB      323             0.0000000000
     40291       323  PMPE      H13X          -51.6987972682       -2.6693195573       -0.7081331991  MEMB      323             0.0000000000
     40292       323  PMPE      H13Y          -52.6937246226       -2.2884586039        0.6243084108  MEMB      323             0.0000000000
     40293       323  PMPE      C314          -51.5528819011       -0.8129732933        0.6346583306  MEMB      323             0.0000000000
     40294       323  PMPE      H14X          -52.3343753928       -0.6807623250        1.4382198304  MEMB      323             0.0000000000
     40295       323  PMPE      H14Y          -51.4512740139        0.0605186082       -0.0085028654  MEMB      323             0.0000000000
     40296       323  PMPE      C315          -50.3070036876       -1.4265198959        1.1314639973  MEMB      323             0.0000000000
     40297       323  PMPE      H15X          -50.6149364381       -2.1640463195        1.7900771598  MEMB      323             0.0000000000
     40298       323  PMPE      H15Y          -49.8582238844       -0.7198230799        1.8126024624  MEMB      323             0.0000000000
     40299       323  PMPE      C316          -49.3648209599       -2.0694712388        0.1195654274  MEMB      323             0.0000000000
     40300       323  PMPE      H16X          -48.3603229094       -2.1956740265        0.5665328213  MEMB      323             0.0000000000
     40301       323  PMPE      H16Y          -49.2954439677       -1.3735455930       -0.7357778384  MEMB      323             0.0000000000
     40302       323  PMPE      H16Z          -49.7205874960       -3.0668635903       -0.2426782823  MEMB      323             0.0000000000
     40303       324  QMPE      N             -49.2998681365       18.0526798400      -20.0243343319  MEMB      324             0.0000000000
     40304       324  QMPE      HN1           -48.4727502742       18.6878792919      -19.9814309670  MEMB      324             0.0000000000
     40305       324  QMPE      HN2           -48.9751701847       17.2447471330      -20.5809306192  MEMB      324             0.0000000000
     40306       324  QMPE      HN3           -50.0607829938       18.5514917863      -20.5270654660  MEMB      324             0.0000000000
     40307       324  QMPE      C12           -49.6257520556       17.5508739619      -18.6367817367  MEMB      324             0.0000000000
     40308       324  QMPE      H12A          -50.3706757557       16.7458008855      -18.6696076026  MEMB      324             0.0000000000
     40309       324  QMPE      H12B          -50.0947924750       18.3717014075      -18.1083212185  MEMB      324             0.0000000000
     40310       324  QMPE      C11           -48.4186730563       16.9495926898      -17.9225034745  MEMB      324             0.0000000000
     40311       324  QMPE      H11A          -48.7656338931       16.5599003965      -16.9354684657  MEMB      324             0.0000000000
     40312       324  QMPE      H11B          -47.6707050142       17.7741735034      -17.7757131429  MEMB      324             0.0000000000
     40313       324  QMPE      P             -46.4187722545       15.8885407216      -19.1743283392  MEMB      324             0.0000000000
     40314       324  QMPE      O13           -46.3036965095       17.1012667150      -19.9928962298  MEMB      324             0.0000000000
     40315       324  QMPE      O14           -46.0604969327       14.5654296244      -19.7434675371  MEMB      324             0.0000000000
     40316       324  QMPE      O11           -45.6816219971       16.2260125997      -17.8499848944  MEMB      324             0.0000000000
     40317       324  QMPE      O12           -47.9349533274       15.8391984596      -18.6837304586  MEMB      324             0.0000000000
     40318       324  QMPE      C1            -45.0690276857       15.3055485048      -16.9766990177  MEMB      324             0.0000000000
     40319       324  QMPE      HA            -43.9758880814       15.2035503855      -17.1944461221  MEMB      324             0.0000000000
     40320       324  QMPE      HB            -45.6175761294       14.3435929333      -16.9782167179  MEMB      324             0.0000000000
     40321       324  QMPE      C2            -45.2315380525       15.6915736263      -15.4935176316  MEMB      324             0.0000000000
     40322       324  QMPE      HS            -44.7652256975       14.8702816874      -14.8975721949  MEMB      324             0.0000000000
     40323       324  QMPE      O21           -46.6154320461       15.9256930005      -15.1733037177  MEMB      324             0.0000000000
     40324       324  QMPE      C21           -47.1960596525       14.8764253238      -14.6413604481  MEMB      324             0.0000000000
     40325       324  QMPE      O22           -46.6839299206       13.7799248481      -14.4890707493  MEMB      324             0.0000000000
     40326       324  QMPE      C22           -48.6071455549       15.2220806053      -14.1758031891  MEMB      324             0.0000000000
     40327       324  QMPE      H2R           -49.2949815807       15.2684619646      -15.0497647368  MEMB      324             0.0000000000
     40328       324  QMPE      H2S           -48.5472888972       16.2160074583      -13.6736094243  MEMB      324             0.0000000000
     40329       324  QMPE      C3            -44.4538160189       16.9482597571      -15.1162543287  MEMB      324             0.0000000000
     40330       324  QMPE      HX            -44.6001062417       17.6838043222      -15.9432290478  MEMB      324             0.0000000000
     40331       324  QMPE      HY            -43.3817428699       16.6604778465      -15.0811456966  MEMB      324             0.0000000000
     40332       324  QMPE      O31           -44.9336595013       17.4976203755      -13.8659966921  MEMB      324             0.0000000000
     40333       324  QMPE      C31           -44.1674945039       17.3254685196      -12.7894740124  MEMB      324             0.0000000000
     40334       324  QMPE      O32           -43.1698447284       16.6373641633      -12.7196456898  MEMB      324             0.0000000000
     40335       324  QMPE      C32           -44.6002491163       18.3145827091      -11.7128125470  MEMB      324             0.0000000000
     40336       324  QMPE      H2X           -43.9329011079       18.3212853448      -10.8117414083  MEMB      324             0.0000000000
     40337       324  QMPE      H2Y           -44.5547280906       19.3062462063      -12.2269762786  MEMB      324             0.0000000000
     40338       324  QMPE      C23           -49.1421057368       14.1135004804      -13.2310778368  MEMB      324             0.0000000000
     40339       324  QMPE      H3R           -48.6578628622       14.1944564147      -12.2357174445  MEMB      324             0.0000000000
     40340       324  QMPE      H3S           -48.9558339107       13.0992608930      -13.6481029149  MEMB      324             0.0000000000
     40341       324  QMPE      C24           -50.6200884064       14.2484989036      -13.0295510496  MEMB      324             0.0000000000
     40342       324  QMPE      H4R           -51.0375592296       13.4343580954      -12.3922028569  MEMB      324             0.0000000000
     40343       324  QMPE      H4S           -51.1203223152       14.1093145310      -14.0192479775  MEMB      324             0.0000000000
     40344       324  QMPE      C25           -50.9057202660       15.6703728918      -12.5583066248  MEMB      324             0.0000000000
     40345       324  QMPE      H5R           -51.9423668069       15.6165521631      -12.8194158451  MEMB      324             0.0000000000
     40346       324  QMPE      H5S           -50.8632057344       16.4904319076      -13.2503671115  MEMB      324             0.0000000000
     40347       324  QMPE      C26           -50.4244090532       16.1788322531      -11.1668643207  MEMB      324             0.0000000000
     40348       324  QMPE      H6R           -49.3704319794       16.1780284486      -11.1451665492  MEMB      324             0.0000000000
     40349       324  QMPE      H6S           -50.4333953883       15.5362387947      -10.2974791935  MEMB      324             0.0000000000
     40350       324  QMPE      C27           -50.9647962224       17.5333392627      -10.7167710370  MEMB      324             0.0000000000
     40351       324  QMPE      H7R           -52.0596417494       17.5960802548      -10.7926277406  MEMB      324             0.0000000000
     40352       324  QMPE      H7S           -50.6120268057       18.2480624448      -11.4476106020  MEMB      324             0.0000000000
     40353       324  QMPE      C28           -50.3951870096       18.0204758471       -9.3841566515  MEMB      324             0.0000000000
     40354       324  QMPE      H8R           -49.3619997185       17.9750146247       -9.3363967592  MEMB      324             0.0000000000
     40355       324  QMPE      H8S           -50.7804443320       17.7304390271       -8.4113639605  MEMB      324             0.0000000000
     40356       324  QMPE      C29           -50.6235870022       19.3575723090       -9.3468702711  MEMB      324             0.0000000000
     40357       324  QMPE      H9R           -51.8006203749       19.1668736959       -9.3641000890  MEMB      324             0.0000000000
     40358       324  QMPE      C217          -49.7396021153       20.3552375669      -10.0800017278  MEMB      324             0.0000000000
     40359       324  QMPE      H17R          -48.8203150689       20.1812629915      -10.4078957625  MEMB      324             0.0000000000
     40360       324  QMPE      H17S          -50.0804580118       21.2107136205      -10.6677078379  MEMB      324             0.0000000000
     40361       324  QMPE      C210          -49.8159443195       20.4583685891       -8.4778496101  MEMB      324             0.0000000000
     40362       324  QMPE      H10R          -50.2366191119       21.4058171240       -7.8609075243  MEMB      324             0.0000000000
     40363       324  QMPE      C211          -48.7545766594       20.3404019990       -7.5459840678  MEMB      324             0.0000000000
     40364       324  QMPE      H11R          -47.9237017176       20.0702330891       -8.1775392286  MEMB      324             0.0000000000
     40365       324  QMPE      H11S          -48.6264652356       21.3949288609       -7.1432746532  MEMB      324             0.0000000000
     40366       324  QMPE      C212          -49.1808524407       19.5748720448       -6.3125678926  MEMB      324             0.0000000000
     40367       324  QMPE      H12R          -49.5654600478       18.5893205235       -6.6104654072  MEMB      324             0.0000000000
     40368       324  QMPE      H12S          -50.0560366804       20.0250690057       -5.7655722588  MEMB      324             0.0000000000
     40369       324  QMPE      C213          -47.9839975463       19.3954071279       -5.3792500732  MEMB      324             0.0000000000
     40370       324  QMPE      H13R          -47.0948108716       18.9192127211       -5.8611700957  MEMB      324             0.0000000000
     40371       324  QMPE      H13S          -48.4106669861       18.7139564953       -4.6230423077  MEMB      324             0.0000000000
     40372       324  QMPE      C214          -47.5746220183       20.6697202943       -4.6286729783  MEMB      324             0.0000000000
     40373       324  QMPE      H14R          -48.5225079896       21.1904263510       -4.4087161674  MEMB      324             0.0000000000
     40374       324  QMPE      H14S          -46.9685372047       21.3297406186       -5.2958370761  MEMB      324             0.0000000000
     40375       324  QMPE      C215          -46.9111818157       20.4405983042       -3.2509525605  MEMB      324             0.0000000000
     40376       324  QMPE      H15R          -46.6157726042       21.4066025811       -2.7939631735  MEMB      324             0.0000000000
     40377       324  QMPE      H15S          -45.9817964839       19.9043291668       -3.4736714163  MEMB      324             0.0000000000
     40378       324  QMPE      C216          -47.7187339779       19.7017823194       -2.1808259366  MEMB      324             0.0000000000
     40379       324  QMPE      H16R          -48.1292871309       18.7521859527       -2.5890085751  MEMB      324             0.0000000000
     40380       324  QMPE      H16S          -48.4991420954       20.3457431658       -1.7475400077  MEMB      324             0.0000000000
     40381       324  QMPE      H16T          -47.0754448474       19.4612441820       -1.3226697998  MEMB      324             0.0000000000
     40382       324  QMPE      C33           -46.0380519346       18.3411865027      -11.2322264423  MEMB      324             0.0000000000
     40383       324  QMPE      H3X           -46.7384357854       18.3155618890      -12.0816195077  MEMB      324             0.0000000000
     40384       324  QMPE      H3Y           -46.2041325451       19.3657195460      -10.8169955785  MEMB      324             0.0000000000
     40385       324  QMPE      C34           -46.3203654349       17.3475315804      -10.1004743897  MEMB      324             0.0000000000
     40386       324  QMPE      H4X           -47.4173592519       17.1787752506      -10.0758765043  MEMB      324             0.0000000000
     40387       324  QMPE      H4Y           -46.0018117936       17.8641270502       -9.1634099032  MEMB      324             0.0000000000
     40388       324  QMPE      C35           -45.6313559935       15.9720337004      -10.1684688226  MEMB      324             0.0000000000
     40389       324  QMPE      H5X           -44.5276697197       16.1229723624      -10.1511800197  MEMB      324             0.0000000000
     40390       324  QMPE      H5Y           -45.8659850564       15.4699391770      -11.1239869222  MEMB      324             0.0000000000
     40391       324  QMPE      C36           -46.0853560726       15.0169468389       -9.0424227932  MEMB      324             0.0000000000
     40392       324  QMPE      H6X           -46.0936797516       15.5972949889       -8.0863873845  MEMB      324             0.0000000000
     40393       324  QMPE      H6Y           -45.3431148946       14.1848907203       -8.9038160499  MEMB      324             0.0000000000
     40394       324  QMPE      C37           -47.3518030106       14.3110879380       -9.4053761908  MEMB      324             0.0000000000
     40395       324  QMPE      H7X           -48.1667407116       15.0219936635       -9.6548639057  MEMB      324             0.0000000000
     40396       324  QMPE      H7Y           -47.1783000432       13.5925975461      -10.2110392613  MEMB      324             0.0000000000
     40397       324  QMPE      C38           -47.8487402891       13.5234347162       -8.3104613469  MEMB      324             0.0000000000
     40398       324  QMPE      H8X           -48.6957031174       12.9164112185       -8.7205654652  MEMB      324             0.0000000000
     40399       324  QMPE      H8Y           -47.1346693486       12.7687361622       -7.8888941773  MEMB      324             0.0000000000
     40400       324  QMPE      C39           -48.2867356730       14.6501232392       -7.3449188939  MEMB      324             0.0000000000
     40401       324  QMPE      H9X           -49.3611516162       14.3217706182       -7.1901897543  MEMB      324             0.0000000000
     40402       324  QMPE      H9Y           -48.8406845370       15.4820260721       -7.6573458929  MEMB      324             0.0000000000
     40403       324  QMPE      C310          -47.3544900625       14.9583469273       -5.9834417420  MEMB      324             0.0000000000
     40404       324  QMPE      H10X          -46.4558102182       15.3164620123       -6.2524339683  MEMB      324             0.0000000000
     40405       324  QMPE      H10Y          -46.9216339423       14.0012496540       -5.4978093058  MEMB      324             0.0000000000
     40406       324  QMPE      C311          -48.1376993124       15.5746510650       -4.6755106440  MEMB      324             0.0000000000
     40407       324  QMPE      H11X          -48.2937612214       16.5745123527       -4.9908782463  MEMB      324             0.0000000000
     40408       324  QMPE      H11Y          -47.4106859136       15.4681056825       -3.8345974602  MEMB      324             0.0000000000
     40409       324  QMPE      C312          -49.7123937520       15.3374519367       -4.2557449766  MEMB      324             0.0000000000
     40410       324  QMPE      H12X          -49.7423405139       14.3675322376       -4.3560772941  MEMB      324             0.0000000000
     40411       324  QMPE      H12Y          -50.3464859816       15.0305481963       -5.1063471071  MEMB      324             0.0000000000
     40412       324  QMPE      C313          -50.1769155132       15.2769910775       -2.6885709139  MEMB      324             0.0000000000
     40413       324  QMPE      H13X          -49.3074438820       15.0735435505       -1.9891689905  MEMB      324             0.0000000000
     40414       324  QMPE      H13Y          -50.2810833161       16.2988224361       -2.5755316823  MEMB      324             0.0000000000
     40415       324  QMPE      C314          -51.3889364794       14.3817988108       -2.1645568405  MEMB      324             0.0000000000
     40416       324  QMPE      H14X          -51.3747822493       13.2772061900       -2.2954249889  MEMB      324             0.0000000000
     40417       324  QMPE      H14Y          -52.1032112997       14.4995177419       -2.8620632595  MEMB      324             0.0000000000
     40418       324  QMPE      C315          -51.8996079730       14.6018683550       -0.7239548499  MEMB      324             0.0000000000
     40419       324  QMPE      H15X          -51.4536084197       14.0213984272        0.1091758491  MEMB      324             0.0000000000
     40420       324  QMPE      H15Y          -51.5702609867       15.5743639984       -0.4057742633  MEMB      324             0.0000000000
     40421       324  QMPE      H15Z          -52.8988853161       14.2581519572       -0.5752587966  MEMB      324             0.0000000000
     40422       325  PYPG      C13            42.5880383149       22.6348739948      -18.1367254747  MEMB      325             0.0000000000
     40423       325  PYPG      H13A           43.5717013988       22.1447273990      -17.9769721742  MEMB      325             0.0000000000
     40424       325  PYPG      H13B           42.1879375353       23.0139487038      -17.1661566324  MEMB      325             0.0000000000
     40425       325  PYPG      OC3            41.7285069861       21.6075091851      -18.5754530106  MEMB      325             0.0000000000
     40426       325  PYPG      HO3            42.0988355155       21.2416342446      -19.3835622858  MEMB      325             0.0000000000
     40427       325  PYPG      C12            42.6299990432       23.7716866873      -19.2034076985  MEMB      325             0.0000000000
     40428       325  PYPG      H12A           41.6430998297       24.2880707385      -19.1974473245  MEMB      325             0.0000000000
     40429       325  PYPG      OC2            42.8137308523       23.2381640930      -20.5300907129  MEMB      325             0.0000000000
     40430       325  PYPG      HO2            43.0198537550       24.0390990092      -21.0449382272  MEMB      325             0.0000000000
     40431       325  PYPG      C11            43.7227334853       24.8310722244      -18.9354595069  MEMB      325             0.0000000000
     40432       325  PYPG      H11A           43.5753899368       25.3103365030      -17.9345183951  MEMB      325             0.0000000000
     40433       325  PYPG      H11B           43.6330510896       25.6683136298      -19.6687388661  MEMB      325             0.0000000000
     40434       325  PYPG      P              46.2631006811       25.1114054738      -18.9897057353  MEMB      325             0.0000000000
     40435       325  PYPG      O13            45.9547529335       26.2328261227      -19.8916512293  MEMB      325             0.0000000000
     40436       325  PYPG      O14            47.5236435777       24.3567076452      -19.2108933434  MEMB      325             0.0000000000
     40437       325  PYPG      O11            46.1831012653       25.5765383384      -17.4878317222  MEMB      325             0.0000000000
     40438       325  PYPG      O12            45.0002045856       24.1753293890      -19.0652131469  MEMB      325             0.0000000000
     40439       325  PYPG      C1             46.3027535285       24.6538732358      -16.4170488917  MEMB      325             0.0000000000
     40440       325  PYPG      HA             47.3323882004       24.7837602459      -16.0189951364  MEMB      325             0.0000000000
     40441       325  PYPG      HB             46.1354834093       23.5873849253      -16.7050417804  MEMB      325             0.0000000000
     40442       325  PYPG      C2             45.2567730665       25.0209309193      -15.3565628842  MEMB      325             0.0000000000
     40443       325  PYPG      HS             44.2765077943       25.1119823197      -15.8787542668  MEMB      325             0.0000000000
     40444       325  PYPG      O21            45.6852845284       26.2834082362      -14.8553238159  MEMB      325             0.0000000000
     40445       325  PYPG      C21            44.7452980198       26.9696710874      -14.4345462524  MEMB      325             0.0000000000
     40446       325  PYPG      O22            43.5748601490       26.6693966485      -14.5468458115  MEMB      325             0.0000000000
     40447       325  PYPG      C22            45.2708473282       28.1551954924      -13.8507687897  MEMB      325             0.0000000000
     40448       325  PYPG      H2R            44.5983377334       28.2832883549      -12.9482296693  MEMB      325             0.0000000000
     40449       325  PYPG      H2S            45.3166770909       29.0069580008      -14.5705088170  MEMB      325             0.0000000000
     40450       325  PYPG      C3             45.1545078429       23.9908189917      -14.1999322021  MEMB      325             0.0000000000
     40451       325  PYPG      HX             44.7139681956       23.0295045806      -14.5626786038  MEMB      325             0.0000000000
     40452       325  PYPG      HY             44.4741722842       24.3998089658      -13.4161698720  MEMB      325             0.0000000000
     40453       325  PYPG      O31            46.4786089395       23.7824433207      -13.6946453868  MEMB      325             0.0000000000
     40454       325  PYPG      C31            46.5324129065       23.0625139875      -12.6231312867  MEMB      325             0.0000000000
     40455       325  PYPG      O32            45.5870172987       22.6932064030      -11.9500341376  MEMB      325             0.0000000000
     40456       325  PYPG      C32            47.9565927450       22.6996755756      -12.3966987924  MEMB      325             0.0000000000
     40457       325  PYPG      H2X            48.5963250180       22.6514699914      -13.2861213662  MEMB      325             0.0000000000
     40458       325  PYPG      H2Y            48.2273166432       23.5462216722      -11.8427387782  MEMB      325             0.0000000000
     40459       325  PYPG      C23            46.3308674547       28.1203931203      -13.1370043390  MEMB      325             0.0000000000
     40460       325  PYPG      H3R            46.8540000823       29.0841392134      -13.4003427711  MEMB      325             0.0000000000
     40461       325  PYPG      H3S            47.0613242963       27.8395074899      -13.6099812240  MEMB      325             0.0000000000
     40462       325  PYPG      C24            46.1214267956       27.7569004023      -11.6205099420  MEMB      325             0.0000000000
     40463       325  PYPG      H4R            45.6998947069       28.7615359550      -11.8286449551  MEMB      325             0.0000000000
     40464       325  PYPG      H4S            47.4847235260       27.8736395271      -10.3307155005  MEMB      325             0.0000000000
     40465       325  PYPG      C25            45.5097417169       26.6968560800      -11.0811261872  MEMB      325             0.0000000000
     40466       325  PYPG      H5R            45.7188747857       25.9773382883      -11.9886661388  MEMB      325             0.0000000000
     40467       325  PYPG      H5S            44.5596805326       26.6431927352      -11.3599693262  MEMB      325             0.0000000000
     40468       325  PYPG      C26            46.0184510816       26.6772751605       -9.5453094353  MEMB      325             0.0000000000
     40469       325  PYPG      H6R            45.3756472897       27.3718243970       -9.0159767301  MEMB      325             0.0000000000
     40470       325  PYPG      H6S            47.0170134194       27.0917211382       -9.0919383385  MEMB      325             0.0000000000
     40471       325  PYPG      C27            46.0956895421       25.2941839802       -9.0653608213  MEMB      325             0.0000000000
     40472       325  PYPG      H7R            46.9638708118       24.7500627935       -9.5216891252  MEMB      325             0.0000000000
     40473       325  PYPG      H7S            45.1519539233       24.8838402853       -9.4532524108  MEMB      325             0.0000000000
     40474       325  PYPG      C28            46.2483398513       25.3145787117       -7.5534693880  MEMB      325             0.0000000000
     40475       325  PYPG      H8R            47.1218522539       25.9599042403       -7.3962012446  MEMB      325             0.0000000000
     40476       325  PYPG      H8S            46.5566828388       24.3224447921       -7.1858875104  MEMB      325             0.0000000000
     40477       325  PYPG      C29            45.0952697251       25.8479108884       -6.7442580181  MEMB      325             0.0000000000
     40478       325  PYPG      H9R            45.0122408749       26.9405207854       -6.6313333100  MEMB      325             0.0000000000
     40479       325  PYPG      C210           44.2674027763       25.1026615788       -6.0100784903  MEMB      325             0.0000000000
     40480       325  PYPG      H10R           43.4668401571       25.6041609048       -5.4412761682  MEMB      325             0.0000000000
     40481       325  PYPG      C211           44.2999518178       23.6161691017       -5.8337954977  MEMB      325             0.0000000000
     40482       325  PYPG      H11R           44.7851653953       23.0696697385       -6.6896740551  MEMB      325             0.0000000000
     40483       325  PYPG      H11S           43.2324536096       23.3150277662       -5.7909349528  MEMB      325             0.0000000000
     40484       325  PYPG      C212           44.9719503708       23.3320008485       -4.4696649934  MEMB      325             0.0000000000
     40485       325  PYPG      H12R           46.0690914629       23.5339569071       -4.5225099045  MEMB      325             0.0000000000
     40486       325  PYPG      H12S           44.8245507859       22.2528285369       -4.2598584719  MEMB      325             0.0000000000
     40487       325  PYPG      C213           44.4594868207       24.2162903429       -3.2970911269  MEMB      325             0.0000000000
     40488       325  PYPG      H13R           43.3629084618       24.3825640895       -3.2722615190  MEMB      325             0.0000000000
     40489       325  PYPG      H13S           44.9070099005       25.2084324439       -3.4836802557  MEMB      325             0.0000000000
     40490       325  PYPG      C214           44.9418549371       23.7566607328       -1.9161772340  MEMB      325             0.0000000000
     40491       325  PYPG      H14R           44.4062066269       22.7956781558       -1.7357949019  MEMB      325             0.0000000000
     40492       325  PYPG      H14S           46.0432445527       23.5941591518       -2.0063222049  MEMB      325             0.0000000000
     40493       325  PYPG      C215           44.7369258962       24.7534669029       -0.7542611414  MEMB      325             0.0000000000
     40494       325  PYPG      H15R           45.0327900487       24.2343805372        0.1875391254  MEMB      325             0.0000000000
     40495       325  PYPG      H15S           43.6870372017       25.1141121640       -0.6703371302  MEMB      325             0.0000000000
     40496       325  PYPG      C216           45.5180614865       26.0563525496       -0.8669836064  MEMB      325             0.0000000000
     40497       325  PYPG      H16R           46.6010207411       25.8903341607       -0.6901950641  MEMB      325             0.0000000000
     40498       325  PYPG      H16S           45.1473777791       26.7514307509       -0.0846600817  MEMB      325             0.0000000000
     40499       325  PYPG      H16T           45.3282136946       26.5244088663       -1.8609174553  MEMB      325             0.0000000000
     40500       325  PYPG      C33            48.1717918484       21.5241153853      -11.5236078939  MEMB      325             0.0000000000
     40501       325  PYPG      H3X            49.2748090253       21.4320500217      -11.3192629165  MEMB      325             0.0000000000
     40502       325  PYPG      H3Y            47.8360292665       20.6213438721      -12.0592165067  MEMB      325             0.0000000000
     40503       325  PYPG      C34            47.4065134861       21.6800506696      -10.2561204594  MEMB      325             0.0000000000
     40504       325  PYPG      H4X            46.3808435411       21.2457951111      -10.1956214544  MEMB      325             0.0000000000
     40505       325  PYPG      H4Y            47.6539981340       22.4991327907       -9.5504275638  MEMB      325             0.0000000000
     40506       325  PYPG      C35            47.9652168925       20.7631500990       -9.5575499352  MEMB      325             0.0000000000
     40507       325  PYPG      H5X            49.0797966136       20.9562351417       -9.4850402178  MEMB      325             0.0000000000
     40508       325  PYPG      H5Y            47.7937196739       19.7481553878      -10.0887634016  MEMB      325             0.0000000000
     40509       325  PYPG      C36            47.3112750965       20.6905418470       -8.0919116904  MEMB      325             0.0000000000
     40510       325  PYPG      H6X            46.3610622206       20.5676879626       -8.0335401346  MEMB      325             0.0000000000
     40511       325  PYPG      H6Y            47.7569123424       21.6839080500       -7.5478456757  MEMB      325             0.0000000000
     40512       325  PYPG      C37            47.6322079778       18.6051517158       -6.4617337592  MEMB      325             0.0000000000
     40513       325  PYPG      H7X            47.1592634212       17.9680861381       -6.9900441313  MEMB      325             0.0000000000
     40514       325  PYPG      H7Y            48.8362132257       18.1028459867       -6.4917182668  MEMB      325             0.0000000000
     40515       325  PYPG      C38            48.2105568260       19.2310945842       -4.7877747912  MEMB      325             0.0000000000
     40516       325  PYPG      H8X            48.5358613299       18.3818487601       -4.9094147322  MEMB      325             0.0000000000
     40517       325  PYPG      H8Y            47.4431525477       19.0220362311       -4.9082551347  MEMB      325             0.0000000000
     40518       325  PYPG      C39            48.5565341311       20.7810998529       -4.3159249680  MEMB      325             0.0000000000
     40519       325  PYPG      H9X            48.1289698370       20.7027212271       -3.3472636918  MEMB      325             0.0000000000
     40520       325  PYPG      H9Y            48.0468599159       21.6923445514       -4.8670067735  MEMB      325             0.0000000000
     40521       325  PYPG      C310           49.8541300378       21.3443995476       -4.6152204012  MEMB      325             0.0000000000
     40522       325  PYPG      H10X           50.3297847787       21.5104421878       -5.6403136141  MEMB      325             0.0000000000
     40523       325  PYPG      H10Y           50.4328054994       20.4846604901       -4.3833955603  MEMB      325             0.0000000000
     40524       325  PYPG      C311           49.6903506979       22.6780240602       -4.2470962257  MEMB      325             0.0000000000
     40525       325  PYPG      H11X           50.8592916347       22.5611006616       -4.2782945021  MEMB      325             0.0000000000
     40526       325  PYPG      H11Y           49.3986199496       22.8462204132       -3.2529763341  MEMB      325             0.0000000000
     40527       325  PYPG      C312           48.8132088625       23.8370059141       -5.1707035049  MEMB      325             0.0000000000
     40528       325  PYPG      H12X           48.8424875084       23.7231956624       -6.3510841875  MEMB      325             0.0000000000
     40529       325  PYPG      H12Y           47.8331012323       23.5566169016       -5.2149794750  MEMB      325             0.0000000000
     40530       325  PYPG      C313           49.0137667870       25.3188918289       -4.6006546250  MEMB      325             0.0000000000
     40531       325  PYPG      H13X           48.9451970133       25.1044412036       -3.5840046684  MEMB      325             0.0000000000
     40532       325  PYPG      H13Y           50.0851279929       25.9328581726       -4.2053042676  MEMB      325             0.0000000000
     40533       325  PYPG      C314           48.4408092378       26.2201302578       -5.4497691195  MEMB      325             0.0000000000
     40534       325  PYPG      H14X           48.7701000567       26.2355419676       -6.5273402760  MEMB      325             0.0000000000
     40535       325  PYPG      H14Y           47.4084243945       26.1171054501       -5.1519318159  MEMB      325             0.0000000000
     40536       325  PYPG      C315           48.9432329986       27.1659758431       -4.6873455630  MEMB      325             0.0000000000
     40537       325  PYPG      H15X           50.0766902414       27.5968683609       -4.7585042209  MEMB      325             0.0000000000
     40538       325  PYPG      H15Y           48.7783310269       27.9118010874       -5.5239799289  MEMB      325             0.0000000000
     40539       325  PYPG      C316           48.4622881837       27.0349702473       -2.9284294743  MEMB      325             0.0000000000
     40540       325  PYPG      H16X           47.6341401514       27.6237086334       -3.2035029119  MEMB      325             0.0000000000
     40541       325  PYPG      H16Y           49.1563092840       27.6717025064       -2.3868350617  MEMB      325             0.0000000000
     40542       325  PYPG      H16Z           49.4057526841       26.7500563968       -2.5921449045  MEMB      325             0.0000000000
     40543       326  QMPE      N              46.6187130021      -18.7558659895      -20.4427754180  MEMB      326             0.0000000000
     40544       326  QMPE      HN1            46.7127576341      -17.8173040703      -20.8890412917  MEMB      326             0.0000000000
     40545       326  QMPE      HN2            45.7364213806      -19.1792928637      -20.7896442256  MEMB      326             0.0000000000
     40546       326  QMPE      HN3            46.5979767487      -18.6792306482      -19.3992578077  MEMB      326             0.0000000000
     40547       326  QMPE      C12            47.7217253734      -19.7028863410      -20.8564621518  MEMB      326             0.0000000000
     40548       326  QMPE      H12A           48.5435105921      -19.0729462638      -21.2359055632  MEMB      326             0.0000000000
     40549       326  QMPE      H12B           47.3312245637      -20.2521544574      -21.7283214227  MEMB      326             0.0000000000
     40550       326  QMPE      C11            48.1076488480      -20.7215237310      -19.7454154472  MEMB      326             0.0000000000
     40551       326  QMPE      H11A           48.4278126034      -20.2415209717      -18.7861284457  MEMB      326             0.0000000000
     40552       326  QMPE      H11B           48.9864718938      -21.3327428346      -20.0540138275  MEMB      326             0.0000000000
     40553       326  QMPE      P              46.2953106837      -21.7055355124      -18.1422943688  MEMB      326             0.0000000000
     40554       326  QMPE      O13            47.1152774404      -22.4227527609      -17.1618452669  MEMB      326             0.0000000000
     40555       326  QMPE      O14            44.9285767348      -22.1790594842      -18.3840578338  MEMB      326             0.0000000000
     40556       326  QMPE      O11            46.3281874426      -20.1699669516      -17.7871526845  MEMB      326             0.0000000000
     40557       326  QMPE      O12            47.0283123527      -21.6285638164      -19.5451789589  MEMB      326             0.0000000000
     40558       326  QMPE      C1             45.3953916348      -19.8751901946      -16.7989095839  MEMB      326             0.0000000000
     40559       326  QMPE      HA             44.3304375160      -20.1705279818      -16.9198901336  MEMB      326             0.0000000000
     40560       326  QMPE      HB             45.3581842291      -18.8986982773      -17.0407270700  MEMB      326             0.0000000000
     40561       326  QMPE      C2             45.8240235787      -19.8173282072      -15.3546194938  MEMB      326             0.0000000000
     40562       326  QMPE      HS             45.2870751444      -19.2101175305      -14.8823995075  MEMB      326             0.0000000000
     40563       326  QMPE      O21            47.1655778263      -19.4379047157      -15.1526891235  MEMB      326             0.0000000000
     40564       326  QMPE      C21            47.5905660508      -18.1891165926      -15.3890084334  MEMB      326             0.0000000000
     40565       326  QMPE      O22            47.0354325769      -17.2051968797      -15.8001227503  MEMB      326             0.0000000000
     40566       326  QMPE      C22            49.0222672868      -18.1254623206      -14.9670055192  MEMB      326             0.0000000000
     40567       326  QMPE      H2R            49.5675862384      -17.7098164128      -15.8332362742  MEMB      326             0.0000000000
     40568       326  QMPE      H2S            49.3889427924      -19.1479622428      -14.7801048554  MEMB      326             0.0000000000
     40569       326  QMPE      C3             45.4630160364      -21.1168698008      -14.5895983387  MEMB      326             0.0000000000
     40570       326  QMPE      HX             45.3705468301      -21.8538925491      -15.3842958710  MEMB      326             0.0000000000
     40571       326  QMPE      HY             44.4036389818      -20.9582966691      -14.2110137369  MEMB      326             0.0000000000
     40572       326  QMPE      O31            46.3457715755      -21.4511308723      -13.5011965373  MEMB      326             0.0000000000
     40573       326  QMPE      C31            46.1645668601      -22.6790590807      -12.9877287816  MEMB      326             0.0000000000
     40574       326  QMPE      O32            45.2534676779      -23.4292958125      -13.2496944686  MEMB      326             0.0000000000
     40575       326  QMPE      C32            47.2316116336      -23.0096080097      -11.9867036487  MEMB      326             0.0000000000
     40576       326  QMPE      H2X            46.9541731848      -23.8748152758      -11.3538575808  MEMB      326             0.0000000000
     40577       326  QMPE      H2Y            48.1081802031      -23.2547110764      -12.5542702779  MEMB      326             0.0000000000
     40578       326  QMPE      C23            49.1625158982      -17.2655183903      -13.6821220543  MEMB      326             0.0000000000
     40579       326  QMPE      H3R            48.3667931704      -17.6221750109      -12.9859819164  MEMB      326             0.0000000000
     40580       326  QMPE      H3S            48.9832703286      -16.1952449221      -13.9279354968  MEMB      326             0.0000000000
     40581       326  QMPE      C24            50.5310257192      -17.3358832700      -12.9794931915  MEMB      326             0.0000000000
     40582       326  QMPE      H4R            51.2893950692      -16.9022164889      -13.6645595428  MEMB      326             0.0000000000
     40583       326  QMPE      H4S            50.8154969027      -18.3741225147      -12.6960113598  MEMB      326             0.0000000000
     40584       326  QMPE      C25            50.6437125898      -16.6035802753      -11.6448997563  MEMB      326             0.0000000000
     40585       326  QMPE      H5R            50.4282054593      -15.5267188084      -11.7543013044  MEMB      326             0.0000000000
     40586       326  QMPE      H5S            51.7044763802      -16.7374392536      -11.3092735744  MEMB      326             0.0000000000
     40587       326  QMPE      C26            49.7885579042      -17.2218363074      -10.5817882894  MEMB      326             0.0000000000
     40588       326  QMPE      H6R            49.4592585989      -18.2372222542      -10.8710625829  MEMB      326             0.0000000000
     40589       326  QMPE      H6S            48.8137640866      -16.6756823139      -10.4315256688  MEMB      326             0.0000000000
     40590       326  QMPE      C27            50.6211847661      -17.4336308412       -9.3084079258  MEMB      326             0.0000000000
     40591       326  QMPE      H7R            50.9131166392      -16.4332325370       -8.9195782394  MEMB      326             0.0000000000
     40592       326  QMPE      H7S            51.4542719656      -18.1487570963       -9.3527206311  MEMB      326             0.0000000000
     40593       326  QMPE      C28            49.7541789848      -18.1282624530       -8.3845924209  MEMB      326             0.0000000000
     40594       326  QMPE      H8R            49.1825809411      -19.0029108752       -8.6127467969  MEMB      326             0.0000000000
     40595       326  QMPE      H8S            48.9206026205      -17.4449884011       -8.7640257931  MEMB      326             0.0000000000
     40596       326  QMPE      C29            50.3143197535      -18.2859380131       -6.8694884736  MEMB      326             0.0000000000
     40597       326  QMPE      H9R            51.2203515715      -18.8106609155       -6.8362636420  MEMB      326             0.0000000000
     40598       326  QMPE      C217           49.5640093647      -18.5863131035       -5.5467173307  MEMB      326             0.0000000000
     40599       326  QMPE      H17R           48.5264419336      -18.6901937437       -5.7146870414  MEMB      326             0.0000000000
     40600       326  QMPE      H17S           49.9166577400      -19.0399970608       -4.6446499520  MEMB      326             0.0000000000
     40601       326  QMPE      C210           50.3566996868      -17.2359408978       -5.7724728769  MEMB      326             0.0000000000
     40602       326  QMPE      H10R           51.2342117747      -17.3330793400       -5.2124498068  MEMB      326             0.0000000000
     40603       326  QMPE      C211           49.9034128798      -15.6869614657       -6.0923209962  MEMB      326             0.0000000000
     40604       326  QMPE      H11R           50.2347202148      -15.1520404734       -7.0207873273  MEMB      326             0.0000000000
     40605       326  QMPE      H11S           49.4810828676      -16.0700556535       -6.8526095902  MEMB      326             0.0000000000
     40606       326  QMPE      C212           49.3794605616      -14.5181056752       -5.1452411790  MEMB      326             0.0000000000
     40607       326  QMPE      H12R           49.2506467954      -13.5662123026       -5.5577453399  MEMB      326             0.0000000000
     40608       326  QMPE      H12S           49.9859290437      -13.9082416303       -4.4429594729  MEMB      326             0.0000000000
     40609       326  QMPE      C213           49.1365149252      -15.0999815740       -4.0135250956  MEMB      326             0.0000000000
     40610       326  QMPE      H13R           49.7840007193      -15.9877935521       -3.8119697432  MEMB      326             0.0000000000
     40611       326  QMPE      H13S           48.2140058196      -15.2247152132       -4.4831268761  MEMB      326             0.0000000000
     40612       326  QMPE      C214           48.9283109571      -14.3192537821       -2.9852963639  MEMB      326             0.0000000000
     40613       326  QMPE      H14R           48.5436001371      -13.4004241372       -2.9762830216  MEMB      326             0.0000000000
     40614       326  QMPE      H14S           49.6324478524      -14.3995403369       -2.1336200532  MEMB      326             0.0000000000
     40615       326  QMPE      C215           49.0066080823      -14.7622580252       -2.0943491417  MEMB      326             0.0000000000
     40616       326  QMPE      H15R           49.3064436824      -16.0134569532       -2.2628504414  MEMB      326             0.0000000000
     40617       326  QMPE      H15S           47.7333352286      -14.6311727492       -1.8958825823  MEMB      326             0.0000000000
     40618       326  QMPE      C216           50.1013697572      -14.1012646775        0.1533640607  MEMB      326             0.0000000000
     40619       326  QMPE      H16R           49.6494670464      -14.4565834456        0.6293735392  MEMB      326             0.0000000000
     40620       326  QMPE      H16S           49.1262940008      -13.5535862196        0.5269557536  MEMB      326             0.0000000000
     40621       326  QMPE      H16T           50.5709108741      -14.5901735968       -0.3527473169  MEMB      326             0.0000000000
     40622       326  QMPE      C33            47.4728455121      -21.8350362722      -11.1219984202  MEMB      326             0.0000000000
     40623       326  QMPE      H3X            46.8062841014      -21.6892595522      -10.2950309902  MEMB      326             0.0000000000
     40624       326  QMPE      H3Y            47.6872762039      -20.8566790881      -11.6066506127  MEMB      326             0.0000000000
     40625       326  QMPE      C34            48.4553567264      -22.1170820651      -10.2676143719  MEMB      326             0.0000000000
     40626       326  QMPE      H4X            48.8238251555      -21.2032396612       -9.8626183369  MEMB      326             0.0000000000
     40627       326  QMPE      H4Y            49.1661414595      -21.7035478117      -11.1173572991  MEMB      326             0.0000000000
     40628       326  QMPE      C35            48.5990048578      -23.6406803876       -9.5176645033  MEMB      326             0.0000000000
     40629       326  QMPE      H5X            49.5777727703      -23.8415890841       -8.9673506611  MEMB      326             0.0000000000
     40630       326  QMPE      H5Y            48.7910520455      -24.4801567172      -10.2103644682  MEMB      326             0.0000000000
     40631       326  QMPE      C36            47.5585073418      -23.9913916768       -8.5300039180  MEMB      326             0.0000000000
     40632       326  QMPE      H6X            47.8308020939      -24.9340759083       -7.9873279445  MEMB      326             0.0000000000
     40633       326  QMPE      H6Y            46.6286922370      -23.9534556785       -9.0063947452  MEMB      326             0.0000000000
     40634       326  QMPE      C37            47.1950936760      -22.9372361373       -7.5876170272  MEMB      326             0.0000000000
     40635       326  QMPE      H7X            48.1972304857      -23.3520791649       -7.3634960624  MEMB      326             0.0000000000
     40636       326  QMPE      H7Y            47.2883720446      -21.8800560181       -7.7575265610  MEMB      326             0.0000000000
     40637       326  QMPE      C38            46.0921203762      -22.9439893693       -6.5599690455  MEMB      326             0.0000000000
     40638       326  QMPE      H8X            45.2549809151      -22.8548067467       -7.2358029580  MEMB      326             0.0000000000
     40639       326  QMPE      H8Y            46.2103321053      -23.9438097885       -6.1486022812  MEMB      326             0.0000000000
     40640       326  QMPE      C39            46.0647973030      -21.8106073771       -5.3769138337  MEMB      326             0.0000000000
     40641       326  QMPE      H9X            45.0982684155      -21.9689952645       -4.8880498459  MEMB      326             0.0000000000
     40642       326  QMPE      H9Y            46.1450978802      -20.8099767445       -5.8341843864  MEMB      326             0.0000000000
     40643       326  QMPE      C310           47.0240686291      -21.7842345721       -4.0760497060  MEMB      326             0.0000000000
     40644       326  QMPE      H10X           48.0958115246      -21.3985476695       -4.2360210676  MEMB      326             0.0000000000
     40645       326  QMPE      H10Y           47.1204390264      -22.8083501765       -3.6492282117  MEMB      326             0.0000000000
     40646       326  QMPE      C311           47.0426891726      -20.7181043195       -3.1962001051  MEMB      326             0.0000000000
     40647       326  QMPE      H11X           46.0672341483      -20.9317435711       -2.8158106504  MEMB      326             0.0000000000
     40648       326  QMPE      H11Y           47.2063433389      -19.9411554372       -3.9430215502  MEMB      326             0.0000000000
     40649       326  QMPE      C312           48.1046241620      -20.8318505102       -2.1936602008  MEMB      326             0.0000000000
     40650       326  QMPE      H12X           49.1657215139      -20.8141191909       -2.5652513730  MEMB      326             0.0000000000
     40651       326  QMPE      H12Y           47.8558324542      -21.8379778397       -1.7864648407  MEMB      326             0.0000000000
     40652       326  QMPE      C313           48.0675095517      -19.7941501395       -1.1270654293  MEMB      326             0.0000000000
     40653       326  QMPE      H13X           48.2023479691      -18.9055889235       -1.7039046106  MEMB      326             0.0000000000
     40654       326  QMPE      H13Y           47.0872217248      -19.7921026175       -0.6005269029  MEMB      326             0.0000000000
     40655       326  QMPE      C314           49.2598344481      -19.7576703413       -0.2086208507  MEMB      326             0.0000000000
     40656       326  QMPE      H14X           49.7094178459      -20.6611744313        0.1931929321  MEMB      326             0.0000000000
     40657       326  QMPE      H14Y           48.8847287135      -19.3243880093        0.6966915534  MEMB      326             0.0000000000
     40658       326  QMPE      C315           50.4074904557      -19.0165212930       -0.6456949456  MEMB      326             0.0000000000
     40659       326  QMPE      H15X           50.1073544739      -17.9828156087       -0.7068293313  MEMB      326             0.0000000000
     40660       326  QMPE      H15Y           51.1554024280      -18.9915999982        0.1270831037  MEMB      326             0.0000000000
     40661       326  QMPE      H15Z           50.9091589607      -19.3883481887       -1.5325623296  MEMB      326             0.0000000000
     40662       327  PYPG      C13            39.1704254938       29.2601527064      -19.2991811265  MEMB      327             0.0000000000
     40663       327  PYPG      H13A           38.6642097600       29.1155432220      -20.2480581759  MEMB      327             0.0000000000
     40664       327  PYPG      H13B           39.2823679099       28.2704113878      -18.8226568497  MEMB      327             0.0000000000
     40665       327  PYPG      OC3            38.3070854595       30.0296190883      -18.4751994802  MEMB      327             0.0000000000
     40666       327  PYPG      HO3            38.6422143066       30.9401373314      -18.5030383627  MEMB      327             0.0000000000
     40667       327  PYPG      C12            40.5611008474       29.8965630919      -19.5294106749  MEMB      327             0.0000000000
     40668       327  PYPG      H12A           41.1768030977       29.1653369918      -20.1130218833  MEMB      327             0.0000000000
     40669       327  PYPG      OC2            41.2438291628       30.0342567552      -18.2904911520  MEMB      327             0.0000000000
     40670       327  PYPG      HO2            42.0105980193       30.6033953342      -18.4653637416  MEMB      327             0.0000000000
     40671       327  PYPG      C11            40.5471161130       31.2445020003      -20.3374795158  MEMB      327             0.0000000000
     40672       327  PYPG      H11A           40.0019127774       31.1344250130      -21.3010812993  MEMB      327             0.0000000000
     40673       327  PYPG      H11B           41.6258559768       31.3880498417      -20.5806747207  MEMB      327             0.0000000000
     40674       327  PYPG      P              40.8826757736       33.3745229777      -18.8124875350  MEMB      327             0.0000000000
     40675       327  PYPG      O13            41.0025503195       34.6630807399      -19.5255797770  MEMB      327             0.0000000000
     40676       327  PYPG      O14            42.1411848644       32.6653785134      -18.5216159234  MEMB      327             0.0000000000
     40677       327  PYPG      O11            39.9883595628       33.5899860862      -17.5188192586  MEMB      327             0.0000000000
     40678       327  PYPG      O12            39.9691254453       32.3896089493      -19.6788317842  MEMB      327             0.0000000000
     40679       327  PYPG      C1             38.7125705732       34.2198609729      -17.4672623444  MEMB      327             0.0000000000
     40680       327  PYPG      HA             37.9954059077       33.7730087024      -18.2001785155  MEMB      327             0.0000000000
     40681       327  PYPG      HB             38.8823404517       35.2800664495      -17.7727789570  MEMB      327             0.0000000000
     40682       327  PYPG      C2             38.0915599152       34.0528798820      -16.0155932871  MEMB      327             0.0000000000
     40683       327  PYPG      HS             37.1744992579       34.6818922091      -15.9495141030  MEMB      327             0.0000000000
     40684       327  PYPG      O21            39.0460271795       34.3635696640      -14.9849066563  MEMB      327             0.0000000000
     40685       327  PYPG      C21            39.0887831746       35.5661663709      -14.4993685810  MEMB      327             0.0000000000
     40686       327  PYPG      O22            38.5856223199       36.5659633413      -14.9663287229  MEMB      327             0.0000000000
     40687       327  PYPG      C22            39.9126764650       35.5044679877      -13.2199175484  MEMB      327             0.0000000000
     40688       327  PYPG      H2R            40.9640058536       35.4581538557      -13.5563705087  MEMB      327             0.0000000000
     40689       327  PYPG      H2S            39.7163125884       34.6090378766      -12.6066597113  MEMB      327             0.0000000000
     40690       327  PYPG      C3             37.5807003723       32.5989405642      -15.6725865294  MEMB      327             0.0000000000
     40691       327  PYPG      HX             36.8782893467       32.3015381251      -16.4714098494  MEMB      327             0.0000000000
     40692       327  PYPG      HY             37.0449889373       32.5577433456      -14.6783021484  MEMB      327             0.0000000000
     40693       327  PYPG      O31            38.6182435556       31.6175752921      -15.7854736996  MEMB      327             0.0000000000
     40694       327  PYPG      C31            39.2475144339       31.2248159895      -14.6887356783  MEMB      327             0.0000000000
     40695       327  PYPG      O32            38.9293919452       31.5363298294      -13.5541409511  MEMB      327             0.0000000000
     40696       327  PYPG      C32            40.5176701323       30.4269763301      -15.0296219733  MEMB      327             0.0000000000
     40697       327  PYPG      H2X            40.4354786556       30.0296334253      -16.0585667327  MEMB      327             0.0000000000
     40698       327  PYPG      H2Y            41.3598180653       31.1583412772      -14.9521313083  MEMB      327             0.0000000000
     40699       327  PYPG      C23            39.6329248701       36.6823332672      -12.3070265703  MEMB      327             0.0000000000
     40700       327  PYPG      H3R            38.5549249139       36.8806078458      -12.1795527590  MEMB      327             0.0000000000
     40701       327  PYPG      H3S            39.9997621647       37.5238460704      -12.8961083666  MEMB      327             0.0000000000
     40702       327  PYPG      C24            40.1791503907       36.4239789965      -10.8829733408  MEMB      327             0.0000000000
     40703       327  PYPG      H4R            39.6938178259       35.5374827018      -10.4567247527  MEMB      327             0.0000000000
     40704       327  PYPG      H4S            39.9279460671       37.3351197782      -10.2650370567  MEMB      327             0.0000000000
     40705       327  PYPG      C25            41.6661052142       35.9483553550      -10.7761325019  MEMB      327             0.0000000000
     40706       327  PYPG      H5R            42.2848704498       36.4537043782      -11.4737736000  MEMB      327             0.0000000000
     40707       327  PYPG      H5S            41.9976544593       35.2392972075      -11.4985386707  MEMB      327             0.0000000000
     40708       327  PYPG      C26            42.2875553004       35.8530487180       -9.3426447983  MEMB      327             0.0000000000
     40709       327  PYPG      H6R            41.6146826568       35.1922996278       -8.8683798568  MEMB      327             0.0000000000
     40710       327  PYPG      H6S            42.0763980073       36.7957943084       -8.8282525102  MEMB      327             0.0000000000
     40711       327  PYPG      C27            43.7180312281       35.1473176563       -9.1547507893  MEMB      327             0.0000000000
     40712       327  PYPG      H7R            44.6935144030       35.5597692501       -9.5302807128  MEMB      327             0.0000000000
     40713       327  PYPG      H7S            43.8824938701       34.5697783779      -10.0364923828  MEMB      327             0.0000000000
     40714       327  PYPG      C28            44.4584576335       34.9630260029       -7.9055217995  MEMB      327             0.0000000000
     40715       327  PYPG      H8R            45.5685027251       34.9209131856       -8.2799264017  MEMB      327             0.0000000000
     40716       327  PYPG      H8S            44.2676579911       34.0103053174       -7.6502160263  MEMB      327             0.0000000000
     40717       327  PYPG      C29            44.1639475219       35.8450800901       -6.7256521560  MEMB      327             0.0000000000
     40718       327  PYPG      H9R            45.0224616444       36.2848547090       -6.3797937288  MEMB      327             0.0000000000
     40719       327  PYPG      C210           43.4462737980       36.0591903199       -5.7427297417  MEMB      327             0.0000000000
     40720       327  PYPG      H10R           43.6248909875       36.9695469696       -5.1688562541  MEMB      327             0.0000000000
     40721       327  PYPG      C211           42.4542648666       35.0732791805       -5.6119875143  MEMB      327             0.0000000000
     40722       327  PYPG      H11R           42.7128038399       34.6141549502       -4.6633842126  MEMB      327             0.0000000000
     40723       327  PYPG      H11S           42.5914138084       34.2780071617       -6.3834092504  MEMB      327             0.0000000000
     40724       327  PYPG      C212           41.0841778047       35.6684176860       -5.6876295133  MEMB      327             0.0000000000
     40725       327  PYPG      H12R           40.3603580667       34.8815534759       -5.4466414246  MEMB      327             0.0000000000
     40726       327  PYPG      H12S           40.8520675381       36.0163068435       -6.7174327666  MEMB      327             0.0000000000
     40727       327  PYPG      C213           40.8294514948       36.8363534755       -4.7583348660  MEMB      327             0.0000000000
     40728       327  PYPG      H13R           39.7362448785       37.0242979783       -4.7328795250  MEMB      327             0.0000000000
     40729       327  PYPG      H13S           41.3884625726       37.6686949280       -5.2366406387  MEMB      327             0.0000000000
     40730       327  PYPG      C214           41.2631209140       36.6911097893       -3.3211774087  MEMB      327             0.0000000000
     40731       327  PYPG      H14R           40.6966587534       35.8772456663       -2.8325833760  MEMB      327             0.0000000000
     40732       327  PYPG      H14S           42.3485287703       36.4757559394       -3.3067967804  MEMB      327             0.0000000000
     40733       327  PYPG      C215           40.9381318381       37.9498253156       -2.5553753308  MEMB      327             0.0000000000
     40734       327  PYPG      H15R           39.9614832121       38.3836787522       -2.6816099435  MEMB      327             0.0000000000
     40735       327  PYPG      H15S           41.6272420183       38.7490208094       -2.9437576211  MEMB      327             0.0000000000
     40736       327  PYPG      C216           40.8525633496       37.7690332112       -1.0547223420  MEMB      327             0.0000000000
     40737       327  PYPG      H16R           41.7543707596       37.5474951652       -0.6129240003  MEMB      327             0.0000000000
     40738       327  PYPG      H16S           40.3950205609       36.9564193345       -0.5948665654  MEMB      327             0.0000000000
     40739       327  PYPG      H16T           40.6656526276       38.7494962516       -0.6012981660  MEMB      327             0.0000000000
     40740       327  PYPG      C33            40.7597206159       29.2738788335      -14.0196137681  MEMB      327             0.0000000000
     40741       327  PYPG      H3X            40.1401240287       28.3794191019      -14.1822477257  MEMB      327             0.0000000000
     40742       327  PYPG      H3Y            40.6484974450       29.6923000501      -12.9943288754  MEMB      327             0.0000000000
     40743       327  PYPG      C34            42.1134822382       28.7219430405      -14.0230428151  MEMB      327             0.0000000000
     40744       327  PYPG      H4X            42.4671142252       28.4462589940      -15.0554622074  MEMB      327             0.0000000000
     40745       327  PYPG      H4Y            42.1970540201       27.7988963979      -13.3696789674  MEMB      327             0.0000000000
     40746       327  PYPG      C35            42.9737774952       29.8824068458      -13.7167914747  MEMB      327             0.0000000000
     40747       327  PYPG      H5X            43.4490489438       30.3604570629      -14.5510231282  MEMB      327             0.0000000000
     40748       327  PYPG      H5Y            43.6702813706       29.3429142188      -13.7587876401  MEMB      327             0.0000000000
     40749       327  PYPG      C36            42.8905425141       30.5350633611      -12.4373115867  MEMB      327             0.0000000000
     40750       327  PYPG      H6X            42.2932357445       29.9128538575      -11.7476360861  MEMB      327             0.0000000000
     40751       327  PYPG      H6Y            42.4658440657       31.5048958122      -12.6835096916  MEMB      327             0.0000000000
     40752       327  PYPG      C37            44.0979270089       30.8135220950      -11.7838415300  MEMB      327             0.0000000000
     40753       327  PYPG      H7X            44.4244514925       29.8666987753      -11.4680707866  MEMB      327             0.0000000000
     40754       327  PYPG      H7Y            44.9271470033       31.2585729459      -12.3793533579  MEMB      327             0.0000000000
     40755       327  PYPG      C38            43.6885790238       31.5732681676      -10.5879746019  MEMB      327             0.0000000000
     40756       327  PYPG      H8X            43.6986081853       32.6245726452      -10.5123357438  MEMB      327             0.0000000000
     40757       327  PYPG      H8Y            44.7456567006       31.8000470659      -10.6987015636  MEMB      327             0.0000000000
     40758       327  PYPG      C39            42.9701962595       30.8947182382       -9.3013370037  MEMB      327             0.0000000000
     40759       327  PYPG      H9X            43.2693235664       29.8405725446       -8.9478192311  MEMB      327             0.0000000000
     40760       327  PYPG      H9Y            42.0484030467       30.6692981421       -9.7488587268  MEMB      327             0.0000000000
     40761       327  PYPG      C310           42.9699159576       31.7921626828       -8.0244758779  MEMB      327             0.0000000000
     40762       327  PYPG      H10X           42.7433423140       32.7959191183       -8.3755254774  MEMB      327             0.0000000000
     40763       327  PYPG      H10Y           43.9261162008       32.0162506100       -7.5023100693  MEMB      327             0.0000000000
     40764       327  PYPG      C311           41.9711330955       31.2964241331       -6.9748766559  MEMB      327             0.0000000000
     40765       327  PYPG      H11X           41.0990368314       30.8472612468       -7.4789351218  MEMB      327             0.0000000000
     40766       327  PYPG      H11Y           41.6465492300       32.1762060608       -6.3879806446  MEMB      327             0.0000000000
     40767       327  PYPG      C312           42.5120580869       30.3352867520       -5.9104132493  MEMB      327             0.0000000000
     40768       327  PYPG      H12X           42.9278384969       29.4026588800       -6.3329128363  MEMB      327             0.0000000000
     40769       327  PYPG      H12Y           43.3081614734       30.9009307967       -5.3805849208  MEMB      327             0.0000000000
     40770       327  PYPG      C313           41.5371483267       29.6920573738       -4.9713121383  MEMB      327             0.0000000000
     40771       327  PYPG      H13X           40.8960512585       29.0220359119       -5.5916003229  MEMB      327             0.0000000000
     40772       327  PYPG      H13Y           42.0538064362       29.0012934189       -4.2754014274  MEMB      327             0.0000000000
     40773       327  PYPG      C314           40.7845589668       30.7346285661       -4.1610999412  MEMB      327             0.0000000000
     40774       327  PYPG      H14X           40.0857496473       31.2041114343       -4.8902164134  MEMB      327             0.0000000000
     40775       327  PYPG      H14Y           40.2317842726       30.1924162354       -3.3713101398  MEMB      327             0.0000000000
     40776       327  PYPG      C315           41.6230707847       31.8442010258       -3.4817561940  MEMB      327             0.0000000000
     40777       327  PYPG      H15X           42.2081410930       32.3637885476       -4.2622025164  MEMB      327             0.0000000000
     40778       327  PYPG      H15Y           40.9678625381       32.6583977024       -3.0952635399  MEMB      327             0.0000000000
     40779       327  PYPG      C316           42.5978384582       31.4140930569       -2.3723721965  MEMB      327             0.0000000000
     40780       327  PYPG      H16X           42.0774808502       31.1794799984       -1.4146955336  MEMB      327             0.0000000000
     40781       327  PYPG      H16Y           43.2358643847       32.2825889444       -2.1539921231  MEMB      327             0.0000000000
     40782       327  PYPG      H16Z           43.3056728961       30.6180253574       -2.6957863588  MEMB      327             0.0000000000
     40783       328  PMPG      C13            42.3902508416      -25.6494046764      -19.3103386390  MEMB      328             0.0000000000
     40784       328  PMPG      H13A           43.3218091182      -25.1404807510      -19.6212841639  MEMB      328             0.0000000000
     40785       328  PMPG      H13B           41.4957498091      -25.1291164254      -19.7168362125  MEMB      328             0.0000000000
     40786       328  PMPG      OC3            42.3031656769      -25.5405847418      -17.9079213830  MEMB      328             0.0000000000
     40787       328  PMPG      HO3            41.5147699055      -26.0446843622      -17.6889391111  MEMB      328             0.0000000000
     40788       328  PMPG      C12            42.4807480296      -27.1398693726      -19.7074481661  MEMB      328             0.0000000000
     40789       328  PMPG      H12A           42.6392686634      -27.1840351638      -20.8099663626  MEMB      328             0.0000000000
     40790       328  PMPG      OC2            41.2369343347      -27.7784485244      -19.4353470345  MEMB      328             0.0000000000
     40791       328  PMPG      HO2            41.4636036336      -28.7301431606      -19.5192432494  MEMB      328             0.0000000000
     40792       328  PMPG      C11            43.6674570149      -27.8814926474      -18.9997121779  MEMB      328             0.0000000000
     40793       328  PMPG      H11A           43.5373523261      -27.9847707592      -17.9070086676  MEMB      328             0.0000000000
     40794       328  PMPG      H11B           44.5553272648      -27.2082551340      -19.1012663764  MEMB      328             0.0000000000
     40795       328  PMPG      P              43.2840191605      -30.5251997934      -18.9912646545  MEMB      328             0.0000000000
     40796       328  PMPG      O13            43.2874254434      -31.5455795561      -20.0597490863  MEMB      328             0.0000000000
     40797       328  PMPG      O14            42.0400227411      -30.2529468293      -18.2483250291  MEMB      328             0.0000000000
     40798       328  PMPG      O11            44.3140334280      -30.9070803390      -18.0022471863  MEMB      328             0.0000000000
     40799       328  PMPG      O12            43.9140275584      -29.1695208383      -19.5542792004  MEMB      328             0.0000000000
     40800       328  PMPG      C1             45.5646831485      -30.9770494654      -18.5635315765  MEMB      328             0.0000000000
     40801       328  PMPG      HA             46.0022008694      -30.1550601628      -19.1823221319  MEMB      328             0.0000000000
     40802       328  PMPG      HB             45.8421489848      -31.9842784291      -18.9425031809  MEMB      328             0.0000000000
     40803       328  PMPG      C2             46.2074544755      -30.5649199400      -17.4143166804  MEMB      328             0.0000000000
     40804       328  PMPG      HS             47.1608387160      -30.8396725352      -17.9709521369  MEMB      328             0.0000000000
     40805       328  PMPG      O21            45.9764225822      -31.1784389065      -16.0297960674  MEMB      328             0.0000000000
     40806       328  PMPG      C21            47.1780897725      -32.1199232881      -14.2193354451  MEMB      328             0.0000000000
     40807       328  PMPG      O22            48.3739744912      -32.0196157148      -14.2335138443  MEMB      328             0.0000000000
     40808       328  PMPG      C22            46.9553386105      -33.2499601819      -13.8338971780  MEMB      328             0.0000000000
     40809       328  PMPG      H2R            47.3469297100      -33.9281476401      -14.7184329304  MEMB      328             0.0000000000
     40810       328  PMPG      H2S            45.8917519218      -33.0121809639      -13.7171491217  MEMB      328             0.0000000000
     40811       328  PMPG      C3             46.1800898824      -29.3134851202      -16.7743722516  MEMB      328             0.0000000000
     40812       328  PMPG      HX             46.5110636062      -28.6642625397      -17.6074449268  MEMB      328             0.0000000000
     40813       328  PMPG      HY             46.8780642244      -29.2849420995      -15.8968294935  MEMB      328             0.0000000000
     40814       328  PMPG      O31            45.1031449441      -28.9226106201      -16.0903468922  MEMB      328             0.0000000000
     40815       328  PMPG      C31            45.0739886053      -29.0968920868      -14.7785551465  MEMB      328             0.0000000000
     40816       328  PMPG      O32            45.9179684644      -29.5492486218      -14.0135351528  MEMB      328             0.0000000000
     40817       328  PMPG      C32            43.7599554366      -28.6465780223      -14.4331711186  MEMB      328             0.0000000000
     40818       328  PMPG      H2X            43.2082690955      -28.4752663966      -15.3841169992  MEMB      328             0.0000000000
     40819       328  PMPG      H2Y            43.8820589967      -27.6843512611      -13.9062117162  MEMB      328             0.0000000000
     40820       328  PMPG      C23            47.9773812261      -33.2895187238      -12.7907656749  MEMB      328             0.0000000000
     40821       328  PMPG      H3R            48.0059736744      -32.2980616869      -12.1820504456  MEMB      328             0.0000000000
     40822       328  PMPG      H3S            49.0150100628      -33.5748385531      -13.1933719346  MEMB      328             0.0000000000
     40823       328  PMPG      C24            47.5687350181      -34.3898047760      -12.1325728804  MEMB      328             0.0000000000
     40824       328  PMPG      H4R            48.3607256204      -34.6332668200      -11.4975063594  MEMB      328             0.0000000000
     40825       328  PMPG      H4S            47.6540999228      -35.3099281421      -12.7591139983  MEMB      328             0.0000000000
     40826       328  PMPG      C25            46.2341116913      -33.9140015534      -11.5458500623  MEMB      328             0.0000000000
     40827       328  PMPG      H5R            46.0810467374      -34.6410119119      -10.7575957855  MEMB      328             0.0000000000
     40828       328  PMPG      H5S            45.3056015143      -33.9599743948      -12.1882018852  MEMB      328             0.0000000000
     40829       328  PMPG      C26            46.1615639413      -33.0532949827      -10.4612891521  MEMB      328             0.0000000000
     40830       328  PMPG      H6R            46.5018470199      -32.1737269433      -10.9282808827  MEMB      328             0.0000000000
     40831       328  PMPG      H6S            46.8290419548      -33.5269395610       -9.6621448190  MEMB      328             0.0000000000
     40832       328  PMPG      C27            44.7186544284      -32.8217430154      -10.1351878497  MEMB      328             0.0000000000
     40833       328  PMPG      H7R            44.2737844975      -33.8011517603       -9.9147108185  MEMB      328             0.0000000000
     40834       328  PMPG      H7S            44.0183155947      -32.6011418690      -10.9470857444  MEMB      328             0.0000000000
     40835       328  PMPG      C28            44.6473894333      -31.7028166359       -9.0979797648  MEMB      328             0.0000000000
     40836       328  PMPG      H8R            43.6529783086      -31.7009099361       -8.6172240749  MEMB      328             0.0000000000
     40837       328  PMPG      H8S            44.5612949861      -30.7553223008       -9.6283199284  MEMB      328             0.0000000000
     40838       328  PMPG      C29            45.8401973452      -31.6219818484       -8.1146242755  MEMB      328             0.0000000000
     40839       328  PMPG      H9R            46.8838587691      -31.4826505246       -8.3975893278  MEMB      328             0.0000000000
     40840       328  PMPG      C217           45.5284486866      -31.0028420843       -6.7642045148  MEMB      328             0.0000000000
     40841       328  PMPG      H17R           46.3614877308      -30.6532597416       -6.1873873840  MEMB      328             0.0000000000
     40842       328  PMPG      H17S           44.4675379037      -30.7746230415       -6.6853861401  MEMB      328             0.0000000000
     40843       328  PMPG      C210           45.8679153950      -32.4251314408       -6.9215453132  MEMB      328             0.0000000000
     40844       328  PMPG      H10R           46.8239469732      -32.7993267807       -6.5759301993  MEMB      328             0.0000000000
     40845       328  PMPG      C211           44.7133410781      -33.1232419083       -6.6288895080  MEMB      328             0.0000000000
     40846       328  PMPG      H11R           43.9921166341      -32.8782939272       -7.1673834612  MEMB      328             0.0000000000
     40847       328  PMPG      H11S           45.0754036057      -33.9174141384       -6.9771354300  MEMB      328             0.0000000000
     40848       328  PMPG      C212           44.0867184681      -33.4642139501       -5.4025703921  MEMB      328             0.0000000000
     40849       328  PMPG      H12R           43.5091024462      -34.1821292373       -4.8981764468  MEMB      328             0.0000000000
     40850       328  PMPG      H12S           43.9604757085      -32.3648181674       -5.0746485859  MEMB      328             0.0000000000
     40851       328  PMPG      C213           45.2415157528      -34.6019052789       -4.8429619151  MEMB      328             0.0000000000
     40852       328  PMPG      H13R           47.0058034813      -33.4267013647       -4.8513174564  MEMB      328             0.0000000000
     40853       328  PMPG      H13S           45.9147594191      -35.0544564883       -5.1563023132  MEMB      328             0.0000000000
     40854       328  PMPG      C214           44.8072745763      -35.1571982140       -2.8634258086  MEMB      328             0.0000000000
     40855       328  PMPG      H14R           44.0578616978      -35.6028887504       -3.2259082643  MEMB      328             0.0000000000
     40856       328  PMPG      H14S           44.1981555590      -34.5222954342       -2.6378881638  MEMB      328             0.0000000000
     40857       328  PMPG      C215           45.7421893953      -35.2314093321       -1.3077690125  MEMB      328             0.0000000000
     40858       328  PMPG      H15R           46.2930278162      -35.8030476970       -1.7918438415  MEMB      328             0.0000000000
     40859       328  PMPG      H15S           45.3853977607      -35.6834940020       -0.5556608269  MEMB      328             0.0000000000
     40860       328  PMPG      C216           46.6711453288      -34.0437452752       -0.2136556867  MEMB      328             0.0000000000
     40861       328  PMPG      H16R           47.0683610983      -32.9350187179       -0.9078286791  MEMB      328             0.0000000000
     40862       328  PMPG      H16S           47.4879619232      -34.1893962034        0.3581980322  MEMB      328             0.0000000000
     40863       328  PMPG      H16T           46.7441663226      -33.0812275975       -0.1699298170  MEMB      328             0.0000000000
     40864       328  PMPG      C33            43.1703662944      -29.8205686201      -13.6698225714  MEMB      328             0.0000000000
     40865       328  PMPG      H3X            43.9037376860      -30.2068123654      -12.9279318579  MEMB      328             0.0000000000
     40866       328  PMPG      H3Y            42.9849355754      -30.6626318322      -14.3930230471  MEMB      328             0.0000000000
     40867       328  PMPG      C34            41.8473756227      -29.5008615064      -12.9758536812  MEMB      328             0.0000000000
     40868       328  PMPG      H4X            41.5376773167      -30.4310974566      -12.4621177125  MEMB      328             0.0000000000
     40869       328  PMPG      H4Y            41.1216507790      -29.2569024495      -13.7881827879  MEMB      328             0.0000000000
     40870       328  PMPG      C35            41.8149412711      -28.3814290340      -11.9212833713  MEMB      328             0.0000000000
     40871       328  PMPG      H5X            40.7733910987      -28.2936275494      -11.5270820219  MEMB      328             0.0000000000
     40872       328  PMPG      H5Y            42.1647119608      -27.4487281913      -12.3968040927  MEMB      328             0.0000000000
     40873       328  PMPG      C36            42.6262913547      -28.6014737294      -10.6522904352  MEMB      328             0.0000000000
     40874       328  PMPG      H6X            43.6018479852      -29.0302111057      -10.9621204970  MEMB      328             0.0000000000
     40875       328  PMPG      H6Y            42.0029285862      -29.3054472968      -10.0448862197  MEMB      328             0.0000000000
     40876       328  PMPG      C37            43.0063285231      -27.3164360825       -9.8916193402  MEMB      328             0.0000000000
     40877       328  PMPG      H7X            42.1448017264      -26.6508182197       -9.6506181826  MEMB      328             0.0000000000
     40878       328  PMPG      H7Y            43.7706563985      -26.7607387440      -10.4904398151  MEMB      328             0.0000000000
     40879       328  PMPG      C38            43.8075109373      -27.5832354035       -8.6227946192  MEMB      328             0.0000000000
     40880       328  PMPG      H8X            44.7789938839      -28.0445163553       -8.9391410845  MEMB      328             0.0000000000
     40881       328  PMPG      H8Y            43.2693602438      -28.2716926344       -7.9371892949  MEMB      328             0.0000000000
     40882       328  PMPG      C39            44.1505678855      -26.2805188183       -7.8938776075  MEMB      328             0.0000000000
     40883       328  PMPG      H9X            43.2375170825      -25.8152891357       -7.4518340047  MEMB      328             0.0000000000
     40884       328  PMPG      H9Y            44.4903875492      -25.5446850543       -8.6597622210  MEMB      328             0.0000000000
     40885       328  PMPG      C310           45.2934435328      -26.5514103209       -6.8954777537  MEMB      328             0.0000000000
     40886       328  PMPG      H10X           45.6900419797      -25.6080662174       -6.5270652582  MEMB      328             0.0000000000
     40887       328  PMPG      H10Y           46.1482427232      -27.0156204781       -7.4235257303  MEMB      328             0.0000000000
     40888       328  PMPG      C311           44.9340197616      -27.4891649987       -5.7498574502  MEMB      328             0.0000000000
     40889       328  PMPG      H11X           44.3322856162      -28.3677837078       -6.0954441442  MEMB      328             0.0000000000
     40890       328  PMPG      H11Y           44.2606618508      -26.9265456974       -5.0702066070  MEMB      328             0.0000000000
     40891       328  PMPG      C312           46.1389256805      -27.9739816766       -4.9409571275  MEMB      328             0.0000000000
     40892       328  PMPG      H12X           46.6563356365      -27.1885570038       -4.3774213690  MEMB      328             0.0000000000
     40893       328  PMPG      H12Y           46.7803965578      -28.7274372150       -5.4545138414  MEMB      328             0.0000000000
     40894       328  PMPG      C313           45.6242090757      -28.6942684827       -3.8495999366  MEMB      328             0.0000000000
     40895       328  PMPG      H13X           46.2242247835      -29.6441787802       -3.6183857007  MEMB      328             0.0000000000
     40896       328  PMPG      H13Y           44.6358457703      -29.0768560396       -4.3629766308  MEMB      328             0.0000000000
     40897       328  PMPG      C314           45.3962487283      -27.9437322052       -2.3748140253  MEMB      328             0.0000000000
     40898       328  PMPG      H14X           44.5363576949      -27.2503556744       -2.4896736985  MEMB      328             0.0000000000
     40899       328  PMPG      H14Y           46.3641542504      -27.7168745651       -1.9406538764  MEMB      328             0.0000000000
     40900       328  PMPG      C315           44.8099667349      -28.6633427201       -1.0701307477  MEMB      328             0.0000000000
     40901       328  PMPG      H15X           45.5071858261      -29.6438083947       -0.8668805329  MEMB      328             0.0000000000
     40902       328  PMPG      H15Y           42.7400024852      -29.2216523042       -1.5682471535  MEMB      328             0.0000000000
     40903       328  PMPG      C316           45.2618809226      -27.9023017866        0.0866454588  MEMB      328             0.0000000000
     40904       328  PMPG      H16X           44.6346040763      -28.1588009231        0.8014273917  MEMB      328             0.0000000000
     40905       328  PMPG      H16Y           44.4162382228      -27.2914164167        0.4493083648  MEMB      328             0.0000000000
     40906       328  PMPG      H16Z           45.8295173044      -28.6126718138        0.7473173597  MEMB      328             0.0000000000
     40907       329  PMPE      N              47.9199791369       15.4037790104      -17.8729579497  MEMB      329             0.0000000000
     40908       329  PMPE      HN1            47.8870374396       16.3317242148      -17.4081814327  MEMB      329             0.0000000000
     40909       329  PMPE      HN2            46.9536161243       15.1740081598      -18.1223805718  MEMB      329             0.0000000000
     40910       329  PMPE      HN3            48.3036471588       14.6656394905      -17.2485107817  MEMB      329             0.0000000000
     40911       329  PMPE      C12            48.8504868218       15.4142699472      -19.0512887584  MEMB      329             0.0000000000
     40912       329  PMPE      H12A           48.7587396128       14.4376413085      -19.5042611905  MEMB      329             0.0000000000
     40913       329  PMPE      H12B           49.8635128565       15.4655753614      -18.6237621443  MEMB      329             0.0000000000
     40914       329  PMPE      C11            48.6301466611       16.5563887968      -20.0601877638  MEMB      329             0.0000000000
     40915       329  PMPE      H11A           47.6495415980       16.4459133769      -20.5654653042  MEMB      329             0.0000000000
     40916       329  PMPE      H11B           49.4039423289       16.5272822375      -20.8639998882  MEMB      329             0.0000000000
     40917       329  PMPE      P              49.9877685910       18.5857472978      -19.0788382534  MEMB      329             0.0000000000
     40918       329  PMPE      O13            49.8540525430       20.0260242866      -19.3175299743  MEMB      329             0.0000000000
     40919       329  PMPE      O14            51.1923080390       17.9073037428      -19.5849010780  MEMB      329             0.0000000000
     40920       329  PMPE      O11            49.8512937152       18.3154266025      -17.5284542172  MEMB      329             0.0000000000
     40921       329  PMPE      O12            48.6404457238       17.8254731188      -19.4440736137  MEMB      329             0.0000000000
     40922       329  PMPE      C1             48.5911866745       18.6576041146      -16.9101639218  MEMB      329             0.0000000000
     40923       329  PMPE      HA             47.7440298915       18.0991691913      -17.3573130545  MEMB      329             0.0000000000
     40924       329  PMPE      HB             48.3441788444       19.7444098304      -17.0309352483  MEMB      329             0.0000000000
     40925       329  PMPE      C2             48.6207056038       18.4136975619      -15.3845230180  MEMB      329             0.0000000000
     40926       329  PMPE      HS             48.1805798044       19.2998102126      -14.8782041245  MEMB      329             0.0000000000
     40927       329  PMPE      O21            49.9629150660       18.1652443265      -14.9782715146  MEMB      329             0.0000000000
     40928       329  PMPE      C21            50.7897857895       19.1269713900      -14.7169859444  MEMB      329             0.0000000000
     40929       329  PMPE      O22            50.5564000532       20.3297270216      -14.6815572175  MEMB      329             0.0000000000
     40930       329  PMPE      C22            52.1483419466       18.5004321777      -14.3797813372  MEMB      329             0.0000000000
     40931       329  PMPE      H2R            52.7515386083       18.5130264141      -15.3215077243  MEMB      329             0.0000000000
     40932       329  PMPE      H2S            51.9452804063       17.4665770953      -13.9965722741  MEMB      329             0.0000000000
     40933       329  PMPE      C3             47.7909212515       17.2198359545      -14.8595466395  MEMB      329             0.0000000000
     40934       329  PMPE      HX             48.3970302890       16.3103878460      -15.0890145997  MEMB      329             0.0000000000
     40935       329  PMPE      HY             46.7798737365       17.1776150138      -15.3372680357  MEMB      329             0.0000000000
     40936       329  PMPE      O31            47.5980317829       17.4624262199      -13.4575984381  MEMB      329             0.0000000000
     40937       329  PMPE      C31            48.1959367980       16.7152024933      -12.5727719097  MEMB      329             0.0000000000
     40938       329  PMPE      O32            48.8387656709       15.7073254895      -12.8193729441  MEMB      329             0.0000000000
     40939       329  PMPE      C32            47.6523925683       17.1681348189      -11.1590993972  MEMB      329             0.0000000000
     40940       329  PMPE      H2X            46.5915252370       16.8940607098      -10.9478132154  MEMB      329             0.0000000000
     40941       329  PMPE      H2Y            47.6417352295       18.2335005513      -11.1531407581  MEMB      329             0.0000000000
     40942       329  PMPE      C23            52.8230170591       19.2664716394      -13.2215105896  MEMB      329             0.0000000000
     40943       329  PMPE      H3R            52.0828726360       19.4714626903      -12.4336255432  MEMB      329             0.0000000000
     40944       329  PMPE      H3S            53.2073310086       20.2357270709      -13.6123738204  MEMB      329             0.0000000000
     40945       329  PMPE      C24            53.9077561783       18.5702796097      -12.4237073500  MEMB      329             0.0000000000
     40946       329  PMPE      H4R            54.6842788317       19.3045401489      -12.2458321841  MEMB      329             0.0000000000
     40947       329  PMPE      H4S            54.5168663711       18.0006956699      -12.9842254249  MEMB      329             0.0000000000
     40948       329  PMPE      C25            53.6062875737       17.5299784874      -11.3485216576  MEMB      329             0.0000000000
     40949       329  PMPE      H5R            52.7755665682       17.9320522396      -10.7546803244  MEMB      329             0.0000000000
     40950       329  PMPE      H5S            54.5021196307       17.5229121028      -10.7332065885  MEMB      329             0.0000000000
     40951       329  PMPE      C26            53.2975695399       16.1043425043      -11.5642047412  MEMB      329             0.0000000000
     40952       329  PMPE      H6R            54.0267621119       15.7980696183      -12.3013100501  MEMB      329             0.0000000000
     40953       329  PMPE      H6S            52.2312876598       16.0879629668      -11.8621818707  MEMB      329             0.0000000000
     40954       329  PMPE      C27            53.5718781148       15.1715122982      -10.3812798019  MEMB      329             0.0000000000
     40955       329  PMPE      H7R            54.5303369216       15.4603258871       -9.9034075479  MEMB      329             0.0000000000
     40956       329  PMPE      H7S            53.7820548267       14.1410233389      -10.7460475021  MEMB      329             0.0000000000
     40957       329  PMPE      C28            52.4368357444       15.2273385795       -9.3421025756  MEMB      329             0.0000000000
     40958       329  PMPE      H8R            51.4348313782       14.9523948899       -9.7405748704  MEMB      329             0.0000000000
     40959       329  PMPE      H8S            52.3812179887       16.2700883211       -8.9892097272  MEMB      329             0.0000000000
     40960       329  PMPE      C29            52.7933760991       14.4340445255       -8.1165117006  MEMB      329             0.0000000000
     40961       329  PMPE      H9R            53.8343344701       14.3915442796       -7.7845341568  MEMB      329             0.0000000000
     40962       329  PMPE      C217           52.1760436826       13.1270876311       -8.2548952977  MEMB      329             0.0000000000
     40963       329  PMPE      H17R           52.9117837232       12.3701043933       -7.9529508978  MEMB      329             0.0000000000
     40964       329  PMPE      H17S           51.2499838804       12.9643004905       -8.8436243812  MEMB      329             0.0000000000
     40965       329  PMPE      C210           51.8750739938       13.9171485139       -7.0429618098  MEMB      329             0.0000000000
     40966       329  PMPE      H10R           52.3667734663       13.4790899390       -6.1608627757  MEMB      329             0.0000000000
     40967       329  PMPE      C211           50.4691372421       14.4028943777       -6.9123919779  MEMB      329             0.0000000000
     40968       329  PMPE      H11R           49.9581776355       13.6474606069       -6.2842289717  MEMB      329             0.0000000000
     40969       329  PMPE      H11S           50.0178010565       14.4971905686       -7.9281678083  MEMB      329             0.0000000000
     40970       329  PMPE      C212           50.3381974169       15.6758270617       -6.0863949901  MEMB      329             0.0000000000
     40971       329  PMPE      H12R           49.2563608550       15.9753793953       -6.1146103114  MEMB      329             0.0000000000
     40972       329  PMPE      H12S           50.9708760924       16.4691199168       -6.5258335855  MEMB      329             0.0000000000
     40973       329  PMPE      C213           50.7984346384       15.5591590979       -4.6270154471  MEMB      329             0.0000000000
     40974       329  PMPE      H13R           50.6691241690       16.5848817181       -4.2265261964  MEMB      329             0.0000000000
     40975       329  PMPE      H13S           51.8376059821       15.2670593913       -4.4371009330  MEMB      329             0.0000000000
     40976       329  PMPE      C214           49.9302538076       14.7023774731       -3.7873613650  MEMB      329             0.0000000000
     40977       329  PMPE      H14R           49.8430222636       13.6642164456       -4.1238888881  MEMB      329             0.0000000000
     40978       329  PMPE      H14S           49.0133989677       15.2308173385       -3.9893163918  MEMB      329             0.0000000000
     40979       329  PMPE      C215           50.2269555110       14.7507461331       -2.3226586660  MEMB      329             0.0000000000
     40980       329  PMPE      H15R           49.4130720873       14.1918744867       -1.8427555792  MEMB      329             0.0000000000
     40981       329  PMPE      H15S           50.3522019090       15.7047246160       -1.8537566235  MEMB      329             0.0000000000
     40982       329  PMPE      C216           51.5049051997       14.1931053499       -1.9971850299  MEMB      329             0.0000000000
     40983       329  PMPE      H16R           52.5414324418       14.2715738182       -2.2137427209  MEMB      329             0.0000000000
     40984       329  PMPE      H16S           51.4907078896       13.8268725395       -0.9579158878  MEMB      329             0.0000000000
     40985       329  PMPE      H16T           51.3865134680       13.4496114536       -2.8388100371  MEMB      329             0.0000000000
     40986       329  PMPE      C33            48.4448694544       16.6488916634       -9.9781656462  MEMB      329             0.0000000000
     40987       329  PMPE      H3X            48.6229924752       15.6512644110      -10.2556837889  MEMB      329             0.0000000000
     40988       329  PMPE      H3Y            47.8313521166       16.6531550548       -9.0443278618  MEMB      329             0.0000000000
     40989       329  PMPE      C34            49.8702670198       17.1277273694       -9.8296811338  MEMB      329             0.0000000000
     40990       329  PMPE      H4X            50.3556292453       16.7547918413      -10.7352620328  MEMB      329             0.0000000000
     40991       329  PMPE      H4Y            50.3141567783       16.6669894721       -8.9176099055  MEMB      329             0.0000000000
     40992       329  PMPE      C35            50.1536111210       18.6134143670       -9.8502398662  MEMB      329             0.0000000000
     40993       329  PMPE      H5X            49.5413016000       19.1973562383      -10.5420874792  MEMB      329             0.0000000000
     40994       329  PMPE      H5Y            51.1830050780       18.8404677934      -10.0363292725  MEMB      329             0.0000000000
     40995       329  PMPE      C36            50.1887225099       19.1999894887       -8.5555874007  MEMB      329             0.0000000000
     40996       329  PMPE      H6X            50.4042192756       20.2857437634       -8.3875486029  MEMB      329             0.0000000000
     40997       329  PMPE      H6Y            50.6427498253       18.6457899249       -7.7395905956  MEMB      329             0.0000000000
     40998       329  PMPE      C37            49.0078361692       19.0600981335       -8.2359417312  MEMB      329             0.0000000000
     40999       329  PMPE      H7X            48.5958418216       18.0542609689       -8.2481474354  MEMB      329             0.0000000000
     41000       329  PMPE      H7Y            47.8240257569       18.8573381350       -8.5688881825  MEMB      329             0.0000000000
     41001       329  PMPE      C38            49.0793132734       20.2094641567       -6.7617239142  MEMB      329             0.0000000000
     41002       329  PMPE      H8X            49.0416117984       21.0416263576       -6.6157857038  MEMB      329             0.0000000000
     41003       329  PMPE      H8Y            49.7621452385       19.6043001660       -5.9951637173  MEMB      329             0.0000000000
     41004       329  PMPE      C39            46.6475813486       20.6042480958       -5.9009915010  MEMB      329             0.0000000000
     41005       329  PMPE      H9X            46.3635695741       21.4654913527       -6.3009160858  MEMB      329             0.0000000000
     41006       329  PMPE      H9Y            46.4991487332       20.8217206320       -4.8650852135  MEMB      329             0.0000000000
     41007       329  PMPE      C310           45.5144170348       19.2674084042       -5.4737032657  MEMB      329             0.0000000000
     41008       329  PMPE      H10X           45.5555264510       18.3736382232       -6.1733884676  MEMB      329             0.0000000000
     41009       329  PMPE      H10Y           44.7420272001       19.8897907371       -5.6537689989  MEMB      329             0.0000000000
     41010       329  PMPE      C311           45.8110978735       18.5398939840       -3.9184507400  MEMB      329             0.0000000000
     41011       329  PMPE      H11X           44.9086762381       18.1424619464       -3.6930331774  MEMB      329             0.0000000000
     41012       329  PMPE      H11Y           46.2450075503       19.4618439563       -3.3928491978  MEMB      329             0.0000000000
     41013       329  PMPE      C312           47.0202661023       17.3656562246       -3.6164018549  MEMB      329             0.0000000000
     41014       329  PMPE      H12X           48.1718842234       17.6116566519       -3.4506340569  MEMB      329             0.0000000000
     41015       329  PMPE      H12Y           47.0980051102       16.7461600878       -4.5354856572  MEMB      329             0.0000000000
     41016       329  PMPE      C313           47.1496465220       16.8980759570       -2.2633382975  MEMB      329             0.0000000000
     41017       329  PMPE      H13X           48.0499793265       16.2345543320       -2.1954233582  MEMB      329             0.0000000000
     41018       329  PMPE      H13Y           46.2054646149       16.3750740792       -2.3223011482  MEMB      329             0.0000000000
     41019       329  PMPE      C314           47.0195013964       17.9675936945       -1.1849644529  MEMB      329             0.0000000000
     41020       329  PMPE      H14X           46.3901155310       18.8316967865       -1.5175491827  MEMB      329             0.0000000000
     41021       329  PMPE      H14Y           48.0324425911       18.3612262187       -0.9497179994  MEMB      329             0.0000000000
     41022       329  PMPE      C315           46.4057388343       17.3721066542        0.0983739898  MEMB      329             0.0000000000
     41023       329  PMPE      H15X           47.0886087194       16.5841607121        0.4980640282  MEMB      329             0.0000000000
     41024       329  PMPE      H15Y           45.4195318265       16.8775312121       -0.0961016141  MEMB      329             0.0000000000
     41025       329  PMPE      C316           46.2163652003       18.4503416611        1.1687732297  MEMB      329             0.0000000000
     41026       329  PMPE      H16X           45.4058182665       19.1501317378        0.8725552464  MEMB      329             0.0000000000
     41027       329  PMPE      H16Y           47.1285349319       19.0674209717        1.2662516991  MEMB      329             0.0000000000
     41028       329  PMPE      H16Z           46.0165930727       18.0200224578        2.1741814879  MEMB      329             0.0000000000
     41029       330  OYPE      N             -48.3252416128        9.7496206794      -20.4563736820  MEMB      330             0.0000000000
     41030       330  OYPE      HN1           -48.7784785914        8.8278418219      -20.6599102812  MEMB      330             0.0000000000
     41031       330  OYPE      HN2           -47.6635033821        9.9455535717      -21.2307684447  MEMB      330             0.0000000000
     41032       330  OYPE      HN3           -47.8733378149        9.7469152673      -19.5158318058  MEMB      330             0.0000000000
     41033       330  OYPE      C12           -49.4521463732       10.7502605886      -20.4016824798  MEMB      330             0.0000000000
     41034       330  OYPE      H12A          -49.4401346345       11.2548024343      -21.3863911330  MEMB      330             0.0000000000
     41035       330  OYPE      H12B          -49.1742592200       11.4794382152      -19.6016546349  MEMB      330             0.0000000000
     41036       330  OYPE      C11           -50.8092788834       10.0890808332      -20.0447181503  MEMB      330             0.0000000000
     41037       330  OYPE      H11A          -51.2365155859        9.3971029041      -20.8250560004  MEMB      330             0.0000000000
     41038       330  OYPE      H11B          -51.5468498341       10.9026810398      -19.8668377394  MEMB      330             0.0000000000
     41039       330  OYPE      P             -51.9194058672        8.5693009677      -18.2379373895  MEMB      330             0.0000000000
     41040       330  OYPE      O13           -51.3586743305        7.5597941197      -17.3364292622  MEMB      330             0.0000000000
     41041       330  OYPE      O14           -52.8274962217        8.1315709121      -19.3099761756  MEMB      330             0.0000000000
     41042       330  OYPE      O11           -52.6769200079        9.6884466517      -17.4283594614  MEMB      330             0.0000000000
     41043       330  OYPE      O12           -50.6605639056        9.4040646328      -18.8163835783  MEMB      330             0.0000000000
     41044       330  OYPE      C1            -52.0208850668       10.7995755810      -16.8122357817  MEMB      330             0.0000000000
     41045       330  OYPE      HA            -52.4764374511       11.7095903440      -17.2480184467  MEMB      330             0.0000000000
     41046       330  OYPE      HB            -50.9292270969       10.8884821438      -16.9953447939  MEMB      330             0.0000000000
     41047       330  OYPE      C2            -52.0634072689       10.6807509485      -15.2876706464  MEMB      330             0.0000000000
     41048       330  OYPE      HS            -51.7969568331       11.6805989061      -14.8169434418  MEMB      330             0.0000000000
     41049       330  OYPE      O21           -51.1875065319        9.5961607505      -14.9062663843  MEMB      330             0.0000000000
     41050       330  OYPE      C21           -50.9384929307        9.5782139823      -13.6441895674  MEMB      330             0.0000000000
     41051       330  OYPE      O22           -51.3458437737       10.4388931745      -12.9646908535  MEMB      330             0.0000000000
     41052       330  OYPE      C22           -50.0653517595        8.4967227291      -13.1107496500  MEMB      330             0.0000000000
     41053       330  OYPE      H2R           -49.4178504436        8.2034527384      -13.9451793030  MEMB      330             0.0000000000
     41054       330  OYPE      H2S           -50.7373971801        7.6608853090      -12.8502338915  MEMB      330             0.0000000000
     41055       330  OYPE      C3            -53.4761225951       10.3697417844      -14.9015840438  MEMB      330             0.0000000000
     41056       330  OYPE      HX            -53.9612709938       11.2505784501      -15.3405712191  MEMB      330             0.0000000000
     41057       330  OYPE      HY            -53.5042290690       10.4140904619      -13.8884794487  MEMB      330             0.0000000000
     41058       330  OYPE      O31           -54.0493102067        9.1106289652      -15.2322885062  MEMB      330             0.0000000000
     41059       330  OYPE      C31           -55.0850022538        8.6532992517      -14.5750636276  MEMB      330             0.0000000000
     41060       330  OYPE      O32           -55.8329612509        9.2151819948      -13.8012132476  MEMB      330             0.0000000000
     41061       330  OYPE      C32           -55.1325112836        7.1853991422      -14.7491663084  MEMB      330             0.0000000000
     41062       330  OYPE      H2X           -56.0143610796        6.8552005719      -15.1472415581  MEMB      330             0.0000000000
     41063       330  OYPE      H2Y           -54.4664366260        6.7781778337      -15.4722013747  MEMB      330             0.0000000000
     41064       330  OYPE      C23           -49.2526475027        8.9640382621      -11.8830645232  MEMB      330             0.0000000000
     41065       330  OYPE      H3R           -49.9348018673        9.3182931337      -11.0778075672  MEMB      330             0.0000000000
     41066       330  OYPE      H3S           -48.6069046445        9.8227891327      -12.1568635088  MEMB      330             0.0000000000
     41067       330  OYPE      C24           -48.4105270625        7.8930230361      -11.2234580260  MEMB      330             0.0000000000
     41068       330  OYPE      H4R           -47.5928924740        7.5493475750      -11.8652433963  MEMB      330             0.0000000000
     41069       330  OYPE      H4S           -49.0383960900        7.0276756156      -10.9310193713  MEMB      330             0.0000000000
     41070       330  OYPE      C25           -47.9571933248        8.3718893121       -9.8869021037  MEMB      330             0.0000000000
     41071       330  OYPE      H5R           -48.7506786951        8.9806501041       -9.4011422710  MEMB      330             0.0000000000
     41072       330  OYPE      H5S           -47.1114270390        9.0777379997       -9.9552015728  MEMB      330             0.0000000000
     41073       330  OYPE      C26           -47.7706554309        7.2205084319       -8.9531278794  MEMB      330             0.0000000000
     41074       330  OYPE      H6R           -46.7801231528        6.7954870788       -9.1248214461  MEMB      330             0.0000000000
     41075       330  OYPE      H6S           -48.5031497284        6.3906129435       -9.0127273851  MEMB      330             0.0000000000
     41076       330  OYPE      C27           -47.8930782096        7.8830146262       -7.6316845644  MEMB      330             0.0000000000
     41077       330  OYPE      H7R           -48.8555848097        8.3295467119       -7.3876079723  MEMB      330             0.0000000000
     41078       330  OYPE      H7S           -47.0439775041        8.5922280661       -7.5763034663  MEMB      330             0.0000000000
     41079       330  OYPE      C28           -47.9222540301        6.9400829553       -6.6156800087  MEMB      330             0.0000000000
     41080       330  OYPE      H8R           -47.6357328481        7.4878347531       -5.6907863318  MEMB      330             0.0000000000
     41081       330  OYPE      H8S           -47.2006250989        6.3830526594       -7.0620673117  MEMB      330             0.0000000000
     41082       330  OYPE      C29           -48.6819381596        5.7232664567       -6.6042018821  MEMB      330             0.0000000000
     41083       330  OYPE      H9R           -48.2574552879        4.7654586311       -6.9680355736  MEMB      330             0.0000000000
     41084       330  OYPE      C210          -49.6245369673        5.7490254786       -5.8397699555  MEMB      330             0.0000000000
     41085       330  OYPE      H10R          -50.2570435472        4.9099349463       -6.0469986472  MEMB      330             0.0000000000
     41086       330  OYPE      C211          -49.9755497575        6.9573530217       -5.0157887857  MEMB      330             0.0000000000
     41087       330  OYPE      H11R          -50.6438208581        7.6388455530       -5.5521293630  MEMB      330             0.0000000000
     41088       330  OYPE      H11S          -49.1765578678        7.4290923475       -4.4770334891  MEMB      330             0.0000000000
     41089       330  OYPE      C212          -50.6430875862        6.8456124206       -3.8206364185  MEMB      330             0.0000000000
     41090       330  OYPE      H12R          -50.1156634946        6.1440524098       -3.0364837420  MEMB      330             0.0000000000
     41091       330  OYPE      H12S          -51.4217493786        6.3907029204       -4.6844384826  MEMB      330             0.0000000000
     41092       330  OYPE      C213          -51.6846290858        7.7805228563       -3.0790335638  MEMB      330             0.0000000000
     41093       330  OYPE      H13R          -52.4696358306        7.3107357404       -2.3580206806  MEMB      330             0.0000000000
     41094       330  OYPE      H13S          -52.3597838534        8.1568844370       -3.8604566227  MEMB      330             0.0000000000
     41095       330  OYPE      C214          -50.8300780885        8.6473723126       -2.2825873063  MEMB      330             0.0000000000
     41096       330  OYPE      H14R          -50.1954101390        9.1802239603       -3.0051711364  MEMB      330             0.0000000000
     41097       330  OYPE      H14S          -50.2631100298        7.9755051924       -1.6412282105  MEMB      330             0.0000000000
     41098       330  OYPE      C215          -51.5148183914        9.5697785804       -1.4435171967  MEMB      330             0.0000000000
     41099       330  OYPE      H15R          -51.0271638211       10.3689845307       -0.9071613223  MEMB      330             0.0000000000
     41100       330  OYPE      H15S          -52.3689416362        9.0843951188       -0.9854601770  MEMB      330             0.0000000000
     41101       330  OYPE      C216          -51.9026956650       10.4018536522       -2.3152005703  MEMB      330             0.0000000000
     41102       330  OYPE      H16R          -51.2649158649       11.1086700848       -2.9310720044  MEMB      330             0.0000000000
     41103       330  OYPE      H16S          -52.4250772224       11.2741606017       -2.0475429488  MEMB      330             0.0000000000
     41104       330  OYPE      H16T          -52.8239431955        9.8428158753       -2.7916055820  MEMB      330             0.0000000000
     41105       330  OYPE      C33           -54.9854632296        6.5458201331      -13.4087456513  MEMB      330             0.0000000000
     41106       330  OYPE      H3X           -54.9445653788        5.4470155098      -13.5444148140  MEMB      330             0.0000000000
     41107       330  OYPE      H3Y           -55.9291288663        6.8051976818      -12.8854646258  MEMB      330             0.0000000000
     41108       330  OYPE      C34           -53.7619630501        7.0737688900      -12.6592795238  MEMB      330             0.0000000000
     41109       330  OYPE      H4X           -52.8339512743        6.5976342279      -13.0407873072  MEMB      330             0.0000000000
     41110       330  OYPE      H4Y           -53.6248278308        8.1738974730      -12.7590875522  MEMB      330             0.0000000000
     41111       330  OYPE      C35           -53.9298274617        6.8742673641      -11.1655849665  MEMB      330             0.0000000000
     41112       330  OYPE      H5X           -54.1717414081        5.8068133250      -10.9768315587  MEMB      330             0.0000000000
     41113       330  OYPE      H5Y           -54.7615864816        7.5460956964      -10.8369245729  MEMB      330             0.0000000000
     41114       330  OYPE      C36           -52.6446969126        7.1305055209      -10.3987231325  MEMB      330             0.0000000000
     41115       330  OYPE      H6X           -52.0930815432        6.1628468393      -10.3708314696  MEMB      330             0.0000000000
     41116       330  OYPE      H6Y           -52.0155470736        7.8693544046      -10.9313786395  MEMB      330             0.0000000000
     41117       330  OYPE      C37           -52.8824463823        7.6394811955       -8.9689287903  MEMB      330             0.0000000000
     41118       330  OYPE      H7X           -53.6153016659        7.0031435295       -8.4606558424  MEMB      330             0.0000000000
     41119       330  OYPE      H7Y           -51.9059917928        7.4651515586       -8.4196999438  MEMB      330             0.0000000000
     41120       330  OYPE      C38           -53.5235435657        9.0418481138       -8.8681904831  MEMB      330             0.0000000000
     41121       330  OYPE      H8X           -54.2266928941        9.2211960078       -9.7254262037  MEMB      330             0.0000000000
     41122       330  OYPE      H8Y           -53.8715817471        9.2465360430       -7.8900269111  MEMB      330             0.0000000000
     41123       330  OYPE      C39           -52.2238612085        9.5843560418       -9.0178815191  MEMB      330             0.0000000000
     41124       330  OYPE      H9X           -52.9756537796       10.4980820010       -9.2350626593  MEMB      330             0.0000000000
     41125       330  OYPE      C310          -51.0272433808        9.9239661813       -8.3432510907  MEMB      330             0.0000000000
     41126       330  OYPE      H10X          -50.4073159084       10.8956722876       -8.3403223781  MEMB      330             0.0000000000
     41127       330  OYPE      C311          -50.9733768448        9.7995016091       -6.8880366498  MEMB      330             0.0000000000
     41128       330  OYPE      H11X          -51.9274518436       10.1012277452       -6.3073803928  MEMB      330             0.0000000000
     41129       330  OYPE      H11Y          -51.0114795198        8.8046457739       -6.9988674112  MEMB      330             0.0000000000
     41130       330  OYPE      C312          -49.8142176842       10.7036013145       -6.3687597438  MEMB      330             0.0000000000
     41131       330  OYPE      H12X          -48.8681351562       10.5747154674       -6.8412787195  MEMB      330             0.0000000000
     41132       330  OYPE      H12Y          -49.9187614363       10.4312859877       -5.3476735312  MEMB      330             0.0000000000
     41133       330  OYPE      C313          -49.5847205959       12.1603928554       -6.3356227547  MEMB      330             0.0000000000
     41134       330  OYPE      H13X          -49.7130409056       12.4978765101       -7.3545666902  MEMB      330             0.0000000000
     41135       330  OYPE      H13Y          -50.1306870330       12.9148503816       -5.7774112738  MEMB      330             0.0000000000
     41136       330  OYPE      C314          -48.6286969068       12.6742676896       -5.5240470654  MEMB      330             0.0000000000
     41137       330  OYPE      H14X          -48.8126552186       13.6978648022       -5.5592978228  MEMB      330             0.0000000000
     41138       330  OYPE      H14Y          -47.8942377204       12.6156947381       -6.2541693491  MEMB      330             0.0000000000
     41139       330  OYPE      C315          -48.2664059428       12.4268880939       -4.1298162381  MEMB      330             0.0000000000
     41140       330  OYPE      H15X          -47.2339755841       12.7878138596       -3.9535165982  MEMB      330             0.0000000000
     41141       330  OYPE      H15Y          -48.5536840087       11.4271590524       -4.1236934899  MEMB      330             0.0000000000
     41142       330  OYPE      C316          -49.0518140200       12.9292822146       -3.0257879781  MEMB      330             0.0000000000
     41143       330  OYPE      H16X          -50.0894693879       12.9577037157       -3.4140181105  MEMB      330             0.0000000000
     41144       330  OYPE      H16Y          -48.4620775520       13.8904830286       -3.0209879279  MEMB      330             0.0000000000
     41145       330  OYPE      C317          -48.8774724536       12.5142877381       -1.6969364453  MEMB      330             0.0000000000
     41146       330  OYPE      H17X          -47.8759745365       12.8825902790       -1.5042545391  MEMB      330             0.0000000000
     41147       330  OYPE      H17Y          -49.1758678105       11.4913401857       -1.8626021905  MEMB      330             0.0000000000
     41148       330  OYPE      C318          -49.6777263981       12.9787886116       -0.6182857530  MEMB      330             0.0000000000
     41149       330  OYPE      H18X          -49.4973944159       12.6085100185        0.3406322110  MEMB      330             0.0000000000
     41150       330  OYPE      H18Y          -49.6796250575       14.1063505470       -0.5033000387  MEMB      330             0.0000000000
     41151       330  OYPE      H18Z          -50.7040237205       12.5556773890       -0.8173012746  MEMB      330             0.0000000000
     41152       331  OYPE      N              28.2630237690      -45.2603032176      -19.0023802081  MEMB      331             0.0000000000
     41153       331  OYPE      HN1            29.1517537807      -44.8016656657      -19.2901915230  MEMB      331             0.0000000000
     41154       331  OYPE      HN2            28.3937686616      -45.9593704243      -18.2332809595  MEMB      331             0.0000000000
     41155       331  OYPE      HN3            27.9166488714      -45.7377755507      -19.8605595125  MEMB      331             0.0000000000
     41156       331  OYPE      C12            27.4134033244      -44.0987668267      -18.5513593487  MEMB      331             0.0000000000
     41157       331  OYPE      H12A           27.7344720750      -43.8009520549      -17.5295211684  MEMB      331             0.0000000000
     41158       331  OYPE      H12B           26.3828567169      -44.4686940140      -18.4683173223  MEMB      331             0.0000000000
     41159       331  OYPE      C11            27.5348920996      -42.9354975436      -19.5467878932  MEMB      331             0.0000000000
     41160       331  OYPE      H11A           26.8756495163      -42.1012972840      -19.1969720192  MEMB      331             0.0000000000
     41161       331  OYPE      H11B           27.1265875912      -43.2408065165      -20.5443640628  MEMB      331             0.0000000000
     41162       331  OYPE      P              29.4850215003      -41.1966092506      -19.0303728984  MEMB      331             0.0000000000
     41163       331  OYPE      O13            28.7043675757      -40.0506165251      -19.5001611200  MEMB      331             0.0000000000
     41164       331  OYPE      O14            30.9324617501      -41.1925425953      -19.3093120517  MEMB      331             0.0000000000
     41165       331  OYPE      O11            29.2127719430      -41.3884956277      -17.4877542746  MEMB      331             0.0000000000
     41166       331  OYPE      O12            28.9137479970      -42.5623289765      -19.6634874957  MEMB      331             0.0000000000
     41167       331  OYPE      C1             30.0982950582      -40.5826208431      -16.6849388370  MEMB      331             0.0000000000
     41168       331  OYPE      HA             30.2223264622      -39.5260225496      -17.0571867626  MEMB      331             0.0000000000
     41169       331  OYPE      HB             31.1081216875      -41.0240682399      -16.6821869636  MEMB      331             0.0000000000
     41170       331  OYPE      C2             29.6820485982      -40.6015965342      -15.2219461429  MEMB      331             0.0000000000
     41171       331  OYPE      HS             30.3949892394      -39.9769135750      -14.6299643703  MEMB      331             0.0000000000
     41172       331  OYPE      O21            29.6092195314      -41.9598809554      -14.7050899029  MEMB      331             0.0000000000
     41173       331  OYPE      C21            30.8044120448      -42.4011626260      -14.3571094624  MEMB      331             0.0000000000
     41174       331  OYPE      O22            31.7839677672      -41.7164146382      -14.2913328469  MEMB      331             0.0000000000
     41175       331  OYPE      C22            30.8626638507      -43.8979552532      -14.2385035209  MEMB      331             0.0000000000
     41176       331  OYPE      H2R            31.8814258931      -44.1146801524      -13.8894120840  MEMB      331             0.0000000000
     41177       331  OYPE      H2S            30.7155850000      -44.3399025069      -15.2357264009  MEMB      331             0.0000000000
     41178       331  OYPE      C3             28.3388867239      -39.9325414903      -15.1226098912  MEMB      331             0.0000000000
     41179       331  OYPE      HX             27.6295947934      -40.4931339003      -15.8215243959  MEMB      331             0.0000000000
     41180       331  OYPE      HY             28.3339642128      -38.9011886097      -15.4999022251  MEMB      331             0.0000000000
     41181       331  OYPE      O31            28.1314077959      -39.8094503611      -13.6883566300  MEMB      331             0.0000000000
     41182       331  OYPE      C31            26.9415677493      -40.0306930624      -13.4856815564  MEMB      331             0.0000000000
     41183       331  OYPE      O32            26.2651139651      -40.4439322126      -14.3940675942  MEMB      331             0.0000000000
     41184       331  OYPE      C32            26.6000816690      -39.8577239553      -11.9893725027  MEMB      331             0.0000000000
     41185       331  OYPE      H2X            26.8333660788      -38.9109838007      -11.5690843342  MEMB      331             0.0000000000
     41186       331  OYPE      H2Y            25.5366389087      -39.6384211469      -12.0008264492  MEMB      331             0.0000000000
     41187       331  OYPE      C23            29.8179824049      -44.4683042455      -13.2926816768  MEMB      331             0.0000000000
     41188       331  OYPE      H3R            29.7409674036      -45.5576531377      -13.4634251815  MEMB      331             0.0000000000
     41189       331  OYPE      H3S            28.7766731377      -44.1379998615      -13.4860361622  MEMB      331             0.0000000000
     41190       331  OYPE      C24            30.2413194420      -44.2343155523      -11.8523319560  MEMB      331             0.0000000000
     41191       331  OYPE      H4R            30.6779662423      -43.2150914257      -11.7186706629  MEMB      331             0.0000000000
     41192       331  OYPE      H4S            31.1231113081      -44.8526036961      -11.6169288754  MEMB      331             0.0000000000
     41193       331  OYPE      C25            29.1009003629      -44.5963815341      -10.8901562791  MEMB      331             0.0000000000
     41194       331  OYPE      H5R            28.4669240079      -45.4679020082      -11.1963037521  MEMB      331             0.0000000000
     41195       331  OYPE      H5S            28.4062117265      -43.7354376567      -10.9241611011  MEMB      331             0.0000000000
     41196       331  OYPE      C26            29.5567855938      -44.9251250801       -9.4609927930  MEMB      331             0.0000000000
     41197       331  OYPE      H6R            29.9403064026      -45.9725795846       -9.3957335706  MEMB      331             0.0000000000
     41198       331  OYPE      H6S            28.6363173598      -44.8126315934       -8.8455486028  MEMB      331             0.0000000000
     41199       331  OYPE      C27            30.5799241953      -43.9853394580       -8.8155218884  MEMB      331             0.0000000000
     41200       331  OYPE      H7R            30.0029133093      -43.1541969328       -8.3618667760  MEMB      331             0.0000000000
     41201       331  OYPE      H7S            31.2328952955      -43.5024389736       -9.5628245313  MEMB      331             0.0000000000
     41202       331  OYPE      C28            31.4835399018      -44.6447120035       -7.7512893286  MEMB      331             0.0000000000
     41203       331  OYPE      H8R            32.2934671079      -43.9035146224       -7.5324230148  MEMB      331             0.0000000000
     41204       331  OYPE      H8S            32.0006868934      -45.5406091632       -8.1805347468  MEMB      331             0.0000000000
     41205       331  OYPE      C29            30.6571330992      -44.9651365847       -6.5200981827  MEMB      331             0.0000000000
     41206       331  OYPE      H9R            29.8442591111      -45.7082085579       -6.6221466982  MEMB      331             0.0000000000
     41207       331  OYPE      C210           30.8552469603      -44.4536337928       -5.2967782259  MEMB      331             0.0000000000
     41208       331  OYPE      H10R           30.1904598512      -44.7359826852       -4.4661227513  MEMB      331             0.0000000000
     41209       331  OYPE      C211           31.9166604811      -43.4747192760       -4.8890764495  MEMB      331             0.0000000000
     41210       331  OYPE      H11R           32.8313298773      -43.5186917549       -5.5084668713  MEMB      331             0.0000000000
     41211       331  OYPE      H11S           32.2666214817      -43.7341868560       -3.8654463342  MEMB      331             0.0000000000
     41212       331  OYPE      C212           31.3430113778      -42.0604770903       -4.9841450133  MEMB      331             0.0000000000
     41213       331  OYPE      H12R           30.3756992311      -42.0577532511       -4.4282830131  MEMB      331             0.0000000000
     41214       331  OYPE      H12S           31.1741483139      -41.7430686305       -6.0536545727  MEMB      331             0.0000000000
     41215       331  OYPE      C213           32.2179569350      -41.0155242749       -4.3162623727  MEMB      331             0.0000000000
     41216       331  OYPE      H13R           31.7080797056      -40.0698699254       -4.3461969540  MEMB      331             0.0000000000
     41217       331  OYPE      H13S           33.1375758935      -40.8750925471       -4.7656497011  MEMB      331             0.0000000000
     41218       331  OYPE      C214           32.7506123615      -41.2095933389       -2.9377719007  MEMB      331             0.0000000000
     41219       331  OYPE      H14R           33.4264379402      -40.3707500494       -2.6375715599  MEMB      331             0.0000000000
     41220       331  OYPE      H14S           33.3495512292      -42.1466793422       -2.9051489656  MEMB      331             0.0000000000
     41221       331  OYPE      C215           31.5317455471      -41.3166721038       -2.0964275814  MEMB      331             0.0000000000
     41222       331  OYPE      H15R           31.8368475214      -42.1549682087       -1.4272917340  MEMB      331             0.0000000000
     41223       331  OYPE      H15S           30.7327312579      -41.9260249216       -2.4395633555  MEMB      331             0.0000000000
     41224       331  OYPE      C216           30.9422709499      -39.9834235824       -1.4843364012  MEMB      331             0.0000000000
     41225       331  OYPE      H16R           31.6608570382      -39.4113179325       -0.8353799489  MEMB      331             0.0000000000
     41226       331  OYPE      H16S           30.0846870736      -40.2506154290       -0.8242241060  MEMB      331             0.0000000000
     41227       331  OYPE      H16T           30.6764614615      -39.2370307840       -2.2106086940  MEMB      331             0.0000000000
     41228       331  OYPE      C33            27.1756958558      -41.0766859482      -11.1935279431  MEMB      331             0.0000000000
     41229       331  OYPE      H3X            27.5837066579      -41.8178887887      -11.8769380325  MEMB      331             0.0000000000
     41230       331  OYPE      H3Y            26.5017586536      -41.8134100416      -10.7896654872  MEMB      331             0.0000000000
     41231       331  OYPE      C34            28.1150221502      -40.8292549143      -10.0848455673  MEMB      331             0.0000000000
     41232       331  OYPE      H4X            28.5547933545      -41.8161219796       -9.7788281340  MEMB      331             0.0000000000
     41233       331  OYPE      H4Y            28.8337712403      -40.0890318459      -10.4062839408  MEMB      331             0.0000000000
     41234       331  OYPE      C35            27.4376233654      -40.1946431778       -8.9770476964  MEMB      331             0.0000000000
     41235       331  OYPE      H5X            26.4425788899      -39.8317227511       -9.3434505999  MEMB      331             0.0000000000
     41236       331  OYPE      H5Y            27.9183398809      -39.3052400839       -8.5171455753  MEMB      331             0.0000000000
     41237       331  OYPE      C36            27.3771216535      -41.2687114082       -7.9325441479  MEMB      331             0.0000000000
     41238       331  OYPE      H6X            28.1261535224      -41.3672425065       -7.1602392384  MEMB      331             0.0000000000
     41239       331  OYPE      H6Y            27.1386705068      -40.5357067430       -7.0811005559  MEMB      331             0.0000000000
     41240       331  OYPE      C37            26.4428669100      -42.6798154498       -8.2226586798  MEMB      331             0.0000000000
     41241       331  OYPE      H7X            25.3573238317      -42.4287869607       -8.6090157345  MEMB      331             0.0000000000
     41242       331  OYPE      H7Y            26.7892120132      -43.1123725330       -9.0770876167  MEMB      331             0.0000000000
     41243       331  OYPE      C38            26.3444137731      -43.7429822571       -6.8136235372  MEMB      331             0.0000000000
     41244       331  OYPE      H8X            26.5818224687      -44.6643782066       -7.2265120819  MEMB      331             0.0000000000
     41245       331  OYPE      H8Y            27.2068900231      -43.3387072512       -6.1880162438  MEMB      331             0.0000000000
     41246       331  OYPE      C39            25.1954530702      -43.8263683740       -5.6987708321  MEMB      331             0.0000000000
     41247       331  OYPE      H9X            24.1730462505      -43.6824914916       -6.1263081544  MEMB      331             0.0000000000
     41248       331  OYPE      C310           25.3363149517      -43.3377586278       -4.4188541308  MEMB      331             0.0000000000
     41249       331  OYPE      H10X           24.4398376144      -43.0397107067       -3.8333188994  MEMB      331             0.0000000000
     41250       331  OYPE      C311           26.4935710883      -42.6933228922       -3.7472970020  MEMB      331             0.0000000000
     41251       331  OYPE      H11X           27.1967216289      -42.1434049602       -4.4039348282  MEMB      331             0.0000000000
     41252       331  OYPE      H11Y           26.1048414887      -41.9890266192       -2.9735455484  MEMB      331             0.0000000000
     41253       331  OYPE      C312           27.2354045966      -43.9197489097       -3.1919888865  MEMB      331             0.0000000000
     41254       331  OYPE      H12X           28.2804561569      -43.6299769585       -3.0297188125  MEMB      331             0.0000000000
     41255       331  OYPE      H12Y           27.2777180290      -44.7779498945       -3.9156578982  MEMB      331             0.0000000000
     41256       331  OYPE      C313           26.6126423838      -44.4539247925       -1.9069542198  MEMB      331             0.0000000000
     41257       331  OYPE      H13X           25.9978817965      -43.6719733553       -1.4237512662  MEMB      331             0.0000000000
     41258       331  OYPE      H13Y           26.0125279647      -45.2893411270       -2.2798228166  MEMB      331             0.0000000000
     41259       331  OYPE      C314           27.4732423975      -44.9954953624       -0.7732171282  MEMB      331             0.0000000000
     41260       331  OYPE      H14X           28.0037775589      -45.9254524944       -1.0314780455  MEMB      331             0.0000000000
     41261       331  OYPE      H14Y           26.8236032955      -45.2077871442        0.1152741523  MEMB      331             0.0000000000
     41262       331  OYPE      C315           28.4933464349      -44.0500576479       -0.2662962473  MEMB      331             0.0000000000
     41263       331  OYPE      H15X           28.0403334752      -43.0716722956       -0.0017582785  MEMB      331             0.0000000000
     41264       331  OYPE      H15Y           29.3521228960      -43.9091137985       -0.9717873626  MEMB      331             0.0000000000
     41265       331  OYPE      C316           29.0531668135      -44.6741733136        0.9531199531  MEMB      331             0.0000000000
     41266       331  OYPE      H16X           29.3915294268      -45.6562817556        0.7081552249  MEMB      331             0.0000000000
     41267       331  OYPE      H16Y           28.4354363222      -44.6085141245        1.8791835770  MEMB      331             0.0000000000
     41268       331  OYPE      C317           30.2860309945      -44.1318821356        1.1559056027  MEMB      331             0.0000000000
     41269       331  OYPE      H17X           29.7638839956      -42.9968883110        0.8427819702  MEMB      331             0.0000000000
     41270       331  OYPE      H17Y           31.2150342081      -43.9670137121        0.5966676905  MEMB      331             0.0000000000
     41271       331  OYPE      C318           30.8664302147      -44.5888840003        2.6676327797  MEMB      331             0.0000000000
     41272       331  OYPE      H18X           31.8349638035      -44.3211130093        3.2094670202  MEMB      331             0.0000000000
     41273       331  OYPE      H18Y           30.0889449942      -44.5349253000        3.4023670085  MEMB      331             0.0000000000
     41274       331  OYPE      H18Z           31.2314070871      -45.3725139459        2.9860067566  MEMB      331             0.0000000000
     41275       332  QMPE      N             -20.9906929875      -45.4930035641      -21.3298505240  MEMB      332             0.0000000000
     41276       332  QMPE      HN1           -21.2830534638      -45.3129358190      -22.3118336448  MEMB      332             0.0000000000
     41277       332  QMPE      HN2           -20.7278016095      -44.5621277597      -20.9399829026  MEMB      332             0.0000000000
     41278       332  QMPE      HN3           -20.1558400262      -46.1149763454      -21.2820845538  MEMB      332             0.0000000000
     41279       332  QMPE      C12           -22.1765387961      -46.1410092676      -20.6536657409  MEMB      332             0.0000000000
     41280       332  QMPE      H12A          -22.5711875593      -46.9363367093      -21.3208664675  MEMB      332             0.0000000000
     41281       332  QMPE      H12B          -22.9392542749      -45.3477319776      -20.5615961978  MEMB      332             0.0000000000
     41282       332  QMPE      C11           -21.8187106235      -46.7115638729      -19.2767373374  MEMB      332             0.0000000000
     41283       332  QMPE      H11A          -22.7041125708      -47.0637674972      -18.6934973174  MEMB      332             0.0000000000
     41284       332  QMPE      H11B          -21.3888021491      -45.8593764444      -18.7088345774  MEMB      332             0.0000000000
     41285       332  QMPE      P             -20.2780703997      -48.4857465807      -18.1122569893  MEMB      332             0.0000000000
     41286       332  QMPE      O13           -19.0046638527      -49.1193863120      -18.5197778234  MEMB      332             0.0000000000
     41287       332  QMPE      O14           -21.3291832196      -49.3412544093      -17.5264928175  MEMB      332             0.0000000000
     41288       332  QMPE      O11           -20.0628595311      -47.2124753047      -17.1893144124  MEMB      332             0.0000000000
     41289       332  QMPE      O12           -20.8762611058      -47.7702638332      -19.4275472069  MEMB      332             0.0000000000
     41290       332  QMPE      C1            -19.1092820349      -46.1840684410      -17.4237041835  MEMB      332             0.0000000000
     41291       332  QMPE      HA            -19.5696510068      -45.1746089911      -17.3197295130  MEMB      332             0.0000000000
     41292       332  QMPE      HB            -18.7187196875      -46.2610618263      -18.4657960742  MEMB      332             0.0000000000
     41293       332  QMPE      C2            -17.9614503180      -46.2374003957      -16.3740963389  MEMB      332             0.0000000000
     41294       332  QMPE      HS            -17.2457025372      -45.4395541952      -16.7129804864  MEMB      332             0.0000000000
     41295       332  QMPE      O21           -17.4321554640      -47.5833002852      -16.3470815374  MEMB      332             0.0000000000
     41296       332  QMPE      C21           -16.1593888690      -47.7081696229      -16.0381310765  MEMB      332             0.0000000000
     41297       332  QMPE      O22           -15.3841822129      -46.7703728117      -15.9553198786  MEMB      332             0.0000000000
     41298       332  QMPE      C22           -15.7883608331      -49.1937885160      -15.8958649326  MEMB      332             0.0000000000
     41299       332  QMPE      H2R           -14.7002318723      -49.3209140713      -16.0963738695  MEMB      332             0.0000000000
     41300       332  QMPE      H2S           -16.3822589333      -49.8195817419      -16.6082208692  MEMB      332             0.0000000000
     41301       332  QMPE      C3            -18.3606394360      -45.8218732807      -14.9168613096  MEMB      332             0.0000000000
     41302       332  QMPE      HX            -18.5499502468      -44.7295839203      -14.9293691412  MEMB      332             0.0000000000
     41303       332  QMPE      HY            -17.4964784161      -46.0639206443      -14.2547770086  MEMB      332             0.0000000000
     41304       332  QMPE      O31           -19.5335394493      -46.4810851785      -14.4230722339  MEMB      332             0.0000000000
     41305       332  QMPE      C31           -19.8501428918      -46.2369194490      -13.1648267523  MEMB      332             0.0000000000
     41306       332  QMPE      O32           -19.2105861915      -45.6133447076      -12.3481002362  MEMB      332             0.0000000000
     41307       332  QMPE      C32           -21.1646656893      -46.8484993817      -12.8122128337  MEMB      332             0.0000000000
     41308       332  QMPE      H2X           -21.8961369490      -46.0359945543      -12.5785393450  MEMB      332             0.0000000000
     41309       332  QMPE      H2Y           -21.4753030007      -47.5850657235      -13.5768775014  MEMB      332             0.0000000000
     41310       332  QMPE      C23           -16.0681483840      -49.5839516692      -14.4364108793  MEMB      332             0.0000000000
     41311       332  QMPE      H3R           -15.6186344008      -48.8465828354      -13.7395593577  MEMB      332             0.0000000000
     41312       332  QMPE      H3S           -15.5777003998      -50.5418714762      -14.2161183507  MEMB      332             0.0000000000
     41313       332  QMPE      C24           -17.5634847656      -49.6308312866      -14.1093040221  MEMB      332             0.0000000000
     41314       332  QMPE      H4R           -18.1112313504      -50.1121534376      -14.9500140107  MEMB      332             0.0000000000
     41315       332  QMPE      H4S           -17.9749037965      -48.6080807279      -14.0670498617  MEMB      332             0.0000000000
     41316       332  QMPE      C25           -17.8814503326      -50.3639250486      -12.8028869108  MEMB      332             0.0000000000
     41317       332  QMPE      H5R           -17.5948347610      -51.3592359683      -13.0549616736  MEMB      332             0.0000000000
     41318       332  QMPE      H5S           -18.9475474425      -50.4970578336      -12.6765330162  MEMB      332             0.0000000000
     41319       332  QMPE      C26           -17.2538342364      -49.8301195223      -11.4995384536  MEMB      332             0.0000000000
     41320       332  QMPE      H6R           -17.6615500804      -48.8194774561      -11.3368251545  MEMB      332             0.0000000000
     41321       332  QMPE      H6S           -16.1478043822      -49.7977977360      -11.6459683101  MEMB      332             0.0000000000
     41322       332  QMPE      C27           -17.7098274982      -50.3972885689      -10.1424488119  MEMB      332             0.0000000000
     41323       332  QMPE      H7R           -17.7223659561      -51.3642261800      -10.0553865585  MEMB      332             0.0000000000
     41324       332  QMPE      H7S           -18.7569043576      -50.4642926475       -9.8689397685  MEMB      332             0.0000000000
     41325       332  QMPE      C28           -16.9408470775      -50.1893605285       -8.8900703321  MEMB      332             0.0000000000
     41326       332  QMPE      H8R           -15.8528880671      -50.4071485843       -8.9854313497  MEMB      332             0.0000000000
     41327       332  QMPE      H8S           -17.3336172953      -50.8055216900       -8.0481917006  MEMB      332             0.0000000000
     41328       332  QMPE      C29           -17.3623327746      -48.7910251036       -8.6853872956  MEMB      332             0.0000000000
     41329       332  QMPE      H9R           -18.3411171470      -48.3982917667       -8.8258861859  MEMB      332             0.0000000000
     41330       332  QMPE      C217          -16.3830627357      -47.9603445480       -9.3627163237  MEMB      332             0.0000000000
     41331       332  QMPE      H17R          -15.4177212116      -48.4617355144       -9.5919025425  MEMB      332             0.0000000000
     41332       332  QMPE      H17S          -16.4139898757      -46.8756290379       -9.4280073750  MEMB      332             0.0000000000
     41333       332  QMPE      C210          -16.6652813123      -48.0183860177       -7.7815564480  MEMB      332             0.0000000000
     41334       332  QMPE      H10R          -17.0893205613      -47.1734565682       -7.2205231833  MEMB      332             0.0000000000
     41335       332  QMPE      C211          -16.0622441092      -48.8310845778       -6.8240705771  MEMB      332             0.0000000000
     41336       332  QMPE      H11R          -15.2852427404      -49.6864773315       -7.1454191293  MEMB      332             0.0000000000
     41337       332  QMPE      H11S          -15.6839558831      -47.6198232035       -6.3110812664  MEMB      332             0.0000000000
     41338       332  QMPE      C212          -16.3548567957      -49.5829874256       -5.4510659727  MEMB      332             0.0000000000
     41339       332  QMPE      H12R          -17.1294811779      -50.1277106280       -5.9397735200  MEMB      332             0.0000000000
     41340       332  QMPE      H12S          -16.4887972085      -48.7418257906       -4.7631172156  MEMB      332             0.0000000000
     41341       332  QMPE      C213          -15.3393864677      -50.4792307859       -4.6422786735  MEMB      332             0.0000000000
     41342       332  QMPE      H13R          -14.6750976522      -49.9636009789       -3.8973377418  MEMB      332             0.0000000000
     41343       332  QMPE      H13S          -14.7804323932      -51.1291564606       -5.3451977128  MEMB      332             0.0000000000
     41344       332  QMPE      C214          -16.0593273300      -51.1141902246       -3.4921916191  MEMB      332             0.0000000000
     41345       332  QMPE      H14R          -16.8889652722      -51.6419593779       -3.9733247353  MEMB      332             0.0000000000
     41346       332  QMPE      H14S          -16.3961085059      -50.2491452272       -2.8553164692  MEMB      332             0.0000000000
     41347       332  QMPE      C215          -15.2434909313      -52.0317301912       -2.5922869027  MEMB      332             0.0000000000
     41348       332  QMPE      H15R          -14.3305410400      -51.4874063076       -2.2881437966  MEMB      332             0.0000000000
     41349       332  QMPE      H15S          -14.9440046969      -52.9653658457       -3.1145328573  MEMB      332             0.0000000000
     41350       332  QMPE      C216          -15.9022392867      -52.3092296960       -1.2469338894  MEMB      332             0.0000000000
     41351       332  QMPE      H16R          -16.3869033833      -51.3806070477       -0.8857438614  MEMB      332             0.0000000000
     41352       332  QMPE      H16S          -15.1424536116      -52.5824871459       -0.4866256979  MEMB      332             0.0000000000
     41353       332  QMPE      H16T          -16.6452144256      -53.1231735938       -1.3014527656  MEMB      332             0.0000000000
     41354       332  QMPE      C33           -20.9589175118      -47.5968469298      -11.5244386318  MEMB      332             0.0000000000
     41355       332  QMPE      H3X           -20.3929827900      -46.9239228324      -10.8358215422  MEMB      332             0.0000000000
     41356       332  QMPE      H3Y           -20.2994694173      -48.4707979619      -11.6158294213  MEMB      332             0.0000000000
     41357       332  QMPE      C34           -22.2579814492      -48.0912065220      -10.9386118030  MEMB      332             0.0000000000
     41358       332  QMPE      H4X           -22.7965292983      -48.5723756131      -11.6326622568  MEMB      332             0.0000000000
     41359       332  QMPE      H4Y           -22.9552765636      -47.2039976565      -10.7930113484  MEMB      332             0.0000000000
     41360       332  QMPE      C35           -21.8309870995      -49.0333793416       -9.7282407013  MEMB      332             0.0000000000
     41361       332  QMPE      H5X           -21.1307756116      -49.6978880219       -9.6162266802  MEMB      332             0.0000000000
     41362       332  QMPE      H5Y           -22.5193950357      -49.7451580002       -9.7099844941  MEMB      332             0.0000000000
     41363       332  QMPE      C36           -21.0322282021      -48.6146054270       -8.2448532541  MEMB      332             0.0000000000
     41364       332  QMPE      H6X           -21.8375293359      -48.4646752637       -7.7922046349  MEMB      332             0.0000000000
     41365       332  QMPE      H6Y           -20.6485941565      -47.5514220827       -7.9488018835  MEMB      332             0.0000000000
     41366       332  QMPE      C37           -20.6823666747      -49.1809372876       -7.0384412253  MEMB      332             0.0000000000
     41367       332  QMPE      H7X           -21.4693779705      -49.9744033034       -7.0230195794  MEMB      332             0.0000000000
     41368       332  QMPE      H7Y           -19.9019820734      -49.3737842962       -7.5735137453  MEMB      332             0.0000000000
     41369       332  QMPE      C38           -20.2190314994      -48.1489778515       -5.8453884778  MEMB      332             0.0000000000
     41370       332  QMPE      H8X           -20.0167043083      -47.1609941859       -6.3127653788  MEMB      332             0.0000000000
     41371       332  QMPE      H8Y           -20.8592272244      -47.7588901903       -4.9604834357  MEMB      332             0.0000000000
     41372       332  QMPE      C39           -19.7690248346      -48.7315300733       -4.6415925759  MEMB      332             0.0000000000
     41373       332  QMPE      H9X           -18.8819331122      -48.9776387937       -5.1654662805  MEMB      332             0.0000000000
     41374       332  QMPE      H9Y           -20.4359491287      -49.6082389672       -4.4249789472  MEMB      332             0.0000000000
     41375       332  QMPE      C310          -19.5958812529      -47.6570374682       -3.5767371009  MEMB      332             0.0000000000
     41376       332  QMPE      H10X          -20.4410776383      -46.9393538440       -3.4234869176  MEMB      332             0.0000000000
     41377       332  QMPE      H10Y          -18.9698022858      -46.8777909943       -3.9872887854  MEMB      332             0.0000000000
     41378       332  QMPE      C311          -19.1640653523      -48.4729526917       -2.4602039668  MEMB      332             0.0000000000
     41379       332  QMPE      H11X          -18.1235125848      -48.8060969169       -2.5553237932  MEMB      332             0.0000000000
     41380       332  QMPE      H11Y          -19.8722656580      -49.2229534773       -2.1113305197  MEMB      332             0.0000000000
     41381       332  QMPE      C312          -19.2550815570      -47.7070645415       -1.3693222109  MEMB      332             0.0000000000
     41382       332  QMPE      H12X          -19.5533991168      -46.6601235367       -1.7654772935  MEMB      332             0.0000000000
     41383       332  QMPE      H12Y          -18.3692852355      -47.4395301318       -1.3035162209  MEMB      332             0.0000000000
     41384       332  QMPE      C313          -19.5780436765      -48.3591424913        0.0679379637  MEMB      332             0.0000000000
     41385       332  QMPE      H13X          -18.6668893278      -48.8415463610        0.4075913417  MEMB      332             0.0000000000
     41386       332  QMPE      H13Y          -19.6289544363      -47.7562939377        1.0268007592  MEMB      332             0.0000000000
     41387       332  QMPE      C314          -20.9350708860      -48.8723612089        0.2606588234  MEMB      332             0.0000000000
     41388       332  QMPE      H14X          -20.9090701935      -49.7801640484       -0.2570160185  MEMB      332             0.0000000000
     41389       332  QMPE      H14Y          -21.9401857958      -48.6202417509       -0.0029232295  MEMB      332             0.0000000000
     41390       332  QMPE      C315          -21.9146039282      -48.4181759077        1.2842957121  MEMB      332             0.0000000000
     41391       332  QMPE      H15X          -21.8892603126      -47.6521607745        2.0140839412  MEMB      332             0.0000000000
     41392       332  QMPE      H15Y          -22.5767992109      -49.1415035392        1.5590979494  MEMB      332             0.0000000000
     41393       332  QMPE      H15Z          -21.1878967726      -48.6348351010        1.7762185812  MEMB      332             0.0000000000
     41394       333  OYPE      N             -30.4703679905       39.7345846395      -20.9473707127  MEMB      333             0.0000000000
     41395       333  OYPE      HN1           -30.5237982672       39.0225930943      -21.7062845362  MEMB      333             0.0000000000
     41396       333  OYPE      HN2           -29.5250402239       40.1443188094      -20.8134545468  MEMB      333             0.0000000000
     41397       333  OYPE      HN3           -30.8612386072       39.4263131549      -20.0313782066  MEMB      333             0.0000000000
     41398       333  OYPE      C12           -31.3879311353       40.8352173709      -21.3228399767  MEMB      333             0.0000000000
     41399       333  OYPE      H12A          -32.3951356676       40.4222108312      -21.1111679547  MEMB      333             0.0000000000
     41400       333  OYPE      H12B          -31.2879025171       41.0011040168      -22.4063916579  MEMB      333             0.0000000000
     41401       333  OYPE      C11           -31.0309024502       42.0366347170      -20.4597265413  MEMB      333             0.0000000000
     41402       333  OYPE      H11A          -31.6048391059       42.9100326471      -20.8133069828  MEMB      333             0.0000000000
     41403       333  OYPE      H11B          -29.9394266116       42.2803346371      -20.5822480472  MEMB      333             0.0000000000
     41404       333  OYPE      P             -30.9299979548       42.4517994549      -17.7812489436  MEMB      333             0.0000000000
     41405       333  OYPE      O13           -31.9837130983       42.3263937723      -16.7482818177  MEMB      333             0.0000000000
     41406       333  OYPE      O14           -30.4726642650       43.7598650355      -18.2330183903  MEMB      333             0.0000000000
     41407       333  OYPE      O11           -29.6236374553       41.6916080096      -17.3290599827  MEMB      333             0.0000000000
     41408       333  OYPE      O12           -31.4025995667       41.6927560907      -19.1188368430  MEMB      333             0.0000000000
     41409       333  OYPE      C1            -29.1444220831       40.6001726421      -18.0525864417  MEMB      333             0.0000000000
     41410       333  OYPE      HA            -29.1398632264       40.8585750490      -19.1281994449  MEMB      333             0.0000000000
     41411       333  OYPE      HB            -29.7480747538       39.7201148641      -17.8319020856  MEMB      333             0.0000000000
     41412       333  OYPE      C2            -27.7800295412       40.1274951429      -17.6254562467  MEMB      333             0.0000000000
     41413       333  OYPE      HS            -27.4681783367       39.2262456056      -18.1922271492  MEMB      333             0.0000000000
     41414       333  OYPE      O21           -27.5382141916       39.8307777097      -16.2852099136  MEMB      333             0.0000000000
     41415       333  OYPE      C21           -28.2513705768       39.1211979238      -15.5181505053  MEMB      333             0.0000000000
     41416       333  OYPE      O22           -29.0316302172       38.2725553054      -15.9076956963  MEMB      333             0.0000000000
     41417       333  OYPE      C22           -27.8994192953       39.3688956568      -14.0483651939  MEMB      333             0.0000000000
     41418       333  OYPE      H2R           -28.0666627103       40.4360617193      -13.7931678578  MEMB      333             0.0000000000
     41419       333  OYPE      H2S           -26.8475910270       39.0959007457      -13.8954816803  MEMB      333             0.0000000000
     41420       333  OYPE      C3            -26.7990561132       41.1454123526      -18.0475711327  MEMB      333             0.0000000000
     41421       333  OYPE      HX            -27.0595124184       41.1344333974      -19.1423897116  MEMB      333             0.0000000000
     41422       333  OYPE      HY            -25.8396918645       40.6124292433      -17.6984206089  MEMB      333             0.0000000000
     41423       333  OYPE      O31           -26.5401472298       42.5641281736      -17.7308400526  MEMB      333             0.0000000000
     41424       333  OYPE      C31           -27.0713772099       43.6994617244      -18.2272910021  MEMB      333             0.0000000000
     41425       333  OYPE      O32           -27.4815382602       43.7330981889      -19.3597943653  MEMB      333             0.0000000000
     41426       333  OYPE      C32           -27.0480106417       45.1621204776      -17.1366181082  MEMB      333             0.0000000000
     41427       333  OYPE      H2X           -26.1130893972       45.6344395046      -17.4497777808  MEMB      333             0.0000000000
     41428       333  OYPE      H2Y           -27.8851823621       45.5005929035      -17.3484603998  MEMB      333             0.0000000000
     41429       333  OYPE      C23           -28.6551872374       38.4892743017      -13.0553892476  MEMB      333             0.0000000000
     41430       333  OYPE      H3R           -28.4642372924       37.4133308289      -13.2498838927  MEMB      333             0.0000000000
     41431       333  OYPE      H3S           -29.7439764901       38.6795578848      -13.1533752034  MEMB      333             0.0000000000
     41432       333  OYPE      C24           -28.2124008404       38.8080613852      -11.6309941998  MEMB      333             0.0000000000
     41433       333  OYPE      H4R           -28.4014150697       39.8834307070      -11.4605085977  MEMB      333             0.0000000000
     41434       333  OYPE      H4S           -27.1239912374       38.6295057891      -11.4864450360  MEMB      333             0.0000000000
     41435       333  OYPE      C25           -28.9490033891       38.0289020399      -10.5599138363  MEMB      333             0.0000000000
     41436       333  OYPE      H5R           -29.1196942939       36.9947622036      -10.9370821007  MEMB      333             0.0000000000
     41437       333  OYPE      H5S           -29.9406233848       38.4851998407      -10.3794752338  MEMB      333             0.0000000000
     41438       333  OYPE      C26           -28.1109346128       37.9692039409       -9.3004133795  MEMB      333             0.0000000000
     41439       333  OYPE      H6R           -27.1005284593       37.6171306465       -9.5659102205  MEMB      333             0.0000000000
     41440       333  OYPE      H6S           -28.5587890176       37.2042107610       -8.6825744554  MEMB      333             0.0000000000
     41441       333  OYPE      C27           -27.7199336418       39.2718653357       -8.6051132859  MEMB      333             0.0000000000
     41442       333  OYPE      H7R           -28.5656838034       39.9052649952       -8.3985006003  MEMB      333             0.0000000000
     41443       333  OYPE      H7S           -27.0610915730       39.8166145699       -9.3021694759  MEMB      333             0.0000000000
     41444       333  OYPE      C28           -26.7881562510       39.2399941599       -7.3947168614  MEMB      333             0.0000000000
     41445       333  OYPE      H8R           -26.3429920388       40.1551575878       -7.1656827018  MEMB      333             0.0000000000
     41446       333  OYPE      H8S           -25.9097058423       38.6341444126       -7.8342088509  MEMB      333             0.0000000000
     41447       333  OYPE      C29           -27.3563057839       39.1570272012       -5.9428509086  MEMB      333             0.0000000000
     41448       333  OYPE      H9R           -28.2979786814       38.4714376404       -6.1940712223  MEMB      333             0.0000000000
     41449       333  OYPE      C210          -26.5443614136       38.8952888025       -4.7278306168  MEMB      333             0.0000000000
     41450       333  OYPE      H10R          -26.8517505834       38.1625952736       -3.8477237691  MEMB      333             0.0000000000
     41451       333  OYPE      C211          -24.9865695171       38.5949531225       -4.6442954949  MEMB      333             0.0000000000
     41452       333  OYPE      H11R          -24.3934369481       38.7757370265       -5.5845980310  MEMB      333             0.0000000000
     41453       333  OYPE      H11S          -24.5819001833       37.5069031734       -4.4508883513  MEMB      333             0.0000000000
     41454       333  OYPE      C212          -24.8988306914       39.4086483817       -3.5904245036  MEMB      333             0.0000000000
     41455       333  OYPE      H12R          -25.3387551290       40.3900030321       -3.7092311757  MEMB      333             0.0000000000
     41456       333  OYPE      H12S          -23.8071882896       39.5616804312       -3.7659264655  MEMB      333             0.0000000000
     41457       333  OYPE      C213          -25.3814566003       38.7085523070       -2.2953895009  MEMB      333             0.0000000000
     41458       333  OYPE      H13R          -26.3612573758       38.8722991169       -1.9379622230  MEMB      333             0.0000000000
     41459       333  OYPE      H13S          -24.8472420595       39.4134218580       -1.6371791224  MEMB      333             0.0000000000
     41460       333  OYPE      C214          -25.0208160892       37.1732469972       -2.1461879111  MEMB      333             0.0000000000
     41461       333  OYPE      H14R          -24.0285535366       36.8499644001       -2.1979710738  MEMB      333             0.0000000000
     41462       333  OYPE      H14S          -25.2982074039       36.5348646778       -2.9267765468  MEMB      333             0.0000000000
     41463       333  OYPE      C215          -25.2253648981       36.4838499847       -0.9498526766  MEMB      333             0.0000000000
     41464       333  OYPE      H15R          -24.9357629663       36.6274270971       -0.0320704539  MEMB      333             0.0000000000
     41465       333  OYPE      H15S          -24.5208641884       35.7095677211       -0.6129843858  MEMB      333             0.0000000000
     41466       333  OYPE      C216          -26.3564409968       36.6196351485       -0.3782803759  MEMB      333             0.0000000000
     41467       333  OYPE      H16R          -26.5538380247       35.6921379104        0.2121605947  MEMB      333             0.0000000000
     41468       333  OYPE      H16S          -26.5189112818       36.1372619579       -0.9945139410  MEMB      333             0.0000000000
     41469       333  OYPE      H16T          -27.2600701917       37.1971994870       -0.5462833959  MEMB      333             0.0000000000
     41470       333  OYPE      C33           -27.3735779188       44.9901345439      -14.9216107086  MEMB      333             0.0000000000
     41471       333  OYPE      H3X           -26.7318873348       45.6440853154      -15.2295538759  MEMB      333             0.0000000000
     41472       333  OYPE      H3Y           -26.7943727636       44.1593561164      -14.4594492521  MEMB      333             0.0000000000
     41473       333  OYPE      C34           -28.1834471944       43.9019206849      -14.4671175909  MEMB      333             0.0000000000
     41474       333  OYPE      H4X           -28.8903646925       44.3224488358      -15.1451019988  MEMB      333             0.0000000000
     41475       333  OYPE      H4Y           -28.3436467025       42.9333973670      -14.8210166945  MEMB      333             0.0000000000
     41476       333  OYPE      C35           -27.9018909976       43.7960364293      -12.9794127944  MEMB      333             0.0000000000
     41477       333  OYPE      H5X           -27.8081848171       44.8037874913      -12.5022363529  MEMB      333             0.0000000000
     41478       333  OYPE      H5Y           -26.9178536225       43.2390957804      -12.7637208594  MEMB      333             0.0000000000
     41479       333  OYPE      C36           -29.1656169478       43.0760490235      -12.7135727218  MEMB      333             0.0000000000
     41480       333  OYPE      H6X           -29.1564848708       42.0911213709      -13.2243220092  MEMB      333             0.0000000000
     41481       333  OYPE      H6Y           -29.0515403025       42.9613215991      -11.6509486996  MEMB      333             0.0000000000
     41482       333  OYPE      C37           -30.5916531226       43.5917118083      -13.1037535299  MEMB      333             0.0000000000
     41483       333  OYPE      H7X           -30.8597139958       44.6113665537      -13.2735708027  MEMB      333             0.0000000000
     41484       333  OYPE      H7Y           -30.9315497113       43.2795205083      -14.0968054745  MEMB      333             0.0000000000
     41485       333  OYPE      C38           -31.6456592305       43.2650174721      -12.0798330411  MEMB      333             0.0000000000
     41486       333  OYPE      H8X           -31.4220287273       43.6246872404      -11.0935970039  MEMB      333             0.0000000000
     41487       333  OYPE      H8Y           -32.6099268028       43.7303600479      -12.3710508886  MEMB      333             0.0000000000
     41488       333  OYPE      C39           -31.6883449415       41.7929158979      -12.0222008048  MEMB      333             0.0000000000
     41489       333  OYPE      H9X           -32.0409375599       41.3907597525      -12.9721027338  MEMB      333             0.0000000000
     41490       333  OYPE      C310          -31.4228401215       41.0385626014      -10.9333090568  MEMB      333             0.0000000000
     41491       333  OYPE      H10X          -31.4992188951       39.9446705504      -10.9571173761  MEMB      333             0.0000000000
     41492       333  OYPE      C311          -31.0443941347       41.6379154607       -9.6013660720  MEMB      333             0.0000000000
     41493       333  OYPE      H11X          -29.9798300880       41.9534399367       -9.5947568875  MEMB      333             0.0000000000
     41494       333  OYPE      H11Y          -31.6327662621       42.5696879513       -9.4683017283  MEMB      333             0.0000000000
     41495       333  OYPE      C312          -31.1075046884       40.8206862056       -8.2906448104  MEMB      333             0.0000000000
     41496       333  OYPE      H12X          -30.3949673290       41.3588965026       -7.6148350810  MEMB      333             0.0000000000
     41497       333  OYPE      H12Y          -30.6768209888       39.8058518477       -8.4025905655  MEMB      333             0.0000000000
     41498       333  OYPE      C313          -32.4958497139       40.7790641654       -7.6124396854  MEMB      333             0.0000000000
     41499       333  OYPE      H13X          -33.0530299492       41.6781565826       -7.9072309696  MEMB      333             0.0000000000
     41500       333  OYPE      H13Y          -33.1401407575       39.9913120748       -8.0232417848  MEMB      333             0.0000000000
     41501       333  OYPE      C314          -32.4581842577       40.6912510743       -6.0676746189  MEMB      333             0.0000000000
     41502       333  OYPE      H14X          -33.4333561017       40.9408757177       -5.5822333474  MEMB      333             0.0000000000
     41503       333  OYPE      H14Y          -31.7273550621       41.4638584535       -5.7554433018  MEMB      333             0.0000000000
     41504       333  OYPE      C315          -32.0604374971       39.3276118614       -5.4885596994  MEMB      333             0.0000000000
     41505       333  OYPE      H15X          -31.1402268348       38.9760918158       -6.0129353206  MEMB      333             0.0000000000
     41506       333  OYPE      H15Y          -32.9018858386       38.6268555576       -5.6998095078  MEMB      333             0.0000000000
     41507       333  OYPE      C316          -31.7497240781       39.4335510238       -3.9834187736  MEMB      333             0.0000000000
     41508       333  OYPE      H16X          -32.6577318345       39.7471543675       -3.4084303970  MEMB      333             0.0000000000
     41509       333  OYPE      H16Y          -30.9799299782       40.2423736017       -3.9142562647  MEMB      333             0.0000000000
     41510       333  OYPE      C317          -31.1022580289       38.1519347103       -3.4610434856  MEMB      333             0.0000000000
     41511       333  OYPE      H17X          -30.1091684728       38.0327506409       -3.9492383747  MEMB      333             0.0000000000
     41512       333  OYPE      H17Y          -31.7003315717       37.2415600784       -3.5644555091  MEMB      333             0.0000000000
     41513       333  OYPE      C318          -30.7568654369       38.1024542624       -2.0806753366  MEMB      333             0.0000000000
     41514       333  OYPE      H18X          -30.3922328151       37.1222323650       -1.6396381082  MEMB      333             0.0000000000
     41515       333  OYPE      H18Y          -29.8907180398       38.8425881908       -2.0374403089  MEMB      333             0.0000000000
     41516       333  OYPE      H18Z          -31.5525401193       38.4233625745       -1.3905484837  MEMB      333             0.0000000000
     41517       334  PMPG      C13             9.2672077525      -50.9284712158      -21.4026867918  MEMB      334             0.0000000000
     41518       334  PMPG      H13A            8.6126640264      -51.8401792258      -21.4332876831  MEMB      334             0.0000000000
     41519       334  PMPG      H13B            8.6145156965      -50.0570837734      -21.5697211237  MEMB      334             0.0000000000
     41520       334  PMPG      OC3            10.2755656627      -50.8800115121      -22.4183875274  MEMB      334             0.0000000000
     41521       334  PMPG      HO3            10.9007105264      -50.1581204661      -22.2165328974  MEMB      334             0.0000000000
     41522       334  PMPG      C12             9.9702851285      -50.8704478883      -20.0386560100  MEMB      334             0.0000000000
     41523       334  PMPG      H12A           10.6680652362      -50.0015591179      -20.0741210911  MEMB      334             0.0000000000
     41524       334  PMPG      OC2            10.7732550001      -52.0449304779      -19.8287384861  MEMB      334             0.0000000000
     41525       334  PMPG      HO2            11.0699059831      -51.9754867400      -18.9224094873  MEMB      334             0.0000000000
     41526       334  PMPG      C11             9.0052492362      -50.6427621254      -18.8545425706  MEMB      334             0.0000000000
     41527       334  PMPG      H11A            8.4441417016      -49.6787140862      -18.9337596518  MEMB      334             0.0000000000
     41528       334  PMPG      H11B            9.6810965816      -50.4862087024      -17.9897091543  MEMB      334             0.0000000000
     41529       334  PMPG      P               7.0779067517      -51.5845360514      -17.4931983319  MEMB      334             0.0000000000
     41530       334  PMPG      O13             6.0780103444      -52.6769452520      -17.6016303633  MEMB      334             0.0000000000
     41531       334  PMPG      O14             6.5943034959      -50.2239705083      -17.5689088869  MEMB      334             0.0000000000
     41532       334  PMPG      O11             8.0059051762      -51.6520480432      -16.2123587519  MEMB      334             0.0000000000
     41533       334  PMPG      O12             8.1257270599      -51.7689025051      -18.6638644481  MEMB      334             0.0000000000
     41534       334  PMPG      C1              9.0078601278      -52.6045639616      -16.2493840317  MEMB      334             0.0000000000
     41535       334  PMPG      HA              9.6600664697      -52.5446205655      -15.3259743522  MEMB      334             0.0000000000
     41536       334  PMPG      HB              9.6594002334      -52.5966352440      -17.1799344178  MEMB      334             0.0000000000
     41537       334  PMPG      C2              8.3089313887      -53.8744927716      -16.2688928864  MEMB      334             0.0000000000
     41538       334  PMPG      HS              7.8008460263      -54.3229399252      -17.1391716994  MEMB      334             0.0000000000
     41539       334  PMPG      O21             7.5492797933      -53.9905959898      -15.1068790599  MEMB      334             0.0000000000
     41540       334  PMPG      C21             6.6254805286      -54.8450317976      -15.0588113968  MEMB      334             0.0000000000
     41541       334  PMPG      O22             6.2295619597      -55.6592587864      -15.8887773778  MEMB      334             0.0000000000
     41542       334  PMPG      C22             5.9557638576      -54.5239340912      -13.7643443558  MEMB      334             0.0000000000
     41543       334  PMPG      H2R             5.8795397624      -55.4124842422      -13.4592020693  MEMB      334             0.0000000000
     41544       334  PMPG      H2S             4.9079467500      -54.6725844594      -13.6338249996  MEMB      334             0.0000000000
     41545       334  PMPG      C3              9.6613289582      -54.3009469725      -16.2379753090  MEMB      334             0.0000000000
     41546       334  PMPG      HX              9.9628101125      -55.0252742111      -17.0586762867  MEMB      334             0.0000000000
     41547       334  PMPG      HY              9.1247773936      -55.4220147434      -16.5695703157  MEMB      334             0.0000000000
     41548       334  PMPG      O31            10.5903192737      -54.0753713595      -14.5142033350  MEMB      334             0.0000000000
     41549       334  PMPG      C31            10.6633317731      -54.9976149665      -13.0474537548  MEMB      334             0.0000000000
     41550       334  PMPG      O32            10.3141528307      -56.1067600440      -12.7869513948  MEMB      334             0.0000000000
     41551       334  PMPG      C32            11.2222793311      -54.8503351180      -12.1669509034  MEMB      334             0.0000000000
     41552       334  PMPG      H2X            11.5069791756      -53.8916011555      -12.4538747479  MEMB      334             0.0000000000
     41553       334  PMPG      H2Y            11.9187341017      -55.7213449652      -12.3065392175  MEMB      334             0.0000000000
     41554       334  PMPG      C23             6.7174457116      -53.7782179954      -12.6705904437  MEMB      334             0.0000000000
     41555       334  PMPG      H3R             6.8090407383      -52.8123339743      -13.1184828315  MEMB      334             0.0000000000
     41556       334  PMPG      H3S             7.7698299788      -54.0639428969      -12.5901332053  MEMB      334             0.0000000000
     41557       334  PMPG      C24             6.0900878088      -53.7835885359      -11.2630789614  MEMB      334             0.0000000000
     41558       334  PMPG      H4R             6.2579045026      -54.7168709427      -10.6913037359  MEMB      334             0.0000000000
     41559       334  PMPG      H4S             4.9964611448      -53.6349518178      -11.3000577308  MEMB      334             0.0000000000
     41560       334  PMPG      C25             6.7895061631      -52.8648241739      -10.3234990087  MEMB      334             0.0000000000
     41561       334  PMPG      H5R             7.8949977394      -52.9360742021      -10.3800243965  MEMB      334             0.0000000000
     41562       334  PMPG      H5S             6.4851028285      -53.1295210228       -9.2932431808  MEMB      334             0.0000000000
     41563       334  PMPG      C26             6.4834595963      -51.5072975350      -10.6320651526  MEMB      334             0.0000000000
     41564       334  PMPG      H6R             5.3667386539      -51.2769144810      -10.6602281124  MEMB      334             0.0000000000
     41565       334  PMPG      H6S             6.9311483990      -51.2240466144      -11.6455858827  MEMB      334             0.0000000000
     41566       334  PMPG      C27             7.1952805066      -50.7110451441       -9.5608850700  MEMB      334             0.0000000000
     41567       334  PMPG      H7R             6.6996101274      -50.0894179972      -10.1297918691  MEMB      334             0.0000000000
     41568       334  PMPG      H7S             8.2128635878      -50.3485573740       -9.6526980784  MEMB      334             0.0000000000
     41569       334  PMPG      C28             6.6179544709      -50.4657319084       -8.1804846734  MEMB      334             0.0000000000
     41570       334  PMPG      H8R             6.8621481179      -51.4834784652       -7.8643992290  MEMB      334             0.0000000000
     41571       334  PMPG      H8S             5.5513675067      -50.1464511087       -8.1752917250  MEMB      334             0.0000000000
     41572       334  PMPG      C29             7.3387855697      -49.4486610047       -7.3647515295  MEMB      334             0.0000000000
     41573       334  PMPG      H9R             8.4273463744      -49.2184177256       -7.4966572667  MEMB      334             0.0000000000
     41574       334  PMPG      C217            6.5331020292      -48.2676843306       -6.9019761616  MEMB      334             0.0000000000
     41575       334  PMPG      H17R            7.2042596443      -47.4892237704       -6.7681566411  MEMB      334             0.0000000000
     41576       334  PMPG      H17S            5.5353339718      -48.0727370685       -7.2437792710  MEMB      334             0.0000000000
     41577       334  PMPG      C210            6.8620689749      -49.2863708873       -5.9996607472  MEMB      334             0.0000000000
     41578       334  PMPG      H10R            7.8457217127      -49.0410824664       -5.5776140610  MEMB      334             0.0000000000
     41579       334  PMPG      C211            5.5095023786      -49.6812940194       -5.4042764297  MEMB      334             0.0000000000
     41580       334  PMPG      H11R            5.2066916268      -49.0508980394       -4.5723375747  MEMB      334             0.0000000000
     41581       334  PMPG      H11S            4.7076529476      -49.4907531554       -6.1467320227  MEMB      334             0.0000000000
     41582       334  PMPG      C212            5.4352588125      -51.1606112082       -5.0661823976  MEMB      334             0.0000000000
     41583       334  PMPG      H12R            5.7908974518      -51.6576349808       -6.0016719263  MEMB      334             0.0000000000
     41584       334  PMPG      H12S            4.3984406578      -51.4381698529       -4.7894538307  MEMB      334             0.0000000000
     41585       334  PMPG      C213            6.3803896264      -51.5898359170       -3.9755848664  MEMB      334             0.0000000000
     41586       334  PMPG      H13R            7.2561169019      -51.0117396871       -4.3354941722  MEMB      334             0.0000000000
     41587       334  PMPG      H13S            6.7562229131      -52.6086807667       -4.0759399060  MEMB      334             0.0000000000
     41588       334  PMPG      C214            5.9578362806      -51.3580697165       -2.4774005365  MEMB      334             0.0000000000
     41589       334  PMPG      H14R            5.7192290335      -50.2763237090       -2.3652276854  MEMB      334             0.0000000000
     41590       334  PMPG      H14S            6.8552798255      -51.5978652527       -1.8240686902  MEMB      334             0.0000000000
     41591       334  PMPG      C215            4.7824661402      -52.1214444030       -1.9828745763  MEMB      334             0.0000000000
     41592       334  PMPG      H15R            3.9115194377      -51.8849230262       -2.5868478620  MEMB      334             0.0000000000
     41593       334  PMPG      H15S            4.5396954827      -51.8709324749       -0.9330208291  MEMB      334             0.0000000000
     41594       334  PMPG      C216            4.8905675033      -53.5944034663       -2.1115533713  MEMB      334             0.0000000000
     41595       334  PMPG      H16R            3.9920813012      -54.0381268645       -1.6155313888  MEMB      334             0.0000000000
     41596       334  PMPG      H16S            5.8721985140      -53.8184056348       -1.6780713111  MEMB      334             0.0000000000
     41597       334  PMPG      H16T            4.9530805901      -53.9443604434       -3.1446467911  MEMB      334             0.0000000000
     41598       334  PMPG      C33            10.5293585742      -55.1866979350      -10.8874991103  MEMB      334             0.0000000000
     41599       334  PMPG      H3X            10.3644409857      -56.2939995040      -10.7174931776  MEMB      334             0.0000000000
     41600       334  PMPG      H3Y             9.5921019418      -54.6368682899      -10.8836008452  MEMB      334             0.0000000000
     41601       334  PMPG      C34            11.3570539823      -54.6664110555       -9.8081501507  MEMB      334             0.0000000000
     41602       334  PMPG      H4X            11.7299885973      -53.6273184245      -10.0338683360  MEMB      334             0.0000000000
     41603       334  PMPG      H4Y            12.1788658205      -55.4247751307       -9.8391011329  MEMB      334             0.0000000000
     41604       334  PMPG      C35            10.8362915882      -54.7933811884       -8.4536980694  MEMB      334             0.0000000000
     41605       334  PMPG      H5X            10.7676084777      -55.8649755912       -8.2862314084  MEMB      334             0.0000000000
     41606       334  PMPG      H5Y             9.8199593305      -54.4131499064       -8.4176548862  MEMB      334             0.0000000000
     41607       334  PMPG      C36            11.5800493958      -53.9843890304       -7.3878726106  MEMB      334             0.0000000000
     41608       334  PMPG      H6X            12.6028198116      -54.2464250077       -7.1757036931  MEMB      334             0.0000000000
     41609       334  PMPG      H6Y            11.3049596120      -54.3515670524       -6.4173496900  MEMB      334             0.0000000000
     41610       334  PMPG      C37            11.4421608629      -52.4613514993       -7.5501300878  MEMB      334             0.0000000000
     41611       334  PMPG      H7X            10.3691888988      -52.2355594297       -7.3888513599  MEMB      334             0.0000000000
     41612       334  PMPG      H7Y            11.7150431819      -52.1771948578       -8.5855819913  MEMB      334             0.0000000000
     41613       334  PMPG      C38            12.3355155038      -51.6225617953       -6.6392415841  MEMB      334             0.0000000000
     41614       334  PMPG      H8X            13.4047959601      -51.8125539597       -6.8792537171  MEMB      334             0.0000000000
     41615       334  PMPG      H8Y            12.1467565362      -51.9179686337       -5.5779275025  MEMB      334             0.0000000000
     41616       334  PMPG      C39            12.0597135098      -50.1433636082       -6.6962671711  MEMB      334             0.0000000000
     41617       334  PMPG      H9X            11.0096740097      -49.9979406637       -6.3152510436  MEMB      334             0.0000000000
     41618       334  PMPG      H9Y            12.1706482884      -49.5123287381       -7.6083788712  MEMB      334             0.0000000000
     41619       334  PMPG      C310           12.9635400200      -49.5143674823       -5.7606237836  MEMB      334             0.0000000000
     41620       334  PMPG      H10X           13.3412554084      -48.7375021332       -6.3428008132  MEMB      334             0.0000000000
     41621       334  PMPG      H10Y           13.8380360130      -49.9900888967       -5.2942880583  MEMB      334             0.0000000000
     41622       334  PMPG      C311           11.9812693009      -48.9491411154       -4.9508399586  MEMB      334             0.0000000000
     41623       334  PMPG      H11X           11.2599826683      -48.1284581204       -5.1341652337  MEMB      334             0.0000000000
     41624       334  PMPG      H11Y           12.5492107190      -48.1237182304       -4.7703004220  MEMB      334             0.0000000000
     41625       334  PMPG      C312           11.3169105913      -50.0049351954       -3.9498123041  MEMB      334             0.0000000000
     41626       334  PMPG      H12X           11.8305022540      -50.8904304702       -3.5935135408  MEMB      334             0.0000000000
     41627       334  PMPG      H12Y           10.3830119348      -49.6063653679       -4.0891467456  MEMB      334             0.0000000000
     41628       334  PMPG      C313           10.8960668312      -49.7900464102       -2.4555140443  MEMB      334             0.0000000000
     41629       334  PMPG      H13X           10.2403492142      -48.4662347174       -2.3808182073  MEMB      334             0.0000000000
     41630       334  PMPG      H13Y           12.1978710108      -49.9030547450       -2.3764313083  MEMB      334             0.0000000000
     41631       334  PMPG      C314           10.1836327770      -50.1453714756       -1.0392873778  MEMB      334             0.0000000000
     41632       334  PMPG      H14X           10.7019724222      -50.9031339919       -0.6755416818  MEMB      334             0.0000000000
     41633       334  PMPG      H14Y            9.9760546864      -50.0425248544       -1.8669471025  MEMB      334             0.0000000000
     41634       334  PMPG      C315            9.7585173035      -48.9345493381       -0.2780054514  MEMB      334             0.0000000000
     41635       334  PMPG      H15X            9.5027048846      -47.9428559476       -0.6014097469  MEMB      334             0.0000000000
     41636       334  PMPG      H15Y           10.4864043742      -48.7277457390        0.5908529855  MEMB      334             0.0000000000
     41637       334  PMPG      C316            9.0689096537      -49.4006896796       -0.0399623192  MEMB      334             0.0000000000
     41638       334  PMPG      H16X            8.0766913721      -50.0505896923       -0.3573189677  MEMB      334             0.0000000000
     41639       334  PMPG      H16Y            8.3049894041      -48.0969140582        0.7109190984  MEMB      334             0.0000000000
     41640       334  PMPG      H16Z            9.9125036877      -50.6822090923        1.3205855330  MEMB      334             0.0000000000
     41641       335  QMPE      N               1.1810414026      -51.4119723520      -21.5576820162  MEMB      335             0.0000000000
     41642       335  QMPE      HN1             1.6280996593      -51.3085225737      -22.4887311525  MEMB      335             0.0000000000
     41643       335  QMPE      HN2             0.8889299780      -52.3915523952      -21.3550914116  MEMB      335             0.0000000000
     41644       335  QMPE      HN3             0.3672060439      -50.7641569980      -21.4918364668  MEMB      335             0.0000000000
     41645       335  QMPE      C12             2.1289995442      -51.0104745023      -20.4799399104  MEMB      335             0.0000000000
     41646       335  QMPE      H12A            2.4232853223      -49.9659622007      -20.7274194299  MEMB      335             0.0000000000
     41647       335  QMPE      H12B            2.9840198510      -51.7284552659      -20.4804879485  MEMB      335             0.0000000000
     41648       335  QMPE      C11             1.4259521770      -51.0336345537      -19.1160159039  MEMB      335             0.0000000000
     41649       335  QMPE      H11A            0.5536999617      -50.3384410190      -19.1075462813  MEMB      335             0.0000000000
     41650       335  QMPE      H11B            2.1612307918      -50.6086096676      -18.3923741889  MEMB      335             0.0000000000
     41651       335  QMPE      P              -0.4135885367      -52.7475888510      -18.1877088431  MEMB      335             0.0000000000
     41652       335  QMPE      O13            -0.3759892877      -54.1912306360      -17.9089986917  MEMB      335             0.0000000000
     41653       335  QMPE      O14            -1.4087240204      -52.2834200975      -19.1553292053  MEMB      335             0.0000000000
     41654       335  QMPE      O11            -0.5517923228      -51.8276254994      -16.8918886431  MEMB      335             0.0000000000
     41655       335  QMPE      O12             1.0593856681      -52.3748060171      -18.7560354916  MEMB      335             0.0000000000
     41656       335  QMPE      C1              0.3537714958      -51.7691750128      -15.8097479046  MEMB      335             0.0000000000
     41657       335  QMPE      HA              0.0141017837      -50.9782515695      -15.1018761821  MEMB      335             0.0000000000
     41658       335  QMPE      HB              1.3523463883      -51.4531645278      -16.1625458034  MEMB      335             0.0000000000
     41659       335  QMPE      C2              0.3760098626      -53.0766113423      -14.9761737828  MEMB      335             0.0000000000
     41660       335  QMPE      HS              0.8838622909      -53.8803017404      -15.5711050600  MEMB      335             0.0000000000
     41661       335  QMPE      O21            -0.9961570781      -53.3489950739      -14.5934038163  MEMB      335             0.0000000000
     41662       335  QMPE      C21            -1.2565366922      -54.5700777245      -14.3090652633  MEMB      335             0.0000000000
     41663       335  QMPE      O22            -0.4730801676      -55.4361967134      -14.4599566960  MEMB      335             0.0000000000
     41664       335  QMPE      C22            -2.5958058809      -54.9474617077      -13.7791645654  MEMB      335             0.0000000000
     41665       335  QMPE      H2R            -3.2182050978      -55.4528618614      -14.4717690036  MEMB      335             0.0000000000
     41666       335  QMPE      H2S            -3.2687022735      -54.1439331635      -13.6300829327  MEMB      335             0.0000000000
     41667       335  QMPE      C3              1.2805427509      -52.9433364895      -13.7285408549  MEMB      335             0.0000000000
     41668       335  QMPE      HX              2.2589346490      -52.5367295871      -14.0551029757  MEMB      335             0.0000000000
     41669       335  QMPE      HY              1.4574572175      -53.9645672191      -13.3049631804  MEMB      335             0.0000000000
     41670       335  QMPE      O31             0.6961579169      -51.9978475851      -12.8173857648  MEMB      335             0.0000000000
     41671       335  QMPE      C31             1.2013354345      -51.9793549644      -11.6028050017  MEMB      335             0.0000000000
     41672       335  QMPE      O32             2.0007377652      -52.7693464304      -11.1411072135  MEMB      335             0.0000000000
     41673       335  QMPE      C32             0.6576851307      -50.7665821909      -10.8390650326  MEMB      335             0.0000000000
     41674       335  QMPE      H2X             1.4076324528      -50.4105094509      -10.1261580858  MEMB      335             0.0000000000
     41675       335  QMPE      H2Y             0.4600905738      -49.9323522454      -11.5342975489  MEMB      335             0.0000000000
     41676       335  QMPE      C23            -2.4947782712      -55.6606641697      -12.4413968729  MEMB      335             0.0000000000
     41677       335  QMPE      H3R            -1.9227998247      -55.1473603923      -11.6241152172  MEMB      335             0.0000000000
     41678       335  QMPE      H3S            -1.8036652917      -56.5006653952      -12.4051478723  MEMB      335             0.0000000000
     41679       335  QMPE      C24            -3.9614668356      -55.9664346614      -12.1422576924  MEMB      335             0.0000000000
     41680       335  QMPE      H4R            -3.5612738332      -56.8292894897      -11.5693929310  MEMB      335             0.0000000000
     41681       335  QMPE      H4S            -4.4345140525      -56.4953646453      -12.9133008131  MEMB      335             0.0000000000
     41682       335  QMPE      C25            -5.1856809207      -54.9987742137      -11.4825775923  MEMB      335             0.0000000000
     41683       335  QMPE      H5R            -6.0949987023      -55.4601778109      -11.1177152917  MEMB      335             0.0000000000
     41684       335  QMPE      H5S            -5.4797200933      -54.1496827223      -12.0422740009  MEMB      335             0.0000000000
     41685       335  QMPE      C26            -5.0373534754      -54.4374106919      -10.0933100217  MEMB      335             0.0000000000
     41686       335  QMPE      H6R            -3.9459957813      -54.6910036172      -10.7010514230  MEMB      335             0.0000000000
     41687       335  QMPE      H6S            -4.9521631250      -54.8467755006       -9.0157064787  MEMB      335             0.0000000000
     41688       335  QMPE      C27            -5.4875568385      -53.1236287397       -9.3401502852  MEMB      335             0.0000000000
     41689       335  QMPE      H7R            -6.4813303295      -53.3532367155       -9.5091747670  MEMB      335             0.0000000000
     41690       335  QMPE      H7S            -5.2735507483      -52.1666630638       -9.7370292185  MEMB      335             0.0000000000
     41691       335  QMPE      C28            -5.1747143735      -52.7640849033       -7.8195825650  MEMB      335             0.0000000000
     41692       335  QMPE      H8R            -4.1096582490      -52.6119629783       -7.5031486691  MEMB      335             0.0000000000
     41693       335  QMPE      H8S            -5.5607372036      -53.5653485047       -7.2266631319  MEMB      335             0.0000000000
     41694       335  QMPE      C29            -5.7008518065      -51.4689379254       -7.5040415771  MEMB      335             0.0000000000
     41695       335  QMPE      H9R            -6.7786306896      -51.4201252791       -7.5310358409  MEMB      335             0.0000000000
     41696       335  QMPE      C217           -4.8925588373      -50.2759766614       -7.9821563224  MEMB      335             0.0000000000
     41697       335  QMPE      H17R           -3.9437891381      -50.5251865111       -8.4495698903  MEMB      335             0.0000000000
     41698       335  QMPE      H17S           -5.5508215353      -49.4473398314       -8.1858912206  MEMB      335             0.0000000000
     41699       335  QMPE      C210           -4.9684547307      -50.6237810192       -6.5073393054  MEMB      335             0.0000000000
     41700       335  QMPE      H10R           -5.6404026455      -49.9406371930       -5.9828160653  MEMB      335             0.0000000000
     41701       335  QMPE      C211           -3.5997325040      -50.9415316666       -5.8929051664  MEMB      335             0.0000000000
     41702       335  QMPE      H11R           -2.9135790439      -51.4077926602       -6.6342403458  MEMB      335             0.0000000000
     41703       335  QMPE      H11S           -3.1314479419      -50.0283540430       -5.4380156468  MEMB      335             0.0000000000
     41704       335  QMPE      C212           -3.8125155870      -51.9675256275       -4.7948161936  MEMB      335             0.0000000000
     41705       335  QMPE      H12R           -2.8266884765      -52.4003200791       -4.5329808453  MEMB      335             0.0000000000
     41706       335  QMPE      H12S           -4.5193999720      -52.7576511519       -5.1356427736  MEMB      335             0.0000000000
     41707       335  QMPE      C213           -4.3610496590      -51.2413490847       -3.5955417924  MEMB      335             0.0000000000
     41708       335  QMPE      H13R           -5.2914172607      -50.7184695358       -3.9173399995  MEMB      335             0.0000000000
     41709       335  QMPE      H13S           -3.6021814159      -50.4823280602       -3.2699054439  MEMB      335             0.0000000000
     41710       335  QMPE      C214           -4.7725149207      -52.0572443058       -2.3965281119  MEMB      335             0.0000000000
     41711       335  QMPE      H14R           -5.4726740756      -52.8770613778       -2.6610007622  MEMB      335             0.0000000000
     41712       335  QMPE      H14S           -5.3654583016      -51.3855635005       -1.7408544349  MEMB      335             0.0000000000
     41713       335  QMPE      C215           -3.5647628805      -52.5826085330       -1.6483106350  MEMB      335             0.0000000000
     41714       335  QMPE      H15R           -2.8912833551      -51.7864493171       -1.2624984368  MEMB      335             0.0000000000
     41715       335  QMPE      H15S           -2.9061116438      -53.1129374016       -2.3638454667  MEMB      335             0.0000000000
     41716       335  QMPE      C216           -3.9995968869      -53.5602483382       -0.5722946582  MEMB      335             0.0000000000
     41717       335  QMPE      H16R           -4.6089308889      -53.1098728479        0.2392461313  MEMB      335             0.0000000000
     41718       335  QMPE      H16S           -3.0996039483      -53.9533872388       -0.1163409099  MEMB      335             0.0000000000
     41719       335  QMPE      H16T           -4.5175591293      -54.4242449919       -1.0344285326  MEMB      335             0.0000000000
     41720       335  QMPE      C33            -0.5681228435      -51.1722734345      -10.0556141770  MEMB      335             0.0000000000
     41721       335  QMPE      H3X            -1.1588084520      -51.4164361792      -10.8256060985  MEMB      335             0.0000000000
     41722       335  QMPE      H3Y            -1.2388234213      -50.4013158247       -9.6714171386  MEMB      335             0.0000000000
     41723       335  QMPE      C34            -0.2988291621      -52.2037479859       -9.0069269970  MEMB      335             0.0000000000
     41724       335  QMPE      H4X             0.2224758405      -53.1268448729       -9.2987563162  MEMB      335             0.0000000000
     41725       335  QMPE      H4Y            -1.1531922309      -52.5656656729       -8.5917024245  MEMB      335             0.0000000000
     41726       335  QMPE      C35             0.0255459738      -51.5048850815       -7.7115893129  MEMB      335             0.0000000000
     41727       335  QMPE      H5X            -0.8161504291      -50.8117883928       -7.4821933593  MEMB      335             0.0000000000
     41728       335  QMPE      H5Y             0.8736368995      -50.8334957992       -7.8899590626  MEMB      335             0.0000000000
     41729       335  QMPE      C36             0.1626353362      -52.4641104760       -6.5258990648  MEMB      335             0.0000000000
     41730       335  QMPE      H6X             1.0909542551      -53.0502740923       -6.6609441676  MEMB      335             0.0000000000
     41731       335  QMPE      H6Y            -0.6820334109      -53.1977685148       -6.5398394228  MEMB      335             0.0000000000
     41732       335  QMPE      C37             0.1923084963      -51.6900313586       -5.2029675977  MEMB      335             0.0000000000
     41733       335  QMPE      H7X             0.8463169226      -50.7911314943       -5.3028600173  MEMB      335             0.0000000000
     41734       335  QMPE      H7Y            -0.8527238734      -51.3567229765       -5.0233503027  MEMB      335             0.0000000000
     41735       335  QMPE      C38             0.6286295025      -52.5005243140       -3.9807266522  MEMB      335             0.0000000000
     41736       335  QMPE      H8X            -0.2725424108      -53.0483441095       -3.6288295976  MEMB      335             0.0000000000
     41737       335  QMPE      H8Y             1.4726003271      -53.1767920024       -4.2349471176  MEMB      335             0.0000000000
     41738       335  QMPE      C39             1.0399996870      -51.5941705651       -2.8300055171  MEMB      335             0.0000000000
     41739       335  QMPE      H9X             0.1795107071      -50.9358679618       -2.6227642269  MEMB      335             0.0000000000
     41740       335  QMPE      H9Y             1.8318231029      -50.9595916155       -3.1434963169  MEMB      335             0.0000000000
     41741       335  QMPE      C310            1.4597629170      -52.2114373705       -1.5327554212  MEMB      335             0.0000000000
     41742       335  QMPE      H10X            1.9153986715      -51.4974428207       -0.8106849255  MEMB      335             0.0000000000
     41743       335  QMPE      H10Y            2.1436080811      -53.0744436990       -1.5814705562  MEMB      335             0.0000000000
     41744       335  QMPE      C311            0.2782276517      -52.5905448744       -0.8632787852  MEMB      335             0.0000000000
     41745       335  QMPE      H11X           -0.2396804233      -53.4169822741       -1.4859317565  MEMB      335             0.0000000000
     41746       335  QMPE      H11Y           -0.5901094633      -51.9178418910       -0.7909571422  MEMB      335             0.0000000000
     41747       335  QMPE      C312            0.7595692663      -52.8359243886        0.5790257787  MEMB      335             0.0000000000
     41748       335  QMPE      H12X            1.5315514945      -52.6226054079        1.2430526770  MEMB      335             0.0000000000
     41749       335  QMPE      H12Y            1.3956829853      -53.8755397634        0.5511222972  MEMB      335             0.0000000000
     41750       335  QMPE      C313           -0.5508898568      -52.6553043642        1.5089974155  MEMB      335             0.0000000000
     41751       335  QMPE      H13X           -1.5506561746      -53.4344789806        1.4459806475  MEMB      335             0.0000000000
     41752       335  QMPE      H13Y            0.1567203403      -52.8927576736        2.3634914177  MEMB      335             0.0000000000
     41753       335  QMPE      C314           -1.3560067203      -51.6261623090        2.0224796693  MEMB      335             0.0000000000
     41754       335  QMPE      H14X           -1.7761413286      -51.7120779856        3.0309915407  MEMB      335             0.0000000000
     41755       335  QMPE      H14Y           -2.2152901768      -51.7451152657        1.3571838857  MEMB      335             0.0000000000
     41756       335  QMPE      C315           -0.3788596903      -50.6452298558        2.1166243031  MEMB      335             0.0000000000
     41757       335  QMPE      H15X           -0.1229464578      -50.5946218614        1.0546014366  MEMB      335             0.0000000000
     41758       335  QMPE      H15Y           -0.9532701272      -49.8148157138        2.4925627485  MEMB      335             0.0000000000
     41759       335  QMPE      H15Z            0.4621362328      -50.9944708381        2.7830165428  MEMB      335             0.0000000000
     41760       336  PMPE      N              53.3203106340      -14.3752740115      -18.2003262304  MEMB      336             0.0000000000
     41761       336  PMPE      HN1            54.2442145581      -14.7863921511      -17.9533918366  MEMB      336             0.0000000000
     41762       336  PMPE      HN2            53.4367550672      -13.4508560065      -18.6828900298  MEMB      336             0.0000000000
     41763       336  PMPE      HN3            52.7543582490      -14.2194774034      -17.3486598235  MEMB      336             0.0000000000
     41764       336  PMPE      C12            52.4855875080      -15.2837597197      -19.0543817989  MEMB      336             0.0000000000
     41765       336  PMPE      H12A           52.5257132559      -16.3042265173      -18.6242668239  MEMB      336             0.0000000000
     41766       336  PMPE      H12B           52.9594763884      -15.3581646158      -20.0532604916  MEMB      336             0.0000000000
     41767       336  PMPE      C11            51.0232286016      -14.7635799002      -19.0277089595  MEMB      336             0.0000000000
     41768       336  PMPE      H11A           50.6086717158      -14.8860331735      -18.0049888762  MEMB      336             0.0000000000
     41769       336  PMPE      H11B           50.3761861999      -15.4152717973      -19.6537093654  MEMB      336             0.0000000000
     41770       336  PMPE      P              49.5072619335      -12.6067903576      -19.2270946468  MEMB      336             0.0000000000
     41771       336  PMPE      O13            48.5043149201      -13.6291403592      -18.8490457843  MEMB      336             0.0000000000
     41772       336  PMPE      O14            49.1848014478      -11.6944420813      -20.3323882216  MEMB      336             0.0000000000
     41773       336  PMPE      O11            49.9246764290      -11.7889833674      -17.9518390631  MEMB      336             0.0000000000
     41774       336  PMPE      O12            50.9185621284      -13.3852295823      -19.4188030619  MEMB      336             0.0000000000
     41775       336  PMPE      C1             50.4134051689      -12.4020158740      -16.7845560694  MEMB      336             0.0000000000
     41776       336  PMPE      HA             51.5188514753      -12.3673162171      -16.8644519143  MEMB      336             0.0000000000
     41777       336  PMPE      HB             50.0913611937      -13.4640255262      -16.7055210426  MEMB      336             0.0000000000
     41778       336  PMPE      C2             49.8779518195      -11.6691544333      -15.5320323265  MEMB      336             0.0000000000
     41779       336  PMPE      HS             48.7783219980      -11.5033473766      -15.6273327910  MEMB      336             0.0000000000
     41780       336  PMPE      O21            50.5483639746      -10.4184738302      -15.4413370118  MEMB      336             0.0000000000
     41781       336  PMPE      C21            50.0870422403       -9.7212405643      -14.4868011285  MEMB      336             0.0000000000
     41782       336  PMPE      O22            49.0635704235       -9.8547718888      -13.8419420876  MEMB      336             0.0000000000
     41783       336  PMPE      C22            51.0480911958       -8.7302250329      -14.1810189503  MEMB      336             0.0000000000
     41784       336  PMPE      H2R            51.0286814114       -8.1510274748      -15.1518816223  MEMB      336             0.0000000000
     41785       336  PMPE      H2S            52.0743727224       -9.0648097482      -14.1756282913  MEMB      336             0.0000000000
     41786       336  PMPE      C3             50.1902084934      -12.4811766749      -14.2631275627  MEMB      336             0.0000000000
     41787       336  PMPE      HX             49.8109537881      -13.5185692752      -14.3132616969  MEMB      336             0.0000000000
     41788       336  PMPE      HY             49.7024048912      -12.0053059371      -13.3689104398  MEMB      336             0.0000000000
     41789       336  PMPE      O31            51.6235467444      -12.5197263797      -14.1770854246  MEMB      336             0.0000000000
     41790       336  PMPE      C31            51.9745767914      -12.9866183443      -12.9910538036  MEMB      336             0.0000000000
     41791       336  PMPE      O32            51.2176532948      -13.4367456682      -12.1591471555  MEMB      336             0.0000000000
     41792       336  PMPE      C32            53.4186312520      -12.6580271608      -12.8112146841  MEMB      336             0.0000000000
     41793       336  PMPE      H2X            53.4691365899      -11.5625461445      -12.9749913570  MEMB      336             0.0000000000
     41794       336  PMPE      H2Y            54.0248492548      -13.2353990641      -13.5275015683  MEMB      336             0.0000000000
     41795       336  PMPE      C23            50.7007389679       -8.1079721535      -12.7152597142  MEMB      336             0.0000000000
     41796       336  PMPE      H3R            49.7544960465       -7.6781119046      -12.6157415885  MEMB      336             0.0000000000
     41797       336  PMPE      H3S            51.1823016094       -7.0434331620      -12.3928876238  MEMB      336             0.0000000000
     41798       336  PMPE      C24            51.2428195362       -8.2952586322      -11.5416942874  MEMB      336             0.0000000000
     41799       336  PMPE      H4R            52.3289677909       -8.1738748299      -11.7015491706  MEMB      336             0.0000000000
     41800       336  PMPE      H4S            50.8748371423       -9.2839031617      -11.6934020109  MEMB      336             0.0000000000
     41801       336  PMPE      C25            50.4558053753       -7.4009921417      -10.5727445153  MEMB      336             0.0000000000
     41802       336  PMPE      H5R            49.3732648174       -7.1983025676      -10.7862349177  MEMB      336             0.0000000000
     41803       336  PMPE      H5S            50.9007224371       -6.4162795399      -10.6168043440  MEMB      336             0.0000000000
     41804       336  PMPE      C26            50.7047119316       -7.9279134788       -9.2406947038  MEMB      336             0.0000000000
     41805       336  PMPE      H6R            50.1934251489       -8.8981319713       -9.1527383371  MEMB      336             0.0000000000
     41806       336  PMPE      H6S            50.1912509111       -7.1688701094       -8.6202907567  MEMB      336             0.0000000000
     41807       336  PMPE      C27            52.1873682790       -8.1401413399       -8.9172086621  MEMB      336             0.0000000000
     41808       336  PMPE      H7R            52.7937421329       -7.3262995504       -9.3753135961  MEMB      336             0.0000000000
     41809       336  PMPE      H7S            52.5769450599       -9.1270222861       -9.2784970779  MEMB      336             0.0000000000
     41810       336  PMPE      C28            52.3690108895       -8.1130440714       -7.4019432903  MEMB      336             0.0000000000
     41811       336  PMPE      H8R            51.8567217559       -7.2048595214       -7.0285249068  MEMB      336             0.0000000000
     41812       336  PMPE      H8S            53.4552046600       -8.0799851098       -7.1796867290  MEMB      336             0.0000000000
     41813       336  PMPE      C29            51.7331259459       -9.3652385781       -6.8043155531  MEMB      336             0.0000000000
     41814       336  PMPE      H9R            51.8146551837      -10.2590230739       -7.4418516813  MEMB      336             0.0000000000
     41815       336  PMPE      C217           50.3642412577       -9.1048839729       -6.1640339970  MEMB      336             0.0000000000
     41816       336  PMPE      H17R           49.5962402881       -9.8479411129       -6.2656347117  MEMB      336             0.0000000000
     41817       336  PMPE      H17S           50.1228687094       -8.0875351476       -5.8973516842  MEMB      336             0.0000000000
     41818       336  PMPE      C210           51.5308496154       -9.6130703350       -5.3188044706  MEMB      336             0.0000000000
     41819       336  PMPE      H10R           51.3612221015      -10.6385970481       -4.9522729890  MEMB      336             0.0000000000
     41820       336  PMPE      C211           51.8344087198       -8.5975260142       -4.2487917224  MEMB      336             0.0000000000
     41821       336  PMPE      H11R           51.5187629367       -8.8656008765       -3.2522068622  MEMB      336             0.0000000000
     41822       336  PMPE      H11S           51.4159124871       -7.6191501171       -4.4563350058  MEMB      336             0.0000000000
     41823       336  PMPE      C212           53.2519463261       -8.3446413231       -4.2006971612  MEMB      336             0.0000000000
     41824       336  PMPE      H12R           53.3703286356       -7.5456093953       -3.4457631611  MEMB      336             0.0000000000
     41825       336  PMPE      H12S           53.7679585767       -8.0767907159       -5.1241927731  MEMB      336             0.0000000000
     41826       336  PMPE      C213           53.8472941337       -9.6050641171       -3.9405336259  MEMB      336             0.0000000000
     41827       336  PMPE      H13R           54.8993259309       -9.1411493066       -4.1286253835  MEMB      336             0.0000000000
     41828       336  PMPE      H13S           54.2357304629      -10.4144483280       -4.5370754583  MEMB      336             0.0000000000
     41829       336  PMPE      C214           53.3958813273      -10.1689475267       -2.5299451398  MEMB      336             0.0000000000
     41830       336  PMPE      H14R           52.7541007659      -10.8798656859       -2.3732749053  MEMB      336             0.0000000000
     41831       336  PMPE      H14S           53.2393205498       -9.2579537094       -1.7611285625  MEMB      336             0.0000000000
     41832       336  PMPE      C215           54.4202638842      -11.3077525880       -2.2127999282  MEMB      336             0.0000000000
     41833       336  PMPE      H15R           54.1390444177      -11.3357996934       -0.6809580774  MEMB      336             0.0000000000
     41834       336  PMPE      H15S           56.2251149930      -11.0179961477       -3.2212708693  MEMB      336             0.0000000000
     41835       336  PMPE      C216           54.3534237023      -12.3768069976       -2.2944201312  MEMB      336             0.0000000000
     41836       336  PMPE      H16R           55.0965016164      -12.6635133761       -1.4872718635  MEMB      336             0.0000000000
     41837       336  PMPE      H16S           54.4542800313      -12.6971265160       -1.3080133327  MEMB      336             0.0000000000
     41838       336  PMPE      H16T           55.0823461838      -12.2364586364       -3.0793121132  MEMB      336             0.0000000000
     41839       336  PMPE      C33            54.0073909089      -12.8590618868      -11.4220549175  MEMB      336             0.0000000000
     41840       336  PMPE      H3X            55.0275206032      -12.4215758357      -11.4421488407  MEMB      336             0.0000000000
     41841       336  PMPE      H3Y            54.1889582920      -13.9310490323      -11.2220331198  MEMB      336             0.0000000000
     41842       336  PMPE      C34            53.1962251989      -12.1311611140      -10.3453440657  MEMB      336             0.0000000000
     41843       336  PMPE      H4X            52.3337507216      -12.7916455568      -10.1399767381  MEMB      336             0.0000000000
     41844       336  PMPE      H4Y            52.7391865175      -11.1993766190      -10.7509251311  MEMB      336             0.0000000000
     41845       336  PMPE      C35            54.0082644706      -11.9515621886       -9.0604787572  MEMB      336             0.0000000000
     41846       336  PMPE      H5X            53.6352989904      -11.1816439542       -8.3577282695  MEMB      336             0.0000000000
     41847       336  PMPE      H5Y            55.0072487722      -11.5924713848       -9.3222067979  MEMB      336             0.0000000000
     41848       336  PMPE      C36            54.0638725363      -13.2741939402       -8.3262888437  MEMB      336             0.0000000000
     41849       336  PMPE      H6X            54.6920450162      -13.2354692839       -7.4672382656  MEMB      336             0.0000000000
     41850       336  PMPE      H6Y            54.4428101084      -14.1167516491       -8.9416361962  MEMB      336             0.0000000000
     41851       336  PMPE      C37            52.7601441562      -13.6418263552       -7.6661470713  MEMB      336             0.0000000000
     41852       336  PMPE      H7X            52.1092277657      -13.9359478408       -8.4968424987  MEMB      336             0.0000000000
     41853       336  PMPE      H7Y            52.2861876455      -12.8050794448       -7.1191139645  MEMB      336             0.0000000000
     41854       336  PMPE      C38            53.2035612522      -14.7309604250       -6.7525489589  MEMB      336             0.0000000000
     41855       336  PMPE      H8X            53.8180609083      -14.3677726964       -5.9275280806  MEMB      336             0.0000000000
     41856       336  PMPE      H8Y            53.5389401321      -15.6086818978       -7.3283208738  MEMB      336             0.0000000000
     41857       336  PMPE      C39            52.3755345169      -15.3695406950       -5.9439622263  MEMB      336             0.0000000000
     41858       336  PMPE      H9X            52.6331667113      -16.2366721428       -5.3967290383  MEMB      336             0.0000000000
     41859       336  PMPE      H9Y            51.8411870115      -15.8530828143       -6.7872325430  MEMB      336             0.0000000000
     41860       336  PMPE      C310           51.8826631856      -14.5036003415       -4.9357013628  MEMB      336             0.0000000000
     41861       336  PMPE      H10X           51.3006123951      -15.4267123543       -4.4479115404  MEMB      336             0.0000000000
     41862       336  PMPE      H10Y           51.3916283014      -13.5287195626       -5.3609364734  MEMB      336             0.0000000000
     41863       336  PMPE      C311           52.4130533167      -14.1683903743       -3.6837398576  MEMB      336             0.0000000000
     41864       336  PMPE      H11X           52.9478969626      -13.2896336601       -3.8643777410  MEMB      336             0.0000000000
     41865       336  PMPE      H11Y           52.9325727694      -15.0871653719       -3.5603481755  MEMB      336             0.0000000000
     41866       336  PMPE      C312           51.6036896687      -13.9030424628       -2.5058094322  MEMB      336             0.0000000000
     41867       336  PMPE      H12X           52.1255070706      -13.6738726639       -1.6191582711  MEMB      336             0.0000000000
     41868       336  PMPE      H12Y           51.2150393852      -14.9824550363       -2.3401993188  MEMB      336             0.0000000000
     41869       336  PMPE      C313           50.7322549124      -12.6048583079       -2.4253994571  MEMB      336             0.0000000000
     41870       336  PMPE      H13X           50.0792358360      -12.4105830571       -3.2581343477  MEMB      336             0.0000000000
     41871       336  PMPE      H13Y           51.4254786503      -11.9212534565       -2.3954052622  MEMB      336             0.0000000000
     41872       336  PMPE      C314           49.6554155587      -12.3567001554       -1.3104825286  MEMB      336             0.0000000000
     41873       336  PMPE      H14X           50.6759793289      -12.4862129113       -0.7750310115  MEMB      336             0.0000000000
     41874       336  PMPE      H14Y           48.6471896279      -12.8086208048       -1.2869617652  MEMB      336             0.0000000000
     41875       336  PMPE      C315           49.1967757523      -11.5067412279       -0.1200875177  MEMB      336             0.0000000000
     41876       336  PMPE      H15X           48.5278460921      -11.8293582399        0.6625864786  MEMB      336             0.0000000000
     41877       336  PMPE      H15Y           48.2867008154      -11.0726178725       -0.7312239604  MEMB      336             0.0000000000
     41878       336  PMPE      C316           50.5847855243      -10.8727359763        0.4502328133  MEMB      336             0.0000000000
     41879       336  PMPE      H16X           51.4103117660      -10.1175969543       -0.0804079420  MEMB      336             0.0000000000
     41880       336  PMPE      H16Y           51.3603609248      -11.5239767721        0.5208228047  MEMB      336             0.0000000000
     41881       336  PMPE      H16Z           50.5539687030       -9.9451985055        0.9131543097  MEMB      336             0.0000000000
     41882       337  POPE      N             -41.6158058100      -33.3531797000      -17.3165972694  MEMB      337             0.0000000000
     41883       337  POPE      HN1           -42.3320192916      -33.0523073632      -18.0130912869  MEMB      337             0.0000000000
     41884       337  POPE      HN2           -42.0486057838      -33.3082773248      -16.3766670392  MEMB      337             0.0000000000
     41885       337  POPE      HN3           -40.7792631019      -32.7374553956      -17.3836773062  MEMB      337             0.0000000000
     41886       337  POPE      C12           -41.1970942226      -34.7732620473      -17.6034116134  MEMB      337             0.0000000000
     41887       337  POPE      H12A          -42.0249029009      -35.3851014457      -17.2075402182  MEMB      337             0.0000000000
     41888       337  POPE      H12B          -40.2765513163      -35.0241404585      -17.0282589705  MEMB      337             0.0000000000
     41889       337  POPE      C11           -40.9731042205      -34.9762335181      -19.1111019722  MEMB      337             0.0000000000
     41890       337  POPE      H11A          -41.9430326853      -34.8602786166      -19.6632173292  MEMB      337             0.0000000000
     41891       337  POPE      H11B          -40.6732126821      -36.0248796832      -19.3374318628  MEMB      337             0.0000000000
     41892       337  POPE      P             -38.4293931849      -34.3984737287      -19.6759801881  MEMB      337             0.0000000000
     41893       337  POPE      O13           -37.7087746443      -33.1369515444      -19.8712339339  MEMB      337             0.0000000000
     41894       337  POPE      O14           -38.2520154481      -35.5375704293      -20.6059761983  MEMB      337             0.0000000000
     41895       337  POPE      O11           -38.0720433538      -34.8741442397      -18.2291175507  MEMB      337             0.0000000000
     41896       337  POPE      O12           -39.9970247487      -34.0341190862      -19.5637713127  MEMB      337             0.0000000000
     41897       337  POPE      C1            -36.6901353509      -35.1385870572      -17.8611171853  MEMB      337             0.0000000000
     41898       337  POPE      HA            -36.0756481477      -34.2487534809      -17.9658472808  MEMB      337             0.0000000000
     41899       337  POPE      HB            -36.1906065901      -35.9720482585      -18.4736752829  MEMB      337             0.0000000000
     41900       337  POPE      C2            -36.6626642496      -35.5618015006      -16.3171686754  MEMB      337             0.0000000000
     41901       337  POPE      HS            -35.7096797461      -36.1648737824      -16.2938229066  MEMB      337             0.0000000000
     41902       337  POPE      O21           -37.7403707722      -36.2906339104      -15.6518384279  MEMB      337             0.0000000000
     41903       337  POPE      C21           -38.2671165392      -37.0836379397      -16.3581569900  MEMB      337             0.0000000000
     41904       337  POPE      O22           -37.9523815469      -37.2068962004      -17.5473129545  MEMB      337             0.0000000000
     41905       337  POPE      C22           -39.3905088898      -38.1765830836      -15.5830368199  MEMB      337             0.0000000000
     41906       337  POPE      H2R           -39.0390859099      -39.1681957818      -15.0639747058  MEMB      337             0.0000000000
     41907       337  POPE      H2S           -39.8891946533      -38.6638215753      -16.4422067591  MEMB      337             0.0000000000
     41908       337  POPE      C3            -36.6392759916      -34.3622448725      -15.3754680723  MEMB      337             0.0000000000
     41909       337  POPE      HX            -35.7114067345      -33.7976128565      -15.5509112057  MEMB      337             0.0000000000
     41910       337  POPE      HY            -36.6910659678      -34.7149132422      -14.3115655202  MEMB      337             0.0000000000
     41911       337  POPE      O31           -37.7833499043      -33.5297206271      -15.6198595963  MEMB      337             0.0000000000
     41912       337  POPE      C31           -37.9492616636      -32.6246368046      -14.7064344889  MEMB      337             0.0000000000
     41913       337  POPE      O32           -37.3338999367      -32.4708265011      -13.6691718029  MEMB      337             0.0000000000
     41914       337  POPE      C32           -39.0083678369      -31.7139237803      -15.2190995862  MEMB      337             0.0000000000
     41915       337  POPE      H2X           -39.5201502971      -32.0326900530      -16.1110790099  MEMB      337             0.0000000000
     41916       337  POPE      H2Y           -38.3243573072      -31.1159752238      -15.7046595110  MEMB      337             0.0000000000
     41917       337  POPE      C23           -40.1627428560      -37.5517986752      -14.5911133579  MEMB      337             0.0000000000
     41918       337  POPE      H3R           -40.2086861999      -36.6294796961      -15.1582979527  MEMB      337             0.0000000000
     41919       337  POPE      H3S           -39.6216822618      -37.2907304884      -13.6751282067  MEMB      337             0.0000000000
     41920       337  POPE      C24           -41.3480267939      -38.4081561380      -14.3081821974  MEMB      337             0.0000000000
     41921       337  POPE      H4R           -41.1261603998      -39.4380008056      -13.9303300028  MEMB      337             0.0000000000
     41922       337  POPE      H4S           -41.8908138497      -38.5821538982      -15.2481614114  MEMB      337             0.0000000000
     41923       337  POPE      C25           -42.2945445441      -37.6503566603      -13.4188788877  MEMB      337             0.0000000000
     41924       337  POPE      H5R           -43.2068655328      -38.2651125788      -13.3462305360  MEMB      337             0.0000000000
     41925       337  POPE      H5S           -42.6873126765      -36.7547449099      -13.9402943487  MEMB      337             0.0000000000
     41926       337  POPE      C26           -41.7248633886      -37.3344956790      -12.0365829018  MEMB      337             0.0000000000
     41927       337  POPE      H6R           -40.8213614539      -36.6949232516      -12.0367888840  MEMB      337             0.0000000000
     41928       337  POPE      H6S           -41.3412718425      -38.2352583920      -11.5195699116  MEMB      337             0.0000000000
     41929       337  POPE      C27           -42.8249866087      -36.7067635066      -11.2084597419  MEMB      337             0.0000000000
     41930       337  POPE      H7R           -43.7861847969      -37.2307837625      -11.4185936392  MEMB      337             0.0000000000
     41931       337  POPE      H7S           -42.9442703292      -35.6558219611      -11.5492115535  MEMB      337             0.0000000000
     41932       337  POPE      C28           -42.5345021033      -36.8389429495       -9.7166192869  MEMB      337             0.0000000000
     41933       337  POPE      H8R           -42.3990976515      -37.9002799291       -9.4430397049  MEMB      337             0.0000000000
     41934       337  POPE      H8S           -43.4520472255      -36.4975555444       -9.1977823029  MEMB      337             0.0000000000
     41935       337  POPE      C29           -41.3828987052      -35.9867131018       -9.2796235376  MEMB      337             0.0000000000
     41936       337  POPE      H91           -41.4793206251      -35.0009212420       -9.7641639833  MEMB      337             0.0000000000
     41937       337  POPE      C210          -40.4015205898      -36.2704369356       -8.3765296554  MEMB      337             0.0000000000
     41938       337  POPE      H101          -39.7956197938      -35.4211995941       -8.0108103787  MEMB      337             0.0000000000
     41939       337  POPE      C211          -40.2253111053      -37.5604201495       -7.5663107329  MEMB      337             0.0000000000
     41940       337  POPE      H11R          -39.4198029253      -38.1858947388       -8.0115749677  MEMB      337             0.0000000000
     41941       337  POPE      H11S          -41.1403970635      -38.1873583014       -7.5873555971  MEMB      337             0.0000000000
     41942       337  POPE      C212          -39.8231564426      -37.4855539785       -6.0675195631  MEMB      337             0.0000000000
     41943       337  POPE      H12R          -39.0672723308      -36.6802942345       -5.9575084730  MEMB      337             0.0000000000
     41944       337  POPE      H12S          -39.3457563867      -38.4298926208       -5.7324121374  MEMB      337             0.0000000000
     41945       337  POPE      C213          -40.9714652180      -37.1617718594       -5.1244723028  MEMB      337             0.0000000000
     41946       337  POPE      H13R          -41.7437671201      -37.9575176254       -4.9966337399  MEMB      337             0.0000000000
     41947       337  POPE      H13S          -41.4510131900      -36.3229464801       -5.6855630255  MEMB      337             0.0000000000
     41948       337  POPE      C214          -40.4301463511      -36.7279047090       -3.7487895165  MEMB      337             0.0000000000
     41949       337  POPE      H14R          -39.6631811549      -35.9259908483       -3.8042957025  MEMB      337             0.0000000000
     41950       337  POPE      H14S          -40.2239253483      -37.4929970749       -2.9934908866  MEMB      337             0.0000000000
     41951       337  POPE      C215          -41.4326843061      -36.0699837445       -2.9901228774  MEMB      337             0.0000000000
     41952       337  POPE      H15R          -42.2479236180      -36.7967758500       -2.6288184431  MEMB      337             0.0000000000
     41953       337  POPE      H15S          -41.6580460341      -35.3547192117       -3.8666864066  MEMB      337             0.0000000000
     41954       337  POPE      C216          -41.0732073039      -35.4782199868       -1.6924938579  MEMB      337             0.0000000000
     41955       337  POPE      H16R          -40.1515751386      -34.9467643040       -1.7153001198  MEMB      337             0.0000000000
     41956       337  POPE      H16S          -41.2612125846      -36.2067175607       -0.9059784023  MEMB      337             0.0000000000
     41957       337  POPE      C217          -41.7801584530      -34.4028934026       -1.2172906978  MEMB      337             0.0000000000
     41958       337  POPE      H17R          -42.7935829727      -34.8916899854       -1.1583910575  MEMB      337             0.0000000000
     41959       337  POPE      H17S          -41.7749077356      -33.6893187722       -2.0912905539  MEMB      337             0.0000000000
     41960       337  POPE      C218          -41.4004483660      -33.6102979385        0.0967895842  MEMB      337             0.0000000000
     41961       337  POPE      H18R          -41.4261442147      -34.3221328727        0.9190936075  MEMB      337             0.0000000000
     41962       337  POPE      H18S          -42.0843724691      -32.7903551615        0.5075451722  MEMB      337             0.0000000000
     41963       337  POPE      H18T          -40.4879558799      -33.1103319857       -0.1613931872  MEMB      337             0.0000000000
     41964       337  POPE      C33           -39.8490249521      -31.1139463450      -14.0985370982  MEMB      337             0.0000000000
     41965       337  POPE      H3X           -40.6421083657      -30.4248378397      -14.4785559773  MEMB      337             0.0000000000
     41966       337  POPE      H3Y           -39.1795696207      -30.5087647167      -13.4339788295  MEMB      337             0.0000000000
     41967       337  POPE      C34           -40.5141847127      -32.2584972233      -13.3363167981  MEMB      337             0.0000000000
     41968       337  POPE      H4X           -39.9192539285      -32.4591758922      -12.4174182651  MEMB      337             0.0000000000
     41969       337  POPE      H4Y           -40.5202674829      -33.2080938692      -13.9233397103  MEMB      337             0.0000000000
     41970       337  POPE      C35           -41.9660928927      -31.9731576828      -12.9769632433  MEMB      337             0.0000000000
     41971       337  POPE      H5X           -42.3308414916      -32.8205748374      -12.3629981507  MEMB      337             0.0000000000
     41972       337  POPE      H5Y           -42.5676658739      -31.9219494239      -13.9163095731  MEMB      337             0.0000000000
     41973       337  POPE      C36           -42.1875974467      -30.6891333398      -12.1696522193  MEMB      337             0.0000000000
     41974       337  POPE      H6X           -43.2836656403      -30.5255149985      -12.0943330829  MEMB      337             0.0000000000
     41975       337  POPE      H6Y           -41.8313285466      -29.8147088493      -12.7519141665  MEMB      337             0.0000000000
     41976       337  POPE      C37           -41.5469904142      -30.6542246573      -10.7705378913  MEMB      337             0.0000000000
     41977       337  POPE      H7X           -41.6198695082      -29.6046350857      -10.3928999864  MEMB      337             0.0000000000
     41978       337  POPE      H7Y           -40.4639537162      -30.9414156278      -10.8529881724  MEMB      337             0.0000000000
     41979       337  POPE      C38           -42.3242448614      -31.4913061132       -9.7392424131  MEMB      337             0.0000000000
     41980       337  POPE      H8X           -42.4421172923      -32.5359382531      -10.1018486420  MEMB      337             0.0000000000
     41981       337  POPE      H8Y           -43.3276456692      -31.0760150728       -9.5312400897  MEMB      337             0.0000000000
     41982       337  POPE      C39           -41.6597006244      -31.4607591307       -8.3701222400  MEMB      337             0.0000000000
     41983       337  POPE      H9X           -41.7344680529      -30.4392155632       -7.9471629360  MEMB      337             0.0000000000
     41984       337  POPE      H9Y           -40.6020628234      -31.6632747959       -8.5877100764  MEMB      337             0.0000000000
     41985       337  POPE      C310          -42.3055894190      -32.4477863297       -7.4051335824  MEMB      337             0.0000000000
     41986       337  POPE      H10X          -42.4728974451      -33.4020483427       -7.9600028240  MEMB      337             0.0000000000
     41987       337  POPE      H10Y          -43.2657479612      -31.9882150365       -7.1234700381  MEMB      337             0.0000000000
     41988       337  POPE      C311          -41.5393945642      -32.7918112110       -6.1317071347  MEMB      337             0.0000000000
     41989       337  POPE      H11X          -40.7311755688      -33.4821886211       -6.4619515145  MEMB      337             0.0000000000
     41990       337  POPE      H11Y          -42.2124680324      -33.3220568913       -5.4133162189  MEMB      337             0.0000000000
     41991       337  POPE      C312          -40.8567575580      -31.6578114863       -5.3641726356  MEMB      337             0.0000000000
     41992       337  POPE      H12X          -41.5810401033      -30.9071563131       -4.9858345742  MEMB      337             0.0000000000
     41993       337  POPE      H12Y          -40.1402346585      -31.1267913396       -6.0224977846  MEMB      337             0.0000000000
     41994       337  POPE      C313          -40.1088349969      -32.2905596383       -4.1827862379  MEMB      337             0.0000000000
     41995       337  POPE      H13X          -39.6603532496      -33.2609218376       -4.5112622523  MEMB      337             0.0000000000
     41996       337  POPE      H13Y          -40.8341970120      -32.5331126715       -3.3889259378  MEMB      337             0.0000000000
     41997       337  POPE      C314          -38.9836629428      -31.4686478914       -3.5508866585  MEMB      337             0.0000000000
     41998       337  POPE      H14X          -38.2768242737      -31.1758854873       -4.3552376003  MEMB      337             0.0000000000
     41999       337  POPE      H14Y          -38.4515987395      -32.1692220211       -2.8614542847  MEMB      337             0.0000000000
     42000       337  POPE      C315          -39.3705207871      -30.1856320148       -2.7852493551  MEMB      337             0.0000000000
     42001       337  POPE      H15X          -39.6638879777      -29.3854960275       -3.4953815088  MEMB      337             0.0000000000
     42002       337  POPE      H15Y          -38.4550633685      -29.8136521833       -2.2752329445  MEMB      337             0.0000000000
     42003       337  POPE      C316          -40.4832069771      -30.2821119760       -1.7441704278  MEMB      337             0.0000000000
     42004       337  POPE      H16X          -41.4762090572      -30.1190044285       -2.2228351175  MEMB      337             0.0000000000
     42005       337  POPE      H16Y          -40.3136330180      -29.5481018087       -0.9275949629  MEMB      337             0.0000000000
     42006       337  POPE      H16Z          -40.4717225641      -31.2645743969       -1.2482106398  MEMB      337             0.0000000000
     42007       338  POPE      N             -44.8949428909      -24.6586886454      -20.5745500302  MEMB      338             0.0000000000
     42008       338  POPE      HN1           -45.2097913538      -23.8455778856      -21.1364799168  MEMB      338             0.0000000000
     42009       338  POPE      HN2           -45.1554986373      -24.5315658604      -19.5697897911  MEMB      338             0.0000000000
     42010       338  POPE      HN3           -43.8596544894      -24.7719485789      -20.6528637622  MEMB      338             0.0000000000
     42011       338  POPE      C12           -45.5516449322      -25.9560449409      -20.9774975904  MEMB      338             0.0000000000
     42012       338  POPE      H12A          -45.5907456936      -26.0342067478      -22.0493736587  MEMB      338             0.0000000000
     42013       338  POPE      H12B          -46.6116759338      -25.9987067688      -20.6790981001  MEMB      338             0.0000000000
     42014       338  POPE      C11           -44.8205889789      -27.1496665842      -20.4103784122  MEMB      338             0.0000000000
     42015       338  POPE      H11A          -43.8318750116      -27.2799380765      -20.9165554379  MEMB      338             0.0000000000
     42016       338  POPE      H11B          -45.4563903833      -28.0236623839      -20.6476242886  MEMB      338             0.0000000000
     42017       338  POPE      P             -44.4572350808      -28.1845719760      -18.0218246888  MEMB      338             0.0000000000
     42018       338  POPE      O13           -43.2133395149      -27.8445542579      -17.3216615235  MEMB      338             0.0000000000
     42019       338  POPE      O14           -44.5696480068      -29.4678662457      -18.7342540586  MEMB      338             0.0000000000
     42020       338  POPE      O11           -45.6399332833      -28.1705642030      -17.0184449734  MEMB      338             0.0000000000
     42021       338  POPE      O12           -44.7367667739      -26.9678933728      -19.0144522698  MEMB      338             0.0000000000
     42022       338  POPE      C1            -46.9429804908      -27.7449531740      -17.3837929600  MEMB      338             0.0000000000
     42023       338  POPE      HA            -47.6018940778      -28.1348477392      -16.5843434458  MEMB      338             0.0000000000
     42024       338  POPE      HB            -47.3193121598      -28.1729555481      -18.3339127438  MEMB      338             0.0000000000
     42025       338  POPE      C2            -47.0694530711      -26.2290094303      -17.3600412860  MEMB      338             0.0000000000
     42026       338  POPE      HS            -46.8150336277      -25.7700071343      -18.3363324459  MEMB      338             0.0000000000
     42027       338  POPE      O21           -46.1235112486      -25.8054952785      -16.4251477745  MEMB      338             0.0000000000
     42028       338  POPE      C21           -45.8758738274      -24.6105452752      -16.4362298537  MEMB      338             0.0000000000
     42029       338  POPE      O22           -46.1609717648      -23.7419048307      -17.2671707183  MEMB      338             0.0000000000
     42030       338  POPE      C22           -45.2240025750      -24.5676431834      -15.1667811436  MEMB      338             0.0000000000
     42031       338  POPE      H2R           -44.4071963947      -24.0980926806      -15.5248312685  MEMB      338             0.0000000000
     42032       338  POPE      H2S           -44.5564147014      -25.3115414325      -14.7515380911  MEMB      338             0.0000000000
     42033       338  POPE      C3            -48.4853777221      -25.8124033664      -16.9580391319  MEMB      338             0.0000000000
     42034       338  POPE      HX            -49.1876744046      -25.9522408189      -17.8002420507  MEMB      338             0.0000000000
     42035       338  POPE      HY            -48.3347894862      -24.7434848879      -16.8393868945  MEMB      338             0.0000000000
     42036       338  POPE      O31           -48.9413748008      -26.5511951988      -15.7913285288  MEMB      338             0.0000000000
     42037       338  POPE      C31           -48.8633082399      -25.8973284329      -14.6765207751  MEMB      338             0.0000000000
     42038       338  POPE      O32           -48.6770039840      -24.7293589760      -14.5977852104  MEMB      338             0.0000000000
     42039       338  POPE      C32           -48.8170814885      -26.7442415048      -13.4423157812  MEMB      338             0.0000000000
     42040       338  POPE      H2X           -47.9084172489      -27.3551622779      -13.5398399159  MEMB      338             0.0000000000
     42041       338  POPE      H2Y           -49.7241375666      -27.3498236711      -13.4704260027  MEMB      338             0.0000000000
     42042       338  POPE      C23           -46.1145474306      -23.9152154042      -14.2198822517  MEMB      338             0.0000000000
     42043       338  POPE      H3R           -46.7279368815      -24.6146568998      -13.6568289035  MEMB      338             0.0000000000
     42044       338  POPE      H3S           -46.7113333060      -23.0082247498      -14.7692485102  MEMB      338             0.0000000000
     42045       338  POPE      C24           -45.0307088399      -23.8819110582      -13.2455778253  MEMB      338             0.0000000000
     42046       338  POPE      H4R           -45.7881175339      -23.0762549663      -13.3769147574  MEMB      338             0.0000000000
     42047       338  POPE      H4S           -44.4227408244      -23.2537101931      -12.8094959904  MEMB      338             0.0000000000
     42048       338  POPE      C25           -44.7220481464      -24.5730776707      -11.9622561566  MEMB      338             0.0000000000
     42049       338  POPE      H5R           -45.5832930295      -25.1631907692      -11.8326322379  MEMB      338             0.0000000000
     42050       338  POPE      H5S           -44.5563998490      -24.0508913262      -11.0101654863  MEMB      338             0.0000000000
     42051       338  POPE      C26           -43.3939476838      -25.1104730746      -12.1654288953  MEMB      338             0.0000000000
     42052       338  POPE      H6R           -42.8405046742      -24.9656100345      -11.2553183805  MEMB      338             0.0000000000
     42053       338  POPE      H6S           -42.8098827960      -24.6052482454      -12.9703095549  MEMB      338             0.0000000000
     42054       338  POPE      C27           -43.6323119016      -26.5245087165      -12.5283407371  MEMB      338             0.0000000000
     42055       338  POPE      H7R           -42.9086460891      -26.7129671919      -13.3336766533  MEMB      338             0.0000000000
     42056       338  POPE      H7S           -44.6464679846      -26.6132435113      -12.9720030470  MEMB      338             0.0000000000
     42057       338  POPE      C28           -43.4640814354      -27.5460843394      -11.4112668520  MEMB      338             0.0000000000
     42058       338  POPE      H8R           -42.5404747920      -27.3164735696      -10.8407181310  MEMB      338             0.0000000000
     42059       338  POPE      H8S           -43.2463027898      -28.4848406811      -11.9394359590  MEMB      338             0.0000000000
     42060       338  POPE      C29           -44.7531894731      -27.7504305815      -10.6465591739  MEMB      338             0.0000000000
     42061       338  POPE      H91           -45.6441349709      -27.8890323274      -11.2606749628  MEMB      338             0.0000000000
     42062       338  POPE      C210          -44.9695815286      -27.9012474161       -9.3486231118  MEMB      338             0.0000000000
     42063       338  POPE      H101          -45.9737571396      -27.9257425822       -8.9440778702  MEMB      338             0.0000000000
     42064       338  POPE      C211          -43.9569592382      -27.9006737384       -8.2847462747  MEMB      338             0.0000000000
     42065       338  POPE      H11R          -43.0094767063      -28.2946280545       -8.6183226746  MEMB      338             0.0000000000
     42066       338  POPE      H11S          -44.2408308947      -28.4492133932       -7.3966881736  MEMB      338             0.0000000000
     42067       338  POPE      C212          -43.8427927120      -26.5578112536       -7.7837844224  MEMB      338             0.0000000000
     42068       338  POPE      H12R          -43.8604557769      -26.0931347263       -8.5651109276  MEMB      338             0.0000000000
     42069       338  POPE      H12S          -42.9382185647      -26.0189167428       -7.6778937474  MEMB      338             0.0000000000
     42070       338  POPE      C213          -44.8130395425      -26.1774154395       -6.8770588588  MEMB      338             0.0000000000
     42071       338  POPE      H13R          -45.5769747080      -26.5286928668       -7.2838544293  MEMB      338             0.0000000000
     42072       338  POPE      H13S          -44.9471702252      -25.0843252394       -6.6079203426  MEMB      338             0.0000000000
     42073       338  POPE      C214          -44.6922615070      -26.8733436871       -5.7091968592  MEMB      338             0.0000000000
     42074       338  POPE      H14R          -43.6644625665      -26.7517535606       -5.3465348219  MEMB      338             0.0000000000
     42075       338  POPE      H14S          -44.9327721309      -27.8903822218       -5.7313436391  MEMB      338             0.0000000000
     42076       338  POPE      C215          -45.5891798912      -26.3279802454       -4.8252184690  MEMB      338             0.0000000000
     42077       338  POPE      H15R          -46.2941952108      -25.8540562756       -4.6964187462  MEMB      338             0.0000000000
     42078       338  POPE      H15S          -45.6074481941      -25.0790574499       -4.7792208930  MEMB      338             0.0000000000
     42079       338  POPE      C216          -45.9871959832      -27.1896404684       -3.4772628386  MEMB      338             0.0000000000
     42080       338  POPE      H16R          -45.0081589138      -27.5677254533       -3.2073731345  MEMB      338             0.0000000000
     42081       338  POPE      H16S          -46.1305418286      -28.1812862598       -3.3650290564  MEMB      338             0.0000000000
     42082       338  POPE      C217          -46.8748213693      -26.5731497977       -2.3328941186  MEMB      338             0.0000000000
     42083       338  POPE      H17R          -47.3518444641      -25.7229028281       -2.5833017205  MEMB      338             0.0000000000
     42084       338  POPE      H17S          -46.9309917044      -25.6470840539       -1.8776933073  MEMB      338             0.0000000000
     42085       338  POPE      C218          -47.4521088123      -27.1811990473       -1.1778990667  MEMB      338             0.0000000000
     42086       338  POPE      H18R          -47.9084230334      -26.5117751870       -0.4250757927  MEMB      338             0.0000000000
     42087       338  POPE      H18S          -46.5587972007      -27.4487735475       -0.6965141561  MEMB      338             0.0000000000
     42088       338  POPE      H18T          -48.0793576016      -28.0255125792       -1.5104119035  MEMB      338             0.0000000000
     42089       338  POPE      C33           -48.6488065274      -25.9638756126      -12.1353758513  MEMB      338             0.0000000000
     42090       338  POPE      H3X           -49.5035782090      -25.3023451321      -11.9942589622  MEMB      338             0.0000000000
     42091       338  POPE      H3Y           -47.8799807430      -25.1895037980      -12.1335320682  MEMB      338             0.0000000000
     42092       338  POPE      C34           -48.3912778724      -27.0303454372      -11.0682428920  MEMB      338             0.0000000000
     42093       338  POPE      H4X           -47.4086316913      -27.2363073760      -10.8497160211  MEMB      338             0.0000000000
     42094       338  POPE      H4Y           -48.8944562430      -27.9860105876      -11.0353388729  MEMB      338             0.0000000000
     42095       338  POPE      C35           -48.7096097159      -26.5449724938       -9.8804002304  MEMB      338             0.0000000000
     42096       338  POPE      H5X           -49.6987554943      -26.5119646227       -9.6952167182  MEMB      338             0.0000000000
     42097       338  POPE      H5Y           -48.2579111493      -25.5171932530       -9.9210302369  MEMB      338             0.0000000000
     42098       338  POPE      C36           -48.7317736967      -27.2701348112       -8.6014192274  MEMB      338             0.0000000000
     42099       338  POPE      H6X           -49.0939210166      -26.9337587581       -7.6162053419  MEMB      338             0.0000000000
     42100       338  POPE      H6Y           -47.6484220359      -27.1664563754       -8.7892080484  MEMB      338             0.0000000000
     42101       338  POPE      C37           -48.8931414658      -28.5466507410       -8.3064380624  MEMB      338             0.0000000000
     42102       338  POPE      H7X           -48.1911361500      -28.8380596390       -9.0674024121  MEMB      338             0.0000000000
     42103       338  POPE      H7Y           -49.9514098118      -28.6575642117       -8.5332849927  MEMB      338             0.0000000000
     42104       338  POPE      C38           -48.4887492427      -29.0947411939       -6.9567042195  MEMB      338             0.0000000000
     42105       338  POPE      H8X           -49.1849586543      -28.8871256224       -6.1038531564  MEMB      338             0.0000000000
     42106       338  POPE      H8Y           -47.5064375344      -28.7487954374       -6.6151865861  MEMB      338             0.0000000000
     42107       338  POPE      C39           -48.3809686779      -30.5559051704       -6.9588838782  MEMB      338             0.0000000000
     42108       338  POPE      H9X           -48.9133976889      -31.4531587275       -7.3198876920  MEMB      338             0.0000000000
     42109       338  POPE      H9Y           -49.2158729606      -30.7388523375       -6.3366156203  MEMB      338             0.0000000000
     42110       338  POPE      C310          -47.1603763442      -31.3424869352       -7.0936804674  MEMB      338             0.0000000000
     42111       338  POPE      H10X          -46.6252255245      -30.8665178179       -7.8066472558  MEMB      338             0.0000000000
     42112       338  POPE      H10Y          -47.3810223183      -32.4597550353       -7.2008825862  MEMB      338             0.0000000000
     42113       338  POPE      C311          -45.8513635824      -31.1160000622       -6.5807283106  MEMB      338             0.0000000000
     42114       338  POPE      H11X          -45.6541159453      -30.0347858349       -6.5708769924  MEMB      338             0.0000000000
     42115       338  POPE      H11Y          -45.1415740212      -31.7734168038       -7.0765449472  MEMB      338             0.0000000000
     42116       338  POPE      C312          -45.6980980210      -31.7981802233       -5.3977634035  MEMB      338             0.0000000000
     42117       338  POPE      H12X          -46.1699424145      -32.8216240395       -5.3253429067  MEMB      338             0.0000000000
     42118       338  POPE      H12Y          -46.4686326518      -31.0626606474       -5.1762575543  MEMB      338             0.0000000000
     42119       338  POPE      C313          -44.8447199815      -31.2745548797       -4.3271088121  MEMB      338             0.0000000000
     42120       338  POPE      H13X          -45.1786707017      -30.3917365098       -3.7306555849  MEMB      338             0.0000000000
     42121       338  POPE      H13Y          -43.8290678640      -31.2302968646       -4.7286787919  MEMB      338             0.0000000000
     42122       338  POPE      C314          -44.7565285473      -32.1452424840       -3.2018818564  MEMB      338             0.0000000000
     42123       338  POPE      H14X          -44.0451942861      -31.5057601468       -2.6476694088  MEMB      338             0.0000000000
     42124       338  POPE      H14Y          -44.1773616487      -33.0234000036       -3.4254017254  MEMB      338             0.0000000000
     42125       338  POPE      C315          -45.9035780167      -32.3484775764       -2.0424905945  MEMB      338             0.0000000000
     42126       338  POPE      H15X          -46.5890555898      -33.1046691851       -2.4446048442  MEMB      338             0.0000000000
     42127       338  POPE      H15Y          -46.0781244996      -31.3074966240       -2.0264380892  MEMB      338             0.0000000000
     42128       338  POPE      C316          -46.2116517918      -33.1489594102       -0.5407593831  MEMB      338             0.0000000000
     42129       338  POPE      H16X          -45.4256079940      -33.5227935850        0.0946495275  MEMB      338             0.0000000000
     42130       338  POPE      H16Y          -45.3919205156      -34.0756348575       -0.1296188122  MEMB      338             0.0000000000
     42131       338  POPE      H16Z          -46.8287291796      -32.8632418099        0.0528480454  MEMB      338             0.0000000000
     42132       339  PMPE      N             -40.8580998268       30.1979546493      -20.2110962533  MEMB      339             0.0000000000
     42133       339  PMPE      HN1           -39.9452469010       30.6882162208      -20.0694838345  MEMB      339             0.0000000000
     42134       339  PMPE      HN2           -40.8364659960       29.3175135608      -19.6620363577  MEMB      339             0.0000000000
     42135       339  PMPE      HN3           -41.0155839601       29.9959810239      -21.2184827436  MEMB      339             0.0000000000
     42136       339  PMPE      C12           -42.0013134558       31.0112516659      -19.6541077801  MEMB      339             0.0000000000
     42137       339  PMPE      H12A          -42.2218725401       30.6121460262      -18.6438807357  MEMB      339             0.0000000000
     42138       339  PMPE      H12B          -42.8899678201       30.8678202273      -20.3074244458  MEMB      339             0.0000000000
     42139       339  PMPE      C11           -41.6860015600       32.5080291557      -19.5028594252  MEMB      339             0.0000000000
     42140       339  PMPE      H11A          -42.5866398075       32.9660184038      -19.0367806303  MEMB      339             0.0000000000
     42141       339  PMPE      H11B          -41.4861481036       32.9554922375      -20.5034018500  MEMB      339             0.0000000000
     42142       339  PMPE      P             -40.0224821975       34.2593476831      -18.5249616923  MEMB      339             0.0000000000
     42143       339  PMPE      O13           -39.3955172385       34.5327349005      -19.8123493081  MEMB      339             0.0000000000
     42144       339  PMPE      O14           -39.2330683259       34.3726293589      -17.2923574084  MEMB      339             0.0000000000
     42145       339  PMPE      O11           -41.2921571375       35.2319666633      -18.3752215424  MEMB      339             0.0000000000
     42146       339  PMPE      O12           -40.6016254151       32.7392788941      -18.6221291585  MEMB      339             0.0000000000
     42147       339  PMPE      C1            -42.2383482989       35.0560447511      -17.3151875246  MEMB      339             0.0000000000
     42148       339  PMPE      HA            -42.2138000448       34.0159337479      -16.9123717702  MEMB      339             0.0000000000
     42149       339  PMPE      HB            -43.2286286953       35.2391562842      -17.7561545514  MEMB      339             0.0000000000
     42150       339  PMPE      C2            -42.1433299734       36.0778798454      -16.1451313330  MEMB      339             0.0000000000
     42151       339  PMPE      HS            -42.5110081098       37.0705727883      -16.5050817615  MEMB      339             0.0000000000
     42152       339  PMPE      O21           -40.7693703632       36.1309349326      -15.7697692040  MEMB      339             0.0000000000
     42153       339  PMPE      C21           -40.4118034666       36.8798552370      -14.7880199288  MEMB      339             0.0000000000
     42154       339  PMPE      O22           -41.0810441435       37.7123037273      -14.2034592588  MEMB      339             0.0000000000
     42155       339  PMPE      C22           -38.9298686101       36.7718273309      -14.6037127231  MEMB      339             0.0000000000
     42156       339  PMPE      H2R           -38.3283379511       37.6398282391      -14.8041961393  MEMB      339             0.0000000000
     42157       339  PMPE      H2S           -38.4936869246       36.0652325154      -15.3396282536  MEMB      339             0.0000000000
     42158       339  PMPE      C3            -43.0732088814       35.6736197259      -14.9568861164  MEMB      339             0.0000000000
     42159       339  PMPE      HX            -44.1113413288       35.7339126823      -15.3468338586  MEMB      339             0.0000000000
     42160       339  PMPE      HY            -42.9714141811       36.4066681445      -14.1156773277  MEMB      339             0.0000000000
     42161       339  PMPE      O31           -42.7570533617       34.3495479427      -14.4900380304  MEMB      339             0.0000000000
     42162       339  PMPE      C31           -43.6733954461       33.3865896638      -14.4825407788  MEMB      339             0.0000000000
     42163       339  PMPE      O32           -44.8109008427       33.4551456552      -14.9281445474  MEMB      339             0.0000000000
     42164       339  PMPE      C32           -43.1841998080       32.1239754749      -13.7667557100  MEMB      339             0.0000000000
     42165       339  PMPE      H2X           -43.9342733143       31.3302310429      -13.9427995588  MEMB      339             0.0000000000
     42166       339  PMPE      H2Y           -43.1495308788       32.2551902251      -12.6689455961  MEMB      339             0.0000000000
     42167       339  PMPE      C23           -38.8487391326       36.6237738921      -13.1023296142  MEMB      339             0.0000000000
     42168       339  PMPE      H3R           -38.8033320495       35.5928158704      -13.2917928434  MEMB      339             0.0000000000
     42169       339  PMPE      H3S           -39.5680972851       36.1178682254      -12.4784858653  MEMB      339             0.0000000000
     42170       339  PMPE      C24           -37.7287543990       37.3416093598      -12.3104477702  MEMB      339             0.0000000000
     42171       339  PMPE      H4R           -36.7465331273       37.5557478261      -12.8503609188  MEMB      339             0.0000000000
     42172       339  PMPE      H4S           -37.4258424260       36.8479624575      -11.4058411165  MEMB      339             0.0000000000
     42173       339  PMPE      C25           -38.4184150342       38.4932926266      -11.7733963391  MEMB      339             0.0000000000
     42174       339  PMPE      H5R           -38.5734135748       39.0083595776      -12.7676695375  MEMB      339             0.0000000000
     42175       339  PMPE      H5S           -37.7306971524       39.0244734131      -11.0307454211  MEMB      339             0.0000000000
     42176       339  PMPE      C26           -39.5846601213       38.3186660820      -10.9643242003  MEMB      339             0.0000000000
     42177       339  PMPE      H6R           -40.2788691937       37.6227199680      -11.3615634617  MEMB      339             0.0000000000
     42178       339  PMPE      H6S           -40.1068437741       39.2203122948      -11.1369331562  MEMB      339             0.0000000000
     42179       339  PMPE      C27           -39.1685249824       38.0374173211       -9.5369091156  MEMB      339             0.0000000000
     42180       339  PMPE      H7R           -38.6445041835       38.9079707885       -9.1274407316  MEMB      339             0.0000000000
     42181       339  PMPE      H7S           -38.3454382250       37.3609956649       -9.5708515019  MEMB      339             0.0000000000
     42182       339  PMPE      C28           -40.2570165379       37.4015706689       -8.6128692727  MEMB      339             0.0000000000
     42183       339  PMPE      H8R           -41.2693142073       37.8341736719       -8.4622194280  MEMB      339             0.0000000000
     42184       339  PMPE      H8S           -39.8531208480       37.5359243580       -7.6270647767  MEMB      339             0.0000000000
     42185       339  PMPE      C29           -40.8522432897       36.1808657341       -9.1484394763  MEMB      339             0.0000000000
     42186       339  PMPE      H9R           -40.1329553994       35.5104765846       -9.5762477773  MEMB      339             0.0000000000
     42187       339  PMPE      C217          -42.0565872130       36.4973298959      -10.0781550089  MEMB      339             0.0000000000
     42188       339  PMPE      H17R          -42.0598033810       35.9004201067      -10.9678471278  MEMB      339             0.0000000000
     42189       339  PMPE      H17S          -42.5318189666       37.4707764367      -10.0095084253  MEMB      339             0.0000000000
     42190       339  PMPE      C210          -42.2333741708       35.6920767614       -8.8056302725  MEMB      339             0.0000000000
     42191       339  PMPE      H10R          -42.3418104680       34.6091582866       -8.9086648009  MEMB      339             0.0000000000
     42192       339  PMPE      C211          -43.0448427723       36.3598688198       -7.7207476713  MEMB      339             0.0000000000
     42193       339  PMPE      H11R          -43.9898259036       35.7938404172       -7.5839629999  MEMB      339             0.0000000000
     42194       339  PMPE      H11S          -43.2893712749       37.3975617558       -8.0230697242  MEMB      339             0.0000000000
     42195       339  PMPE      C212          -42.3858867843       36.3833197678       -6.3479698380  MEMB      339             0.0000000000
     42196       339  PMPE      H12R          -41.5660600729       37.1256305913       -6.2905887423  MEMB      339             0.0000000000
     42197       339  PMPE      H12S          -41.9414595184       35.3930043455       -6.1227256376  MEMB      339             0.0000000000
     42198       339  PMPE      C213          -43.4801450335       36.6640455315       -5.3213566650  MEMB      339             0.0000000000
     42199       339  PMPE      H13R          -44.1764448933       35.7909967209       -5.3010861713  MEMB      339             0.0000000000
     42200       339  PMPE      H13S          -44.0599230539       37.5539806142       -5.6511524367  MEMB      339             0.0000000000
     42201       339  PMPE      C214          -42.9523057456       36.8829450721       -3.9194675088  MEMB      339             0.0000000000
     42202       339  PMPE      H14R          -42.2557038173       36.0915037023       -3.6191367927  MEMB      339             0.0000000000
     42203       339  PMPE      H14S          -43.7663350984       37.1036758694       -3.2020090372  MEMB      339             0.0000000000
     42204       339  PMPE      C215          -42.1104931178       38.0153984471       -3.7419306669  MEMB      339             0.0000000000
     42205       339  PMPE      H15R          -42.7775709475       38.8880972693       -4.0738555233  MEMB      339             0.0000000000
     42206       339  PMPE      H15S          -41.0967177996       37.8890121702       -4.2678163755  MEMB      339             0.0000000000
     42207       339  PMPE      C216          -41.8489552706       38.4197901700       -2.3628147201  MEMB      339             0.0000000000
     42208       339  PMPE      H16R          -42.6921925692       38.4732546756       -1.7236054874  MEMB      339             0.0000000000
     42209       339  PMPE      H16S          -41.0379617800       37.7519877914       -1.9347605927  MEMB      339             0.0000000000
     42210       339  PMPE      H16T          -41.5979632643       39.5336922616       -2.4067521406  MEMB      339             0.0000000000
     42211       339  PMPE      C33           -41.8443570892       31.6327281830      -14.2864578561  MEMB      339             0.0000000000
     42212       339  PMPE      H3X           -41.7565821901       31.5599588178      -15.3862386085  MEMB      339             0.0000000000
     42213       339  PMPE      H3Y           -41.6425408136       30.6107564535      -13.8994193433  MEMB      339             0.0000000000
     42214       339  PMPE      C34           -40.7209528813       32.4202749821      -13.7579535315  MEMB      339             0.0000000000
     42215       339  PMPE      H4X           -40.9232041051       32.6753049617      -12.6927461303  MEMB      339             0.0000000000
     42216       339  PMPE      H4Y           -40.6174922286       33.3845920518      -14.3198527410  MEMB      339             0.0000000000
     42217       339  PMPE      C35           -39.5620847326       31.5259729747      -14.0426527291  MEMB      339             0.0000000000
     42218       339  PMPE      H5X           -39.3254729744       31.3390740913      -15.0917942195  MEMB      339             0.0000000000
     42219       339  PMPE      H5Y           -39.3193932508       30.6576706409      -13.4039365651  MEMB      339             0.0000000000
     42220       339  PMPE      C36           -38.6177466421       32.3149978896      -13.6176277355  MEMB      339             0.0000000000
     42221       339  PMPE      H6X           -38.7280794117       33.3954290104      -14.0551500380  MEMB      339             0.0000000000
     42222       339  PMPE      H6Y           -37.5948620285       31.9503477113      -14.0075895609  MEMB      339             0.0000000000
     42223       339  PMPE      C37           -38.7402924925       32.3091642414      -11.9170097370  MEMB      339             0.0000000000
     42224       339  PMPE      H7X           -38.4999774138       31.5273021317      -11.3106912888  MEMB      339             0.0000000000
     42225       339  PMPE      H7Y           -39.3219379521       33.1857986797      -11.5878644843  MEMB      339             0.0000000000
     42226       339  PMPE      C38           -37.3287991385       32.4730241995      -10.9566880193  MEMB      339             0.0000000000
     42227       339  PMPE      H8X           -36.3297025680       32.6734756773      -11.7918408119  MEMB      339             0.0000000000
     42228       339  PMPE      H8Y           -36.5803060418       32.2743729314      -11.4793860936  MEMB      339             0.0000000000
     42229       339  PMPE      C39           -37.2138960036       33.4182427188       -9.7500758973  MEMB      339             0.0000000000
     42230       339  PMPE      H9X           -37.5067437042       34.5802715999       -9.7438993693  MEMB      339             0.0000000000
     42231       339  PMPE      H9Y           -36.1796890002       33.3814720375       -9.4655058707  MEMB      339             0.0000000000
     42232       339  PMPE      C310          -38.0805078814       33.0248750574       -8.8760777518  MEMB      339             0.0000000000
     42233       339  PMPE      H10X          -37.9275992900       31.9481297911       -8.8930409651  MEMB      339             0.0000000000
     42234       339  PMPE      H10Y          -38.9970931964       33.3783694332       -9.3967246670  MEMB      339             0.0000000000
     42235       339  PMPE      C311          -37.7289132053       33.6742628466       -7.6017270016  MEMB      339             0.0000000000
     42236       339  PMPE      H11X          -37.5069594896       34.7593045759       -7.7036452986  MEMB      339             0.0000000000
     42237       339  PMPE      H11Y          -36.8709790583       33.1850371291       -7.0970489046  MEMB      339             0.0000000000
     42238       339  PMPE      C312          -38.9586538585       33.4469764811       -6.7816050663  MEMB      339             0.0000000000
     42239       339  PMPE      H12X          -39.1539916167       32.3620789184       -6.7610833768  MEMB      339             0.0000000000
     42240       339  PMPE      H12Y          -39.8361812759       33.8353621071       -7.3377051391  MEMB      339             0.0000000000
     42241       339  PMPE      C313          -38.7888314502       33.8818095690       -5.3300503879  MEMB      339             0.0000000000
     42242       339  PMPE      H13X          -37.8246880960       33.4395668684       -4.9660607543  MEMB      339             0.0000000000
     42243       339  PMPE      H13Y          -39.5984163803       33.4324516245       -4.7146355020  MEMB      339             0.0000000000
     42244       339  PMPE      C314          -38.8358052171       35.4017526061       -5.2073348408  MEMB      339             0.0000000000
     42245       339  PMPE      H14X          -39.6378189635       35.8564606366       -5.8577046087  MEMB      339             0.0000000000
     42246       339  PMPE      H14Y          -37.8480120379       35.7808134365       -5.5468828079  MEMB      339             0.0000000000
     42247       339  PMPE      C315          -38.8569602981       35.9598518095       -3.7913379048  MEMB      339             0.0000000000
     42248       339  PMPE      H15X          -39.7467307901       35.7719447371       -3.1667090150  MEMB      339             0.0000000000
     42249       339  PMPE      H15Y          -38.8346534024       36.9848947293       -4.0371985921  MEMB      339             0.0000000000
     42250       339  PMPE      C316          -37.6316496872       35.7885597499       -2.9346605023  MEMB      339             0.0000000000
     42251       339  PMPE      H16X          -36.7092357310       36.2692130874       -3.3214291464  MEMB      339             0.0000000000
     42252       339  PMPE      H16Y          -37.4543754675       34.7227299164       -2.7718857838  MEMB      339             0.0000000000
     42253       339  PMPE      H16Z          -37.8728636257       36.2691923717       -1.9764760285  MEMB      339             0.0000000000
     42254       340  PMPE      N              21.8826579799       47.2755140899      -20.1645705207  MEMB      340             0.0000000000
     42255       340  PMPE      HN1            21.4842073079       47.5737025601      -19.2674207490  MEMB      340             0.0000000000
     42256       340  PMPE      HN2            21.1603371735       47.3975962398      -20.9088082616  MEMB      340             0.0000000000
     42257       340  PMPE      HN3            22.1969873467       46.2803789925      -20.0899410985  MEMB      340             0.0000000000
     42258       340  PMPE      C12            23.0826647527       48.1462635796      -20.3992522944  MEMB      340             0.0000000000
     42259       340  PMPE      H12A           22.6976349067       49.1791837503      -20.2867271992  MEMB      340             0.0000000000
     42260       340  PMPE      H12B           23.4720698046       47.9223666980      -21.4123636979  MEMB      340             0.0000000000
     42261       340  PMPE      C11            24.1874862610       47.8999074995      -19.3813265712  MEMB      340             0.0000000000
     42262       340  PMPE      H11A           23.7520693122       48.0918690659      -18.3773753922  MEMB      340             0.0000000000
     42263       340  PMPE      H11B           25.0039893573       48.6364967301      -19.6019507558  MEMB      340             0.0000000000
     42264       340  PMPE      P              25.5459812340       45.8877330236      -18.4419216491  MEMB      340             0.0000000000
     42265       340  PMPE      O13            26.7983199994       46.2461980044      -19.0030207279  MEMB      340             0.0000000000
     42266       340  PMPE      O14            25.3842474090       44.4528135098      -18.3001939199  MEMB      340             0.0000000000
     42267       340  PMPE      O11            25.1248969465       46.6684139740      -17.1248075217  MEMB      340             0.0000000000
     42268       340  PMPE      O12            24.6014945436       46.5459287638      -19.5034078845  MEMB      340             0.0000000000
     42269       340  PMPE      C1             23.9699315424       46.1791204735      -16.4455991768  MEMB      340             0.0000000000
     42270       340  PMPE      HA             24.0230686524       45.1007772902      -16.2135282291  MEMB      340             0.0000000000
     42271       340  PMPE      HB             23.0728289043       46.4290470498      -17.0485169209  MEMB      340             0.0000000000
     42272       340  PMPE      C2             23.8642047331       46.8858056375      -15.1184833048  MEMB      340             0.0000000000
     42273       340  PMPE      HS             23.8136249386       47.8568331986      -15.4704390343  MEMB      340             0.0000000000
     42274       340  PMPE      O21            25.0725672007       46.6104641648      -14.4255802846  MEMB      340             0.0000000000
     42275       340  PMPE      C21            25.3515957931       47.4771797320      -13.5502454151  MEMB      340             0.0000000000
     42276       340  PMPE      O22            24.5668223289       48.2592003405      -13.0791020794  MEMB      340             0.0000000000
     42277       340  PMPE      C22            26.7687799738       47.1595718478      -13.0344487039  MEMB      340             0.0000000000
     42278       340  PMPE      H2R            27.4631081862       47.9111869936      -12.7020979428  MEMB      340             0.0000000000
     42279       340  PMPE      H2S            27.3932731242       46.9878006013      -13.8375551043  MEMB      340             0.0000000000
     42280       340  PMPE      C3             22.6012623039       46.5190059169      -14.2881680818  MEMB      340             0.0000000000
     42281       340  PMPE      HX             22.7147228506       45.4506789956      -14.0513446762  MEMB      340             0.0000000000
     42282       340  PMPE      HY             21.7574225656       46.7445341255      -14.9765697561  MEMB      340             0.0000000000
     42283       340  PMPE      O31            22.3570373603       47.3207180084      -13.1260202886  MEMB      340             0.0000000000
     42284       340  PMPE      C31            22.1609026264       46.6979050157      -11.9209687034  MEMB      340             0.0000000000
     42285       340  PMPE      O32            21.9149920690       45.5191628258      -11.8597626221  MEMB      340             0.0000000000
     42286       340  PMPE      C32            21.6724894282       47.7037705250      -10.7978362250  MEMB      340             0.0000000000
     42287       340  PMPE      H2X            21.7128264252       47.3860676181       -9.7961160529  MEMB      340             0.0000000000
     42288       340  PMPE      H2Y            20.5795047023       48.1376817375      -10.7773078401  MEMB      340             0.0000000000
     42289       340  PMPE      C23            27.0181547139       46.7053712504      -11.7036309847  MEMB      340             0.0000000000
     42290       340  PMPE      H3R            26.7329694211       47.5358638179      -11.0090053917  MEMB      340             0.0000000000
     42291       340  PMPE      H3S            28.1357075339       46.5614581738      -11.6309814741  MEMB      340             0.0000000000
     42292       340  PMPE      C24            26.2648971387       45.4226485371      -11.7254039696  MEMB      340             0.0000000000
     42293       340  PMPE      H4R            26.7374541623       44.8245190459      -12.5437537205  MEMB      340             0.0000000000
     42294       340  PMPE      H4S            25.1890484813       45.5175607681      -12.0111797589  MEMB      340             0.0000000000
     42295       340  PMPE      C25            26.3755110595       44.7371297058      -10.3876062163  MEMB      340             0.0000000000
     42296       340  PMPE      H5R            27.4354430127       44.8237796287      -10.0537887478  MEMB      340             0.0000000000
     42297       340  PMPE      H5S            26.0372605612       43.6765859891      -10.4241275971  MEMB      340             0.0000000000
     42298       340  PMPE      C26            25.5631450018       45.4094689944       -9.2888571320  MEMB      340             0.0000000000
     42299       340  PMPE      H6R            24.4770120105       45.2588347932       -9.3895279710  MEMB      340             0.0000000000
     42300       340  PMPE      H6S            25.7803259013       46.5005137015       -9.3063144782  MEMB      340             0.0000000000
     42301       340  PMPE      C27            25.8612316966       44.7917075192       -7.9366591490  MEMB      340             0.0000000000
     42302       340  PMPE      H7R            26.8363204046       45.2371156028       -7.6611281077  MEMB      340             0.0000000000
     42303       340  PMPE      H7S            25.8765814991       43.6722184737       -7.9917667786  MEMB      340             0.0000000000
     42304       340  PMPE      C28            24.8553673867       45.1545287183       -6.8646895855  MEMB      340             0.0000000000
     42305       340  PMPE      H8R            23.9024175575       44.7058290945       -7.1573525620  MEMB      340             0.0000000000
     42306       340  PMPE      H8S            24.7249485377       46.2371644473       -6.7843412997  MEMB      340             0.0000000000
     42307       340  PMPE      C29            25.4137075403       44.7020391998       -5.5469185649  MEMB      340             0.0000000000
     42308       340  PMPE      H9R            26.4443151138       44.8512409596       -5.2681461257  MEMB      340             0.0000000000
     42309       340  PMPE      C217           24.8367012793       43.4572730140       -5.2470597851  MEMB      340             0.0000000000
     42310       340  PMPE      H17R           25.4795249832       42.7079624872       -4.7911899982  MEMB      340             0.0000000000
     42311       340  PMPE      H17S           23.9411850849       43.3223240019       -5.8358551400  MEMB      340             0.0000000000
     42312       340  PMPE      C210           24.5665036422       44.6413593048       -4.3133797593  MEMB      340             0.0000000000
     42313       340  PMPE      H10R           25.1049680029       44.5401087596       -3.3502908564  MEMB      340             0.0000000000
     42314       340  PMPE      C211           23.1058535092       45.1227223997       -4.3624932610  MEMB      340             0.0000000000
     42315       340  PMPE      H11R           22.4832763695       44.3062265903       -4.7972187677  MEMB      340             0.0000000000
     42316       340  PMPE      H11S           23.0333665116       45.9226638824       -5.1103557259  MEMB      340             0.0000000000
     42317       340  PMPE      C212           22.5225564850       45.5212961903       -2.9750101485  MEMB      340             0.0000000000
     42318       340  PMPE      H12R           22.8036987216       44.6664116470       -2.3100684210  MEMB      340             0.0000000000
     42319       340  PMPE      H12S           21.4128404158       45.5945719351       -3.0356369615  MEMB      340             0.0000000000
     42320       340  PMPE      C213           23.0137129342       46.8313612593       -2.2928611082  MEMB      340             0.0000000000
     42321       340  PMPE      H13R           24.1029594793       46.8937992159       -2.3312720348  MEMB      340             0.0000000000
     42322       340  PMPE      H13S           22.7724977140       46.7839628790       -1.2163258187  MEMB      340             0.0000000000
     42323       340  PMPE      C214           22.5429185763       48.1405231593       -2.8990320830  MEMB      340             0.0000000000
     42324       340  PMPE      H14R           21.4707855447       47.9792642954       -3.0666593167  MEMB      340             0.0000000000
     42325       340  PMPE      H14S           23.0368993893       48.1381143534       -3.8878656364  MEMB      340             0.0000000000
     42326       340  PMPE      C215           23.0228696890       49.4611744671       -2.2211472849  MEMB      340             0.0000000000
     42327       340  PMPE      H15R           23.1094695486       50.2417557807       -2.9794719869  MEMB      340             0.0000000000
     42328       340  PMPE      H15S           24.0359563099       49.4015723622       -1.8186832582  MEMB      340             0.0000000000
     42329       340  PMPE      C216           22.3576941750       50.0458356331       -1.0199067368  MEMB      340             0.0000000000
     42330       340  PMPE      H16R           22.3259471729       49.4195838393       -0.1513162232  MEMB      340             0.0000000000
     42331       340  PMPE      H16S           22.5943278896       51.0775725114       -0.7593968239  MEMB      340             0.0000000000
     42332       340  PMPE      H16T           21.4185334682       50.0833095963       -1.1486271156  MEMB      340             0.0000000000
     42333       340  PMPE      C33            22.2972331320       48.7802434945      -11.0114409648  MEMB      340             0.0000000000
     42334       340  PMPE      H3X            21.3850573597       49.5105932049      -10.6878307069  MEMB      340             0.0000000000
     42335       340  PMPE      H3Y            22.3558186554       49.0125808426      -12.0429537865  MEMB      340             0.0000000000
     42336       340  PMPE      C34            23.7771823027       48.8838530525      -10.3046101138  MEMB      340             0.0000000000
     42337       340  PMPE      H4X            24.3444905458       48.1788829108      -10.8933701530  MEMB      340             0.0000000000
     42338       340  PMPE      H4Y            23.6725019982       48.6452520418       -9.2414369900  MEMB      340             0.0000000000
     42339       340  PMPE      C35            24.6452758260       50.2516296447      -10.1672952356  MEMB      340             0.0000000000
     42340       340  PMPE      H5X            24.3296114839       51.3965382813       -9.8924932493  MEMB      340             0.0000000000
     42341       340  PMPE      H5Y            24.7987546328       50.6535664652      -11.1188074115  MEMB      340             0.0000000000
     42342       340  PMPE      C36            25.7955523532       50.1343424078       -9.5878154803  MEMB      340             0.0000000000
     42343       340  PMPE      H6X            25.9295558224       51.1112766983       -9.8527307485  MEMB      340             0.0000000000
     42344       340  PMPE      H6Y            26.3742916060       49.4912551605      -10.2179080385  MEMB      340             0.0000000000
     42345       340  PMPE      C37            25.9315233441       50.1058674602       -8.2481807392  MEMB      340             0.0000000000
     42346       340  PMPE      H7X            25.1042610065       49.4783598657       -7.9679463099  MEMB      340             0.0000000000
     42347       340  PMPE      H7Y            25.8914176811       51.0887056767       -7.7402521281  MEMB      340             0.0000000000
     42348       340  PMPE      C38            27.2237738095       49.4357948875       -8.1665556062  MEMB      340             0.0000000000
     42349       340  PMPE      H8X            28.0042067612       49.9513669419       -8.7085765641  MEMB      340             0.0000000000
     42350       340  PMPE      H8Y            27.3828090841       48.4675435208       -8.6281268352  MEMB      340             0.0000000000
     42351       340  PMPE      C39            27.3987682699       49.5490334961       -6.7374980716  MEMB      340             0.0000000000
     42352       340  PMPE      H9X            27.4647339964       50.6182075709       -6.5210150698  MEMB      340             0.0000000000
     42353       340  PMPE      H9Y            28.2896145450       49.0143334764       -6.5989469551  MEMB      340             0.0000000000
     42354       340  PMPE      C310           26.9025551499       48.6813545211       -5.6922872657  MEMB      340             0.0000000000
     42355       340  PMPE      H10X           27.1821872803       47.6864538383       -6.0782836516  MEMB      340             0.0000000000
     42356       340  PMPE      H10Y           25.8818944127       49.0039548865       -5.7114336718  MEMB      340             0.0000000000
     42357       340  PMPE      C311           27.4642779369       48.6713715121       -4.2850167764  MEMB      340             0.0000000000
     42358       340  PMPE      H11X           27.3805614094       49.6435871264       -3.7884839591  MEMB      340             0.0000000000
     42359       340  PMPE      H11Y           28.4993569623       48.2464020037       -4.2778710880  MEMB      340             0.0000000000
     42360       340  PMPE      C312           26.6074276577       48.1356042278       -3.2491961795  MEMB      340             0.0000000000
     42361       340  PMPE      H12X           26.4976595367       47.1030212350       -3.5298859970  MEMB      340             0.0000000000
     42362       340  PMPE      H12Y           25.6527588888       48.6849039672       -3.3147508258  MEMB      340             0.0000000000
     42363       340  PMPE      C313           27.1827450825       48.1773811250       -1.8708465518  MEMB      340             0.0000000000
     42364       340  PMPE      H13X           26.3575259647       47.9674733036       -1.2575136958  MEMB      340             0.0000000000
     42365       340  PMPE      H13Y           27.1896667719       49.1124982753       -1.3747196252  MEMB      340             0.0000000000
     42366       340  PMPE      C314           28.3301868196       47.2066393888       -1.6473611513  MEMB      340             0.0000000000
     42367       340  PMPE      H14X           28.8224822104       46.9684591170       -2.5895427063  MEMB      340             0.0000000000
     42368       340  PMPE      H14Y           27.9701752163       46.3601690059       -1.1287800016  MEMB      340             0.0000000000
     42369       340  PMPE      C315           29.4463703286       47.6470146694       -0.8371816943  MEMB      340             0.0000000000
     42370       340  PMPE      H15X           29.4840841316       48.5175380556       -1.5278387250  MEMB      340             0.0000000000
     42371       340  PMPE      H15Y           30.4802041426       47.2574439896       -0.8876589479  MEMB      340             0.0000000000
     42372       340  PMPE      C316           29.0732987459       47.7889252091        0.6417755763  MEMB      340             0.0000000000
     42373       340  PMPE      H16X           28.5923323645       48.7973791850        1.1880932550  MEMB      340             0.0000000000
     42374       340  PMPE      H16Y           29.8469157324       47.5363412246        1.3677627196  MEMB      340             0.0000000000
     42375       340  PMPE      H16Z           28.1962760723       47.8512053207        0.9404331767  MEMB      340             0.0000000000
     42376       341  PMPE      N              -8.4256472436       52.4114123100      -19.2312518033  MEMB      341             0.0000000000
     42377       341  PMPE      HN1            -8.1380655826       51.7622925023      -18.4640628260  MEMB      341             0.0000000000
     42378       341  PMPE      HN2            -7.6159835505       52.7841933838      -19.7508773759  MEMB      341             0.0000000000
     42379       341  PMPE      HN3            -8.9133438234       53.2632082279      -18.8814474062  MEMB      341             0.0000000000
     42380       341  PMPE      C12            -9.2337662524       51.6508384156      -20.2399300081  MEMB      341             0.0000000000
     42381       341  PMPE      H12A           -9.0767783570       50.5699195030      -20.0523579224  MEMB      341             0.0000000000
     42382       341  PMPE      H12B           -8.7934829666       51.9360035224      -21.2278176390  MEMB      341             0.0000000000
     42383       341  PMPE      C11           -10.7807043812       51.7494100590      -20.1238518834  MEMB      341             0.0000000000
     42384       341  PMPE      H11A          -11.1266385124       51.0566467471      -20.9105450849  MEMB      341             0.0000000000
     42385       341  PMPE      H11B          -11.1750595382       52.7412583574      -20.4005382388  MEMB      341             0.0000000000
     42386       341  PMPE      P             -12.9377732387       51.3910599535      -18.5738119975  MEMB      341             0.0000000000
     42387       341  PMPE      O13           -13.6265424266       50.1080732286      -18.8348537055  MEMB      341             0.0000000000
     42388       341  PMPE      O14           -13.4614460923       52.6416223246      -19.1567290221  MEMB      341             0.0000000000
     42389       341  PMPE      O11           -12.8226382879       51.5859916814      -17.0262830928  MEMB      341             0.0000000000
     42390       341  PMPE      O12           -11.3428971951       51.2792238525      -18.8916170002  MEMB      341             0.0000000000
     42391       341  PMPE      C1            -12.2064883155       52.7188954416      -16.4334129020  MEMB      341             0.0000000000
     42392       341  PMPE      HA            -12.9704959283       53.2529249972      -15.8385855157  MEMB      341             0.0000000000
     42393       341  PMPE      HB            -11.8716788396       53.4658424735      -17.1787458156  MEMB      341             0.0000000000
     42394       341  PMPE      C2            -11.0471654746       52.2543843502      -15.5201732700  MEMB      341             0.0000000000
     42395       341  PMPE      HS            -10.2060200248       51.8249695092      -16.0976121456  MEMB      341             0.0000000000
     42396       341  PMPE      O21           -11.5874283964       51.3024382039      -14.6172688529  MEMB      341             0.0000000000
     42397       341  PMPE      C21           -11.2324511412       50.0500646537      -14.7310471170  MEMB      341             0.0000000000
     42398       341  PMPE      O22           -10.2927791940       49.5853933941      -15.3630287832  MEMB      341             0.0000000000
     42399       341  PMPE      C22           -12.1280316747       49.3082535939      -13.7429676669  MEMB      341             0.0000000000
     42400       341  PMPE      H2R           -12.4396859968       48.3251446313      -14.1248714257  MEMB      341             0.0000000000
     42401       341  PMPE      H2S           -13.0624356159       49.8779916785      -13.5551683625  MEMB      341             0.0000000000
     42402       341  PMPE      C3            -10.4577557052       53.4150536155      -14.7056750502  MEMB      341             0.0000000000
     42403       341  PMPE      HX            -11.3242712996       53.8917835115      -14.1980291068  MEMB      341             0.0000000000
     42404       341  PMPE      HY             -9.9884528693       54.1501842351      -15.3994006183  MEMB      341             0.0000000000
     42405       341  PMPE      O31            -9.4529671444       52.9621566240      -13.7822349241  MEMB      341             0.0000000000
     42406       341  PMPE      C31            -9.7664662200       53.1109698857      -12.5122523135  MEMB      341             0.0000000000
     42407       341  PMPE      O32           -10.8834786941       53.2150993779      -12.0345338910  MEMB      341             0.0000000000
     42408       341  PMPE      C32            -8.4542477378       53.2727784716      -11.7847903535  MEMB      341             0.0000000000
     42409       341  PMPE      H2X            -7.7686150753       54.0142535297      -12.2734224402  MEMB      341             0.0000000000
     42410       341  PMPE      H2Y            -7.9555835226       52.2920048477      -11.7114959468  MEMB      341             0.0000000000
     42411       341  PMPE      C23           -11.4545320420       49.1771667475      -12.3705578892  MEMB      341             0.0000000000
     42412       341  PMPE      H3R           -10.7998524806       50.0379977797      -12.1123110635  MEMB      341             0.0000000000
     42413       341  PMPE      H3S           -10.8241299818       48.2816492038      -12.3732123744  MEMB      341             0.0000000000
     42414       341  PMPE      C24           -12.5012311030       49.1174240223      -11.2676670929  MEMB      341             0.0000000000
     42415       341  PMPE      H4R           -13.2257263533       48.3098778405      -11.4710350106  MEMB      341             0.0000000000
     42416       341  PMPE      H4S           -13.0559185638       50.0787279006      -11.2881582569  MEMB      341             0.0000000000
     42417       341  PMPE      C25           -11.9723823711       48.7253064459       -9.9162218846  MEMB      341             0.0000000000
     42418       341  PMPE      H5R           -11.2415484068       47.8894676658       -9.9075979631  MEMB      341             0.0000000000
     42419       341  PMPE      H5S           -12.7280107459       48.6993197034       -9.1285792809  MEMB      341             0.0000000000
     42420       341  PMPE      C26           -11.3122870139       49.6916045151       -9.1944085807  MEMB      341             0.0000000000
     42421       341  PMPE      H6R           -10.5370129050       49.8458399649      -10.0045134561  MEMB      341             0.0000000000
     42422       341  PMPE      H6S           -10.9797630982       49.0840252371       -8.1544611476  MEMB      341             0.0000000000
     42423       341  PMPE      C27           -11.6578870240       51.2109057935       -9.3953176079  MEMB      341             0.0000000000
     42424       341  PMPE      H7R           -12.1341815269       51.6946217474      -10.2978746247  MEMB      341             0.0000000000
     42425       341  PMPE      H7S           -10.8764677219       52.0192888427       -9.0725794021  MEMB      341             0.0000000000
     42426       341  PMPE      C28           -12.5052904592       51.3780219136       -8.4757924143  MEMB      341             0.0000000000
     42427       341  PMPE      H8R           -13.5398383445       51.2483578220       -9.0148914161  MEMB      341             0.0000000000
     42428       341  PMPE      H8S           -12.1434365318       52.5757011200       -8.2899984755  MEMB      341             0.0000000000
     42429       341  PMPE      C29           -12.7162647759       50.6238845904       -7.0132921374  MEMB      341             0.0000000000
     42430       341  PMPE      H9R           -11.9238054093       50.1622984678       -6.9671016296  MEMB      341             0.0000000000
     42431       341  PMPE      C217          -13.5060262482       49.3960825444       -6.5720213567  MEMB      341             0.0000000000
     42432       341  PMPE      H17R          -12.8769541724       48.7534626772       -5.9614476560  MEMB      341             0.0000000000
     42433       341  PMPE      H17S          -14.4730791389       49.2098087120       -6.9416444531  MEMB      341             0.0000000000
     42434       341  PMPE      C210          -13.7346643587       50.6219662972       -5.7609433205  MEMB      341             0.0000000000
     42435       341  PMPE      H10R          -13.3213224572       50.6715147644       -4.7549453547  MEMB      341             0.0000000000
     42436       341  PMPE      C211          -15.1842551552       51.2499982488       -5.7567897367  MEMB      341             0.0000000000
     42437       341  PMPE      H11R          -15.8269853812       50.6613743192       -5.2222475161  MEMB      341             0.0000000000
     42438       341  PMPE      H11S          -15.5969298716       51.3814397178       -6.7618118807  MEMB      341             0.0000000000
     42439       341  PMPE      C212          -15.4786789607       52.6239570387       -5.2330207959  MEMB      341             0.0000000000
     42440       341  PMPE      H12R          -15.3722918188       53.3588296673       -5.9884198465  MEMB      341             0.0000000000
     42441       341  PMPE      H12S          -14.8185013122       52.9967682373       -4.6681508473  MEMB      341             0.0000000000
     42442       341  PMPE      C213          -16.6443700699       53.3047036917       -5.1664873644  MEMB      341             0.0000000000
     42443       341  PMPE      H13R          -16.9574344903       52.8295655593       -4.2699522440  MEMB      341             0.0000000000
     42444       341  PMPE      H13S          -17.1535665374       53.0666568090       -6.0965611043  MEMB      341             0.0000000000
     42445       341  PMPE      C214          -16.6384413656       54.6724476755       -5.1064298675  MEMB      341             0.0000000000
     42446       341  PMPE      H14R          -18.1531274565       54.3384658653       -5.3217100189  MEMB      341             0.0000000000
     42447       341  PMPE      H14S          -16.0503103108       55.4439977963       -5.7903065003  MEMB      341             0.0000000000
     42448       341  PMPE      C215          -16.2640254095       55.5563778559       -3.7132967359  MEMB      341             0.0000000000
     42449       341  PMPE      H15R          -16.4399144117       56.6191198178       -3.4564699108  MEMB      341             0.0000000000
     42450       341  PMPE      H15S          -15.2469658335       55.6412094742       -3.5617116988  MEMB      341             0.0000000000
     42451       341  PMPE      C216          -16.9721387058       54.8762177688       -2.6248591747  MEMB      341             0.0000000000
     42452       341  PMPE      H16R          -16.9977792716       53.7242849654       -2.6615181813  MEMB      341             0.0000000000
     42453       341  PMPE      H16S          -16.9449968141       55.4873730337       -1.6754253777  MEMB      341             0.0000000000
     42454       341  PMPE      H16T          -17.9371509648       54.8171048766       -2.5702933755  MEMB      341             0.0000000000
     42455       341  PMPE      C33            -8.7623276882       53.5763390099      -10.3528710755  MEMB      341             0.0000000000
     42456       341  PMPE      H3X            -9.0469522193       52.6749685716       -9.7916000124  MEMB      341             0.0000000000
     42457       341  PMPE      H3Y            -9.6008291165       54.2993234981      -10.2235304680  MEMB      341             0.0000000000
     42458       341  PMPE      C34            -7.4965510577       53.9247311224       -9.6771457966  MEMB      341             0.0000000000
     42459       341  PMPE      H4X            -7.1221935322       54.7693413027      -10.3060941437  MEMB      341             0.0000000000
     42460       341  PMPE      H4Y            -6.6935482889       53.1804389183       -9.7259080359  MEMB      341             0.0000000000
     42461       341  PMPE      C35            -7.7681648726       54.1231164221       -8.2188582467  MEMB      341             0.0000000000
     42462       341  PMPE      H5X            -6.9560355654       54.2571723165       -7.5449786876  MEMB      341             0.0000000000
     42463       341  PMPE      H5Y            -8.4307946980       53.3992286532       -7.7045066119  MEMB      341             0.0000000000
     42464       341  PMPE      C36            -8.4363399919       55.3325233857       -8.1124657353  MEMB      341             0.0000000000
     42465       341  PMPE      H6X            -9.3967591371       54.8356037106       -8.5050048292  MEMB      341             0.0000000000
     42466       341  PMPE      H6Y            -8.2226250496       56.3137631617       -8.5950650198  MEMB      341             0.0000000000
     42467       341  PMPE      C37            -8.5092826799       55.5794051910       -6.6544101949  MEMB      341             0.0000000000
     42468       341  PMPE      H7X            -8.5224411734       56.6429960943       -6.3305744393  MEMB      341             0.0000000000
     42469       341  PMPE      H7Y            -7.6600919230       55.9017773732       -6.2623636124  MEMB      341             0.0000000000
     42470       341  PMPE      C38            -9.4447761330       54.5857073680       -5.8953798755  MEMB      341             0.0000000000
     42471       341  PMPE      H8X            -9.0718149718       53.6338765874       -5.8638723489  MEMB      341             0.0000000000
     42472       341  PMPE      H8Y           -10.5431890206       54.6319902986       -6.1584810921  MEMB      341             0.0000000000
     42473       341  PMPE      C39            -9.3937587342       54.7356200735       -4.4089052151  MEMB      341             0.0000000000
     42474       341  PMPE      H9X           -10.2830159392       54.6479724494       -3.7927705969  MEMB      341             0.0000000000
     42475       341  PMPE      H9Y            -9.3062987711       55.6944530032       -4.2593008360  MEMB      341             0.0000000000
     42476       341  PMPE      C310           -8.1549389912       55.1133782763       -3.8034174144  MEMB      341             0.0000000000
     42477       341  PMPE      H10X           -8.1860874566       55.4681181025       -2.7815454116  MEMB      341             0.0000000000
     42478       341  PMPE      H10Y           -7.6206081263       56.0921210277       -3.9809564527  MEMB      341             0.0000000000
     42479       341  PMPE      C311           -7.7015119941       53.7785082075       -3.4606777476  MEMB      341             0.0000000000
     42480       341  PMPE      H11X           -6.8656454409       53.5999447509       -4.1336735164  MEMB      341             0.0000000000
     42481       341  PMPE      H11Y           -8.5586266645       53.1357352989       -3.5457609313  MEMB      341             0.0000000000
     42482       341  PMPE      C312           -7.3362067708       53.5752822312       -2.0470561020  MEMB      341             0.0000000000
     42483       341  PMPE      H12X           -7.6825250148       54.3762211011       -1.3739229069  MEMB      341             0.0000000000
     42484       341  PMPE      H12Y           -6.3119224295       53.7071900544       -1.7160614276  MEMB      341             0.0000000000
     42485       341  PMPE      C313           -6.9572377467       52.3511023888       -1.6802876988  MEMB      341             0.0000000000
     42486       341  PMPE      H13X           -6.7352080215       52.5315437289       -0.5410577568  MEMB      341             0.0000000000
     42487       341  PMPE      H13Y           -6.0427249924       51.9179080148       -2.1784652404  MEMB      341             0.0000000000
     42488       341  PMPE      C314           -7.8183040207       51.2301313491       -1.9986208122  MEMB      341             0.0000000000
     42489       341  PMPE      H14X           -7.6984952252       50.1965168024       -1.6709193786  MEMB      341             0.0000000000
     42490       341  PMPE      H14Y           -8.2187862608       51.3232790378       -2.9958713994  MEMB      341             0.0000000000
     42491       341  PMPE      C315           -8.8510753327       51.3623215426       -1.3107328005  MEMB      341             0.0000000000
     42492       341  PMPE      H15X           -9.6317792273       51.1612392252       -1.6390654203  MEMB      341             0.0000000000
     42493       341  PMPE      H15Y           -9.3430484066       52.2029613444       -1.8888906378  MEMB      341             0.0000000000
     42494       341  PMPE      C316           -8.9514453469       51.0787492836        0.0643445663  MEMB      341             0.0000000000
     42495       341  PMPE      H16X           -9.6850574276       50.7220244288        0.9020833371  MEMB      341             0.0000000000
     42496       341  PMPE      H16Y           -8.4334629880       51.8885494805        0.4293644911  MEMB      341             0.0000000000
     42497       341  PMPE      H16Z           -9.0603332582       50.2859133083        0.5472366247  MEMB      341             0.0000000000
     42498       342  PMPE      N              -4.0423064827       49.7592054443      -19.2821597508  MEMB      342             0.0000000000
     42499       342  PMPE      HN1            -4.2863165598       48.8841360973      -18.7591442256  MEMB      342             0.0000000000
     42500       342  PMPE      HN2            -4.7454619585       49.8191380897      -20.0237814213  MEMB      342             0.0000000000
     42501       342  PMPE      HN3            -3.0890220338       49.7648435276      -19.7170980943  MEMB      342             0.0000000000
     42502       342  PMPE      C12            -4.2181309740       50.9178884475      -18.3222741736  MEMB      342             0.0000000000
     42503       342  PMPE      H12A           -3.6591109652       50.6377248975      -17.4006734257  MEMB      342             0.0000000000
     42504       342  PMPE      H12B           -5.3121455556       50.9674574020      -18.1306828296  MEMB      342             0.0000000000
     42505       342  PMPE      C11            -3.7707664366       52.3149909452      -18.8279648802  MEMB      342             0.0000000000
     42506       342  PMPE      H11A           -4.0438826197       53.0772212799      -18.0541068683  MEMB      342             0.0000000000
     42507       342  PMPE      H11B           -4.2705949766       52.5768506189      -19.7861527820  MEMB      342             0.0000000000
     42508       342  PMPE      P              -1.5893786703       53.7565518382      -19.1747264463  MEMB      342             0.0000000000
     42509       342  PMPE      O13            -2.3322509956       54.4925769802      -20.1949057254  MEMB      342             0.0000000000
     42510       342  PMPE      O14            -0.1936159616       53.3815221699      -19.4507377364  MEMB      342             0.0000000000
     42511       342  PMPE      O11            -1.6780450402       54.4746840674      -17.7502897648  MEMB      342             0.0000000000
     42512       342  PMPE      O12            -2.3723798525       52.3519480900      -19.0131192497  MEMB      342             0.0000000000
     42513       342  PMPE      C1             -1.7842426442       53.7091090949      -16.5422565963  MEMB      342             0.0000000000
     42514       342  PMPE      HA             -1.4127752203       52.6748533968      -16.6638294675  MEMB      342             0.0000000000
     42515       342  PMPE      HB             -2.8430588658       53.6312074235      -16.2441298507  MEMB      342             0.0000000000
     42516       342  PMPE      C2             -1.0518654720       54.2970762279      -15.3124622244  MEMB      342             0.0000000000
     42517       342  PMPE      HS             -1.3563739469       55.3697334962      -15.2465014866  MEMB      342             0.0000000000
     42518       342  PMPE      O21             0.3438023183       54.1899832314      -15.5513659245  MEMB      342             0.0000000000
     42519       342  PMPE      C21             1.0738147129       54.9310224831      -14.8445353632  MEMB      342             0.0000000000
     42520       342  PMPE      O22             0.7478972503       55.6057402850      -13.8807710484  MEMB      342             0.0000000000
     42521       342  PMPE      C22             2.4161780193       54.4949231299      -15.2126588180  MEMB      342             0.0000000000
     42522       342  PMPE      H2R             3.1188924490       55.1199366016      -15.7765101053  MEMB      342             0.0000000000
     42523       342  PMPE      H2S             2.6869979818       53.4245617029      -15.2428793052  MEMB      342             0.0000000000
     42524       342  PMPE      C3             -1.4222306462       53.4851324333      -14.0257273819  MEMB      342             0.0000000000
     42525       342  PMPE      HX             -2.5299026980       53.3624682226      -13.9361003223  MEMB      342             0.0000000000
     42526       342  PMPE      HY             -1.0842700644       54.0800315925      -13.1593718866  MEMB      342             0.0000000000
     42527       342  PMPE      O31            -0.6791069154       52.2514745954      -13.9094836774  MEMB      342             0.0000000000
     42528       342  PMPE      C31            -1.2673825234       51.1145778951      -14.1660785484  MEMB      342             0.0000000000
     42529       342  PMPE      O32            -2.3688098239       51.0023870395      -14.6446964662  MEMB      342             0.0000000000
     42530       342  PMPE      C32            -0.3086867647       49.9582098174      -13.8978279429  MEMB      342             0.0000000000
     42531       342  PMPE      H2X             0.1199415802       49.7128996406      -14.8861987579  MEMB      342             0.0000000000
     42532       342  PMPE      H2Y            -0.8785286853       49.0767420897      -13.5533470913  MEMB      342             0.0000000000
     42533       342  PMPE      C23             2.8002455384       54.4470203822      -14.0570882105  MEMB      342             0.0000000000
     42534       342  PMPE      H3R             2.5543500804       55.3058879898      -13.2400768529  MEMB      342             0.0000000000
     42535       342  PMPE      H3S             4.1854734169       54.5056840293      -14.7861988072  MEMB      342             0.0000000000
     42536       342  PMPE      C24             2.7280952056       53.0555687272      -13.0394906348  MEMB      342             0.0000000000
     42537       342  PMPE      H4R             2.9601693615       52.1141439826      -13.3520870556  MEMB      342             0.0000000000
     42538       342  PMPE      H4S             1.6430152955       53.2675917043      -12.9148806882  MEMB      342             0.0000000000
     42539       342  PMPE      C25             3.8816941251       52.7305101456      -11.9126676118  MEMB      342             0.0000000000
     42540       342  PMPE      H5R             4.8843837322       53.0005221845      -12.2071664771  MEMB      342             0.0000000000
     42541       342  PMPE      H5S             4.1963698885       51.8388237371      -11.4577313922  MEMB      342             0.0000000000
     42542       342  PMPE      C26             3.8517723872       53.2785641298      -10.6718330111  MEMB      342             0.0000000000
     42543       342  PMPE      H6R             4.3258713428       53.9224508197      -10.0492793800  MEMB      342             0.0000000000
     42544       342  PMPE      H6S             2.9449526414       52.4583045692      -10.5285140700  MEMB      342             0.0000000000
     42545       342  PMPE      C27             3.0434231505       55.7926702726       -9.6796258868  MEMB      342             0.0000000000
     42546       342  PMPE      H7R             2.5711585856       56.3528725860      -10.5794477535  MEMB      342             0.0000000000
     42547       342  PMPE      H7S             3.9344762876       55.8676524520       -9.4626160220  MEMB      342             0.0000000000
     42548       342  PMPE      C28             1.6967153374       55.8647327869       -8.4444474422  MEMB      342             0.0000000000
     42549       342  PMPE      H8R             1.7883675930       56.8592358410       -8.5300146588  MEMB      342             0.0000000000
     42550       342  PMPE      H8S             2.1880978867       55.2878913142       -7.5575616234  MEMB      342             0.0000000000
     42551       342  PMPE      C29             0.2719400809       55.0340344894       -8.7758303459  MEMB      342             0.0000000000
     42552       342  PMPE      H9R            -0.0054548801       53.9236869773       -9.0743312056  MEMB      342             0.0000000000
     42553       342  PMPE      C217           -0.6226721202       55.7157024935       -9.5993558020  MEMB      342             0.0000000000
     42554       342  PMPE      H17R           -1.1647537080       55.0737456775      -10.2926474749  MEMB      342             0.0000000000
     42555       342  PMPE      H17S           -0.4728984152       56.7740826654       -9.6695920614  MEMB      342             0.0000000000
     42556       342  PMPE      C210           -0.8745116990       55.3326383036       -8.1030984854  MEMB      342             0.0000000000
     42557       342  PMPE      H10R           -1.4952714148       54.4443487239       -7.9195627574  MEMB      342             0.0000000000
     42558       342  PMPE      C211           -0.7530785304       56.3970009804       -7.0600098340  MEMB      342             0.0000000000
     42559       342  PMPE      H11R           -1.8053267372       56.6155644518       -6.8144837587  MEMB      342             0.0000000000
     42560       342  PMPE      H11S           -0.3229723068       57.3390785370       -7.4610331477  MEMB      342             0.0000000000
     42561       342  PMPE      C212            0.0650584346       55.9723255958       -5.8401208852  MEMB      342             0.0000000000
     42562       342  PMPE      H12R            1.1173656610       56.1554692392       -6.0798429833  MEMB      342             0.0000000000
     42563       342  PMPE      H12S           -0.0378361472       54.8867077752       -5.5938803584  MEMB      342             0.0000000000
     42564       342  PMPE      C213           -0.2861947607       56.7349240859       -4.6067244863  MEMB      342             0.0000000000
     42565       342  PMPE      H13R           -0.3254547389       57.8344460390       -4.6444264621  MEMB      342             0.0000000000
     42566       342  PMPE      H13S            0.4415124433       56.4611626858       -3.8107236720  MEMB      342             0.0000000000
     42567       342  PMPE      C214           -1.5257112481       56.1349929694       -4.1345891124  MEMB      342             0.0000000000
     42568       342  PMPE      H14R           -2.0022148278       55.3378061291       -4.7010566321  MEMB      342             0.0000000000
     42569       342  PMPE      H14S           -2.2935875561       56.9435704120       -4.0373456663  MEMB      342             0.0000000000
     42570       342  PMPE      C215           -1.0652892780       55.4290958307       -2.9066682344  MEMB      342             0.0000000000
     42571       342  PMPE      H15R           -0.7661031506       54.4513996660       -2.6944649570  MEMB      342             0.0000000000
     42572       342  PMPE      H15S           -1.6634632632       54.6951441857       -2.3561724422  MEMB      342             0.0000000000
     42573       342  PMPE      C216           -1.0420610641       56.5052076706       -2.1350680982  MEMB      342             0.0000000000
     42574       342  PMPE      H16R           -0.0679656267       56.7535725342       -1.7624699005  MEMB      342             0.0000000000
     42575       342  PMPE      H16S           -1.7398426303       57.4145361827       -2.1358613383  MEMB      342             0.0000000000
     42576       342  PMPE      H16T           -1.4571510113       56.0015273378       -1.2888447108  MEMB      342             0.0000000000
     42577       342  PMPE      C33             0.8915838672       50.2979190510      -12.9926449022  MEMB      342             0.0000000000
     42578       342  PMPE      H3X             1.4130477398       51.1559283293      -13.3795979990  MEMB      342             0.0000000000
     42579       342  PMPE      H3Y             1.6282375905       49.4641111745      -13.0785172265  MEMB      342             0.0000000000
     42580       342  PMPE      C34             0.5532167987       50.4165349763      -11.5262096317  MEMB      342             0.0000000000
     42581       342  PMPE      H4X            -0.1990712549       49.5693501475      -11.4999184125  MEMB      342             0.0000000000
     42582       342  PMPE      H4Y             0.0533816987       51.2846238500      -11.0771705762  MEMB      342             0.0000000000
     42583       342  PMPE      C35             1.8237584314       50.1663488071      -10.7105686690  MEMB      342             0.0000000000
     42584       342  PMPE      H5X             2.7273083093       50.6531435279      -10.9078014899  MEMB      342             0.0000000000
     42585       342  PMPE      H5Y             2.0405656258       49.1006436990      -11.0700666058  MEMB      342             0.0000000000
     42586       342  PMPE      C36             1.7809093643       50.2801598584       -9.1744477091  MEMB      342             0.0000000000
     42587       342  PMPE      H6X             2.5631186144       49.5813843502       -8.8209943093  MEMB      342             0.0000000000
     42588       342  PMPE      H6Y             0.7996730904       50.0576041889       -8.7092962272  MEMB      342             0.0000000000
     42589       342  PMPE      C37             1.1913503117       51.1735174034       -8.2111657315  MEMB      342             0.0000000000
     42590       342  PMPE      H7X             0.2767166634       51.6886835559       -8.4010357224  MEMB      342             0.0000000000
     42591       342  PMPE      H7Y             1.7986428377       51.6247819223       -8.8566027861  MEMB      342             0.0000000000
     42592       342  PMPE      C38             1.5559934687       50.7806704537       -6.7415488985  MEMB      342             0.0000000000
     42593       342  PMPE      H8X             2.2026896797       49.8679386066       -6.7978656999  MEMB      342             0.0000000000
     42594       342  PMPE      H8Y             0.7400013931       50.5372307722       -6.1942484391  MEMB      342             0.0000000000
     42595       342  PMPE      C39             1.8302464941       51.9124117823       -5.7235161763  MEMB      342             0.0000000000
     42596       342  PMPE      H9X             1.4375145944       52.8741702863       -6.0016848715  MEMB      342             0.0000000000
     42597       342  PMPE      H9Y             2.7518396685       52.2839471173       -5.8014980136  MEMB      342             0.0000000000
     42598       342  PMPE      C310            2.2887929005       51.6534128347       -4.2973148372  MEMB      342             0.0000000000
     42599       342  PMPE      H10X            3.1661933115       51.0371713080       -4.0316584481  MEMB      342             0.0000000000
     42600       342  PMPE      H10Y            1.5785584964       51.0166406027       -3.9113477404  MEMB      342             0.0000000000
     42601       342  PMPE      C311            2.6101117079       52.9311164135       -3.6666688362  MEMB      342             0.0000000000
     42602       342  PMPE      H11X            1.9002377527       53.6941348609       -3.9004493822  MEMB      342             0.0000000000
     42603       342  PMPE      H11Y            3.5243120060       53.3182261493       -4.0829420103  MEMB      342             0.0000000000
     42604       342  PMPE      C312            2.5582150748       52.8247010622       -2.2125702796  MEMB      342             0.0000000000
     42605       342  PMPE      H12X            2.5609049681       53.9439006292       -1.8190260754  MEMB      342             0.0000000000
     42606       342  PMPE      H12Y            3.3024459292       51.9901149921       -1.8657176254  MEMB      342             0.0000000000
     42607       342  PMPE      C313            1.6142898064       52.3954260849       -1.3134516571  MEMB      342             0.0000000000
     42608       342  PMPE      H13X            1.4882789819       51.3697399661       -1.6504576532  MEMB      342             0.0000000000
     42609       342  PMPE      H13Y            0.8960033904       53.1686823587       -1.5926207721  MEMB      342             0.0000000000
     42610       342  PMPE      C314            2.0131667023       52.4837638547        0.1634795544  MEMB      342             0.0000000000
     42611       342  PMPE      H14X            2.5604620049       53.4254667262        0.3971543022  MEMB      342             0.0000000000
     42612       342  PMPE      H14Y            2.7079386222       51.6676952214        0.4355958530  MEMB      342             0.0000000000
     42613       342  PMPE      C315            0.7160891773       52.4153539209        0.9424428250  MEMB      342             0.0000000000
     42614       342  PMPE      H15X            0.0947676951       53.1672644804        0.4099353993  MEMB      342             0.0000000000
     42615       342  PMPE      H15Y            0.7773187768       52.6335090261        2.0262416500  MEMB      342             0.0000000000
     42616       342  PMPE      C316           -0.0116448606       51.1234620868        0.7411334507  MEMB      342             0.0000000000
     42617       342  PMPE      H16X           -0.9764058869       51.0971941369        1.1230090480  MEMB      342             0.0000000000
     42618       342  PMPE      H16Y            0.4970610318       50.2577396855        1.1943370885  MEMB      342             0.0000000000
     42619       342  PMPE      H16Z           -0.3515435644       51.0759965470       -0.2994451581  MEMB      342             0.0000000000
     42620       343  QMPE      N             -47.0747964636      -20.2112011229      -21.0565541732  MEMB      343             0.0000000000
     42621       343  QMPE      HN1           -46.7030537607      -21.0707577937      -21.5053479475  MEMB      343             0.0000000000
     42622       343  QMPE      HN2           -46.6373481994      -19.3856864963      -21.5318223331  MEMB      343             0.0000000000
     42623       343  QMPE      HN3           -46.8614847826      -20.2205309231      -20.0350506164  MEMB      343             0.0000000000
     42624       343  QMPE      C12           -48.5757469940      -20.2137752740      -21.1582928851  MEMB      343             0.0000000000
     42625       343  QMPE      H12A          -48.8276691561      -20.2698107729      -22.2295558777  MEMB      343             0.0000000000
     42626       343  QMPE      H12B          -48.9513919214      -19.2339708366      -20.7843966013  MEMB      343             0.0000000000
     42627       343  QMPE      C11           -49.2213442288      -21.3649434650      -20.3474979085  MEMB      343             0.0000000000
     42628       343  QMPE      H11A          -48.8988753443      -22.4032945237      -20.5962578456  MEMB      343             0.0000000000
     42629       343  QMPE      H11B          -50.3086272534      -21.3410257242      -20.5749909032  MEMB      343             0.0000000000
     42630       343  QMPE      P             -49.9707450405      -20.6529342776      -17.8701417722  MEMB      343             0.0000000000
     42631       343  QMPE      O13           -51.2611469071      -20.3325964604      -18.5095065233  MEMB      343             0.0000000000
     42632       343  QMPE      O14           -49.3009717335      -19.5748397763      -17.1386776447  MEMB      343             0.0000000000
     42633       343  QMPE      O11           -50.1426546938      -21.9064136917      -16.9917779066  MEMB      343             0.0000000000
     42634       343  QMPE      O12           -48.9670205715      -21.1613248820      -18.9783035286  MEMB      343             0.0000000000
     42635       343  QMPE      C1            -49.2026918443      -22.5653613108      -16.2005187683  MEMB      343             0.0000000000
     42636       343  QMPE      HA            -48.1448878600      -22.4018896634      -16.4760842482  MEMB      343             0.0000000000
     42637       343  QMPE      HB            -49.5398059077      -23.5888089915      -16.3721248836  MEMB      343             0.0000000000
     42638       343  QMPE      C2            -49.3029112082      -22.2289902765      -14.7246831154  MEMB      343             0.0000000000
     42639       343  QMPE      HS            -48.8203141321      -22.8361094856      -13.9831070633  MEMB      343             0.0000000000
     42640       343  QMPE      O21           -50.5919447443      -22.4476739059      -14.4197030799  MEMB      343             0.0000000000
     42641       343  QMPE      C21           -51.2597393171      -23.6302790559      -14.0581245245  MEMB      343             0.0000000000
     42642       343  QMPE      O22           -50.8751178672      -24.7017959921      -13.8390492626  MEMB      343             0.0000000000
     42643       343  QMPE      C22           -52.8302407854      -23.7143813756      -13.7586343975  MEMB      343             0.0000000000
     42644       343  QMPE      H2R           -53.1824226827      -23.7918587858      -14.8147877970  MEMB      343             0.0000000000
     42645       343  QMPE      H2S           -53.2947067335      -21.2811027939      -12.6273775947  MEMB      343             0.0000000000
     42646       343  QMPE      C3            -48.8401150489      -20.8597244971      -14.3942780212  MEMB      343             0.0000000000
     42647       343  QMPE      HX            -49.4259951640      -20.0680246135      -14.9228486062  MEMB      343             0.0000000000
     42648       343  QMPE      HY            -47.7528965436      -20.8763665587      -14.7826405004  MEMB      343             0.0000000000
     42649       343  QMPE      O31           -48.9333904757      -20.7790543471      -12.9209255283  MEMB      343             0.0000000000
     42650       343  QMPE      C31           -48.1795973785      -19.8360430564      -12.6765261438  MEMB      343             0.0000000000
     42651       343  QMPE      O32           -47.8653888295      -19.1392108903      -13.6092720826  MEMB      343             0.0000000000
     42652       343  QMPE      C32           -47.8009957687      -19.7794729382      -11.1986037763  MEMB      343             0.0000000000
     42653       343  QMPE      H2X           -48.1474723670      -20.6006540706      -10.5674719530  MEMB      343             0.0000000000
     42654       343  QMPE      H2Y           -46.6078150371      -19.8432144610      -11.1406899136  MEMB      343             0.0000000000
     42655       343  QMPE      C23           -53.4726657957      -24.8591117940      -12.6749678341  MEMB      343             0.0000000000
     42656       343  QMPE      H3R           -53.0784323559      -25.6797567305      -13.2206335634  MEMB      343             0.0000000000
     42657       343  QMPE      H3S           -54.4679976667      -24.4832119127      -12.7243614632  MEMB      343             0.0000000000
     42658       343  QMPE      C24           -53.6040183192      -24.6247952245      -11.0357765286  MEMB      343             0.0000000000
     42659       343  QMPE      H4R           -53.9734596477      -25.2657901916      -10.5187500239  MEMB      343             0.0000000000
     42660       343  QMPE      H4S           -53.4387920399      -24.0186509351      -10.3180281296  MEMB      343             0.0000000000
     42661       343  QMPE      C25           -51.2413722563      -23.9826219741      -10.6505517014  MEMB      343             0.0000000000
     42662       343  QMPE      H5R           -50.9027783684      -23.0357974037      -10.9742016634  MEMB      343             0.0000000000
     42663       343  QMPE      H5S           -51.0951784853      -24.5494069048      -11.6960730949  MEMB      343             0.0000000000
     42664       343  QMPE      C26           -50.8395726638      -24.3073085734       -9.1612026378  MEMB      343             0.0000000000
     42665       343  QMPE      H6R           -50.8164255582      -25.4697873969       -8.8116481064  MEMB      343             0.0000000000
     42666       343  QMPE      H6S           -51.5106412714      -23.8458688253       -8.4643963672  MEMB      343             0.0000000000
     42667       343  QMPE      C27           -49.7369275108      -24.2520970649       -8.5017098851  MEMB      343             0.0000000000
     42668       343  QMPE      H7R           -49.1227777836      -23.7702164551       -9.1242983477  MEMB      343             0.0000000000
     42669       343  QMPE      H7S           -49.2972539960      -25.0759295983       -8.6451012628  MEMB      343             0.0000000000
     42670       343  QMPE      C28           -49.5688105733      -24.7646475460       -7.1532442256  MEMB      343             0.0000000000
     42671       343  QMPE      H8R           -50.0092608229      -25.7116030268       -6.7524442140  MEMB      343             0.0000000000
     42672       343  QMPE      H8S           -50.1169332271      -24.0119323455       -6.7334680685  MEMB      343             0.0000000000
     42673       343  QMPE      C29           -48.1723407546      -24.4672096208       -7.0905973557  MEMB      343             0.0000000000
     42674       343  QMPE      H9R           -47.7300549591      -23.5515859614       -7.4248894545  MEMB      343             0.0000000000
     42675       343  QMPE      C217          -47.3709870577      -25.5431971591       -7.4791016140  MEMB      343             0.0000000000
     42676       343  QMPE      H17R          -47.3769569894      -26.5197032747       -7.0864488498  MEMB      343             0.0000000000
     42677       343  QMPE      H17S          -46.6970037245      -25.6580791744       -8.3336985039  MEMB      343             0.0000000000
     42678       343  QMPE      C210          -47.4645600422      -25.1333419771       -6.1663535647  MEMB      343             0.0000000000
     42679       343  QMPE      H10R          -46.5889994162      -24.5037073381       -6.0673661404  MEMB      343             0.0000000000
     42680       343  QMPE      C211          -48.1458036186      -26.3142487851       -5.2756902915  MEMB      343             0.0000000000
     42681       343  QMPE      H11R          -48.4510158956      -27.1751850811       -5.7228352851  MEMB      343             0.0000000000
     42682       343  QMPE      H11S          -47.6015843975      -27.2266765791       -4.8210598521  MEMB      343             0.0000000000
     42683       343  QMPE      C212          -48.6666250101      -25.4936243979       -4.2793475437  MEMB      343             0.0000000000
     42684       343  QMPE      H12R          -49.3711273833      -24.9015531889       -4.7193562941  MEMB      343             0.0000000000
     42685       343  QMPE      H12S          -48.1619486563      -24.7042815192       -3.6550656448  MEMB      343             0.0000000000
     42686       343  QMPE      C213          -49.4309156413      -26.4520350950       -3.6356277506  MEMB      343             0.0000000000
     42687       343  QMPE      H13R          -48.8012905690      -26.7475638180       -2.9383295721  MEMB      343             0.0000000000
     42688       343  QMPE      H13S          -49.6391894759      -27.4642331455       -4.0301890147  MEMB      343             0.0000000000
     42689       343  QMPE      C214          -50.5121036215      -25.7886143897       -2.9220480301  MEMB      343             0.0000000000
     42690       343  QMPE      H14R          -51.2422448808      -25.4505875312       -3.5489689833  MEMB      343             0.0000000000
     42691       343  QMPE      H14S          -50.3905030075      -24.9538930986       -2.2384112629  MEMB      343             0.0000000000
     42692       343  QMPE      C215          -51.4083085164      -26.8010287805       -2.3202379837  MEMB      343             0.0000000000
     42693       343  QMPE      H15R          -51.0171260216      -27.9754056127       -1.7334017998  MEMB      343             0.0000000000
     42694       343  QMPE      H15S          -51.1137341880      -27.8662361586       -2.2196527925  MEMB      343             0.0000000000
     42695       343  QMPE      C216          -53.1046672212      -26.3217380577       -1.0524789167  MEMB      343             0.0000000000
     42696       343  QMPE      H16R          -53.7832556921      -26.5742857889       -1.5148699097  MEMB      343             0.0000000000
     42697       343  QMPE      H16S          -53.1210888069      -25.3890813860       -0.6509175075  MEMB      343             0.0000000000
     42698       343  QMPE      H16T          -53.4384584133      -26.9802139729       -0.3006185445  MEMB      343             0.0000000000
     42699       343  QMPE      C33           -48.4795899889      -19.0000536549      -10.2352102027  MEMB      343             0.0000000000
     42700       343  QMPE      H3X           -49.4253956697      -19.3178988927       -9.8799185966  MEMB      343             0.0000000000
     42701       343  QMPE      H3Y           -48.7376437033      -18.1450857936      -10.9652366607  MEMB      343             0.0000000000
     42702       343  QMPE      C34           -47.5697110642      -18.8327778463       -8.8930616744  MEMB      343             0.0000000000
     42703       343  QMPE      H4X           -48.1245914391      -18.0115835917       -8.4259618112  MEMB      343             0.0000000000
     42704       343  QMPE      H4Y           -46.3740046209      -18.5489800279       -8.9997305702  MEMB      343             0.0000000000
     42705       343  QMPE      C35           -46.9656432485      -19.4939611061       -7.8400086065  MEMB      343             0.0000000000
     42706       343  QMPE      H5X           -46.4601504291      -18.7444139469       -7.1490045571  MEMB      343             0.0000000000
     42707       343  QMPE      H5Y           -46.2119707259      -20.0883551359       -8.4027432405  MEMB      343             0.0000000000
     42708       343  QMPE      C36           -48.0914986467      -20.1958551105       -7.2744908543  MEMB      343             0.0000000000
     42709       343  QMPE      H6X           -47.6223759782      -21.0080082150       -6.7237516516  MEMB      343             0.0000000000
     42710       343  QMPE      H6Y           -48.6311883732      -20.6010271952       -8.1593047352  MEMB      343             0.0000000000
     42711       343  QMPE      C37           -49.0024827014      -19.3566451256       -6.3843162631  MEMB      343             0.0000000000
     42712       343  QMPE      H7X           -48.3846809483      -18.8233387405       -5.6325455105  MEMB      343             0.0000000000
     42713       343  QMPE      H7Y           -49.6261483650      -18.6428082054       -6.9768543675  MEMB      343             0.0000000000
     42714       343  QMPE      C38           -49.9783775913      -20.1580571409       -5.5325895095  MEMB      343             0.0000000000
     42715       343  QMPE      H8X           -50.6613482766      -19.3913119357       -5.0934886024  MEMB      343             0.0000000000
     42716       343  QMPE      H8Y           -50.5077590942      -20.8854391158       -6.1884713763  MEMB      343             0.0000000000
     42717       343  QMPE      C39           -49.3552641813      -20.7897719548       -4.2835106624  MEMB      343             0.0000000000
     42718       343  QMPE      H9X           -49.1363782491      -19.9705748249       -3.5623714311  MEMB      343             0.0000000000
     42719       343  QMPE      H9Y           -48.3779144234      -21.2138186873       -4.5677170419  MEMB      343             0.0000000000
     42720       343  QMPE      C310          -50.2184082506      -21.8886758893       -3.6398598640  MEMB      343             0.0000000000
     42721       343  QMPE      H10X          -49.6038007367      -22.7136507372       -3.2214704317  MEMB      343             0.0000000000
     42722       343  QMPE      H10Y          -50.8644411770      -22.3474435950       -4.4151638448  MEMB      343             0.0000000000
     42723       343  QMPE      C311          -51.1348413273      -21.3558115313       -2.5440538805  MEMB      343             0.0000000000
     42724       343  QMPE      H11X          -52.0578199597      -21.0543016380       -3.0999642304  MEMB      343             0.0000000000
     42725       343  QMPE      H11Y          -50.6519119451      -20.4912316121       -2.0626104495  MEMB      343             0.0000000000
     42726       343  QMPE      C312          -51.4522933623      -22.3979131548       -1.4786650720  MEMB      343             0.0000000000
     42727       343  QMPE      H12X          -50.6041852862      -23.0018807755       -1.0967477099  MEMB      343             0.0000000000
     42728       343  QMPE      H12Y          -51.9854026605      -23.0475827248       -2.0954469166  MEMB      343             0.0000000000
     42729       343  QMPE      C313          -52.2800344480      -21.9406653355       -0.2782221444  MEMB      343             0.0000000000
     42730       343  QMPE      H13X          -52.5657040920      -22.8340008701        0.3244848121  MEMB      343             0.0000000000
     42731       343  QMPE      H13Y          -51.5035047879      -21.3706135082        0.2689617511  MEMB      343             0.0000000000
     42732       343  QMPE      C314          -53.4686269410      -20.9777038085       -0.4996594419  MEMB      343             0.0000000000
     42733       343  QMPE      H14X          -53.1556121092      -20.0812542987       -1.0130265441  MEMB      343             0.0000000000
     42734       343  QMPE      H14Y          -53.9719904426      -20.7364213879        0.4599892204  MEMB      343             0.0000000000
     42735       343  QMPE      C315          -54.6418698299      -21.3352972177       -1.2349340647  MEMB      343             0.0000000000
     42736       343  QMPE      H15X          -55.2741199471      -21.8747274760       -0.5479311951  MEMB      343             0.0000000000
     42737       343  QMPE      H15Y          -55.1273390270      -20.8933372509       -2.1156535154  MEMB      343             0.0000000000
     42738       343  QMPE      H15Z          -54.3847551146      -22.0260961828       -1.8180060450  MEMB      343             0.0000000000
     42739       344  OYPE      N              17.5130765341      -52.1320808878      -21.4197280188  MEMB      344             0.0000000000
     42740       344  OYPE      HN1            17.0647215628      -52.8870100276      -21.9675143093  MEMB      344             0.0000000000
     42741       344  OYPE      HN2            16.7369083796      -51.4686167658      -21.2192867965  MEMB      344             0.0000000000
     42742       344  OYPE      HN3            18.2901436183      -51.6458801953      -21.9248358857  MEMB      344             0.0000000000
     42743       344  OYPE      C12            17.8685295511      -52.5603671985      -20.0191753440  MEMB      344             0.0000000000
     42744       344  OYPE      H12A           18.6846213184      -53.3002474452      -20.0323368211  MEMB      344             0.0000000000
     42745       344  OYPE      H12B           16.9685434135      -53.1265839177      -19.7159322774  MEMB      344             0.0000000000
     42746       344  OYPE      C11            18.1894930958      -51.3470686842      -19.1022798641  MEMB      344             0.0000000000
     42747       344  OYPE      H11A           19.1733393672      -50.9141573367      -19.3676045199  MEMB      344             0.0000000000
     42748       344  OYPE      H11B           18.3222124346      -51.6221757707      -18.0299989308  MEMB      344             0.0000000000
     42749       344  OYPE      P              16.0130929722      -50.1407269349      -18.2836363480  MEMB      344             0.0000000000
     42750       344  OYPE      O13            15.4415905269      -51.4830965303      -18.0230220933  MEMB      344             0.0000000000
     42751       344  OYPE      O14            15.1671415832      -49.1038875112      -18.8936544840  MEMB      344             0.0000000000
     42752       344  OYPE      O11            16.7033346970      -49.5891057281      -16.9995118847  MEMB      344             0.0000000000
     42753       344  OYPE      O12            17.2388448799      -50.3103945613      -19.2655788635  MEMB      344             0.0000000000
     42754       344  OYPE      C1             17.2142860787      -48.2382852805      -16.9695886937  MEMB      344             0.0000000000
     42755       344  OYPE      HA             16.6380073942      -47.5156344486      -17.5993728052  MEMB      344             0.0000000000
     42756       344  OYPE      HB             18.2536322144      -48.2005808029      -17.3554438874  MEMB      344             0.0000000000
     42757       344  OYPE      C2             17.1083934272      -47.6527771292      -15.5312696762  MEMB      344             0.0000000000
     42758       344  OYPE      HS             17.5575568250      -46.6358811489      -15.4645162118  MEMB      344             0.0000000000
     42759       344  OYPE      O21            17.6576282296      -48.5431504786      -14.5359713535  MEMB      344             0.0000000000
     42760       344  OYPE      C21            18.9103808350      -48.7031478042      -14.6254645260  MEMB      344             0.0000000000
     42761       344  OYPE      O22            19.6598620503      -48.0216769239      -15.3300078996  MEMB      344             0.0000000000
     42762       344  OYPE      C22            19.2526996000      -49.8280235690      -13.5481644946  MEMB      344             0.0000000000
     42763       344  OYPE      H2R            19.9379510542      -50.5869224423      -13.9552200297  MEMB      344             0.0000000000
     42764       344  OYPE      H2S            18.4143799056      -50.4408714301      -13.2335280196  MEMB      344             0.0000000000
     42765       344  OYPE      C3             15.6272429967      -47.4463860463      -15.2065452040  MEMB      344             0.0000000000
     42766       344  OYPE      HX             15.1538441045      -46.7608175834      -15.9664093992  MEMB      344             0.0000000000
     42767       344  OYPE      HY             15.5525565068      -46.9449404726      -14.2040802298  MEMB      344             0.0000000000
     42768       344  OYPE      O31            15.0320143178      -48.7874784986      -15.2283036612  MEMB      344             0.0000000000
     42769       344  OYPE      C31            13.8178840645      -48.6776426420      -14.8367512030  MEMB      344             0.0000000000
     42770       344  OYPE      O32            13.4452156240      -47.6184721367      -14.5421585327  MEMB      344             0.0000000000
     42771       344  OYPE      C32            13.0303196944      -49.9365312126      -14.6745012107  MEMB      344             0.0000000000
     42772       344  OYPE      H2X            11.9359281625      -49.8094386585      -14.5424758474  MEMB      344             0.0000000000
     42773       344  OYPE      H2Y            13.2855205810      -50.4075406816      -15.6453567376  MEMB      344             0.0000000000
     42774       344  OYPE      C23            19.8384982436      -49.1050833273      -12.3403248629  MEMB      344             0.0000000000
     42775       344  OYPE      H3R            20.7275702305      -48.5078350836      -12.6585557350  MEMB      344             0.0000000000
     42776       344  OYPE      H3S            20.1469034496      -49.8471901980      -11.5703717984  MEMB      344             0.0000000000
     42777       344  OYPE      C24            18.7600394502      -48.1723574229      -11.7915658726  MEMB      344             0.0000000000
     42778       344  OYPE      H4R            17.8526156519      -48.7606386185      -11.5090159062  MEMB      344             0.0000000000
     42779       344  OYPE      H4S            18.5404371299      -47.3177922900      -12.4736259370  MEMB      344             0.0000000000
     42780       344  OYPE      C25            19.1047296619      -47.4468476206      -10.5531665336  MEMB      344             0.0000000000
     42781       344  OYPE      H5R            18.4586607537      -46.5781701368      -10.4170118018  MEMB      344             0.0000000000
     42782       344  OYPE      H5S            20.1613595613      -47.0490701453      -10.6218263697  MEMB      344             0.0000000000
     42783       344  OYPE      C26            18.6982291464      -48.3081528383       -9.3761132333  MEMB      344             0.0000000000
     42784       344  OYPE      H6R            18.8369950284      -47.6065424495       -8.4994798690  MEMB      344             0.0000000000
     42785       344  OYPE      H6S            19.1961057487      -49.3055474920       -9.2998708656  MEMB      344             0.0000000000
     42786       344  OYPE      C27            17.4174948736      -48.4531145384       -8.7843454878  MEMB      344             0.0000000000
     42787       344  OYPE      H7R            17.4715334441      -49.3693072964       -8.1282408050  MEMB      344             0.0000000000
     42788       344  OYPE      H7S            16.9269439521      -48.6261701718       -9.7099188501  MEMB      344             0.0000000000
     42789       344  OYPE      C28            17.0423664282      -47.1535980519       -8.0482608052  MEMB      344             0.0000000000
     42790       344  OYPE      H8R            17.0936845890      -46.3412019806       -8.7830430134  MEMB      344             0.0000000000
     42791       344  OYPE      H8S            17.7359498533      -46.8793302966       -7.2006973956  MEMB      344             0.0000000000
     42792       344  OYPE      C29            15.7253933072      -47.4657341810       -7.6215424580  MEMB      344             0.0000000000
     42793       344  OYPE      H9R            14.9281989301      -47.2272732012       -8.3164225357  MEMB      344             0.0000000000
     42794       344  OYPE      C210           15.5127614917      -47.8347327043       -6.4125110394  MEMB      344             0.0000000000
     42795       344  OYPE      H10R           14.6057943521      -47.7566108905       -6.0336572858  MEMB      344             0.0000000000
     42796       344  OYPE      C211           16.2829155558      -48.0221402572       -5.2888420952  MEMB      344             0.0000000000
     42797       344  OYPE      H11R           17.0575628827      -47.2516319753       -5.3611523409  MEMB      344             0.0000000000
     42798       344  OYPE      H11S           16.5157658795      -49.0882147628       -5.2387523729  MEMB      344             0.0000000000
     42799       344  OYPE      C212           16.1583120454      -47.9540831643       -3.8772429962  MEMB      344             0.0000000000
     42800       344  OYPE      H12R           16.2183792853      -48.7722830811       -3.1689713185  MEMB      344             0.0000000000
     42801       344  OYPE      H12S           15.1348735855      -48.5123548202       -3.8337991301  MEMB      344             0.0000000000
     42802       344  OYPE      C213           16.6482830438      -46.2605187042       -3.0181619376  MEMB      344             0.0000000000
     42803       344  OYPE      H13R           16.2279451393      -45.3704483042       -3.7462370314  MEMB      344             0.0000000000
     42804       344  OYPE      H13S           17.5508010316      -46.0678439838       -3.1672351246  MEMB      344             0.0000000000
     42805       344  OYPE      C214           15.8142834326      -46.5108576720       -1.2793775510  MEMB      344             0.0000000000
     42806       344  OYPE      H14R           15.5066947716      -45.9047017480       -0.9084620854  MEMB      344             0.0000000000
     42807       344  OYPE      H14S           16.0517625629      -47.0719675115       -0.6362595417  MEMB      344             0.0000000000
     42808       344  OYPE      C215           13.7766845052      -46.6796194010       -0.8673694041  MEMB      344             0.0000000000
     42809       344  OYPE      H15R           13.3790049461      -46.8723936284        0.0155349554  MEMB      344             0.0000000000
     42810       344  OYPE      H15S           13.9833487944      -47.6009639071       -1.0566363810  MEMB      344             0.0000000000
     42811       344  OYPE      C216           12.2169899424      -45.5421281181       -1.5219391727  MEMB      344             0.0000000000
     42812       344  OYPE      H16R           12.3498950170      -45.2965037035       -2.6257946782  MEMB      344             0.0000000000
     42813       344  OYPE      H16S           12.6913905051      -45.0286306112       -2.2744185463  MEMB      344             0.0000000000
     42814       344  OYPE      H16T           11.5953964169      -46.1409159573       -1.5221598618  MEMB      344             0.0000000000
     42815       344  OYPE      C33            13.5982334816      -50.6313791890      -13.4293770705  MEMB      344             0.0000000000
     42816       344  OYPE      H3X            14.6674599998      -50.3566861692      -13.3252953498  MEMB      344             0.0000000000
     42817       344  OYPE      H3Y            13.5390556141      -51.7132502587      -13.5838537667  MEMB      344             0.0000000000
     42818       344  OYPE      C34            12.9315169631      -50.3350262552      -12.0876934795  MEMB      344             0.0000000000
     42819       344  OYPE      H4X            13.1770032271      -49.2771572736      -11.8446279787  MEMB      344             0.0000000000
     42820       344  OYPE      H4Y            11.8364795799      -50.5229945488      -12.1723024917  MEMB      344             0.0000000000
     42821       344  OYPE      C35            13.4248280334      -51.2643742052      -10.9755782671  MEMB      344             0.0000000000
     42822       344  OYPE      H5X            13.1215007405      -52.2724925118      -11.2797843666  MEMB      344             0.0000000000
     42823       344  OYPE      H5Y            12.8087037692      -51.0958815971      -10.0805411789  MEMB      344             0.0000000000
     42824       344  OYPE      C36            14.9358991740      -51.1416976308      -10.6696971748  MEMB      344             0.0000000000
     42825       344  OYPE      H6X            15.5081824017      -51.4506769886      -11.5651534735  MEMB      344             0.0000000000
     42826       344  OYPE      H6Y            15.3001357405      -50.1155160409      -10.5359315931  MEMB      344             0.0000000000
     42827       344  OYPE      C37            15.3958616508      -51.7117785395       -9.3224076324  MEMB      344             0.0000000000
     42828       344  OYPE      H7X            15.6530545089      -50.9316060607       -8.5816389159  MEMB      344             0.0000000000
     42829       344  OYPE      H7Y            14.4655622163      -52.1106262905       -8.8652675142  MEMB      344             0.0000000000
     42830       344  OYPE      C38            16.5401769376      -52.7637814499       -9.4772736906  MEMB      344             0.0000000000
     42831       344  OYPE      H8X            16.5888343725      -53.5214363260       -8.6664471898  MEMB      344             0.0000000000
     42832       344  OYPE      H8Y            16.2750595834      -53.4030594260      -10.3511269130  MEMB      344             0.0000000000
     42833       344  OYPE      C39            17.8708301934      -52.2242243043       -9.6448892715  MEMB      344             0.0000000000
     42834       344  OYPE      H9X            18.0334619932      -52.0524588896      -10.6946203446  MEMB      344             0.0000000000
     42835       344  OYPE      C310           18.9015117486      -52.1853585682       -8.8155946120  MEMB      344             0.0000000000
     42836       344  OYPE      H10X           19.7558335982      -51.6569845891       -9.2260836931  MEMB      344             0.0000000000
     42837       344  OYPE      C311           19.0260969541      -52.6956617976       -7.4015500830  MEMB      344             0.0000000000
     42838       344  OYPE      H11X           18.1584776985      -53.3185653604       -7.1970073314  MEMB      344             0.0000000000
     42839       344  OYPE      H11Y           19.9873090754      -53.2647673127       -7.2499307977  MEMB      344             0.0000000000
     42840       344  OYPE      C312           19.0803049142      -51.6080633206       -6.3494350070  MEMB      344             0.0000000000
     42841       344  OYPE      H12X           18.1567601776      -50.9931839038       -6.2582129579  MEMB      344             0.0000000000
     42842       344  OYPE      H12Y           19.8491652379      -51.1398758159       -6.9091363028  MEMB      344             0.0000000000
     42843       344  OYPE      C313           19.7604042174      -52.0798288454       -5.0717160286  MEMB      344             0.0000000000
     42844       344  OYPE      H13X           19.2300495483      -53.0038895100       -4.8272341178  MEMB      344             0.0000000000
     42845       344  OYPE      H13Y           20.8293322753      -52.3457096740       -5.2135345895  MEMB      344             0.0000000000
     42846       344  OYPE      C314           19.6666642590      -51.2365154974       -3.8431715180  MEMB      344             0.0000000000
     42847       344  OYPE      H14X           19.9815231076      -51.7094178827       -2.9267316370  MEMB      344             0.0000000000
     42848       344  OYPE      H14Y           18.6288443544      -50.8362182739       -3.6590577422  MEMB      344             0.0000000000
     42849       344  OYPE      C315           20.7633532938      -50.1828678952       -3.7739419873  MEMB      344             0.0000000000
     42850       344  OYPE      H15X           20.6905643280      -49.6793797843       -4.7255035224  MEMB      344             0.0000000000
     42851       344  OYPE      H15Y           21.5870414429      -50.1750758698       -4.2164849635  MEMB      344             0.0000000000
     42852       344  OYPE      C316           21.0415078826      -49.3580617364       -2.4754393057  MEMB      344             0.0000000000
     42853       344  OYPE      H16X           20.8744749390      -49.7225602776       -1.4876445759  MEMB      344             0.0000000000
     42854       344  OYPE      H16Y           20.0094085913      -49.6202249438       -2.7258162725  MEMB      344             0.0000000000
     42855       344  OYPE      C317           21.5175277533      -47.7142175101       -2.4706636611  MEMB      344             0.0000000000
     42856       344  OYPE      H17X           21.4441713104      -47.1144680882       -3.4928560989  MEMB      344             0.0000000000
     42857       344  OYPE      H17Y           22.5212159040      -47.8417897584       -2.5851816262  MEMB      344             0.0000000000
     42858       344  OYPE      C318           20.8780236131      -46.6632830825       -1.4683277295  MEMB      344             0.0000000000
     42859       344  OYPE      H18X           21.0478092455      -46.9728994477       -0.4624935283  MEMB      344             0.0000000000
     42860       344  OYPE      H18Y           21.1633356669      -45.7544752160       -1.7611398986  MEMB      344             0.0000000000
     42861       344  OYPE      H18Z           19.7975041586      -46.4030210361       -1.5489005822  MEMB      344             0.0000000000
     42862       345  POPE      N               4.5790609341       56.5385408789      -18.2150368613  MEMB      345             0.0000000000
     42863       345  POPE      HN1             5.3513631845       57.1219259150      -18.6060650074  MEMB      345             0.0000000000
     42864       345  POPE      HN2             3.7647609642       57.0995529317      -17.9065041479  MEMB      345             0.0000000000
     42865       345  POPE      HN3             4.9134620878       55.9807731149      -17.3990312458  MEMB      345             0.0000000000
     42866       345  POPE      C12             4.0603682005       55.6453321558      -19.2825419763  MEMB      345             0.0000000000
     42867       345  POPE      H12A            3.5374499536       56.2945644303      -20.0096661625  MEMB      345             0.0000000000
     42868       345  POPE      H12B            3.2891706095       55.0022648953      -18.8094450824  MEMB      345             0.0000000000
     42869       345  POPE      C11             5.2490644894       54.8408502393      -19.8253539251  MEMB      345             0.0000000000
     42870       345  POPE      H11A            6.1213347198       55.5058752600      -20.0525062632  MEMB      345             0.0000000000
     42871       345  POPE      H11B            4.9923847121       54.3904179570      -20.8043415878  MEMB      345             0.0000000000
     42872       345  POPE      P               7.0289579186       53.1593469046      -19.0039600085  MEMB      345             0.0000000000
     42873       345  POPE      O13             7.3535720772       52.9018666825      -20.4145347474  MEMB      345             0.0000000000
     42874       345  POPE      O14             7.1633311595       52.0992441776      -18.0003089042  MEMB      345             0.0000000000
     42875       345  POPE      O11             7.8331605009       54.4224278826      -18.5511045152  MEMB      345             0.0000000000
     42876       345  POPE      O12             5.5890832360       53.8091366035      -18.8930344565  MEMB      345             0.0000000000
     42877       345  POPE      C1              7.6531877443       54.7824390503      -17.2517420832  MEMB      345             0.0000000000
     42878       345  POPE      HA              6.9260319904       54.2663155668      -16.5612893027  MEMB      345             0.0000000000
     42879       345  POPE      HB              7.5645246803       55.8877682074      -17.1924917824  MEMB      345             0.0000000000
     42880       345  POPE      C2              8.8048448474       54.4037676174      -16.5979051466  MEMB      345             0.0000000000
     42881       345  POPE      HS              9.7742156018       54.8679383272      -17.1157410776  MEMB      345             0.0000000000
     42882       345  POPE      O21             9.0600944506       52.9608539150      -16.3241641231  MEMB      345             0.0000000000
     42883       345  POPE      C21            10.2409880748       52.2731379851      -16.0682498458  MEMB      345             0.0000000000
     42884       345  POPE      O22            11.3770436391       52.6434551752      -16.3230651170  MEMB      345             0.0000000000
     42885       345  POPE      C22             9.8473662985       51.0774873200      -15.0463851824  MEMB      345             0.0000000000
     42886       345  POPE      H2R            10.4085451653       50.3846594692      -15.6305941457  MEMB      345             0.0000000000
     42887       345  POPE      H2S             8.7830782012       50.9087452899      -14.8286002773  MEMB      345             0.0000000000
     42888       345  POPE      C3              8.0662697707       55.3471863907      -15.2895566955  MEMB      345             0.0000000000
     42889       345  POPE      HX              8.7481301802       55.7075391228      -15.7043871560  MEMB      345             0.0000000000
     42890       345  POPE      HY              8.8061077526       55.4182798582      -14.2782548746  MEMB      345             0.0000000000
     42891       345  POPE      O31             7.7772316442       55.3999171163      -13.9842516003  MEMB      345             0.0000000000
     42892       345  POPE      C31             7.6825536845       56.0976146921      -12.7867517482  MEMB      345             0.0000000000
     42893       345  POPE      O32             8.2333289192       56.8513346546      -12.1099992581  MEMB      345             0.0000000000
     42894       345  POPE      C32             6.6392001140       55.8690486956      -12.2153302622  MEMB      345             0.0000000000
     42895       345  POPE      H2X             6.3713360931       56.8555930196      -11.8778699816  MEMB      345             0.0000000000
     42896       345  POPE      H2Y             6.8563826156       55.4554780400      -11.2804689718  MEMB      345             0.0000000000
     42897       345  POPE      C23            10.4802588541       50.7190855976      -13.6675439850  MEMB      345             0.0000000000
     42898       345  POPE      H3R            11.5917394376       50.9090920209      -13.9013077936  MEMB      345             0.0000000000
     42899       345  POPE      H3S            10.7194929285       49.7559535119      -13.3878524442  MEMB      345             0.0000000000
     42900       345  POPE      C24             9.6340424051       51.3133409000      -12.4150197639  MEMB      345             0.0000000000
     42901       345  POPE      H4R             8.8106858011       51.9500288744      -12.6772215782  MEMB      345             0.0000000000
     42902       345  POPE      H4S             9.7578203075       52.3583968136      -12.1967131117  MEMB      345             0.0000000000
     42903       345  POPE      C25             9.9365488006       50.7717032189      -11.0758535179  MEMB      345             0.0000000000
     42904       345  POPE      H5R            10.9991104668       50.6661759372      -10.9342427658  MEMB      345             0.0000000000
     42905       345  POPE      H5S             9.8232276987       49.7722890789      -11.3423435534  MEMB      345             0.0000000000
     42906       345  POPE      C26             9.0537094691       51.2638960914       -9.9500123501  MEMB      345             0.0000000000
     42907       345  POPE      H6R             8.0045990549       51.2639584847      -10.1913182971  MEMB      345             0.0000000000
     42908       345  POPE      H6S             9.0945988120       52.3552171364       -9.9284151586  MEMB      345             0.0000000000
     42909       345  POPE      C27             9.3125598288       50.5311634969       -8.6196433497  MEMB      345             0.0000000000
     42910       345  POPE      H7R            10.3725548010       50.2179285003       -8.4917073882  MEMB      345             0.0000000000
     42911       345  POPE      H7S             8.7356094179       49.5876771431       -8.7202177508  MEMB      345             0.0000000000
     42912       345  POPE      C28             8.8811295490       51.2993817389       -7.3351353370  MEMB      345             0.0000000000
     42913       345  POPE      H8R             8.9505085860       50.6290990077       -6.4814979124  MEMB      345             0.0000000000
     42914       345  POPE      H8S             7.8547556574       51.6731537846       -7.4251699132  MEMB      345             0.0000000000
     42915       345  POPE      C29             9.5357499306       52.4524388831       -6.7128238768  MEMB      345             0.0000000000
     42916       345  POPE      H91            10.6314764306       52.3734010352       -6.4632248940  MEMB      345             0.0000000000
     42917       345  POPE      C210            9.2342508646       53.6923175213       -7.0490785135  MEMB      345             0.0000000000
     42918       345  POPE      H101           10.1902834997       54.1412749943       -6.7784436511  MEMB      345             0.0000000000
     42919       345  POPE      C211            8.2806436531       54.4564235803       -8.0472721126  MEMB      345             0.0000000000
     42920       345  POPE      H11R            7.6306384384       53.7592553346       -8.5962837916  MEMB      345             0.0000000000
     42921       345  POPE      H11S            8.6950861547       55.1238943210       -8.9051526686  MEMB      345             0.0000000000
     42922       345  POPE      C212            7.5548253086       55.4899446452       -7.1887398330  MEMB      345             0.0000000000
     42923       345  POPE      H12R            6.7326702071       55.9469716667       -7.7716414247  MEMB      345             0.0000000000
     42924       345  POPE      H12S            8.2161431994       56.3659465734       -6.9717730369  MEMB      345             0.0000000000
     42925       345  POPE      C213            6.9855972378       54.8287619985       -5.9212993757  MEMB      345             0.0000000000
     42926       345  POPE      H13R            7.7985598964       54.6343821845       -5.1860683315  MEMB      345             0.0000000000
     42927       345  POPE      H13S            6.5055355177       53.8572198447       -6.2027507106  MEMB      345             0.0000000000
     42928       345  POPE      C214            5.9943873732       55.7416744340       -5.2212315408  MEMB      345             0.0000000000
     42929       345  POPE      H14R            5.2053807155       55.9901520520       -5.9613958857  MEMB      345             0.0000000000
     42930       345  POPE      H14S            6.5021098422       56.6586994349       -4.8753585466  MEMB      345             0.0000000000
     42931       345  POPE      C215            5.2888459030       55.1660085925       -4.0167564649  MEMB      345             0.0000000000
     42932       345  POPE      H15R            4.7421673525       54.4031104622       -4.5042985087  MEMB      345             0.0000000000
     42933       345  POPE      H15S            4.5916250051       55.9293199058       -3.6288390123  MEMB      345             0.0000000000
     42934       345  POPE      C216            6.1836683863       54.4671333981       -3.0128357244  MEMB      345             0.0000000000
     42935       345  POPE      H16R            7.0642328944       55.0687437168       -2.9482420263  MEMB      345             0.0000000000
     42936       345  POPE      H16S            6.5044180590       53.4796729796       -3.4011283455  MEMB      345             0.0000000000
     42937       345  POPE      C217            5.7515057258       54.3666774970       -1.5635163268  MEMB      345             0.0000000000
     42938       345  POPE      H17R            5.2431221391       55.2337808637       -1.0755437409  MEMB      345             0.0000000000
     42939       345  POPE      H17S            6.4896465671       53.7998796460       -1.0063530324  MEMB      345             0.0000000000
     42940       345  POPE      C218            4.8666237284       53.4491929622       -1.5329180460  MEMB      345             0.0000000000
     42941       345  POPE      H18R            4.2280387793       53.1561607749       -0.6382701051  MEMB      345             0.0000000000
     42942       345  POPE      H18S            4.9234594653       52.6889097248       -2.3584358389  MEMB      345             0.0000000000
     42943       345  POPE      H18T            4.2333660044       54.1487801107       -2.1288721957  MEMB      345             0.0000000000
     42944       345  POPE      C33             5.7993625840       55.3235756606      -13.2344334985  MEMB      345             0.0000000000
     42945       345  POPE      H3X             6.2213329187       54.3258146942      -13.3979538655  MEMB      345             0.0000000000
     42946       345  POPE      H3Y             5.5261947948       55.8680342499      -14.2184541880  MEMB      345             0.0000000000
     42947       345  POPE      C34             4.6243510659       55.2945054570      -12.8549424446  MEMB      345             0.0000000000
     42948       345  POPE      H4X             4.5717399910       54.0781497074      -13.3454852210  MEMB      345             0.0000000000
     42949       345  POPE      H4Y             3.9440189924       56.3039758707      -12.9343154212  MEMB      345             0.0000000000
     42950       345  POPE      C35             4.2013869548       55.2190305622      -11.6852122746  MEMB      345             0.0000000000
     42951       345  POPE      H5X             4.7820008095       55.5436141038      -10.9061649744  MEMB      345             0.0000000000
     42952       345  POPE      H5Y             5.3453017231       54.4111825365      -11.2888063772  MEMB      345             0.0000000000
     42953       345  POPE      C36             2.0130506845       54.4391241035      -11.1055589397  MEMB      345             0.0000000000
     42954       345  POPE      H6X             1.6253436945       53.4857841188      -11.1814272529  MEMB      345             0.0000000000
     42955       345  POPE      H6Y             1.6267754647       55.1055914579      -11.6952006624  MEMB      345             0.0000000000
     42956       345  POPE      C37             2.1486610624       53.6804812882       -9.2581014351  MEMB      345             0.0000000000
     42957       345  POPE      H7X             1.4954561488       53.1619130201       -9.2166093895  MEMB      345             0.0000000000
     42958       345  POPE      H7Y             2.8084336017       54.1094748231       -8.7007841295  MEMB      345             0.0000000000
     42959       345  POPE      C38             3.6379939502       52.8582344700       -8.4802964561  MEMB      345             0.0000000000
     42960       345  POPE      H8X             4.5839131934       53.6368284043       -8.4239519500  MEMB      345             0.0000000000
     42961       345  POPE      H8Y             3.9100788136       51.8632927249       -9.1742873698  MEMB      345             0.0000000000
     42962       345  POPE      C39             3.6974777201       52.5716727177       -7.5243467116  MEMB      345             0.0000000000
     42963       345  POPE      H9X             3.1259716923       51.7589045938       -7.6853499691  MEMB      345             0.0000000000
     42964       345  POPE      H9Y             3.0803754461       53.4054638299       -7.1241241959  MEMB      345             0.0000000000
     42965       345  POPE      C310            4.7455719216       51.6173734927       -7.1398707590  MEMB      345             0.0000000000
     42966       345  POPE      H10X            5.5026188535       52.3928462136       -7.1285326105  MEMB      345             0.0000000000
     42967       345  POPE      H10Y            4.8214634293       50.7806843931       -7.8675240059  MEMB      345             0.0000000000
     42968       345  POPE      C311            4.4655822405       50.9626897948       -5.8285298933  MEMB      345             0.0000000000
     42969       345  POPE      H11X            3.5446982279       50.3493889218       -5.7490708587  MEMB      345             0.0000000000
     42970       345  POPE      H11Y            4.4091328661       51.8754977898       -5.1831105138  MEMB      345             0.0000000000
     42971       345  POPE      C312            5.2691534448       49.9576738413       -5.1727167331  MEMB      345             0.0000000000
     42972       345  POPE      H12X            6.1411842373       50.5672443466       -4.9534721788  MEMB      345             0.0000000000
     42973       345  POPE      H12Y            5.3438356810       49.2303037077       -5.9933706005  MEMB      345             0.0000000000
     42974       345  POPE      C313            4.7968531992       49.3630065616       -3.8243054480  MEMB      345             0.0000000000
     42975       345  POPE      H13X            3.8697797454       48.7601993927       -3.9096511814  MEMB      345             0.0000000000
     42976       345  POPE      H13Y            4.5733668540       50.1579750482       -3.0840280425  MEMB      345             0.0000000000
     42977       345  POPE      C314            5.9065812823       48.5106534428       -3.2245825735  MEMB      345             0.0000000000
     42978       345  POPE      H14X            6.1146290067       47.7705723084       -4.0200596136  MEMB      345             0.0000000000
     42979       345  POPE      H14Y            5.5695386364       47.9498268542       -2.3256783211  MEMB      345             0.0000000000
     42980       345  POPE      C315            7.2027877546       49.2835401639       -2.9211461227  MEMB      345             0.0000000000
     42981       345  POPE      H15X            7.5612379722       49.7814103905       -3.8368939468  MEMB      345             0.0000000000
     42982       345  POPE      H15Y            8.0486760662       48.6197517551       -2.6769201947  MEMB      345             0.0000000000
     42983       345  POPE      C316            7.0670740067       50.3689354036       -1.8669540567  MEMB      345             0.0000000000
     42984       345  POPE      H16X            8.0423727190       50.8485787317       -1.6654470582  MEMB      345             0.0000000000
     42985       345  POPE      H16Y            6.6618542269       49.9757300021       -0.9105055392  MEMB      345             0.0000000000
     42986       345  POPE      H16Z            6.4149366530       51.1532753138       -2.2998391080  MEMB      345             0.0000000000
     42987       346  POPE      N             -33.0112999093      -44.0999564389      -19.5683756914  MEMB      346             0.0000000000
     42988       346  POPE      HN1           -32.4960996602      -44.9051775956      -19.1670557717  MEMB      346             0.0000000000
     42989       346  POPE      HN2           -33.1925086955      -44.2120013342      -20.5829231975  MEMB      346             0.0000000000
     42990       346  POPE      HN3           -32.4569445890      -43.2253637162      -19.4755152807  MEMB      346             0.0000000000
     42991       346  POPE      C12           -34.2411325932      -43.8832211811      -18.7228791690  MEMB      346             0.0000000000
     42992       346  POPE      H12A          -33.8331650156      -43.7078107765      -17.6937157761  MEMB      346             0.0000000000
     42993       346  POPE      H12B          -34.8407575110      -44.8177681622      -18.7242266092  MEMB      346             0.0000000000
     42994       346  POPE      C11           -35.0377622775      -42.6593903664      -19.2173641504  MEMB      346             0.0000000000
     42995       346  POPE      H11A          -36.0025490034      -42.6248913638      -18.6504993058  MEMB      346             0.0000000000
     42996       346  POPE      H11B          -35.3817664023      -42.7328410597      -20.2722624414  MEMB      346             0.0000000000
     42997       346  POPE      P             -34.6530693168      -40.0088319588      -19.0226852195  MEMB      346             0.0000000000
     42998       346  POPE      O13           -35.4240827717      -39.6827222728      -20.2371158892  MEMB      346             0.0000000000
     42999       346  POPE      O14           -33.6229024697      -39.0522708307      -18.5650843880  MEMB      346             0.0000000000
     43000       346  POPE      O11           -35.5747557445      -40.2452304732      -17.8149494004  MEMB      346             0.0000000000
     43001       346  POPE      O12           -34.1813004023      -41.5178864998      -19.0487169098  MEMB      346             0.0000000000
     43002       346  POPE      C1            -36.2951073046      -39.1199562792      -17.6444841011  MEMB      346             0.0000000000
     43003       346  POPE      HA            -36.8289152073      -38.7192458495      -18.6111693375  MEMB      346             0.0000000000
     43004       346  POPE      HB            -35.7755912325      -38.2025592407      -17.1949671832  MEMB      346             0.0000000000
     43005       346  POPE      C2            -37.2728718124      -39.4591952625      -16.5757635141  MEMB      346             0.0000000000
     43006       346  POPE      HS            -38.0940899855      -39.0660927410      -16.8263487775  MEMB      346             0.0000000000
     43007       346  POPE      O21           -36.7941127397      -39.7229769083      -15.2069973289  MEMB      346             0.0000000000
     43008       346  POPE      C21           -37.0669454096      -39.0397217574      -14.0304013630  MEMB      346             0.0000000000
     43009       346  POPE      O22           -37.7373814241      -38.1207135526      -13.7138408744  MEMB      346             0.0000000000
     43010       346  POPE      C22           -36.3295373428      -39.4233890059      -12.9111823721  MEMB      346             0.0000000000
     43011       346  POPE      H2R           -36.5820260945      -40.4670119833      -12.7035761699  MEMB      346             0.0000000000
     43012       346  POPE      H2S           -36.5883809717      -38.7289018482      -12.0559113638  MEMB      346             0.0000000000
     43013       346  POPE      C3            -38.3705900482      -40.5145139413      -16.9133249725  MEMB      346             0.0000000000
     43014       346  POPE      HX            -38.8144535895      -40.1570404675      -17.9338064074  MEMB      346             0.0000000000
     43015       346  POPE      HY            -39.3317583836      -40.4819167883      -16.2914224790  MEMB      346             0.0000000000
     43016       346  POPE      O31           -37.8084915518      -41.7161900595      -16.8586303355  MEMB      346             0.0000000000
     43017       346  POPE      C31           -37.9701250412      -42.3033648914      -15.7325213339  MEMB      346             0.0000000000
     43018       346  POPE      O32           -38.7235237014      -42.0538682476      -14.8014276913  MEMB      346             0.0000000000
     43019       346  POPE      C32           -36.9176068831      -43.3806141322      -15.8518845826  MEMB      346             0.0000000000
     43020       346  POPE      H2X           -36.2785464697      -43.2303138924      -16.7049713488  MEMB      346             0.0000000000
     43021       346  POPE      H2Y           -37.4684813112      -44.1328434483      -16.3793606341  MEMB      346             0.0000000000
     43022       346  POPE      C23           -34.9414702250      -39.0631812405      -13.3366230645  MEMB      346             0.0000000000
     43023       346  POPE      H3R           -34.8594890501      -37.9887259413      -13.6383143830  MEMB      346             0.0000000000
     43024       346  POPE      H3S           -34.6199045730      -39.6849152367      -14.1970584639  MEMB      346             0.0000000000
     43025       346  POPE      C24           -34.0496143540      -39.3532436185      -12.1707894951  MEMB      346             0.0000000000
     43026       346  POPE      H4R           -34.1865601034      -40.4274129746      -11.9163552980  MEMB      346             0.0000000000
     43027       346  POPE      H4S           -34.3321076841      -38.7064321352      -11.3179055950  MEMB      346             0.0000000000
     43028       346  POPE      C25           -32.5930670354      -39.1903747181      -12.4752432664  MEMB      346             0.0000000000
     43029       346  POPE      H5R           -32.3717537167      -38.1620350110      -12.7788746816  MEMB      346             0.0000000000
     43030       346  POPE      H5S           -32.3664819185      -39.9003834304      -13.2898926370  MEMB      346             0.0000000000
     43031       346  POPE      C26           -31.7929789172      -39.5166708062      -11.2583852897  MEMB      346             0.0000000000
     43032       346  POPE      H6R           -30.7466889882      -39.6596567644      -11.5729176146  MEMB      346             0.0000000000
     43033       346  POPE      H6S           -32.0337823113      -40.5505013322      -10.9084758247  MEMB      346             0.0000000000
     43034       346  POPE      C27           -32.0078599989      -38.3654883061      -10.2221332582  MEMB      346             0.0000000000
     43035       346  POPE      H7R           -32.9593520817      -38.4221646805       -9.6859537915  MEMB      346             0.0000000000
     43036       346  POPE      H7S           -31.5766176605      -37.3894497882      -10.4465668565  MEMB      346             0.0000000000
     43037       346  POPE      C28           -31.4302562825      -38.5351322102       -8.9714939304  MEMB      346             0.0000000000
     43038       346  POPE      H8R           -30.5042916326      -38.6971482038       -9.5561239517  MEMB      346             0.0000000000
     43039       346  POPE      H8S           -31.9870518997      -39.6037973778       -8.9281221303  MEMB      346             0.0000000000
     43040       346  POPE      C29           -31.2438911457      -37.9805890403       -7.5343598802  MEMB      346             0.0000000000
     43041       346  POPE      H91           -31.2294920151      -36.9484686622       -7.7120752044  MEMB      346             0.0000000000
     43042       346  POPE      C210          -31.1466955333      -38.5471337428       -6.2619182266  MEMB      346             0.0000000000
     43043       346  POPE      H101          -31.3651645669      -38.0748337058       -5.3551669339  MEMB      346             0.0000000000
     43044       346  POPE      C211          -31.1812110576      -39.9195166528       -5.6881977047  MEMB      346             0.0000000000
     43045       346  POPE      H11R          -30.5182654593      -40.2158022113       -4.8748061590  MEMB      346             0.0000000000
     43046       346  POPE      H11S          -30.1740079646      -40.0193393762       -6.2537582499  MEMB      346             0.0000000000
     43047       346  POPE      C212          -32.5318291853      -41.1430033556       -5.7873052758  MEMB      346             0.0000000000
     43048       346  POPE      H12R          -32.8938854617      -41.4085948204       -6.8534236243  MEMB      346             0.0000000000
     43049       346  POPE      H12S          -33.2383169579      -40.6902951464       -5.2622772385  MEMB      346             0.0000000000
     43050       346  POPE      C213          -32.1818743021      -42.6934222776       -5.4346226137  MEMB      346             0.0000000000
     43051       346  POPE      H13R          -32.9237561622      -43.1114507619       -4.8482315657  MEMB      346             0.0000000000
     43052       346  POPE      H13S          -31.4703385520      -41.9590152045       -4.9829911205  MEMB      346             0.0000000000
     43053       346  POPE      C214          -31.0760818194      -44.0062927634       -5.9060942883  MEMB      346             0.0000000000
     43054       346  POPE      H14R          -30.0446023754      -43.9543378008       -5.9010381464  MEMB      346             0.0000000000
     43055       346  POPE      H14S          -30.2714742342      -43.9720483205       -6.7761183144  MEMB      346             0.0000000000
     43056       346  POPE      C215          -31.0847352014      -45.3527153227       -5.8706802881  MEMB      346             0.0000000000
     43057       346  POPE      H15R          -30.0558472241      -45.7679333388       -5.6991115989  MEMB      346             0.0000000000
     43058       346  POPE      H15S          -31.2785208862      -45.4305275827       -6.9695322883  MEMB      346             0.0000000000
     43059       346  POPE      C216          -32.0716365108      -45.7425691410       -4.8730041435  MEMB      346             0.0000000000
     43060       346  POPE      H16R          -32.0831176129      -46.8172875551       -4.9987919444  MEMB      346             0.0000000000
     43061       346  POPE      H16S          -33.0172370342      -45.2881165793       -5.2226012600  MEMB      346             0.0000000000
     43062       346  POPE      C217          -31.7813870910      -45.6794215136       -3.3708446417  MEMB      346             0.0000000000
     43063       346  POPE      H17R          -32.6120855055      -45.6062594261       -2.6639657617  MEMB      346             0.0000000000
     43064       346  POPE      H17S          -31.8425521176      -44.7944634080       -2.9694680831  MEMB      346             0.0000000000
     43065       346  POPE      C218          -30.4386637557      -46.0837865218       -2.8041295573  MEMB      346             0.0000000000
     43066       346  POPE      H18R          -30.5993997156      -47.1483889846       -2.8107857281  MEMB      346             0.0000000000
     43067       346  POPE      H18S          -30.2810059896      -45.7284166973       -1.7467391502  MEMB      346             0.0000000000
     43068       346  POPE      H18T          -29.5884885282      -45.8298244955       -3.4737744181  MEMB      346             0.0000000000
     43069       346  POPE      C33           -36.1330640319      -43.6826149665      -14.5412743261  MEMB      346             0.0000000000
     43070       346  POPE      H3X           -36.8536120782      -43.4139348355      -13.7552403841  MEMB      346             0.0000000000
     43071       346  POPE      H3Y           -35.3187135796      -42.9610060363      -14.4749250396  MEMB      346             0.0000000000
     43072       346  POPE      C34           -35.4044360053      -45.0500051897      -14.2974969895  MEMB      346             0.0000000000
     43073       346  POPE      H4X           -34.4380115447      -44.9938803960      -14.7949148194  MEMB      346             0.0000000000
     43074       346  POPE      H4Y           -35.9629637877      -45.8399192770      -14.7650875831  MEMB      346             0.0000000000
     43075       346  POPE      C35           -35.0837986208      -45.5845303811      -12.8642763193  MEMB      346             0.0000000000
     43076       346  POPE      H5X           -34.7123280880      -46.5943625193      -12.9466916538  MEMB      346             0.0000000000
     43077       346  POPE      H5Y           -35.8512981051      -45.9501602604      -12.1874459363  MEMB      346             0.0000000000
     43078       346  POPE      C36           -34.1803858218      -44.7664017057      -11.9852570111  MEMB      346             0.0000000000
     43079       346  POPE      H6X           -33.2613912352      -44.7211100863      -12.5830877957  MEMB      346             0.0000000000
     43080       346  POPE      H6Y           -33.9533071759      -45.3981560934      -11.1102684426  MEMB      346             0.0000000000
     43081       346  POPE      C37           -34.6620737368      -43.4070277343      -11.4468244325  MEMB      346             0.0000000000
     43082       346  POPE      H7X           -35.1460594876      -42.8647378638      -12.2927852058  MEMB      346             0.0000000000
     43083       346  POPE      H7Y           -33.7771174037      -42.8612146404      -11.0638359884  MEMB      346             0.0000000000
     43084       346  POPE      C38           -35.5361250733      -43.4773674878      -10.1901137178  MEMB      346             0.0000000000
     43085       346  POPE      H8X           -35.2648310798      -44.2899584805       -9.4872065605  MEMB      346             0.0000000000
     43086       346  POPE      H8Y           -36.4383532016      -43.7949465578      -10.6298620604  MEMB      346             0.0000000000
     43087       346  POPE      C39           -35.6436863401      -42.1682304540       -9.4147791401  MEMB      346             0.0000000000
     43088       346  POPE      H9X           -36.1620024167      -41.3614497370       -9.9867189112  MEMB      346             0.0000000000
     43089       346  POPE      H9Y           -34.6282173734      -41.8202043486       -9.1804764391  MEMB      346             0.0000000000
     43090       346  POPE      C310          -36.2471359739      -42.3810093267       -8.0797184997  MEMB      346             0.0000000000
     43091       346  POPE      H10X          -35.8000689863      -43.0776491952       -7.3552249476  MEMB      346             0.0000000000
     43092       346  POPE      H10Y          -37.1723347537      -42.9361887949       -8.3646339098  MEMB      346             0.0000000000
     43093       346  POPE      C311          -36.4150839636      -41.0214157327       -7.3532565745  MEMB      346             0.0000000000
     43094       346  POPE      H11X          -36.9879446644      -41.6884241798       -6.7934887015  MEMB      346             0.0000000000
     43095       346  POPE      H11Y          -37.1382140146      -40.2499594309       -7.7232073482  MEMB      346             0.0000000000
     43096       346  POPE      C312          -35.4490781903      -40.5249298061       -6.3623778060  MEMB      346             0.0000000000
     43097       346  POPE      H12X          -34.7472418980      -40.2197899200       -7.1529572244  MEMB      346             0.0000000000
     43098       346  POPE      H12Y          -35.1235834458      -41.3892947443       -5.7478353814  MEMB      346             0.0000000000
     43099       346  POPE      C313          -35.8960666712      -39.3357376175       -5.4897682290  MEMB      346             0.0000000000
     43100       346  POPE      H13X          -36.6409366806      -38.7419473610       -6.0515532684  MEMB      346             0.0000000000
     43101       346  POPE      H13Y          -34.9997597176      -38.7644463273       -5.2164626434  MEMB      346             0.0000000000
     43102       346  POPE      C314          -36.3269590726      -39.5859663400       -4.0544520377  MEMB      346             0.0000000000
     43103       346  POPE      H14X          -35.6953627736      -40.3332726466       -3.5720493909  MEMB      346             0.0000000000
     43104       346  POPE      H14Y          -37.2769015814      -39.9603562802       -4.0606698308  MEMB      346             0.0000000000
     43105       346  POPE      C315          -36.9920838306      -38.4801445689       -3.2611247673  MEMB      346             0.0000000000
     43106       346  POPE      H15X          -38.0036140703      -38.3017011065       -3.7123936465  MEMB      346             0.0000000000
     43107       346  POPE      H15Y          -36.4880541534      -37.5528400284       -3.5043581611  MEMB      346             0.0000000000
     43108       346  POPE      C316          -37.0781334526      -38.7623921966       -1.7473783731  MEMB      346             0.0000000000
     43109       346  POPE      H16X          -37.8660461571      -39.5026726975       -1.4991558498  MEMB      346             0.0000000000
     43110       346  POPE      H16Y          -37.3696210609      -37.8779982695       -1.1603425633  MEMB      346             0.0000000000
     43111       346  POPE      H16Z          -36.0988639302      -39.0805260075       -1.3259869377  MEMB      346             0.0000000000
     43112       347  PYPG      C13            -9.6304649168      -54.6893871910      -20.4411595823  MEMB      347             0.0000000000
     43113       347  PYPG      H13A           -9.1205157109      -53.9694954386      -21.1230648514  MEMB      347             0.0000000000
     43114       347  PYPG      H13B           -9.9220049120      -55.5811295506      -21.0111124002  MEMB      347             0.0000000000
     43115       347  PYPG      OC3           -10.8595482443      -54.1606021907      -19.9434765680  MEMB      347             0.0000000000
     43116       347  PYPG      HO3           -10.6418070117      -53.6564392603      -19.1588722100  MEMB      347             0.0000000000
     43117       347  PYPG      C12            -8.6398483170      -55.1951663021      -19.3549901321  MEMB      347             0.0000000000
     43118       347  PYPG      H12A           -7.7607126017      -55.6205151604      -19.8922000928  MEMB      347             0.0000000000
     43119       347  PYPG      OC2            -9.2262719290      -56.2240810149      -18.5554317172  MEMB      347             0.0000000000
     43120       347  PYPG      HO2            -8.6018383763      -56.3583809945      -17.8518518053  MEMB      347             0.0000000000
     43121       347  PYPG      C11            -8.1308476102      -54.0993269155      -18.4288968899  MEMB      347             0.0000000000
     43122       347  PYPG      H11A           -7.1974668454      -54.4409098024      -17.8984589051  MEMB      347             0.0000000000
     43123       347  PYPG      H11B           -8.9119576960      -53.9057003234      -17.6752805168  MEMB      347             0.0000000000
     43124       347  PYPG      P              -6.8846001498      -51.8987663507      -18.8108900426  MEMB      347             0.0000000000
     43125       347  PYPG      O13            -7.3248466556      -50.5110193437      -19.1103068700  MEMB      347             0.0000000000
     43126       347  PYPG      O14            -5.5761978653      -52.3451016501      -19.2609549819  MEMB      347             0.0000000000
     43127       347  PYPG      O11            -6.9212567078      -52.2242301495      -17.2376453354  MEMB      347             0.0000000000
     43128       347  PYPG      O12            -7.9889788304      -52.8998952700      -19.1738683146  MEMB      347             0.0000000000
     43129       347  PYPG      C1             -7.7845815628      -51.5453368761      -16.3799186983  MEMB      347             0.0000000000
     43130       347  PYPG      HA             -8.8480038404      -51.5347383697      -16.5671390197  MEMB      347             0.0000000000
     43131       347  PYPG      HB             -7.8063216298      -50.5623216763      -16.9532829834  MEMB      347             0.0000000000
     43132       347  PYPG      C2             -7.2593544149      -51.6318963445      -14.7154571749  MEMB      347             0.0000000000
     43133       347  PYPG      HS             -7.8229710088      -50.9686547332      -14.0385958728  MEMB      347             0.0000000000
     43134       347  PYPG      O21            -5.8865642386      -51.3540322910      -14.2237937979  MEMB      347             0.0000000000
     43135       347  PYPG      C21            -5.4172420950      -50.2143263462      -13.7412197196  MEMB      347             0.0000000000
     43136       347  PYPG      O22            -5.9811973319      -49.3374408776      -13.1295729625  MEMB      347             0.0000000000
     43137       347  PYPG      C22            -3.9280465239      -50.1880736205      -13.8273411293  MEMB      347             0.0000000000
     43138       347  PYPG      H2R            -3.7705693170      -49.1415836262      -13.6335803912  MEMB      347             0.0000000000
     43139       347  PYPG      H2S            -3.3588900104      -50.4993092860      -14.7407719214  MEMB      347             0.0000000000
     43140       347  PYPG      C3             -7.4382408204      -53.0134662240      -14.4398735653  MEMB      347             0.0000000000
     43141       347  PYPG      HX             -7.1724679893      -53.0034962026      -13.3718042101  MEMB      347             0.0000000000
     43142       347  PYPG      HY             -6.6918588003      -53.5830571731      -15.0427785512  MEMB      347             0.0000000000
     43143       347  PYPG      O31            -8.7889139643      -53.3934692621      -14.6903947747  MEMB      347             0.0000000000
     43144       347  PYPG      C31            -8.9234778622      -54.5607044086      -14.0607237118  MEMB      347             0.0000000000
     43145       347  PYPG      O32            -8.0124290994      -55.2187818628      -13.6103716658  MEMB      347             0.0000000000
     43146       347  PYPG      C32           -10.3428159749      -54.8584694002      -13.8702632546  MEMB      347             0.0000000000
     43147       347  PYPG      H2X           -10.7940167910      -53.8396139346      -13.7678844110  MEMB      347             0.0000000000
     43148       347  PYPG      H2Y           -10.7783865653      -55.4558571738      -14.7126868832  MEMB      347             0.0000000000
     43149       347  PYPG      C23            -3.4136607451      -50.7050250674      -12.6760502587  MEMB      347             0.0000000000
     43150       347  PYPG      H3R            -4.1984792321      -50.5177802238      -11.9324729737  MEMB      347             0.0000000000
     43151       347  PYPG      H3S            -2.4866997554      -50.2206068560      -12.3768831882  MEMB      347             0.0000000000
     43152       347  PYPG      C24            -3.2047824967      -52.0471896086      -13.0702961857  MEMB      347             0.0000000000
     43153       347  PYPG      H4R            -2.4374553544      -52.1665703402      -13.8427275544  MEMB      347             0.0000000000
     43154       347  PYPG      H4S            -4.1663280427      -52.5154859980      -13.4171050603  MEMB      347             0.0000000000
     43155       347  PYPG      C25            -2.6510331076      -52.7632981494      -11.9233894709  MEMB      347             0.0000000000
     43156       347  PYPG      H5R            -1.7463726425      -52.6565905764      -11.6660501383  MEMB      347             0.0000000000
     43157       347  PYPG      H5S            -2.1891594382      -53.5702713113      -12.1752464253  MEMB      347             0.0000000000
     43158       347  PYPG      C26            -3.2301257453      -52.7923551528      -10.6575907991  MEMB      347             0.0000000000
     43159       347  PYPG      H6R            -3.9848492712      -53.1596186428      -11.4703806001  MEMB      347             0.0000000000
     43160       347  PYPG      H6S            -3.8805349920      -51.9640955547      -10.6778210750  MEMB      347             0.0000000000
     43161       347  PYPG      C27            -2.8342875695      -54.0573950620       -9.2105979394  MEMB      347             0.0000000000
     43162       347  PYPG      H7R            -3.5172907297      -53.8718777882       -8.4944442947  MEMB      347             0.0000000000
     43163       347  PYPG      H7S            -2.4349267076      -53.2957185868       -9.1513492189  MEMB      347             0.0000000000
     43164       347  PYPG      C28            -3.0675518431      -55.9365207800       -9.3432089571  MEMB      347             0.0000000000
     43165       347  PYPG      H8R            -2.7542911160      -55.8676779201       -8.4015826588  MEMB      347             0.0000000000
     43166       347  PYPG      H8S            -2.3705728144      -55.9171818903      -10.1267528232  MEMB      347             0.0000000000
     43167       347  PYPG      C29            -4.4619997325      -56.8739523885       -9.6283543096  MEMB      347             0.0000000000
     43168       347  PYPG      H9R            -5.0966461739      -56.9410927391      -10.5814130791  MEMB      347             0.0000000000
     43169       347  PYPG      C210           -5.2989958513      -57.2448477786       -8.7992828685  MEMB      347             0.0000000000
     43170       347  PYPG      H10R           -6.3220143975      -57.1085814705       -9.1252292676  MEMB      347             0.0000000000
     43171       347  PYPG      C211           -5.0523547971      -56.9671540219       -7.4631058678  MEMB      347             0.0000000000
     43172       347  PYPG      H11R           -3.9618359834      -57.0191686108       -7.3669287760  MEMB      347             0.0000000000
     43173       347  PYPG      H11S           -5.3714372056      -57.9455175261       -7.1476629929  MEMB      347             0.0000000000
     43174       347  PYPG      C212           -5.6313558269      -55.8376735273       -6.7307792482  MEMB      347             0.0000000000
     43175       347  PYPG      H12R           -6.6052739804      -55.4482369204       -7.0838726602  MEMB      347             0.0000000000
     43176       347  PYPG      H12S           -4.8393849629      -55.0867697533       -6.6795105021  MEMB      347             0.0000000000
     43177       347  PYPG      C213           -5.7781794689      -56.1001666455       -5.3382102287  MEMB      347             0.0000000000
     43178       347  PYPG      H13R           -6.3773607777      -56.9883426853       -5.1780229182  MEMB      347             0.0000000000
     43179       347  PYPG      H13S           -6.1389243439      -55.1273045035       -4.8766887304  MEMB      347             0.0000000000
     43180       347  PYPG      C214           -4.5785148329      -56.4741660121       -4.7446039888  MEMB      347             0.0000000000
     43181       347  PYPG      H14R           -4.0587776472      -57.4499390370       -5.0005506012  MEMB      347             0.0000000000
     43182       347  PYPG      H14S           -3.8477640664      -55.6595865326       -4.9525728500  MEMB      347             0.0000000000
     43183       347  PYPG      C215           -5.2790728453      -56.1740927916       -3.4452085530  MEMB      347             0.0000000000
     43184       347  PYPG      H15R           -4.9941995591      -55.3877507065       -2.7530289314  MEMB      347             0.0000000000
     43185       347  PYPG      H15S           -4.3363513294      -56.3959683653       -3.5075664956  MEMB      347             0.0000000000
     43186       347  PYPG      C216           -5.8330595322      -57.2985155175       -2.8042738764  MEMB      347             0.0000000000
     43187       347  PYPG      H16R           -6.6288260640      -57.1853374490       -2.3037222592  MEMB      347             0.0000000000
     43188       347  PYPG      H16S           -5.7902642968      -57.3975987348       -1.6945365424  MEMB      347             0.0000000000
     43189       347  PYPG      H16T           -5.5520584383      -58.3968446976       -3.1140441510  MEMB      347             0.0000000000
     43190       347  PYPG      C33           -10.5632630569      -55.5964794270      -12.5479023963  MEMB      347             0.0000000000
     43191       347  PYPG      H3X            -9.9065330668      -56.4915724803      -12.4892116242  MEMB      347             0.0000000000
     43192       347  PYPG      H3Y           -11.6258251781      -55.9408356469      -12.5919610961  MEMB      347             0.0000000000
     43193       347  PYPG      C34           -10.3958855346      -54.6723985576      -11.3270240779  MEMB      347             0.0000000000
     43194       347  PYPG      H4X           -11.4055200202      -54.2157403650      -11.1681084748  MEMB      347             0.0000000000
     43195       347  PYPG      H4Y            -9.6910684931      -53.8313210341      -11.4849602731  MEMB      347             0.0000000000
     43196       347  PYPG      C35            -9.8644708575      -55.3534716073      -10.0566376059  MEMB      347             0.0000000000
     43197       347  PYPG      H5X            -9.2042775911      -54.6167021585       -9.5324644995  MEMB      347             0.0000000000
     43198       347  PYPG      H5Y            -9.1903879319      -56.2091948107      -10.2695635497  MEMB      347             0.0000000000
     43199       347  PYPG      C36           -11.1093285341      -55.8517778072       -9.3191618819  MEMB      347             0.0000000000
     43200       347  PYPG      H6X           -11.6528859578      -56.6001303934       -9.9221780362  MEMB      347             0.0000000000
     43201       347  PYPG      H6Y           -11.7436923407      -55.0043503338       -9.0600100099  MEMB      347             0.0000000000
     43202       347  PYPG      C37           -11.1403353521      -56.3428744167       -7.9221935769  MEMB      347             0.0000000000
     43203       347  PYPG      H7X           -11.7141672500      -57.2257038572       -7.7075057805  MEMB      347             0.0000000000
     43204       347  PYPG      H7Y           -10.3137602136      -56.7560234242       -7.8884779373  MEMB      347             0.0000000000
     43205       347  PYPG      C38           -10.5872503486      -55.4566571276       -6.8515260656  MEMB      347             0.0000000000
     43206       347  PYPG      H8X           -11.1904390372      -54.6773336028       -6.6690837286  MEMB      347             0.0000000000
     43207       347  PYPG      H8Y            -9.5795075348      -55.0261288429       -7.1542594106  MEMB      347             0.0000000000
     43208       347  PYPG      C39           -10.8925397541      -55.8763730341       -5.3820603711  MEMB      347             0.0000000000
     43209       347  PYPG      H9X           -10.0567388667      -56.2847530696       -5.5348010918  MEMB      347             0.0000000000
     43210       347  PYPG      H9Y           -11.4211346466      -56.8042578392       -5.2352808568  MEMB      347             0.0000000000
     43211       347  PYPG      C310          -10.1585491852      -55.2844106213       -4.0724196737  MEMB      347             0.0000000000
     43212       347  PYPG      H10X          -10.9818461884      -54.6442260154       -4.0101370241  MEMB      347             0.0000000000
     43213       347  PYPG      H10Y           -9.0764171178      -55.0398752991       -4.3732243146  MEMB      347             0.0000000000
     43214       347  PYPG      C311          -10.1730775283      -56.0546593648       -2.6169716118  MEMB      347             0.0000000000
     43215       347  PYPG      H11X           -9.8012892925      -57.0801993984       -2.4232232741  MEMB      347             0.0000000000
     43216       347  PYPG      H11Y          -11.0049787115      -56.7436231513       -2.5895467119  MEMB      347             0.0000000000
     43217       347  PYPG      C312           -9.0391693416      -55.7376779236       -1.6361070967  MEMB      347             0.0000000000
     43218       347  PYPG      H12X           -8.8063834798      -56.6016957302       -0.9467062458  MEMB      347             0.0000000000
     43219       347  PYPG      H12Y           -8.0841491294      -55.5700849826       -2.2065858413  MEMB      347             0.0000000000
     43220       347  PYPG      C313           -9.3575694521      -54.4398532057       -1.1186792730  MEMB      347             0.0000000000
     43221       347  PYPG      H13X           -9.9289409110      -53.9736527939       -1.9530840883  MEMB      347             0.0000000000
     43222       347  PYPG      H13Y          -10.0336244029      -54.6185259806       -0.2655693969  MEMB      347             0.0000000000
     43223       347  PYPG      C314           -8.1096272263      -53.6166882040       -0.8276351781  MEMB      347             0.0000000000
     43224       347  PYPG      H14X           -7.3329801059      -54.2892487572       -0.4033702981  MEMB      347             0.0000000000
     43225       347  PYPG      H14Y           -7.6297310373      -53.1856232202       -1.7365484887  MEMB      347             0.0000000000
     43226       347  PYPG      C315           -8.4759344515      -52.4815054053        0.1243284890  MEMB      347             0.0000000000
     43227       347  PYPG      H15X           -7.8558972699      -51.5842424854       -0.0832232247  MEMB      347             0.0000000000
     43228       347  PYPG      H15Y           -9.5401626443      -52.1932596334       -0.0709661877  MEMB      347             0.0000000000
     43229       347  PYPG      C316           -8.2552267767      -52.8672358777        1.5827354841  MEMB      347             0.0000000000
     43230       347  PYPG      H16X           -8.8813312106      -52.2501297837        2.2233951818  MEMB      347             0.0000000000
     43231       347  PYPG      H16Y           -7.1825466455      -52.7536700505        1.8692315304  MEMB      347             0.0000000000
     43232       347  PYPG      H16Z           -8.6027780047      -53.9042808014        1.7527462385  MEMB      347             0.0000000000
     43233       348  PMPE      N              37.2790576550       36.6318085917      -20.3323876564  MEMB      348             0.0000000000
     43234       348  PMPE      HN1            37.6770496620       36.0615058378      -21.1010090449  MEMB      348             0.0000000000
     43235       348  PMPE      HN2            37.9595186930       36.6435708310      -19.5462974851  MEMB      348             0.0000000000
     43236       348  PMPE      HN3            36.3487155474       36.3122161611      -19.9986970633  MEMB      348             0.0000000000
     43237       348  PMPE      C12            36.8805759889       38.0044847434      -20.7682367125  MEMB      348             0.0000000000
     43238       348  PMPE      H12A           36.2406941159       37.8312224581      -21.6618425577  MEMB      348             0.0000000000
     43239       348  PMPE      H12B           37.7964220983       38.5803907778      -21.0226044402  MEMB      348             0.0000000000
     43240       348  PMPE      C11            35.9917781691       38.6072294710      -19.6663111595  MEMB      348             0.0000000000
     43241       348  PMPE      H11A           35.1677198688       37.9003936780      -19.4602510382  MEMB      348             0.0000000000
     43242       348  PMPE      H11B           35.4204663883       39.5043807063      -19.9873219315  MEMB      348             0.0000000000
     43243       348  PMPE      P              37.2589563011       40.3377406263      -18.2604659120  MEMB      348             0.0000000000
     43244       348  PMPE      O13            37.6424294899       40.9128735807      -19.5726562547  MEMB      348             0.0000000000
     43245       348  PMPE      O14            38.2259167291       40.3601494187      -17.1428291077  MEMB      348             0.0000000000
     43246       348  PMPE      O11            35.9060143927       41.0147051041      -17.8701018910  MEMB      348             0.0000000000
     43247       348  PMPE      O12            36.7387870966       38.8300951901      -18.4732052993  MEMB      348             0.0000000000
     43248       348  PMPE      C1             35.8429745217       42.3655461674      -17.4085774083  MEMB      348             0.0000000000
     43249       348  PMPE      HA             35.1549109471       42.9802915958      -18.0422765685  MEMB      348             0.0000000000
     43250       348  PMPE      HB             36.7972930610       42.9356408899      -17.4968565081  MEMB      348             0.0000000000
     43251       348  PMPE      C2             35.2020208566       42.3251388435      -15.9929832879  MEMB      348             0.0000000000
     43252       348  PMPE      HS             34.9297695954       43.3681549855      -15.7257616865  MEMB      348             0.0000000000
     43253       348  PMPE      O21            36.0576623281       41.8260850226      -14.9473671481  MEMB      348             0.0000000000
     43254       348  PMPE      C21            37.1324676754       42.5734928347      -14.7547776155  MEMB      348             0.0000000000
     43255       348  PMPE      O22            37.2815125264       43.6990667324      -15.2047864332  MEMB      348             0.0000000000
     43256       348  PMPE      C22            38.1192804847       41.9039356018      -13.7645139912  MEMB      348             0.0000000000
     43257       348  PMPE      H2R            39.0932955709       42.2817702738      -14.0986793280  MEMB      348             0.0000000000
     43258       348  PMPE      H2S            38.1590028794       40.8121518074      -13.9512722994  MEMB      348             0.0000000000
     43259       348  PMPE      C3             33.8971900480       41.4504297563      -16.0589947216  MEMB      348             0.0000000000
     43260       348  PMPE      HX             33.4022344517       41.8034716571      -16.9950915956  MEMB      348             0.0000000000
     43261       348  PMPE      HY             33.2425523091       41.7121561556      -15.2090437195  MEMB      348             0.0000000000
     43262       348  PMPE      O31            34.0904020778       40.0108057062      -16.1292386018  MEMB      348             0.0000000000
     43263       348  PMPE      C31            33.9976277419       39.3770309337      -14.9671120513  MEMB      348             0.0000000000
     43264       348  PMPE      O32            33.6557719090       39.8930263112      -13.9117908729  MEMB      348             0.0000000000
     43265       348  PMPE      C32            34.2727207293       37.8805087252      -15.1934188792  MEMB      348             0.0000000000
     43266       348  PMPE      H2X            34.1864889451       37.5920135484      -16.2686962151  MEMB      348             0.0000000000
     43267       348  PMPE      H2Y            33.5304400731       37.3238006201      -14.6089279318  MEMB      348             0.0000000000
     43268       348  PMPE      C23            37.8123156571       42.2393110343      -12.2593541099  MEMB      348             0.0000000000
     43269       348  PMPE      H3R            38.5588446779       41.8137282531      -11.5529018134  MEMB      348             0.0000000000
     43270       348  PMPE      H3S            36.7950963951       41.9111339245      -11.9573212665  MEMB      348             0.0000000000
     43271       348  PMPE      C24            37.8638017010       43.7273297423      -11.9740445220  MEMB      348             0.0000000000
     43272       348  PMPE      H4R            37.2753033439       44.2138554505      -12.8034320155  MEMB      348             0.0000000000
     43273       348  PMPE      H4S            38.9237367388       44.0761565280      -11.9306236799  MEMB      348             0.0000000000
     43274       348  PMPE      C25            37.3535763645       44.2515085725      -10.6843673824  MEMB      348             0.0000000000
     43275       348  PMPE      H5R            37.7595545219       43.6079785707       -9.8820676789  MEMB      348             0.0000000000
     43276       348  PMPE      H5S            36.2748048669       44.1005377154      -10.8107002760  MEMB      348             0.0000000000
     43277       348  PMPE      C26            37.7367935691       45.7270678367      -10.4410524961  MEMB      348             0.0000000000
     43278       348  PMPE      H6R            37.6914750219       46.2694583896      -11.4133167145  MEMB      348             0.0000000000
     43279       348  PMPE      H6S            38.8110540171       45.6898013807      -10.1502595488  MEMB      348             0.0000000000
     43280       348  PMPE      C27            36.8651411712       46.4616797899       -9.3950403885  MEMB      348             0.0000000000
     43281       348  PMPE      H7R            35.9758530171       46.8719749694       -9.9170669940  MEMB      348             0.0000000000
     43282       348  PMPE      H7S            37.4013302057       47.3340464519       -8.9457159741  MEMB      348             0.0000000000
     43283       348  PMPE      C28            36.3035229910       45.5227312549       -8.3263034498  MEMB      348             0.0000000000
     43284       348  PMPE      H8R            37.1329484893       44.9232295675       -7.9513274834  MEMB      348             0.0000000000
     43285       348  PMPE      H8S            35.5675362102       44.8275494869       -8.8011600025  MEMB      348             0.0000000000
     43286       348  PMPE      C29            35.6077546574       46.3211389745       -7.2734082201  MEMB      348             0.0000000000
     43287       348  PMPE      H9R            34.7749216342       46.9378444150       -7.6611073824  MEMB      348             0.0000000000
     43288       348  PMPE      C217           36.2491183306       46.9089468081       -6.0316604149  MEMB      348             0.0000000000
     43289       348  PMPE      H17R           35.7210145592       47.7897518072       -5.7962904590  MEMB      348             0.0000000000
     43290       348  PMPE      H17S           37.2737037082       46.8116055624       -6.0553079740  MEMB      348             0.0000000000
     43291       348  PMPE      C210           35.4607091497       45.6596149577       -5.9161606361  MEMB      348             0.0000000000
     43292       348  PMPE      H10R           34.5018198262       45.7194285824       -5.5974724977  MEMB      348             0.0000000000
     43293       348  PMPE      C211           36.0355993142       44.3290550197       -5.5550821300  MEMB      348             0.0000000000
     43294       348  PMPE      H11R           37.1079947629       44.3971889344       -5.6808131736  MEMB      348             0.0000000000
     43295       348  PMPE      H11S           35.7009620668       43.6316273158       -6.3437430184  MEMB      348             0.0000000000
     43296       348  PMPE      C212           35.4622391598       43.8426029660       -4.1845209359  MEMB      348             0.0000000000
     43297       348  PMPE      H12R           34.4626013781       43.4659240161       -4.4783175259  MEMB      348             0.0000000000
     43298       348  PMPE      H12S           35.2208221506       44.7000836576       -3.5262070711  MEMB      348             0.0000000000
     43299       348  PMPE      C213           36.3061576786       42.7502006464       -3.4818598335  MEMB      348             0.0000000000
     43300       348  PMPE      H13R           37.1742954389       43.1757623758       -2.9659663588  MEMB      348             0.0000000000
     43301       348  PMPE      H13S           36.6532607263       42.0593752976       -4.2778372351  MEMB      348             0.0000000000
     43302       348  PMPE      C214           35.6657937047       41.8885048235       -2.4228030017  MEMB      348             0.0000000000
     43303       348  PMPE      H14R           36.3882962561       41.1267087331       -2.0551244501  MEMB      348             0.0000000000
     43304       348  PMPE      H14S           35.0051741747       41.3875113931       -3.0976963896  MEMB      348             0.0000000000
     43305       348  PMPE      C215           34.9332743268       42.6734928560       -1.3688742464  MEMB      348             0.0000000000
     43306       348  PMPE      H15R           34.2776953600       42.0131597705       -0.7867622056  MEMB      348             0.0000000000
     43307       348  PMPE      H15S           34.1071256641       43.2612510428       -1.8299823287  MEMB      348             0.0000000000
     43308       348  PMPE      C216           35.9612921413       43.5238578269       -0.5656397857  MEMB      348             0.0000000000
     43309       348  PMPE      H16R           36.5384429357       42.9906798247        0.2143172151  MEMB      348             0.0000000000
     43310       348  PMPE      H16S           36.7898258925       43.8686753416       -1.1188467733  MEMB      348             0.0000000000
     43311       348  PMPE      H16T           35.5144497696       44.2161488374        0.1304507645  MEMB      348             0.0000000000
     43312       348  PMPE      C33            35.6773564990       37.4310644735      -14.7624454830  MEMB      348             0.0000000000
     43313       348  PMPE      H3X            36.3727187964       37.9579778654      -15.4547294909  MEMB      348             0.0000000000
     43314       348  PMPE      H3Y            35.7991824353       36.3328765608      -14.8969909284  MEMB      348             0.0000000000
     43315       348  PMPE      C34            36.1746414383       37.8143121691      -13.3622966419  MEMB      348             0.0000000000
     43316       348  PMPE      H4X            36.2228656968       38.9201946562      -13.3156624232  MEMB      348             0.0000000000
     43317       348  PMPE      H4Y            37.1960993947       37.4181757760      -13.3240987651  MEMB      348             0.0000000000
     43318       348  PMPE      C35            35.4501725368       37.1770849163      -12.1771601771  MEMB      348             0.0000000000
     43319       348  PMPE      H5X            35.5628772178       36.0726735418      -12.3077335426  MEMB      348             0.0000000000
     43320       348  PMPE      H5Y            34.3905756650       37.4861762920      -12.3301398532  MEMB      348             0.0000000000
     43321       348  PMPE      C36            35.9181151304       37.6063188673      -10.7539143474  MEMB      348             0.0000000000
     43322       348  PMPE      H6X            36.7506703321       36.9832781551      -10.3516621455  MEMB      348             0.0000000000
     43323       348  PMPE      H6Y            35.0502228040       37.4311692966      -10.0767626035  MEMB      348             0.0000000000
     43324       348  PMPE      C37            36.2882416011       39.1020974918      -10.6154223552  MEMB      348             0.0000000000
     43325       348  PMPE      H7X            35.4205357887       39.6800560567      -11.0286628612  MEMB      348             0.0000000000
     43326       348  PMPE      H7Y            37.2347172039       39.3410742688      -11.1462826487  MEMB      348             0.0000000000
     43327       348  PMPE      C38            36.4680050773       39.5861325337       -9.1622408303  MEMB      348             0.0000000000
     43328       348  PMPE      H8X            35.7361140242       39.0085067580       -8.5681693465  MEMB      348             0.0000000000
     43329       348  PMPE      H8Y            36.2121929490       40.6735954816       -9.1107357116  MEMB      348             0.0000000000
     43330       348  PMPE      C39            37.8597590578       39.3641378598       -8.5273290143  MEMB      348             0.0000000000
     43331       348  PMPE      H9X            38.5377318330       40.1639797622       -8.8976336060  MEMB      348             0.0000000000
     43332       348  PMPE      H9Y            38.2689479070       38.3880281733       -8.8636565242  MEMB      348             0.0000000000
     43333       348  PMPE      C310           37.8687393887       39.3792343474       -6.9701207347  MEMB      348             0.0000000000
     43334       348  PMPE      H10X           37.2150234327       38.5572102341       -6.5850048074  MEMB      348             0.0000000000
     43335       348  PMPE      H10Y           37.4221621865       40.3472971952       -6.6553841978  MEMB      348             0.0000000000
     43336       348  PMPE      C311           39.2335453234       39.0368883762       -6.3129421492  MEMB      348             0.0000000000
     43337       348  PMPE      H11X           39.5843176969       38.1527144121       -6.8861808180  MEMB      348             0.0000000000
     43338       348  PMPE      H11Y           39.1521717408       38.7315413848       -5.2464259802  MEMB      348             0.0000000000
     43339       348  PMPE      C312           40.3894346119       40.0196991978       -6.4319598940  MEMB      348             0.0000000000
     43340       348  PMPE      H12X           40.4693841534       40.2518355946       -7.5082079639  MEMB      348             0.0000000000
     43341       348  PMPE      H12Y           41.3642528752       39.5219955480       -6.2107434262  MEMB      348             0.0000000000
     43342       348  PMPE      C313           40.2458970457       41.2490773205       -5.5184781878  MEMB      348             0.0000000000
     43343       348  PMPE      H13X           39.2720283244       41.7560916209       -5.6418846472  MEMB      348             0.0000000000
     43344       348  PMPE      H13Y           41.0172023699       41.9733947592       -5.7320004140  MEMB      348             0.0000000000
     43345       348  PMPE      C314           40.4919917929       40.9053901083       -4.0782594655  MEMB      348             0.0000000000
     43346       348  PMPE      H14X           41.3582605569       40.2285125239       -4.0513333634  MEMB      348             0.0000000000
     43347       348  PMPE      H14Y           39.5876505065       40.3448895673       -3.7977559837  MEMB      348             0.0000000000
     43348       348  PMPE      C315           40.5555062105       42.0393517587       -3.0710200480  MEMB      348             0.0000000000
     43349       348  PMPE      H15X           39.6802430965       42.6898381092       -3.1849225164  MEMB      348             0.0000000000
     43350       348  PMPE      H15Y           41.4903660305       42.6423463998       -3.0948892293  MEMB      348             0.0000000000
     43351       348  PMPE      C316           40.3960062640       41.5702666246       -1.6693472472  MEMB      348             0.0000000000
     43352       348  PMPE      H16X           41.3686727947       41.5401291036       -1.3702877039  MEMB      348             0.0000000000
     43353       348  PMPE      H16Y           39.8549426101       40.6270728135       -1.5202428207  MEMB      348             0.0000000000
     43354       348  PMPE      H16Z           40.1201983350       42.3342870823       -0.9524944384  MEMB      348             0.0000000000
     43355       349  POPE      N              55.3301857987       12.0172229451      -19.5574564161  MEMB      349             0.0000000000
     43356       349  POPE      HN1            56.1039606063       12.7374920211      -19.3195837943  MEMB      349             0.0000000000
     43357       349  POPE      HN2            55.5759815783       11.3537723442      -20.2367914266  MEMB      349             0.0000000000
     43358       349  POPE      HN3            54.6082457748       12.7635962308      -19.7632317724  MEMB      349             0.0000000000
     43359       349  POPE      C12            54.9451897331       11.2091419698      -18.3432863359  MEMB      349             0.0000000000
     43360       349  POPE      H12A           54.6701867377       11.8661638720      -17.7044304970  MEMB      349             0.0000000000
     43361       349  POPE      H12B           55.7547509107       10.9492005557      -17.6779847928  MEMB      349             0.0000000000
     43362       349  POPE      C11            53.7008959847       10.4899132451      -18.2876225129  MEMB      349             0.0000000000
     43363       349  POPE      H11A           52.8119735637       11.1291385565      -18.5149601401  MEMB      349             0.0000000000
     43364       349  POPE      H11B           53.5781692069       10.0443313297      -17.2584348637  MEMB      349             0.0000000000
     43365       349  POPE      P              53.3387007598        8.3071150186      -19.4059651882  MEMB      349             0.0000000000
     43366       349  POPE      O13            54.0538724042        7.5966682918      -20.4684766491  MEMB      349             0.0000000000
     43367       349  POPE      O14            51.9108700802        8.6176624101      -19.5369192218  MEMB      349             0.0000000000
     43368       349  POPE      O11            53.6043327631        7.5792559580      -18.0222942185  MEMB      349             0.0000000000
     43369       349  POPE      O12            54.1199299738        9.6230353861      -19.2440355591  MEMB      349             0.0000000000
     43370       349  POPE      C1             54.8520199624        6.9666916518      -17.7318925971  MEMB      349             0.0000000000
     43371       349  POPE      HA             55.7284766394        7.6662011568      -17.8219532520  MEMB      349             0.0000000000
     43372       349  POPE      HB             55.0247693860        6.1380956678      -18.4523693768  MEMB      349             0.0000000000
     43373       349  POPE      C2             54.8091119258        6.4761043453      -16.2638329206  MEMB      349             0.0000000000
     43374       349  POPE      HS             55.7389578891        5.8776575254      -16.1123197804  MEMB      349             0.0000000000
     43375       349  POPE      O21            53.6778672694        5.6581173323      -15.9785476852  MEMB      349             0.0000000000
     43376       349  POPE      C21            53.8333737677        4.8464184381      -14.9494643350  MEMB      349             0.0000000000
     43377       349  POPE      O22            54.8940823074        4.3941598547      -14.5554649084  MEMB      349             0.0000000000
     43378       349  POPE      C22            52.4582333604        4.3910889763      -14.5379281090  MEMB      349             0.0000000000
     43379       349  POPE      H2R            52.2207443578        3.5359057828      -15.1803445923  MEMB      349             0.0000000000
     43380       349  POPE      H2S            51.7281727110        5.1972007845      -14.7866772256  MEMB      349             0.0000000000
     43381       349  POPE      C3             54.8247178918        7.6756303816      -15.2475900409  MEMB      349             0.0000000000
     43382       349  POPE      HX             55.6457325838        8.3216291566      -15.6401791586  MEMB      349             0.0000000000
     43383       349  POPE      HY             55.1496263954        7.2715277215      -14.2369012081  MEMB      349             0.0000000000
     43384       349  POPE      O31            53.6754207365        8.4925582810      -15.2749741237  MEMB      349             0.0000000000
     43385       349  POPE      C31            52.8003941190        8.4069489958      -14.3218118577  MEMB      349             0.0000000000
     43386       349  POPE      O32            52.9059733271        7.8207682689      -13.2594309633  MEMB      349             0.0000000000
     43387       349  POPE      C32            51.5786718530        9.1961831077      -14.7474478547  MEMB      349             0.0000000000
     43388       349  POPE      H2X            50.7178078757        8.6050376816      -14.3683528969  MEMB      349             0.0000000000
     43389       349  POPE      H2Y            51.4555915385        9.1675084326      -15.8520695296  MEMB      349             0.0000000000
     43390       349  POPE      C23            52.4413983582        4.0862564145      -13.0248705863  MEMB      349             0.0000000000
     43391       349  POPE      H3R            52.9194090087        4.8892090060      -12.3994102704  MEMB      349             0.0000000000
     43392       349  POPE      H3S            52.8965090798        3.0917637484      -12.8082214866  MEMB      349             0.0000000000
     43393       349  POPE      C24            51.0051219853        4.0407234141      -12.5452721551  MEMB      349             0.0000000000
     43394       349  POPE      H4R            50.5356679698        3.2804589021      -13.2180475621  MEMB      349             0.0000000000
     43395       349  POPE      H4S            50.5873711470        5.0399268654      -12.6991326758  MEMB      349             0.0000000000
     43396       349  POPE      C25            50.8155902035        3.5764362886      -11.1141162140  MEMB      349             0.0000000000
     43397       349  POPE      H5R            51.4471112195        2.6933244416      -11.3707653507  MEMB      349             0.0000000000
     43398       349  POPE      H5S            49.7487711132        3.2891689293      -10.8873662953  MEMB      349             0.0000000000
     43399       349  POPE      C26            51.5169763470        4.1409395064       -9.8541781608  MEMB      349             0.0000000000
     43400       349  POPE      H6R            52.6064992506        4.1412258292       -9.9506117665  MEMB      349             0.0000000000
     43401       349  POPE      H6S            51.3458763689        3.5425307615       -8.9517028653  MEMB      349             0.0000000000
     43402       349  POPE      C27            51.0860686087        5.5493184772       -9.5449420378  MEMB      349             0.0000000000
     43403       349  POPE      H7R            50.0799001636        5.4609227274       -9.2443361509  MEMB      349             0.0000000000
     43404       349  POPE      H7S            51.0226874401        6.0738884695      -10.4783252376  MEMB      349             0.0000000000
     43405       349  POPE      C28            51.9086676816        6.3988660251       -8.5574873618  MEMB      349             0.0000000000
     43406       349  POPE      H8R            51.9733166699        5.7223145693       -7.6764458500  MEMB      349             0.0000000000
     43407       349  POPE      H8S            51.3700130516        7.3550286399       -8.2316023338  MEMB      349             0.0000000000
     43408       349  POPE      C29            53.2600944186        6.7203304004       -8.9478717916  MEMB      349             0.0000000000
     43409       349  POPE      H91            53.3772841501        7.0897287603       -9.9648420192  MEMB      349             0.0000000000
     43410       349  POPE      C210           54.3444584585        6.4388484873       -8.2355586954  MEMB      349             0.0000000000
     43411       349  POPE      H101           55.2856032324        6.7748178757       -8.6773308171  MEMB      349             0.0000000000
     43412       349  POPE      C211           54.4222637338        5.7411352025       -6.8975360081  MEMB      349             0.0000000000
     43413       349  POPE      H11R           55.4041594762        5.2285134872       -6.8393388445  MEMB      349             0.0000000000
     43414       349  POPE      H11S           53.6545758376        4.9309752103       -6.8607503243  MEMB      349             0.0000000000
     43415       349  POPE      C212           54.1259035636        6.5421450691       -5.5987796201  MEMB      349             0.0000000000
     43416       349  POPE      H12R           54.1452599720        5.8159639771       -4.7621213678  MEMB      349             0.0000000000
     43417       349  POPE      H12S           53.0818264516        6.9093501419       -5.6450230319  MEMB      349             0.0000000000
     43418       349  POPE      C213           55.0553480829        7.7065346691       -5.2146160466  MEMB      349             0.0000000000
     43419       349  POPE      H13R           55.0934015195        8.3993990861       -6.0820391110  MEMB      349             0.0000000000
     43420       349  POPE      H13S           56.0741997052        7.2947963585       -4.9874673623  MEMB      349             0.0000000000
     43421       349  POPE      C214           54.5447211211        8.5100273078       -3.9874385736  MEMB      349             0.0000000000
     43422       349  POPE      H14R           55.3306873127        9.2047462373       -3.6137275343  MEMB      349             0.0000000000
     43423       349  POPE      H14S           54.2964897835        7.8019450800       -3.1711189238  MEMB      349             0.0000000000
     43424       349  POPE      C215           53.3153196041        9.3998037701       -4.2085518459  MEMB      349             0.0000000000
     43425       349  POPE      H15R           52.4785336387        8.7873432281       -4.5722039942  MEMB      349             0.0000000000
     43426       349  POPE      H15S           53.5717500223       10.1380239542       -4.9970469624  MEMB      349             0.0000000000
     43427       349  POPE      C216           52.8985429102       10.0811951819       -2.9201855140  MEMB      349             0.0000000000
     43428       349  POPE      H16R           53.7947447743       10.5351320417       -2.4271774079  MEMB      349             0.0000000000
     43429       349  POPE      H16S           52.5223697516        9.3302215911       -2.1820962954  MEMB      349             0.0000000000
     43430       349  POPE      C217           51.8071094476       11.0773400261       -3.1447835398  MEMB      349             0.0000000000
     43431       349  POPE      H17R           50.7998534064       10.6630896633       -3.3602408004  MEMB      349             0.0000000000
     43432       349  POPE      H17S           51.9891630247       11.8874190418       -3.8761702027  MEMB      349             0.0000000000
     43433       349  POPE      C218           51.6773718216       11.6059968251       -1.8484754252  MEMB      349             0.0000000000
     43434       349  POPE      H18R           52.5114391585       12.1870186652       -1.3595527232  MEMB      349             0.0000000000
     43435       349  POPE      H18S           51.6612288694       10.9712241259       -1.1711181674  MEMB      349             0.0000000000
     43436       349  POPE      H18T           50.6363246476       12.0934996645       -1.7884570794  MEMB      349             0.0000000000
     43437       349  POPE      C33            51.6676475247       10.6007976666      -14.0781824349  MEMB      349             0.0000000000
     43438       349  POPE      H3X            51.2321776570       11.3945342695      -14.7339935404  MEMB      349             0.0000000000
     43439       349  POPE      H3Y            52.7129527123       10.9220972307      -13.8645419884  MEMB      349             0.0000000000
     43440       349  POPE      C34            50.9299278448       10.5811630052      -12.7273672536  MEMB      349             0.0000000000
     43441       349  POPE      H4X            50.4285194197        9.5924746289      -12.6825759441  MEMB      349             0.0000000000
     43442       349  POPE      H4Y            50.2002753332       11.4238672717      -12.6716451433  MEMB      349             0.0000000000
     43443       349  POPE      C35            51.7705644020       10.6017083427      -11.4285676545  MEMB      349             0.0000000000
     43444       349  POPE      H5X            52.1901924915       11.6281982691      -11.3155463988  MEMB      349             0.0000000000
     43445       349  POPE      H5Y            52.5939565147        9.8546165696      -11.4939584552  MEMB      349             0.0000000000
     43446       349  POPE      C36            50.9295274465       10.2884504905      -10.1511993091  MEMB      349             0.0000000000
     43447       349  POPE      H6X            50.5732840860        9.2473275340      -10.1208946460  MEMB      349             0.0000000000
     43448       349  POPE      H6Y            50.0936208583       11.0180373296      -10.1637750934  MEMB      349             0.0000000000
     43449       349  POPE      C37            51.6633699091       10.4244064958       -8.8158836212  MEMB      349             0.0000000000
     43450       349  POPE      H7X            52.3276618003       11.1778654073       -9.1670927075  MEMB      349             0.0000000000
     43451       349  POPE      H7Y            52.3344874188        9.6005539007       -8.5795593561  MEMB      349             0.0000000000
     43452       349  POPE      C38            50.9026808332       10.8710769433       -7.5510901073  MEMB      349             0.0000000000
     43453       349  POPE      H8X            50.3329210066       11.7955226463       -7.6694825343  MEMB      349             0.0000000000
     43454       349  POPE      H8Y            51.4985745042       10.9724698985       -6.6413676056  MEMB      349             0.0000000000
     43455       349  POPE      C39            49.7820676699       10.1087810578       -7.3610400910  MEMB      349             0.0000000000
     43456       349  POPE      H9X            50.2073612021        9.0892039053       -7.5597649075  MEMB      349             0.0000000000
     43457       349  POPE      H9Y            49.0517229761       10.3824887863       -8.1874614042  MEMB      349             0.0000000000
     43458       349  POPE      C310           49.0230842325       10.1474174820       -6.0345514495  MEMB      349             0.0000000000
     43459       349  POPE      H10X           48.5203234415       11.0046980663       -5.8798080421  MEMB      349             0.0000000000
     43460       349  POPE      H10Y           49.8022128188       10.1334225004       -5.2564865772  MEMB      349             0.0000000000
     43461       349  POPE      C311           47.8399248496        9.1819381711       -5.7511899706  MEMB      349             0.0000000000
     43462       349  POPE      H11X           46.9240051628        9.2803965051       -6.3191838080  MEMB      349             0.0000000000
     43463       349  POPE      H11Y           47.5530291359        9.4023213309       -4.7957148721  MEMB      349             0.0000000000
     43464       349  POPE      C312           48.0564707394        7.6294025120       -5.8905833016  MEMB      349             0.0000000000
     43465       349  POPE      H12X           48.6664490027        7.9911439148       -6.4220808127  MEMB      349             0.0000000000
     43466       349  POPE      H12Y           47.2713633565        7.0298243650       -5.9300006023  MEMB      349             0.0000000000
     43467       349  POPE      C313           49.4101750689        6.0437450597       -4.8850098734  MEMB      349             0.0000000000
     43468       349  POPE      H13X           49.7533157345        6.5279194671       -3.8802500354  MEMB      349             0.0000000000
     43469       349  POPE      H13Y           50.8097456328        6.1766185442       -5.4808235793  MEMB      349             0.0000000000
     43470       349  POPE      C314           49.3059254505        4.9186655758       -4.5807964589  MEMB      349             0.0000000000
     43471       349  POPE      H14X           49.3180298417        4.2596685863       -5.3954121634  MEMB      349             0.0000000000
     43472       349  POPE      H14Y           48.3544747807        4.9011095685       -4.1522576475  MEMB      349             0.0000000000
     43473       349  POPE      C315           50.6378444390        4.7590015386       -4.0295136666  MEMB      349             0.0000000000
     43474       349  POPE      H15X           50.5119247643        5.2878950009       -3.0755812569  MEMB      349             0.0000000000
     43475       349  POPE      H15Y           51.5273114032        5.1635960294       -4.5273556130  MEMB      349             0.0000000000
     43476       349  POPE      C316           50.8374222241        3.3229519755       -4.0706200114  MEMB      349             0.0000000000
     43477       349  POPE      H16X           50.8102613256        2.8251498451       -4.9723554929  MEMB      349             0.0000000000
     43478       349  POPE      H16Y           49.8981861463        2.8222014110       -3.7717196534  MEMB      349             0.0000000000
     43479       349  POPE      H16Z           51.6367889924        3.0675146105       -3.3426453229  MEMB      349             0.0000000000
     43480       350  QMPE      N             -56.8155839089        2.9378284793      -17.2886597697  MEMB      350             0.0000000000
     43481       350  QMPE      HN1           -57.6464375865        3.5487467797      -17.1981395957  MEMB      350             0.0000000000
     43482       350  QMPE      HN2           -56.6636434195        2.4331494329      -16.3923627374  MEMB      350             0.0000000000
     43483       350  QMPE      HN3           -55.9816524418        3.5184950918      -17.5589003381  MEMB      350             0.0000000000
     43484       350  QMPE      C12           -57.0040908525        1.8928842948      -18.3523942940  MEMB      350             0.0000000000
     43485       350  QMPE      H12A          -57.3009042959        2.3857472112      -19.2913727861  MEMB      350             0.0000000000
     43486       350  QMPE      H12B          -57.8178735719        1.2117698553      -18.0546713729  MEMB      350             0.0000000000
     43487       350  QMPE      C11           -55.6924575970        1.1807901730      -18.6301639350  MEMB      350             0.0000000000
     43488       350  QMPE      H11A          -55.8720268132        0.2605969573      -19.2183299534  MEMB      350             0.0000000000
     43489       350  QMPE      H11B          -55.3031963534        0.8308621770      -17.6468390814  MEMB      350             0.0000000000
     43490       350  QMPE      P             -53.3665343803        1.7400197859      -19.7072744113  MEMB      350             0.0000000000
     43491       350  QMPE      O13           -52.5221576499        2.9324820316      -19.7919619229  MEMB      350             0.0000000000
     43492       350  QMPE      O14           -53.2627281346        0.6922895375      -20.7486046922  MEMB      350             0.0000000000
     43493       350  QMPE      O11           -53.0668882760        1.0372503728      -18.3746982855  MEMB      350             0.0000000000
     43494       350  QMPE      O12           -54.8468353180        2.0924514867      -19.3533142412  MEMB      350             0.0000000000
     43495       350  QMPE      C1            -53.2568456554        1.5345831440      -17.0395308379  MEMB      350             0.0000000000
     43496       350  QMPE      HA            -53.9887410281        2.2490015076      -16.8017644722  MEMB      350             0.0000000000
     43497       350  QMPE      HB            -52.4848921400        2.3221515506      -17.1323365120  MEMB      350             0.0000000000
     43498       350  QMPE      C2            -53.1135070836        0.3747208055      -15.8597278240  MEMB      350             0.0000000000
     43499       350  QMPE      HS            -52.3158055550       -0.2701938341      -15.8566394868  MEMB      350             0.0000000000
     43500       350  QMPE      O21           -53.9545271422       -0.5280994583      -16.1039593023  MEMB      350             0.0000000000
     43501       350  QMPE      C21           -53.5682156787       -1.7662311171      -15.6100778128  MEMB      350             0.0000000000
     43502       350  QMPE      O22           -52.5306010849       -2.1545526615      -15.1258440485  MEMB      350             0.0000000000
     43503       350  QMPE      C22           -54.6378047914       -2.3609649340      -15.6932032193  MEMB      350             0.0000000000
     43504       350  QMPE      H2R           -54.3150830558       -3.1149354190      -15.0406292451  MEMB      350             0.0000000000
     43505       350  QMPE      H2S           -55.1107526648       -2.4890398128      -16.7451840680  MEMB      350             0.0000000000
     43506       350  QMPE      C3            -53.0429130422        1.0497481653      -14.4386042887  MEMB      350             0.0000000000
     43507       350  QMPE      HX            -53.4612990350        2.0220340469      -14.4131998629  MEMB      350             0.0000000000
     43508       350  QMPE      HY            -52.0686806265        1.6302640472      -14.4705987374  MEMB      350             0.0000000000
     43509       350  QMPE      O31           -53.1123262450        0.1753674031      -13.2889563534  MEMB      350             0.0000000000
     43510       350  QMPE      C31           -52.5073691370        0.4504335547      -12.1509205225  MEMB      350             0.0000000000
     43511       350  QMPE      O32           -51.9183687929        1.4606185454      -11.8483381493  MEMB      350             0.0000000000
     43512       350  QMPE      C32           -52.7064881793       -0.7396224192      -11.2812879544  MEMB      350             0.0000000000
     43513       350  QMPE      H2X           -53.7112439960       -0.7103803641      -10.9165201774  MEMB      350             0.0000000000
     43514       350  QMPE      H2Y           -52.5748520920       -1.5752615539      -11.8938657345  MEMB      350             0.0000000000
     43515       350  QMPE      C23           -55.1528633817       -1.5493518597      -14.6801306564  MEMB      350             0.0000000000
     43516       350  QMPE      H3R           -55.9812668316       -1.9740091587      -15.3891770556  MEMB      350             0.0000000000
     43517       350  QMPE      H3S           -55.4888124840       -0.5306292915      -15.0180495136  MEMB      350             0.0000000000
     43518       350  QMPE      C24           -55.3067054677       -1.6131127902      -12.8857242616  MEMB      350             0.0000000000
     43519       350  QMPE      H4R           -54.4330074121       -1.7126746504      -12.4733643869  MEMB      350             0.0000000000
     43520       350  QMPE      H4S           -55.6148580027       -2.5829336229      -12.9622359802  MEMB      350             0.0000000000
     43521       350  QMPE      C25           -56.4647428676       -1.0314638013      -11.6330844537  MEMB      350             0.0000000000
     43522       350  QMPE      H5R           -56.4053342507       -1.3986518469      -10.6879867597  MEMB      350             0.0000000000
     43523       350  QMPE      H5S           -57.5351994958       -1.9148902556      -11.1867858912  MEMB      350             0.0000000000
     43524       350  QMPE      C26           -56.8953471143        0.6432599939      -12.1057944123  MEMB      350             0.0000000000
     43525       350  QMPE      H6R           -57.3745953682        0.8877948735      -13.1638036418  MEMB      350             0.0000000000
     43526       350  QMPE      H6S           -55.8743158523        0.9004574440      -12.2405061155  MEMB      350             0.0000000000
     43527       350  QMPE      C27           -58.1106417965        1.4496924031      -11.4933502152  MEMB      350             0.0000000000
     43528       350  QMPE      H7R           -59.2229691514        1.1763859790      -11.7352333682  MEMB      350             0.0000000000
     43529       350  QMPE      H7S           -58.1398787201        2.3700301527      -11.9371661651  MEMB      350             0.0000000000
     43530       350  QMPE      C28           -57.9520430414        1.0850744989      -10.1266566555  MEMB      350             0.0000000000
     43531       350  QMPE      H8R           -57.6839566368        0.0386951005      -10.2875690922  MEMB      350             0.0000000000
     43532       350  QMPE      H8S           -58.8815020437        1.2148632479       -9.5552227371  MEMB      350             0.0000000000
     43533       350  QMPE      C29           -56.6820405526        1.1600889306       -9.4543764646  MEMB      350             0.0000000000
     43534       350  QMPE      H9R           -55.9924456459        1.7379529909       -9.9960714661  MEMB      350             0.0000000000
     43535       350  QMPE      C217          -56.0588435248       -0.0193603265       -8.6785767781  MEMB      350             0.0000000000
     43536       350  QMPE      H17R          -56.6460418553       -0.9211996951       -8.5653500470  MEMB      350             0.0000000000
     43537       350  QMPE      H17S          -54.9969796487        0.0009690729       -8.5934317702  MEMB      350             0.0000000000
     43538       350  QMPE      C210          -56.5805902029        1.2720141156       -8.0240150005  MEMB      350             0.0000000000
     43539       350  QMPE      H10R          -55.9854289684        2.0334184948       -7.6396568586  MEMB      350             0.0000000000
     43540       350  QMPE      C211          -57.5630807089        1.0283150580       -7.1275790442  MEMB      350             0.0000000000
     43541       350  QMPE      H11R          -58.3531907572        0.6403771710       -7.7841551857  MEMB      350             0.0000000000
     43542       350  QMPE      H11S          -56.9285708445        0.2943741167       -6.5442630333  MEMB      350             0.0000000000
     43543       350  QMPE      C212          -58.4298493500        1.9070533451       -6.1214014726  MEMB      350             0.0000000000
     43544       350  QMPE      H12R          -58.8014343669        2.6842936979       -6.7869878119  MEMB      350             0.0000000000
     43545       350  QMPE      H12S          -57.7068081335        2.1752413004       -5.3470370173  MEMB      350             0.0000000000
     43546       350  QMPE      C213          -59.8106415518        1.4749040873       -5.3288857783  MEMB      350             0.0000000000
     43547       350  QMPE      H13R          -60.5768945054        1.0575967550       -6.0079124125  MEMB      350             0.0000000000
     43548       350  QMPE      H13S          -60.0696006680        2.3106190497       -4.7373850864  MEMB      350             0.0000000000
     43549       350  QMPE      C214          -59.9687704524        0.4029651870       -4.2400540497  MEMB      350             0.0000000000
     43550       350  QMPE      H14R          -59.9501353868       -0.5656820171       -4.6625279702  MEMB      350             0.0000000000
     43551       350  QMPE      H14S          -60.7066222899        0.0554928301       -3.5840834852  MEMB      350             0.0000000000
     43552       350  QMPE      C215          -58.9375088639        0.3187419664       -3.2772489991  MEMB      350             0.0000000000
     43553       350  QMPE      H15R          -58.9969909999        1.2839224964       -2.6662573878  MEMB      350             0.0000000000
     43554       350  QMPE      H15S          -57.9358476731        0.8555942999       -3.6138053366  MEMB      350             0.0000000000
     43555       350  QMPE      C216          -58.8411621132       -1.4826549309       -2.4547742403  MEMB      350             0.0000000000
     43556       350  QMPE      H16R          -58.2982027646       -2.2809114765       -2.5773711712  MEMB      350             0.0000000000
     43557       350  QMPE      H16S          -59.4502618215       -1.2302757730       -1.5979251123  MEMB      350             0.0000000000
     43558       350  QMPE      H16T          -57.4994127787       -2.0202927315       -1.7490468221  MEMB      350             0.0000000000
     43559       350  QMPE      C33           -51.9447461777       -0.7397025876      -10.0880239160  MEMB      350             0.0000000000
     43560       350  QMPE      H3X           -52.1246755958        0.2086878863       -9.8802630401  MEMB      350             0.0000000000
     43561       350  QMPE      H3Y           -50.9357067252       -0.7340349241      -10.3157025530  MEMB      350             0.0000000000
     43562       350  QMPE      C34           -52.2602830578       -1.4699684940       -8.9141086113  MEMB      350             0.0000000000
     43563       350  QMPE      H4X           -51.9449487397       -2.3791055637       -9.4952637629  MEMB      350             0.0000000000
     43564       350  QMPE      H4Y           -53.2748584812       -1.6989781228       -8.6688302160  MEMB      350             0.0000000000
     43565       350  QMPE      C35           -51.4567096540       -1.0557851943       -7.5469233540  MEMB      350             0.0000000000
     43566       350  QMPE      H5X           -50.3603741794       -1.1743428768       -7.6243165347  MEMB      350             0.0000000000
     43567       350  QMPE      H5Y           -51.4581390144       -1.6190938377       -6.7583997693  MEMB      350             0.0000000000
     43568       350  QMPE      C36           -52.0775879783       -0.2619354968       -6.5404011217  MEMB      350             0.0000000000
     43569       350  QMPE      H6X           -53.1606514386        0.0017160142       -6.7439094823  MEMB      350             0.0000000000
     43570       350  QMPE      H6Y           -51.1822233320        0.2388907526       -6.7263913800  MEMB      350             0.0000000000
     43571       350  QMPE      C37           -52.1106826708       -0.0798167463       -5.3640059559  MEMB      350             0.0000000000
     43572       350  QMPE      H7X           -53.0385837982       -0.4905952029       -5.0345921909  MEMB      350             0.0000000000
     43573       350  QMPE      H7Y           -50.9729922162       -0.4652206735       -5.2754151737  MEMB      350             0.0000000000
     43574       350  QMPE      C38           -52.4378803718        1.0095709456       -4.6108191637  MEMB      350             0.0000000000
     43575       350  QMPE      H8X           -52.0792540329        1.1560295941       -3.6852501053  MEMB      350             0.0000000000
     43576       350  QMPE      H8Y           -51.2101690038        1.2345715103       -4.1363438644  MEMB      350             0.0000000000
     43577       350  QMPE      C39           -53.8390490648        1.8980824352       -4.8530424156  MEMB      350             0.0000000000
     43578       350  QMPE      H9X           -54.4064244661        1.1411406588       -4.4399591172  MEMB      350             0.0000000000
     43579       350  QMPE      H9Y           -54.3806403484        1.8588411004       -5.8108878417  MEMB      350             0.0000000000
     43580       350  QMPE      C310          -54.1630412608        3.3392608174       -4.2461886280  MEMB      350             0.0000000000
     43581       350  QMPE      H10X          -54.9958444730        3.8520741607       -4.5667434053  MEMB      350             0.0000000000
     43582       350  QMPE      H10Y          -53.5935593787        4.0368645189       -4.9206479225  MEMB      350             0.0000000000
     43583       350  QMPE      C311          -53.8884978270        3.3874080866       -2.6224923354  MEMB      350             0.0000000000
     43584       350  QMPE      H11X          -53.8800371068        4.3870266827       -2.1789423728  MEMB      350             0.0000000000
     43585       350  QMPE      H11Y          -52.8402282393        3.1443275872       -2.1315318017  MEMB      350             0.0000000000
     43586       350  QMPE      C312          -54.5781696628        2.5182911788       -1.8923502697  MEMB      350             0.0000000000
     43587       350  QMPE      H12X          -54.4442198181        1.4656730766       -2.1145967420  MEMB      350             0.0000000000
     43588       350  QMPE      H12Y          -55.5079672377        2.8848818854       -2.3150267194  MEMB      350             0.0000000000
     43589       350  QMPE      C313          -54.3106322409        2.9714195434       -0.5246668806  MEMB      350             0.0000000000
     43590       350  QMPE      H13X          -54.0687229908        4.0606643719       -0.4693515080  MEMB      350             0.0000000000
     43591       350  QMPE      H13Y          -55.3352298270        2.8912503031       -0.0768795969  MEMB      350             0.0000000000
     43592       350  QMPE      C314          -53.1813327014        2.1959530438        0.2079495576  MEMB      350             0.0000000000
     43593       350  QMPE      H14X          -53.4596117459        1.1469512387        0.2462131282  MEMB      350             0.0000000000
     43594       350  QMPE      H14Y          -53.0451319073        2.3164293845        1.2969096790  MEMB      350             0.0000000000
     43595       350  QMPE      C315          -51.7608544588        2.5712715547        0.0506112243  MEMB      350             0.0000000000
     43596       350  QMPE      H15X          -51.1866594056        1.8679702384        0.6934471660  MEMB      350             0.0000000000
     43597       350  QMPE      H15Y          -51.5179927598        2.3447691065       -0.9738829052  MEMB      350             0.0000000000
     43598       350  QMPE      H15Z          -51.5742985735        3.6445951897        0.2850317788  MEMB      350             0.0000000000
     43599       351  POPE      N             -20.5208703390       48.0577516521      -19.5124921302  MEMB      351             0.0000000000
     43600       351  POPE      HN1           -19.6087071442       48.5517780591      -19.4550707435  MEMB      351             0.0000000000
     43601       351  POPE      HN2           -20.4095143931       47.0860233660      -19.1249718840  MEMB      351             0.0000000000
     43602       351  POPE      HN3           -20.8227099081       47.9492236073      -20.4985959697  MEMB      351             0.0000000000
     43603       351  POPE      C12           -21.5670899746       48.8632571382      -18.7831779825  MEMB      351             0.0000000000
     43604       351  POPE      H12A          -21.3329127657       48.8166881913      -17.7028437468  MEMB      351             0.0000000000
     43605       351  POPE      H12B          -22.5385177363       48.3541608630      -18.9528843126  MEMB      351             0.0000000000
     43606       351  POPE      C11           -21.4950223705       50.3748572278      -19.1116806576  MEMB      351             0.0000000000
     43607       351  POPE      H11A          -22.4303346107       50.8550854610      -18.7226939639  MEMB      351             0.0000000000
     43608       351  POPE      H11B          -21.3941653658       50.5575052714      -20.2059024583  MEMB      351             0.0000000000
     43609       351  POPE      P             -19.2036487055       51.8329538690      -18.9889721651  MEMB      351             0.0000000000
     43610       351  POPE      O13           -19.8126496562       52.9758144419      -19.6670666011  MEMB      351             0.0000000000
     43611       351  POPE      O14           -18.3444483290       50.9351596571      -19.7840282427  MEMB      351             0.0000000000
     43612       351  POPE      O11           -18.3782066118       52.2535219842      -17.7305194040  MEMB      351             0.0000000000
     43613       351  POPE      O12           -20.4013333914       50.9327453203      -18.3979899792  MEMB      351             0.0000000000
     43614       351  POPE      C1            -18.6678972898       51.7637019007      -16.4298966605  MEMB      351             0.0000000000
     43615       351  POPE      HA            -17.7180382788       51.3490158339      -16.0137182021  MEMB      351             0.0000000000
     43616       351  POPE      HB            -19.4147964568       50.9389866006      -16.3827026701  MEMB      351             0.0000000000
     43617       351  POPE      C2            -19.2704808832       52.9020930379      -15.5556959435  MEMB      351             0.0000000000
     43618       351  POPE      HS            -19.0582232385       52.6176280817      -14.5064423907  MEMB      351             0.0000000000
     43619       351  POPE      O21           -20.6863047432       53.0666672657      -15.7357360452  MEMB      351             0.0000000000
     43620       351  POPE      C21           -21.4824875351       52.2287553856      -15.1353633987  MEMB      351             0.0000000000
     43621       351  POPE      O22           -21.1555243986       51.2664709220      -14.4597482692  MEMB      351             0.0000000000
     43622       351  POPE      C22           -22.9025391316       52.6150155913      -15.4619219521  MEMB      351             0.0000000000
     43623       351  POPE      H2R           -23.5783727241       51.9393096857      -14.9172902621  MEMB      351             0.0000000000
     43624       351  POPE      H2S           -23.0773402763       52.3963985243      -16.5371556922  MEMB      351             0.0000000000
     43625       351  POPE      C3            -18.6086448814       54.2933138776      -15.7989199885  MEMB      351             0.0000000000
     43626       351  POPE      HX            -18.6148206317       54.5502857872      -16.8906225132  MEMB      351             0.0000000000
     43627       351  POPE      HY            -17.5704096375       54.1788047221      -15.4310422736  MEMB      351             0.0000000000
     43628       351  POPE      O31           -19.2570193335       55.3843893981      -15.1094399935  MEMB      351             0.0000000000
     43629       351  POPE      C31           -19.3694027105       55.3392047031      -13.8062563753  MEMB      351             0.0000000000
     43630       351  POPE      O32           -18.9216055658       54.5078121013      -13.0435140123  MEMB      351             0.0000000000
     43631       351  POPE      C32           -20.3201020256       56.4358766697      -13.3636066742  MEMB      351             0.0000000000
     43632       351  POPE      H2X           -21.3148010828       56.1465538415      -13.6919514188  MEMB      351             0.0000000000
     43633       351  POPE      H2Y           -20.0439197596       57.3606399491      -13.9077521908  MEMB      351             0.0000000000
     43634       351  POPE      C23           -23.1850594742       54.0523709699      -15.0371701868  MEMB      351             0.0000000000
     43635       351  POPE      H3R           -22.5753013010       54.7553499771      -15.6749649976  MEMB      351             0.0000000000
     43636       351  POPE      H3S           -22.9637001968       54.3307489855      -13.9791973521  MEMB      351             0.0000000000
     43637       351  POPE      C24           -24.6615443885       54.2923329491      -15.1927759386  MEMB      351             0.0000000000
     43638       351  POPE      H4R           -25.1663913891       54.2026898933      -16.1366982818  MEMB      351             0.0000000000
     43639       351  POPE      H4S           -24.5027379783       55.2975392304      -15.4159017991  MEMB      351             0.0000000000
     43640       351  POPE      C25           -25.6806452623       53.8223005073      -14.1502594377  MEMB      351             0.0000000000
     43641       351  POPE      H5R           -26.0573125958       52.8807555608      -14.6069373358  MEMB      351             0.0000000000
     43642       351  POPE      H5S           -26.5227310114       54.5579075042      -14.1232194450  MEMB      351             0.0000000000
     43643       351  POPE      C26           -25.1055459305       53.4752593034      -12.7804036885  MEMB      351             0.0000000000
     43644       351  POPE      H6R           -24.7341667756       54.4043829448      -12.2883104116  MEMB      351             0.0000000000
     43645       351  POPE      H6S           -24.2849458204       52.7423824260      -12.9733438417  MEMB      351             0.0000000000
     43646       351  POPE      C27           -26.0719465676       52.6914825945      -11.8857783122  MEMB      351             0.0000000000
     43647       351  POPE      H7R           -26.3512104896       51.7814256119      -12.4531529575  MEMB      351             0.0000000000
     43648       351  POPE      H7S           -27.0091419936       53.2478525086      -11.7131157193  MEMB      351             0.0000000000
     43649       351  POPE      C28           -25.5112250417       52.2423318379      -10.5228826878  MEMB      351             0.0000000000
     43650       351  POPE      H8R           -24.6474962083       51.5604018413      -10.6942204850  MEMB      351             0.0000000000
     43651       351  POPE      H8S           -26.2353243704       51.5590398043      -10.0324964676  MEMB      351             0.0000000000
     43652       351  POPE      C29           -25.2578090306       53.4775283716       -9.6745027402  MEMB      351             0.0000000000
     43653       351  POPE      H91           -26.1362957076       53.9662330259       -9.2197286400  MEMB      351             0.0000000000
     43654       351  POPE      C210          -24.0883570234       53.9989924572       -9.3037793239  MEMB      351             0.0000000000
     43655       351  POPE      H101          -24.1434874633       54.8675488310       -8.6797128285  MEMB      351             0.0000000000
     43656       351  POPE      C211          -22.7030067475       53.5272588524       -9.6037559704  MEMB      351             0.0000000000
     43657       351  POPE      H11R          -21.9839834142       54.3694161822       -9.7123694172  MEMB      351             0.0000000000
     43658       351  POPE      H11S          -22.7087355395       52.9909870738      -10.5790503563  MEMB      351             0.0000000000
     43659       351  POPE      C212          -22.2794041760       52.5418342064       -8.4913474117  MEMB      351             0.0000000000
     43660       351  POPE      H12R          -21.6478542579       51.8083792767       -9.0438252714  MEMB      351             0.0000000000
     43661       351  POPE      H12S          -23.1482674504       51.9233589490       -8.1727460119  MEMB      351             0.0000000000
     43662       351  POPE      C213          -21.5448610602       53.1512572882       -7.2578767615  MEMB      351             0.0000000000
     43663       351  POPE      H13R          -22.0671547758       53.9994407369       -6.7549758164  MEMB      351             0.0000000000
     43664       351  POPE      H13S          -20.5641316336       53.5082164780       -7.6166788250  MEMB      351             0.0000000000
     43665       351  POPE      C214          -21.2502863109       52.1099267370       -6.1749536386  MEMB      351             0.0000000000
     43666       351  POPE      H14R          -20.9353164554       51.1883856827       -6.6783062870  MEMB      351             0.0000000000
     43667       351  POPE      H14S          -22.1459913191       51.9573188088       -5.5316785547  MEMB      351             0.0000000000
     43668       351  POPE      C215          -20.1446948081       52.3769904387       -5.1911977533  MEMB      351             0.0000000000
     43669       351  POPE      H15R          -19.1613825981       52.5917145300       -5.6601211137  MEMB      351             0.0000000000
     43670       351  POPE      H15S          -20.0909560714       51.4750707440       -4.5338748134  MEMB      351             0.0000000000
     43671       351  POPE      C216          -20.5243756668       53.5791253408       -4.4238698661  MEMB      351             0.0000000000
     43672       351  POPE      H16R          -21.5378746050       53.6016405168       -4.0420356001  MEMB      351             0.0000000000
     43673       351  POPE      H16S          -20.4333743798       54.4007839438       -5.1524252262  MEMB      351             0.0000000000
     43674       351  POPE      C217          -19.6783480696       53.6193515553       -3.2561106189  MEMB      351             0.0000000000
     43675       351  POPE      H17R          -18.6943993542       53.6989127548       -3.6979970485  MEMB      351             0.0000000000
     43676       351  POPE      H17S          -19.5157078458       52.7869215842       -2.6270950839  MEMB      351             0.0000000000
     43677       351  POPE      C218          -20.1223165281       54.5764355441       -2.3013687047  MEMB      351             0.0000000000
     43678       351  POPE      H18R          -20.9265159450       54.6200258332       -1.6059178787  MEMB      351             0.0000000000
     43679       351  POPE      H18S          -20.4102283977       55.4438244619       -2.9756300172  MEMB      351             0.0000000000
     43680       351  POPE      H18T          -19.2851700024       54.8050423334       -1.5152540906  MEMB      351             0.0000000000
     43681       351  POPE      C33           -20.4782025320       56.4155450325      -11.8264338140  MEMB      351             0.0000000000
     43682       351  POPE      H3X           -19.4910046374       56.4755201224      -11.3385614257  MEMB      351             0.0000000000
     43683       351  POPE      H3Y           -21.0698816717       55.5667429165      -11.4779492569  MEMB      351             0.0000000000
     43684       351  POPE      C34           -21.1685846223       57.5339219706      -11.1791844155  MEMB      351             0.0000000000
     43685       351  POPE      H4X           -21.9612983611       57.9120049174      -11.4984405148  MEMB      351             0.0000000000
     43686       351  POPE      H4Y           -20.5805121540       58.2740658160      -11.5455728012  MEMB      351             0.0000000000
     43687       351  POPE      C35           -21.6854145574       57.5596223684       -9.7490765279  MEMB      351             0.0000000000
     43688       351  POPE      H5X           -20.9655018331       56.9377247771       -9.3850237563  MEMB      351             0.0000000000
     43689       351  POPE      H5Y           -22.2424008576       56.6953338215       -9.4331524374  MEMB      351             0.0000000000
     43690       351  POPE      C36           -22.0661120717       59.0460561727       -9.0268261853  MEMB      351             0.0000000000
     43691       351  POPE      H6X           -22.9371913329       59.4668797697       -9.2512867466  MEMB      351             0.0000000000
     43692       351  POPE      H6Y           -21.8808741496       59.9569508805       -9.5336731671  MEMB      351             0.0000000000
     43693       351  POPE      C37           -22.4974644465       59.3669519902       -7.5240101898  MEMB      351             0.0000000000
     43694       351  POPE      H7X           -23.5799492786       59.2976326155       -7.2305827053  MEMB      351             0.0000000000
     43695       351  POPE      H7Y           -22.8153373212       60.3790945845       -7.4665757580  MEMB      351             0.0000000000
     43696       351  POPE      C38           -21.7487314190       58.4635128747       -6.6305340174  MEMB      351             0.0000000000
     43697       351  POPE      H8X           -20.7743767699       58.9514626908       -6.7735969839  MEMB      351             0.0000000000
     43698       351  POPE      H8Y           -21.8132510272       57.4441846494       -7.0552810649  MEMB      351             0.0000000000
     43699       351  POPE      C39           -22.0952360063       58.3670989161       -5.1870552701  MEMB      351             0.0000000000
     43700       351  POPE      H9X           -22.3699848165       59.4046397616       -4.9522607919  MEMB      351             0.0000000000
     43701       351  POPE      H9Y           -21.2681971066       58.0039439102       -4.6194410748  MEMB      351             0.0000000000
     43702       351  POPE      C310          -23.0676889526       57.3458647152       -4.5983185563  MEMB      351             0.0000000000
     43703       351  POPE      H10X          -23.9485387032       57.8489547027       -4.8417271640  MEMB      351             0.0000000000
     43704       351  POPE      H10Y          -23.0862021448       57.4765626371       -3.5333450740  MEMB      351             0.0000000000
     43705       351  POPE      C311          -23.2168268703       55.9136332146       -5.1438915385  MEMB      351             0.0000000000
     43706       351  POPE      H11X          -22.2502337943       55.4866162687       -5.0763712583  MEMB      351             0.0000000000
     43707       351  POPE      H11Y          -23.4145283543       55.8370296025       -6.2088567045  MEMB      351             0.0000000000
     43708       351  POPE      C312          -24.3367416250       55.0532446747       -4.5439691132  MEMB      351             0.0000000000
     43709       351  POPE      H12X          -24.2739007889       54.0475269570       -5.0102356846  MEMB      351             0.0000000000
     43710       351  POPE      H12Y          -25.4127977275       55.3514703230       -4.6686186124  MEMB      351             0.0000000000
     43711       351  POPE      C313          -24.0339659080       55.0040792832       -3.0940277347  MEMB      351             0.0000000000
     43712       351  POPE      H13X          -24.2027097587       55.9615944527       -2.6002891472  MEMB      351             0.0000000000
     43713       351  POPE      H13Y          -22.9847268053       54.6921840017       -2.9776524797  MEMB      351             0.0000000000
     43714       351  POPE      C314          -24.8426069153       54.0158992386       -2.4774359486  MEMB      351             0.0000000000
     43715       351  POPE      H14X          -24.8650745387       53.2605613535       -3.2762632598  MEMB      351             0.0000000000
     43716       351  POPE      H14Y          -25.8732353204       54.3602073182       -2.2198095324  MEMB      351             0.0000000000
     43717       351  POPE      C315          -24.2119735991       53.3560034001       -1.3278820171  MEMB      351             0.0000000000
     43718       351  POPE      H15X          -23.4693972924       52.5825958102       -1.5004289072  MEMB      351             0.0000000000
     43719       351  POPE      H15Y          -25.0993620267       52.8416440426       -0.9851909305  MEMB      351             0.0000000000
     43720       351  POPE      C316          -23.5963094444       54.0964764891       -0.2971261385  MEMB      351             0.0000000000
     43721       351  POPE      H16X          -23.4649346710       53.4763213267        0.6165543891  MEMB      351             0.0000000000
     43722       351  POPE      H16Y          -24.2598703194       54.9113295901       -0.1400271796  MEMB      351             0.0000000000
     43723       351  POPE      H16Z          -22.8127578022       54.7471156662       -0.5324609280  MEMB      351             0.0000000000
     43724       352  PMPE      N              56.5334780422       -6.4981536413      -17.0699939749  MEMB      352             0.0000000000
     43725       352  PMPE      HN1            55.7631698509       -6.8066699327      -16.4353694747  MEMB      352             0.0000000000
     43726       352  PMPE      HN2            56.7929071841       -7.2367735103      -17.7356157482  MEMB      352             0.0000000000
     43727       352  PMPE      HN3            57.4084425325       -6.3741488727      -16.4966541592  MEMB      352             0.0000000000
     43728       352  PMPE      C12            56.0866536377       -5.1251315840      -17.5997074998  MEMB      352             0.0000000000
     43729       352  PMPE      H12A           56.9207615359       -4.4424804925      -17.3619513712  MEMB      352             0.0000000000
     43730       352  PMPE      H12B           55.2102956565       -4.7941588631      -16.9763446149  MEMB      352             0.0000000000
     43731       352  PMPE      C11            55.7711204240       -5.1946457574      -19.0740179891  MEMB      352             0.0000000000
     43732       352  PMPE      H11A           56.7144618657       -5.3834119409      -19.6450449530  MEMB      352             0.0000000000
     43733       352  PMPE      H11B           55.3284094325       -4.2493273636      -19.4869685948  MEMB      352             0.0000000000
     43734       352  PMPE      P              53.4298845896       -6.3151685837      -19.7454829493  MEMB      352             0.0000000000
     43735       352  PMPE      O13            52.7614076939       -7.5735413158      -19.3933236524  MEMB      352             0.0000000000
     43736       352  PMPE      O14            53.3698779624       -5.9191887683      -21.1605976385  MEMB      352             0.0000000000
     43737       352  PMPE      O11            52.7317420726       -5.2176783449      -18.8414643650  MEMB      352             0.0000000000
     43738       352  PMPE      O12            54.9332836980       -6.3313971568      -19.2198506633  MEMB      352             0.0000000000
     43739       352  PMPE      C1             52.4981842969       -3.9043376571      -19.3219498792  MEMB      352             0.0000000000
     43740       352  PMPE      HA             51.7477598971       -3.8696880858      -20.1498955521  MEMB      352             0.0000000000
     43741       352  PMPE      HB             53.4573038345       -3.4708123970      -19.6676568909  MEMB      352             0.0000000000
     43742       352  PMPE      C2             52.0309227864       -2.9776099508      -18.1832631348  MEMB      352             0.0000000000
     43743       352  PMPE      HS             51.7821121988       -1.9919497198      -18.6159317277  MEMB      352             0.0000000000
     43744       352  PMPE      O21            53.0105763659       -2.9311290110      -17.1703795675  MEMB      352             0.0000000000
     43745       352  PMPE      C21            53.7567479870       -1.9195413182      -17.0666996774  MEMB      352             0.0000000000
     43746       352  PMPE      O22            53.8251826981       -0.9059363396      -17.7471416482  MEMB      352             0.0000000000
     43747       352  PMPE      C22            54.5907297185       -2.2404916531      -15.9160534666  MEMB      352             0.0000000000
     43748       352  PMPE      H2R            55.4475259982       -2.8344186744      -16.2975949498  MEMB      352             0.0000000000
     43749       352  PMPE      H2S            54.1656725360       -2.9053350845      -15.1426147896  MEMB      352             0.0000000000
     43750       352  PMPE      C3             50.7113657432       -3.3849641596      -17.5310226814  MEMB      352             0.0000000000
     43751       352  PMPE      HX             50.0234156012       -3.3735489265      -18.3350990395  MEMB      352             0.0000000000
     43752       352  PMPE      HY             50.3277331423       -2.6180421466      -16.8229082939  MEMB      352             0.0000000000
     43753       352  PMPE      O31            50.6873851078       -4.7105509879      -17.0733183609  MEMB      352             0.0000000000
     43754       352  PMPE      C31            51.1886590729       -4.7232723159      -15.9438787203  MEMB      352             0.0000000000
     43755       352  PMPE      O32            51.4696008115       -3.7843090087      -15.2116901269  MEMB      352             0.0000000000
     43756       352  PMPE      C32            51.5846091984       -6.1247875289      -15.8418657926  MEMB      352             0.0000000000
     43757       352  PMPE      H2X            51.5280021836       -6.9091855611      -16.4894135094  MEMB      352             0.0000000000
     43758       352  PMPE      H2Y            50.3515648281       -6.5081055920      -15.8621540500  MEMB      352             0.0000000000
     43759       352  PMPE      C23            54.8852910995       -0.8989250858      -15.3208846168  MEMB      352             0.0000000000
     43760       352  PMPE      H3R            54.1418629453       -0.1877494620      -14.9991003403  MEMB      352             0.0000000000
     43761       352  PMPE      H3S            55.7160292336       -0.4213178700      -15.8968728019  MEMB      352             0.0000000000
     43762       352  PMPE      C24            55.3579190636       -1.2387961834      -14.0824201279  MEMB      352             0.0000000000
     43763       352  PMPE      H4R            56.1487366307       -0.4396654759      -13.8585175125  MEMB      352             0.0000000000
     43764       352  PMPE      H4S            55.8494382657       -2.3624750500      -14.1449839096  MEMB      352             0.0000000000
     43765       352  PMPE      C25            54.7771847725       -1.9668825644      -13.1571105023  MEMB      352             0.0000000000
     43766       352  PMPE      H5R            55.5855623282       -2.7923329303      -12.5166981796  MEMB      352             0.0000000000
     43767       352  PMPE      H5S            54.4187694898       -2.7933755968      -13.3146279530  MEMB      352             0.0000000000
     43768       352  PMPE      C26            53.7340276055       -1.0438489373      -12.4651641809  MEMB      352             0.0000000000
     43769       352  PMPE      H6R            53.3917274398       -0.2051319676      -13.0436092820  MEMB      352             0.0000000000
     43770       352  PMPE      H6S            54.2932114552       -0.5685242290      -11.8202882040  MEMB      352             0.0000000000
     43771       352  PMPE      C27            53.2540492427       -1.1824169199      -10.9701733325  MEMB      352             0.0000000000
     43772       352  PMPE      H7R            53.2197430812       -2.3089092400      -11.0701052543  MEMB      352             0.0000000000
     43773       352  PMPE      H7S            52.3513849924       -0.6083482382      -10.8918780379  MEMB      352             0.0000000000
     43774       352  PMPE      C28            53.8563917720       -1.3136251072       -9.5092513873  MEMB      352             0.0000000000
     43775       352  PMPE      H8R            54.1053272502       -0.5146600154       -8.9814367269  MEMB      352             0.0000000000
     43776       352  PMPE      H8S            54.7183584283       -1.9439226712       -9.3287381187  MEMB      352             0.0000000000
     43777       352  PMPE      C29            52.8659529815       -1.2110778473       -8.6699977751  MEMB      352             0.0000000000
     43778       352  PMPE      H9R            52.7245959262       -2.1121514416       -9.2714806100  MEMB      352             0.0000000000
     43779       352  PMPE      C217           52.0413310649       -0.2800031057       -7.9655989588  MEMB      352             0.0000000000
     43780       352  PMPE      H17R           51.0820175840       -0.8228619042       -8.0326977330  MEMB      352             0.0000000000
     43781       352  PMPE      H17S           52.2493938036        0.7085118239       -8.0928805050  MEMB      352             0.0000000000
     43782       352  PMPE      C210           53.0453036309       -1.0532922607       -7.0746022148  MEMB      352             0.0000000000
     43783       352  PMPE      H10R           52.5248592908       -1.3890963238       -6.2139097736  MEMB      352             0.0000000000
     43784       352  PMPE      C211           54.3138457108       -1.2012408822       -6.4511544360  MEMB      352             0.0000000000
     43785       352  PMPE      H11R           53.7567007318       -0.2049719707       -6.4518082566  MEMB      352             0.0000000000
     43786       352  PMPE      H11S           55.1637317275       -1.4099521648       -6.9708967069  MEMB      352             0.0000000000
     43787       352  PMPE      C212           54.9378121440       -1.1990366393       -5.0986471607  MEMB      352             0.0000000000
     43788       352  PMPE      H12R           54.2735149275       -1.8769865102       -4.6460549981  MEMB      352             0.0000000000
     43789       352  PMPE      H12S           54.7720290304       -0.1416712805       -5.1189493667  MEMB      352             0.0000000000
     43790       352  PMPE      C213           56.2381451320       -0.6764158406       -4.5144785934  MEMB      352             0.0000000000
     43791       352  PMPE      H13R           56.4969547643        0.3958278996       -4.6068222849  MEMB      352             0.0000000000
     43792       352  PMPE      H13S           56.6827939506       -1.3720248008       -5.1804755632  MEMB      352             0.0000000000
     43793       352  PMPE      C214           56.4081085930       -0.9352215502       -3.0789132488  MEMB      352             0.0000000000
     43794       352  PMPE      H14R           57.2868128856       -1.3332602351       -2.7520193476  MEMB      352             0.0000000000
     43795       352  PMPE      H14S           56.0528742294       -2.0755317222       -3.3689109055  MEMB      352             0.0000000000
     43796       352  PMPE      C215           55.6909154015       -0.0901066552       -1.5581503583  MEMB      352             0.0000000000
     43797       352  PMPE      H15R           55.0176440154       -0.8437998787       -0.6865632185  MEMB      352             0.0000000000
     43798       352  PMPE      H15S           54.6512470766        0.2448763488       -1.4633150586  MEMB      352             0.0000000000
     43799       352  PMPE      C216           55.9926809386        0.9001846819       -0.8500929212  MEMB      352             0.0000000000
     43800       352  PMPE      H16R           55.7868936528        1.7100587203       -1.5777396392  MEMB      352             0.0000000000
     43801       352  PMPE      H16S           55.2243818244        0.7797350526       -0.0026974981  MEMB      352             0.0000000000
     43802       352  PMPE      H16T           56.9508854630        0.4188455008       -0.7382724244  MEMB      352             0.0000000000
     43803       352  PMPE      C33            52.6154077869       -6.3751343429      -14.4197749358  MEMB      352             0.0000000000
     43804       352  PMPE      H3X            52.6575367365       -7.3378272833      -13.9285984149  MEMB      352             0.0000000000
     43805       352  PMPE      H3Y            52.3554117049       -5.8956969925      -13.3885437925  MEMB      352             0.0000000000
     43806       352  PMPE      C34            53.8296406050       -5.8388193211      -14.5839126338  MEMB      352             0.0000000000
     43807       352  PMPE      H4X            53.6904112624       -4.7756109150      -14.3346114917  MEMB      352             0.0000000000
     43808       352  PMPE      H4Y            53.7565460535       -6.0568611830      -15.6515787296  MEMB      352             0.0000000000
     43809       352  PMPE      C35            54.8848999588       -6.5400619536      -13.8405421214  MEMB      352             0.0000000000
     43810       352  PMPE      H5X            55.5556627554       -5.8621709414      -14.2391866242  MEMB      352             0.0000000000
     43811       352  PMPE      H5Y            55.1712787885       -7.5150814107      -14.2223317501  MEMB      352             0.0000000000
     43812       352  PMPE      C36            54.8818690274       -6.5122525145      -12.3310285784  MEMB      352             0.0000000000
     43813       352  PMPE      H6X            54.0878027963       -7.2057777373      -11.9774368531  MEMB      352             0.0000000000
     43814       352  PMPE      H6Y            54.5950853091       -5.4994999168      -11.9887768274  MEMB      352             0.0000000000
     43815       352  PMPE      C37            56.2198142774       -6.9621239054      -11.7558863222  MEMB      352             0.0000000000
     43816       352  PMPE      H7X            57.1777847466       -6.4891266246      -11.9670069297  MEMB      352             0.0000000000
     43817       352  PMPE      H7Y            56.6189633861       -7.8472850698      -12.2469086208  MEMB      352             0.0000000000
     43818       352  PMPE      C38            56.2215851635       -6.9140554388      -10.2501328339  MEMB      352             0.0000000000
     43819       352  PMPE      H8X            57.1544575310       -7.4745185452      -10.0642718043  MEMB      352             0.0000000000
     43820       352  PMPE      H8Y            55.4951092595       -7.4657765270       -9.7594650823  MEMB      352             0.0000000000
     43821       352  PMPE      C39            55.8849412023       -5.5986284448       -9.4879978484  MEMB      352             0.0000000000
     43822       352  PMPE      H9X            55.6130119275       -4.6604751031      -10.0333649376  MEMB      352             0.0000000000
     43823       352  PMPE      H9Y            56.8735900746       -5.5145429949       -9.0855012369  MEMB      352             0.0000000000
     43824       352  PMPE      C310           55.6674601250       -5.5114804698       -8.0946113260  MEMB      352             0.0000000000
     43825       352  PMPE      H10X           55.8956195263       -6.5481056294       -7.8050565533  MEMB      352             0.0000000000
     43826       352  PMPE      H10Y           54.6268749608       -5.2643519790       -8.2396724499  MEMB      352             0.0000000000
     43827       352  PMPE      C311           56.4985392282       -4.5040008051       -7.3144969509  MEMB      352             0.0000000000
     43828       352  PMPE      H11X           56.6802586121       -3.5232784682       -7.8011983005  MEMB      352             0.0000000000
     43829       352  PMPE      H11Y           57.5069722889       -4.8669815611       -7.1881885454  MEMB      352             0.0000000000
     43830       352  PMPE      C312           55.8397009706       -4.4832926294       -5.9679375704  MEMB      352             0.0000000000
     43831       352  PMPE      H12X           54.7639755626       -4.3075909786       -6.1498752626  MEMB      352             0.0000000000
     43832       352  PMPE      H12Y           56.2237530875       -3.6188041545       -5.4219834304  MEMB      352             0.0000000000
     43833       352  PMPE      C313           55.9364674611       -5.7982609058       -5.2025212905  MEMB      352             0.0000000000
     43834       352  PMPE      H13X           56.9778593935       -6.0462317191       -5.0427632266  MEMB      352             0.0000000000
     43835       352  PMPE      H13Y           55.4461749028       -6.5855589882       -5.8118246432  MEMB      352             0.0000000000
     43836       352  PMPE      C314           55.2231340514       -5.7331626882       -3.8744093173  MEMB      352             0.0000000000
     43837       352  PMPE      H14X           54.1405039999       -5.8046874413       -4.0768264830  MEMB      352             0.0000000000
     43838       352  PMPE      H14Y           55.4691113687       -4.8145671115       -3.3441404814  MEMB      352             0.0000000000
     43839       352  PMPE      C315           55.4791533679       -6.8866484506       -3.0570488866  MEMB      352             0.0000000000
     43840       352  PMPE      H15X           55.7852355472       -7.6742730540       -3.7527994737  MEMB      352             0.0000000000
     43841       352  PMPE      H15Y           54.7179391424       -7.0693768449       -2.2523720506  MEMB      352             0.0000000000
     43842       352  PMPE      C316           56.5355155279       -6.9102992758       -2.2506632698  MEMB      352             0.0000000000
     43843       352  PMPE      H16X           56.3440397270       -6.3066914003       -1.4069396729  MEMB      352             0.0000000000
     43844       352  PMPE      H16Y           57.2056721355       -6.4588779929       -2.8798639355  MEMB      352             0.0000000000
     43845       352  PMPE      H16Z           57.1057648573       -7.8367419411       -1.8146232120  MEMB      352             0.0000000000
     43846       353  PMPG      C13           -53.6399943625      -11.7895129997      -21.1848430038  MEMB      353             0.0000000000
     43847       353  PMPG      H13A          -54.1929123538      -10.9101186808      -20.7907075473  MEMB      353             0.0000000000
     43848       353  PMPG      H13B          -53.2668455375      -11.4730933711      -22.1789197027  MEMB      353             0.0000000000
     43849       353  PMPG      OC3           -54.5830596056      -12.8410796516      -21.3448367353  MEMB      353             0.0000000000
     43850       353  PMPG      HO3           -54.8562052844      -13.0751643662      -20.4368514882  MEMB      353             0.0000000000
     43851       353  PMPG      C12           -52.4198155441      -12.2595093785      -20.3151201764  MEMB      353             0.0000000000
     43852       353  PMPG      H12A          -51.8779431304      -11.3562459862      -19.9634836099  MEMB      353             0.0000000000
     43853       353  PMPG      OC2           -51.5206586103      -13.0563052672      -21.0871655958  MEMB      353             0.0000000000
     43854       353  PMPG      HO2           -50.8606474818      -13.3722277065      -20.4604290874  MEMB      353             0.0000000000
     43855       353  PMPG      C11           -52.7992831096      -13.0863518555      -19.0679842297  MEMB      353             0.0000000000
     43856       353  PMPG      H11A          -51.9541525824      -13.1938210029      -18.3506935429  MEMB      353             0.0000000000
     43857       353  PMPG      H11B          -53.0547098990      -14.1121108361      -19.4212475797  MEMB      353             0.0000000000
     43858       353  PMPG      P             -54.7556469292      -13.3594774747      -17.4206757380  MEMB      353             0.0000000000
     43859       353  PMPG      O13           -54.7474131677      -14.7726908830      -17.8493455392  MEMB      353             0.0000000000
     43860       353  PMPG      O14           -56.0750424956      -12.7228370079      -17.2663189773  MEMB      353             0.0000000000
     43861       353  PMPG      O11           -53.9824382256      -13.2353111293      -16.0484189824  MEMB      353             0.0000000000
     43862       353  PMPG      O12           -53.9003245360      -12.4690683470      -18.4157597902  MEMB      353             0.0000000000
     43863       353  PMPG      C1            -53.1453426027      -12.1212785161      -15.7892156922  MEMB      353             0.0000000000
     43864       353  PMPG      HA            -53.6098125269      -11.1516611395      -16.1030687627  MEMB      353             0.0000000000
     43865       353  PMPG      HB            -52.2022843318      -12.2698958536      -16.3551910139  MEMB      353             0.0000000000
     43866       353  PMPG      C2            -52.8479354374      -12.0859611570      -14.2825944127  MEMB      353             0.0000000000
     43867       353  PMPG      HS            -51.9552225340      -11.4529672313      -14.1034220864  MEMB      353             0.0000000000
     43868       353  PMPG      O21           -52.5864683932      -13.4111901385      -13.7831830203  MEMB      353             0.0000000000
     43869       353  PMPG      C21           -51.4143957630      -13.9408360421      -14.1178635529  MEMB      353             0.0000000000
     43870       353  PMPG      O22           -50.5267526508      -13.4111300842      -14.7607109499  MEMB      353             0.0000000000
     43871       353  PMPG      C22           -51.2674311319      -15.2827948574      -13.4262338095  MEMB      353             0.0000000000
     43872       353  PMPG      H2R           -51.1018412614      -16.0582104862      -14.1844243751  MEMB      353             0.0000000000
     43873       353  PMPG      H2S           -52.1774824823      -15.4888595211      -12.8265526274  MEMB      353             0.0000000000
     43874       353  PMPG      C3            -54.0392079967      -11.4391808923      -13.5173743069  MEMB      353             0.0000000000
     43875       353  PMPG      HX            -54.9629422797      -12.0507699092      -13.6315587175  MEMB      353             0.0000000000
     43876       353  PMPG      HY            -54.2999630749      -10.4751209712      -14.0168494507  MEMB      353             0.0000000000
     43877       353  PMPG      O31           -53.6288693873      -11.2711506770      -12.1492525438  MEMB      353             0.0000000000
     43878       353  PMPG      C31           -54.6029120091      -11.0217302184      -11.3104088888  MEMB      353             0.0000000000
     43879       353  PMPG      O32           -55.7664689582      -10.7863424735      -11.5533514275  MEMB      353             0.0000000000
     43880       353  PMPG      C32           -53.9972615537      -10.8756402376       -9.9966656112  MEMB      353             0.0000000000
     43881       353  PMPG      H2X           -53.6290886181       -9.9129783803      -10.4568206029  MEMB      353             0.0000000000
     43882       353  PMPG      H2Y           -53.0176388395      -11.2453432132       -9.7095286367  MEMB      353             0.0000000000
     43883       353  PMPG      C23           -50.1523526796      -15.2503177397      -12.4378341719  MEMB      353             0.0000000000
     43884       353  PMPG      H3R           -49.2043988435      -14.7484211765      -12.8075448364  MEMB      353             0.0000000000
     43885       353  PMPG      H3S           -49.8483741452      -16.2737011241      -12.0612181864  MEMB      353             0.0000000000
     43886       353  PMPG      C24           -50.7449857587      -14.5024468107      -11.3256099166  MEMB      353             0.0000000000
     43887       353  PMPG      H4R           -51.5209181409      -14.9439118883      -10.6542806098  MEMB      353             0.0000000000
     43888       353  PMPG      H4S           -50.8841227184      -13.4023054966      -11.4063069970  MEMB      353             0.0000000000
     43889       353  PMPG      C25           -49.7190221269      -14.4673940896      -10.6769987507  MEMB      353             0.0000000000
     43890       353  PMPG      H5R           -48.7456989713      -13.8099278729      -10.7349318497  MEMB      353             0.0000000000
     43891       353  PMPG      H5S           -49.0246757292      -15.4102513094      -10.4027952197  MEMB      353             0.0000000000
     43892       353  PMPG      C26           -50.8598360821      -13.4626015393       -8.7456157283  MEMB      353             0.0000000000
     43893       353  PMPG      H6R           -49.9987135788      -13.2366508425       -8.0502662539  MEMB      353             0.0000000000
     43894       353  PMPG      H6S           -51.4224289073      -14.1737665878       -7.9527521072  MEMB      353             0.0000000000
     43895       353  PMPG      C27           -51.1890816435      -12.2702144415       -8.7374236364  MEMB      353             0.0000000000
     43896       353  PMPG      H7R           -51.6936560865      -12.3056229332       -7.7570290411  MEMB      353             0.0000000000
     43897       353  PMPG      H7S           -51.7222830920      -12.6785181317       -9.5946980408  MEMB      353             0.0000000000
     43898       353  PMPG      C28           -50.0930752817      -11.2682712354       -8.9496248070  MEMB      353             0.0000000000
     43899       353  PMPG      H8R           -50.8262851267      -10.5251908878       -9.2688526853  MEMB      353             0.0000000000
     43900       353  PMPG      H8S           -49.3867179786      -11.4181841270       -9.7811044267  MEMB      353             0.0000000000
     43901       353  PMPG      C29           -49.3027970893      -10.8892937006       -7.7027849398  MEMB      353             0.0000000000
     43902       353  PMPG      H9R           -48.2605303636      -11.1745368319       -7.5696258911  MEMB      353             0.0000000000
     43903       353  PMPG      C217          -49.0958408052       -9.4785821089       -7.2852288776  MEMB      353             0.0000000000
     43904       353  PMPG      H17R          -48.3017849488       -9.3094682282       -6.5892218700  MEMB      353             0.0000000000
     43905       353  PMPG      H17S          -49.4966670834       -8.7793707899       -7.9863554613  MEMB      353             0.0000000000
     43906       353  PMPG      C210          -49.9776755356      -10.4399536941       -6.5028511923  MEMB      353             0.0000000000
     43907       353  PMPG      H10R          -49.6165164613      -10.7300056286       -5.5603552828  MEMB      353             0.0000000000
     43908       353  PMPG      C211          -51.2375363242       -9.9686469580       -6.5545063032  MEMB      353             0.0000000000
     43909       353  PMPG      H11R          -51.3054379837       -9.5503109276       -7.5992776189  MEMB      353             0.0000000000
     43910       353  PMPG      H11S          -52.1540497549      -10.6188593014       -6.3789079476  MEMB      353             0.0000000000
     43911       353  PMPG      C212          -51.3703565718       -8.8026099868       -5.6066925923  MEMB      353             0.0000000000
     43912       353  PMPG      H12R          -52.1243156492       -8.0907390806       -5.9315689541  MEMB      353             0.0000000000
     43913       353  PMPG      H12S          -50.7008578971       -7.9773569827       -5.6048825346  MEMB      353             0.0000000000
     43914       353  PMPG      C213          -51.6823208944       -9.3099544249       -4.2844850499  MEMB      353             0.0000000000
     43915       353  PMPG      H13R          -52.5715150303       -9.9933784003       -4.2797373503  MEMB      353             0.0000000000
     43916       353  PMPG      H13S          -51.7139843662       -8.4031811387       -3.7018966779  MEMB      353             0.0000000000
     43917       353  PMPG      C214          -50.6812408872       -9.3484255510       -3.3871740373  MEMB      353             0.0000000000
     43918       353  PMPG      H14R          -49.7810295202       -8.9959411307       -3.8297406756  MEMB      353             0.0000000000
     43919       353  PMPG      H14S          -50.8914016540      -10.3673900037       -3.7113075949  MEMB      353             0.0000000000
     43920       353  PMPG      C215          -50.7393355539       -8.9991005650       -1.8343260244  MEMB      353             0.0000000000
     43921       353  PMPG      H15R          -50.6897752757       -7.9974994739       -1.6172617374  MEMB      353             0.0000000000
     43922       353  PMPG      H15S          -49.7016483578       -9.0001879983       -1.5491182649  MEMB      353             0.0000000000
     43923       353  PMPG      C216          -51.6373655885       -9.7763574752       -0.7545749417  MEMB      353             0.0000000000
     43924       353  PMPG      H16R          -51.6257376320       -9.2148889837        0.1510467419  MEMB      353             0.0000000000
     43925       353  PMPG      H16S          -51.2308877037      -10.7007079477       -0.4341725476  MEMB      353             0.0000000000
     43926       353  PMPG      H16T          -52.6687022703      -10.0712799962       -1.0703298065  MEMB      353             0.0000000000
     43927       353  PMPG      C33           -55.0208442474      -10.8606939636       -8.8044220890  MEMB      353             0.0000000000
     43928       353  PMPG      H3X           -55.8523669633      -10.1292275191       -8.9633727796  MEMB      353             0.0000000000
     43929       353  PMPG      H3Y           -54.5465630155      -10.5521608365       -7.8709056791  MEMB      353             0.0000000000
     43930       353  PMPG      C34           -55.4795225694      -12.2284499481       -8.4460810524  MEMB      353             0.0000000000
     43931       353  PMPG      H4X           -54.6783465185      -12.9482366351       -8.6501074511  MEMB      353             0.0000000000
     43932       353  PMPG      H4Y           -56.2491485059      -12.4138569719       -9.1964033346  MEMB      353             0.0000000000
     43933       353  PMPG      C35           -56.0823273562      -12.3693524169       -7.0520584580  MEMB      353             0.0000000000
     43934       353  PMPG      H5X           -56.4890600821      -13.4030841757       -6.9847247835  MEMB      353             0.0000000000
     43935       353  PMPG      H5Y           -56.8227238645      -11.5321436053       -6.9589905474  MEMB      353             0.0000000000
     43936       353  PMPG      C36           -55.2113758493      -12.3232062044       -5.8302220021  MEMB      353             0.0000000000
     43937       353  PMPG      H6X           -55.8211805222      -12.2870414937       -4.9110716732  MEMB      353             0.0000000000
     43938       353  PMPG      H6Y           -54.7116634095      -11.3873806581       -5.9234521277  MEMB      353             0.0000000000
     43939       353  PMPG      C37           -54.0913672659      -13.3399864857       -5.8011899403  MEMB      353             0.0000000000
     43940       353  PMPG      H7X           -53.5108283683      -13.0114698980       -6.6877008115  MEMB      353             0.0000000000
     43941       353  PMPG      H7Y           -54.4288094633      -14.3891885472       -5.9649835268  MEMB      353             0.0000000000
     43942       353  PMPG      C38           -53.2237672249      -13.2502266230       -4.5394358812  MEMB      353             0.0000000000
     43943       353  PMPG      H8X           -52.9363547027      -12.2091615059       -4.2638531901  MEMB      353             0.0000000000
     43944       353  PMPG      H8Y           -52.2914793598      -13.8307541592       -4.7144341244  MEMB      353             0.0000000000
     43945       353  PMPG      C39           -53.8639525048      -13.9780487012       -3.3734830702  MEMB      353             0.0000000000
     43946       353  PMPG      H9X           -53.6859261479      -15.0656099438       -3.5379685908  MEMB      353             0.0000000000
     43947       353  PMPG      H9Y           -54.9496946319      -13.7389779118       -3.3037095096  MEMB      353             0.0000000000
     43948       353  PMPG      C310          -53.2331041944      -13.6553554497       -2.0379134597  MEMB      353             0.0000000000
     43949       353  PMPG      H10X          -53.4127385969      -12.5908613261       -1.8107764634  MEMB      353             0.0000000000
     43950       353  PMPG      H10Y          -52.1565358689      -13.7584693196       -2.0409028138  MEMB      353             0.0000000000
     43951       353  PMPG      C311          -53.6984050098      -14.6080455396       -0.9440731216  MEMB      353             0.0000000000
     43952       353  PMPG      H11X          -53.1871877571      -14.4427740704        0.0086054734  MEMB      353             0.0000000000
     43953       353  PMPG      H11Y          -53.6844866892      -15.6020002079       -1.3912113125  MEMB      353             0.0000000000
     43954       353  PMPG      C312          -55.0495740056      -14.6918846355       -0.6325507907  MEMB      353             0.0000000000
     43955       353  PMPG      H12X          -55.4062814089      -15.0556032972        0.3601060557  MEMB      353             0.0000000000
     43956       353  PMPG      H12Y          -55.6114309684      -15.0850820396       -1.4891304506  MEMB      353             0.0000000000
     43957       353  PMPG      C313          -55.3975185148      -13.4936084362       -0.7180805728  MEMB      353             0.0000000000
     43958       353  PMPG      H13X          -56.5830663068      -13.6960984317       -0.6592157320  MEMB      353             0.0000000000
     43959       353  PMPG      H13Y          -55.2096030042      -12.8963962458       -1.3990407384  MEMB      353             0.0000000000
     43960       353  PMPG      C314          -54.5194840169      -12.2809205328        0.1675884230  MEMB      353             0.0000000000
     43961       353  PMPG      H14X          -54.0924885221      -11.4523005555       -0.0157674906  MEMB      353             0.0000000000
     43962       353  PMPG      H14Y          -54.3411377340      -12.9786856794        1.0786869448  MEMB      353             0.0000000000
     43963       353  PMPG      C315          -55.4315427190      -10.2672704361        0.6549504083  MEMB      353             0.0000000000
     43964       353  PMPG      H15X          -56.2380454246      -10.0934567188        0.6214697746  MEMB      353             0.0000000000
     43965       353  PMPG      H15Y          -55.0551373564      -10.1236406085        1.3328577790  MEMB      353             0.0000000000
     43966       353  PMPG      C316          -57.7580508271      -10.6537821543        2.0224053147  MEMB      353             0.0000000000
     43967       353  PMPG      H16X          -58.2531208058      -10.0635884548        2.3807350618  MEMB      353             0.0000000000
     43968       353  PMPG      H16Y          -57.2546212912      -10.6707138813        3.0873615761  MEMB      353             0.0000000000
     43969       353  PMPG      H16Z          -58.0442288597      -11.7583344990        2.0791555702  MEMB      353             0.0000000000
     43970       354  PMPE      N              11.3782603812       55.8713869989      -20.9365865546  MEMB      354             0.0000000000
     43971       354  PMPE      HN1            10.7914055680       56.2953425786      -21.6889036962  MEMB      354             0.0000000000
     43972       354  PMPE      HN2            11.1783119525       56.2496163213      -19.9869106672  MEMB      354             0.0000000000
     43973       354  PMPE      HN3            12.3593406688       56.0867291823      -21.1524143045  MEMB      354             0.0000000000
     43974       354  PMPE      C12            11.2097393915       54.3757681481      -20.8319434610  MEMB      354             0.0000000000
     43975       354  PMPE      H12A           11.3143064272       53.9120264265      -21.8218316403  MEMB      354             0.0000000000
     43976       354  PMPE      H12B           10.2090967697       54.2116523208      -20.3710396663  MEMB      354             0.0000000000
     43977       354  PMPE      C11            12.2977222661       53.7021676340      -20.0105534043  MEMB      354             0.0000000000
     43978       354  PMPE      H11A           13.2470667692       53.5657206006      -20.5996750997  MEMB      354             0.0000000000
     43979       354  PMPE      H11B           11.8914586664       52.6929091844      -19.8010421405  MEMB      354             0.0000000000
     43980       354  PMPE      P              13.8521417960       54.1732627550      -18.0501138863  MEMB      354             0.0000000000
     43981       354  PMPE      O13            14.9134112480       54.5801310221      -19.0145981768  MEMB      354             0.0000000000
     43982       354  PMPE      O14            13.8804494380       52.7915117462      -17.5458353803  MEMB      354             0.0000000000
     43983       354  PMPE      O11            13.7460247320       55.2525699728      -16.8804479431  MEMB      354             0.0000000000
     43984       354  PMPE      O12            12.4622439486       54.4128832123      -18.7924027002  MEMB      354             0.0000000000
     43985       354  PMPE      C1             14.0231928896       56.6272073831      -17.1609631233  MEMB      354             0.0000000000
     43986       354  PMPE      HA             13.6668587217       56.9443577054      -18.1618160135  MEMB      354             0.0000000000
     43987       354  PMPE      HB             15.1137229315       56.7540426984      -17.1331066014  MEMB      354             0.0000000000
     43988       354  PMPE      C2             13.4270232919       57.5930313772      -16.1411797416  MEMB      354             0.0000000000
     43989       354  PMPE      HS             13.7432151733       58.6547378570      -16.3226187604  MEMB      354             0.0000000000
     43990       354  PMPE      O21            13.6404083677       57.0793696913      -14.8188214650  MEMB      354             0.0000000000
     43991       354  PMPE      C21            13.4788555036       57.9122655404      -13.8532332259  MEMB      354             0.0000000000
     43992       354  PMPE      O22            13.0088663017       59.0313531566      -13.9646147875  MEMB      354             0.0000000000
     43993       354  PMPE      C22            13.9936194481       57.2367951327      -12.5338200000  MEMB      354             0.0000000000
     43994       354  PMPE      H2R            14.9689363878       56.9065119234      -12.7083894263  MEMB      354             0.0000000000
     43995       354  PMPE      H2S            13.4292461875       56.2920586777      -12.2387229829  MEMB      354             0.0000000000
     43996       354  PMPE      C3             12.0389078551       57.7014911225      -16.3987849690  MEMB      354             0.0000000000
     43997       354  PMPE      HX             11.7098267580       57.9414139692      -17.4146858435  MEMB      354             0.0000000000
     43998       354  PMPE      HY             11.7484943413       58.7155629971      -16.0761797273  MEMB      354             0.0000000000
     43999       354  PMPE      O31            11.3285006573       56.5321764827      -15.9815514254  MEMB      354             0.0000000000
     44000       354  PMPE      C31            10.5439860541       56.3469900273      -15.0945715204  MEMB      354             0.0000000000
     44001       354  PMPE      O32             9.4844061999       57.0383693708      -14.7148485411  MEMB      354             0.0000000000
     44002       354  PMPE      C32            10.5678105564       54.6569052306      -14.7488203494  MEMB      354             0.0000000000
     44003       354  PMPE      H2X            10.8064989230       54.4836674604      -15.6932869862  MEMB      354             0.0000000000
     44004       354  PMPE      H2Y             9.4745130917       54.0208672014      -14.5899804367  MEMB      354             0.0000000000
     44005       354  PMPE      C23            13.9232099759       58.1445434216      -11.3056667736  MEMB      354             0.0000000000
     44006       354  PMPE      H3R            12.9597536566       58.4238954802      -11.2088740662  MEMB      354             0.0000000000
     44007       354  PMPE      H3S            14.2159112627       59.1610356295      -11.4452098921  MEMB      354             0.0000000000
     44008       354  PMPE      C24            14.4759583939       57.4949921514      -10.0520122115  MEMB      354             0.0000000000
     44009       354  PMPE      H4R            15.5445695719       57.5816390125      -10.2770490628  MEMB      354             0.0000000000
     44010       354  PMPE      H4S            14.1042519639       56.4703842406       -9.8475098835  MEMB      354             0.0000000000
     44011       354  PMPE      C25            14.2824694672       58.2005272873       -8.7455075897  MEMB      354             0.0000000000
     44012       354  PMPE      H5R            13.3945530227       58.7686591139       -8.7183481250  MEMB      354             0.0000000000
     44013       354  PMPE      H5S            14.8218594622       59.0159332162       -8.8544731242  MEMB      354             0.0000000000
     44014       354  PMPE      C26            14.8993110882       57.6021188113       -7.4940415514  MEMB      354             0.0000000000
     44015       354  PMPE      H6R            15.8696884459       57.1691762523       -7.8082812688  MEMB      354             0.0000000000
     44016       354  PMPE      H6S            14.2643910326       56.7858862058       -7.1313987806  MEMB      354             0.0000000000
     44017       354  PMPE      C27            15.1522465793       58.5781284369       -6.3350076183  MEMB      354             0.0000000000
     44018       354  PMPE      H7R            14.2189784599       59.1246473744       -6.0687524422  MEMB      354             0.0000000000
     44019       354  PMPE      H7S            15.8351277907       59.3830723980       -6.6627687334  MEMB      354             0.0000000000
     44020       354  PMPE      C28            15.7671933306       57.8551790175       -5.1108716748  MEMB      354             0.0000000000
     44021       354  PMPE      H8R            15.1458534573       56.9760111168       -4.8322092047  MEMB      354             0.0000000000
     44022       354  PMPE      H8S            15.6711567187       58.6101804028       -4.3051008946  MEMB      354             0.0000000000
     44023       354  PMPE      C29            17.2644540958       57.4830328318       -5.2940996372  MEMB      354             0.0000000000
     44024       354  PMPE      H9R            17.9327730293       58.2489537083       -5.7086477499  MEMB      354             0.0000000000
     44025       354  PMPE      C217           17.4599631481       56.1641907937       -6.0429547465  MEMB      354             0.0000000000
     44026       354  PMPE      H17R           18.2623185697       56.2395493079       -6.7693794546  MEMB      354             0.0000000000
     44027       354  PMPE      H17S           16.4798553299       55.7363877483       -6.1966464221  MEMB      354             0.0000000000
     44028       354  PMPE      C210           17.9282039417       56.2976961702       -4.6030919979  MEMB      354             0.0000000000
     44029       354  PMPE      H10R           19.0170446890       56.4271401709       -4.4324420620  MEMB      354             0.0000000000
     44030       354  PMPE      C211           17.1930213473       55.5317926384       -3.4990605383  MEMB      354             0.0000000000
     44031       354  PMPE      H11R           17.9040650894       54.7393607634       -3.1866008436  MEMB      354             0.0000000000
     44032       354  PMPE      H11S           16.2611047183       55.0468064324       -3.8668149819  MEMB      354             0.0000000000
     44033       354  PMPE      C212           16.8700311281       56.3746079613       -2.2526484776  MEMB      354             0.0000000000
     44034       354  PMPE      H12R           16.5026186995       55.7366722121       -1.4121712198  MEMB      354             0.0000000000
     44035       354  PMPE      H12S           16.0425918584       57.0436092910       -2.5240630894  MEMB      354             0.0000000000
     44036       354  PMPE      C213           17.9682589190       57.3111835969       -1.7715538346  MEMB      354             0.0000000000
     44037       354  PMPE      H13R           18.2560704661       58.0604252735       -2.5201050936  MEMB      354             0.0000000000
     44038       354  PMPE      H13S           18.8098318049       56.7215257922       -1.7149915375  MEMB      354             0.0000000000
     44039       354  PMPE      C214           17.6209045734       57.8532909615       -0.3876195132  MEMB      354             0.0000000000
     44040       354  PMPE      H14R           17.6735437971       57.0278637179        0.3623593416  MEMB      354             0.0000000000
     44041       354  PMPE      H14S           16.5546674756       58.1081097278       -0.4471450671  MEMB      354             0.0000000000
     44042       354  PMPE      C215           18.4445578696       59.0254194931        0.1484667368  MEMB      354             0.0000000000
     44043       354  PMPE      H15R           18.4983291767       59.8673631531       -0.5693725308  MEMB      354             0.0000000000
     44044       354  PMPE      H15S           19.4691775691       58.7556098636        0.3953568840  MEMB      354             0.0000000000
     44045       354  PMPE      C216           17.8659300443       59.5354761464        1.4419114833  MEMB      354             0.0000000000
     44046       354  PMPE      H16R           18.0317204437       58.8426137519        2.2890423293  MEMB      354             0.0000000000
     44047       354  PMPE      H16S           18.3572124016       60.4881960718        1.6815874885  MEMB      354             0.0000000000
     44048       354  PMPE      H16T           16.7898624038       59.7375181454        1.2918112755  MEMB      354             0.0000000000
     44049       354  PMPE      C33            11.0363890602       54.4316782369      -13.5210353100  MEMB      354             0.0000000000
     44050       354  PMPE      H3X            10.2376105181       54.6682892886      -12.7605169576  MEMB      354             0.0000000000
     44051       354  PMPE      H3Y            11.8826448154       55.0349596150      -13.6967492429  MEMB      354             0.0000000000
     44052       354  PMPE      C34            11.2116313149       53.1673561676      -13.5546777601  MEMB      354             0.0000000000
     44053       354  PMPE      H4X            11.7249828108       52.6615977251      -14.3010933591  MEMB      354             0.0000000000
     44054       354  PMPE      H4Y            10.1362446690       52.8624274200      -13.7608057706  MEMB      354             0.0000000000
     44055       354  PMPE      C35            11.9989039751       52.6396165415      -12.3814460110  MEMB      354             0.0000000000
     44056       354  PMPE      H5X            12.9925511662       52.6514164079      -12.7773641258  MEMB      354             0.0000000000
     44057       354  PMPE      H5Y            11.9862387353       51.5366104439      -12.2362519791  MEMB      354             0.0000000000
     44058       354  PMPE      C36            11.4649863380       53.2043055523      -11.0823894984  MEMB      354             0.0000000000
     44059       354  PMPE      H6X            10.3681449254       53.2395707138      -10.8705541143  MEMB      354             0.0000000000
     44060       354  PMPE      H6Y            11.5458734041       54.2582799515      -11.1377423135  MEMB      354             0.0000000000
     44061       354  PMPE      C37            12.0275657901       52.5159676964       -9.9146584167  MEMB      354             0.0000000000
     44062       354  PMPE      H7X            13.0584228269       52.7233100330       -9.9507459673  MEMB      354             0.0000000000
     44063       354  PMPE      H7Y            11.9775662569       51.4331086639       -9.7528465226  MEMB      354             0.0000000000
     44064       354  PMPE      C38            11.3633702212       52.9991466949       -8.7414782572  MEMB      354             0.0000000000
     44065       354  PMPE      H8X            11.6224661301       52.2735184269       -7.9498945339  MEMB      354             0.0000000000
     44066       354  PMPE      H8Y            10.3760074768       52.6749875326       -8.8386830813  MEMB      354             0.0000000000
     44067       354  PMPE      C39            11.3341680000       54.5265609201       -8.5340504282  MEMB      354             0.0000000000
     44068       354  PMPE      H9X            10.4622472561       55.1679898146       -8.1524849310  MEMB      354             0.0000000000
     44069       354  PMPE      H9Y            11.0554900423       55.0709829323       -9.4058216995  MEMB      354             0.0000000000
     44070       354  PMPE      C310           12.3834730315       54.8782182699       -7.4616826518  MEMB      354             0.0000000000
     44071       354  PMPE      H10X           12.2309210966       55.9660799275       -7.4274139974  MEMB      354             0.0000000000
     44072       354  PMPE      H10Y           13.3671433557       54.6977552136       -7.9153422105  MEMB      354             0.0000000000
     44073       354  PMPE      C311           12.3413487549       54.2904979378       -5.9731708933  MEMB      354             0.0000000000
     44074       354  PMPE      H11X           12.5611450893       53.2043083732       -5.9025452450  MEMB      354             0.0000000000
     44075       354  PMPE      H11Y           11.3466270610       54.4437356156       -5.4936814546  MEMB      354             0.0000000000
     44076       354  PMPE      C312           13.1977536725       55.0864014820       -4.9806409979  MEMB      354             0.0000000000
     44077       354  PMPE      H12X           12.7203459684       56.0818036574       -5.0955884436  MEMB      354             0.0000000000
     44078       354  PMPE      H12Y           14.2265545437       55.0893118708       -5.3862092034  MEMB      354             0.0000000000
     44079       354  PMPE      C313           13.2230558182       54.5883640904       -3.5216378248  MEMB      354             0.0000000000
     44080       354  PMPE      H13X           12.1873228130       54.4869360330       -3.1335770076  MEMB      354             0.0000000000
     44081       354  PMPE      H13Y           13.7187739549       55.3206193878       -2.8339433969  MEMB      354             0.0000000000
     44082       354  PMPE      C314           13.9301003421       53.2399582955       -3.4650467451  MEMB      354             0.0000000000
     44083       354  PMPE      H14X           15.0338268243       53.3733600062       -3.5900508066  MEMB      354             0.0000000000
     44084       354  PMPE      H14Y           13.6316118128       52.5593157612       -4.2955520750  MEMB      354             0.0000000000
     44085       354  PMPE      C315           13.6355801333       52.4947622973       -2.1968860201  MEMB      354             0.0000000000
     44086       354  PMPE      H15X           12.6149530637       52.2253317236       -1.9810910483  MEMB      354             0.0000000000
     44087       354  PMPE      H15Y           14.0610944138       53.1743289751       -1.4004483852  MEMB      354             0.0000000000
     44088       354  PMPE      C316           14.2704850588       51.2080883274       -2.5308294591  MEMB      354             0.0000000000
     44089       354  PMPE      H16X           15.2645063248       51.4487433407       -2.5531552652  MEMB      354             0.0000000000
     44090       354  PMPE      H16Y           14.1937222196       50.1822040755       -2.4178200664  MEMB      354             0.0000000000
     44091       354  PMPE      H16Z           14.2800078319       50.7173336250       -1.5890460366  MEMB      354             0.0000000000
     44092       355  PYPG      C13           -14.6669144277      -54.8611512677      -20.9887504336  MEMB      355             0.0000000000
     44093       355  PYPG      H13A          -14.0073200774      -55.5907890402      -20.4418659793  MEMB      355             0.0000000000
     44094       355  PYPG      H13B          -14.3208151813      -54.7590971884      -22.0343330494  MEMB      355             0.0000000000
     44095       355  PYPG      OC3           -14.6349396610      -53.5424804470      -20.4342818093  MEMB      355             0.0000000000
     44096       355  PYPG      HO3           -15.4559945163      -53.4637869818      -19.8986816750  MEMB      355             0.0000000000
     44097       355  PYPG      C12           -16.1019083911      -55.3936745974      -21.0002409600  MEMB      355             0.0000000000
     44098       355  PYPG      H12A          -16.1140191530      -56.3573396164      -21.4471337514  MEMB      355             0.0000000000
     44099       355  PYPG      OC2           -16.9759586101      -54.6070695763      -21.7957461147  MEMB      355             0.0000000000
     44100       355  PYPG      HO2           -17.8525800415      -54.9605171081      -21.6361194303  MEMB      355             0.0000000000
     44101       355  PYPG      C11           -16.6652840706      -55.7063959101      -19.6215935954  MEMB      355             0.0000000000
     44102       355  PYPG      H11A          -16.1031747918      -56.5909390369      -19.2370330124  MEMB      355             0.0000000000
     44103       355  PYPG      H11B          -17.7438214339      -55.9510452400      -19.8096885582  MEMB      355             0.0000000000
     44104       355  PYPG      P             -16.9016749962      -54.6974129980      -17.1994079729  MEMB      355             0.0000000000
     44105       355  PYPG      O13           -17.7417577980      -55.8832271591      -17.0171126922  MEMB      355             0.0000000000
     44106       355  PYPG      O14           -17.4823418021      -53.4064345144      -16.7748718933  MEMB      355             0.0000000000
     44107       355  PYPG      O11           -15.5690143445      -54.9405254375      -16.3700401479  MEMB      355             0.0000000000
     44108       355  PYPG      O12           -16.4527008534      -54.6097199882      -18.7349504112  MEMB      355             0.0000000000
     44109       355  PYPG      C1            -14.3027617184      -54.5234478860      -16.8710823444  MEMB      355             0.0000000000
     44110       355  PYPG      HA            -14.3300017212      -53.4224623407      -16.9798370865  MEMB      355             0.0000000000
     44111       355  PYPG      HB            -14.1125378881      -54.9197389807      -17.8902551054  MEMB      355             0.0000000000
     44112       355  PYPG      C2            -13.1316688463      -54.9113502015      -15.9143760952  MEMB      355             0.0000000000
     44113       355  PYPG      HS            -12.1471851221      -54.9538387581      -16.4436568980  MEMB      355             0.0000000000
     44114       355  PYPG      O21           -13.2847128673      -56.1661258178      -15.2281826664  MEMB      355             0.0000000000
     44115       355  PYPG      C21           -13.8897832221      -57.2532975239      -15.7197138889  MEMB      355             0.0000000000
     44116       355  PYPG      O22           -14.0105313288      -57.5797018970      -16.8804118300  MEMB      355             0.0000000000
     44117       355  PYPG      C22           -14.4050097499      -58.0706005916      -14.5406793494  MEMB      355             0.0000000000
     44118       355  PYPG      H2R           -13.5649158837      -58.4939785244      -13.9537612970  MEMB      355             0.0000000000
     44119       355  PYPG      H2S           -14.9909624742      -58.9004740882      -15.0001237457  MEMB      355             0.0000000000
     44120       355  PYPG      C3            -13.0059536743      -53.8161726436      -14.8098359095  MEMB      355             0.0000000000
     44121       355  PYPG      HX            -12.5359152311      -52.8919508445      -15.2412117906  MEMB      355             0.0000000000
     44122       355  PYPG      HY            -12.4754281172      -54.2727291857      -14.0031591389  MEMB      355             0.0000000000
     44123       355  PYPG      O31           -14.1907531603      -53.6279801730      -14.0834632276  MEMB      355             0.0000000000
     44124       355  PYPG      C31           -14.3625810296      -52.5713784019      -13.3694640756  MEMB      355             0.0000000000
     44125       355  PYPG      O32           -13.6013663518      -51.6442890712      -13.1437438842  MEMB      355             0.0000000000
     44126       355  PYPG      C32           -15.7561896533      -52.6230459790      -12.9155815029  MEMB      355             0.0000000000
     44127       355  PYPG      H2X           -15.8828982659      -51.5732959824      -12.6228629463  MEMB      355             0.0000000000
     44128       355  PYPG      H2Y           -16.4416150319      -52.8811131514      -13.7584384104  MEMB      355             0.0000000000
     44129       355  PYPG      C23           -15.2288281603      -57.1385210987      -13.6453079142  MEMB      355             0.0000000000
     44130       355  PYPG      H3R           -15.9308888124      -56.5484882112      -14.2984209983  MEMB      355             0.0000000000
     44131       355  PYPG      H3S           -14.5298241785      -56.4533483971      -13.1071456072  MEMB      355             0.0000000000
     44132       355  PYPG      C24           -16.0614097686      -57.8526034226      -12.5937252573  MEMB      355             0.0000000000
     44133       355  PYPG      H4R           -16.5760318603      -58.7411241049      -13.0110137212  MEMB      355             0.0000000000
     44134       355  PYPG      H4S           -16.8583890693      -57.1263850123      -12.3204189616  MEMB      355             0.0000000000
     44135       355  PYPG      C25           -15.3465075100      -58.2176778813      -11.2871270056  MEMB      355             0.0000000000
     44136       355  PYPG      H5R           -15.0297238417      -57.2787757555      -10.7917084550  MEMB      355             0.0000000000
     44137       355  PYPG      H5S           -14.4110201716      -58.7910430333      -11.4165976702  MEMB      355             0.0000000000
     44138       355  PYPG      C26           -16.3042408879      -58.9486602239      -10.3356964709  MEMB      355             0.0000000000
     44139       355  PYPG      H6R           -16.9399540599      -59.6528758003      -10.9304828362  MEMB      355             0.0000000000
     44140       355  PYPG      H6S           -16.8552963535      -58.1392436291       -9.7999004294  MEMB      355             0.0000000000
     44141       355  PYPG      C27           -15.6486795235      -59.8673743848       -9.3205381831  MEMB      355             0.0000000000
     44142       355  PYPG      H7R           -15.3039444247      -60.7438977926       -9.9286915297  MEMB      355             0.0000000000
     44143       355  PYPG      H7S           -16.3297025596      -60.1962730379       -8.5180558100  MEMB      355             0.0000000000
     44144       355  PYPG      C28           -14.6204535656      -59.1376867311       -8.5228953376  MEMB      355             0.0000000000
     44145       355  PYPG      H8R           -14.8713147422      -58.3153550582       -7.9338473714  MEMB      355             0.0000000000
     44146       355  PYPG      H8S           -13.7851379964      -58.8972347539       -9.2758204148  MEMB      355             0.0000000000
     44147       355  PYPG      C29           -13.9262754395      -59.7981763051       -7.4841444937  MEMB      355             0.0000000000
     44148       355  PYPG      H9R           -14.2175378766      -60.8857862330       -7.5565231720  MEMB      355             0.0000000000
     44149       355  PYPG      C210          -13.2335004899      -59.6067022684       -6.3113578701  MEMB      355             0.0000000000
     44150       355  PYPG      H10R          -12.8808002989      -60.3484019267       -5.5507816445  MEMB      355             0.0000000000
     44151       355  PYPG      C211          -13.2740565703      -58.3111405377       -5.8370645446  MEMB      355             0.0000000000
     44152       355  PYPG      H11R          -14.3154920156      -57.9965118023       -5.8480546952  MEMB      355             0.0000000000
     44153       355  PYPG      H11S          -13.1333381836      -57.6744234955       -6.6338317892  MEMB      355             0.0000000000
     44154       355  PYPG      C212          -12.9648374027      -58.2788890223       -4.3443439671  MEMB      355             0.0000000000
     44155       355  PYPG      H12R          -13.1909319963      -57.2652223947       -3.9932971726  MEMB      355             0.0000000000
     44156       355  PYPG      H12S          -11.9037634814      -58.4635380652       -4.4551873592  MEMB      355             0.0000000000
     44157       355  PYPG      C213          -13.4368464258      -59.2979844594       -3.2584834506  MEMB      355             0.0000000000
     44158       355  PYPG      H13R          -12.7204328618      -59.4665487551       -2.6244648677  MEMB      355             0.0000000000
     44159       355  PYPG      H13S          -13.5818476825      -60.3548377252       -3.5305206099  MEMB      355             0.0000000000
     44160       355  PYPG      C214          -14.5952220405      -58.9424330409       -2.3770630635  MEMB      355             0.0000000000
     44161       355  PYPG      H14R          -14.5936049413      -57.8670126229       -2.0247437951  MEMB      355             0.0000000000
     44162       355  PYPG      H14S          -15.2575760438      -59.1147703853       -3.1955049983  MEMB      355             0.0000000000
     44163       355  PYPG      C215          -15.3200579766      -59.8495940324       -1.3791379791  MEMB      355             0.0000000000
     44164       355  PYPG      H15R          -14.6484390004      -60.1662070669       -0.6291888529  MEMB      355             0.0000000000
     44165       355  PYPG      H15S          -15.7626334600      -60.6405709537       -2.0227841573  MEMB      355             0.0000000000
     44166       355  PYPG      C216          -16.3291271626      -59.2639288439       -0.3779602690  MEMB      355             0.0000000000
     44167       355  PYPG      H16R          -17.2132460514      -59.8269756329       -0.1303540563  MEMB      355             0.0000000000
     44168       355  PYPG      H16S          -17.2548535354      -58.9149793535       -0.7843023189  MEMB      355             0.0000000000
     44169       355  PYPG      H16T          -16.0209383531      -58.2760241926       -0.0076171117  MEMB      355             0.0000000000
     44170       355  PYPG      C33           -15.9610815175      -53.5306302113      -11.7169546953  MEMB      355             0.0000000000
     44171       355  PYPG      H3X           -15.1682112698      -53.3721228784      -10.9456467245  MEMB      355             0.0000000000
     44172       355  PYPG      H3Y           -15.9425234012      -54.5578827925      -12.0165073709  MEMB      355             0.0000000000
     44173       355  PYPG      C34           -17.2769579087      -53.3889452654      -11.0172326959  MEMB      355             0.0000000000
     44174       355  PYPG      H4X           -16.8444586293      -52.4848299220      -10.8146495514  MEMB      355             0.0000000000
     44175       355  PYPG      H4Y           -17.3482468816      -53.7866904010      -10.0048306684  MEMB      355             0.0000000000
     44176       355  PYPG      C35           -18.5713062668      -53.2587777112      -11.7819606128  MEMB      355             0.0000000000
     44177       355  PYPG      H5X           -18.7489569042      -54.3017030616      -12.0510365798  MEMB      355             0.0000000000
     44178       355  PYPG      H5Y           -18.5388443644      -52.7887863183      -12.7587472246  MEMB      355             0.0000000000
     44179       355  PYPG      C36           -19.7057475645      -52.6495854515      -10.9490910142  MEMB      355             0.0000000000
     44180       355  PYPG      H6X           -20.6835774202      -52.8510534907      -11.4141264983  MEMB      355             0.0000000000
     44181       355  PYPG      H6Y           -19.8600849903      -51.5938154010      -11.0877321130  MEMB      355             0.0000000000
     44182       355  PYPG      C37           -19.5716197205      -52.9545852438       -9.4360707004  MEMB      355             0.0000000000
     44183       355  PYPG      H7X           -18.7018917430      -52.5909623568       -8.9870828777  MEMB      355             0.0000000000
     44184       355  PYPG      H7Y           -20.3443370417      -52.4284001933       -8.8695365872  MEMB      355             0.0000000000
     44185       355  PYPG      C38           -19.4245234816      -54.3875516148       -9.0328983803  MEMB      355             0.0000000000
     44186       355  PYPG      H8X           -19.3923209772      -55.0368337488       -9.9082466306  MEMB      355             0.0000000000
     44187       355  PYPG      H8Y           -20.2671230218      -54.5583056219       -8.3444758291  MEMB      355             0.0000000000
     44188       355  PYPG      C39           -18.8002060806      -55.1015952544       -7.9553483843  MEMB      355             0.0000000000
     44189       355  PYPG      H9X           -18.9184520665      -54.4187537818       -7.1010643394  MEMB      355             0.0000000000
     44190       355  PYPG      H9Y           -17.8033112302      -55.2703380232       -8.3343413680  MEMB      355             0.0000000000
     44191       355  PYPG      C310          -19.4922262335      -56.4338758887       -7.6827590531  MEMB      355             0.0000000000
     44192       355  PYPG      H10X          -19.9260661205      -56.9977116016       -8.5135715864  MEMB      355             0.0000000000
     44193       355  PYPG      H10Y          -20.3335754042      -56.3208017960       -7.0072918040  MEMB      355             0.0000000000
     44194       355  PYPG      C311          -18.5971367712      -57.2594809268       -6.9476198386  MEMB      355             0.0000000000
     44195       355  PYPG      H11X          -17.7559755936      -57.7628892479       -7.4915981476  MEMB      355             0.0000000000
     44196       355  PYPG      H11Y          -19.2682109980      -58.1872906498       -6.8253618205  MEMB      355             0.0000000000
     44197       355  PYPG      C312          -18.2000031808      -56.4314789601       -5.5205690822  MEMB      355             0.0000000000
     44198       355  PYPG      H12X          -18.2238101568      -57.1823872488       -4.4041567634  MEMB      355             0.0000000000
     44199       355  PYPG      H12Y          -17.2074992933      -55.9128284279       -5.7737618493  MEMB      355             0.0000000000
     44200       355  PYPG      C313          -19.1443400042      -55.9216255522       -4.5952090203  MEMB      355             0.0000000000
     44201       355  PYPG      H13X          -19.6050110039      -55.1189359437       -5.0429562949  MEMB      355             0.0000000000
     44202       355  PYPG      H13Y          -19.8757452851      -56.7268680840       -4.5479902866  MEMB      355             0.0000000000
     44203       355  PYPG      C314          -18.7034551049      -55.5007052698       -3.1931867158  MEMB      355             0.0000000000
     44204       355  PYPG      H14X          -18.1495324044      -56.2557403243       -2.8878780271  MEMB      355             0.0000000000
     44205       355  PYPG      H14Y          -18.1673666893      -54.5979831403       -3.0991532335  MEMB      355             0.0000000000
     44206       355  PYPG      C315          -19.5745767493      -55.4756117623       -1.9861938779  MEMB      355             0.0000000000
     44207       355  PYPG      H15X          -20.5944238702      -55.4029228672       -2.2337586196  MEMB      355             0.0000000000
     44208       355  PYPG      H15Y          -19.6950988933      -56.3632281555       -1.6723056654  MEMB      355             0.0000000000
     44209       355  PYPG      C316          -19.0880515850      -55.4691319013       -0.5662603526  MEMB      355             0.0000000000
     44210       355  PYPG      H16X          -19.7361187075      -55.9990238325        0.2014465259  MEMB      355             0.0000000000
     44211       355  PYPG      H16Y          -19.1139279050      -54.3897119593       -0.5748986171  MEMB      355             0.0000000000
     44212       355  PYPG      H16Z          -18.0830463783      -55.9230229210       -0.5366294155  MEMB      355             0.0000000000
     44213       356  PMPE      N             -31.6441700771      -46.8432485173      -16.6767263491  MEMB      356             0.0000000000
     44214       356  PMPE      HN1           -30.9787430646      -46.9789306990      -15.8776433777  MEMB      356             0.0000000000
     44215       356  PMPE      HN2           -32.4876008546      -46.3079503227      -16.3880063255  MEMB      356             0.0000000000
     44216       356  PMPE      HN3           -31.9798020937      -47.7897800742      -16.9496892269  MEMB      356             0.0000000000
     44217       356  PMPE      C12           -30.9339603639      -46.1910936439      -17.8405468140  MEMB      356             0.0000000000
     44218       356  PMPE      H12A          -30.4874064480      -45.2326858886      -17.5059070038  MEMB      356             0.0000000000
     44219       356  PMPE      H12B          -31.6942364265      -46.0718345239      -18.6261881402  MEMB      356             0.0000000000
     44220       356  PMPE      C11           -29.7569872935      -46.9647466724      -18.4192176756  MEMB      356             0.0000000000
     44221       356  PMPE      H11A          -29.1185927383      -47.1936180760      -17.5354683527  MEMB      356             0.0000000000
     44222       356  PMPE      H11B          -29.1834534423      -46.2872797838      -19.1066296405  MEMB      356             0.0000000000
     44223       356  PMPE      P             -29.0867314196      -48.9631573276      -19.9298924492  MEMB      356             0.0000000000
     44224       356  PMPE      O13           -28.3203912666      -48.0194010158      -20.7656042287  MEMB      356             0.0000000000
     44225       356  PMPE      O14           -29.7709610338      -50.1154039911      -20.5598279221  MEMB      356             0.0000000000
     44226       356  PMPE      O11           -28.2367190143      -49.4651659986      -18.6956615207  MEMB      356             0.0000000000
     44227       356  PMPE      O12           -30.2193629525      -48.1275927753      -19.1172246801  MEMB      356             0.0000000000
     44228       356  PMPE      C1            -28.6162090334      -50.6424592012      -17.9759106247  MEMB      356             0.0000000000
     44229       356  PMPE      HA            -27.7141217856      -51.2598894365      -17.9347445740  MEMB      356             0.0000000000
     44230       356  PMPE      HB            -29.4720145293      -51.2063445617      -18.4232842368  MEMB      356             0.0000000000
     44231       356  PMPE      C2            -28.9582911497      -50.3705504785      -16.4955318752  MEMB      356             0.0000000000
     44232       356  PMPE      HS            -29.9257240572      -49.8997057053      -16.4126485158  MEMB      356             0.0000000000
     44233       356  PMPE      O21           -27.9036718158      -49.5941053406      -15.9260210537  MEMB      356             0.0000000000
     44234       356  PMPE      C21           -28.1631223672      -48.4847570769      -15.3114243232  MEMB      356             0.0000000000
     44235       356  PMPE      O22           -29.2507351952      -48.0425837900      -14.9604085003  MEMB      356             0.0000000000
     44236       356  PMPE      C22           -26.8582473657      -47.7044909807      -15.3797249231  MEMB      356             0.0000000000
     44237       356  PMPE      H2R           -26.7580642272      -47.3016579329      -16.3996164523  MEMB      356             0.0000000000
     44238       356  PMPE      H2S           -25.9764212369      -48.2132403615      -15.1058022967  MEMB      356             0.0000000000
     44239       356  PMPE      C3            -29.1705756627      -51.6169995196      -15.6608463331  MEMB      356             0.0000000000
     44240       356  PMPE      HX            -28.2616709760      -51.9125632459      -15.8560599038  MEMB      356             0.0000000000
     44241       356  PMPE      HY            -29.8049263243      -52.4728978918      -15.8897334028  MEMB      356             0.0000000000
     44242       356  PMPE      O31           -28.9341451038      -51.4446134747      -14.3123702948  MEMB      356             0.0000000000
     44243       356  PMPE      C31           -29.8481819957      -50.9379496007      -13.6899020958  MEMB      356             0.0000000000
     44244       356  PMPE      O32           -30.9288955564      -50.6290500996      -14.1822852627  MEMB      356             0.0000000000
     44245       356  PMPE      C32           -29.3359135335      -50.6861310127      -12.2578082790  MEMB      356             0.0000000000
     44246       356  PMPE      H2X           -28.2796729379      -50.3791632698      -12.2050412212  MEMB      356             0.0000000000
     44247       356  PMPE      H2Y           -29.4048986906      -51.6149910871      -11.6636638025  MEMB      356             0.0000000000
     44248       356  PMPE      C23           -26.7367628227      -46.5125644385      -14.5461674095  MEMB      356             0.0000000000
     44249       356  PMPE      H3R           -27.5823490314      -46.1406165805      -15.0626221269  MEMB      356             0.0000000000
     44250       356  PMPE      H3S           -25.9304759315      -45.8281784914      -14.7553770703  MEMB      356             0.0000000000
     44251       356  PMPE      C24           -26.8135680186      -46.6957850280      -13.0678493660  MEMB      356             0.0000000000
     44252       356  PMPE      H4R           -26.0133097743      -47.1910051716      -13.2033727049  MEMB      356             0.0000000000
     44253       356  PMPE      H4S           -27.6684855305      -47.2541258193      -12.7086636351  MEMB      356             0.0000000000
     44254       356  PMPE      C25           -26.0967932099      -45.9222103384      -11.7550250211  MEMB      356             0.0000000000
     44255       356  PMPE      H5R           -26.7768848924      -45.2289204284      -11.3056286100  MEMB      356             0.0000000000
     44256       356  PMPE      H5S           -25.1879176172      -45.3743433275      -12.0828102470  MEMB      356             0.0000000000
     44257       356  PMPE      C26           -26.5707356762      -46.0921664863      -10.3395184802  MEMB      356             0.0000000000
     44258       356  PMPE      H6R           -27.6878047587      -46.1110847458      -10.1171672430  MEMB      356             0.0000000000
     44259       356  PMPE      H6S           -25.8776898335      -45.4868604377       -9.7222911945  MEMB      356             0.0000000000
     44260       356  PMPE      C27           -25.9533974674      -46.9792933271       -9.6607230916  MEMB      356             0.0000000000
     44261       356  PMPE      H7R           -24.8596241320      -46.9359471363      -10.0744871564  MEMB      356             0.0000000000
     44262       356  PMPE      H7S           -26.7917491191      -47.5585838863      -10.0803462068  MEMB      356             0.0000000000
     44263       356  PMPE      C28           -26.0913310806      -47.2670346954       -8.2741492177  MEMB      356             0.0000000000
     44264       356  PMPE      H8R           -26.8168064037      -47.5793579545       -7.7157287349  MEMB      356             0.0000000000
     44265       356  PMPE      H8S           -25.5312642237      -46.3830439004       -8.0111907902  MEMB      356             0.0000000000
     44266       356  PMPE      C29           -25.5909654011      -48.5849894472       -8.0472752517  MEMB      356             0.0000000000
     44267       356  PMPE      H9R           -24.7219959136      -48.2717662225       -9.0825272942  MEMB      356             0.0000000000
     44268       356  PMPE      C217          -25.9954970585      -50.1634088671       -7.6301784201  MEMB      356             0.0000000000
     44269       356  PMPE      H17R          -25.3345304051      -51.0306846817       -7.8837315087  MEMB      356             0.0000000000
     44270       356  PMPE      H17S          -26.8924208504      -49.9139988876       -7.9173087648  MEMB      356             0.0000000000
     44271       356  PMPE      C210          -25.3366060026      -49.7280092303       -6.5042096040  MEMB      356             0.0000000000
     44272       356  PMPE      H10R          -24.2800294892      -50.3395011282       -6.1607158665  MEMB      356             0.0000000000
     44273       356  PMPE      C211          -25.8398641312      -48.9421006727       -5.5793242924  MEMB      356             0.0000000000
     44274       356  PMPE      H11R          -25.7746638668      -49.6404076961       -4.7538981034  MEMB      356             0.0000000000
     44275       356  PMPE      H11S          -26.7230412600      -48.6812660953       -6.0762742759  MEMB      356             0.0000000000
     44276       356  PMPE      C212          -25.4885228328      -47.5660104710       -5.2883176887  MEMB      356             0.0000000000
     44277       356  PMPE      H12R          -25.0395083086      -46.7928177001       -5.9000528470  MEMB      356             0.0000000000
     44278       356  PMPE      H12S          -24.7214733923      -48.0660724189       -4.9779747042  MEMB      356             0.0000000000
     44279       356  PMPE      C213          -26.0830600711      -47.1519893553       -3.9781687186  MEMB      356             0.0000000000
     44280       356  PMPE      H13R          -26.1274162576      -48.1203754417       -3.3484011848  MEMB      356             0.0000000000
     44281       356  PMPE      H13S          -27.0370115523      -46.9706725458       -4.3270065330  MEMB      356             0.0000000000
     44282       356  PMPE      C214          -25.6180739806      -45.8149083670       -3.2051957013  MEMB      356             0.0000000000
     44283       356  PMPE      H14R          -25.5331414636      -44.9452955106       -3.8188579187  MEMB      356             0.0000000000
     44284       356  PMPE      H14S          -24.5610106052      -45.7149525727       -2.8434330886  MEMB      356             0.0000000000
     44285       356  PMPE      C215          -26.3530716095      -45.6041245965       -1.8583716317  MEMB      356             0.0000000000
     44286       356  PMPE      H15R          -27.2920381026      -45.1232605180       -2.1918063316  MEMB      356             0.0000000000
     44287       356  PMPE      H15S          -25.7452553531      -44.9071189025       -1.2451333844  MEMB      356             0.0000000000
     44288       356  PMPE      C216          -26.7194178592      -46.7879503154       -0.9242981625  MEMB      356             0.0000000000
     44289       356  PMPE      H16R          -25.9211328101      -47.5246417732       -0.7180883897  MEMB      356             0.0000000000
     44290       356  PMPE      H16S          -27.0479791438      -46.5058828031        0.0923929126  MEMB      356             0.0000000000
     44291       356  PMPE      H16T          -27.5998560260      -47.2670601561       -1.3760210429  MEMB      356             0.0000000000
     44292       356  PMPE      C33           -30.0591355696      -49.4681858282      -11.6701245377  MEMB      356             0.0000000000
     44293       356  PMPE      H3X           -31.1172631271      -49.6742816354      -11.4381090348  MEMB      356             0.0000000000
     44294       356  PMPE      H3Y           -30.0195262097      -48.6603858447      -12.4432777334  MEMB      356             0.0000000000
     44295       356  PMPE      C34           -29.4184234876      -48.8893348871      -10.4081314838  MEMB      356             0.0000000000
     44296       356  PMPE      H4X           -30.0881309567      -48.1192509014       -9.9658298827  MEMB      356             0.0000000000
     44297       356  PMPE      H4Y           -28.5122837629      -48.3553476950      -10.7421773423  MEMB      356             0.0000000000
     44298       356  PMPE      C35           -29.1386332432      -49.8691710973       -9.2738492992  MEMB      356             0.0000000000
     44299       356  PMPE      H5X           -28.7409030280      -49.2643052277       -8.4288926747  MEMB      356             0.0000000000
     44300       356  PMPE      H5Y           -28.3657335469      -50.6469047957       -9.4674649718  MEMB      356             0.0000000000
     44301       356  PMPE      C36           -30.3669470800      -50.5541860506       -8.7763045559  MEMB      356             0.0000000000
     44302       356  PMPE      H6X           -30.5226345115      -51.5050072187       -9.3437558022  MEMB      356             0.0000000000
     44303       356  PMPE      H6Y           -31.3252746747      -49.9927824967       -8.8247713334  MEMB      356             0.0000000000
     44304       356  PMPE      C37           -30.1220085873      -50.9341164900       -7.3564401587  MEMB      356             0.0000000000
     44305       356  PMPE      H7X           -29.2942196293      -51.6708814855       -7.2315780039  MEMB      356             0.0000000000
     44306       356  PMPE      H7Y           -31.0981422752      -51.3825186469       -7.2714292698  MEMB      356             0.0000000000
     44307       356  PMPE      C38           -30.0672760616      -49.9612574265       -6.1826840489  MEMB      356             0.0000000000
     44308       356  PMPE      H8X           -30.8441267902      -49.1942730472       -6.2769636544  MEMB      356             0.0000000000
     44309       356  PMPE      H8Y           -29.0473307158      -49.5377458418       -6.2095241213  MEMB      356             0.0000000000
     44310       356  PMPE      C39           -30.2104312510      -50.6272531460       -4.8145652821  MEMB      356             0.0000000000
     44311       356  PMPE      H9X           -29.4902552706      -51.4603585534       -4.8061965944  MEMB      356             0.0000000000
     44312       356  PMPE      H9Y           -31.1769489675      -51.0241961453       -4.5166576148  MEMB      356             0.0000000000
     44313       356  PMPE      C310          -30.1487046309      -49.8461731951       -3.5537170122  MEMB      356             0.0000000000
     44314       356  PMPE      H10X          -30.8560267328      -49.0012453288       -3.7060061016  MEMB      356             0.0000000000
     44315       356  PMPE      H10Y          -29.0918429668      -49.5783672737       -3.4789843311  MEMB      356             0.0000000000
     44316       356  PMPE      C311          -30.6713420386      -50.5833690667       -2.3074672821  MEMB      356             0.0000000000
     44317       356  PMPE      H11X          -31.7256558429      -50.8338602895       -2.4978641018  MEMB      356             0.0000000000
     44318       356  PMPE      H11Y          -30.6787093897      -49.8927259439       -1.4493713537  MEMB      356             0.0000000000
     44319       356  PMPE      C312          -29.9168802923      -51.7965195082       -1.7996924518  MEMB      356             0.0000000000
     44320       356  PMPE      H12X          -29.6290827653      -52.5506619424       -2.5178294563  MEMB      356             0.0000000000
     44321       356  PMPE      H12Y          -30.5261803091      -52.2613278918       -0.9881938007  MEMB      356             0.0000000000
     44322       356  PMPE      C313          -28.4876826591      -51.5898795326       -1.3819521667  MEMB      356             0.0000000000
     44323       356  PMPE      H13X          -28.2716523272      -50.9402309927       -0.5458456416  MEMB      356             0.0000000000
     44324       356  PMPE      H13Y          -27.9838040263      -51.0761003308       -2.1919973278  MEMB      356             0.0000000000
     44325       356  PMPE      C314          -27.8504375416      -52.9029864626       -1.0737591340  MEMB      356             0.0000000000
     44326       356  PMPE      H14X          -26.8059423255      -52.7119047329       -0.8350052900  MEMB      356             0.0000000000
     44327       356  PMPE      H14Y          -27.9261822429      -53.5791643731       -1.9085055711  MEMB      356             0.0000000000
     44328       356  PMPE      C315          -28.3036740165      -53.6212273619        0.0645325706  MEMB      356             0.0000000000
     44329       356  PMPE      H15X          -29.4171045730      -53.7667527628        0.0370163783  MEMB      356             0.0000000000
     44330       356  PMPE      H15Y          -28.0115846112      -52.7539516669        0.6949912207  MEMB      356             0.0000000000
     44331       356  PMPE      C316          -27.5110196498      -54.7586475488        0.6700953581  MEMB      356             0.0000000000
     44332       356  PMPE      H16X          -27.3983535177      -55.6229327505        0.0603788229  MEMB      356             0.0000000000
     44333       356  PMPE      H16Y          -27.9993619990      -55.1925030511        1.5725024471  MEMB      356             0.0000000000
     44334       356  PMPE      H16Z          -26.4835295436      -54.4481825074        0.8794687497  MEMB      356             0.0000000000
     44335       357  PMPG      C13            22.8448142498      -52.0569488482      -19.4722085174  MEMB      357             0.0000000000
     44336       357  PMPG      H13A           23.1788368581      -51.5732548053      -20.4256079801  MEMB      357             0.0000000000
     44337       357  PMPG      H13B           22.2266983804      -52.9584954176      -19.6805314654  MEMB      357             0.0000000000
     44338       357  PMPG      OC3            22.0356048092      -51.1616920023      -18.7175556865  MEMB      357             0.0000000000
     44339       357  PMPG      HO3            22.3941518630      -50.2889501330      -18.9057276344  MEMB      357             0.0000000000
     44340       357  PMPG      C12            24.0797103779      -52.5370987555      -18.6711290522  MEMB      357             0.0000000000
     44341       357  PMPG      H12A           24.5921849018      -53.3128503662      -19.2650207021  MEMB      357             0.0000000000
     44342       357  PMPG      OC2            23.6773066653      -53.1660148427      -17.4796237244  MEMB      357             0.0000000000
     44343       357  PMPG      HO2            24.4720592601      -53.2151010823      -16.9370223067  MEMB      357             0.0000000000
     44344       357  PMPG      C11            25.1191933078      -51.4645491219      -18.3485248735  MEMB      357             0.0000000000
     44345       357  PMPG      H11A           26.0675548196      -51.9528220275      -18.0106896389  MEMB      357             0.0000000000
     44346       357  PMPG      H11B           24.7342141209      -50.8621125170      -17.4908076058  MEMB      357             0.0000000000
     44347       357  PMPG      P              26.5033784449      -49.6492440624      -19.5694517222  MEMB      357             0.0000000000
     44348       357  PMPG      O13            26.3252614248      -48.6455183426      -20.6384520233  MEMB      357             0.0000000000
     44349       357  PMPG      O14            27.7970024123      -50.3485215134      -19.4667515659  MEMB      357             0.0000000000
     44350       357  PMPG      O11            26.3374399295      -48.9028795427      -18.1764391140  MEMB      357             0.0000000000
     44351       357  PMPG      O12            25.3166526305      -50.6963450168      -19.5399383058  MEMB      357             0.0000000000
     44352       357  PMPG      C1             25.1872368695      -48.0889712525      -17.9495078827  MEMB      357             0.0000000000
     44353       357  PMPG      HA             24.2821649937      -48.7334326263      -17.8736841857  MEMB      357             0.0000000000
     44354       357  PMPG      HB             25.0055628150      -47.4142218684      -18.8140207865  MEMB      357             0.0000000000
     44355       357  PMPG      C2             25.2564851105      -47.3263983952      -16.5893557909  MEMB      357             0.0000000000
     44356       357  PMPG      HS             25.9125178387      -46.4318782117      -16.6911522341  MEMB      357             0.0000000000
     44357       357  PMPG      O21            25.7567488914      -48.1956918300      -15.5789763538  MEMB      357             0.0000000000
     44358       357  PMPG      C21            26.1182582241      -47.6887746324      -14.4356841186  MEMB      357             0.0000000000
     44359       357  PMPG      O22            26.1781553045      -46.5031131509      -14.1437352105  MEMB      357             0.0000000000
     44360       357  PMPG      C22            26.5386787201      -48.8707462362      -13.5850021259  MEMB      357             0.0000000000
     44361       357  PMPG      H2R            27.6404024960      -48.8460414780      -13.5180093737  MEMB      357             0.0000000000
     44362       357  PMPG      H2S            26.3309511664      -49.8236388715      -14.1238125676  MEMB      357             0.0000000000
     44363       357  PMPG      C3             23.8488602512      -46.8671299011      -16.2004606695  MEMB      357             0.0000000000
     44364       357  PMPG      HX             23.5179524165      -46.2281875988      -17.0448633331  MEMB      357             0.0000000000
     44365       357  PMPG      HY             23.9014428292      -46.2089993988      -15.3132692432  MEMB      357             0.0000000000
     44366       357  PMPG      O31            22.9842600646      -48.0091931201      -16.0587137561  MEMB      357             0.0000000000
     44367       357  PMPG      C31            22.7024651005      -48.4297221920      -14.8620421554  MEMB      357             0.0000000000
     44368       357  PMPG      O32            22.9886962586      -47.9288741200      -13.7860937107  MEMB      357             0.0000000000
     44369       357  PMPG      C32            21.9123366277      -49.6948780581      -15.0354163080  MEMB      357             0.0000000000
     44370       357  PMPG      H2X            21.6708177966      -49.9512548561      -16.0747296616  MEMB      357             0.0000000000
     44371       357  PMPG      H2Y            21.0554472703      -49.3446452950      -14.6420965640  MEMB      357             0.0000000000
     44372       357  PMPG      C23            25.8474807749      -48.7245108381      -12.2218073308  MEMB      357             0.0000000000
     44373       357  PMPG      H3R            24.8040109720      -49.1005217460      -12.3016401854  MEMB      357             0.0000000000
     44374       357  PMPG      H3S            25.7494628275      -47.6355347406      -11.9522929319  MEMB      357             0.0000000000
     44375       357  PMPG      C24            26.6354931054      -49.4547913259      -11.1295153581  MEMB      357             0.0000000000
     44376       357  PMPG      H4R            27.6828413288      -49.0707683886      -11.1679692357  MEMB      357             0.0000000000
     44377       357  PMPG      H4S            26.7018376655      -50.5573810376      -11.2967118744  MEMB      357             0.0000000000
     44378       357  PMPG      C25            26.1761653195      -49.1034700868       -9.7055571551  MEMB      357             0.0000000000
     44379       357  PMPG      H5R            26.3060532395      -48.0110345257       -9.5475177465  MEMB      357             0.0000000000
     44380       357  PMPG      H5S            26.8474923447      -49.6193685592       -8.9880839932  MEMB      357             0.0000000000
     44381       357  PMPG      C26            24.7454707284      -49.4576978847       -9.2820952352  MEMB      357             0.0000000000
     44382       357  PMPG      H6R            24.7272045651      -50.5464097682       -9.0926938039  MEMB      357             0.0000000000
     44383       357  PMPG      H6S            24.0148191438      -49.2459308076      -10.0934616758  MEMB      357             0.0000000000
     44384       357  PMPG      C27            24.3846735050      -48.7140149050       -7.9777237324  MEMB      357             0.0000000000
     44385       357  PMPG      H7R            24.5244049208      -47.6261459477       -8.1454994940  MEMB      357             0.0000000000
     44386       357  PMPG      H7S            25.0520347903      -49.0023364943       -7.1411013678  MEMB      357             0.0000000000
     44387       357  PMPG      C28            22.9628129341      -48.8415586752       -7.4874494355  MEMB      357             0.0000000000
     44388       357  PMPG      H8R            22.8376074404      -48.2827547170       -6.5421839927  MEMB      357             0.0000000000
     44389       357  PMPG      H8S            22.6248601704      -49.8894598947       -7.3626926861  MEMB      357             0.0000000000
     44390       357  PMPG      C29            22.1330866785      -48.1956593960       -8.4568509725  MEMB      357             0.0000000000
     44391       357  PMPG      H9R            22.4028754872      -47.3587652280       -9.0863933784  MEMB      357             0.0000000000
     44392       357  PMPG      C217           21.3475302987      -49.1873748766       -9.1842806721  MEMB      357             0.0000000000
     44393       357  PMPG      H17R           20.9511734595      -48.9409893210      -10.1526527800  MEMB      357             0.0000000000
     44394       357  PMPG      H17S           21.1504515443      -50.1681672150       -8.7746978802  MEMB      357             0.0000000000
     44395       357  PMPG      C210           20.7957223278      -48.0645603664       -8.1272337185  MEMB      357             0.0000000000
     44396       357  PMPG      H10R           20.4852350839      -47.0773981960       -8.6549084001  MEMB      357             0.0000000000
     44397       357  PMPG      C211           19.8471516089      -48.5999937244       -6.9167031389  MEMB      357             0.0000000000
     44398       357  PMPG      H11R           18.7085207508      -48.6542862595       -6.9049865804  MEMB      357             0.0000000000
     44399       357  PMPG      H11S           20.1012360404      -49.5367316804       -6.8863812601  MEMB      357             0.0000000000
     44400       357  PMPG      C212           19.9399533111      -47.8518072878       -5.7213681697  MEMB      357             0.0000000000
     44401       357  PMPG      H12R           19.6227817972      -46.8474210763       -5.7498191326  MEMB      357             0.0000000000
     44402       357  PMPG      H12S           21.0213500082      -47.9568819244       -5.4698408414  MEMB      357             0.0000000000
     44403       357  PMPG      C213           19.0056056325      -48.3419693629       -4.6171009526  MEMB      357             0.0000000000
     44404       357  PMPG      H13R           18.8261590298      -49.3682026342       -4.6634563582  MEMB      357             0.0000000000
     44405       357  PMPG      H13S           18.1363999870      -48.2421884685       -4.4702443668  MEMB      357             0.0000000000
     44406       357  PMPG      C214           19.1092969095      -47.6995128372       -3.3188066717  MEMB      357             0.0000000000
     44407       357  PMPG      H14R           19.5633996639      -46.7166616047       -3.3614837697  MEMB      357             0.0000000000
     44408       357  PMPG      H14S           19.9995185510      -48.0663674638       -3.8018857040  MEMB      357             0.0000000000
     44409       357  PMPG      C215           18.7541414232      -48.3980741307       -1.8131613193  MEMB      357             0.0000000000
     44410       357  PMPG      H15R           19.4672454074      -48.2792534973       -0.9540067018  MEMB      357             0.0000000000
     44411       357  PMPG      H15S           18.4742899627      -49.4964908593       -1.7506669225  MEMB      357             0.0000000000
     44412       357  PMPG      C216           17.8949989927      -47.8419351677       -1.3871562173  MEMB      357             0.0000000000
     44413       357  PMPG      H16R           17.3680598828      -47.9392556321       -2.2359914189  MEMB      357             0.0000000000
     44414       357  PMPG      H16S           18.0149533742      -46.7305503285       -1.3476797467  MEMB      357             0.0000000000
     44415       357  PMPG      H16T           17.2001444899      -48.2682640708       -0.7316367693  MEMB      357             0.0000000000
     44416       357  PMPG      C33            22.3036027524      -50.8730074388      -14.1666222445  MEMB      357             0.0000000000
     44417       357  PMPG      H3X            21.5132690766      -51.6479142602      -14.0353497803  MEMB      357             0.0000000000
     44418       357  PMPG      H3Y            22.5486176008      -50.5207015417      -13.1456093695  MEMB      357             0.0000000000
     44419       357  PMPG      C34            23.3702298893      -51.4964084982      -15.0041994862  MEMB      357             0.0000000000
     44420       357  PMPG      H4X            24.1743055799      -50.7391082942      -15.0992672052  MEMB      357             0.0000000000
     44421       357  PMPG      H4Y            22.8821960608      -51.6910328957      -15.9961241104  MEMB      357             0.0000000000
     44422       357  PMPG      C35            23.8563558108      -52.8368923631      -14.5010776183  MEMB      357             0.0000000000
     44423       357  PMPG      H5X            24.4702254858      -53.3236478007      -15.2849582522  MEMB      357             0.0000000000
     44424       357  PMPG      H5Y            22.9428758047      -53.4502560390      -14.3283367585  MEMB      357             0.0000000000
     44425       357  PMPG      C36            24.6910077779      -52.7717188085      -13.2320218092  MEMB      357             0.0000000000
     44426       357  PMPG      H6X            24.2616938742      -51.9963780753      -12.5829785399  MEMB      357             0.0000000000
     44427       357  PMPG      H6Y            25.7513293153      -52.5425145881      -13.5016426312  MEMB      357             0.0000000000
     44428       357  PMPG      C37            24.5424595298      -54.0478652806      -12.4315930879  MEMB      357             0.0000000000
     44429       357  PMPG      H7X            24.7752474247      -54.7687063635      -13.2329621722  MEMB      357             0.0000000000
     44430       357  PMPG      H7Y            23.4736981388      -54.2281126790      -12.1501175948  MEMB      357             0.0000000000
     44431       357  PMPG      C38            25.4623146200      -54.1672737535      -11.2066617097  MEMB      357             0.0000000000
     44432       357  PMPG      H8X            26.4264640454      -53.6562972910      -11.4004224113  MEMB      357             0.0000000000
     44433       357  PMPG      H8Y            25.7228983272      -55.2182367561      -10.9620481580  MEMB      357             0.0000000000
     44434       357  PMPG      C39            24.7651286525      -53.5383507169      -10.0002706745  MEMB      357             0.0000000000
     44435       357  PMPG      H9X            23.7655395433      -53.9965847611       -9.8253283505  MEMB      357             0.0000000000
     44436       357  PMPG      H9Y            24.5870655909      -52.4861405486      -10.2691063203  MEMB      357             0.0000000000
     44437       357  PMPG      C310           25.6150426714      -53.5165344062       -8.7382711903  MEMB      357             0.0000000000
     44438       357  PMPG      H10X           26.5511274128      -52.9358205629       -8.9430889008  MEMB      357             0.0000000000
     44439       357  PMPG      H10Y           25.8771972510      -54.5588003659       -8.4966962120  MEMB      357             0.0000000000
     44440       357  PMPG      C311           24.8460152415      -53.0970343670       -7.4818276196  MEMB      357             0.0000000000
     44441       357  PMPG      H11X           23.8302008677      -53.5709936741       -7.4436320371  MEMB      357             0.0000000000
     44442       357  PMPG      H11Y           24.6761302114      -52.0129260004       -7.5276928301  MEMB      357             0.0000000000
     44443       357  PMPG      C312           25.5948944031      -53.4361155644       -6.1833626873  MEMB      357             0.0000000000
     44444       357  PMPG      H12X           26.6427892230      -53.0567467246       -6.1343269907  MEMB      357             0.0000000000
     44445       357  PMPG      H12Y           25.6686765430      -54.5446907307       -6.1218390216  MEMB      357             0.0000000000
     44446       357  PMPG      C313           24.8573643184      -52.9462264454       -4.9306010742  MEMB      357             0.0000000000
     44447       357  PMPG      H13X           25.6081336464      -52.9811278328       -4.1094005641  MEMB      357             0.0000000000
     44448       357  PMPG      H13Y           24.0168787919      -53.6527151972       -4.7408330465  MEMB      357             0.0000000000
     44449       357  PMPG      C314           24.3348084801      -51.5126551617       -4.9814997624  MEMB      357             0.0000000000
     44450       357  PMPG      H14X           23.6071872760      -51.4091332210       -5.8367925189  MEMB      357             0.0000000000
     44451       357  PMPG      H14Y           25.2018391647      -50.8548896616       -5.1850792643  MEMB      357             0.0000000000
     44452       357  PMPG      C315           23.6313802321      -51.0794908303       -3.6865963615  MEMB      357             0.0000000000
     44453       357  PMPG      H15X           22.8496085304      -51.8222200730       -3.4102453726  MEMB      357             0.0000000000
     44454       357  PMPG      H15Y           23.2136532539      -50.1656768800       -4.0681800952  MEMB      357             0.0000000000
     44455       357  PMPG      C316           24.3147318270      -50.6299788982       -2.3954327124  MEMB      357             0.0000000000
     44456       357  PMPG      H16X           25.0385632910      -49.8020440327       -2.5028676918  MEMB      357             0.0000000000
     44457       357  PMPG      H16Y           24.8156792442      -51.5189002423       -1.9775905231  MEMB      357             0.0000000000
     44458       357  PMPG      H16Z           23.5534423512      -50.2545568722       -1.6664623478  MEMB      357             0.0000000000
     44459       358  PMPE      N             -47.3534506551       32.0801635855      -16.2269429388  MEMB      358             0.0000000000
     44460       358  PMPE      HN1           -47.9512231151       31.2966552796      -15.9192309657  MEMB      358             0.0000000000
     44461       358  PMPE      HN2           -46.4103184200       31.6662413961      -16.3700586101  MEMB      358             0.0000000000
     44462       358  PMPE      HN3           -47.3095699707       32.7681106138      -15.4437744968  MEMB      358             0.0000000000
     44463       358  PMPE      C12           -47.9572464110       32.6945558278      -17.4869626495  MEMB      358             0.0000000000
     44464       358  PMPE      H12A          -47.1839771392       33.2548782359      -18.0529378953  MEMB      358             0.0000000000
     44465       358  PMPE      H12B          -48.7458239676       33.3908507156      -17.1398282325  MEMB      358             0.0000000000
     44466       358  PMPE      C11           -48.6312791578       31.6887339686      -18.4489732581  MEMB      358             0.0000000000
     44467       358  PMPE      H11A          -48.9640569392       32.2795001860      -19.3511037422  MEMB      358             0.0000000000
     44468       358  PMPE      H11B          -49.5150240182       31.2319360086      -17.9634230030  MEMB      358             0.0000000000
     44469       358  PMPE      P             -48.0163955248       29.6899213715      -20.0547812212  MEMB      358             0.0000000000
     44470       358  PMPE      O13           -46.8812050332       28.7556895425      -20.1626141997  MEMB      358             0.0000000000
     44471       358  PMPE      O14           -48.2562279385       30.6442767771      -21.1586249233  MEMB      358             0.0000000000
     44472       358  PMPE      O11           -49.3380653504       28.9681527455      -19.6852555120  MEMB      358             0.0000000000
     44473       358  PMPE      O12           -47.7518938567       30.6249999885      -18.7780046835  MEMB      358             0.0000000000
     44474       358  PMPE      C1            -49.3397009916       27.6671823205      -19.1696354687  MEMB      358             0.0000000000
     44475       358  PMPE      HA            -48.6061067290       27.6194151799      -18.3894578797  MEMB      358             0.0000000000
     44476       358  PMPE      HB            -49.0327559909       26.8599043138      -19.8942585060  MEMB      358             0.0000000000
     44477       358  PMPE      C2            -50.7213860118       27.4341718124      -18.5431547153  MEMB      358             0.0000000000
     44478       358  PMPE      HS            -51.4888678250       27.3395883246      -19.3661914087  MEMB      358             0.0000000000
     44479       358  PMPE      O21           -51.0932540210       28.3868009440      -17.5565211768  MEMB      358             0.0000000000
     44480       358  PMPE      C21           -52.3709588383       28.4724437584      -17.2667839348  MEMB      358             0.0000000000
     44481       358  PMPE      O22           -53.2982292549       28.0464593696      -17.8900653976  MEMB      358             0.0000000000
     44482       358  PMPE      C22           -52.5290274306       29.2743683275      -16.0164854918  MEMB      358             0.0000000000
     44483       358  PMPE      H2R           -52.5957528506       30.3344942330      -16.3420234246  MEMB      358             0.0000000000
     44484       358  PMPE      H2S           -51.6014123131       29.1070935451      -15.4464348173  MEMB      358             0.0000000000
     44485       358  PMPE      C3            -50.6355959206       26.1759560438      -17.8470505427  MEMB      358             0.0000000000
     44486       358  PMPE      HX            -50.2974838739       25.6392132047      -18.7561964621  MEMB      358             0.0000000000
     44487       358  PMPE      HY            -51.5731929897       25.9363270841      -17.4108890351  MEMB      358             0.0000000000
     44488       358  PMPE      O31           -49.7392632511       26.2141493366      -16.8072910012  MEMB      358             0.0000000000
     44489       358  PMPE      C31           -50.0480039349       25.9720303322      -15.4356518954  MEMB      358             0.0000000000
     44490       358  PMPE      O32           -51.1396156231       25.5192732006      -15.2064410939  MEMB      358             0.0000000000
     44491       358  PMPE      C32           -48.6487003969       25.7223216671      -14.4082729585  MEMB      358             0.0000000000
     44492       358  PMPE      H2X           -47.8420244171       26.2986739666      -14.5040498781  MEMB      358             0.0000000000
     44493       358  PMPE      H2Y           -47.9176874575       24.7606846762      -14.4546406322  MEMB      358             0.0000000000
     44494       358  PMPE      C23           -53.7546268269       28.8289339291      -15.2039642819  MEMB      358             0.0000000000
     44495       358  PMPE      H3R           -53.7344003395       27.7287646648      -15.0222662597  MEMB      358             0.0000000000
     44496       358  PMPE      H3S           -54.6499995393       29.0112755711      -15.8344800446  MEMB      358             0.0000000000
     44497       358  PMPE      C24           -53.8451509732       29.5033703578      -13.8271937703  MEMB      358             0.0000000000
     44498       358  PMPE      H4R           -54.7077053789       28.9974217284      -13.3492078601  MEMB      358             0.0000000000
     44499       358  PMPE      H4S           -54.0609379600       30.5873446178      -13.9528319653  MEMB      358             0.0000000000
     44500       358  PMPE      C25           -52.6008120250       29.2396228739      -12.9668680125  MEMB      358             0.0000000000
     44501       358  PMPE      H5R           -51.9066508950       30.0865366686      -12.9717503583  MEMB      358             0.0000000000
     44502       358  PMPE      H5S           -52.1483254523       28.3129178669      -13.3994133580  MEMB      358             0.0000000000
     44503       358  PMPE      C26           -52.8049539960       28.9466784317      -11.4996513974  MEMB      358             0.0000000000
     44504       358  PMPE      H6R           -51.8793200800       28.5800629519      -10.9799048017  MEMB      358             0.0000000000
     44505       358  PMPE      H6S           -53.5422382785       28.1346662298      -11.6617827478  MEMB      358             0.0000000000
     44506       358  PMPE      C27           -53.6503469639       29.8840133159      -10.6677479619  MEMB      358             0.0000000000
     44507       358  PMPE      H7R           -54.6916348514       29.6654161832      -11.0057682115  MEMB      358             0.0000000000
     44508       358  PMPE      H7S           -53.3857592757       30.9146991249      -10.8319928838  MEMB      358             0.0000000000
     44509       358  PMPE      C28           -53.4110092581       30.0024271851       -9.1538336385  MEMB      358             0.0000000000
     44510       358  PMPE      H8R           -53.3464304167       29.0672036467       -9.0264762606  MEMB      358             0.0000000000
     44511       358  PMPE      H8S           -54.2554567786       30.2693944652       -8.5052951039  MEMB      358             0.0000000000
     44512       358  PMPE      C29           -52.0357762619       29.7909618415       -8.5840339042  MEMB      358             0.0000000000
     44513       358  PMPE      H9R           -51.4744549043       30.6254170907       -8.9039378997  MEMB      358             0.0000000000
     44514       358  PMPE      C217          -51.3104402765       28.4570775368       -8.2733663110  MEMB      358             0.0000000000
     44515       358  PMPE      H17R          -50.3454783873       28.4489771380       -8.7166738438  MEMB      358             0.0000000000
     44516       358  PMPE      H17S          -51.8352401405       27.5664939010       -8.1831004956  MEMB      358             0.0000000000
     44517       358  PMPE      C210          -51.7414811900       29.3660749749       -7.1465872277  MEMB      358             0.0000000000
     44518       358  PMPE      H10R          -51.0796327247       30.1204829911       -6.7957894683  MEMB      358             0.0000000000
     44519       358  PMPE      C211          -52.7707126004       29.0410365287       -6.0624879332  MEMB      358             0.0000000000
     44520       358  PMPE      H11R          -53.5108605687       28.3990696644       -6.3008654423  MEMB      358             0.0000000000
     44521       358  PMPE      H11S          -53.5274173805       29.8048278619       -5.9610367565  MEMB      358             0.0000000000
     44522       358  PMPE      C212          -52.1833355614       28.3879840479       -4.8088527164  MEMB      358             0.0000000000
     44523       358  PMPE      H12R          -51.3596531373       28.9303238037       -4.4261733150  MEMB      358             0.0000000000
     44524       358  PMPE      H12S          -51.8020351022       27.3752062205       -5.1218561991  MEMB      358             0.0000000000
     44525       358  PMPE      C213          -53.0827017987       28.3471074801       -3.5825950476  MEMB      358             0.0000000000
     44526       358  PMPE      H13R          -53.6612520428       27.6009392254       -3.7937743544  MEMB      358             0.0000000000
     44527       358  PMPE      H13S          -53.9508136248       28.9978437758       -3.5262868254  MEMB      358             0.0000000000
     44528       358  PMPE      C214          -52.5428461678       27.6705667535       -2.3220622443  MEMB      358             0.0000000000
     44529       358  PMPE      H14R          -51.8372529467       26.8030258919       -2.4903125798  MEMB      358             0.0000000000
     44530       358  PMPE      H14S          -53.3499904817       27.2812999619       -1.6468884761  MEMB      358             0.0000000000
     44531       358  PMPE      C215          -51.8347734666       28.5131869541       -1.4965297751  MEMB      358             0.0000000000
     44532       358  PMPE      H15R          -51.0307634979       28.8999688806       -2.1314224112  MEMB      358             0.0000000000
     44533       358  PMPE      H15S          -51.4475389856       27.8234913768       -0.7146248170  MEMB      358             0.0000000000
     44534       358  PMPE      C216          -52.7695376239       29.5173174475       -0.9249369001  MEMB      358             0.0000000000
     44535       358  PMPE      H16R          -53.3580001282       30.1188394674       -1.6543106558  MEMB      358             0.0000000000
     44536       358  PMPE      H16S          -53.4569402321       29.0148384972       -0.2112760237  MEMB      358             0.0000000000
     44537       358  PMPE      H16T          -52.0999201561       30.1685374145       -0.3584975028  MEMB      358             0.0000000000
     44538       358  PMPE      C33           -48.4612432107       25.8335083834      -13.0683695044  MEMB      358             0.0000000000
     44539       358  PMPE      H3X           -47.4929236137       25.3689911227      -12.7676276391  MEMB      358             0.0000000000
     44540       358  PMPE      H3Y           -49.1015208730       25.1991993071      -13.3663391449  MEMB      358             0.0000000000
     44541       358  PMPE      C34           -49.1144938073       27.0098512272      -12.6648044652  MEMB      358             0.0000000000
     44542       358  PMPE      H4X           -49.2898107814       26.8345373074      -11.6284666351  MEMB      358             0.0000000000
     44543       358  PMPE      H4Y           -50.0074676960       27.1243620054      -13.3042055363  MEMB      358             0.0000000000
     44544       358  PMPE      C35           -48.2830213120       28.2105986877      -12.6989788859  MEMB      358             0.0000000000
     44545       358  PMPE      H5X           -47.9826571690       28.2866969731      -13.7784036713  MEMB      358             0.0000000000
     44546       358  PMPE      H5Y           -47.4343231886       28.0296671751      -11.9886086554  MEMB      358             0.0000000000
     44547       358  PMPE      C36           -48.8583992147       29.4927769959      -12.4506376100  MEMB      358             0.0000000000
     44548       358  PMPE      H6X           -49.2392275234       29.3529131330      -11.4298984509  MEMB      358             0.0000000000
     44549       358  PMPE      H6Y           -49.6863282644       29.5423128770      -13.1772202426  MEMB      358             0.0000000000
     44550       358  PMPE      C37           -47.7844833405       30.5684865167      -12.6433338267  MEMB      358             0.0000000000
     44551       358  PMPE      H7X           -47.2591541153       30.4305432428      -13.6219694870  MEMB      358             0.0000000000
     44552       358  PMPE      H7Y           -47.0110073471       30.4829372697      -11.8411734289  MEMB      358             0.0000000000
     44553       358  PMPE      C38           -48.3453744434       31.9879162994      -12.6026024541  MEMB      358             0.0000000000
     44554       358  PMPE      H8X           -49.0136049769       32.1603691268      -13.4751711675  MEMB      358             0.0000000000
     44555       358  PMPE      H8Y           -47.4703207540       32.6788079950      -12.6267284048  MEMB      358             0.0000000000
     44556       358  PMPE      C39           -49.2550080986       32.3287709750      -11.4107995548  MEMB      358             0.0000000000
     44557       358  PMPE      H9X           -50.1673397447       31.6810442527      -11.4751248558  MEMB      358             0.0000000000
     44558       358  PMPE      H9Y           -49.5941741807       33.3833886557      -11.5718579514  MEMB      358             0.0000000000
     44559       358  PMPE      C310          -48.5747919620       32.2175447925      -10.0277768211  MEMB      358             0.0000000000
     44560       358  PMPE      H10X          -47.5430902702       32.6458816194      -10.0425623556  MEMB      358             0.0000000000
     44561       358  PMPE      H10Y          -48.4098283835       31.1502000676       -9.7784430526  MEMB      358             0.0000000000
     44562       358  PMPE      C311          -49.4428572346       32.8441241770       -8.9080467125  MEMB      358             0.0000000000
     44563       358  PMPE      H11X          -50.4783847164       32.4529520146       -8.9155367452  MEMB      358             0.0000000000
     44564       358  PMPE      H11Y          -49.5755045439       33.9211379575       -9.0965395600  MEMB      358             0.0000000000
     44565       358  PMPE      C312          -48.9739555221       32.5142830883       -7.4841098278  MEMB      358             0.0000000000
     44566       358  PMPE      H12X          -47.9251421810       32.8442011846       -7.3209161120  MEMB      358             0.0000000000
     44567       358  PMPE      H12Y          -49.0536239542       31.4049702901       -7.4295211845  MEMB      358             0.0000000000
     44568       358  PMPE      C313          -49.8515378618       33.0774862613       -6.3501059406  MEMB      358             0.0000000000
     44569       358  PMPE      H13X          -50.9200025411       33.0924813363       -6.6640978892  MEMB      358             0.0000000000
     44570       358  PMPE      H13Y          -49.5579979878       34.1495687794       -6.2363201270  MEMB      358             0.0000000000
     44571       358  PMPE      C314          -49.7573738284       32.2496651664       -5.0274567475  MEMB      358             0.0000000000
     44572       358  PMPE      H14X          -48.7150791594       31.9983301678       -4.7349291702  MEMB      358             0.0000000000
     44573       358  PMPE      H14Y          -50.1270786220       31.2156385204       -5.1313211387  MEMB      358             0.0000000000
     44574       358  PMPE      C315          -50.4234545174       32.9722147169       -3.8357116021  MEMB      358             0.0000000000
     44575       358  PMPE      H15X          -51.5439055515       33.0122098898       -3.8115245940  MEMB      358             0.0000000000
     44576       358  PMPE      H15Y          -50.0845294189       34.0154480244       -3.9731857541  MEMB      358             0.0000000000
     44577       358  PMPE      C316          -49.9522332178       32.4931058052       -2.4602632525  MEMB      358             0.0000000000
     44578       358  PMPE      H16X          -50.0622611225       33.2813553519       -1.6908942748  MEMB      358             0.0000000000
     44579       358  PMPE      H16Y          -48.8762099203       32.2339913087       -2.4112289317  MEMB      358             0.0000000000
     44580       358  PMPE      H16Z          -50.5782264103       31.6169008978       -2.1859169606  MEMB      358             0.0000000000
     44581       359  PMPE      N              34.1691594095       49.0856933158      -17.7791923269  MEMB      359             0.0000000000
     44582       359  PMPE      HN1            33.4733739051       49.0986422157      -18.5509416360  MEMB      359             0.0000000000
     44583       359  PMPE      HN2            33.7052893754       49.4192946758      -16.8996494641  MEMB      359             0.0000000000
     44584       359  PMPE      HN3            34.9757677543       49.6722115920      -18.0991190142  MEMB      359             0.0000000000
     44585       359  PMPE      C12            34.6029585954       47.6379902642      -17.6563618092  MEMB      359             0.0000000000
     44586       359  PMPE      H12A           34.0110941873       47.1787419567      -16.8294804252  MEMB      359             0.0000000000
     44587       359  PMPE      H12B           35.6537958719       47.6310060726      -17.3177147670  MEMB      359             0.0000000000
     44588       359  PMPE      C11            34.3798949259       46.8634586299      -18.9850105547  MEMB      359             0.0000000000
     44589       359  PMPE      H11A           34.6476276531       45.7900123790      -18.8341791733  MEMB      359             0.0000000000
     44590       359  PMPE      H11B           34.9789553106       47.1968546024      -19.8594542474  MEMB      359             0.0000000000
     44591       359  PMPE      P              31.9793690283       45.8587660192      -19.5624574536  MEMB      359             0.0000000000
     44592       359  PMPE      O13            32.3978054054       44.6801016102      -18.7782042189  MEMB      359             0.0000000000
     44593       359  PMPE      O14            31.6814296012       45.7081014508      -20.9925915081  MEMB      359             0.0000000000
     44594       359  PMPE      O11            30.8241738384       46.6263006421      -18.8381556209  MEMB      359             0.0000000000
     44595       359  PMPE      O12            33.0483252439       47.0241567022      -19.3981313386  MEMB      359             0.0000000000
     44596       359  PMPE      C1             30.2954039587       47.7717887460      -19.5364293306  MEMB      359             0.0000000000
     44597       359  PMPE      HA             29.6326850469       47.4966806316      -20.3620914954  MEMB      359             0.0000000000
     44598       359  PMPE      HB             31.1105597085       48.3876260050      -19.9583210996  MEMB      359             0.0000000000
     44599       359  PMPE      C2             29.5241661398       48.7166406501      -18.6846505762  MEMB      359             0.0000000000
     44600       359  PMPE      HS             29.3428388145       49.6403173414      -19.3266708515  MEMB      359             0.0000000000
     44601       359  PMPE      O21            30.4677396330       48.8953906168      -17.6418396985  MEMB      359             0.0000000000
     44602       359  PMPE      C21            29.9929581387       49.7775681060      -17.1125072421  MEMB      359             0.0000000000
     44603       359  PMPE      O22            29.0823143328       50.5268656614      -17.5836439916  MEMB      359             0.0000000000
     44604       359  PMPE      C22            30.8297487676       49.9080777287      -15.8156567065  MEMB      359             0.0000000000
     44605       359  PMPE      H2R            31.7803770509       50.4740047035      -16.3549649458  MEMB      359             0.0000000000
     44606       359  PMPE      H2S            31.4055805296       49.0891097378      -15.4608167701  MEMB      359             0.0000000000
     44607       359  PMPE      C3             28.1763398653       48.1904437895      -18.1703872925  MEMB      359             0.0000000000
     44608       359  PMPE      HX             27.5980610852       48.1408310637      -19.1419344200  MEMB      359             0.0000000000
     44609       359  PMPE      HY             27.6196387738       48.8933708796      -17.5265271463  MEMB      359             0.0000000000
     44610       359  PMPE      O31            28.4837733779       46.9435934375      -17.4920786705  MEMB      359             0.0000000000
     44611       359  PMPE      C31            27.8162714356       46.6178904366      -16.4253018184  MEMB      359             0.0000000000
     44612       359  PMPE      O32            27.1074953502       47.3781183953      -15.8079862953  MEMB      359             0.0000000000
     44613       359  PMPE      C32            28.0306666449       45.1539754340      -16.0964006685  MEMB      359             0.0000000000
     44614       359  PMPE      H2X            28.5440800274       44.6442355434      -16.9309801796  MEMB      359             0.0000000000
     44615       359  PMPE      H2Y            27.0294014498       44.6953468692      -15.9235821225  MEMB      359             0.0000000000
     44616       359  PMPE      C23            30.1628395577       50.4725107147      -14.1723227813  MEMB      359             0.0000000000
     44617       359  PMPE      H3R            29.3025419449       50.1964662573      -13.9713389973  MEMB      359             0.0000000000
     44618       359  PMPE      H3S            29.6048460814       51.6354578523      -13.9657056810  MEMB      359             0.0000000000
     44619       359  PMPE      C24            31.1956887814       50.4288283445      -13.0140574415  MEMB      359             0.0000000000
     44620       359  PMPE      H4R            30.5293425537       50.9872271906      -12.2959972317  MEMB      359             0.0000000000
     44621       359  PMPE      H4S            32.3443627831       50.7365451298      -13.2988182981  MEMB      359             0.0000000000
     44622       359  PMPE      C25            32.0355186248       49.4378433684      -12.6025989697  MEMB      359             0.0000000000
     44623       359  PMPE      H5R            32.5945778413       49.0784204399      -13.4838987757  MEMB      359             0.0000000000
     44624       359  PMPE      H5S            31.0614291111       49.1191709184      -12.2859340766  MEMB      359             0.0000000000
     44625       359  PMPE      C26            32.9922806921       49.5398514531      -11.4790304625  MEMB      359             0.0000000000
     44626       359  PMPE      H6R            33.8035196251       50.3285080775      -11.7963105190  MEMB      359             0.0000000000
     44627       359  PMPE      H6S            33.5249466737       48.6892678517      -11.3615945320  MEMB      359             0.0000000000
     44628       359  PMPE      C27            32.2059709519       49.6846535627      -10.1096941489  MEMB      359             0.0000000000
     44629       359  PMPE      H7R            31.2073210694       49.3623435332      -10.0956459047  MEMB      359             0.0000000000
     44630       359  PMPE      H7S            31.4317880119       50.5331559681      -10.3601470254  MEMB      359             0.0000000000
     44631       359  PMPE      C28            33.3095109829       49.9758154365       -9.0088695078  MEMB      359             0.0000000000
     44632       359  PMPE      H8R            34.1821711582       50.6934471373       -9.2160426478  MEMB      359             0.0000000000
     44633       359  PMPE      H8S            33.8581254907       49.1342723219       -8.7696306285  MEMB      359             0.0000000000
     44634       359  PMPE      C29            32.4408053479       50.5121913221       -8.1232673475  MEMB      359             0.0000000000
     44635       359  PMPE      H9R            30.7095708555       50.5421916679       -9.0139864400  MEMB      359             0.0000000000
     44636       359  PMPE      C217           32.5016701148       51.8851220960       -6.7790380431  MEMB      359             0.0000000000
     44637       359  PMPE      H17R           31.5398899741       52.0023945069       -6.4003500455  MEMB      359             0.0000000000
     44638       359  PMPE      H17S           32.8283672149       52.8169451050       -7.0772638933  MEMB      359             0.0000000000
     44639       359  PMPE      C210           33.1120793353       50.9389824218       -6.5463461326  MEMB      359             0.0000000000
     44640       359  PMPE      H10R           32.5472712527       50.7996240172       -5.5523760052  MEMB      359             0.0000000000
     44641       359  PMPE      C211           34.5267529713       51.3040969662       -6.4440126134  MEMB      359             0.0000000000
     44642       359  PMPE      H11R           34.8541396365       52.1876114914       -5.9301754099  MEMB      359             0.0000000000
     44643       359  PMPE      H11S           34.9710160724       51.5546542325       -7.3964208116  MEMB      359             0.0000000000
     44644       359  PMPE      C212           35.1373487619       50.0992922579       -5.7845042883  MEMB      359             0.0000000000
     44645       359  PMPE      H12R           36.2211374822       50.1683351496       -5.9566766173  MEMB      359             0.0000000000
     44646       359  PMPE      H12S           34.7113451332       49.2577540261       -6.3044509680  MEMB      359             0.0000000000
     44647       359  PMPE      C213           34.8032276966       49.7684635735       -4.3566510507  MEMB      359             0.0000000000
     44648       359  PMPE      H13R           35.3175472622       48.9452887983       -3.8400295204  MEMB      359             0.0000000000
     44649       359  PMPE      H13S           33.7170182120       49.8645342725       -4.0844327446  MEMB      359             0.0000000000
     44650       359  PMPE      C214           35.4882226983       50.6671079309       -3.6302201465  MEMB      359             0.0000000000
     44651       359  PMPE      H14R           35.1601182906       51.5116614738       -4.2791702518  MEMB      359             0.0000000000
     44652       359  PMPE      H14S           36.6376569085       50.8077518430       -3.5430274999  MEMB      359             0.0000000000
     44653       359  PMPE      C215           34.7285925616       50.4841117327       -2.3438779265  MEMB      359             0.0000000000
     44654       359  PMPE      H15R           35.7112709291       51.2057003916       -2.2766705364  MEMB      359             0.0000000000
     44655       359  PMPE      H15S           34.8897005627       49.5475230162       -1.8937321569  MEMB      359             0.0000000000
     44656       359  PMPE      C216           33.2560553128       51.0377045612       -1.6648846741  MEMB      359             0.0000000000
     44657       359  PMPE      H16R           32.4929138949       50.8452697467       -2.3265313583  MEMB      359             0.0000000000
     44658       359  PMPE      H16S           33.1430814322       51.2279002595       -0.5515850036  MEMB      359             0.0000000000
     44659       359  PMPE      H16T           32.8902506272       52.1631481422       -1.8033295116  MEMB      359             0.0000000000
     44660       359  PMPE      C33            28.9016565510       45.1011078120      -14.8652175645  MEMB      359             0.0000000000
     44661       359  PMPE      H3X            28.6875248958       44.1665285554      -14.3437113297  MEMB      359             0.0000000000
     44662       359  PMPE      H3Y            28.5406062747       45.7671934723      -14.1132218068  MEMB      359             0.0000000000
     44663       359  PMPE      C34            30.4089702419       45.2952010748      -15.1060051153  MEMB      359             0.0000000000
     44664       359  PMPE      H4X            30.5855240563       46.2459889501      -15.6703356055  MEMB      359             0.0000000000
     44665       359  PMPE      H4Y            30.8110852557       44.4201798694      -15.6691125743  MEMB      359             0.0000000000
     44666       359  PMPE      C35            31.0615165327       45.2960372111      -13.7183002533  MEMB      359             0.0000000000
     44667       359  PMPE      H5X            30.9411824355       44.2701148341      -13.3158997940  MEMB      359             0.0000000000
     44668       359  PMPE      H5Y            30.4108827220       45.9721111102      -13.1204525987  MEMB      359             0.0000000000
     44669       359  PMPE      C36            32.5406464635       45.6773302104      -13.5164167905  MEMB      359             0.0000000000
     44670       359  PMPE      H6X            32.6422762968       46.7721013044      -13.6368278139  MEMB      359             0.0000000000
     44671       359  PMPE      H6Y            33.2347208264       45.1883104392      -14.2409212107  MEMB      359             0.0000000000
     44672       359  PMPE      C37            33.0891917747       45.3283646336      -12.1084548016  MEMB      359             0.0000000000
     44673       359  PMPE      H7X            34.1022583537       45.8056513175      -12.0914301842  MEMB      359             0.0000000000
     44674       359  PMPE      H7Y            33.0946186930       44.2173938108      -12.0191211767  MEMB      359             0.0000000000
     44675       359  PMPE      C38            32.2703676889       45.8301296322      -10.8987374835  MEMB      359             0.0000000000
     44676       359  PMPE      H8X            31.2558862494       45.3956811855      -10.9505605706  MEMB      359             0.0000000000
     44677       359  PMPE      H8Y            32.1971382540       46.9246413870      -11.0281354426  MEMB      359             0.0000000000
     44678       359  PMPE      C39            32.8268659383       45.6013452474       -9.4677232475  MEMB      359             0.0000000000
     44679       359  PMPE      H9X            33.9226403683       45.7093604902       -9.5447233551  MEMB      359             0.0000000000
     44680       359  PMPE      H9Y            32.6583041622       44.5889563434       -9.0351839008  MEMB      359             0.0000000000
     44681       359  PMPE      C310           32.1728777897       46.5046501876       -8.3882886316  MEMB      359             0.0000000000
     44682       359  PMPE      H10X           31.0759975524       46.4516660056       -8.5096338132  MEMB      359             0.0000000000
     44683       359  PMPE      H10Y           32.5006230989       47.5611500914       -8.4149982558  MEMB      359             0.0000000000
     44684       359  PMPE      C311           32.4558249477       45.9897567227       -6.9870246968  MEMB      359             0.0000000000
     44685       359  PMPE      H11X           33.4819286670       45.7931246262       -7.0446909278  MEMB      359             0.0000000000
     44686       359  PMPE      H11Y           32.0140459955       45.0085097665       -6.8331006153  MEMB      359             0.0000000000
     44687       359  PMPE      C312           32.1867655106       46.9336637004       -5.8327422482  MEMB      359             0.0000000000
     44688       359  PMPE      H12X           31.1185714869       47.1195094839       -5.7428602980  MEMB      359             0.0000000000
     44689       359  PMPE      H12Y           32.6214410730       47.8882965403       -6.0513487429  MEMB      359             0.0000000000
     44690       359  PMPE      C313           32.7535739037       46.5625127297       -4.4822273649  MEMB      359             0.0000000000
     44691       359  PMPE      H13X           33.8396358980       46.7746379097       -4.3736558946  MEMB      359             0.0000000000
     44692       359  PMPE      H13Y           32.6145672041       45.4697311594       -4.3725935059  MEMB      359             0.0000000000
     44693       359  PMPE      C314           32.2568099072       47.4286559698       -3.3761008918  MEMB      359             0.0000000000
     44694       359  PMPE      H14X           31.1713757289       47.3077389609       -3.2309146203  MEMB      359             0.0000000000
     44695       359  PMPE      H14Y           32.4826357545       48.4830001764       -3.5373567108  MEMB      359             0.0000000000
     44696       359  PMPE      C315           32.8659907920       46.9819766275       -2.1318806178  MEMB      359             0.0000000000
     44697       359  PMPE      H15X           32.4396605406       45.9044877394       -2.1650022435  MEMB      359             0.0000000000
     44698       359  PMPE      H15Y           32.4333517430       47.4672018365       -1.2191511292  MEMB      359             0.0000000000
     44699       359  PMPE      C316           34.3985995018       46.9490896956       -1.8904477464  MEMB      359             0.0000000000
     44700       359  PMPE      H16X           34.7357988328       45.8647062236       -1.9764622977  MEMB      359             0.0000000000
     44701       359  PMPE      H16Y           34.6286852274       47.2782630647       -0.8218886272  MEMB      359             0.0000000000
     44702       359  PMPE      H16Z           35.0386504021       47.6828095529       -2.2864271422  MEMB      359             0.0000000000
     44703       360  PYPG      C13           -54.0929780986       23.7948849130      -19.5527670035  MEMB      360             0.0000000000
     44704       360  PYPG      H13A          -55.0232750617       24.3045721740      -19.8618561890  MEMB      360             0.0000000000
     44705       360  PYPG      H13B          -53.3283353872       23.9286991968      -20.3437484938  MEMB      360             0.0000000000
     44706       360  PYPG      OC3           -54.2653296005       22.4129375058      -19.1982940770  MEMB      360             0.0000000000
     44707       360  PYPG      HO3           -54.5441950220       21.9523619226      -19.9747829100  MEMB      360             0.0000000000
     44708       360  PYPG      C12           -53.5626490154       24.5412641068      -18.3747114841  MEMB      360             0.0000000000
     44709       360  PYPG      H12A          -54.2150489281       24.5121468008      -17.5450876014  MEMB      360             0.0000000000
     44710       360  PYPG      OC2           -53.3501745235       25.8518021960      -18.7962442632  MEMB      360             0.0000000000
     44711       360  PYPG      HO2           -52.9208431584       26.3202292862      -18.0513869919  MEMB      360             0.0000000000
     44712       360  PYPG      C11           -52.4059986379       23.9054002672      -17.6909634625  MEMB      360             0.0000000000
     44713       360  PYPG      H11A          -52.4917422437       22.8857896846      -17.4860735542  MEMB      360             0.0000000000
     44714       360  PYPG      H11B          -52.2508769532       24.4079673898      -16.7026406661  MEMB      360             0.0000000000
     44715       360  PYPG      P             -50.4305998624       23.2054786081      -19.4290542847  MEMB      360             0.0000000000
     44716       360  PYPG      O13           -49.0410536610       23.7159135112      -19.3214446671  MEMB      360             0.0000000000
     44717       360  PYPG      O14           -51.0826887059       23.1018175243      -20.7359777667  MEMB      360             0.0000000000
     44718       360  PYPG      O11           -50.6273546756       21.8397024269      -18.6623367143  MEMB      360             0.0000000000
     44719       360  PYPG      O12           -51.3772201465       23.9712439441      -18.5624994561  MEMB      360             0.0000000000
     44720       360  PYPG      C1            -49.8343679249       21.5856447607      -17.5421457120  MEMB      360             0.0000000000
     44721       360  PYPG      HA            -49.8700272622       22.5130686545      -16.9411035012  MEMB      360             0.0000000000
     44722       360  PYPG      HB            -48.8121848410       21.3058211559      -17.9079978780  MEMB      360             0.0000000000
     44723       360  PYPG      C2            -50.3402476037       20.5643833030      -16.5252588773  MEMB      360             0.0000000000
     44724       360  PYPG      HS            -49.9654131478       19.5868214354      -16.8357848482  MEMB      360             0.0000000000
     44725       360  PYPG      O21           -51.7444426838       20.6418953888      -16.5941139727  MEMB      360             0.0000000000
     44726       360  PYPG      C21           -52.3890448606       19.6863488227      -16.0555674007  MEMB      360             0.0000000000
     44727       360  PYPG      O22           -51.9565765791       18.5714382311      -15.8076487133  MEMB      360             0.0000000000
     44728       360  PYPG      C22           -53.8309097341       20.1412425445      -16.0085875915  MEMB      360             0.0000000000
     44729       360  PYPG      H2R           -54.5302103395       19.6161686624      -16.6122786855  MEMB      360             0.0000000000
     44730       360  PYPG      H2S           -53.9976268678       21.1278750751      -16.3778509466  MEMB      360             0.0000000000
     44731       360  PYPG      C3            -49.8999394869       20.7619353056      -15.0600020377  MEMB      360             0.0000000000
     44732       360  PYPG      HX            -48.8856352984       20.4762634170      -14.9443229852  MEMB      360             0.0000000000
     44733       360  PYPG      HY            -50.3374700651       20.0220394706      -14.3787790808  MEMB      360             0.0000000000
     44734       360  PYPG      O31           -50.1522663043       22.0964236332      -14.6281813042  MEMB      360             0.0000000000
     44735       360  PYPG      C31           -49.7934858253       22.3442695676      -13.3879592151  MEMB      360             0.0000000000
     44736       360  PYPG      O32           -49.0838639316       21.6741270537      -12.6758790015  MEMB      360             0.0000000000
     44737       360  PYPG      C32           -50.2294693299       23.5838519697      -12.9638160193  MEMB      360             0.0000000000
     44738       360  PYPG      H2X           -49.3856898919       23.9560050444      -12.2666302653  MEMB      360             0.0000000000
     44739       360  PYPG      H2Y           -50.5249764560       24.1981108595      -13.8012961534  MEMB      360             0.0000000000
     44740       360  PYPG      C23           -54.4845167456       20.0051062520      -14.7195787693  MEMB      360             0.0000000000
     44741       360  PYPG      H3R           -54.8642030571       19.0527438017      -14.9654175372  MEMB      360             0.0000000000
     44742       360  PYPG      H3S           -55.4738701469       20.2013441088      -14.6731495703  MEMB      360             0.0000000000
     44743       360  PYPG      C24           -53.7245266136       20.4607833905      -13.5108074044  MEMB      360             0.0000000000
     44744       360  PYPG      H4R           -53.8747466720       21.5247476517      -13.7062842574  MEMB      360             0.0000000000
     44745       360  PYPG      H4S           -52.6974047735       20.1418402268      -13.5591888942  MEMB      360             0.0000000000
     44746       360  PYPG      C25           -54.1757263959       20.2527040456      -12.1106678230  MEMB      360             0.0000000000
     44747       360  PYPG      H5R           -54.4536928306       19.2592827287      -11.7604980291  MEMB      360             0.0000000000
     44748       360  PYPG      H5S           -55.2025053788       20.5028980713      -12.2770684793  MEMB      360             0.0000000000
     44749       360  PYPG      C26           -53.5394934774       20.9365883131      -10.9055567648  MEMB      360             0.0000000000
     44750       360  PYPG      H6R           -53.8589960715       20.4996221992       -9.8866073587  MEMB      360             0.0000000000
     44751       360  PYPG      H6S           -53.6748919839       22.0295277443      -10.7895354204  MEMB      360             0.0000000000
     44752       360  PYPG      C27           -52.2461013660       20.8409819495      -10.7667124871  MEMB      360             0.0000000000
     44753       360  PYPG      H7R           -51.6519941086       21.1170912041      -11.6446185000  MEMB      360             0.0000000000
     44754       360  PYPG      H7S           -52.0891116781       19.7505726097      -10.9769738409  MEMB      360             0.0000000000
     44755       360  PYPG      C28           -52.0340261658       21.4639684848       -9.2343214020  MEMB      360             0.0000000000
     44756       360  PYPG      H8R           -51.9358017881       22.5207254061       -9.1893444323  MEMB      360             0.0000000000
     44757       360  PYPG      H8S           -50.9859646294       21.9973292247       -9.3343144825  MEMB      360             0.0000000000
     44758       360  PYPG      C29           -52.2526319766       20.5554769246       -7.8169673228  MEMB      360             0.0000000000
     44759       360  PYPG      H9R           -51.6780725457       19.5476553611       -7.5677253181  MEMB      360             0.0000000000
     44760       360  PYPG      C210          -52.7335731930       20.7985164577       -6.7621497734  MEMB      360             0.0000000000
     44761       360  PYPG      H10R          -52.6414542859       19.9854229388       -6.0487168637  MEMB      360             0.0000000000
     44762       360  PYPG      C211          -53.2544789131       22.1259808056       -6.7474744430  MEMB      360             0.0000000000
     44763       360  PYPG      H11R          -53.0360484006       22.7736279330       -7.6390605452  MEMB      360             0.0000000000
     44764       360  PYPG      H11S          -52.9484498303       22.5430263039       -5.8004647146  MEMB      360             0.0000000000
     44765       360  PYPG      C212          -54.7103544176       21.8405152621       -6.9046066720  MEMB      360             0.0000000000
     44766       360  PYPG      H12R          -54.9991373471       21.6429967398       -7.9319581373  MEMB      360             0.0000000000
     44767       360  PYPG      H12S          -55.2023901413       22.7864308932       -6.6893773625  MEMB      360             0.0000000000
     44768       360  PYPG      C213          -55.2698456185       20.8691760085       -5.9439545984  MEMB      360             0.0000000000
     44769       360  PYPG      H13R          -54.8941054927       19.8684252054       -6.0799644276  MEMB      360             0.0000000000
     44770       360  PYPG      H13S          -56.3420789336       20.8811449278       -6.1808349749  MEMB      360             0.0000000000
     44771       360  PYPG      C214          -54.8423194597       21.3283677540       -4.6098947641  MEMB      360             0.0000000000
     44772       360  PYPG      H14R          -53.8052044380       21.1611940723       -4.3338037751  MEMB      360             0.0000000000
     44773       360  PYPG      H14S          -55.2011342685       22.3762515296       -4.4723683432  MEMB      360             0.0000000000
     44774       360  PYPG      C215          -55.3979552813       20.5506501772       -3.6608334325  MEMB      360             0.0000000000
     44775       360  PYPG      H15R          -54.7814353376       20.2002029882       -2.7449824124  MEMB      360             0.0000000000
     44776       360  PYPG      H15S          -55.7252409730       19.5739728366       -4.0621185108  MEMB      360             0.0000000000
     44777       360  PYPG      C216          -56.4635972530       21.5881024040       -3.3366327715  MEMB      360             0.0000000000
     44778       360  PYPG      H16R          -55.7971516125       21.7120284483       -2.3862502446  MEMB      360             0.0000000000
     44779       360  PYPG      H16S          -57.8574528009       21.3894806986       -3.0114524557  MEMB      360             0.0000000000
     44780       360  PYPG      H16T          -57.2897406596       22.0594818083       -3.7759072992  MEMB      360             0.0000000000
     44781       360  PYPG      C33           -51.1455985496       23.7602144076      -11.9221175133  MEMB      360             0.0000000000
     44782       360  PYPG      H3X           -50.6639554402       23.2117463936      -11.1014691563  MEMB      360             0.0000000000
     44783       360  PYPG      H3Y           -52.0338591996       23.2453993884      -12.2586519822  MEMB      360             0.0000000000
     44784       360  PYPG      C34           -51.4252755089       25.2040558735      -11.5858292713  MEMB      360             0.0000000000
     44785       360  PYPG      H4X           -51.7530575342       25.7616765913      -12.4906867586  MEMB      360             0.0000000000
     44786       360  PYPG      H4Y           -50.5886562726       25.7658221721      -11.1812880267  MEMB      360             0.0000000000
     44787       360  PYPG      C35           -52.4455120500       25.0671810698      -10.4877970484  MEMB      360             0.0000000000
     44788       360  PYPG      H5X           -51.9992205421       24.5011222700       -9.6528469310  MEMB      360             0.0000000000
     44789       360  PYPG      H5Y           -53.3214353952       24.5659551546      -10.9158562896  MEMB      360             0.0000000000
     44790       360  PYPG      C36           -52.8684041419       26.3440541030       -9.9294701818  MEMB      360             0.0000000000
     44791       360  PYPG      H6X           -52.9112547583       26.8876679662      -10.7541610689  MEMB      360             0.0000000000
     44792       360  PYPG      H6Y           -51.9450733914       26.8068216402       -9.7259532684  MEMB      360             0.0000000000
     44793       360  PYPG      C37           -54.0871644288       26.3160551325       -9.0426961700  MEMB      360             0.0000000000
     44794       360  PYPG      H7X           -54.9889555898       26.1349754527       -9.6303667144  MEMB      360             0.0000000000
     44795       360  PYPG      H7Y           -53.8534906921       25.6081452220       -8.2519628757  MEMB      360             0.0000000000
     44796       360  PYPG      C38           -54.4897474194       27.5283204194       -8.3637189268  MEMB      360             0.0000000000
     44797       360  PYPG      H8X           -54.8827416249       28.2009050875       -9.2063350354  MEMB      360             0.0000000000
     44798       360  PYPG      H8Y           -53.5496813194       27.7835466895       -7.8881707569  MEMB      360             0.0000000000
     44799       360  PYPG      C39           -55.4590476482       27.7408686507       -7.3180505393  MEMB      360             0.0000000000
     44800       360  PYPG      H9X           -56.3211830175       27.8847503349       -7.9610066552  MEMB      360             0.0000000000
     44801       360  PYPG      H9Y           -55.2561572775       28.6765471966       -6.7238753081  MEMB      360             0.0000000000
     44802       360  PYPG      C310          -55.4699882331       26.5554499622       -6.4500988747  MEMB      360             0.0000000000
     44803       360  PYPG      H10X          -55.3669864380       25.6158615169       -6.9679247233  MEMB      360             0.0000000000
     44804       360  PYPG      H10Y          -56.3574097297       26.5983457579       -5.8135201919  MEMB      360             0.0000000000
     44805       360  PYPG      C311          -54.4966823267       26.6064759450       -5.4255126137  MEMB      360             0.0000000000
     44806       360  PYPG      H11X          -54.9452955373       27.5639127229       -4.9499136518  MEMB      360             0.0000000000
     44807       360  PYPG      H11Y          -53.4469343072       26.7307100223       -5.7088944892  MEMB      360             0.0000000000
     44808       360  PYPG      C312          -54.3983127324       25.4167865286       -4.5405398850  MEMB      360             0.0000000000
     44809       360  PYPG      H12X          -55.3911356390       25.0751199860       -4.3853932374  MEMB      360             0.0000000000
     44810       360  PYPG      H12Y          -53.6663165867       24.6877280443       -4.9171576303  MEMB      360             0.0000000000
     44811       360  PYPG      C313          -53.9668909918       25.6256072415       -3.2155006000  MEMB      360             0.0000000000
     44812       360  PYPG      H13X          -52.9357140445       25.8647895964       -3.4949786715  MEMB      360             0.0000000000
     44813       360  PYPG      H13Y          -54.6071106491       26.4849784265       -2.7335984950  MEMB      360             0.0000000000
     44814       360  PYPG      C314          -54.0002672440       24.5580904463       -2.4174187003  MEMB      360             0.0000000000
     44815       360  PYPG      H14X          -53.9732244048       25.3354919197       -1.6692661413  MEMB      360             0.0000000000
     44816       360  PYPG      H14Y          -55.0194825317       24.3527598136       -2.1840418208  MEMB      360             0.0000000000
     44817       360  PYPG      C315          -52.9104243676       23.4592888618       -2.4011172991  MEMB      360             0.0000000000
     44818       360  PYPG      H15X          -53.1342790564       22.8047775944       -1.5021552831  MEMB      360             0.0000000000
     44819       360  PYPG      H15Y          -53.1686078755       22.8724612392       -3.2662684521  MEMB      360             0.0000000000
     44820       360  PYPG      C316          -51.3931310000       23.8678449022       -2.2219529651  MEMB      360             0.0000000000
     44821       360  PYPG      H16X          -51.0813884860       24.3681610450       -1.2538729879  MEMB      360             0.0000000000
     44822       360  PYPG      H16Y          -51.0883824986       24.6132583366       -2.9639315665  MEMB      360             0.0000000000
     44823       360  PYPG      H16Z          -50.8243660073       22.9266858381       -2.1850852644  MEMB      360             0.0000000000
     44824       361  PMPE      N             -37.2250642245       43.7961598953      -18.0818425845  MEMB      361             0.0000000000
     44825       361  PMPE      HN1           -36.2593989195       43.9373517306      -17.7157532874  MEMB      361             0.0000000000
     44826       361  PMPE      HN2           -37.6157788747       44.7311536573      -18.3528277194  MEMB      361             0.0000000000
     44827       361  PMPE      HN3           -37.8038788245       43.3576702538      -17.3370152346  MEMB      361             0.0000000000
     44828       361  PMPE      C12           -37.0108342850       42.9286421265      -19.2932801473  MEMB      361             0.0000000000
     44829       361  PMPE      H12A          -36.2275227885       42.2129545321      -18.9745859355  MEMB      361             0.0000000000
     44830       361  PMPE      H12B          -36.5386224440       43.5714300798      -20.0707317824  MEMB      361             0.0000000000
     44831       361  PMPE      C11           -38.2642811466       42.1410637067      -19.7801473950  MEMB      361             0.0000000000
     44832       361  PMPE      H11A          -37.8913137175       41.4919253328      -20.6028790946  MEMB      361             0.0000000000
     44833       361  PMPE      H11B          -39.0002948664       42.8001583653      -20.3071692379  MEMB      361             0.0000000000
     44834       361  PMPE      P             -40.3693606185       40.7892550633      -19.0297271201  MEMB      361             0.0000000000
     44835       361  PMPE      O13           -40.5268716474       40.6356002914      -20.4843323537  MEMB      361             0.0000000000
     44836       361  PMPE      O14           -41.2705300543       41.7323276413      -18.3424276699  MEMB      361             0.0000000000
     44837       361  PMPE      O11           -40.4046095664       39.3612225574      -18.3402594438  MEMB      361             0.0000000000
     44838       361  PMPE      O12           -38.8667930468       41.3360546114      -18.7371225019  MEMB      361             0.0000000000
     44839       361  PMPE      C1            -39.2283464142       38.8752776866      -17.7019563627  MEMB      361             0.0000000000
     44840       361  PMPE      HA            -38.2918772599       39.2214128824      -18.1724560611  MEMB      361             0.0000000000
     44841       361  PMPE      HB            -39.2249846754       37.7524821767      -17.7459766878  MEMB      361             0.0000000000
     44842       361  PMPE      C2            -39.0750265181       39.3970852159      -16.2459525327  MEMB      361             0.0000000000
     44843       361  PMPE      HS            -39.5478724489       38.6161791181      -15.7378279888  MEMB      361             0.0000000000
     44844       361  PMPE      O21           -39.7885095069       40.6008846327      -15.9947638147  MEMB      361             0.0000000000
     44845       361  PMPE      C21           -40.1654161503       40.9166240690      -14.7630161297  MEMB      361             0.0000000000
     44846       361  PMPE      O22           -39.9363961155       40.2986501300      -13.7515667086  MEMB      361             0.0000000000
     44847       361  PMPE      C22           -40.9760419962       42.2239504040      -14.7852560581  MEMB      361             0.0000000000
     44848       361  PMPE      H2R           -41.7768970769       42.0444724338      -15.5360102737  MEMB      361             0.0000000000
     44849       361  PMPE      H2S           -40.3486894713       43.1035443309      -15.0340522103  MEMB      361             0.0000000000
     44850       361  PMPE      C3            -37.5630914133       39.5901565920      -15.8766149611  MEMB      361             0.0000000000
     44851       361  PMPE      HX            -37.2075938461       40.5389245498      -16.3001294283  MEMB      361             0.0000000000
     44852       361  PMPE      HY            -37.0330589689       38.7588519094      -16.3724404162  MEMB      361             0.0000000000
     44853       361  PMPE      O31           -37.2061566647       39.4150805995      -14.4990574316  MEMB      361             0.0000000000
     44854       361  PMPE      C31           -36.4508696725       40.3545433951      -13.9179227875  MEMB      361             0.0000000000
     44855       361  PMPE      O32           -36.2098390591       41.4353594372      -14.3942301854  MEMB      361             0.0000000000
     44856       361  PMPE      C32           -36.0146601367       40.0204868090      -12.4940318885  MEMB      361             0.0000000000
     44857       361  PMPE      H2X           -35.4512094560       39.1463893007      -12.1785326561  MEMB      361             0.0000000000
     44858       361  PMPE      H2Y           -36.9428873272       39.7563874410      -12.3848144793  MEMB      361             0.0000000000
     44859       361  PMPE      C23           -41.6336021687       42.5845870742      -13.4307276219  MEMB      361             0.0000000000
     44860       361  PMPE      H3R           -40.8645254227       42.7049975422      -12.6449228921  MEMB      361             0.0000000000
     44861       361  PMPE      H3S           -42.3254209800       41.7640995919      -13.1460189695  MEMB      361             0.0000000000
     44862       361  PMPE      C24           -42.3297911146       43.9559159226      -13.3485290010  MEMB      361             0.0000000000
     44863       361  PMPE      H4R           -43.1341100115       44.0276112896      -14.1098423082  MEMB      361             0.0000000000
     44864       361  PMPE      H4S           -41.6057523632       44.7546039208      -13.6114488207  MEMB      361             0.0000000000
     44865       361  PMPE      C25           -42.9573628371       44.1581612048      -11.9530996054  MEMB      361             0.0000000000
     44866       361  PMPE      H5R           -43.2828900696       43.1682374485      -11.5771205999  MEMB      361             0.0000000000
     44867       361  PMPE      H5S           -43.8138157866       44.7935329564      -12.0292806543  MEMB      361             0.0000000000
     44868       361  PMPE      C26           -42.1974486499       44.9382641602      -10.9040364002  MEMB      361             0.0000000000
     44869       361  PMPE      H6R           -42.7837053236       45.2680063621      -10.0059180190  MEMB      361             0.0000000000
     44870       361  PMPE      H6S           -41.8360746070       45.9010421874      -11.3441426344  MEMB      361             0.0000000000
     44871       361  PMPE      C27           -41.0362183651       44.1017626184      -10.4390361035  MEMB      361             0.0000000000
     44872       361  PMPE      H7R           -40.6610315747       44.7487872143       -9.7734407597  MEMB      361             0.0000000000
     44873       361  PMPE      H7S           -40.2451003044       44.0215088963      -11.1911118225  MEMB      361             0.0000000000
     44874       361  PMPE      C28           -41.2407949733       42.8158081363       -9.6581489647  MEMB      361             0.0000000000
     44875       361  PMPE      H8R           -41.8159678937       42.1967470953      -10.3658568376  MEMB      361             0.0000000000
     44876       361  PMPE      H8S           -41.8260105219       42.9070666356       -8.7262889229  MEMB      361             0.0000000000
     44877       361  PMPE      C29           -39.8967820061       42.1725050767       -9.3931214449  MEMB      361             0.0000000000
     44878       361  PMPE      H9R           -38.9670341194       42.6830329631       -9.1702313976  MEMB      361             0.0000000000
     44879       361  PMPE      C217          -39.6634821508       41.2459295256      -10.5229815421  MEMB      361             0.0000000000
     44880       361  PMPE      H17R          -38.6669925896       41.1752362293      -10.9321222947  MEMB      361             0.0000000000
     44881       361  PMPE      H17S          -40.5531407575       40.9620549613      -11.0858293043  MEMB      361             0.0000000000
     44882       361  PMPE      C210          -39.8012001261       40.7860303983       -9.0587357161  MEMB      361             0.0000000000
     44883       361  PMPE      H10R          -38.8734792975       40.5981923679       -8.4802569950  MEMB      361             0.0000000000
     44884       361  PMPE      C211          -41.1095551085       40.1805544583       -8.6256309858  MEMB      361             0.0000000000
     44885       361  PMPE      H11R          -40.8617735516       39.3565602204       -9.1137056743  MEMB      361             0.0000000000
     44886       361  PMPE      H11S          -41.9606154380       40.1449232075       -9.3009402034  MEMB      361             0.0000000000
     44887       361  PMPE      C212          -41.4644254220       40.0739313972       -7.1446726723  MEMB      361             0.0000000000
     44888       361  PMPE      H12R          -42.3654661411       39.4352087883       -6.9832103084  MEMB      361             0.0000000000
     44889       361  PMPE      H12S          -41.7867476449       41.1175634001       -7.0255493658  MEMB      361             0.0000000000
     44890       361  PMPE      C213          -40.3277692038       39.7014515937       -6.1730724694  MEMB      361             0.0000000000
     44891       361  PMPE      H13R          -39.3942681877       40.2085770308       -6.3744794526  MEMB      361             0.0000000000
     44892       361  PMPE      H13S          -40.0958981848       38.6282720144       -6.2208820954  MEMB      361             0.0000000000
     44893       361  PMPE      C214          -40.4917746618       40.1381035283       -4.7314904444  MEMB      361             0.0000000000
     44894       361  PMPE      H14R          -41.3920756255       39.7289610417       -4.6577647826  MEMB      361             0.0000000000
     44895       361  PMPE      H14S          -40.9264360809       41.0803335625       -4.4983543845  MEMB      361             0.0000000000
     44896       361  PMPE      C215          -39.3932891189       39.6094306750       -3.8231616563  MEMB      361             0.0000000000
     44897       361  PMPE      H15R          -38.5014673587       40.0629889807       -4.2394243797  MEMB      361             0.0000000000
     44898       361  PMPE      H15S          -39.2450065128       38.6024635258       -4.0673231664  MEMB      361             0.0000000000
     44899       361  PMPE      C216          -39.3332958274       39.7398284226       -2.3054287056  MEMB      361             0.0000000000
     44900       361  PMPE      H16R          -39.5420616557       40.7516448814       -1.9627917165  MEMB      361             0.0000000000
     44901       361  PMPE      H16S          -39.9693731652       39.2140970906       -1.6129044243  MEMB      361             0.0000000000
     44902       361  PMPE      H16T          -38.5263544061       39.1341098784       -1.9243799073  MEMB      361             0.0000000000
     44903       361  PMPE      C33           -35.9063011486       41.2762937118      -11.6694724262  MEMB      361             0.0000000000
     44904       361  PMPE      H3X           -36.7255989082       41.9386251002      -12.0171887922  MEMB      361             0.0000000000
     44905       361  PMPE      H3Y           -34.9885062281       41.6994584454      -12.0913086028  MEMB      361             0.0000000000
     44906       361  PMPE      C34           -35.8837048793       41.1850799509      -10.1318559021  MEMB      361             0.0000000000
     44907       361  PMPE      H4X           -34.9948660567       40.6240674476       -9.8027062367  MEMB      361             0.0000000000
     44908       361  PMPE      H4Y           -36.7673805203       40.6258749351       -9.7606533977  MEMB      361             0.0000000000
     44909       361  PMPE      C35           -35.8461312732       42.5876272086       -9.5077864211  MEMB      361             0.0000000000
     44910       361  PMPE      H5X           -36.7773035393       43.0681873645       -9.8763882981  MEMB      361             0.0000000000
     44911       361  PMPE      H5Y           -34.9927847678       43.1804886158       -9.9151790072  MEMB      361             0.0000000000
     44912       361  PMPE      C36           -35.7071744399       42.6556397791       -7.9728432852  MEMB      361             0.0000000000
     44913       361  PMPE      H6X           -34.7413173532       42.2971581237       -7.6461768888  MEMB      361             0.0000000000
     44914       361  PMPE      H6Y           -36.5226254832       42.1567053001       -7.4121192663  MEMB      361             0.0000000000
     44915       361  PMPE      C37           -35.5740222723       44.0784313401       -7.5022028374  MEMB      361             0.0000000000
     44916       361  PMPE      H7X           -36.2689256579       44.4290746853       -8.1543228527  MEMB      361             0.0000000000
     44917       361  PMPE      H7Y           -34.8809996234       44.7556738747       -7.9962264698  MEMB      361             0.0000000000
     44918       361  PMPE      C38           -35.7075362432       44.3897524281       -6.0085673718  MEMB      361             0.0000000000
     44919       361  PMPE      H8X           -35.6903107377       45.4941965358       -5.8967223063  MEMB      361             0.0000000000
     44920       361  PMPE      H8Y           -34.7547316945       43.9688474618       -5.6520836019  MEMB      361             0.0000000000
     44921       361  PMPE      C39           -36.8950088075       43.7565811499       -5.2464017212  MEMB      361             0.0000000000
     44922       361  PMPE      H9X           -36.8406732192       42.6833035543       -5.5018989115  MEMB      361             0.0000000000
     44923       361  PMPE      H9Y           -37.8460058081       44.1434519744       -5.6577443794  MEMB      361             0.0000000000
     44924       361  PMPE      C310          -36.9114688493       43.6311665795       -3.6997657220  MEMB      361             0.0000000000
     44925       361  PMPE      H10X          -36.5878857152       44.4971158438       -3.1009228126  MEMB      361             0.0000000000
     44926       361  PMPE      H10Y          -36.1613803312       42.8468496838       -3.4453624233  MEMB      361             0.0000000000
     44927       361  PMPE      C311          -38.2357970492       43.0263960075       -3.1897605749  MEMB      361             0.0000000000
     44928       361  PMPE      H11X          -38.2666842124       42.9830815853       -2.0801314191  MEMB      361             0.0000000000
     44929       361  PMPE      H11Y          -38.1706893603       41.9829814036       -3.5520550137  MEMB      361             0.0000000000
     44930       361  PMPE      C312          -39.5648842382       43.5933344376       -3.7259174310  MEMB      361             0.0000000000
     44931       361  PMPE      H12X          -40.3530432750       42.8605565989       -3.4285469128  MEMB      361             0.0000000000
     44932       361  PMPE      H12Y          -39.5670040139       43.6222267314       -4.8274609533  MEMB      361             0.0000000000
     44933       361  PMPE      C313          -39.9057133944       44.9457180569       -3.0900921449  MEMB      361             0.0000000000
     44934       361  PMPE      H13X          -39.1218211497       45.6819753947       -3.2100850286  MEMB      361             0.0000000000
     44935       361  PMPE      H13Y          -39.9275109193       44.8379198217       -2.0148643011  MEMB      361             0.0000000000
     44936       361  PMPE      C314          -41.2042812952       45.5919872283       -3.4334800736  MEMB      361             0.0000000000
     44937       361  PMPE      H14X          -41.4311702481       45.8142667838       -4.4877132971  MEMB      361             0.0000000000
     44938       361  PMPE      H14Y          -41.4212947669       46.4287665425       -2.7050896499  MEMB      361             0.0000000000
     44939       361  PMPE      C315          -42.2355584321       44.6634670289       -3.2442130044  MEMB      361             0.0000000000
     44940       361  PMPE      H15X          -42.4264510438       43.7775213969       -3.8927332550  MEMB      361             0.0000000000
     44941       361  PMPE      H15Y          -43.0297271653       45.3442344546       -3.3630787305  MEMB      361             0.0000000000
     44942       361  PMPE      C316          -42.3240583803       44.3047852945       -1.9032600996  MEMB      361             0.0000000000
     44943       361  PMPE      H16X          -43.0806696757       43.6793412597       -1.5790626475  MEMB      361             0.0000000000
     44944       361  PMPE      H16Y          -42.2396435947       45.0101266648       -1.0442414099  MEMB      361             0.0000000000
     44945       361  PMPE      H16Z          -42.3559476102       43.1883771366       -1.7827198995  MEMB      361             0.0000000000
     44946       362  PMPE      N             -25.9677153446       47.4716256422      -18.6530669446  MEMB      362             0.0000000000
     44947       362  PMPE      HN1           -25.6523783158       46.6951640216      -19.2814197138  MEMB      362             0.0000000000
     44948       362  PMPE      HN2           -25.2918592511       47.5808386936      -17.8649638034  MEMB      362             0.0000000000
     44949       362  PMPE      HN3           -26.8819002021       47.1854412256      -18.2119953621  MEMB      362             0.0000000000
     44950       362  PMPE      C12           -26.1630429526       48.6860776447      -19.4779892577  MEMB      362             0.0000000000
     44951       362  PMPE      H12A          -25.3294269996       48.6824318411      -20.2080742269  MEMB      362             0.0000000000
     44952       362  PMPE      H12B          -26.0449691391       49.5794572716      -18.8360623988  MEMB      362             0.0000000000
     44953       362  PMPE      C11           -27.4935833086       48.6882605208      -20.2692017613  MEMB      362             0.0000000000
     44954       362  PMPE      H11A          -27.5529850856       47.8735741257      -21.0147853403  MEMB      362             0.0000000000
     44955       362  PMPE      H11B          -27.5389590494       49.6821506959      -20.7664578082  MEMB      362             0.0000000000
     44956       362  PMPE      P             -29.4225099243       49.5850147620      -18.7319383744  MEMB      362             0.0000000000
     44957       362  PMPE      O13           -30.8274706071       49.5083126776      -19.1490988446  MEMB      362             0.0000000000
     44958       362  PMPE      O14           -28.6911038198       50.8422237129      -18.9119026924  MEMB      362             0.0000000000
     44959       362  PMPE      O11           -29.2076522093       49.1469598707      -17.2349831158  MEMB      362             0.0000000000
     44960       362  PMPE      O12           -28.6516322187       48.4807969244      -19.5140741026  MEMB      362             0.0000000000
     44961       362  PMPE      C1            -29.4419294456       47.8070705521      -16.8882070640  MEMB      362             0.0000000000
     44962       362  PMPE      HA            -28.5618837909       47.2064785200      -17.1823776946  MEMB      362             0.0000000000
     44963       362  PMPE      HB            -30.3594754803       47.4275625999      -17.3912563300  MEMB      362             0.0000000000
     44964       362  PMPE      C2            -29.7282814268       47.6996090888      -15.3834973094  MEMB      362             0.0000000000
     44965       362  PMPE      HS            -30.2792329971       46.7329173150      -15.2543006228  MEMB      362             0.0000000000
     44966       362  PMPE      O21           -30.4582169029       48.7684851910      -14.7873737299  MEMB      362             0.0000000000
     44967       362  PMPE      C21           -31.6426322933       49.0346780501      -15.2051659734  MEMB      362             0.0000000000
     44968       362  PMPE      O22           -32.3057391659       48.4165785637      -16.0196154543  MEMB      362             0.0000000000
     44969       362  PMPE      C22           -32.1374632580       50.2903307055      -14.4751777803  MEMB      362             0.0000000000
     44970       362  PMPE      H2R           -32.8481691505       50.7783164178      -15.1727489356  MEMB      362             0.0000000000
     44971       362  PMPE      H2S           -31.3192385691       51.0082043259      -14.4036480615  MEMB      362             0.0000000000
     44972       362  PMPE      C3            -28.4300224983       47.7023987110      -14.5665588840  MEMB      362             0.0000000000
     44973       362  PMPE      HX            -27.7746266723       48.5249170606      -14.8718163303  MEMB      362             0.0000000000
     44974       362  PMPE      HY            -27.8930898216       46.8953402670      -14.8379953173  MEMB      362             0.0000000000
     44975       362  PMPE      O31           -28.6303146104       47.8268728301      -13.1267322939  MEMB      362             0.0000000000
     44976       362  PMPE      C31           -29.1338665378       46.7084691866      -12.6530671893  MEMB      362             0.0000000000
     44977       362  PMPE      O32           -29.4068856345       45.8752261226      -13.4508660754  MEMB      362             0.0000000000
     44978       362  PMPE      C32           -29.2019995699       46.5582930158      -11.1013716927  MEMB      362             0.0000000000
     44979       362  PMPE      H2X           -29.1936327709       47.6031265566      -10.7591634977  MEMB      362             0.0000000000
     44980       362  PMPE      H2Y           -28.3225249738       46.0098341436      -10.6794989132  MEMB      362             0.0000000000
     44981       362  PMPE      C23           -32.7279994729       50.1183513554      -13.0515672620  MEMB      362             0.0000000000
     44982       362  PMPE      H3R           -33.3745081961       49.3210255808      -12.8444604870  MEMB      362             0.0000000000
     44983       362  PMPE      H3S           -33.3662493464       50.9928893634      -12.9100642160  MEMB      362             0.0000000000
     44984       362  PMPE      C24           -31.7823440123       50.0434655959      -11.8868166428  MEMB      362             0.0000000000
     44985       362  PMPE      H4R           -31.3294694570       51.0468966436      -11.8743131785  MEMB      362             0.0000000000
     44986       362  PMPE      H4S           -31.0103382539       49.2700719040      -12.0625077250  MEMB      362             0.0000000000
     44987       362  PMPE      C25           -32.4936785488       49.8533131494      -10.5402698435  MEMB      362             0.0000000000
     44988       362  PMPE      H5R           -33.1502837561       48.9533682407      -10.5356629804  MEMB      362             0.0000000000
     44989       362  PMPE      H5S           -33.0942927637       50.7664469343      -10.3492633441  MEMB      362             0.0000000000
     44990       362  PMPE      C26           -31.5370581788       49.6828769810       -9.3689669809  MEMB      362             0.0000000000
     44991       362  PMPE      H6R           -30.7024767120       49.0495506897       -9.7212982326  MEMB      362             0.0000000000
     44992       362  PMPE      H6S           -32.0967093761       49.1151566681       -8.5865723414  MEMB      362             0.0000000000
     44993       362  PMPE      C27           -30.9445971444       51.0070105737       -8.8658391805  MEMB      362             0.0000000000
     44994       362  PMPE      H7R           -31.7557761109       51.6678075631       -8.5088867818  MEMB      362             0.0000000000
     44995       362  PMPE      H7S           -30.4876719656       51.5852461664       -9.6969431097  MEMB      362             0.0000000000
     44996       362  PMPE      C28           -29.9370563627       50.8278698298       -7.7255655900  MEMB      362             0.0000000000
     44997       362  PMPE      H8R           -30.1931172327       49.9356515985       -7.1161956527  MEMB      362             0.0000000000
     44998       362  PMPE      H8S           -30.0293425824       51.7387227595       -7.1068053316  MEMB      362             0.0000000000
     44999       362  PMPE      C29           -28.5139386051       50.6946821306       -8.2295527459  MEMB      362             0.0000000000
     45000       362  PMPE      H9R           -28.1299327049       51.3750893526       -9.0068507696  MEMB      362             0.0000000000
     45001       362  PMPE      C217          -28.1042580390       49.2592224952       -8.5049380946  MEMB      362             0.0000000000
     45002       362  PMPE      H17R          -27.2906808715       49.1369424061       -9.2056540164  MEMB      362             0.0000000000
     45003       362  PMPE      H17S          -28.8058919035       48.5239220085       -8.1365434395  MEMB      362             0.0000000000
     45004       362  PMPE      C210          -27.5129310144       50.0174471267       -7.3322180350  MEMB      362             0.0000000000
     45005       362  PMPE      H10R          -26.4764397665       50.3464480666       -7.4586971486  MEMB      362             0.0000000000
     45006       362  PMPE      C211          -27.8732318738       49.4696817228       -5.9610859840  MEMB      362             0.0000000000
     45007       362  PMPE      H11R          -27.2162020185       48.6090134551       -5.6928659400  MEMB      362             0.0000000000
     45008       362  PMPE      H11S          -28.9030300722       49.0708654577       -5.9196693129  MEMB      362             0.0000000000
     45009       362  PMPE      C212          -27.8439827809       50.6055050617       -4.9440160291  MEMB      362             0.0000000000
     45010       362  PMPE      H12R          -28.7855324110       51.1874139996       -5.0979448684  MEMB      362             0.0000000000
     45011       362  PMPE      H12S          -26.9786547898       51.2987462637       -5.0834661869  MEMB      362             0.0000000000
     45012       362  PMPE      C213          -27.6952734036       50.0652791310       -3.5199211990  MEMB      362             0.0000000000
     45013       362  PMPE      H13R          -26.7280220394       49.5037977186       -3.5125459940  MEMB      362             0.0000000000
     45014       362  PMPE      H13S          -28.4963793581       49.3780314451       -3.2120235165  MEMB      362             0.0000000000
     45015       362  PMPE      C214          -27.7483580286       51.2151360890       -2.5572507326  MEMB      362             0.0000000000
     45016       362  PMPE      H14R          -28.0212355254       51.0501222631       -1.5011232747  MEMB      362             0.0000000000
     45017       362  PMPE      H14S          -28.4819375648       51.9462042153       -2.9633886992  MEMB      362             0.0000000000
     45018       362  PMPE      C215          -26.4051376820       51.7740270890       -2.5238619820  MEMB      362             0.0000000000
     45019       362  PMPE      H15R          -26.6718655315       52.7298814303       -1.9975677678  MEMB      362             0.0000000000
     45020       362  PMPE      H15S          -26.0564373184       51.9918135278       -3.5551397607  MEMB      362             0.0000000000
     45021       362  PMPE      C216          -25.2652010886       50.8819174209       -1.9553937976  MEMB      362             0.0000000000
     45022       362  PMPE      H16R          -24.5495480842       50.4722956018       -2.6048742076  MEMB      362             0.0000000000
     45023       362  PMPE      H16S          -24.5789040214       51.2035961685       -1.1681005040  MEMB      362             0.0000000000
     45024       362  PMPE      H16T          -25.5161571453       50.2238654730       -1.2269724755  MEMB      362             0.0000000000
     45025       362  PMPE      C33           -30.3845523437       45.7049845953      -10.5662220270  MEMB      362             0.0000000000
     45026       362  PMPE      H3X           -30.0520271638       44.6620119883      -10.7069338349  MEMB      362             0.0000000000
     45027       362  PMPE      H3Y           -31.3036492252       45.8703258873      -11.1599227347  MEMB      362             0.0000000000
     45028       362  PMPE      C34           -30.7269491534       45.8934030785       -9.0882643586  MEMB      362             0.0000000000
     45029       362  PMPE      H4X           -31.7256018148       45.5210914823       -8.7594318773  MEMB      362             0.0000000000
     45030       362  PMPE      H4Y           -30.7370980018       46.9867405779       -8.9626179512  MEMB      362             0.0000000000
     45031       362  PMPE      C35           -29.6941975999       45.2758359691       -8.1668186650  MEMB      362             0.0000000000
     45032       362  PMPE      H5X           -28.6825079279       45.4018460354       -8.5961268009  MEMB      362             0.0000000000
     45033       362  PMPE      H5Y           -29.8309747580       44.1734507510       -8.1851047725  MEMB      362             0.0000000000
     45034       362  PMPE      C36           -29.7597169620       45.9022108975       -6.7751180660  MEMB      362             0.0000000000
     45035       362  PMPE      H6X           -30.8002516667       45.9122698792       -6.3823635212  MEMB      362             0.0000000000
     45036       362  PMPE      H6Y           -29.4998712229       46.9809768443       -6.8002256942  MEMB      362             0.0000000000
     45037       362  PMPE      C37           -28.7886765366       45.1295922774       -5.9007772986  MEMB      362             0.0000000000
     45038       362  PMPE      H7X           -27.7580163372       45.1878248416       -6.3200247476  MEMB      362             0.0000000000
     45039       362  PMPE      H7Y           -29.1538973972       44.0914201240       -5.8267611308  MEMB      362             0.0000000000
     45040       362  PMPE      C38           -28.6718350655       45.7159721740       -4.5667925787  MEMB      362             0.0000000000
     45041       362  PMPE      H8X           -29.7714729093       45.5750265877       -4.2443476194  MEMB      362             0.0000000000
     45042       362  PMPE      H8Y           -27.8909139562       46.5790193797       -4.9122425919  MEMB      362             0.0000000000
     45043       362  PMPE      C39           -28.0901474343       44.8686317626       -3.5004533213  MEMB      362             0.0000000000
     45044       362  PMPE      H9X           -27.3289057939       45.1730102064       -4.0987886811  MEMB      362             0.0000000000
     45045       362  PMPE      H9Y           -27.8833984613       43.8323964868       -3.5439428198  MEMB      362             0.0000000000
     45046       362  PMPE      C310          -28.5088236334       45.3548973786       -2.1980249084  MEMB      362             0.0000000000
     45047       362  PMPE      H10X          -29.0250508676       44.6172751520       -1.5514725097  MEMB      362             0.0000000000
     45048       362  PMPE      H10Y          -29.3172744220       46.3741625133       -2.7264777942  MEMB      362             0.0000000000
     45049       362  PMPE      C311          -27.1791132124       44.6747367002       -1.0825225990  MEMB      362             0.0000000000
     45050       362  PMPE      H11X          -26.2056986837       45.0507969115       -1.2802056079  MEMB      362             0.0000000000
     45051       362  PMPE      H11Y          -26.6037585009       43.7272715641       -1.1609447308  MEMB      362             0.0000000000
     45052       362  PMPE      C312          -26.8750820377       44.3149346073        0.6254272006  MEMB      362             0.0000000000
     45053       362  PMPE      H12X          -26.1648691774       44.4482797567        0.9341678249  MEMB      362             0.0000000000
     45054       362  PMPE      H12Y          -27.3399075353       44.4957115385        1.4491858346  MEMB      362             0.0000000000
     45055       362  PMPE      C313          -26.7967513627       44.7338582731        2.4532674317  MEMB      362             0.0000000000
     45056       362  PMPE      H13X          -28.0570703065       44.2014166870        0.2959146330  MEMB      362             0.0000000000
     45057       362  PMPE      H13Y          -24.6766859726       48.6370216602        1.4999253410  MEMB      362             0.0000000000
     45058       362  PMPE      C314          -26.2379239390       46.8329691084        4.4281170837  MEMB      362             0.0000000000
     45059       362  PMPE      H14X          -25.0191383087       46.4819237833        4.8526879500  MEMB      362             0.0000000000
     45060       362  PMPE      H14Y          -26.8491972108       47.4705184249        4.1301069125  MEMB      362             0.0000000000
     45061       362  PMPE      C315          -27.0463289659       48.4741668527        3.4266983376  MEMB      362             0.0000000000
     45062       362  PMPE      H15X          -27.0521342726       49.1237337130        3.8163007393  MEMB      362             0.0000000000
     45063       362  PMPE      H15Y          -28.4971483517       47.7216662280        4.6043889370  MEMB      362             0.0000000000
     45064       362  PMPE      C316          -26.3410648796       49.6619303489        2.2336482131  MEMB      362             0.0000000000
     45065       362  PMPE      H16X          -26.0183956966       49.2209038036        1.2948562692  MEMB      362             0.0000000000
     45066       362  PMPE      H16Y          -25.6341147034       49.7846127007        1.7440455750  MEMB      362             0.0000000000
     45067       362  PMPE      H16Z          -26.2066158656       50.1307552886        2.8337622707  MEMB      362             0.0000000000
     45068       363  PMPE      N              35.0191848824      -43.6321571057      -21.1033161947  MEMB      363             0.0000000000
     45069       363  PMPE      HN1            34.2319068080      -43.6381527632      -21.7855296732  MEMB      363             0.0000000000
     45070       363  PMPE      HN2            35.9593442730      -43.5874652579      -21.5649897938  MEMB      363             0.0000000000
     45071       363  PMPE      HN3            34.9890071011      -44.4363564481      -20.4532909218  MEMB      363             0.0000000000
     45072       363  PMPE      C12            34.9545486554      -42.3940724132      -20.2643501076  MEMB      363             0.0000000000
     45073       363  PMPE      H12A           34.2960802852      -42.5571125234      -19.3835026226  MEMB      363             0.0000000000
     45074       363  PMPE      H12B           34.6472942936      -41.5621196615      -20.9412694221  MEMB      363             0.0000000000
     45075       363  PMPE      C11            36.3294766306      -42.0772114324      -19.6835777758  MEMB      363             0.0000000000
     45076       363  PMPE      H11A           36.1734609534      -41.3740604071      -18.8532414747  MEMB      363             0.0000000000
     45077       363  PMPE      H11B           36.9512341143      -41.6049828338      -20.4619567579  MEMB      363             0.0000000000
     45078       363  PMPE      P              38.2452081582      -43.0623462454      -18.1978160880  MEMB      363             0.0000000000
     45079       363  PMPE      O13            38.5703611795      -41.6392033889      -18.0820115437  MEMB      363             0.0000000000
     45080       363  PMPE      O14            39.2933836887      -44.0064777891      -18.6598772201  MEMB      363             0.0000000000
     45081       363  PMPE      O11            37.6907568808      -43.4773800178      -16.7933343574  MEMB      363             0.0000000000
     45082       363  PMPE      O12            36.9785578944      -43.2331362841      -19.1891993645  MEMB      363             0.0000000000
     45083       363  PMPE      C1             36.8102533668      -44.5171788656      -16.4718249629  MEMB      363             0.0000000000
     45084       363  PMPE      HA             37.1907506673      -44.9555173302      -15.5267171976  MEMB      363             0.0000000000
     45085       363  PMPE      HB             36.8139837810      -45.3187362109      -17.2410623402  MEMB      363             0.0000000000
     45086       363  PMPE      C2             35.3946113087      -43.9384873895      -16.2742192063  MEMB      363             0.0000000000
     45087       363  PMPE      HS             35.2634304267      -43.1939614278      -17.0911038166  MEMB      363             0.0000000000
     45088       363  PMPE      O21            35.3292827419      -43.3989168765      -14.9468197083  MEMB      363             0.0000000000
     45089       363  PMPE      C21            34.8698380726      -42.1922090413      -14.7970270624  MEMB      363             0.0000000000
     45090       363  PMPE      O22            34.4580840685      -41.4843604668      -15.6926417888  MEMB      363             0.0000000000
     45091       363  PMPE      C22            35.0153369660      -41.7945716542      -13.3590176340  MEMB      363             0.0000000000
     45092       363  PMPE      H2R            35.7680041298      -41.0160706063      -13.3621964426  MEMB      363             0.0000000000
     45093       363  PMPE      H2S            35.4261967024      -42.5201469484      -12.6374976945  MEMB      363             0.0000000000
     45094       363  PMPE      C3             34.3360319837      -45.0410211293      -16.4392404067  MEMB      363             0.0000000000
     45095       363  PMPE      HX             34.4666785685      -45.4088989522      -17.4801627556  MEMB      363             0.0000000000
     45096       363  PMPE      HY             33.2968197134      -44.6899025857      -16.2664427559  MEMB      363             0.0000000000
     45097       363  PMPE      O31            34.6524669751      -46.1120417746      -15.5910484257  MEMB      363             0.0000000000
     45098       363  PMPE      C31            34.3515327736      -45.9472234275      -14.3023862126  MEMB      363             0.0000000000
     45099       363  PMPE      O32            33.6659625566      -45.1386019953      -13.7607347943  MEMB      363             0.0000000000
     45100       363  PMPE      C32            34.9567728360      -46.9382060294      -13.5054526772  MEMB      363             0.0000000000
     45101       363  PMPE      H2X            35.8910526564      -47.4342622045      -13.6869276000  MEMB      363             0.0000000000
     45102       363  PMPE      H2Y            34.4205590155      -47.4682625082      -14.0889472308  MEMB      363             0.0000000000
     45103       363  PMPE      C23            33.7555110379      -41.2622646530      -12.8283607910  MEMB      363             0.0000000000
     45104       363  PMPE      H3R            32.9303501194      -41.9067438392      -12.4423643814  MEMB      363             0.0000000000
     45105       363  PMPE      H3S            33.3045235640      -40.3930961676      -13.4238820210  MEMB      363             0.0000000000
     45106       363  PMPE      C24            34.2440653652      -40.8070496422      -11.6193100080  MEMB      363             0.0000000000
     45107       363  PMPE      H4R            33.3092862116      -40.3543744005      -11.5534198911  MEMB      363             0.0000000000
     45108       363  PMPE      H4S            34.7636910368      -39.8198458995      -11.8517832510  MEMB      363             0.0000000000
     45109       363  PMPE      C25            34.4395451276      -41.6887367133      -10.1818143808  MEMB      363             0.0000000000
     45110       363  PMPE      H5R            35.3563639415      -42.1649096340      -10.4039759339  MEMB      363             0.0000000000
     45111       363  PMPE      H5S            33.4496907687      -42.1894773407      -10.0343244856  MEMB      363             0.0000000000
     45112       363  PMPE      C26            34.8314318921      -41.0874383031       -8.5814127454  MEMB      363             0.0000000000
     45113       363  PMPE      H6R            34.0002084453      -40.4387980028       -7.9401575577  MEMB      363             0.0000000000
     45114       363  PMPE      H6S            35.5714459464      -40.3353128155       -8.6932069669  MEMB      363             0.0000000000
     45115       363  PMPE      C27            34.9461706408      -41.7125738666       -7.4159769210  MEMB      363             0.0000000000
     45116       363  PMPE      H7R            35.8410395510      -42.2274607020       -7.6622637987  MEMB      363             0.0000000000
     45117       363  PMPE      H7S            34.0403772060      -42.3340037917       -7.4418080921  MEMB      363             0.0000000000
     45118       363  PMPE      C28            35.0532227603      -40.7440699462       -6.2333379918  MEMB      363             0.0000000000
     45119       363  PMPE      H8R            35.2244688617      -41.4856507607       -5.5231942692  MEMB      363             0.0000000000
     45120       363  PMPE      H8S            34.0793807713      -40.3889963925       -6.0648990946  MEMB      363             0.0000000000
     45121       363  PMPE      C29            35.8693552527      -39.4454519126       -6.1601874341  MEMB      363             0.0000000000
     45122       363  PMPE      H9R            36.0639580964      -38.8862025801       -7.0312023708  MEMB      363             0.0000000000
     45123       363  PMPE      C217           37.2616950678      -39.4622020345       -5.7647972755  MEMB      363             0.0000000000
     45124       363  PMPE      H17R           37.7310823595      -38.6414769940       -6.4079019079  MEMB      363             0.0000000000
     45125       363  PMPE      H17S           37.1750029969      -40.4804136740       -6.1567041041  MEMB      363             0.0000000000
     45126       363  PMPE      C210           36.4424405532      -38.8625722493       -4.9649523842  MEMB      363             0.0000000000
     45127       363  PMPE      H10R           36.7429901055      -37.8583493291       -4.9996202332  MEMB      363             0.0000000000
     45128       363  PMPE      C211           36.3910687148      -39.4983849014       -3.7373761576  MEMB      363             0.0000000000
     45129       363  PMPE      H11R           36.7056333326      -40.2647666197       -3.8931662599  MEMB      363             0.0000000000
     45130       363  PMPE      H11S           35.5272699462      -39.8131731731       -3.3152237107  MEMB      363             0.0000000000
     45131       363  PMPE      C212           37.4118772234      -39.6208740584       -2.8163742045  MEMB      363             0.0000000000
     45132       363  PMPE      H12R           36.7780107294      -38.5842424220       -2.9611423316  MEMB      363             0.0000000000
     45133       363  PMPE      H12S           38.5327863148      -39.8816716365       -3.0727589157  MEMB      363             0.0000000000
     45134       363  PMPE      C213           37.3939186303      -40.0818583887       -1.3975065048  MEMB      363             0.0000000000
     45135       363  PMPE      H13R           38.0457448727      -40.9511987067       -1.3205501240  MEMB      363             0.0000000000
     45136       363  PMPE      H13S           36.4302637914      -40.3463498436       -1.1141564121  MEMB      363             0.0000000000
     45137       363  PMPE      C214           37.9992880790      -39.3713362992       -0.2998650425  MEMB      363             0.0000000000
     45138       363  PMPE      H14R           38.7938044718      -38.9419768605       -0.8004401790  MEMB      363             0.0000000000
     45139       363  PMPE      H14S           38.3210303756      -40.1057239878        0.4310393558  MEMB      363             0.0000000000
     45140       363  PMPE      C215           37.5829944911      -38.0635954492        0.2326258618  MEMB      363             0.0000000000
     45141       363  PMPE      H15R           37.3307733635      -37.3056091399       -0.4977916647  MEMB      363             0.0000000000
     45142       363  PMPE      H15S           38.3798486909      -37.5569214377        0.7905806837  MEMB      363             0.0000000000
     45143       363  PMPE      C216           36.3723054149      -38.2481909238        0.9494093405  MEMB      363             0.0000000000
     45144       363  PMPE      H16R           35.8321031165      -37.3741808490        1.2183691704  MEMB      363             0.0000000000
     45145       363  PMPE      H16S           35.7757474215      -39.1330477862        0.7142724615  MEMB      363             0.0000000000
     45146       363  PMPE      H16T           36.6260488861      -38.4289491430        1.8773202911  MEMB      363             0.0000000000
     45147       363  PMPE      C33            34.3512063186      -46.9601380173      -12.2002789881  MEMB      363             0.0000000000
     45148       363  PMPE      H3X            34.8412666044      -47.8196505934      -11.8391363509  MEMB      363             0.0000000000
     45149       363  PMPE      H3Y            33.2497311302      -46.9325812405      -12.0298799335  MEMB      363             0.0000000000
     45150       363  PMPE      C34            35.1652061434      -46.2550890129      -11.2595478441  MEMB      363             0.0000000000
     45151       363  PMPE      H4X            35.1172484937      -45.2585097914      -11.6994394217  MEMB      363             0.0000000000
     45152       363  PMPE      H4Y            36.1857224198      -46.7362031060      -11.2831031665  MEMB      363             0.0000000000
     45153       363  PMPE      C35            34.6128607889      -46.2841455403       -9.8651547466  MEMB      363             0.0000000000
     45154       363  PMPE      H5X            34.6157572705      -47.3192810142       -9.4847629789  MEMB      363             0.0000000000
     45155       363  PMPE      H5Y            33.5709946345      -45.8802236463       -9.8406025435  MEMB      363             0.0000000000
     45156       363  PMPE      C36            35.5639883573      -45.4899559567       -8.9728225621  MEMB      363             0.0000000000
     45157       363  PMPE      H6X            35.4883762365      -44.4521879616       -9.3391957229  MEMB      363             0.0000000000
     45158       363  PMPE      H6Y            36.6055484827      -45.8326107011       -9.1711968915  MEMB      363             0.0000000000
     45159       363  PMPE      C37            35.1952177951      -45.6689552060       -7.4893606619  MEMB      363             0.0000000000
     45160       363  PMPE      H7X            35.4363241281      -46.7047231399       -7.2122651137  MEMB      363             0.0000000000
     45161       363  PMPE      H7Y            34.1193254545      -45.5040046996       -7.3747313124  MEMB      363             0.0000000000
     45162       363  PMPE      C38            35.8390864369      -44.8593284512       -6.3783223997  MEMB      363             0.0000000000
     45163       363  PMPE      H8X            35.5440117716      -45.3445088148       -5.4124162558  MEMB      363             0.0000000000
     45164       363  PMPE      H8Y            35.4213273644      -43.8414771857       -6.2689063674  MEMB      363             0.0000000000
     45165       363  PMPE      C39            37.3234412873      -44.8640928286       -6.6388429858  MEMB      363             0.0000000000
     45166       363  PMPE      H9X            37.6316965534      -44.2734772333       -7.5410988700  MEMB      363             0.0000000000
     45167       363  PMPE      H9Y            37.8069184374      -45.8255976516       -6.6684584102  MEMB      363             0.0000000000
     45168       363  PMPE      C310           38.0737676901      -44.4109066618       -5.5519446678  MEMB      363             0.0000000000
     45169       363  PMPE      H10X           37.8352372283      -43.4815193248       -6.0235108797  MEMB      363             0.0000000000
     45170       363  PMPE      H10Y           39.1456732957      -44.3378119191       -5.6317526783  MEMB      363             0.0000000000
     45171       363  PMPE      C311           37.4976059533      -44.8347203776       -4.2547473862  MEMB      363             0.0000000000
     45172       363  PMPE      H11X           37.8142218059      -45.8147057001       -3.9661412554  MEMB      363             0.0000000000
     45173       363  PMPE      H11Y           36.5700611840      -44.4258299942       -3.7961585262  MEMB      363             0.0000000000
     45174       363  PMPE      C312           38.3411277943      -44.5921418894       -3.3710437417  MEMB      363             0.0000000000
     45175       363  PMPE      H12X           38.5565235149      -43.5424617972       -3.7572704228  MEMB      363             0.0000000000
     45176       363  PMPE      H12Y           39.3307725435      -44.6998803665       -3.6391806194  MEMB      363             0.0000000000
     45177       363  PMPE      C313           37.8631360053      -44.8837552138       -1.8307934504  MEMB      363             0.0000000000
     45178       363  PMPE      H13X           38.1831534363      -45.7284601360       -1.3548937096  MEMB      363             0.0000000000
     45179       363  PMPE      H13Y           37.2153729481      -44.0630493340       -1.4723482530  MEMB      363             0.0000000000
     45180       363  PMPE      C314           38.5832770150      -44.3617986557       -0.3551700120  MEMB      363             0.0000000000
     45181       363  PMPE      H14X           38.4504302936      -43.4319317340       -0.3504577431  MEMB      363             0.0000000000
     45182       363  PMPE      H14Y           41.3757273065      -44.3180419414       -0.0562358227  MEMB      363             0.0000000000
     45183       363  PMPE      C315           38.8662724571      -45.6477396319        1.4554676718  MEMB      363             0.0000000000
     45184       363  PMPE      H15X           39.6897916265      -45.2350887152        1.8958201798  MEMB      363             0.0000000000
     45185       363  PMPE      H15Y           39.3001545557      -46.4220877335        0.9323362131  MEMB      363             0.0000000000
     45186       363  PMPE      C316           38.7230083735      -44.8194586912        2.7031171382  MEMB      363             0.0000000000
     45187       363  PMPE      H16X           38.0746643205      -44.8517332231        3.3705386296  MEMB      363             0.0000000000
     45188       363  PMPE      H16Y           37.1768065697      -44.5164976748        2.6740101718  MEMB      363             0.0000000000
     45189       363  PMPE      H16Z           39.5813577002      -43.0833325937        2.5995477235  MEMB      363             0.0000000000
     45190       364  PMPE      N              47.9729251725       32.4975751435      -21.7475256377  MEMB      364             0.0000000000
     45191       364  PMPE      HN1            48.2786632618       33.2664608839      -21.1098635927  MEMB      364             0.0000000000
     45192       364  PMPE      HN2            48.5671703834       32.5753619067      -22.5918003805  MEMB      364             0.0000000000
     45193       364  PMPE      HN3            46.9532042291       32.6620631256      -21.9255602464  MEMB      364             0.0000000000
     45194       364  PMPE      C12            48.2156280612       31.1082987079      -21.1648842226  MEMB      364             0.0000000000
     45195       364  PMPE      H12A           49.3027528990       31.0891971822      -20.9912973351  MEMB      364             0.0000000000
     45196       364  PMPE      H12B           47.9730248742       30.2992384050      -21.8932881456  MEMB      364             0.0000000000
     45197       364  PMPE      C11            47.5119936499       30.8249083644      -19.8224644413  MEMB      364             0.0000000000
     45198       364  PMPE      H11A           47.7749031279       29.8074424334      -19.4372883664  MEMB      364             0.0000000000
     45199       364  PMPE      H11B           46.4151342241       30.8640746462      -19.9946889543  MEMB      364             0.0000000000
     45200       364  PMPE      P              49.0055395472       31.7088570641      -17.8164641000  MEMB      364             0.0000000000
     45201       364  PMPE      O13            48.7938941402       32.7541890866      -16.8052661246  MEMB      364             0.0000000000
     45202       364  PMPE      O14            50.2577058379       31.7151561526      -18.6061373000  MEMB      364             0.0000000000
     45203       364  PMPE      O11            48.9583456694       30.2748531170      -17.2357412980  MEMB      364             0.0000000000
     45204       364  PMPE      O12            47.8215235015       31.8056808248      -18.8603518268  MEMB      364             0.0000000000
     45205       364  PMPE      C1             47.8420687214       29.5825085624      -16.7815891188  MEMB      364             0.0000000000
     45206       364  PMPE      HA             47.7658424714       28.6186299726      -17.3185967026  MEMB      364             0.0000000000
     45207       364  PMPE      HB             46.8602814488       30.1095775892      -16.8824080244  MEMB      364             0.0000000000
     45208       364  PMPE      C2             48.0441451495       29.1486916146      -15.3933068457  MEMB      364             0.0000000000
     45209       364  PMPE      HS             47.2106443166       28.5814829427      -15.1721702813  MEMB      364             0.0000000000
     45210       364  PMPE      O21            48.2505576115       30.3005719525      -14.5322106393  MEMB      364             0.0000000000
     45211       364  PMPE      C21            47.2690025618       31.1113405303      -14.1827520725  MEMB      364             0.0000000000
     45212       364  PMPE      O22            46.0931221352       30.9390723302      -14.4113759862  MEMB      364             0.0000000000
     45213       364  PMPE      C22            47.7501806314       32.2633052410      -13.3604974475  MEMB      364             0.0000000000
     45214       364  PMPE      H2R            48.3228932610       32.7761241838      -14.1402752105  MEMB      364             0.0000000000
     45215       364  PMPE      H2S            48.3619607234       32.0534242581      -12.4658399796  MEMB      364             0.0000000000
     45216       364  PMPE      C3             49.1593226993       28.0893209628      -15.1967440428  MEMB      364             0.0000000000
     45217       364  PMPE      HX             49.9931479684       28.5804032693      -15.4719448402  MEMB      364             0.0000000000
     45218       364  PMPE      HY             49.2927188164       27.2555892253      -15.8657082135  MEMB      364             0.0000000000
     45219       364  PMPE      O31            49.3025632778       27.7196449525      -13.8291906009  MEMB      364             0.0000000000
     45220       364  PMPE      C31            48.7005895015       26.7001215294      -13.5173644985  MEMB      364             0.0000000000
     45221       364  PMPE      O32            47.9844234631       26.0413223493      -14.2363441185  MEMB      364             0.0000000000
     45222       364  PMPE      C32            48.8942730310       26.7703995929      -12.1556629139  MEMB      364             0.0000000000
     45223       364  PMPE      H2X            49.5051713371       27.3581415505      -11.5778973634  MEMB      364             0.0000000000
     45224       364  PMPE      H2Y            48.9979910121       25.9445293940      -11.6403039271  MEMB      364             0.0000000000
     45225       364  PMPE      C23            46.5980941375       33.1901691808      -13.0446771303  MEMB      364             0.0000000000
     45226       364  PMPE      H3R            45.9537180445       32.7383196457      -12.2927463335  MEMB      364             0.0000000000
     45227       364  PMPE      H3S            46.0504250987       33.3702115742      -14.0007372478  MEMB      364             0.0000000000
     45228       364  PMPE      C24            47.0053860069       34.4595987795      -12.3369638426  MEMB      364             0.0000000000
     45229       364  PMPE      H4R            46.0485529289       34.9720816376      -12.0800274141  MEMB      364             0.0000000000
     45230       364  PMPE      H4S            47.6202458821       35.0494530285      -13.0508118542  MEMB      364             0.0000000000
     45231       364  PMPE      C25            47.7590419503       34.2127346475      -11.0293686609  MEMB      364             0.0000000000
     45232       364  PMPE      H5R            48.7371880188       33.7498456956      -11.2566338831  MEMB      364             0.0000000000
     45233       364  PMPE      H5S            47.2307285173       33.4620708686      -10.4061661505  MEMB      364             0.0000000000
     45234       364  PMPE      C26            48.0182595384       35.5257480151      -10.2997808190  MEMB      364             0.0000000000
     45235       364  PMPE      H6R            47.0437993956       35.9924482045      -10.0448406370  MEMB      364             0.0000000000
     45236       364  PMPE      H6S            48.5447745848       36.1923690371      -11.0201754213  MEMB      364             0.0000000000
     45237       364  PMPE      C27            48.9748814198       35.3551135555       -9.1166301952  MEMB      364             0.0000000000
     45238       364  PMPE      H7R            49.7438905210       36.1509112000       -9.1327386326  MEMB      364             0.0000000000
     45239       364  PMPE      H7S            49.5758495575       34.4301352698       -9.2114935037  MEMB      364             0.0000000000
     45240       364  PMPE      C28            48.3258816974       35.5745651699       -7.7524285488  MEMB      364             0.0000000000
     45241       364  PMPE      H8R            47.6442584485       36.4041510010       -7.8417432630  MEMB      364             0.0000000000
     45242       364  PMPE      H8S            49.1303570793       36.0146172907       -7.1294844076  MEMB      364             0.0000000000
     45243       364  PMPE      C29            47.5462201404       34.3553379980       -7.2263132644  MEMB      364             0.0000000000
     45244       364  PMPE      H9R            46.8716286835       33.7876397795       -7.8800794699  MEMB      364             0.0000000000
     45245       364  PMPE      C217           47.0223477110       34.3437757565       -5.7984795812  MEMB      364             0.0000000000
     45246       364  PMPE      H17R           46.0792294051       33.8205344086       -5.7192940009  MEMB      364             0.0000000000
     45247       364  PMPE      H17S           47.3949627568       35.1475669173       -5.1942699161  MEMB      364             0.0000000000
     45248       364  PMPE      C210           48.1130787407       33.4222163012       -6.2361142536  MEMB      364             0.0000000000
     45249       364  PMPE      H10R           47.7519031248       32.3771054467       -6.2476844192  MEMB      364             0.0000000000
     45250       364  PMPE      C211           49.3541766507       33.7379720104       -5.4804610068  MEMB      364             0.0000000000
     45251       364  PMPE      H11R           49.2292971466       33.2730873945       -4.4569556677  MEMB      364             0.0000000000
     45252       364  PMPE      H11S           49.6931961094       34.7503809777       -5.3527870178  MEMB      364             0.0000000000
     45253       364  PMPE      C212           50.4320423951       33.2093496413       -6.3346219786  MEMB      364             0.0000000000
     45254       364  PMPE      H12R           50.3712805654       32.8794086189       -7.3912185139  MEMB      364             0.0000000000
     45255       364  PMPE      H12S           49.9203428406       32.3252506794       -5.8646460903  MEMB      364             0.0000000000
     45256       364  PMPE      C213           51.9237257556       33.5283320984       -5.9398759975  MEMB      364             0.0000000000
     45257       364  PMPE      H13R           52.2924461089       34.3018926554       -6.5409542776  MEMB      364             0.0000000000
     45258       364  PMPE      H13S           52.7034453589       32.9498652113       -6.5419716019  MEMB      364             0.0000000000
     45259       364  PMPE      C214           52.2659583981       33.5564959677       -4.4226973059  MEMB      364             0.0000000000
     45260       364  PMPE      H14R           52.0644434190       32.8666068535       -3.5616106082  MEMB      364             0.0000000000
     45261       364  PMPE      H14S           51.7165425254       34.1217524508       -3.7738715402  MEMB      364             0.0000000000
     45262       364  PMPE      C215           53.3860886354       33.0027754037       -3.9128617751  MEMB      364             0.0000000000
     45263       364  PMPE      H15R           53.6086642686       34.0524470275       -4.1824009428  MEMB      364             0.0000000000
     45264       364  PMPE      H15S           53.9865852696       32.1559853100       -4.3644268786  MEMB      364             0.0000000000
     45265       364  PMPE      C216           53.6211445425       33.0187967612       -2.4344904191  MEMB      364             0.0000000000
     45266       364  PMPE      H16R           53.3815930201       33.9518715211       -1.9163238622  MEMB      364             0.0000000000
     45267       364  PMPE      H16S           53.5858061298       32.0741547525       -1.9206334953  MEMB      364             0.0000000000
     45268       364  PMPE      H16T           54.6296984016       33.0628240006       -2.4545923679  MEMB      364             0.0000000000
     45269       364  PMPE      C33            48.1072328705       26.7200032560      -11.5608402300  MEMB      364             0.0000000000
     45270       364  PMPE      H3X            47.9798526521       26.3323600963      -10.4205073810  MEMB      364             0.0000000000
     45271       364  PMPE      H3Y            47.3517126356       25.9139682568      -11.7248027794  MEMB      364             0.0000000000
     45272       364  PMPE      C34            47.7245607140       29.3722446319      -11.2907014500  MEMB      364             0.0000000000
     45273       364  PMPE      H4X            47.7700679006       29.0969618221      -12.0483643053  MEMB      364             0.0000000000
     45274       364  PMPE      H4Y            48.5993911551       29.5498988907      -11.1759440180  MEMB      364             0.0000000000
     45275       364  PMPE      C35            46.4366818920       29.4461077377      -10.0165010840  MEMB      364             0.0000000000
     45276       364  PMPE      H5X            46.6336360100       28.8400593220       -9.1840896871  MEMB      364             0.0000000000
     45277       364  PMPE      H5Y            45.2862760095       28.9593959655      -10.1676338880  MEMB      364             0.0000000000
     45278       364  PMPE      C36            46.5076887588       30.6800545707      -10.0764286595  MEMB      364             0.0000000000
     45279       364  PMPE      H6X            46.2978068667       30.9039031733      -11.1680512882  MEMB      364             0.0000000000
     45280       364  PMPE      H6Y            47.4939786076       30.9874401450       -9.9480978522  MEMB      364             0.0000000000
     45281       364  PMPE      C37            45.6510729729       31.0861811850       -8.9701599919  MEMB      364             0.0000000000
     45282       364  PMPE      H7X            44.9433835399       30.2730988893       -9.1740919752  MEMB      364             0.0000000000
     45283       364  PMPE      H7Y            45.2241376851       32.1735846622       -9.0493362114  MEMB      364             0.0000000000
     45284       364  PMPE      C38            46.0246845700       30.9293438829       -7.6672957726  MEMB      364             0.0000000000
     45285       364  PMPE      H8X            45.8252119967       31.9533384759       -7.3034578378  MEMB      364             0.0000000000
     45286       364  PMPE      H8Y            47.0535179908       30.6976260913       -7.7876400905  MEMB      364             0.0000000000
     45287       364  PMPE      C39            45.2863531322       29.8658003682       -6.9543899072  MEMB      364             0.0000000000
     45288       364  PMPE      H9X            45.5090222470       28.8702485092       -7.3529222145  MEMB      364             0.0000000000
     45289       364  PMPE      H9Y            44.2763445804       30.0369806262       -7.2473085006  MEMB      364             0.0000000000
     45290       364  PMPE      C310           45.6158610854       29.9791225250       -5.4974586465  MEMB      364             0.0000000000
     45291       364  PMPE      H10X           44.8953191007       29.4964107285       -4.8132794778  MEMB      364             0.0000000000
     45292       364  PMPE      H10Y           45.6478694512       31.0320649883       -5.1360714534  MEMB      364             0.0000000000
     45293       364  PMPE      C311           46.9474214850       29.3704428185       -5.2609361199  MEMB      364             0.0000000000
     45294       364  PMPE      H11X           47.7550712837       29.6740236843       -5.9694673601  MEMB      364             0.0000000000
     45295       364  PMPE      H11Y           46.9065663057       28.2579137907       -5.2730163797  MEMB      364             0.0000000000
     45296       364  PMPE      C312           47.3270281160       29.8940483278       -3.9483632456  MEMB      364             0.0000000000
     45297       364  PMPE      H12X           46.8038225342       29.4819999871       -3.0836676270  MEMB      364             0.0000000000
     45298       364  PMPE      H12Y           47.6317323096       30.9462142174       -3.8616965698  MEMB      364             0.0000000000
     45299       364  PMPE      C313           48.5414886841       29.6003167917       -3.7397509972  MEMB      364             0.0000000000
     45300       364  PMPE      H13X           49.2985622431       29.3715586038       -4.6194259185  MEMB      364             0.0000000000
     45301       364  PMPE      H13Y           48.9533136891       28.9828190622       -4.1207410421  MEMB      364             0.0000000000
     45302       364  PMPE      C314           49.1047553775       29.7512796371       -2.4996474464  MEMB      364             0.0000000000
     45303       364  PMPE      H14X           49.1550521008       30.9069875509       -2.7687535348  MEMB      364             0.0000000000
     45304       364  PMPE      H14Y           50.0989168189       28.9239246514       -2.7971449055  MEMB      364             0.0000000000
     45305       364  PMPE      C315           48.9275967831       29.5152085544       -0.9840734861  MEMB      364             0.0000000000
     45306       364  PMPE      H15X           49.0931158108       28.4792483502       -0.6800447806  MEMB      364             0.0000000000
     45307       364  PMPE      H15Y           47.9286904403       29.9115120945       -1.0651862576  MEMB      364             0.0000000000
     45308       364  PMPE      C316           49.9169467641       30.0881005992        0.0915475358  MEMB      364             0.0000000000
     45309       364  PMPE      H16X           49.6749505483       30.0312492859        1.1318753565  MEMB      364             0.0000000000
     45310       364  PMPE      H16Y           50.0685580267       31.1357349771       -0.1961468610  MEMB      364             0.0000000000
     45311       364  PMPE      H16Z           51.0136976825       29.9812638600        0.1127334992  MEMB      364             0.0000000000
     45312       365  POPE      N             -53.9999358767       18.2924982659      -18.1118510898  MEMB      365             0.0000000000
     45313       365  POPE      HN1           -53.6178417792       19.2750404527      -18.0652616238  MEMB      365             0.0000000000
     45314       365  POPE      HN2           -54.5744422194       18.2129559356      -17.2235741565  MEMB      365             0.0000000000
     45315       365  POPE      HN3           -53.2560307504       17.5984259751      -18.0518862107  MEMB      365             0.0000000000
     45316       365  POPE      C12           -54.8678709186       18.2271063335      -19.2787024543  MEMB      365             0.0000000000
     45317       365  POPE      H12A          -54.1570922684       18.2338656345      -20.1172922250  MEMB      365             0.0000000000
     45318       365  POPE      H12B          -55.5055458983       19.1267276646      -19.3449146057  MEMB      365             0.0000000000
     45319       365  POPE      C11           -55.6935918048       16.9733919900      -19.2135252124  MEMB      365             0.0000000000
     45320       365  POPE      H11A          -56.1839435657       16.8462845475      -20.1657060355  MEMB      365             0.0000000000
     45321       365  POPE      H11B          -56.5116319150       17.0221341631      -18.4586594996  MEMB      365             0.0000000000
     45322       365  POPE      P             -55.4525889572       14.4721331126      -19.2154734941  MEMB      365             0.0000000000
     45323       365  POPE      O13           -54.5026802057       13.4016411297      -18.9324425199  MEMB      365             0.0000000000
     45324       365  POPE      O14           -56.2841738147       14.3150173885      -20.4163142359  MEMB      365             0.0000000000
     45325       365  POPE      O11           -56.4223492714       14.6992452578      -17.9665467364  MEMB      365             0.0000000000
     45326       365  POPE      O12           -54.8277582468       15.8698341178      -19.0636905869  MEMB      365             0.0000000000
     45327       365  POPE      C1            -57.4301834618       13.8229061134      -17.7601593198  MEMB      365             0.0000000000
     45328       365  POPE      HA            -56.7016158980       12.9357701983      -17.5783109781  MEMB      365             0.0000000000
     45329       365  POPE      HB            -58.1845396581       13.8191497374      -18.6520276043  MEMB      365             0.0000000000
     45330       365  POPE      C2            -58.5676499048       13.8340048477      -16.6797844213  MEMB      365             0.0000000000
     45331       365  POPE      HS            -59.4211683123       14.1702283880      -17.3365065748  MEMB      365             0.0000000000
     45332       365  POPE      O21           -58.0631039376       14.7266812482      -15.7945081558  MEMB      365             0.0000000000
     45333       365  POPE      C21           -58.9982583603       15.3641046595      -15.2299461052  MEMB      365             0.0000000000
     45334       365  POPE      O22           -60.2068619176       15.2376428220      -15.3528619598  MEMB      365             0.0000000000
     45335       365  POPE      C22           -58.2345768288       16.3320523763      -14.4511899963  MEMB      365             0.0000000000
     45336       365  POPE      H2R           -57.5205738654       15.8505061831      -13.7559585735  MEMB      365             0.0000000000
     45337       365  POPE      H2S           -59.0675078152       16.7342455256      -13.8858104692  MEMB      365             0.0000000000
     45338       365  POPE      C3            -58.9318842107       12.4895563558      -15.8685234364  MEMB      365             0.0000000000
     45339       365  POPE      HX            -59.5207369438       11.8325499684      -16.5292040919  MEMB      365             0.0000000000
     45340       365  POPE      HY            -59.6806846009       12.5477404836      -15.0955427014  MEMB      365             0.0000000000
     45341       365  POPE      O31           -57.6898843783       11.7791487948      -15.5478786670  MEMB      365             0.0000000000
     45342       365  POPE      C31           -57.2826473152       12.1430650976      -14.3370001496  MEMB      365             0.0000000000
     45343       365  POPE      O32           -57.9960957130       12.6451430326      -13.5014158069  MEMB      365             0.0000000000
     45344       365  POPE      C32           -55.8097392555       12.0162753568      -14.1494166097  MEMB      365             0.0000000000
     45345       365  POPE      H2X           -55.2917741804       12.7936737595      -14.7327138286  MEMB      365             0.0000000000
     45346       365  POPE      H2Y           -55.5793326806       11.0748022589      -14.6044952403  MEMB      365             0.0000000000
     45347       365  POPE      C23           -57.4949155580       17.3760294381      -15.2611937638  MEMB      365             0.0000000000
     45348       365  POPE      H3R           -58.1982082994       17.8996241099      -15.9296928933  MEMB      365             0.0000000000
     45349       365  POPE      H3S           -56.6522569355       16.9421838119      -15.8302240924  MEMB      365             0.0000000000
     45350       365  POPE      C24           -56.8825584895       18.4585038526      -14.4772247370  MEMB      365             0.0000000000
     45351       365  POPE      H4R           -57.5281500488       19.2135627821      -14.0374503391  MEMB      365             0.0000000000
     45352       365  POPE      H4S           -56.7179375379       19.1510092582      -15.3135968934  MEMB      365             0.0000000000
     45353       365  POPE      C25           -55.8526336437       17.9968939249      -13.3288245119  MEMB      365             0.0000000000
     45354       365  POPE      H5R           -56.2866419692       17.2216998615      -12.6973822581  MEMB      365             0.0000000000
     45355       365  POPE      H5S           -55.9437027927       18.8895600291      -12.7022214660  MEMB      365             0.0000000000
     45356       365  POPE      C26           -54.3615878620       17.4868990766      -13.7224624708  MEMB      365             0.0000000000
     45357       365  POPE      H6R           -53.5650385707       18.0894888774      -14.3214713710  MEMB      365             0.0000000000
     45358       365  POPE      H6S           -54.5926419102       16.7373804065      -14.4643790004  MEMB      365             0.0000000000
     45359       365  POPE      C27           -53.4413623913       17.3112276365      -12.6394832046  MEMB      365             0.0000000000
     45360       365  POPE      H7R           -53.1437190297       18.2404479494      -12.1716893784  MEMB      365             0.0000000000
     45361       365  POPE      H7S           -52.5398341308       17.2030790542      -13.2414554537  MEMB      365             0.0000000000
     45362       365  POPE      C28           -53.9674555409       16.1611513309      -11.7826871320  MEMB      365             0.0000000000
     45363       365  POPE      H8R           -54.5182732486       15.4761490634      -12.4617339154  MEMB      365             0.0000000000
     45364       365  POPE      H8S           -54.6318116331       16.5190739521      -11.0174430447  MEMB      365             0.0000000000
     45365       365  POPE      C29           -53.1493763659       15.2258383194      -10.9850308948  MEMB      365             0.0000000000
     45366       365  POPE      H91           -52.6346295846       14.4821245014      -11.6362209597  MEMB      365             0.0000000000
     45367       365  POPE      C210          -52.6666024112       15.3317687379       -9.7600861514  MEMB      365             0.0000000000
     45368       365  POPE      H101          -51.7781251952       14.7451873480       -9.5340883556  MEMB      365             0.0000000000
     45369       365  POPE      C211          -52.8121054407       16.4623951084       -8.8406077396  MEMB      365             0.0000000000
     45370       365  POPE      H11R          -52.9980268939       17.4656211073       -9.2885184886  MEMB      365             0.0000000000
     45371       365  POPE      H11S          -51.8982769642       16.4409759098       -8.2616644154  MEMB      365             0.0000000000
     45372       365  POPE      C212          -53.8630484030       16.2792545971       -7.8803379618  MEMB      365             0.0000000000
     45373       365  POPE      H12R          -53.5346840085       15.5681875287       -7.0970400466  MEMB      365             0.0000000000
     45374       365  POPE      H12S          -54.7464977405       15.9397118190       -8.4674819098  MEMB      365             0.0000000000
     45375       365  POPE      C213          -54.1139801342       17.5535647799       -7.1497965648  MEMB      365             0.0000000000
     45376       365  POPE      H13R          -54.3796028132       18.3780421134       -7.7977547573  MEMB      365             0.0000000000
     45377       365  POPE      H13S          -53.2869364988       17.9194302610       -6.5161341153  MEMB      365             0.0000000000
     45378       365  POPE      C214          -55.2886610151       17.2943823453       -6.3123693820  MEMB      365             0.0000000000
     45379       365  POPE      H14R          -56.1545311430       17.0600223618       -6.9624071032  MEMB      365             0.0000000000
     45380       365  POPE      H14S          -55.3762246957       18.2286559770       -5.8096866445  MEMB      365             0.0000000000
     45381       365  POPE      C215          -55.1390324683       16.4494396547       -5.0978255545  MEMB      365             0.0000000000
     45382       365  POPE      H15R          -54.9114371304       15.4481125983       -5.4992015102  MEMB      365             0.0000000000
     45383       365  POPE      H15S          -56.1046103164       16.4380138916       -4.5242775168  MEMB      365             0.0000000000
     45384       365  POPE      C216          -53.9700666087       16.9854747378       -4.2348984859  MEMB      365             0.0000000000
     45385       365  POPE      H16R          -54.1761027786       18.0319528672       -3.9911482639  MEMB      365             0.0000000000
     45386       365  POPE      H16S          -53.0536453050       16.8236933312       -4.8150808577  MEMB      365             0.0000000000
     45387       365  POPE      C217          -53.6163708030       16.3845572334       -2.9392818997  MEMB      365             0.0000000000
     45388       365  POPE      H17R          -52.7074461115       16.5819538585       -2.3970864870  MEMB      365             0.0000000000
     45389       365  POPE      H17S          -53.4926675946       15.3258371136       -3.3221801246  MEMB      365             0.0000000000
     45390       365  POPE      C218          -54.6777849012       16.6724420133       -1.9110116771  MEMB      365             0.0000000000
     45391       365  POPE      H18R          -55.1031530295       17.3982697638       -1.3114368056  MEMB      365             0.0000000000
     45392       365  POPE      H18S          -54.1857290387       15.9421165919       -1.1892352303  MEMB      365             0.0000000000
     45393       365  POPE      H18T          -55.7543369064       16.4542152581       -2.3242830445  MEMB      365             0.0000000000
     45394       365  POPE      C33           -55.4855642634       12.0607288972      -12.6447467171  MEMB      365             0.0000000000
     45395       365  POPE      H3X           -56.0976491883       11.2813189099      -12.1451814317  MEMB      365             0.0000000000
     45396       365  POPE      H3Y           -55.7339666757       13.0530275308      -12.2367068015  MEMB      365             0.0000000000
     45397       365  POPE      C34           -54.0674768909       11.7424510727      -12.2911442183  MEMB      365             0.0000000000
     45398       365  POPE      H4X           -53.4027603194       12.2737898306      -13.0149167935  MEMB      365             0.0000000000
     45399       365  POPE      H4Y           -54.0033082090       10.6114151212      -12.2642960976  MEMB      365             0.0000000000
     45400       365  POPE      C35           -53.5643738519       11.9243415881      -10.9375025763  MEMB      365             0.0000000000
     45401       365  POPE      H5X           -54.3411569767       11.5263775313      -10.2347996610  MEMB      365             0.0000000000
     45402       365  POPE      H5Y           -53.4693496439       12.9574213020      -10.6494515328  MEMB      365             0.0000000000
     45403       365  POPE      C36           -52.1218152954       11.3896684668      -10.8390495318  MEMB      365             0.0000000000
     45404       365  POPE      H6X           -51.4687410475       11.7486046463      -11.5105377990  MEMB      365             0.0000000000
     45405       365  POPE      H6Y           -51.9951252411       10.1509964024      -11.0696592969  MEMB      365             0.0000000000
     45406       365  POPE      C37           -51.4778886923       12.1720805017       -9.5797038936  MEMB      365             0.0000000000
     45407       365  POPE      H7X           -51.3068736381       13.1568754689       -9.5177721048  MEMB      365             0.0000000000
     45408       365  POPE      H7Y           -50.3998349718       11.7338980468       -9.8314228635  MEMB      365             0.0000000000
     45409       365  POPE      C38           -52.3045100510       12.2243139177       -8.0481767838  MEMB      365             0.0000000000
     45410       365  POPE      H8X           -52.0009297454       11.5402336383       -7.3862391997  MEMB      365             0.0000000000
     45411       365  POPE      H8Y           -53.1524336324       11.5970720655       -7.8226065181  MEMB      365             0.0000000000
     45412       365  POPE      C39           -51.9865851999       12.9401608947       -6.7882465892  MEMB      365             0.0000000000
     45413       365  POPE      H9X           -52.2510519884       13.8700737053       -6.9446641110  MEMB      365             0.0000000000
     45414       365  POPE      H9Y           -51.1441063665       13.5111426913       -7.1103087240  MEMB      365             0.0000000000
     45415       365  POPE      C310          -51.9526542167       12.4292803475       -5.2514383728  MEMB      365             0.0000000000
     45416       365  POPE      H10X          -51.5778498983       13.3510684515       -4.7042970715  MEMB      365             0.0000000000
     45417       365  POPE      H10Y          -51.1413527601       11.7284463140       -4.8129600313  MEMB      365             0.0000000000
     45418       365  POPE      C311          -53.1806259304       11.9805466963       -5.0765279281  MEMB      365             0.0000000000
     45419       365  POPE      H11X          -53.4474859315       11.0681226497       -5.6188763949  MEMB      365             0.0000000000
     45420       365  POPE      H11Y          -53.7098213714       12.8844052435       -5.0671466883  MEMB      365             0.0000000000
     45421       365  POPE      C312          -53.3137600108       11.7543879529       -3.8313908856  MEMB      365             0.0000000000
     45422       365  POPE      H12X          -52.7754663566       12.5628939722       -3.2093128578  MEMB      365             0.0000000000
     45423       365  POPE      H12Y          -52.5855556623       10.7980353673       -4.2095027860  MEMB      365             0.0000000000
     45424       365  POPE      C313          -54.5532290547       11.1839461770       -2.9673488731  MEMB      365             0.0000000000
     45425       365  POPE      H13X          -54.7657398500       10.2178084653       -3.4660494335  MEMB      365             0.0000000000
     45426       365  POPE      H13Y          -55.3135923318       11.9210611269       -3.0933125086  MEMB      365             0.0000000000
     45427       365  POPE      C314          -54.4530073606       10.6675445172       -1.3972801563  MEMB      365             0.0000000000
     45428       365  POPE      H14X          -54.0705169154        9.6016046493       -1.4101938291  MEMB      365             0.0000000000
     45429       365  POPE      H14Y          -55.4002709140       10.3854524377       -0.9700476219  MEMB      365             0.0000000000
     45430       365  POPE      C315          -53.5473276574       11.5030865917       -0.3760237198  MEMB      365             0.0000000000
     45431       365  POPE      H15X          -53.8317486472       12.4700250159       -0.2825550139  MEMB      365             0.0000000000
     45432       365  POPE      H15Y          -52.4252083641       11.7972100867       -0.4599251384  MEMB      365             0.0000000000
     45433       365  POPE      C316          -53.3589119241       10.8219252402        0.7128182021  MEMB      365             0.0000000000
     45434       365  POPE      H16X          -54.2605721709       10.6850493058        1.2767534774  MEMB      365             0.0000000000
     45435       365  POPE      H16Y          -52.5418449501       11.3455430358        1.3509840900  MEMB      365             0.0000000000
     45436       365  POPE      H16Z          -53.0500481954        9.7681328844        0.4567846237  MEMB      365             0.0000000000
     45437       366  PMPE      N              51.7949128884       21.7548388579      -16.7326108437  MEMB      366             0.0000000000
     45438       366  PMPE      HN1            52.6859370039       21.4263328582      -17.1549280640  MEMB      366             0.0000000000
     45439       366  PMPE      HN2            51.9538410255       22.0756796551      -15.7505822069  MEMB      366             0.0000000000
     45440       366  PMPE      HN3            51.0704831829       21.0060097865      -16.6562567517  MEMB      366             0.0000000000
     45441       366  PMPE      C12            51.2112317581       22.7423074723      -17.7049569831  MEMB      366             0.0000000000
     45442       366  PMPE      H12A           50.2867525378       23.1088799840      -17.2145343610  MEMB      366             0.0000000000
     45443       366  PMPE      H12B           50.9965220609       22.2045249681      -18.6651222786  MEMB      366             0.0000000000
     45444       366  PMPE      C11            52.1602397826       23.9059292494      -17.9931163212  MEMB      366             0.0000000000
     45445       366  PMPE      H11A           52.8789101251       24.0687491607      -17.1642690013  MEMB      366             0.0000000000
     45446       366  PMPE      H11B           51.5151842598       24.8142101888      -18.0825216011  MEMB      366             0.0000000000
     45447       366  PMPE      P              53.4319257284       24.9235434963      -20.0262109191  MEMB      366             0.0000000000
     45448       366  PMPE      O13            52.3347544391       25.8693263453      -20.3106510496  MEMB      366             0.0000000000
     45449       366  PMPE      O14            54.2724937882       24.4699069764      -21.1486272607  MEMB      366             0.0000000000
     45450       366  PMPE      O11            54.3058509517       25.5749420204      -18.8613586527  MEMB      366             0.0000000000
     45451       366  PMPE      O12            52.8728865587       23.6573915915      -19.2010922459  MEMB      366             0.0000000000
     45452       366  PMPE      C1             55.7157098485       25.4670810743      -18.7677810966  MEMB      366             0.0000000000
     45453       366  PMPE      HA             56.2197206201       26.3364111071      -19.2467011640  MEMB      366             0.0000000000
     45454       366  PMPE      HB             56.0967938340       24.6085383946      -19.3459773602  MEMB      366             0.0000000000
     45455       366  PMPE      C2             56.2102566310       25.4331773257      -17.2964221469  MEMB      366             0.0000000000
     45456       366  PMPE      HS             57.2430918257       25.3507655696      -17.3126792359  MEMB      366             0.0000000000
     45457       366  PMPE      O21            55.6177679372       24.4101503309      -16.4722107203  MEMB      366             0.0000000000
     45458       366  PMPE      C21            55.7600025020       23.1517733339      -16.8387141858  MEMB      366             0.0000000000
     45459       366  PMPE      O22            56.4196729625       22.6799787794      -17.7296108062  MEMB      366             0.0000000000
     45460       366  PMPE      C22            54.9452965997       22.2831556504      -15.8872889990  MEMB      366             0.0000000000
     45461       366  PMPE      H2R            54.6139013145       21.3664869472      -16.4256035246  MEMB      366             0.0000000000
     45462       366  PMPE      H2S            54.0834452850       22.9107431194      -15.5983596356  MEMB      366             0.0000000000
     45463       366  PMPE      C3             56.0513434725       26.8107351308      -16.5773062609  MEMB      366             0.0000000000
     45464       366  PMPE      HX             56.5940370968       27.5351526144      -17.2433296947  MEMB      366             0.0000000000
     45465       366  PMPE      HY             56.5876384092       26.7648445159      -15.6036366932  MEMB      366             0.0000000000
     45466       366  PMPE      O31            54.7120374556       27.2457327068      -16.4107716453  MEMB      366             0.0000000000
     45467       366  PMPE      C31            54.1598145205       27.0664637463      -15.2248174217  MEMB      366             0.0000000000
     45468       366  PMPE      O32            54.6342162758       26.6113998393      -14.2100407228  MEMB      366             0.0000000000
     45469       366  PMPE      C32            52.7525870692       27.4262476910      -15.3542942298  MEMB      366             0.0000000000
     45470       366  PMPE      H2X            52.1996029593       26.9532555570      -16.1452854458  MEMB      366             0.0000000000
     45471       366  PMPE      H2Y            52.9323310343       28.3699495743      -15.9136607206  MEMB      366             0.0000000000
     45472       366  PMPE      C23            55.8246296978       21.8890695450      -14.6934537731  MEMB      366             0.0000000000
     45473       366  PMPE      H3R            56.8654862549       21.8029694390      -15.0480107385  MEMB      366             0.0000000000
     45474       366  PMPE      H3S            55.5033865073       20.9529651117      -14.2417814420  MEMB      366             0.0000000000
     45475       366  PMPE      C24            55.8099787245       22.8617561779      -13.5226014927  MEMB      366             0.0000000000
     45476       366  PMPE      H4R            54.7524499701       23.1014003360      -13.3386295062  MEMB      366             0.0000000000
     45477       366  PMPE      H4S            56.4072299614       23.7548628997      -13.8210461851  MEMB      366             0.0000000000
     45478       366  PMPE      C25            56.5549047186       22.4465817361      -12.2412382240  MEMB      366             0.0000000000
     45479       366  PMPE      H5R            56.9075303780       23.2596951322      -11.6059963873  MEMB      366             0.0000000000
     45480       366  PMPE      H5S            57.5271813415       22.2049089525      -12.6925668432  MEMB      366             0.0000000000
     45481       366  PMPE      C26            55.8832212239       21.5123690982      -11.1621698618  MEMB      366             0.0000000000
     45482       366  PMPE      H6R            55.3056219206       20.7347233377      -11.5576456391  MEMB      366             0.0000000000
     45483       366  PMPE      H6S            55.4022034611       22.0568382405      -10.3571962733  MEMB      366             0.0000000000
     45484       366  PMPE      C27            56.7640469245       20.7370737433      -10.2281844145  MEMB      366             0.0000000000
     45485       366  PMPE      H7R            57.4629773980       21.5767462823      -10.0478111897  MEMB      366             0.0000000000
     45486       366  PMPE      H7S            57.0608864114       19.7823082556      -10.6997422668  MEMB      366             0.0000000000
     45487       366  PMPE      C28            56.5343736391       19.9672780868       -9.0074930545  MEMB      366             0.0000000000
     45488       366  PMPE      H8R            56.2524431713       20.7430578683       -8.3360662988  MEMB      366             0.0000000000
     45489       366  PMPE      H8S            57.4448722042       19.4750645892       -8.6758588331  MEMB      366             0.0000000000
     45490       366  PMPE      C29            55.5987035602       18.8928264337       -9.2464496796  MEMB      366             0.0000000000
     45491       366  PMPE      H9R            55.9844229512       18.0646717914       -9.8757408342  MEMB      366             0.0000000000
     45492       366  PMPE      C217           54.2461117984       19.5373942622       -9.3948530976  MEMB      366             0.0000000000
     45493       366  PMPE      H17R           53.7958506016       19.3249980723      -10.2388480189  MEMB      366             0.0000000000
     45494       366  PMPE      H17S           54.1383948496       20.5522050774       -9.1805766801  MEMB      366             0.0000000000
     45495       366  PMPE      C210           54.4729119676       18.5651720501       -8.3010830353  MEMB      366             0.0000000000
     45496       366  PMPE      H10R           54.1826160208       17.5036793622       -8.3825472052  MEMB      366             0.0000000000
     45497       366  PMPE      C211           54.3138292066       19.3195536980       -7.0065165054  MEMB      366             0.0000000000
     45498       366  PMPE      H11R           53.2822489558       19.3500276660       -6.6476172794  MEMB      366             0.0000000000
     45499       366  PMPE      H11S           54.6569023812       20.3782707204       -7.1418828344  MEMB      366             0.0000000000
     45500       366  PMPE      C212           55.1117425869       18.5907794301       -5.9899678828  MEMB      366             0.0000000000
     45501       366  PMPE      H12R           56.0376702427       19.0943587375       -6.2466518022  MEMB      366             0.0000000000
     45502       366  PMPE      H12S           55.1432408025       17.4938375633       -6.0881847927  MEMB      366             0.0000000000
     45503       366  PMPE      C213           54.7399219531       18.6101235808       -4.5720263145  MEMB      366             0.0000000000
     45504       366  PMPE      H13R           55.4312215439       18.1022821523       -3.8671992926  MEMB      366             0.0000000000
     45505       366  PMPE      H13S           53.7028650108       18.4444737922       -4.3443000655  MEMB      366             0.0000000000
     45506       366  PMPE      C214           54.8158099574       19.7735146311       -4.0438749983  MEMB      366             0.0000000000
     45507       366  PMPE      H14R           54.0169805688       20.6146184587       -4.1627626182  MEMB      366             0.0000000000
     45508       366  PMPE      H14S           55.4121334221       20.4103893944       -4.8314623049  MEMB      366             0.0000000000
     45509       366  PMPE      C215           55.4360835171       19.7690381331       -2.1600772004  MEMB      366             0.0000000000
     45510       366  PMPE      H15R           56.4802473054       19.4167239462       -2.1544993248  MEMB      366             0.0000000000
     45511       366  PMPE      H15S           55.0376265626       19.3213148784       -1.4932410437  MEMB      366             0.0000000000
     45512       366  PMPE      C216           55.3094263821       21.9751842050       -1.1593387130  MEMB      366             0.0000000000
     45513       366  PMPE      H16R           54.5472752845       22.4281100402       -1.8814418263  MEMB      366             0.0000000000
     45514       366  PMPE      H16S           56.0801582674       21.4327417010       -0.8458032332  MEMB      366             0.0000000000
     45515       366  PMPE      H16T           55.9946181081       22.9823158374       -1.8453711859  MEMB      366             0.0000000000
     45516       366  PMPE      C33            52.0529223252       27.3284576407      -13.9546744677  MEMB      366             0.0000000000
     45517       366  PMPE      H3X            51.3215552583       28.0741129654      -13.8788195462  MEMB      366             0.0000000000
     45518       366  PMPE      H3Y            52.6303856772       27.5783628331      -13.0585850287  MEMB      366             0.0000000000
     45519       366  PMPE      C34            51.3232128602       26.0664512271      -13.6604977038  MEMB      366             0.0000000000
     45520       366  PMPE      H4X            51.8890842665       25.3326771379      -14.1332712895  MEMB      366             0.0000000000
     45521       366  PMPE      H4Y            50.4736832402       25.9451669855      -14.3374330384  MEMB      366             0.0000000000
     45522       366  PMPE      C35            51.2330986194       25.7092759376      -12.1697444744  MEMB      366             0.0000000000
     45523       366  PMPE      H5X            51.0784954737       26.6208132045      -11.5435603638  MEMB      366             0.0000000000
     45524       366  PMPE      H5Y            52.1865688195       25.4680402357      -11.8009395541  MEMB      366             0.0000000000
     45525       366  PMPE      C36            50.2981955553       24.4860652610      -11.8984080993  MEMB      366             0.0000000000
     45526       366  PMPE      H6X            50.5702409997       23.6440715850      -12.3664943336  MEMB      366             0.0000000000
     45527       366  PMPE      H6Y            49.3998710795       24.5966977545      -12.6477330339  MEMB      366             0.0000000000
     45528       366  PMPE      C37            49.7708340855       24.3409624300      -10.3778277260  MEMB      366             0.0000000000
     45529       366  PMPE      H7X            48.9135652771       23.6847279597      -10.2415388987  MEMB      366             0.0000000000
     45530       366  PMPE      H7Y            49.2918937602       25.1714082704       -9.8091086422  MEMB      366             0.0000000000
     45531       366  PMPE      C38            50.9376722194       23.7482330281       -9.7287942484  MEMB      366             0.0000000000
     45532       366  PMPE      H8X            51.7462521697       24.4944171583       -9.7608187875  MEMB      366             0.0000000000
     45533       366  PMPE      H8Y            51.2155979942       22.8541945531      -10.3149540833  MEMB      366             0.0000000000
     45534       366  PMPE      C39            50.8118029638       23.3324922623       -8.3302818746  MEMB      366             0.0000000000
     45535       366  PMPE      H9X            51.7803968302       22.8648698703       -8.0456601739  MEMB      366             0.0000000000
     45536       366  PMPE      H9Y            50.0303211548       22.5363282089       -8.2437027279  MEMB      366             0.0000000000
     45537       366  PMPE      C310           50.7127525790       24.5383203775       -7.4493780410  MEMB      366             0.0000000000
     45538       366  PMPE      H10X           49.6682120609       24.9243436522       -7.6045980674  MEMB      366             0.0000000000
     45539       366  PMPE      H10Y           51.4163780889       25.3816341329       -7.4453303108  MEMB      366             0.0000000000
     45540       366  PMPE      C311           51.1917536709       23.9437628747       -6.1547797564  MEMB      366             0.0000000000
     45541       366  PMPE      H11X           51.7995910675       23.1723335232       -5.9526097389  MEMB      366             0.0000000000
     45542       366  PMPE      H11Y           50.5140413314       23.1311503511       -6.2119588657  MEMB      366             0.0000000000
     45543       366  PMPE      C312           51.3606651206       24.6695667429       -4.9450275393  MEMB      366             0.0000000000
     45544       366  PMPE      H12X           50.8036496622       24.4150575159       -3.8439984301  MEMB      366             0.0000000000
     45545       366  PMPE      H12Y           50.8141975748       25.5615895806       -5.7123754366  MEMB      366             0.0000000000
     45546       366  PMPE      C313           52.4535128736       25.3768481900       -4.3959945362  MEMB      366             0.0000000000
     45547       366  PMPE      H13X           52.6929511381       25.7347600215       -5.3862673561  MEMB      366             0.0000000000
     45548       366  PMPE      H13Y           52.8863439040       24.4565168913       -3.9918462356  MEMB      366             0.0000000000
     45549       366  PMPE      C314           52.3054372180       26.5088566719       -3.3535574492  MEMB      366             0.0000000000
     45550       366  PMPE      H14X           51.6947947876       27.3913776612       -3.6703177746  MEMB      366             0.0000000000
     45551       366  PMPE      H14Y           53.3579209467       26.8567325871       -3.2534742278  MEMB      366             0.0000000000
     45552       366  PMPE      C315           51.8357115695       25.9959007771       -1.9784762556  MEMB      366             0.0000000000
     45553       366  PMPE      H15X           50.7523185692       25.8309802076       -1.9624854959  MEMB      366             0.0000000000
     45554       366  PMPE      H15Y           52.0425611885       26.7836749301       -1.2340577025  MEMB      366             0.0000000000
     45555       366  PMPE      C316           52.4332835705       24.6540575541       -1.5479926982  MEMB      366             0.0000000000
     45556       366  PMPE      H16X           52.3930554772       24.4846190345       -0.4503028568  MEMB      366             0.0000000000
     45557       366  PMPE      H16Y           53.4926045715       24.6282632465       -1.8788298913  MEMB      366             0.0000000000
     45558       366  PMPE      H16Z           51.8526340221       23.8448031504       -2.0607462605  MEMB      366             0.0000000000
     45559       367  PMPE      N              18.8644928646       55.5372626650      -20.3514806334  MEMB      367             0.0000000000
     45560       367  PMPE      HN1            18.2094593924       55.5268348496      -19.5751892775  MEMB      367             0.0000000000
     45561       367  PMPE      HN2            19.7005094628       56.1456705950      -20.1009425741  MEMB      367             0.0000000000
     45562       367  PMPE      HN3            18.4181217913       56.0298639306      -21.1565973050  MEMB      367             0.0000000000
     45563       367  PMPE      C12            19.3776267217       54.2262018900      -20.7582709546  MEMB      367             0.0000000000
     45564       367  PMPE      H12A           20.1081250476       54.3553716098      -21.5862416486  MEMB      367             0.0000000000
     45565       367  PMPE      H12B           18.4558685271       53.7514671767      -21.0470671054  MEMB      367             0.0000000000
     45566       367  PMPE      C11            20.0291018914       53.4521318777      -19.6292346320  MEMB      367             0.0000000000
     45567       367  PMPE      H11A           19.9987867026       52.3853412690      -19.9598447473  MEMB      367             0.0000000000
     45568       367  PMPE      H11B           19.4289864234       53.5347779851      -18.6878490151  MEMB      367             0.0000000000
     45569       367  PMPE      P              22.0235343947       54.5393196307      -18.2183004162  MEMB      367             0.0000000000
     45570       367  PMPE      O13            20.9212527709       55.2706478719      -17.5738931786  MEMB      367             0.0000000000
     45571       367  PMPE      O14            23.2475760394       55.2756655707      -18.6093313524  MEMB      367             0.0000000000
     45572       367  PMPE      O11            22.3103812604       53.2856769013      -17.3041198526  MEMB      367             0.0000000000
     45573       367  PMPE      O12            21.3884050389       53.8855398353      -19.5212427006  MEMB      367             0.0000000000
     45574       367  PMPE      C1             22.5970503176       51.9824435379      -17.8022459876  MEMB      367             0.0000000000
     45575       367  PMPE      HA             23.2372660534       52.0624682664      -18.7035015496  MEMB      367             0.0000000000
     45576       367  PMPE      HB             21.6751868591       51.4718285834      -18.1145495606  MEMB      367             0.0000000000
     45577       367  PMPE      C2             23.2731990889       51.1276753870      -16.7142593736  MEMB      367             0.0000000000
     45578       367  PMPE      HS             23.2950822378       50.0310230742      -16.9322192218  MEMB      367             0.0000000000
     45579       367  PMPE      O21            22.5745258648       51.3670855816      -15.4715732639  MEMB      367             0.0000000000
     45580       367  PMPE      C21            22.8035292105       50.5114485968      -14.5403145995  MEMB      367             0.0000000000
     45581       367  PMPE      O22            23.4988828694       49.5779218959      -14.7092688559  MEMB      367             0.0000000000
     45582       367  PMPE      C22            22.1509208208       50.9168554614      -13.2915007036  MEMB      367             0.0000000000
     45583       367  PMPE      H2R            21.3470968998       50.2493014722      -12.9145461223  MEMB      367             0.0000000000
     45584       367  PMPE      H2S            21.8992462514       51.9541037324      -13.3362624956  MEMB      367             0.0000000000
     45585       367  PMPE      C3             24.7208570811       51.6157361986      -16.7083395768  MEMB      367             0.0000000000
     45586       367  PMPE      HX             25.2248494145       51.5152379833      -17.6812747202  MEMB      367             0.0000000000
     45587       367  PMPE      HY             25.1584381790       50.8691655690      -16.1667008627  MEMB      367             0.0000000000
     45588       367  PMPE      O31            24.7811585969       52.9513178682      -16.2193840627  MEMB      367             0.0000000000
     45589       367  PMPE      C31            25.2400737405       53.3771708300      -15.0792058752  MEMB      367             0.0000000000
     45590       367  PMPE      O32            26.0243513126       52.9736442975      -14.3154862860  MEMB      367             0.0000000000
     45591       367  PMPE      C32            24.7924222258       54.6515812106      -14.5659886627  MEMB      367             0.0000000000
     45592       367  PMPE      H2X            24.0950239290       54.9920522489      -15.3153193409  MEMB      367             0.0000000000
     45593       367  PMPE      H2Y            25.7024322676       55.2976314413      -14.4651279222  MEMB      367             0.0000000000
     45594       367  PMPE      C23            23.1225913178       51.0778782863      -12.2476353353  MEMB      367             0.0000000000
     45595       367  PMPE      H3R            23.8684423321       51.8878427952      -12.1995975128  MEMB      367             0.0000000000
     45596       367  PMPE      H3S            23.7542546874       50.1055908099      -12.3616842887  MEMB      367             0.0000000000
     45597       367  PMPE      C24            22.4512528715       51.3237055774      -10.8390286409  MEMB      367             0.0000000000
     45598       367  PMPE      H4R            22.7381881740       50.9619958781       -9.8405229944  MEMB      367             0.0000000000
     45599       367  PMPE      H4S            22.4896057811       50.5632343943      -10.0682980559  MEMB      367             0.0000000000
     45600       367  PMPE      C25            21.3199181355       51.9415409318      -10.4119227288  MEMB      367             0.0000000000
     45601       367  PMPE      H5R            20.5642174419       51.4946242714      -11.0570649408  MEMB      367             0.0000000000
     45602       367  PMPE      H5S            21.8193457561       52.8584495837      -10.7269446023  MEMB      367             0.0000000000
     45603       367  PMPE      C26            21.1794860796       51.7551358899       -8.8477885927  MEMB      367             0.0000000000
     45604       367  PMPE      H6R            20.6436102277       52.6567025093       -8.5320924291  MEMB      367             0.0000000000
     45605       367  PMPE      H6S            22.1950365331       51.7795783157       -8.3571472993  MEMB      367             0.0000000000
     45606       367  PMPE      C27            20.4995633032       50.4417491804       -8.3454244928  MEMB      367             0.0000000000
     45607       367  PMPE      H7R            21.2111288192       49.5756339731       -8.3706924912  MEMB      367             0.0000000000
     45608       367  PMPE      H7S            19.6213228459       50.2843196888       -9.0046242117  MEMB      367             0.0000000000
     45609       367  PMPE      C28            19.9869590640       50.4742678361       -6.9035662689  MEMB      367             0.0000000000
     45610       367  PMPE      H8R            19.3822366343       49.5672363116       -6.6411901409  MEMB      367             0.0000000000
     45611       367  PMPE      H8S            19.2941274217       51.3393031407       -6.8591313302  MEMB      367             0.0000000000
     45612       367  PMPE      C29            21.2333409037       50.6264764669       -6.0318616096  MEMB      367             0.0000000000
     45613       367  PMPE      H9R            21.9636259786       51.3974897156       -6.2232868942  MEMB      367             0.0000000000
     45614       367  PMPE      C217           21.7656415865       49.3019744556       -5.4925335747  MEMB      367             0.0000000000
     45615       367  PMPE      H17R           22.8150700315       49.3566418410       -5.2293812836  MEMB      367             0.0000000000
     45616       367  PMPE      H17S           21.0446647758       48.4981817161       -5.2796356201  MEMB      367             0.0000000000
     45617       367  PMPE      C210           21.1966217243       50.3456223357       -4.6608454349  MEMB      367             0.0000000000
     45618       367  PMPE      H10R           21.8590159147       51.0075599598       -4.0374122244  MEMB      367             0.0000000000
     45619       367  PMPE      C211           19.7274045428       50.2437614062       -4.4947338669  MEMB      367             0.0000000000
     45620       367  PMPE      H11R           20.4514136147       49.6185249233       -3.7375654363  MEMB      367             0.0000000000
     45621       367  PMPE      H11S           18.9721660016       49.4455974910       -4.5038506924  MEMB      367             0.0000000000
     45622       367  PMPE      C212           18.8820085431       51.8099358858       -4.1791378691  MEMB      367             0.0000000000
     45623       367  PMPE      H12R           18.2553500633       52.1269941954       -4.7919264253  MEMB      367             0.0000000000
     45624       367  PMPE      H12S           19.4243983972       52.6451196109       -3.5174085249  MEMB      367             0.0000000000
     45625       367  PMPE      C213           17.4254047032       51.7345548805       -3.0065070044  MEMB      367             0.0000000000
     45626       367  PMPE      H13R           16.7220740541       51.0443765937       -3.4189656268  MEMB      367             0.0000000000
     45627       367  PMPE      H13S           17.4397965160       52.6802380026       -2.4610414823  MEMB      367             0.0000000000
     45628       367  PMPE      C214           17.2480111408       51.0006826326       -1.5264921009  MEMB      367             0.0000000000
     45629       367  PMPE      H14R           17.9753307999       51.4841757183       -0.8004233731  MEMB      367             0.0000000000
     45630       367  PMPE      H14S           17.3920422613       49.8795364036       -1.7313792540  MEMB      367             0.0000000000
     45631       367  PMPE      C215           16.2092923745       50.4065189795       -0.6977858754  MEMB      367             0.0000000000
     45632       367  PMPE      H15R           16.4096849815       49.7287718800        0.0891243498  MEMB      367             0.0000000000
     45633       367  PMPE      H15S           15.7533998855       49.7031591085       -1.5012984715  MEMB      367             0.0000000000
     45634       367  PMPE      C216           15.5078463165       51.6051635723       -0.0806957590  MEMB      367             0.0000000000
     45635       367  PMPE      H16R           14.4044199829       51.3371691922        0.0538441224  MEMB      367             0.0000000000
     45636       367  PMPE      H16S           15.7976972782       51.9867452561        0.8421504368  MEMB      367             0.0000000000
     45637       367  PMPE      H16T           15.6272414047       52.3920249019       -0.8874880946  MEMB      367             0.0000000000
     45638       367  PMPE      C33            24.1606609031       54.5081438312      -13.1585435946  MEMB      367             0.0000000000
     45639       367  PMPE      H3X            24.8698483361       54.1472508870      -12.3831426491  MEMB      367             0.0000000000
     45640       367  PMPE      H3Y            23.3202676896       53.7872002195      -13.1998217923  MEMB      367             0.0000000000
     45641       367  PMPE      C34            23.6684498990       55.8675102644      -12.6970544994  MEMB      367             0.0000000000
     45642       367  PMPE      H4X            23.0815868500       56.3003504388      -13.5366691959  MEMB      367             0.0000000000
     45643       367  PMPE      H4Y            24.5473468362       56.4764008755      -12.4517841148  MEMB      367             0.0000000000
     45644       367  PMPE      C35            22.8222897870       55.9286182031      -11.4305352080  MEMB      367             0.0000000000
     45645       367  PMPE      H5X            22.0209143523       55.1736359311      -11.5044503927  MEMB      367             0.0000000000
     45646       367  PMPE      H5Y            22.3699112797       56.9521351195      -11.3748534118  MEMB      367             0.0000000000
     45647       367  PMPE      C36            23.6570708832       55.8204479070      -10.1465229776  MEMB      367             0.0000000000
     45648       367  PMPE      H6X            24.3439609277       56.6720277884      -10.2170851983  MEMB      367             0.0000000000
     45649       367  PMPE      H6Y            24.2980394072       54.9297432094      -10.1135027124  MEMB      367             0.0000000000
     45650       367  PMPE      C37            22.8293217197       55.8391966786       -8.8495610577  MEMB      367             0.0000000000
     45651       367  PMPE      H7X            22.1104632121       54.9848752692       -8.8530416895  MEMB      367             0.0000000000
     45652       367  PMPE      H7Y            22.2504336998       56.7884100084       -8.9349834397  MEMB      367             0.0000000000
     45653       367  PMPE      C38            23.6711871131       55.7322554606       -7.5486859150  MEMB      367             0.0000000000
     45654       367  PMPE      H8X            24.2437910371       56.6796623132       -7.4315219705  MEMB      367             0.0000000000
     45655       367  PMPE      H8Y            24.3823830454       54.8697173280       -7.5998256113  MEMB      367             0.0000000000
     45656       367  PMPE      C39            22.8251271277       55.6347233613       -6.2666532144  MEMB      367             0.0000000000
     45657       367  PMPE      H9X            22.2186525894       54.7030036439       -6.2591564670  MEMB      367             0.0000000000
     45658       367  PMPE      H9Y            22.1468300931       56.5145289600       -6.3134430062  MEMB      367             0.0000000000
     45659       367  PMPE      C310           23.6570030484       55.6344922718       -4.9698759402  MEMB      367             0.0000000000
     45660       367  PMPE      H10X           24.2951753285       56.5437481413       -4.9019708217  MEMB      367             0.0000000000
     45661       367  PMPE      H10Y           24.3137960223       54.7344162558       -5.0147261755  MEMB      367             0.0000000000
     45662       367  PMPE      C311           22.8372473159       55.7098390218       -3.6689414813  MEMB      367             0.0000000000
     45663       367  PMPE      H11X           22.3274173376       56.6960200700       -3.6637182986  MEMB      367             0.0000000000
     45664       367  PMPE      H11Y           23.5371360889       55.7597063422       -2.8012524741  MEMB      367             0.0000000000
     45665       367  PMPE      C312           21.8561773179       54.5436222535       -3.4520250222  MEMB      367             0.0000000000
     45666       367  PMPE      H12X           22.4368507469       53.6256940941       -3.6479520827  MEMB      367             0.0000000000
     45667       367  PMPE      H12Y           21.0134974278       54.5038112589       -4.1783021625  MEMB      367             0.0000000000
     45668       367  PMPE      C313           21.2458668708       54.4821013969       -2.0425476176  MEMB      367             0.0000000000
     45669       367  PMPE      H13X           21.8766004853       53.9240069706       -1.3244683250  MEMB      367             0.0000000000
     45670       367  PMPE      H13Y           20.2709939553       53.9576543137       -2.0847517710  MEMB      367             0.0000000000
     45671       367  PMPE      C314           20.9194279200       55.8692113019       -1.5120040372  MEMB      367             0.0000000000
     45672       367  PMPE      H14X           20.4049982867       56.3155920150       -2.3761314357  MEMB      367             0.0000000000
     45673       367  PMPE      H14Y           21.8625964957       56.4191746349       -1.3488308909  MEMB      367             0.0000000000
     45674       367  PMPE      C315           20.0678081423       55.8993975741       -0.2516275064  MEMB      367             0.0000000000
     45675       367  PMPE      H15X           19.1178302569       55.2943146757       -0.2632561343  MEMB      367             0.0000000000
     45676       367  PMPE      H15Y           19.6732311684       56.8466370986        0.0754447083  MEMB      367             0.0000000000
     45677       367  PMPE      C316           20.9005665153       55.4331897787        0.6914895116  MEMB      367             0.0000000000
     45678       367  PMPE      H16X           21.7338293399       55.6950286534        1.1774285577  MEMB      367             0.0000000000
     45679       367  PMPE      H16Y           21.4856718901       54.6441970578        0.3990093101  MEMB      367             0.0000000000
     45680       367  PMPE      H16Z           20.4348796454       55.3231915881        1.8567897755  MEMB      367             0.0000000000
     45681       368  POPE      N              48.9093585311      -26.4928080657      -20.6940054555  MEMB      368             0.0000000000
     45682       368  POPE      HN1            47.9869130187      -26.5636939191      -20.2162912403  MEMB      368             0.0000000000
     45683       368  POPE      HN2            49.5834647941      -26.0258528294      -20.0334420570  MEMB      368             0.0000000000
     45684       368  POPE      HN3            48.8253716219      -25.9859014805      -21.5903076270  MEMB      368             0.0000000000
     45685       368  POPE      C12            49.6181008692      -27.7977378503      -20.9627762651  MEMB      368             0.0000000000
     45686       368  POPE      H12A           50.0875555648      -27.6676774340      -21.9468657778  MEMB      368             0.0000000000
     45687       368  POPE      H12B           48.8686850898      -28.6033494397      -21.0352587448  MEMB      368             0.0000000000
     45688       368  POPE      C11            50.6979712429      -28.0872519989      -19.9024652379  MEMB      368             0.0000000000
     45689       368  POPE      H11A           51.6597723555      -28.3415540049      -20.4036849275  MEMB      368             0.0000000000
     45690       368  POPE      H11B           50.3995791787      -29.0126342473      -19.3366574687  MEMB      368             0.0000000000
     45691       368  POPE      P              52.1449689751      -26.8460501667      -18.0875782144  MEMB      368             0.0000000000
     45692       368  POPE      O13            53.2793866603      -26.2381556531      -18.8167342162  MEMB      368             0.0000000000
     45693       368  POPE      O14            52.3159632352      -28.1500119124      -17.4383881235  MEMB      368             0.0000000000
     45694       368  POPE      O11            51.6605198127      -25.7911468433      -17.0393558183  MEMB      368             0.0000000000
     45695       368  POPE      O12            50.8921915676      -26.9250195898      -19.0865294111  MEMB      368             0.0000000000
     45696       368  POPE      C1             51.0549278430      -24.5514825219      -17.3956097508  MEMB      368             0.0000000000
     45697       368  POPE      HA             50.7465749593      -24.5311614195      -18.4666623637  MEMB      368             0.0000000000
     45698       368  POPE      HB             51.7864623034      -23.7363792445      -17.1745645806  MEMB      368             0.0000000000
     45699       368  POPE      C2             49.7864480112      -24.2777345058      -16.5438471682  MEMB      368             0.0000000000
     45700       368  POPE      HS             49.5156081689      -23.1934186422      -16.6455298239  MEMB      368             0.0000000000
     45701       368  POPE      O21            49.9990669751      -24.6879019063      -15.1879722662  MEMB      368             0.0000000000
     45702       368  POPE      C21            50.5503649300      -23.7651392261      -14.4709733899  MEMB      368             0.0000000000
     45703       368  POPE      O22            51.0369377489      -22.7168912618      -14.8436854490  MEMB      368             0.0000000000
     45704       368  POPE      C22            50.3797594691      -24.1373619415      -13.0524350042  MEMB      368             0.0000000000
     45705       368  POPE      H2R            50.9226143013      -25.0643189570      -12.8950900441  MEMB      368             0.0000000000
     45706       368  POPE      H2S            49.3324519175      -24.4269356198      -12.9226256587  MEMB      368             0.0000000000
     45707       368  POPE      C3             48.5558383440      -25.0245078383      -17.0958650320  MEMB      368             0.0000000000
     45708       368  POPE      HX             48.4312682879      -24.6527786921      -18.1173724338  MEMB      368             0.0000000000
     45709       368  POPE      HY             47.6303163989      -24.7212843378      -16.5593272969  MEMB      368             0.0000000000
     45710       368  POPE      O31            48.7835884076      -26.4185209009      -17.1636712810  MEMB      368             0.0000000000
     45711       368  POPE      C31            47.9139236309      -27.1229750352      -16.6339934169  MEMB      368             0.0000000000
     45712       368  POPE      O32            46.7385422515      -26.8316835862      -16.3997984118  MEMB      368             0.0000000000
     45713       368  POPE      C32            48.7403094198      -28.4004825089      -16.5922624080  MEMB      368             0.0000000000
     45714       368  POPE      H2X            49.1473458774      -28.8747471514      -17.4783959559  MEMB      368             0.0000000000
     45715       368  POPE      H2Y            48.2320358916      -29.1643904818      -17.0243797414  MEMB      368             0.0000000000
     45716       368  POPE      C23            50.9826944390      -22.9933701548      -12.2394016615  MEMB      368             0.0000000000
     45717       368  POPE      H3R            50.6185248878      -21.9703556340      -12.5250671081  MEMB      368             0.0000000000
     45718       368  POPE      H3S            52.0558818304      -23.0276668858      -12.2385562924  MEMB      368             0.0000000000
     45719       368  POPE      C24            50.8165833522      -23.1863193059      -10.8189481782  MEMB      368             0.0000000000
     45720       368  POPE      H4R            50.8924750694      -24.1303142417      -10.2855075017  MEMB      368             0.0000000000
     45721       368  POPE      H4S            49.8522675717      -23.3871171157      -11.1995889149  MEMB      368             0.0000000000
     45722       368  POPE      C25            50.9049084221      -21.8421681456      -10.0075327588  MEMB      368             0.0000000000
     45723       368  POPE      H5R            50.7198512115      -20.8110465095      -10.2884761567  MEMB      368             0.0000000000
     45724       368  POPE      H5S            51.8007105453      -22.0350386136      -10.2840336160  MEMB      368             0.0000000000
     45725       368  POPE      C26            50.5303970312      -21.5129475156       -8.5568735710  MEMB      368             0.0000000000
     45726       368  POPE      H6R            51.1616127666      -20.8358274764       -8.0302716955  MEMB      368             0.0000000000
     45727       368  POPE      H6S            50.6620572754      -22.6080514249       -8.4759257422  MEMB      368             0.0000000000
     45728       368  POPE      C27            49.3859799133      -21.2637119384       -7.7132875078  MEMB      368             0.0000000000
     45729       368  POPE      H7R            49.1390171856      -22.1502159715       -8.0963170556  MEMB      368             0.0000000000
     45730       368  POPE      H7S            48.6554622000      -20.7140607478       -8.1941994572  MEMB      368             0.0000000000
     45731       368  POPE      C28            49.0746279979      -21.5720948587       -6.2095420352  MEMB      368             0.0000000000
     45732       368  POPE      H8R            48.3122440617      -20.7612595596       -6.1240740044  MEMB      368             0.0000000000
     45733       368  POPE      H8S            49.8467892737      -21.1530327562       -5.8360169230  MEMB      368             0.0000000000
     45734       368  POPE      C29            48.8671127073      -22.9520521034       -5.4589305782  MEMB      368             0.0000000000
     45735       368  POPE      H91            47.8632573367      -23.0291947103       -5.4622555444  MEMB      368             0.0000000000
     45736       368  POPE      C210           49.1479424848      -24.0958392119       -5.0002835647  MEMB      368             0.0000000000
     45737       368  POPE      H101           48.3547029912      -24.8091307142       -4.8040667583  MEMB      368             0.0000000000
     45738       368  POPE      C211           50.4129920545      -24.5662443736       -5.2088227221  MEMB      368             0.0000000000
     45739       368  POPE      H11R           51.0588407699      -23.7604475541       -5.2873162567  MEMB      368             0.0000000000
     45740       368  POPE      H11S           50.6242360564      -25.2642558535       -6.0090084636  MEMB      368             0.0000000000
     45741       368  POPE      C212           50.9295252971      -24.3588796705       -3.8934834085  MEMB      368             0.0000000000
     45742       368  POPE      H12R           50.5474590490      -25.1053810736       -3.2134309750  MEMB      368             0.0000000000
     45743       368  POPE      H12S           50.9312685735      -23.3294721815       -3.4905290284  MEMB      368             0.0000000000
     45744       368  POPE      C213           52.3116801023      -24.4521584834       -3.9505893522  MEMB      368             0.0000000000
     45745       368  POPE      H13R           53.0128953174      -24.0047063685       -4.6732606880  MEMB      368             0.0000000000
     45746       368  POPE      H13S           52.1254753387      -25.4903476298       -4.2709292098  MEMB      368             0.0000000000
     45747       368  POPE      C214           52.9811686288      -24.3224246956       -2.6159715880  MEMB      368             0.0000000000
     45748       368  POPE      H14R           52.5702448338      -25.2017448154       -2.0010138595  MEMB      368             0.0000000000
     45749       368  POPE      H14S           52.5935756248      -23.4511857230       -2.1172058593  MEMB      368             0.0000000000
     45750       368  POPE      C215           54.6071811182      -24.0678127898       -2.6908206349  MEMB      368             0.0000000000
     45751       368  POPE      H15R           55.2741985433      -23.9450866177       -1.7620501327  MEMB      368             0.0000000000
     45752       368  POPE      H15S           55.0975851014      -23.3958140865       -3.3667823474  MEMB      368             0.0000000000
     45753       368  POPE      C216           55.3785043939      -24.5597938181       -3.8748193474  MEMB      368             0.0000000000
     45754       368  POPE      H16R           56.3267307535      -25.1243945575       -3.4711295654  MEMB      368             0.0000000000
     45755       368  POPE      H16S           54.7549224076      -24.6960786528       -5.0574322748  MEMB      368             0.0000000000
     45756       368  POPE      C217           55.8838396032      -25.8029369327       -3.3163487347  MEMB      368             0.0000000000
     45757       368  POPE      H17R           55.8239021601      -27.1117396074       -3.8994223947  MEMB      368             0.0000000000
     45758       368  POPE      H17S           55.9965503407      -26.7880366829       -3.4828567980  MEMB      368             0.0000000000
     45759       368  POPE      C218           57.0625643641      -27.5159200725       -0.8326650557  MEMB      368             0.0000000000
     45760       368  POPE      H18R           57.7625056189      -27.4670666910       -1.5218106585  MEMB      368             0.0000000000
     45761       368  POPE      H18S           57.4288231144      -27.7472907002       -1.8282476320  MEMB      368             0.0000000000
     45762       368  POPE      H18T           56.4501818144      -28.3209121952       -0.7155489927  MEMB      368             0.0000000000
     45763       368  POPE      C33            49.0094202941      -28.8735961226      -15.1928831724  MEMB      368             0.0000000000
     45764       368  POPE      H3X            49.2337954560      -29.9232367111      -15.0238040312  MEMB      368             0.0000000000
     45765       368  POPE      H3Y            48.1941862110      -28.8172328576      -14.4426179594  MEMB      368             0.0000000000
     45766       368  POPE      C34            50.3576249605      -28.5106391345      -14.9771672877  MEMB      368             0.0000000000
     45767       368  POPE      H4X            50.3653498648      -27.4561300027      -15.2769844551  MEMB      368             0.0000000000
     45768       368  POPE      H4Y            50.9379941418      -29.1536606369      -15.7061589648  MEMB      368             0.0000000000
     45769       368  POPE      C35            50.6383742545      -28.6860215391      -13.5168237550  MEMB      368             0.0000000000
     45770       368  POPE      H5X            51.7300919461      -28.6323219066      -13.4215295657  MEMB      368             0.0000000000
     45771       368  POPE      H5Y            50.2502855719      -29.6912860192      -13.2499794568  MEMB      368             0.0000000000
     45772       368  POPE      C36            49.9578579000      -27.6302685581      -12.6198674619  MEMB      368             0.0000000000
     45773       368  POPE      H6X            49.3234566799      -26.9779884831      -13.2661055429  MEMB      368             0.0000000000
     45774       368  POPE      H6Y            50.7853840589      -27.0011679312      -12.2379316918  MEMB      368             0.0000000000
     45775       368  POPE      C37            49.1175309132      -28.1920226628      -11.4407887701  MEMB      368             0.0000000000
     45776       368  POPE      H7X            48.4446015285      -28.9789474024      -11.8323674253  MEMB      368             0.0000000000
     45777       368  POPE      H7Y            48.4331195104      -27.4289126875      -11.0046909970  MEMB      368             0.0000000000
     45778       368  POPE      C38            49.9421929160      -28.7094735844      -10.2427255055  MEMB      368             0.0000000000
     45779       368  POPE      H8X            50.7103768484      -27.9534953104      -10.0068157340  MEMB      368             0.0000000000
     45780       368  POPE      H8Y            50.5051054111      -29.6240625936      -10.5124966067  MEMB      368             0.0000000000
     45781       368  POPE      C39            49.0815683001      -28.9703801233       -8.9967580990  MEMB      368             0.0000000000
     45782       368  POPE      H9X            48.5180528089      -29.9044441586       -9.2054620484  MEMB      368             0.0000000000
     45783       368  POPE      H9Y            48.3691027140      -28.1253647580       -8.8322261134  MEMB      368             0.0000000000
     45784       368  POPE      C310           49.8034835723      -29.0258469771       -7.6459476221  MEMB      368             0.0000000000
     45785       368  POPE      H10X           49.0116206115      -29.3272708012       -6.9190341171  MEMB      368             0.0000000000
     45786       368  POPE      H10Y           50.2103800393      -27.9933419406       -7.5019838264  MEMB      368             0.0000000000
     45787       368  POPE      C311           50.9929603414      -29.9678428406       -7.5348693708  MEMB      368             0.0000000000
     45788       368  POPE      H11X           51.7251125080      -29.5278228841       -8.2646189277  MEMB      368             0.0000000000
     45789       368  POPE      H11Y           50.6564988528      -30.9642009510       -7.8653538418  MEMB      368             0.0000000000
     45790       368  POPE      C312           51.6010314130      -30.1134902963       -6.1212858861  MEMB      368             0.0000000000
     45791       368  POPE      H12X           51.7138345712      -29.1207992916       -5.7464611406  MEMB      368             0.0000000000
     45792       368  POPE      H12Y           52.5577713310      -30.6611187405       -6.1098326666  MEMB      368             0.0000000000
     45793       368  POPE      C313           50.7949160794      -30.5151661844       -4.9260712253  MEMB      368             0.0000000000
     45794       368  POPE      H13X           50.4485887145      -31.5544894338       -5.1042394769  MEMB      368             0.0000000000
     45795       368  POPE      H13Y           49.8825155864      -29.8839973679       -5.0115805637  MEMB      368             0.0000000000
     45796       368  POPE      C314           51.5213119331      -30.6177899821       -3.5651211691  MEMB      368             0.0000000000
     45797       368  POPE      H14X           52.4039335774      -31.2346834584       -3.5718518975  MEMB      368             0.0000000000
     45798       368  POPE      H14Y           50.7594365425      -30.9615739671       -2.8434278044  MEMB      368             0.0000000000
     45799       368  POPE      C315           52.4381339488      -29.8999894557       -2.9146806420  MEMB      368             0.0000000000
     45800       368  POPE      H15X           51.3817142225      -29.4998734125       -2.5243078831  MEMB      368             0.0000000000
     45801       368  POPE      H15Y           52.6637282311      -29.2235111710       -3.8819560974  MEMB      368             0.0000000000
     45802       368  POPE      C316           51.9881758181      -29.9296255578       -1.5098409604  MEMB      368             0.0000000000
     45803       368  POPE      H16X           51.2641501059      -30.1574301210       -0.8934122007  MEMB      368             0.0000000000
     45804       368  POPE      H16Y           51.6712624356      -28.7114052300       -1.0900798212  MEMB      368             0.0000000000
     45805       368  POPE      H16Z           53.1355342821      -30.3253454752       -1.5494338794  MEMB      368             0.0000000000
     45806       369  PMPE      N              55.8553055727      -23.2226832940      -19.8046969092  MEMB      369             0.0000000000
     45807       369  PMPE      HN1            55.7183533735      -24.1720267037      -20.1949922427  MEMB      369             0.0000000000
     45808       369  PMPE      HN2            55.5509971348      -22.5069084466      -20.4972661671  MEMB      369             0.0000000000
     45809       369  PMPE      HN3            56.8486595837      -23.0183026054      -19.5534057361  MEMB      369             0.0000000000
     45810       369  PMPE      C12            55.0113528545      -23.1617771964      -18.5764828423  MEMB      369             0.0000000000
     45811       369  PMPE      H12A           55.3944263519      -23.9108007165      -17.8514511433  MEMB      369             0.0000000000
     45812       369  PMPE      H12B           53.9648767889      -23.3771626406      -18.9015540847  MEMB      369             0.0000000000
     45813       369  PMPE      C11            55.1617652310      -21.7946084117      -17.9428888362  MEMB      369             0.0000000000
     45814       369  PMPE      H11A           56.2416539075      -21.5016696660      -17.8771958123  MEMB      369             0.0000000000
     45815       369  PMPE      H11B           54.8636390429      -21.8477568703      -16.8802193997  MEMB      369             0.0000000000
     45816       369  PMPE      P              54.9054982971      -19.5440130499      -19.2099538554  MEMB      369             0.0000000000
     45817       369  PMPE      O13            53.7907895624      -18.5869237503      -19.3801759275  MEMB      369             0.0000000000
     45818       369  PMPE      O14            55.7127369820      -19.9475245576      -20.3805113576  MEMB      369             0.0000000000
     45819       369  PMPE      O11            55.8263012316      -19.0765660211      -18.0351316520  MEMB      369             0.0000000000
     45820       369  PMPE      O12            54.3126361720      -20.8820615262      -18.6365139635  MEMB      369             0.0000000000
     45821       369  PMPE      C1             55.2172691460      -18.5327043950      -16.8552470147  MEMB      369             0.0000000000
     45822       369  PMPE      HA             54.5242584366      -19.2835970787      -16.4142694317  MEMB      369             0.0000000000
     45823       369  PMPE      HB             54.6444893971      -17.5839284353      -17.0315830796  MEMB      369             0.0000000000
     45824       369  PMPE      C2             56.3086329132      -18.2593449049      -15.7945858015  MEMB      369             0.0000000000
     45825       369  PMPE      HS             56.8435317089      -17.3333897784      -16.0894987997  MEMB      369             0.0000000000
     45826       369  PMPE      O21            57.2471674381      -19.3289299398      -15.8291851614  MEMB      369             0.0000000000
     45827       369  PMPE      C21            58.4012557377      -19.1151576505      -15.2822291810  MEMB      369             0.0000000000
     45828       369  PMPE      O22            58.7944326509      -18.1345201395      -14.6661050377  MEMB      369             0.0000000000
     45829       369  PMPE      C22            59.1100503512      -20.3627506941      -15.4079948110  MEMB      369             0.0000000000
     45830       369  PMPE      H2R            60.1721893211      -20.3350750325      -15.7396502360  MEMB      369             0.0000000000
     45831       369  PMPE      H2S            58.5450302997      -21.2984036655      -15.6800392416  MEMB      369             0.0000000000
     45832       369  PMPE      C3             55.7127632945      -18.1076464175      -14.3720555530  MEMB      369             0.0000000000
     45833       369  PMPE      HX             54.7516715868      -17.5502748141      -14.4128543086  MEMB      369             0.0000000000
     45834       369  PMPE      HY             56.4340105260      -17.5017465977      -13.7691065197  MEMB      369             0.0000000000
     45835       369  PMPE      O31            55.4541867471      -19.4171135159      -13.8192441465  MEMB      369             0.0000000000
     45836       369  PMPE      C31            55.5862744479      -19.4631390136      -12.5170781335  MEMB      369             0.0000000000
     45837       369  PMPE      O32            55.9708859890      -18.5469180619      -11.8087415296  MEMB      369             0.0000000000
     45838       369  PMPE      C32            55.0826853756      -20.8034541804      -12.0127111693  MEMB      369             0.0000000000
     45839       369  PMPE      H2X            55.9366725836      -21.4781138786      -11.8052912210  MEMB      369             0.0000000000
     45840       369  PMPE      H2Y            54.3842351583      -21.2900628194      -12.7261751083  MEMB      369             0.0000000000
     45841       369  PMPE      C23            59.2259434671      -20.2744604515      -14.1425978473  MEMB      369             0.0000000000
     45842       369  PMPE      H3R            58.2943459085      -20.6426390685      -13.4135514567  MEMB      369             0.0000000000
     45843       369  PMPE      H3S            60.1161264725      -19.8737147741      -13.4241495650  MEMB      369             0.0000000000
     45844       369  PMPE      C24            59.9291806356      -21.6093735223      -14.2876841332  MEMB      369             0.0000000000
     45845       369  PMPE      H4R            60.7791098683      -21.7419523792      -13.5119297046  MEMB      369             0.0000000000
     45846       369  PMPE      H4S            58.8817080277      -22.1584424814      -14.0081948085  MEMB      369             0.0000000000
     45847       369  PMPE      C25            59.9226341198      -22.6686249074      -11.7774178145  MEMB      369             0.0000000000
     45848       369  PMPE      H5R            60.4847683870      -23.2433716084      -11.9989654120  MEMB      369             0.0000000000
     45849       369  PMPE      H5S            58.7014461101      -22.7688507970      -12.0458352771  MEMB      369             0.0000000000
     45850       369  PMPE      C26            60.0558221589      -21.7247955527      -10.6995721601  MEMB      369             0.0000000000
     45851       369  PMPE      H6R            59.2493319143      -21.0459766561      -10.8904483196  MEMB      369             0.0000000000
     45852       369  PMPE      H6S            61.0620895181      -21.4702305525      -11.0102724841  MEMB      369             0.0000000000
     45853       369  PMPE      C27            59.7896173075      -22.1287410304       -9.3812921742  MEMB      369             0.0000000000
     45854       369  PMPE      H7R            60.4004985666      -22.8601789130       -9.4583574429  MEMB      369             0.0000000000
     45855       369  PMPE      H7S            58.8093828375      -22.6274180433       -9.3420738590  MEMB      369             0.0000000000
     45856       369  PMPE      C28            60.3333398502      -21.4165452857       -8.2779643836  MEMB      369             0.0000000000
     45857       369  PMPE      H8R            61.2492774058      -20.9557662711       -8.7034785806  MEMB      369             0.0000000000
     45858       369  PMPE      H8S            60.5624436307      -22.0310998737       -7.3871564608  MEMB      369             0.0000000000
     45859       369  PMPE      C29            59.1059204669      -20.5995068541       -8.1555166920  MEMB      369             0.0000000000
     45860       369  PMPE      H9R            58.5869844668      -20.3203472258       -9.0960919625  MEMB      369             0.0000000000
     45861       369  PMPE      C217           59.3632667295      -19.4885733153       -7.1746581207  MEMB      369             0.0000000000
     45862       369  PMPE      H17R           58.9354543497      -18.5573155650       -7.4900606917  MEMB      369             0.0000000000
     45863       369  PMPE      H17S           60.3362635549      -19.6522595026       -6.7226741501  MEMB      369             0.0000000000
     45864       369  PMPE      C210           58.2926599465      -20.5123202691       -6.8967099332  MEMB      369             0.0000000000
     45865       369  PMPE      H10R           57.2513060870      -20.2028013447       -7.0342971108  MEMB      369             0.0000000000
     45866       369  PMPE      C211           58.5380306647      -21.3155065226       -5.6915042647  MEMB      369             0.0000000000
     45867       369  PMPE      H11R           58.1876232561      -20.9412171746       -4.7118606201  MEMB      369             0.0000000000
     45868       369  PMPE      H11S           59.6435948674      -21.4533720246       -5.5174048407  MEMB      369             0.0000000000
     45869       369  PMPE      C212           57.6374760391      -22.4867905523       -5.9182236168  MEMB      369             0.0000000000
     45870       369  PMPE      H12R           58.0738862952      -22.9384890461       -6.8632553834  MEMB      369             0.0000000000
     45871       369  PMPE      H12S           56.7690433526      -22.7349907300       -6.4596903068  MEMB      369             0.0000000000
     45872       369  PMPE      C213           57.6773427551      -23.2145106358       -4.6642239767  MEMB      369             0.0000000000
     45873       369  PMPE      H13R           57.3500814813      -24.2002729658       -5.2722896615  MEMB      369             0.0000000000
     45874       369  PMPE      H13S           57.0143532914      -23.2935163112       -3.9129414680  MEMB      369             0.0000000000
     45875       369  PMPE      C214           58.9464212905      -22.9948895289       -3.6343993867  MEMB      369             0.0000000000
     45876       369  PMPE      H14R           59.1836461795      -22.0429715632       -3.3772181286  MEMB      369             0.0000000000
     45877       369  PMPE      H14S           60.0520837254      -23.2212757837       -4.0020306419  MEMB      369             0.0000000000
     45878       369  PMPE      C215           58.7771680771      -23.9604353722       -2.3244248980  MEMB      369             0.0000000000
     45879       369  PMPE      H15R           59.6165760740      -24.0861477949       -1.7150121071  MEMB      369             0.0000000000
     45880       369  PMPE      H15S           58.4874480255      -24.9629035687       -2.4929385457  MEMB      369             0.0000000000
     45881       369  PMPE      C216           57.6864610103      -24.1058051425       -1.4294922310  MEMB      369             0.0000000000
     45882       369  PMPE      H16R           57.0917413760      -23.4193212859       -1.0056792295  MEMB      369             0.0000000000
     45883       369  PMPE      H16S           56.9661894303      -24.2688695198       -2.1397170116  MEMB      369             0.0000000000
     45884       369  PMPE      H16T           57.9472797879      -24.7455311857       -0.6018528899  MEMB      369             0.0000000000
     45885       369  PMPE      C33            54.2831961069      -20.4793540451      -10.7774505272  MEMB      369             0.0000000000
     45886       369  PMPE      H3X            53.3816036345      -19.8925274670      -11.0981016899  MEMB      369             0.0000000000
     45887       369  PMPE      H3Y            54.9037073512      -19.9214762791      -10.0422060650  MEMB      369             0.0000000000
     45888       369  PMPE      C34            53.9228642493      -21.7098050814      -10.0575759840  MEMB      369             0.0000000000
     45889       369  PMPE      H4X            54.7225196981      -22.2517343081       -9.5980230227  MEMB      369             0.0000000000
     45890       369  PMPE      H4Y            53.4074715726      -22.4340248346      -10.7695390348  MEMB      369             0.0000000000
     45891       369  PMPE      C35            53.1892178827      -21.3470936077       -8.8105468920  MEMB      369             0.0000000000
     45892       369  PMPE      H5X            52.4779978971      -20.5400963370       -9.2963597239  MEMB      369             0.0000000000
     45893       369  PMPE      H5Y            53.2264411405      -20.6241525858       -8.0416678895  MEMB      369             0.0000000000
     45894       369  PMPE      C36            52.7222843928      -22.7348508910       -8.1793192390  MEMB      369             0.0000000000
     45895       369  PMPE      H6X            53.2529205754      -23.4773438851       -7.7778173232  MEMB      369             0.0000000000
     45896       369  PMPE      H6Y            52.1591830043      -23.4510054905       -8.9209475475  MEMB      369             0.0000000000
     45897       369  PMPE      C37            51.9387548811      -22.6254639008       -6.7869445160  MEMB      369             0.0000000000
     45898       369  PMPE      H7X            51.3206082236      -23.5033214260       -6.9732921590  MEMB      369             0.0000000000
     45899       369  PMPE      H7Y            50.8151973181      -22.7131002516       -6.7029674599  MEMB      369             0.0000000000
     45900       369  PMPE      C38            51.9868042070      -21.4099696938       -5.8989029200  MEMB      369             0.0000000000
     45901       369  PMPE      H8X            51.3051625190      -21.5245913400       -5.0131950978  MEMB      369             0.0000000000
     45902       369  PMPE      H8Y            51.7403925150      -20.4554386151       -6.3751498255  MEMB      369             0.0000000000
     45903       369  PMPE      C39            53.3195790720      -21.5048291791       -5.4012074838  MEMB      369             0.0000000000
     45904       369  PMPE      H9X            53.9533204887      -22.0462247715       -6.1348176004  MEMB      369             0.0000000000
     45905       369  PMPE      H9Y            53.1298649297      -22.1624994045       -4.5452279457  MEMB      369             0.0000000000
     45906       369  PMPE      C310           53.8485448279      -20.1606672834       -4.9931359435  MEMB      369             0.0000000000
     45907       369  PMPE      H10X           52.9966923811      -19.5926643315       -4.5383825422  MEMB      369             0.0000000000
     45908       369  PMPE      H10Y           54.2434416327      -19.6724135832       -5.9076551951  MEMB      369             0.0000000000
     45909       369  PMPE      C311           54.9812075881      -20.2207316971       -3.9724978072  MEMB      369             0.0000000000
     45910       369  PMPE      H11X           55.5061276201      -19.2364669085       -3.9033923709  MEMB      369             0.0000000000
     45911       369  PMPE      H11Y           55.7906777700      -20.8851380032       -4.3185433131  MEMB      369             0.0000000000
     45912       369  PMPE      C312           54.4079092880      -20.6292199680       -2.6068867307  MEMB      369             0.0000000000
     45913       369  PMPE      H12X           53.6932570297      -21.4791030384       -2.6090264324  MEMB      369             0.0000000000
     45914       369  PMPE      H12Y           53.8052023395      -19.7670928464       -2.2897768258  MEMB      369             0.0000000000
     45915       369  PMPE      C313           55.4462295153      -20.8452143212       -1.5427512031  MEMB      369             0.0000000000
     45916       369  PMPE      H13X           56.1837777535      -19.9997604485       -1.5727399029  MEMB      369             0.0000000000
     45917       369  PMPE      H13Y           55.9709010088      -21.7982176966       -1.7499546824  MEMB      369             0.0000000000
     45918       369  PMPE      C314           54.9324940344      -20.8983063686       -0.1307986134  MEMB      369             0.0000000000
     45919       369  PMPE      H14X           55.7069843475      -21.3313540427        0.5378818384  MEMB      369             0.0000000000
     45920       369  PMPE      H14Y           54.0403769925      -21.5402888749       -0.0151284079  MEMB      369             0.0000000000
     45921       369  PMPE      C315           54.7721563179      -19.4995186879        0.3411161298  MEMB      369             0.0000000000
     45922       369  PMPE      H15X           53.8466350057      -19.0528237106       -0.0424671875  MEMB      369             0.0000000000
     45923       369  PMPE      H15Y           55.5513619232      -18.8080379701        0.1093437092  MEMB      369             0.0000000000
     45924       369  PMPE      C316           55.0983789720      -19.3918950958        1.7853469614  MEMB      369             0.0000000000
     45925       369  PMPE      H16X           55.5237602572      -20.1619899472        2.3810488695  MEMB      369             0.0000000000
     45926       369  PMPE      H16Y           54.2291271289      -19.7783659099        2.0514554903  MEMB      369             0.0000000000
     45927       369  PMPE      H16Z           54.9158633410      -18.4096467110        2.1873334007  MEMB      369             0.0000000000
     45928       370  PMPE      N             -50.4233675143      -32.6163791426      -19.8084069802  MEMB      370             0.0000000000
     45929       370  PMPE      HN1           -49.9293897390      -31.7317652501      -20.0562666065  MEMB      370             0.0000000000
     45930       370  PMPE      HN2           -51.4243409667      -32.5153552814      -20.0838266245  MEMB      370             0.0000000000
     45931       370  PMPE      HN3           -50.3114531196      -32.8071249612      -18.7851025749  MEMB      370             0.0000000000
     45932       370  PMPE      C12           -49.8337550958      -33.7257289174      -20.6300004404  MEMB      370             0.0000000000
     45933       370  PMPE      H12A          -49.9174264386      -33.4261427948      -21.6889819805  MEMB      370             0.0000000000
     45934       370  PMPE      H12B          -50.5276415442      -34.5859468876      -20.5238040433  MEMB      370             0.0000000000
     45935       370  PMPE      C11           -48.3993473556      -34.0260418506      -20.1617339772  MEMB      370             0.0000000000
     45936       370  PMPE      H11A          -47.7351915985      -33.1370399918      -20.0676173072  MEMB      370             0.0000000000
     45937       370  PMPE      H11B          -47.9303438727      -34.7162412002      -20.9179786625  MEMB      370             0.0000000000
     45938       370  PMPE      P             -47.2434585010      -35.4387981776      -18.3274949288  MEMB      370             0.0000000000
     45939       370  PMPE      O13           -46.0348989260      -34.5742779051      -18.3519378812  MEMB      370             0.0000000000
     45940       370  PMPE      O14           -47.2128769603      -36.7009100686      -19.0710236154  MEMB      370             0.0000000000
     45941       370  PMPE      O11           -47.6402263951      -35.7385036885      -16.8428797579  MEMB      370             0.0000000000
     45942       370  PMPE      O12           -48.4892305521      -34.5718306072      -18.8523770146  MEMB      370             0.0000000000
     45943       370  PMPE      C1            -48.7980648890      -35.1944365014      -16.2106283811  MEMB      370             0.0000000000
     45944       370  PMPE      HA            -49.0458916764      -35.8510291721      -15.3536509742  MEMB      370             0.0000000000
     45945       370  PMPE      HB            -49.7185589766      -35.1684227905      -16.8294542368  MEMB      370             0.0000000000
     45946       370  PMPE      C2            -48.5150694122      -33.8208399935      -15.5937156631  MEMB      370             0.0000000000
     45947       370  PMPE      HS            -48.1078179471      -33.1592993836      -16.3883744380  MEMB      370             0.0000000000
     45948       370  PMPE      O21           -47.5097318560      -34.1096265990      -14.6194955085  MEMB      370             0.0000000000
     45949       370  PMPE      C21           -46.9001977468      -33.1341779556      -14.0293500853  MEMB      370             0.0000000000
     45950       370  PMPE      O22           -47.1407259761      -31.9460210083      -14.1383540614  MEMB      370             0.0000000000
     45951       370  PMPE      C22           -45.7916355588      -33.7871272301      -13.1875078593  MEMB      370             0.0000000000
     45952       370  PMPE      H2R           -45.0211760160      -34.1585162414      -13.8820815829  MEMB      370             0.0000000000
     45953       370  PMPE      H2S           -46.2161267625      -34.6772753511      -12.6746031980  MEMB      370             0.0000000000
     45954       370  PMPE      C3            -49.8200649754      -33.2099455435      -14.9942193382  MEMB      370             0.0000000000
     45955       370  PMPE      HX            -50.5400083150      -33.0115410693      -15.8327516465  MEMB      370             0.0000000000
     45956       370  PMPE      HY            -49.6049656481      -32.2109632905      -14.5473620475  MEMB      370             0.0000000000
     45957       370  PMPE      O31           -50.4176716443      -34.1734854082      -14.0859046028  MEMB      370             0.0000000000
     45958       370  PMPE      C31           -50.0905430986      -34.1106582297      -12.7868623101  MEMB      370             0.0000000000
     45959       370  PMPE      O32           -49.4878697962      -33.1866644875      -12.2724654333  MEMB      370             0.0000000000
     45960       370  PMPE      C32           -50.6466178778      -35.3639076719      -12.0392522519  MEMB      370             0.0000000000
     45961       370  PMPE      H2X           -50.3795983109      -36.2808806007      -12.6121886106  MEMB      370             0.0000000000
     45962       370  PMPE      H2Y           -51.7503947955      -35.3249698484      -11.9937356525  MEMB      370             0.0000000000
     45963       370  PMPE      C23           -45.2125554027      -32.7797730466      -12.1985081914  MEMB      370             0.0000000000
     45964       370  PMPE      H3R           -45.2198600207      -31.7775071880      -12.6969828483  MEMB      370             0.0000000000
     45965       370  PMPE      H3S           -44.1798960365      -33.0071975144      -11.8982707754  MEMB      370             0.0000000000
     45966       370  PMPE      C24           -46.0615076795      -32.7980038991      -10.9687393444  MEMB      370             0.0000000000
     45967       370  PMPE      H4R           -45.8163298396      -33.5843722500      -10.2206837293  MEMB      370             0.0000000000
     45968       370  PMPE      H4S           -47.0960201220      -32.9936369194      -11.3267283367  MEMB      370             0.0000000000
     45969       370  PMPE      C25           -46.1278730367      -31.4454647876      -10.4007358209  MEMB      370             0.0000000000
     45970       370  PMPE      H5R           -46.3714800698      -30.6916094398      -11.1453589299  MEMB      370             0.0000000000
     45971       370  PMPE      H5S           -45.1880748273      -31.2043975698       -9.8384351387  MEMB      370             0.0000000000
     45972       370  PMPE      C26           -47.3468785547      -31.4421315989       -9.6229190827  MEMB      370             0.0000000000
     45973       370  PMPE      H6R           -47.3712227003      -30.3634322400       -9.2594865649  MEMB      370             0.0000000000
     45974       370  PMPE      H6S           -46.9648985852      -32.3488983959       -8.9886496408  MEMB      370             0.0000000000
     45975       370  PMPE      C27           -48.7526256031      -31.7394893451       -9.8691736945  MEMB      370             0.0000000000
     45976       370  PMPE      H7R           -48.8373184391      -32.8252228560       -9.8203804983  MEMB      370             0.0000000000
     45977       370  PMPE      H7S           -48.7573903720      -31.2518980563      -10.8390722770  MEMB      370             0.0000000000
     45978       370  PMPE      C28           -49.9209293764      -31.0966675615       -9.1746800741  MEMB      370             0.0000000000
     45979       370  PMPE      H8R           -49.9578683120      -30.1403133786       -9.6057186512  MEMB      370             0.0000000000
     45980       370  PMPE      H8S           -49.9509957153      -30.4528281134       -8.3518735999  MEMB      370             0.0000000000
     45981       370  PMPE      C29           -51.1078463357      -31.9285696008       -9.1831776396  MEMB      370             0.0000000000
     45982       370  PMPE      H9R           -51.5171654379      -32.0627960193      -10.1740832461  MEMB      370             0.0000000000
     45983       370  PMPE      C217          -52.0634332653      -31.1523872457       -8.4517075675  MEMB      370             0.0000000000
     45984       370  PMPE      H17R          -53.0755183616      -31.0349678032       -8.8409094477  MEMB      370             0.0000000000
     45985       370  PMPE      H17S          -51.5673630239      -30.3827770944       -7.8569781710  MEMB      370             0.0000000000
     45986       370  PMPE      C210          -51.7507358505      -32.5472727066       -7.9418093312  MEMB      370             0.0000000000
     45987       370  PMPE      H10R          -52.4317059009      -33.3438081225       -8.2383514080  MEMB      370             0.0000000000
     45988       370  PMPE      C211          -51.0484847736      -32.7006134495       -6.5621734972  MEMB      370             0.0000000000
     45989       370  PMPE      H11R          -51.7245298683      -33.0467449269       -5.7438439330  MEMB      370             0.0000000000
     45990       370  PMPE      H11S          -50.8008536141      -31.6867715669       -6.2468228593  MEMB      370             0.0000000000
     45991       370  PMPE      C212          -49.7580358187      -33.5577890971       -6.5659282238  MEMB      370             0.0000000000
     45992       370  PMPE      H12R          -49.1234202649      -33.3404050891       -7.4553971132  MEMB      370             0.0000000000
     45993       370  PMPE      H12S          -49.9882427909      -34.6299186346       -6.6785530528  MEMB      370             0.0000000000
     45994       370  PMPE      C213          -48.8840613562      -33.4441416899       -5.2868981714  MEMB      370             0.0000000000
     45995       370  PMPE      H13R          -47.9471363887      -33.9857464305       -5.5295656263  MEMB      370             0.0000000000
     45996       370  PMPE      H13S          -49.3302190130      -33.8827932545       -4.4189188745  MEMB      370             0.0000000000
     45997       370  PMPE      C214          -48.6749257841      -32.0745275121       -4.6695924963  MEMB      370             0.0000000000
     45998       370  PMPE      H14R          -49.3562938246      -31.2717671736       -4.6658732356  MEMB      370             0.0000000000
     45999       370  PMPE      H14S          -48.0449106706      -31.9294269062       -5.3806876935  MEMB      370             0.0000000000
     46000       370  PMPE      C215          -47.8303723952      -31.5895122984       -3.6375650939  MEMB      370             0.0000000000
     46001       370  PMPE      H15R          -47.2885814789      -30.5822719946       -3.6476761151  MEMB      370             0.0000000000
     46002       370  PMPE      H15S          -47.0372740149      -32.2657986313       -3.8364406117  MEMB      370             0.0000000000
     46003       370  PMPE      C216          -48.4707829803      -31.9425413471       -2.4542142848  MEMB      370             0.0000000000
     46004       370  PMPE      H16R          -49.2500090215      -31.2799095831       -2.3728119441  MEMB      370             0.0000000000
     46005       370  PMPE      H16S          -48.4495287825      -33.0599825604       -2.4004704599  MEMB      370             0.0000000000
     46006       370  PMPE      H16T          -47.8304757701      -31.5880496146       -1.7064048857  MEMB      370             0.0000000000
     46007       370  PMPE      C33           -50.0708502901      -35.5451697417      -10.6170543913  MEMB      370             0.0000000000
     46008       370  PMPE      H3X           -50.3665306574      -34.7498251493       -9.9014129979  MEMB      370             0.0000000000
     46009       370  PMPE      H3Y           -48.9716649616      -35.3995334188      -10.7609133419  MEMB      370             0.0000000000
     46010       370  PMPE      C34           -50.4002897605      -36.9482535549      -10.0564359066  MEMB      370             0.0000000000
     46011       370  PMPE      H4X           -50.2676454246      -37.6769057630      -10.8826086592  MEMB      370             0.0000000000
     46012       370  PMPE      H4Y           -51.4576165784      -37.1268763520       -9.7386485923  MEMB      370             0.0000000000
     46013       370  PMPE      C35           -49.4872444436      -37.3174521398       -8.8761745912  MEMB      370             0.0000000000
     46014       370  PMPE      H5X           -49.8558090906      -38.2893290589       -8.4931702477  MEMB      370             0.0000000000
     46015       370  PMPE      H5Y           -49.7467510866      -36.6350758931       -8.0460977562  MEMB      370             0.0000000000
     46016       370  PMPE      C36           -47.9795271657      -37.3752892915       -9.2688895904  MEMB      370             0.0000000000
     46017       370  PMPE      H6X           -47.9539718005      -37.1443610716      -10.3586660005  MEMB      370             0.0000000000
     46018       370  PMPE      H6Y           -47.5940265818      -38.4133878592       -9.1757287967  MEMB      370             0.0000000000
     46019       370  PMPE      C37           -47.0196926743      -36.3490639461       -8.6163687255  MEMB      370             0.0000000000
     46020       370  PMPE      H7X           -47.4931718119      -35.3572005918       -8.7985277413  MEMB      370             0.0000000000
     46021       370  PMPE      H7Y           -46.0312186133      -36.3509406010       -9.1551523227  MEMB      370             0.0000000000
     46022       370  PMPE      C38           -46.8023412882      -36.5403491348       -7.1023076993  MEMB      370             0.0000000000
     46023       370  PMPE      H8X           -46.5435477381      -37.6085185367       -6.8800615207  MEMB      370             0.0000000000
     46024       370  PMPE      H8Y           -47.7309117978      -36.2914917005       -6.5380557141  MEMB      370             0.0000000000
     46025       370  PMPE      C39           -45.7353764591      -35.5966809695       -6.5569813011  MEMB      370             0.0000000000
     46026       370  PMPE      H9X           -46.0292231889      -34.5179564250       -6.6119028059  MEMB      370             0.0000000000
     46027       370  PMPE      H9Y           -44.8056026290      -35.7038244145       -7.1671524169  MEMB      370             0.0000000000
     46028       370  PMPE      C310          -45.5027789550      -35.8026894504       -5.0812602982  MEMB      370             0.0000000000
     46029       370  PMPE      H10X          -45.2282541088      -36.8288691500       -4.7441675851  MEMB      370             0.0000000000
     46030       370  PMPE      H10Y          -46.3715477870      -35.4460869727       -4.4821034489  MEMB      370             0.0000000000
     46031       370  PMPE      C311          -44.3388836460      -34.9686623249       -4.7828464549  MEMB      370             0.0000000000
     46032       370  PMPE      H11X          -44.5557457868      -33.9283537138       -4.8674982559  MEMB      370             0.0000000000
     46033       370  PMPE      H11Y          -43.6047931181      -35.0836942219       -5.5829538053  MEMB      370             0.0000000000
     46034       370  PMPE      C312          -43.8197430951      -35.3956895212       -3.4998994404  MEMB      370             0.0000000000
     46035       370  PMPE      H12X          -43.1083438630      -34.5731215381       -3.1896042960  MEMB      370             0.0000000000
     46036       370  PMPE      H12Y          -43.4422664214      -36.3715342497       -3.8907994701  MEMB      370             0.0000000000
     46037       370  PMPE      C313          -44.5594022353      -35.7919288375       -2.3136514287  MEMB      370             0.0000000000
     46038       370  PMPE      H13X          -44.1326017132      -36.1217781652       -1.3496098529  MEMB      370             0.0000000000
     46039       370  PMPE      H13Y          -45.4924495996      -36.2586883072       -2.5857788753  MEMB      370             0.0000000000
     46040       370  PMPE      C314          -45.0038399588      -34.6454962244       -1.9768419831  MEMB      370             0.0000000000
     46041       370  PMPE      H14X          -46.1402576920      -35.0436339547       -1.3756520414  MEMB      370             0.0000000000
     46042       370  PMPE      H14Y          -45.4262766191      -34.2703569760       -2.8985658655  MEMB      370             0.0000000000
     46043       370  PMPE      C315          -43.8277904723      -33.1081870834       -1.0837187871  MEMB      370             0.0000000000
     46044       370  PMPE      H15X          -43.2346935722      -32.8829499630       -1.8681173161  MEMB      370             0.0000000000
     46045       370  PMPE      H15Y          -43.5776376616      -33.6124298095       -0.1554069365  MEMB      370             0.0000000000
     46046       370  PMPE      C316          -44.1367274181      -31.7239824312       -0.1354472638  MEMB      370             0.0000000000
     46047       370  PMPE      H16X          -43.3464824016      -31.2669426474        0.2637117573  MEMB      370             0.0000000000
     46048       370  PMPE      H16Y          -44.7709352106      -32.0425589892        0.7878442748  MEMB      370             0.0000000000
     46049       370  PMPE      H16Z          -44.6802332054      -31.0780159035       -0.8170004942  MEMB      370             0.0000000000
     46050       371  POPE      N              47.0099474259      -39.0685113069      -18.3150739914  MEMB      371             0.0000000000
     46051       371  POPE      HN1            46.9588037424      -39.9969448015      -17.8232546356  MEMB      371             0.0000000000
     46052       371  POPE      HN2            46.2988506411      -39.0505555203      -19.0772467308  MEMB      371             0.0000000000
     46053       371  POPE      HN3            47.9133680665      -39.0058920688      -18.8324573610  MEMB      371             0.0000000000
     46054       371  POPE      C12            46.9012738681      -37.8679078669      -17.3952228138  MEMB      371             0.0000000000
     46055       371  POPE      H12A           47.8085534228      -37.8370290541      -16.7504897469  MEMB      371             0.0000000000
     46056       371  POPE      H12B           46.0207277851      -37.9612302317      -16.7333349313  MEMB      371             0.0000000000
     46057       371  POPE      C11            46.6233822227      -36.6188043552      -18.2334017537  MEMB      371             0.0000000000
     46058       371  POPE      H11A           46.3848198140      -35.7840028305      -17.5429628747  MEMB      371             0.0000000000
     46059       371  POPE      H11B           45.7015458383      -36.7975465243      -18.8478073949  MEMB      371             0.0000000000
     46060       371  POPE      P              47.9069594233      -34.8698703150      -19.7024268777  MEMB      371             0.0000000000
     46061       371  POPE      O13            46.5622373021      -34.3719968173      -20.0899440344  MEMB      371             0.0000000000
     46062       371  POPE      O14            48.9446963063      -35.0225087642      -20.7251027564  MEMB      371             0.0000000000
     46063       371  POPE      O11            48.5722018386      -34.0913233451      -18.5660342498  MEMB      371             0.0000000000
     46064       371  POPE      O12            47.7508819250      -36.3140998769      -19.0377881154  MEMB      371             0.0000000000
     46065       371  POPE      C1             47.9565563924      -33.0038834816      -18.1349024481  MEMB      371             0.0000000000
     46066       371  POPE      HA             46.8378335665      -33.2901897082      -18.0040632689  MEMB      371             0.0000000000
     46067       371  POPE      HB             47.9557003959      -32.1992461530      -18.8237261006  MEMB      371             0.0000000000
     46068       371  POPE      C2             48.8799689972      -32.4931895405      -16.9674849309  MEMB      371             0.0000000000
     46069       371  POPE      HS             49.4642245414      -31.5855676761      -17.0159973613  MEMB      371             0.0000000000
     46070       371  POPE      O21            49.2642076234      -33.5924606217      -16.0824019811  MEMB      371             0.0000000000
     46071       371  POPE      C21            50.5342685912      -33.6623558202      -16.2957523538  MEMB      371             0.0000000000
     46072       371  POPE      O22            51.1640060394      -32.9116402113      -17.0189649198  MEMB      371             0.0000000000
     46073       371  POPE      C22            51.0987740252      -34.9151668033      -15.6477200448  MEMB      371             0.0000000000
     46074       371  POPE      H2R            52.0540249448      -34.6979260341      -15.1270807424  MEMB      371             0.0000000000
     46075       371  POPE      H2S            51.2730310981      -35.6200098048      -16.4859121790  MEMB      371             0.0000000000
     46076       371  POPE      C3             48.1514060633      -31.5074143251      -16.3721265977  MEMB      371             0.0000000000
     46077       371  POPE      HX             47.6861636334      -30.8334754203      -15.7012717309  MEMB      371             0.0000000000
     46078       371  POPE      HY             47.8121262091      -30.6337234374      -15.3594182878  MEMB      371             0.0000000000
     46079       371  POPE      O31            47.0650251081      -32.8807552469      -16.2608971192  MEMB      371             0.0000000000
     46080       371  POPE      C31            45.4563645787      -33.3713681042      -15.9483433039  MEMB      371             0.0000000000
     46081       371  POPE      O32            44.4802500300      -32.7495077203      -16.2093759012  MEMB      371             0.0000000000
     46082       371  POPE      C32            45.0797968538      -34.6827617423      -15.0982965858  MEMB      371             0.0000000000
     46083       371  POPE      H2X            44.8132345141      -35.1989170406      -15.9680475510  MEMB      371             0.0000000000
     46084       371  POPE      H2Y            44.2548883349      -34.5379430781      -14.3228621995  MEMB      371             0.0000000000
     46085       371  POPE      C23            50.1611229514      -35.6699314651      -14.7113212869  MEMB      371             0.0000000000
     46086       371  POPE      H3R            49.3956537856      -36.2051926080      -15.2963654424  MEMB      371             0.0000000000
     46087       371  POPE      H3S            49.6390672749      -34.9971504401      -14.0342338846  MEMB      371             0.0000000000
     46088       371  POPE      C24            50.9803799992      -36.6894830628      -13.9666620407  MEMB      371             0.0000000000
     46089       371  POPE      H4R            51.7845093395      -36.1797351688      -13.4124881832  MEMB      371             0.0000000000
     46090       371  POPE      H4S            51.3518413800      -37.4539758378      -14.7009135928  MEMB      371             0.0000000000
     46091       371  POPE      C25            50.1714550836      -37.3347428038      -12.9225087754  MEMB      371             0.0000000000
     46092       371  POPE      H5R            49.7096662330      -38.1100450556      -13.5659582596  MEMB      371             0.0000000000
     46093       371  POPE      H5S            49.3303428085      -36.7047665496      -12.5623872467  MEMB      371             0.0000000000
     46094       371  POPE      C26            51.0052233081      -37.8939285335      -11.7417597109  MEMB      371             0.0000000000
     46095       371  POPE      H6R            51.5968898127      -37.1883787450      -11.2219601603  MEMB      371             0.0000000000
     46096       371  POPE      H6S            51.6474186897      -38.7579752135      -12.0278505309  MEMB      371             0.0000000000
     46097       371  POPE      C27            50.4424424453      -38.2026473069      -10.3311102612  MEMB      371             0.0000000000
     46098       371  POPE      H7R            50.8330928030      -39.0948519629       -9.8196075554  MEMB      371             0.0000000000
     46099       371  POPE      H7S            49.8866960946      -38.4981681064      -11.0910726865  MEMB      371             0.0000000000
     46100       371  POPE      C28            49.3189641325      -37.6649947210       -9.3427426036  MEMB      371             0.0000000000
     46101       371  POPE      H8R            48.8907516762      -36.9777869791      -10.0233027335  MEMB      371             0.0000000000
     46102       371  POPE      H8S            50.1598580759      -37.3773118491       -8.7228035251  MEMB      371             0.0000000000
     46103       371  POPE      C29            48.0576422813      -38.2017846916       -8.5208507677  MEMB      371             0.0000000000
     46104       371  POPE      H91            47.4119029305      -38.9853786489       -8.9837821718  MEMB      371             0.0000000000
     46105       371  POPE      C210           48.0239155492      -38.4757038500       -7.2321485629  MEMB      371             0.0000000000
     46106       371  POPE      H101           47.5258716971      -39.3372147146       -6.7528711108  MEMB      371             0.0000000000
     46107       371  POPE      C211           49.2603742768      -38.2777815816       -6.7278357356  MEMB      371             0.0000000000
     46108       371  POPE      H11R           50.0787189107      -38.4548008333       -7.3288249808  MEMB      371             0.0000000000
     46109       371  POPE      H11S           50.0099183800      -39.2994494210       -6.5177494336  MEMB      371             0.0000000000
     46110       371  POPE      C212           49.0491740209      -36.8428271490       -5.9847491801  MEMB      371             0.0000000000
     46111       371  POPE      H12R           49.2305136006      -36.0465964711       -6.6809221542  MEMB      371             0.0000000000
     46112       371  POPE      H12S           49.8750246913      -36.3790465978       -5.3702412606  MEMB      371             0.0000000000
     46113       371  POPE      C213           48.1938222371      -36.6966585465       -4.8088739799  MEMB      371             0.0000000000
     46114       371  POPE      H13R           48.4508378736      -37.1809401308       -3.8268603450  MEMB      371             0.0000000000
     46115       371  POPE      H13S           47.2541334377      -37.1335290831       -5.1001137625  MEMB      371             0.0000000000
     46116       371  POPE      C214           48.3686426345      -35.2963968275       -4.4583521713  MEMB      371             0.0000000000
     46117       371  POPE      H14R           48.0470306610      -34.6464852069       -5.2711746408  MEMB      371             0.0000000000
     46118       371  POPE      H14S           49.2827419320      -34.9795373438       -3.9024050192  MEMB      371             0.0000000000
     46119       371  POPE      C215           47.5705845695      -35.3222771590       -3.3813615361  MEMB      371             0.0000000000
     46120       371  POPE      H15R           47.7406881011      -36.1137039553       -2.6498013801  MEMB      371             0.0000000000
     46121       371  POPE      H15S           46.6100778556      -35.8009695037       -3.6183378456  MEMB      371             0.0000000000
     46122       371  POPE      C216           47.8258143262      -34.1112508960       -2.5549495402  MEMB      371             0.0000000000
     46123       371  POPE      H16R           46.7736258289      -33.7725107573       -2.1722721125  MEMB      371             0.0000000000
     46124       371  POPE      H16S           48.0383634168      -33.1802789413       -3.0725280312  MEMB      371             0.0000000000
     46125       371  POPE      C217           48.8000817637      -34.3198956644       -1.4232407694  MEMB      371             0.0000000000
     46126       371  POPE      H17R           49.5319755981      -34.8182691440       -1.8088136849  MEMB      371             0.0000000000
     46127       371  POPE      H17S           48.2839626792      -35.2706121231       -0.8897116841  MEMB      371             0.0000000000
     46128       371  POPE      C218           49.2011487257      -32.9300325196       -0.6318709678  MEMB      371             0.0000000000
     46129       371  POPE      H18R           49.2664340085      -32.0453132657       -1.2679202233  MEMB      371             0.0000000000
     46130       371  POPE      H18S           49.5310677275      -33.1434154633        0.3753023373  MEMB      371             0.0000000000
     46131       371  POPE      H18T           48.4091597197      -32.2304938406       -0.2077766385  MEMB      371             0.0000000000
     46132       371  POPE      C33            46.1461344820      -35.6552058960      -14.4924936294  MEMB      371             0.0000000000
     46133       371  POPE      H3X            45.9763760464      -35.1154838451      -13.5656446661  MEMB      371             0.0000000000
     46134       371  POPE      H3Y            47.1945270896      -35.6378251550      -14.8935298107  MEMB      371             0.0000000000
     46135       371  POPE      C34            46.2213455433      -36.9079550217      -13.7407727968  MEMB      371             0.0000000000
     46136       371  POPE      H4X            47.2578858207      -37.1247058881      -13.3724831371  MEMB      371             0.0000000000
     46137       371  POPE      H4Y            46.1112115832      -37.4786217609      -14.6195796536  MEMB      371             0.0000000000
     46138       371  POPE      C35            45.2473179184      -37.0828087170      -12.6164972253  MEMB      371             0.0000000000
     46139       371  POPE      H5X            45.3273846988      -38.0976060506      -12.3029229086  MEMB      371             0.0000000000
     46140       371  POPE      H5Y            44.2568267858      -36.6658822844      -12.8628471793  MEMB      371             0.0000000000
     46141       371  POPE      C36            45.6978535225      -36.6516915720      -11.2813547935  MEMB      371             0.0000000000
     46142       371  POPE      H6X            45.7367003488      -35.8577094554      -11.9565144558  MEMB      371             0.0000000000
     46143       371  POPE      H6Y            46.7241538850      -36.6775729974      -10.9214270214  MEMB      371             0.0000000000
     46144       371  POPE      C37            44.7677955875      -36.4086366341      -10.0939617858  MEMB      371             0.0000000000
     46145       371  POPE      H7X            44.7462511436      -37.4210130447       -9.7020088894  MEMB      371             0.0000000000
     46146       371  POPE      H7Y            43.7915364345      -36.0753193138      -10.4130926670  MEMB      371             0.0000000000
     46147       371  POPE      C38            45.3337892035      -35.6933348691       -8.8703000580  MEMB      371             0.0000000000
     46148       371  POPE      H8X            45.5083450358      -34.6218380688       -8.9163905849  MEMB      371             0.0000000000
     46149       371  POPE      H8Y            46.3400829619      -35.9841730832       -8.6404701733  MEMB      371             0.0000000000
     46150       371  POPE      C39            44.5329331349      -35.8280920156       -7.6593820124  MEMB      371             0.0000000000
     46151       371  POPE      H9X            43.8808881937      -35.0775393361       -7.8654479975  MEMB      371             0.0000000000
     46152       371  POPE      H9Y            45.1628032876      -35.5937251346       -6.8233084623  MEMB      371             0.0000000000
     46153       371  POPE      C310           43.7975589118      -36.9006040565       -7.1009845333  MEMB      371             0.0000000000
     46154       371  POPE      H10X           43.2992819343      -37.3913404304       -7.9159944696  MEMB      371             0.0000000000
     46155       371  POPE      H10Y           43.0865588073      -36.5576301371       -6.3270731309  MEMB      371             0.0000000000
     46156       371  POPE      C311           44.7460722958      -37.7445705792       -6.3577301716  MEMB      371             0.0000000000
     46157       371  POPE      H11X           45.1862529875      -37.2109104851       -5.4838874708  MEMB      371             0.0000000000
     46158       371  POPE      H11Y           45.5451316351      -38.0310050992       -7.0749806006  MEMB      371             0.0000000000
     46159       371  POPE      C312           43.9448524259      -38.8564772612       -5.7954244168  MEMB      371             0.0000000000
     46160       371  POPE      H12X           43.5142518985      -39.4686713108       -6.6125597235  MEMB      371             0.0000000000
     46161       371  POPE      H12Y           43.1127584093      -38.5595541834       -5.1203306088  MEMB      371             0.0000000000
     46162       371  POPE      C313           44.8608786171      -39.6794237772       -5.0537146929  MEMB      371             0.0000000000
     46163       371  POPE      H13X           45.6984319595      -39.9970773945       -5.7282306121  MEMB      371             0.0000000000
     46164       371  POPE      H13Y           44.1434777882      -40.4645546788       -4.8902803701  MEMB      371             0.0000000000
     46165       371  POPE      C314           45.2308442902      -39.1784846196       -3.6963078146  MEMB      371             0.0000000000
     46166       371  POPE      H14X           44.3838315321      -38.9679610063       -2.9657533351  MEMB      371             0.0000000000
     46167       371  POPE      H14Y           45.9697683233      -38.4265117299       -3.7011879184  MEMB      371             0.0000000000
     46168       371  POPE      C315           46.2225266120      -39.9689899408       -3.1345403275  MEMB      371             0.0000000000
     46169       371  POPE      H15X           46.9039055203      -40.5876717499       -3.7096939182  MEMB      371             0.0000000000
     46170       371  POPE      H15Y           45.1729366498      -40.4604695610       -3.0820889500  MEMB      371             0.0000000000
     46171       371  POPE      C316           46.8142078327      -39.7918383482       -1.7276388819  MEMB      371             0.0000000000
     46172       371  POPE      H16X           47.6101508716      -39.1448664592       -1.7434348871  MEMB      371             0.0000000000
     46173       371  POPE      H16Y           47.1554241449      -40.5597542676       -0.9645884633  MEMB      371             0.0000000000
     46174       371  POPE      H16Z           46.0387865020      -39.7442650438       -1.1767005560  MEMB      371             0.0000000000
     46175       372  PMPE      N             -54.9478225204      -28.7371041591      -21.7578339423  MEMB      372             0.0000000000
     46176       372  PMPE      HN1           -55.9337938736      -28.9082889525      -22.1212633945  MEMB      372             0.0000000000
     46177       372  PMPE      HN2           -55.0944668232      -27.8369772173      -21.2381788505  MEMB      372             0.0000000000
     46178       372  PMPE      HN3           -54.3305988068      -28.6128700809      -22.5403792595  MEMB      372             0.0000000000
     46179       372  PMPE      C12           -54.6375050575      -29.7721567684      -20.7062668523  MEMB      372             0.0000000000
     46180       372  PMPE      H12A          -54.2429957975      -30.6365753604      -21.2533121741  MEMB      372             0.0000000000
     46181       372  PMPE      H12B          -55.5479269207      -30.0436053885      -20.1102090785  MEMB      372             0.0000000000
     46182       372  PMPE      C11           -53.5829246760      -29.2529545928      -19.7422897501  MEMB      372             0.0000000000
     46183       372  PMPE      H11A          -52.6258359382      -29.1282445811      -20.3018527462  MEMB      372             0.0000000000
     46184       372  PMPE      H11B          -53.5030648731      -30.0337907412      -18.9454930232  MEMB      372             0.0000000000
     46185       372  PMPE      P             -53.2518965335      -27.3235568322      -17.9824926165  MEMB      372             0.0000000000
     46186       372  PMPE      O13           -53.8234478688      -25.9765412843      -17.8337202785  MEMB      372             0.0000000000
     46187       372  PMPE      O14           -51.8068188959      -27.5040271455      -18.1684250708  MEMB      372             0.0000000000
     46188       372  PMPE      O11           -53.6201091150      -28.1241521710      -16.7193587317  MEMB      372             0.0000000000
     46189       372  PMPE      O12           -54.0024143175      -28.0076262155      -19.2085908665  MEMB      372             0.0000000000
     46190       372  PMPE      C1            -54.7309281599      -28.8939391484      -16.7173708270  MEMB      372             0.0000000000
     46191       372  PMPE      HA            -54.5458606654      -29.9696857958      -16.9341454684  MEMB      372             0.0000000000
     46192       372  PMPE      HB            -55.5581742362      -28.5667937590      -17.4412836522  MEMB      372             0.0000000000
     46193       372  PMPE      C2            -55.2867851708      -28.8073934088      -15.3609410866  MEMB      372             0.0000000000
     46194       372  PMPE      HS            -56.1337286714      -29.1621544819      -15.8016051732  MEMB      372             0.0000000000
     46195       372  PMPE      O21           -55.3458292052      -27.5525812539      -14.6069648520  MEMB      372             0.0000000000
     46196       372  PMPE      C21           -56.0538933973      -26.5440291156      -15.1699889337  MEMB      372             0.0000000000
     46197       372  PMPE      O22           -56.7629691197      -26.5857705568      -16.1424709825  MEMB      372             0.0000000000
     46198       372  PMPE      C22           -55.8606109442      -25.2373162442      -14.4522356224  MEMB      372             0.0000000000
     46199       372  PMPE      H2R           -55.6806569293      -24.4031886350      -15.1329395569  MEMB      372             0.0000000000
     46200       372  PMPE      H2S           -54.9321605761      -25.4354392882      -14.0753177447  MEMB      372             0.0000000000
     46201       372  PMPE      C3            -54.7351415510      -29.8654825159      -14.2943170219  MEMB      372             0.0000000000
     46202       372  PMPE      HX            -55.0580585700      -30.8725058249      -14.6343550819  MEMB      372             0.0000000000
     46203       372  PMPE      HY            -55.2757683363      -29.8496473212      -13.2975918898  MEMB      372             0.0000000000
     46204       372  PMPE      O31           -53.3518258943      -29.8985698073      -14.1348082818  MEMB      372             0.0000000000
     46205       372  PMPE      C31           -53.0019293355      -29.2018131381      -13.0858208664  MEMB      372             0.0000000000
     46206       372  PMPE      O32           -53.7677754297      -28.6488540765      -12.3259920665  MEMB      372             0.0000000000
     46207       372  PMPE      C32           -51.5076467428      -29.2494240630      -12.9844566343  MEMB      372             0.0000000000
     46208       372  PMPE      H2X           -51.1355770575      -28.4838067885      -13.6727009948  MEMB      372             0.0000000000
     46209       372  PMPE      H2Y           -51.1444504225      -30.2245952903      -13.3473614196  MEMB      372             0.0000000000
     46210       372  PMPE      C23           -56.9677606813      -24.7430398855      -13.5309155260  MEMB      372             0.0000000000
     46211       372  PMPE      H3R           -57.9068833707      -24.9874539754      -14.0454385462  MEMB      372             0.0000000000
     46212       372  PMPE      H3S           -57.0161611025      -23.6380211982      -13.4137642093  MEMB      372             0.0000000000
     46213       372  PMPE      C24           -56.9064504086      -25.2522600819      -12.1249237500  MEMB      372             0.0000000000
     46214       372  PMPE      H4R           -57.5664201846      -24.6122213833      -11.5187445851  MEMB      372             0.0000000000
     46215       372  PMPE      H4S           -55.8932460709      -25.3673868136      -11.7113126723  MEMB      372             0.0000000000
     46216       372  PMPE      C25           -57.5380650073      -26.5217883573      -11.9282481875  MEMB      372             0.0000000000
     46217       372  PMPE      H5R           -56.8460234310      -27.2533889215      -12.4414423919  MEMB      372             0.0000000000
     46218       372  PMPE      H5S           -58.5607807517      -26.5326581838      -12.3925270746  MEMB      372             0.0000000000
     46219       372  PMPE      C26           -57.5828748565      -26.8763089265      -10.4722622201  MEMB      372             0.0000000000
     46220       372  PMPE      H6R           -56.6982068169      -27.4211982554      -10.4720475091  MEMB      372             0.0000000000
     46221       372  PMPE      H6S           -58.3155041294      -27.5706022493      -10.0446897455  MEMB      372             0.0000000000
     46222       372  PMPE      C27           -58.3911554997      -26.1589056724       -9.5477012763  MEMB      372             0.0000000000
     46223       372  PMPE      H7R           -59.4130576147      -26.0811225827      -10.0091893098  MEMB      372             0.0000000000
     46224       372  PMPE      H7S           -57.7306704729      -25.3382129102       -9.4706285013  MEMB      372             0.0000000000
     46225       372  PMPE      C28           -58.6768348567      -26.7803650708       -8.2711540614  MEMB      372             0.0000000000
     46226       372  PMPE      H8R           -59.3268929310      -27.6278573054       -8.5846622328  MEMB      372             0.0000000000
     46227       372  PMPE      H8S           -59.3728557562      -26.1861262473       -7.7343303072  MEMB      372             0.0000000000
     46228       372  PMPE      C29           -57.4837920038      -26.9880593124       -7.5350683986  MEMB      372             0.0000000000
     46229       372  PMPE      H9R           -56.4455055973      -26.5972122197       -7.6678925702  MEMB      372             0.0000000000
     46230       372  PMPE      C217          -57.3511656289      -28.3906029742       -7.1361647565  MEMB      372             0.0000000000
     46231       372  PMPE      H17R          -56.3392204684      -28.3720633336       -7.1150631926  MEMB      372             0.0000000000
     46232       372  PMPE      H17S          -57.7828165422      -29.3175308235       -7.5002593206  MEMB      372             0.0000000000
     46233       372  PMPE      C210          -57.9296356809      -27.4722316104       -6.3629727859  MEMB      372             0.0000000000
     46234       372  PMPE      H10R          -57.0932235384      -27.4392896483       -5.8804176759  MEMB      372             0.0000000000
     46235       372  PMPE      C211          -59.0543336212      -28.2114091828       -6.4661197318  MEMB      372             0.0000000000
     46236       372  PMPE      H11R          -58.6416187158      -29.1070646730       -5.8956575647  MEMB      372             0.0000000000
     46237       372  PMPE      H11S          -59.6755899960      -28.4941485170       -6.0016183525  MEMB      372             0.0000000000
     46238       372  PMPE      C212          -59.7295307751      -27.1255864261       -5.4758840149  MEMB      372             0.0000000000
     46239       372  PMPE      H12R          -59.8308784518      -27.2761443791       -4.4199667000  MEMB      372             0.0000000000
     46240       372  PMPE      H12S          -59.6840314274      -26.1624008197       -5.9801343673  MEMB      372             0.0000000000
     46241       372  PMPE      C213          -58.7468267036      -26.6017354440       -4.4312121358  MEMB      372             0.0000000000
     46242       372  PMPE      H13R          -59.0469844594      -25.7931145347       -4.1603158378  MEMB      372             0.0000000000
     46243       372  PMPE      H13S          -57.0896569538      -26.1146015829       -5.1242362519  MEMB      372             0.0000000000
     46244       372  PMPE      C214          -58.7384247867      -26.5169799960       -2.2309027085  MEMB      372             0.0000000000
     46245       372  PMPE      H14R          -58.8631036335      -27.5746666659       -2.8531605904  MEMB      372             0.0000000000
     46246       372  PMPE      H14S          -59.0375906653      -26.1609117568       -0.8631228589  MEMB      372             0.0000000000
     46247       372  PMPE      C215          -57.9212522338      -26.0086765484       -0.6897795407  MEMB      372             0.0000000000
     46248       372  PMPE      H15R          -57.8484986917      -24.9902562596       -0.4774570997  MEMB      372             0.0000000000
     46249       372  PMPE      H15S          -57.3624632942      -26.1652522429       -1.3239499023  MEMB      372             0.0000000000
     46250       372  PMPE      C216          -57.6262889704      -26.7183378469        0.6197447394  MEMB      372             0.0000000000
     46251       372  PMPE      H16R          -57.4130605981      -27.7850382647        0.4833678955  MEMB      372             0.0000000000
     46252       372  PMPE      H16S          -56.7058519871      -26.2716947842        0.9913352512  MEMB      372             0.0000000000
     46253       372  PMPE      H16T          -58.4840700347      -27.0937066111        0.9592280801  MEMB      372             0.0000000000
     46254       372  PMPE      C33           -50.9955225889      -29.1582248739      -11.5580203665  MEMB      372             0.0000000000
     46255       372  PMPE      H3X           -49.9165725415      -29.4432868542      -11.5460309203  MEMB      372             0.0000000000
     46256       372  PMPE      H3Y           -51.5210860796      -29.8151075590      -10.8585335143  MEMB      372             0.0000000000
     46257       372  PMPE      C34           -51.0997966451      -27.8591248013      -10.9681361557  MEMB      372             0.0000000000
     46258       372  PMPE      H4X           -50.4799867639      -27.2080889462      -11.6343586495  MEMB      372             0.0000000000
     46259       372  PMPE      H4Y           -50.8033032191      -27.8654620205       -9.8975884253  MEMB      372             0.0000000000
     46260       372  PMPE      C35           -52.2217620734      -27.0803581737      -11.1569908583  MEMB      372             0.0000000000
     46261       372  PMPE      H5X           -53.1671628666      -27.2815288586      -10.7677779680  MEMB      372             0.0000000000
     46262       372  PMPE      H5Y           -52.0962502968      -26.6337884814      -12.1863374889  MEMB      372             0.0000000000
     46263       372  PMPE      C36           -52.0029679063      -26.2848058256      -10.1716478217  MEMB      372             0.0000000000
     46264       372  PMPE      H6X           -52.0957912444      -25.6995180950      -10.8192116405  MEMB      372             0.0000000000
     46265       372  PMPE      H6Y           -50.9570944822      -25.9446722011      -10.5747414558  MEMB      372             0.0000000000
     46266       372  PMPE      C37           -52.8042938561      -25.7751086249       -8.6826256397  MEMB      372             0.0000000000
     46267       372  PMPE      H7X           -52.1466043096      -25.3852799115       -7.7510742114  MEMB      372             0.0000000000
     46268       372  PMPE      H7Y           -52.6351508930      -26.6932792468       -8.4476318794  MEMB      372             0.0000000000
     46269       372  PMPE      C38           -53.8695936260      -24.8421461142       -8.3128286269  MEMB      372             0.0000000000
     46270       372  PMPE      H8X           -54.7155672546      -24.9606055821       -8.9780451708  MEMB      372             0.0000000000
     46271       372  PMPE      H8Y           -53.5012215845      -23.8378319623       -8.1243822350  MEMB      372             0.0000000000
     46272       372  PMPE      C39           -54.2937598434      -25.1383988965       -7.0373800134  MEMB      372             0.0000000000
     46273       372  PMPE      H9X           -54.2408358884      -26.2053933553       -6.8613022824  MEMB      372             0.0000000000
     46274       372  PMPE      H9Y           -55.3727228446      -24.8052232505       -7.1170214295  MEMB      372             0.0000000000
     46275       372  PMPE      C310          -53.3461042219      -24.5103838129       -6.0241125657  MEMB      372             0.0000000000
     46276       372  PMPE      H10X          -53.2650059974      -23.3929268630       -5.9383056450  MEMB      372             0.0000000000
     46277       372  PMPE      H10Y          -52.4121296196      -24.0560014368       -6.2402742081  MEMB      372             0.0000000000
     46278       372  PMPE      C311          -53.7647376321      -25.3157068561       -4.8293453768  MEMB      372             0.0000000000
     46279       372  PMPE      H11X          -54.7417207070      -25.2970458560       -4.1782607548  MEMB      372             0.0000000000
     46280       372  PMPE      H11Y          -53.3342645641      -24.8214219918       -4.1776904963  MEMB      372             0.0000000000
     46281       372  PMPE      C312          -53.0889634936      -26.3387946101       -4.6532708468  MEMB      372             0.0000000000
     46282       372  PMPE      H12X          -52.0675446288      -26.2037723201       -4.8829537447  MEMB      372             0.0000000000
     46283       372  PMPE      H12Y          -53.7412346956      -27.0240121829       -4.9811900732  MEMB      372             0.0000000000
     46284       372  PMPE      C313          -53.4487063637      -26.7472997386       -3.4929893244  MEMB      372             0.0000000000
     46285       372  PMPE      H13X          -54.4413275600      -26.7210711097       -3.1121919867  MEMB      372             0.0000000000
     46286       372  PMPE      H13Y          -52.9173635604      -25.7369226492       -2.9661101064  MEMB      372             0.0000000000
     46287       372  PMPE      C314          -53.0559930621      -28.2475379929       -3.0128285396  MEMB      372             0.0000000000
     46288       372  PMPE      H14X          -51.9590444259      -28.2430205614       -3.6460044654  MEMB      372             0.0000000000
     46289       372  PMPE      H14Y          -52.9666482592      -28.8764650231       -3.6425505349  MEMB      372             0.0000000000
     46290       372  PMPE      C315          -53.0109672165      -28.8786058095       -1.4548541782  MEMB      372             0.0000000000
     46291       372  PMPE      H15X          -53.9366481382      -28.7916025134       -0.9282151452  MEMB      372             0.0000000000
     46292       372  PMPE      H15Y          -52.7184401142      -28.5868149139       -0.3713212969  MEMB      372             0.0000000000
     46293       372  PMPE      C316          -51.9453260746      -29.8637378617       -1.6508108032  MEMB      372             0.0000000000
     46294       372  PMPE      H16X          -52.2929602647      -30.5748459928       -2.2493303904  MEMB      372             0.0000000000
     46295       372  PMPE      H16Y          -52.1062030957      -30.3018892226       -0.9424018035  MEMB      372             0.0000000000
     46296       372  PMPE      H16Z          -50.8330805064      -29.7798798923       -1.3572703190  MEMB      372             0.0000000000
     46297       373  PYPG      C13           -44.9031026573      -41.3935527666      -20.5245233554  MEMB      373             0.0000000000
     46298       373  PYPG      H13A          -44.0743235263      -41.7512059639      -21.1703421835  MEMB      373             0.0000000000
     46299       373  PYPG      H13B          -45.8797393298      -41.4972444643      -21.0407860688  MEMB      373             0.0000000000
     46300       373  PYPG      OC3           -44.6743919214      -40.0182610443      -20.2450576318  MEMB      373             0.0000000000
     46301       373  PYPG      HO3           -43.9066764169      -40.0408187131      -19.6703767201  MEMB      373             0.0000000000
     46302       373  PYPG      C12           -44.8826853314      -42.2553072170      -19.2354270434  MEMB      373             0.0000000000
     46303       373  PYPG      H12A          -45.0585297965      -43.3142452687      -19.5397058771  MEMB      373             0.0000000000
     46304       373  PYPG      OC2           -45.9350627610      -41.8528975733      -18.3648782997  MEMB      373             0.0000000000
     46305       373  PYPG      HO2           -45.8729274281      -42.3703608028      -17.5727365422  MEMB      373             0.0000000000
     46306       373  PYPG      C11           -43.5264330594      -42.1386509125      -18.4646720737  MEMB      373             0.0000000000
     46307       373  PYPG      H11A          -43.4978305959      -42.8447321801      -17.6128648571  MEMB      373             0.0000000000
     46308       373  PYPG      H11B          -43.4579868161      -41.1066849023      -18.0390321127  MEMB      373             0.0000000000
     46309       373  PYPG      P             -40.9086446737      -42.4343922140      -18.6438003232  MEMB      373             0.0000000000
     46310       373  PYPG      O13           -40.7843591307      -41.2389055911      -17.8094634602  MEMB      373             0.0000000000
     46311       373  PYPG      O14           -39.9036786216      -42.6908767780      -19.6909371268  MEMB      373             0.0000000000
     46312       373  PYPG      O11           -40.9551707237      -43.6985407414      -17.7087425353  MEMB      373             0.0000000000
     46313       373  PYPG      O12           -42.3837964637      -42.4098630806      -19.2959297323  MEMB      373             0.0000000000
     46314       373  PYPG      C1            -41.3881333985      -44.9717399017      -18.1848389437  MEMB      373             0.0000000000
     46315       373  PYPG      HA            -40.5582689528      -45.6056186456      -18.5951361230  MEMB      373             0.0000000000
     46316       373  PYPG      HB            -42.1260868267      -44.8773257733      -19.0101736767  MEMB      373             0.0000000000
     46317       373  PYPG      C2            -42.0790842589      -45.7302121790      -17.0293032298  MEMB      373             0.0000000000
     46318       373  PYPG      HS            -42.3905316029      -46.6782401580      -17.5098389575  MEMB      373             0.0000000000
     46319       373  PYPG      O21           -43.2028608793      -44.9814664163      -16.5336877831  MEMB      373             0.0000000000
     46320       373  PYPG      C21           -44.2177514677      -45.7098292427      -16.1100931245  MEMB      373             0.0000000000
     46321       373  PYPG      O22           -44.3264674738      -46.9256315560      -16.1456942820  MEMB      373             0.0000000000
     46322       373  PYPG      C22           -45.3838338190      -44.7661296448      -15.7641484614  MEMB      373             0.0000000000
     46323       373  PYPG      H2R           -45.9429385109      -44.5665268935      -16.7015078697  MEMB      373             0.0000000000
     46324       373  PYPG      H2S           -45.0768999964      -43.7897356788      -15.3450567024  MEMB      373             0.0000000000
     46325       373  PYPG      C3            -41.1244385743      -46.0103759577      -15.8670491202  MEMB      373             0.0000000000
     46326       373  PYPG      HX            -40.5625680220      -45.0535056525      -15.6534449545  MEMB      373             0.0000000000
     46327       373  PYPG      HY            -40.3947972265      -46.7790972476      -16.2021244536  MEMB      373             0.0000000000
     46328       373  PYPG      O31           -41.7770280096      -46.6212212932      -14.7450665723  MEMB      373             0.0000000000
     46329       373  PYPG      C31           -41.3731950981      -46.1713578483      -13.6337731688  MEMB      373             0.0000000000
     46330       373  PYPG      O32           -41.0249874803      -45.0329605858      -13.5122638076  MEMB      373             0.0000000000
     46331       373  PYPG      C32           -41.9453557226      -46.9772412190      -12.5215475498  MEMB      373             0.0000000000
     46332       373  PYPG      H2X           -42.9277078657      -46.4837671039      -12.3296952864  MEMB      373             0.0000000000
     46333       373  PYPG      H2Y           -41.9394599976      -47.9966815961      -12.7003628726  MEMB      373             0.0000000000
     46334       373  PYPG      C23           -46.3374932264      -45.4560934912      -14.7875787732  MEMB      373             0.0000000000
     46335       373  PYPG      H3R           -46.6735682214      -46.3930821448      -15.1988907148  MEMB      373             0.0000000000
     46336       373  PYPG      H3S           -47.3452668618      -45.0331529751      -14.8160881075  MEMB      373             0.0000000000
     46337       373  PYPG      C24           -45.8604238404      -45.4661013620      -13.2923148208  MEMB      373             0.0000000000
     46338       373  PYPG      H4R           -45.1887862072      -46.2743372759      -13.0684746445  MEMB      373             0.0000000000
     46339       373  PYPG      H4S           -46.7934916679      -45.6631256568      -12.7270198909  MEMB      373             0.0000000000
     46340       373  PYPG      C25           -45.1209326277      -44.2401170461      -12.6702909006  MEMB      373             0.0000000000
     46341       373  PYPG      H5R           -45.5769128451      -43.3495896541      -12.9796998436  MEMB      373             0.0000000000
     46342       373  PYPG      H5S           -44.4823382087      -43.5873396738      -13.2425671064  MEMB      373             0.0000000000
     46343       373  PYPG      C26           -44.8582108527      -44.2142101931      -11.1316984824  MEMB      373             0.0000000000
     46344       373  PYPG      H6R           -44.4013765879      -45.1613142211      -10.9787289156  MEMB      373             0.0000000000
     46345       373  PYPG      H6S           -45.7714576192      -44.1436104505      -10.4437788093  MEMB      373             0.0000000000
     46346       373  PYPG      C27           -43.9693142189      -43.0031843667      -10.7942347714  MEMB      373             0.0000000000
     46347       373  PYPG      H7R           -44.3085160797      -42.1346539791      -11.4073367170  MEMB      373             0.0000000000
     46348       373  PYPG      H7S           -42.9394201506      -43.2336091505      -11.1553324537  MEMB      373             0.0000000000
     46349       373  PYPG      C28           -44.0570109327      -42.5906948859       -9.3051669799  MEMB      373             0.0000000000
     46350       373  PYPG      H8R           -43.6890801485      -43.4245102110       -8.7015412448  MEMB      373             0.0000000000
     46351       373  PYPG      H8S           -45.0790955461      -42.4424370803       -8.9102079265  MEMB      373             0.0000000000
     46352       373  PYPG      C29           -43.2508562948      -41.3793611696       -8.9743688269  MEMB      373             0.0000000000
     46353       373  PYPG      H9R           -43.7758106396      -40.4265428578       -8.9448524649  MEMB      373             0.0000000000
     46354       373  PYPG      C210          -41.9785063230      -41.4135364418       -8.5993654379  MEMB      373             0.0000000000
     46355       373  PYPG      H10R          -41.4032372318      -40.5656135840       -8.3369284851  MEMB      373             0.0000000000
     46356       373  PYPG      C211          -41.1377706964      -42.5358006765       -8.4394745390  MEMB      373             0.0000000000
     46357       373  PYPG      H11R          -41.5984627314      -43.1377164168       -9.2589562883  MEMB      373             0.0000000000
     46358       373  PYPG      H11S          -41.2925512667      -42.9725387754       -7.4279193296  MEMB      373             0.0000000000
     46359       373  PYPG      C212          -39.6726140393      -42.2986229153       -8.5864818562  MEMB      373             0.0000000000
     46360       373  PYPG      H12R          -39.4346433219      -42.1204551749       -9.6628301814  MEMB      373             0.0000000000
     46361       373  PYPG      H12S          -38.9494348839      -43.1014476998       -8.4312578913  MEMB      373             0.0000000000
     46362       373  PYPG      C213          -39.1278972019      -41.6678264232       -7.5171305250  MEMB      373             0.0000000000
     46363       373  PYPG      H13R          -39.4104526235      -40.6782076601       -7.5884618935  MEMB      373             0.0000000000
     46364       373  PYPG      H13S          -38.3068147805      -41.5180362625       -8.1502628505  MEMB      373             0.0000000000
     46365       373  PYPG      C214          -38.9724328368      -42.3968608392       -6.1784351745  MEMB      373             0.0000000000
     46366       373  PYPG      H14R          -39.9892442326      -42.6084050978       -5.8960315196  MEMB      373             0.0000000000
     46367       373  PYPG      H14S          -38.3236012629      -43.3159436758       -6.2460220656  MEMB      373             0.0000000000
     46368       373  PYPG      C215          -38.4798838698      -41.4405129990       -5.1090799385  MEMB      373             0.0000000000
     46369       373  PYPG      H15R          -38.8460256039      -40.3918125429       -5.2029345835  MEMB      373             0.0000000000
     46370       373  PYPG      H15S          -37.4683442075      -41.1553062786       -5.2974158361  MEMB      373             0.0000000000
     46371       373  PYPG      C216          -38.0955991822      -41.9972829414       -3.7349663544  MEMB      373             0.0000000000
     46372       373  PYPG      H16R          -37.0608769628      -42.4330724859       -3.7716909692  MEMB      373             0.0000000000
     46373       373  PYPG      H16S          -38.8242388739      -42.7197902685       -3.4462672785  MEMB      373             0.0000000000
     46374       373  PYPG      H16T          -38.0441921634      -41.1662774822       -2.9773862357  MEMB      373             0.0000000000
     46375       373  PYPG      C33           -41.2517655036      -46.9837363688      -11.2901947714  MEMB      373             0.0000000000
     46376       373  PYPG      H3X           -41.6183962971      -45.9288605017      -11.2953534035  MEMB      373             0.0000000000
     46377       373  PYPG      H3Y           -40.1234348555      -46.9791482803      -11.2219522559  MEMB      373             0.0000000000
     46378       373  PYPG      C34           -41.6078261523      -47.8145535077      -10.0871247919  MEMB      373             0.0000000000
     46379       373  PYPG      H4X           -40.8544764220      -48.5187660962      -10.3145656566  MEMB      373             0.0000000000
     46380       373  PYPG      H4Y           -42.6704393920      -48.0387590072      -10.0623804297  MEMB      373             0.0000000000
     46381       373  PYPG      C35           -41.1017782707      -47.6293404381       -8.6117398356  MEMB      373             0.0000000000
     46382       373  PYPG      H5X           -41.5677160201      -48.2387086845       -7.8609740131  MEMB      373             0.0000000000
     46383       373  PYPG      H5Y           -41.9588408192      -47.1642330924       -8.5713335921  MEMB      373             0.0000000000
     46384       373  PYPG      C36           -39.6439766710      -47.0429820090       -8.0583894627  MEMB      373             0.0000000000
     46385       373  PYPG      H6X           -39.1495727812      -46.4366425668       -8.5736744953  MEMB      373             0.0000000000
     46386       373  PYPG      H6Y           -38.9016631246      -47.4575707247       -8.6960520204  MEMB      373             0.0000000000
     46387       373  PYPG      C37           -39.0632084827      -46.3295849070       -6.7329930465  MEMB      373             0.0000000000
     46388       373  PYPG      H7X           -38.2370510815      -45.6732021861       -6.7069008961  MEMB      373             0.0000000000
     46389       373  PYPG      H7Y           -39.4970781903      -45.5639133960       -6.1757809694  MEMB      373             0.0000000000
     46390       373  PYPG      C38           -39.2094684548      -47.2308523492       -5.7057812013  MEMB      373             0.0000000000
     46391       373  PYPG      H8X           -38.3209665683      -47.5544989938       -5.7268072661  MEMB      373             0.0000000000
     46392       373  PYPG      H8Y           -39.9052289774      -48.1166784004       -6.0066008061  MEMB      373             0.0000000000
     46393       373  PYPG      C39           -38.9881825541      -46.9054864509       -4.3393640741  MEMB      373             0.0000000000
     46394       373  PYPG      H9X           -38.1307276491      -46.7713392827       -3.7724775312  MEMB      373             0.0000000000
     46395       373  PYPG      H9Y           -39.1086896034      -48.1208100612       -4.1906923650  MEMB      373             0.0000000000
     46396       373  PYPG      C310          -39.9601322760      -45.6748223039       -3.7694376885  MEMB      373             0.0000000000
     46397       373  PYPG      H10X          -40.9212189982      -45.9912528499       -3.1983268095  MEMB      373             0.0000000000
     46398       373  PYPG      H10Y          -40.3292289921      -45.2730112723       -4.6682911141  MEMB      373             0.0000000000
     46399       373  PYPG      C311          -40.4226613308      -45.2125673190       -2.3174027777  MEMB      373             0.0000000000
     46400       373  PYPG      H11X          -39.4064885848      -45.2905293370       -2.0408238637  MEMB      373             0.0000000000
     46401       373  PYPG      H11Y          -40.9711662372      -45.7880648759       -1.4864292337  MEMB      373             0.0000000000
     46402       373  PYPG      C312          -41.3295697465      -44.1758947113       -2.1767228809  MEMB      373             0.0000000000
     46403       373  PYPG      H12X          -40.7836652046      -43.5612876028       -2.8893448485  MEMB      373             0.0000000000
     46404       373  PYPG      H12Y          -42.3088185662      -44.5791997954       -2.5238178053  MEMB      373             0.0000000000
     46405       373  PYPG      C313          -41.5185300228      -43.8788588250       -0.7153159507  MEMB      373             0.0000000000
     46406       373  PYPG      H13X          -42.1506189702      -43.0012312510       -0.7947108358  MEMB      373             0.0000000000
     46407       373  PYPG      H13Y          -41.9305363935      -44.7395750913       -0.1450051744  MEMB      373             0.0000000000
     46408       373  PYPG      C314          -40.3295480549      -43.5640935899        0.0532731375  MEMB      373             0.0000000000
     46409       373  PYPG      H14X          -39.5754804468      -44.3367884787       -0.3292857611  MEMB      373             0.0000000000
     46410       373  PYPG      H14Y          -40.0792238791      -42.5012282965       -0.2411107669  MEMB      373             0.0000000000
     46411       373  PYPG      C315          -40.4158930642      -43.5306671281        1.5684667641  MEMB      373             0.0000000000
     46412       373  PYPG      H15X          -39.8074833128      -42.7575871801        2.0174740085  MEMB      373             0.0000000000
     46413       373  PYPG      H15Y          -41.2807377490      -43.1282007371        1.9704533741  MEMB      373             0.0000000000
     46414       373  PYPG      C316          -40.1565797000      -44.8289221971        2.2108813419  MEMB      373             0.0000000000
     46415       373  PYPG      H16X          -39.9953217455      -45.4686207733        1.4481130506  MEMB      373             0.0000000000
     46416       373  PYPG      H16Y          -40.3817761523      -44.9866481429        3.2207081218  MEMB      373             0.0000000000
     46417       373  PYPG      H16Z          -39.1503940905      -45.4149857844        2.3328565361  MEMB      373             0.0000000000
     46418       374  PMPE      N              44.5874561310       39.5555848997      -21.1369632595  MEMB      374             0.0000000000
     46419       374  PMPE      HN1            44.3641833508       39.1848215767      -22.0742378295  MEMB      374             0.0000000000
     46420       374  PMPE      HN2            44.6848633254       38.7710578724      -20.4262701104  MEMB      374             0.0000000000
     46421       374  PMPE      HN3            43.8737295690       40.2299073591      -20.8249440932  MEMB      374             0.0000000000
     46422       374  PMPE      C12            45.9107549078       40.2366464872      -21.1563679934  MEMB      374             0.0000000000
     46423       374  PMPE      H12A           45.8361782381       41.2129943934      -21.6692435319  MEMB      374             0.0000000000
     46424       374  PMPE      H12B           46.6072294532       39.5855674603      -21.7172193709  MEMB      374             0.0000000000
     46425       374  PMPE      C11            46.4651397226       40.4335854091      -19.7625789132  MEMB      374             0.0000000000
     46426       374  PMPE      H11A           46.0257176034       41.3396830934      -19.2949257203  MEMB      374             0.0000000000
     46427       374  PMPE      H11B           47.5339383169       40.6545354160      -19.9660490260  MEMB      374             0.0000000000
     46428       374  PMPE      P              45.2613092403       38.8904756992      -17.9356518340  MEMB      374             0.0000000000
     46429       374  PMPE      O13            45.7824286231       38.1506665898      -16.7821166330  MEMB      374             0.0000000000
     46430       374  PMPE      O14            44.2121360759       38.2539621679      -18.7695191204  MEMB      374             0.0000000000
     46431       374  PMPE      O11            44.7244262186       40.3262176606      -17.5606913147  MEMB      374             0.0000000000
     46432       374  PMPE      O12            46.4013717041       39.2636696230      -18.9527723546  MEMB      374             0.0000000000
     46433       374  PMPE      C1             43.6976843989       40.4406659700      -16.6129759002  MEMB      374             0.0000000000
     46434       374  PMPE      HA             43.4419062967       39.4766788237      -16.0860433055  MEMB      374             0.0000000000
     46435       374  PMPE      HB             42.7766243540       40.8417000468      -17.1013324409  MEMB      374             0.0000000000
     46436       374  PMPE      C2             44.0854994957       41.5671068045      -15.6976776452  MEMB      374             0.0000000000
     46437       374  PMPE      HS             44.2654024898       42.5050049008      -16.2779671694  MEMB      374             0.0000000000
     46438       374  PMPE      O21            45.2017637152       41.2670163530      -14.8406371627  MEMB      374             0.0000000000
     46439       374  PMPE      C21            46.4055209605       41.7011809848      -15.1351285136  MEMB      374             0.0000000000
     46440       374  PMPE      O22            46.7660228266       42.1953114306      -16.1854793056  MEMB      374             0.0000000000
     46441       374  PMPE      C22            47.2185507798       41.7165601092      -13.8240724131  MEMB      374             0.0000000000
     46442       374  PMPE      H2R            48.2693564226       42.0030097459      -14.0388009105  MEMB      374             0.0000000000
     46443       374  PMPE      H2S            47.1742047135       40.6867679831      -13.4035613572  MEMB      374             0.0000000000
     46444       374  PMPE      C3             42.8055293765       41.7674992049      -14.9113276247  MEMB      374             0.0000000000
     46445       374  PMPE      HX             42.0440723478       42.3514082768      -15.4453648566  MEMB      374             0.0000000000
     46446       374  PMPE      HY             43.2426783762       42.4661698484      -14.2322746395  MEMB      374             0.0000000000
     46447       374  PMPE      O31            42.1621358950       40.5644793685      -14.4026425502  MEMB      374             0.0000000000
     46448       374  PMPE      C31            42.8120748435       40.0475511139      -13.4137609895  MEMB      374             0.0000000000
     46449       374  PMPE      O32            43.7824665028       40.5422129744      -12.8777048434  MEMB      374             0.0000000000
     46450       374  PMPE      C32            42.1466249531       38.8208232598      -12.9207431393  MEMB      374             0.0000000000
     46451       374  PMPE      H2X            42.4581504148       38.0139944713      -13.6073766449  MEMB      374             0.0000000000
     46452       374  PMPE      H2Y            41.0653411689       38.9386161054      -12.9833393244  MEMB      374             0.0000000000
     46453       374  PMPE      C23            46.6413897755       42.7449686927      -12.8017206223  MEMB      374             0.0000000000
     46454       374  PMPE      H3R            45.5298014526       42.6347043276      -12.7397656650  MEMB      374             0.0000000000
     46455       374  PMPE      H3S            46.8172830060       43.7756799771      -13.1555926192  MEMB      374             0.0000000000
     46456       374  PMPE      C24            47.2240675864       42.6963553834      -11.3689822467  MEMB      374             0.0000000000
     46457       374  PMPE      H4R            47.0473306262       43.6492217045      -10.8393778450  MEMB      374             0.0000000000
     46458       374  PMPE      H4S            48.3000928384       42.5579357872      -11.2565332664  MEMB      374             0.0000000000
     46459       374  PMPE      C25            46.6303080044       41.5843300838      -10.5288459559  MEMB      374             0.0000000000
     46460       374  PMPE      H5R            46.9438162152       40.6268391270      -11.0006968312  MEMB      374             0.0000000000
     46461       374  PMPE      H5S            45.5309985170       41.7323042971      -10.5464226990  MEMB      374             0.0000000000
     46462       374  PMPE      C26            47.0400683005       41.6057919496       -9.0577371325  MEMB      374             0.0000000000
     46463       374  PMPE      H6R            46.2565907022       41.0759078519       -8.4701334238  MEMB      374             0.0000000000
     46464       374  PMPE      H6S            47.1248552825       42.6429287712       -8.6818785059  MEMB      374             0.0000000000
     46465       374  PMPE      C27            48.3307461017       40.8767349377       -8.7927566876  MEMB      374             0.0000000000
     46466       374  PMPE      H7R            49.1299480937       41.3352960036       -9.4273595844  MEMB      374             0.0000000000
     46467       374  PMPE      H7S            48.1369583262       39.8375600502       -9.1210456178  MEMB      374             0.0000000000
     46468       374  PMPE      C28            48.6533603131       40.8854308756       -7.3045958233  MEMB      374             0.0000000000
     46469       374  PMPE      H8R            47.9511234912       40.2840677660       -6.7216631807  MEMB      374             0.0000000000
     46470       374  PMPE      H8S            48.7231524339       41.9475622470       -7.0096856830  MEMB      374             0.0000000000
     46471       374  PMPE      C29            49.9049332533       40.3466790828       -6.9363531418  MEMB      374             0.0000000000
     46472       374  PMPE      H9R            50.7236837471       40.8521929588       -7.5799649187  MEMB      374             0.0000000000
     46473       374  PMPE      C217           49.8934760282       38.7541771730       -6.2920974002  MEMB      374             0.0000000000
     46474       374  PMPE      H17R           50.6686978037       38.0482095948       -6.3604177962  MEMB      374             0.0000000000
     46475       374  PMPE      H17S           49.1984621865       38.1668778543       -6.6075715762  MEMB      374             0.0000000000
     46476       374  PMPE      C210           50.0522848616       39.9250505504       -5.6221192437  MEMB      374             0.0000000000
     46477       374  PMPE      H10R           50.9193505378       39.8462882358       -5.6935394637  MEMB      374             0.0000000000
     46478       374  PMPE      C211           49.3817525489       40.1684410868       -4.4827372785  MEMB      374             0.0000000000
     46479       374  PMPE      H11R           49.5424105200       39.3041730268       -3.8423720280  MEMB      374             0.0000000000
     46480       374  PMPE      H11S           48.3584704882       40.0889714219       -4.7634810480  MEMB      374             0.0000000000
     46481       374  PMPE      C212           49.6210961664       41.5267512886       -3.9910034048  MEMB      374             0.0000000000
     46482       374  PMPE      H12R           49.6486792753       42.3941715421       -4.6043220495  MEMB      374             0.0000000000
     46483       374  PMPE      H12S           50.5565358777       41.7314009353       -3.5325912677  MEMB      374             0.0000000000
     46484       374  PMPE      C213           48.5610886545       41.6335772748       -3.1108446402  MEMB      374             0.0000000000
     46485       374  PMPE      H13R           47.5354641584       41.2755065018       -3.1366428025  MEMB      374             0.0000000000
     46486       374  PMPE      H13S           48.5757686668       42.7811382229       -2.9295335423  MEMB      374             0.0000000000
     46487       374  PMPE      C214           48.9177995097       40.6673442843       -1.9388769478  MEMB      374             0.0000000000
     46488       374  PMPE      H14R           50.0364174126       41.3706988641       -1.7347722391  MEMB      374             0.0000000000
     46489       374  PMPE      H14S           49.2845388873       39.8418820180       -1.6436567994  MEMB      374             0.0000000000
     46490       374  PMPE      C215           47.6218284218       40.5146282505       -0.3907902755  MEMB      374             0.0000000000
     46491       374  PMPE      H15R           48.1356525598       40.1475761312        0.5276409175  MEMB      374             0.0000000000
     46492       374  PMPE      H15S           46.7391773970       40.3625789554       -0.8200842470  MEMB      374             0.0000000000
     46493       374  PMPE      C216           46.7692221776       42.1867120201        0.4745667421  MEMB      374             0.0000000000
     46494       374  PMPE      H16R           46.6691831294       43.1549233137       -0.2678843834  MEMB      374             0.0000000000
     46495       374  PMPE      H16S           46.2062292659       41.9502864757        1.1491743889  MEMB      374             0.0000000000
     46496       374  PMPE      H16T           47.4584505136       42.8872284700        0.9524037427  MEMB      374             0.0000000000
     46497       374  PMPE      C33            42.5303870015       38.5919540146      -11.4805708351  MEMB      374             0.0000000000
     46498       374  PMPE      H3X            41.5866162762       38.1146771206      -11.2063121200  MEMB      374             0.0000000000
     46499       374  PMPE      H3Y            42.3598427417       39.1788119752      -10.5952212244  MEMB      374             0.0000000000
     46500       374  PMPE      C34            43.9272705669       37.9760015882      -11.5167773292  MEMB      374             0.0000000000
     46501       374  PMPE      H4X            44.7165800657       38.6915064452      -11.5560992892  MEMB      374             0.0000000000
     46502       374  PMPE      H4Y            44.1116675275       37.1420483268      -12.3009036964  MEMB      374             0.0000000000
     46503       374  PMPE      C35            44.4160875986       37.4495707789      -10.3021970524  MEMB      374             0.0000000000
     46504       374  PMPE      H5X            45.4774756076       37.1271684818      -10.3130291784  MEMB      374             0.0000000000
     46505       374  PMPE      H5Y            43.9377640555       36.5275609167      -10.7143227179  MEMB      374             0.0000000000
     46506       374  PMPE      C36            44.2206765776       37.9305370652       -8.8546364565  MEMB      374             0.0000000000
     46507       374  PMPE      H6X            43.3775520861       37.7361904468       -8.1679631577  MEMB      374             0.0000000000
     46508       374  PMPE      H6Y            44.3039586618       38.9761239612       -8.8726791207  MEMB      374             0.0000000000
     46509       374  PMPE      C37            45.4684509700       37.7117895297       -8.0272141638  MEMB      374             0.0000000000
     46510       374  PMPE      H7X            46.2991335373       37.3485232019       -8.5222044179  MEMB      374             0.0000000000
     46511       374  PMPE      H7Y            45.7928913263       36.6834388409       -7.9121004484  MEMB      374             0.0000000000
     46512       374  PMPE      C38            45.4388214862       38.3612474570       -6.5940265558  MEMB      374             0.0000000000
     46513       374  PMPE      H8X            44.4005690655       38.3486182428       -6.1408781141  MEMB      374             0.0000000000
     46514       374  PMPE      H8Y            45.6557262772       39.3810454482       -6.7680751878  MEMB      374             0.0000000000
     46515       374  PMPE      C39            46.4447297158       37.7384792010       -5.5521169916  MEMB      374             0.0000000000
     46516       374  PMPE      H9X            47.4497931540       37.8968932986       -5.9427352726  MEMB      374             0.0000000000
     46517       374  PMPE      H9Y            46.4071422729       36.6498792788       -5.4315083652  MEMB      374             0.0000000000
     46518       374  PMPE      C310           46.2357493795       38.2616523486       -4.1449625630  MEMB      374             0.0000000000
     46519       374  PMPE      H10X           46.1984989228       39.3432553240       -4.3141772405  MEMB      374             0.0000000000
     46520       374  PMPE      H10Y           47.1042967378       38.0196587940       -3.4976274355  MEMB      374             0.0000000000
     46521       374  PMPE      C311           45.0081503849       37.7384712563       -3.4163359996  MEMB      374             0.0000000000
     46522       374  PMPE      H11X           45.0612904050       36.6305809074       -3.4899500483  MEMB      374             0.0000000000
     46523       374  PMPE      H11Y           44.0360953687       38.1152494849       -3.8182741379  MEMB      374             0.0000000000
     46524       374  PMPE      C312           45.0551483674       38.0975530355       -1.9729213096  MEMB      374             0.0000000000
     46525       374  PMPE      H12X           45.1691042052       39.1641090170       -1.8321229126  MEMB      374             0.0000000000
     46526       374  PMPE      H12Y           45.8675382524       37.6800105387       -1.3917028851  MEMB      374             0.0000000000
     46527       374  PMPE      C313           43.8299105871       37.7459884669       -1.3047528293  MEMB      374             0.0000000000
     46528       374  PMPE      H13X           43.2402329702       36.8616180898       -1.2372622723  MEMB      374             0.0000000000
     46529       374  PMPE      H13Y           43.0710216323       38.0401023922       -1.9463422681  MEMB      374             0.0000000000
     46530       374  PMPE      C314           43.8006670245       38.0662940246        0.2076438640  MEMB      374             0.0000000000
     46531       374  PMPE      H14X           42.9562315160       37.5751536104        0.6305869170  MEMB      374             0.0000000000
     46532       374  PMPE      H14Y           44.0513479371       39.0945384189        0.4912981957  MEMB      374             0.0000000000
     46533       374  PMPE      C315           44.7837909720       38.4029970455        1.1302836119  MEMB      374             0.0000000000
     46534       374  PMPE      H15X           45.7833710498       38.6188924645        0.7930807103  MEMB      374             0.0000000000
     46535       374  PMPE      H15Y           44.8430685241       37.5155304773        0.6437426454  MEMB      374             0.0000000000
     46536       374  PMPE      C316           44.2651523669       38.5419360706        2.5451550411  MEMB      374             0.0000000000
     46537       374  PMPE      H16X           44.4932729864       37.9985347848        3.3528644604  MEMB      374             0.0000000000
     46538       374  PMPE      H16Y           43.4603703590       37.9215632027        2.9704555628  MEMB      374             0.0000000000
     46539       374  PMPE      H16Z           44.8071879864       39.3191361434        3.0134853580  MEMB      374             0.0000000000
     46540       375  QMPE      N             -22.8584180111      -52.7601632383      -17.8360233273  MEMB      375             0.0000000000
     46541       375  QMPE      HN1           -22.8487913570      -51.7576445073      -17.5328872091  MEMB      375             0.0000000000
     46542       375  QMPE      HN2           -23.7439990962      -53.2284945386      -17.5096082801  MEMB      375             0.0000000000
     46543       375  QMPE      HN3           -22.0216175289      -53.2518003709      -17.4517404264  MEMB      375             0.0000000000
     46544       375  QMPE      C12           -22.7436530209      -52.8881854012      -19.3357913349  MEMB      375             0.0000000000
     46545       375  QMPE      H12A          -21.8649644505      -53.5175341596      -19.5667473316  MEMB      375             0.0000000000
     46546       375  QMPE      H12B          -22.4964214011      -51.9118173578      -19.7518190356  MEMB      375             0.0000000000
     46547       375  QMPE      C11           -24.0075197920      -53.3961394582      -20.0286535765  MEMB      375             0.0000000000
     46548       375  QMPE      H11A          -23.9710319264      -53.1776529176      -21.1060997160  MEMB      375             0.0000000000
     46549       375  QMPE      H11B          -24.9439603833      -52.8786532631      -19.7056128585  MEMB      375             0.0000000000
     46550       375  QMPE      P             -25.1010617353      -55.4506744628      -18.9536322189  MEMB      375             0.0000000000
     46551       375  QMPE      O13           -24.3889953987      -56.4562508066      -18.1693809535  MEMB      375             0.0000000000
     46552       375  QMPE      O14           -26.2615261189      -55.8511693521      -19.7310605157  MEMB      375             0.0000000000
     46553       375  QMPE      O11           -25.4260692784      -54.2436460205      -17.9986522498  MEMB      375             0.0000000000
     46554       375  QMPE      O12           -24.0367373022      -54.7989303634      -19.9233821551  MEMB      375             0.0000000000
     46555       375  QMPE      C1            -26.6772537757      -53.6415146235      -17.8267921582  MEMB      375             0.0000000000
     46556       375  QMPE      HA            -27.5462580540      -54.2617674758      -18.1511806397  MEMB      375             0.0000000000
     46557       375  QMPE      HB            -26.7207644744      -52.7048715339      -18.4157160622  MEMB      375             0.0000000000
     46558       375  QMPE      C2            -26.8749085534      -53.4695231662      -16.3450878388  MEMB      375             0.0000000000
     46559       375  QMPE      HS            -28.0027930830      -53.5838956746      -16.2740591015  MEMB      375             0.0000000000
     46560       375  QMPE      O21           -26.2520297504      -52.1744461601      -15.9897303883  MEMB      375             0.0000000000
     46561       375  QMPE      C21           -26.3039094621      -51.7459244373      -14.7125589811  MEMB      375             0.0000000000
     46562       375  QMPE      O22           -26.8533791668      -52.2805319729      -13.7733935786  MEMB      375             0.0000000000
     46563       375  QMPE      C22           -25.4988119659      -50.5221158251      -14.5797622713  MEMB      375             0.0000000000
     46564       375  QMPE      H2R           -25.7609588136      -49.9079365094      -15.4415497563  MEMB      375             0.0000000000
     46565       375  QMPE      H2S           -24.4400131213      -50.7914996290      -14.6692929567  MEMB      375             0.0000000000
     46566       375  QMPE      C3            -26.3926269411      -54.5320051330      -15.4153346955  MEMB      375             0.0000000000
     46567       375  QMPE      HX            -26.7429944468      -55.4538031677      -15.9455834442  MEMB      375             0.0000000000
     46568       375  QMPE      HY            -26.9026187154      -54.4442084093      -14.4131455597  MEMB      375             0.0000000000
     46569       375  QMPE      O31           -24.9736265195      -54.3918602859      -15.3497115302  MEMB      375             0.0000000000
     46570       375  QMPE      C31           -24.5395393734      -55.4058062705      -14.7278047236  MEMB      375             0.0000000000
     46571       375  QMPE      O32           -25.2583062811      -56.1876594488      -14.1151093967  MEMB      375             0.0000000000
     46572       375  QMPE      C32           -23.0899981632      -55.0878594200      -14.6128341589  MEMB      375             0.0000000000
     46573       375  QMPE      H2X           -22.3840245971      -55.8838821589      -14.8611323207  MEMB      375             0.0000000000
     46574       375  QMPE      H2Y           -22.7811230158      -54.1791750660      -15.1491536635  MEMB      375             0.0000000000
     46575       375  QMPE      C23           -25.8408380110      -49.9816385793      -13.2231735268  MEMB      375             0.0000000000
     46576       375  QMPE      H3R           -25.7090374250      -50.7811428829      -12.4582750396  MEMB      375             0.0000000000
     46577       375  QMPE      H3S           -26.9029936498      -49.6641724225      -13.1852486633  MEMB      375             0.0000000000
     46578       375  QMPE      C24           -24.8839733748      -48.9653181074      -12.8268869255  MEMB      375             0.0000000000
     46579       375  QMPE      H4R           -24.6442683155      -48.1261295598      -13.5358864933  MEMB      375             0.0000000000
     46580       375  QMPE      H4S           -23.9639082073      -49.3245661493      -12.5534693519  MEMB      375             0.0000000000
     46581       375  QMPE      C25           -25.3501333571      -48.5214235649      -11.5751024546  MEMB      375             0.0000000000
     46582       375  QMPE      H5R           -26.3457583682      -48.1384333183      -11.6509202107  MEMB      375             0.0000000000
     46583       375  QMPE      H5S           -24.7532720837      -47.5322893471      -11.6543607461  MEMB      375             0.0000000000
     46584       375  QMPE      C26           -25.8510740793      -49.4833974569      -10.4129889374  MEMB      375             0.0000000000
     46585       375  QMPE      H6R           -26.7412192666      -49.9192173160      -10.6152334383  MEMB      375             0.0000000000
     46586       375  QMPE      H6S           -26.7593683784      -49.1934658414       -9.6687194723  MEMB      375             0.0000000000
     46587       375  QMPE      C27           -24.5537285164      -50.1459674145       -9.6930523719  MEMB      375             0.0000000000
     46588       375  QMPE      H7R           -24.0211275704      -49.9054849612      -10.5473022302  MEMB      375             0.0000000000
     46589       375  QMPE      H7S           -24.8600158317      -51.0748515316       -9.6300311352  MEMB      375             0.0000000000
     46590       375  QMPE      C28           -23.5477485761      -49.4391476736       -8.0802686312  MEMB      375             0.0000000000
     46591       375  QMPE      H8R           -23.0227508205      -50.1042436670       -7.7597656000  MEMB      375             0.0000000000
     46592       375  QMPE      H8S           -23.7786586955      -48.9021619169       -7.2545014868  MEMB      375             0.0000000000
     46593       375  QMPE      C29           -23.4456602998      -47.3729697001       -7.9009087068  MEMB      375             0.0000000000
     46594       375  QMPE      H9R           -23.8711466632      -46.7129068682       -8.5994020575  MEMB      375             0.0000000000
     46595       375  QMPE      C217          -22.3737554668      -46.5955058090       -8.6750351639  MEMB      375             0.0000000000
     46596       375  QMPE      H17R          -21.4684239105      -46.9465932334       -9.3139780710  MEMB      375             0.0000000000
     46597       375  QMPE      H17S          -22.1707996855      -46.0527164628       -9.4706891145  MEMB      375             0.0000000000
     46598       375  QMPE      C210          -22.5705913070      -46.6059421796       -7.0666838482  MEMB      375             0.0000000000
     46599       375  QMPE      H10R          -22.9396535356      -45.6758547115       -6.8157283599  MEMB      375             0.0000000000
     46600       375  QMPE      C211          -22.7264876089      -47.7243397331       -5.9490121560  MEMB      375             0.0000000000
     46601       375  QMPE      H11R          -22.3633468012      -48.7485453199       -5.9760557566  MEMB      375             0.0000000000
     46602       375  QMPE      H11S          -21.9207847286      -46.8743070618       -5.8719775443  MEMB      375             0.0000000000
     46603       375  QMPE      C212          -22.7738285997      -48.4376806309       -4.5465364039  MEMB      375             0.0000000000
     46604       375  QMPE      H12R          -22.0483057632      -48.9389725804       -3.9254371550  MEMB      375             0.0000000000
     46605       375  QMPE      H12S          -23.4144659188      -49.3696340657       -4.7844182192  MEMB      375             0.0000000000
     46606       375  QMPE      C213          -23.1191176748      -47.1598452671       -3.8941550979  MEMB      375             0.0000000000
     46607       375  QMPE      H13R          -23.6774872314      -46.4801227216       -4.5929965281  MEMB      375             0.0000000000
     46608       375  QMPE      H13S          -22.4209611104      -46.3570291945       -3.8316850786  MEMB      375             0.0000000000
     46609       375  QMPE      C214          -23.8167496438      -47.7503107070       -2.7358866865  MEMB      375             0.0000000000
     46610       375  QMPE      H14R          -24.1831196233      -48.7481028939       -3.0797831212  MEMB      375             0.0000000000
     46611       375  QMPE      H14S          -24.7815007181      -47.5550223448       -2.2841493184  MEMB      375             0.0000000000
     46612       375  QMPE      C215          -23.3511533013      -47.2101269123       -1.4723057414  MEMB      375             0.0000000000
     46613       375  QMPE      H15R          -23.9744887395      -47.5310317059       -0.6315026622  MEMB      375             0.0000000000
     46614       375  QMPE      H15S          -23.4592677544      -46.1720701098       -1.2456009495  MEMB      375             0.0000000000
     46615       375  QMPE      C216          -22.0643635344      -47.6211174499       -1.8353075272  MEMB      375             0.0000000000
     46616       375  QMPE      H16R          -21.8405640742      -48.6938329811       -2.0920278952  MEMB      375             0.0000000000
     46617       375  QMPE      H16S          -21.4345793783      -47.3815384128       -1.0900285582  MEMB      375             0.0000000000
     46618       375  QMPE      H16T          -21.4350497139      -46.8736266926       -2.0796469746  MEMB      375             0.0000000000
     46619       375  QMPE      C33           -22.9886747203      -54.6811871601      -13.2334294195  MEMB      375             0.0000000000
     46620       375  QMPE      H3X           -21.9061388166      -54.2914216430      -13.2023276421  MEMB      375             0.0000000000
     46621       375  QMPE      H3Y           -23.1485558574      -55.6450059388      -12.6139307532  MEMB      375             0.0000000000
     46622       375  QMPE      C34           -23.8495981569      -53.6089162805      -12.5684191876  MEMB      375             0.0000000000
     46623       375  QMPE      H4X           -24.8905664198      -53.9063036270      -12.5573204542  MEMB      375             0.0000000000
     46624       375  QMPE      H4Y           -23.6538132794      -52.5762322135      -12.8593932125  MEMB      375             0.0000000000
     46625       375  QMPE      C35           -23.7530607867      -53.4893036053      -11.1438010142  MEMB      375             0.0000000000
     46626       375  QMPE      H5X           -24.2988131889      -52.7327785797      -10.5520492113  MEMB      375             0.0000000000
     46627       375  QMPE      H5Y           -22.6989536653      -53.0506789096      -11.1113051757  MEMB      375             0.0000000000
     46628       375  QMPE      C36           -24.1638795710      -54.8402087856      -10.4163115291  MEMB      375             0.0000000000
     46629       375  QMPE      H6X           -23.5141494969      -55.6420633566      -10.6826529120  MEMB      375             0.0000000000
     46630       375  QMPE      H6Y           -24.9604599625      -55.3257501565      -10.7827717995  MEMB      375             0.0000000000
     46631       375  QMPE      C37           -24.6450854979      -54.8026344592       -8.9717136150  MEMB      375             0.0000000000
     46632       375  QMPE      H7X           -23.7521581231      -54.8328653991       -8.5088192297  MEMB      375             0.0000000000
     46633       375  QMPE      H7Y           -24.9520327673      -53.8061918493       -8.6841671320  MEMB      375             0.0000000000
     46634       375  QMPE      C38           -24.5517585011      -55.8888174937       -7.9841830803  MEMB      375             0.0000000000
     46635       375  QMPE      H8X           -25.3249393617      -56.5175806156       -8.2656947583  MEMB      375             0.0000000000
     46636       375  QMPE      H8Y           -23.5361760900      -56.4364573105       -7.9178288875  MEMB      375             0.0000000000
     46637       375  QMPE      C39           -24.9544358311      -55.4184317580       -6.6695230418  MEMB      375             0.0000000000
     46638       375  QMPE      H9X           -23.9343952368      -55.0960501328       -6.5533858112  MEMB      375             0.0000000000
     46639       375  QMPE      H9Y           -25.1883495896      -56.2134242393       -5.9793431241  MEMB      375             0.0000000000
     46640       375  QMPE      C310          -25.9459939712      -54.3981493735       -6.3165003702  MEMB      375             0.0000000000
     46641       375  QMPE      H10X          -26.7148657410      -54.9553473717       -6.8743127386  MEMB      375             0.0000000000
     46642       375  QMPE      H10Y          -25.6851475190      -53.4093375821       -6.7076966008  MEMB      375             0.0000000000
     46643       375  QMPE      C311          -26.3350504142      -54.2288597665       -4.8323733656  MEMB      375             0.0000000000
     46644       375  QMPE      H11X          -26.6901334514      -55.1929379383       -4.4314013176  MEMB      375             0.0000000000
     46645       375  QMPE      H11Y          -27.1573187867      -53.4883944264       -4.8567083983  MEMB      375             0.0000000000
     46646       375  QMPE      C312          -25.2803697430      -53.5982022926       -3.9504090345  MEMB      375             0.0000000000
     46647       375  QMPE      H12X          -24.6979379299      -52.8976014179       -4.5679379100  MEMB      375             0.0000000000
     46648       375  QMPE      H12Y          -24.6358503063      -54.3304274419       -3.4278039707  MEMB      375             0.0000000000
     46649       375  QMPE      C313          -25.6342159610      -53.0958952162       -2.7026509975  MEMB      375             0.0000000000
     46650       375  QMPE      H13X          -26.2474736065      -52.2090885101       -2.9612600474  MEMB      375             0.0000000000
     46651       375  QMPE      H13Y          -26.1374293440      -53.8990240659       -2.1145300796  MEMB      375             0.0000000000
     46652       375  QMPE      C314          -24.4034874864      -52.9321740374       -1.9074427387  MEMB      375             0.0000000000
     46653       375  QMPE      H14X          -23.8853352790      -53.7195648984       -1.4329887053  MEMB      375             0.0000000000
     46654       375  QMPE      H14Y          -24.9202081944      -52.8469929860       -0.9086671953  MEMB      375             0.0000000000
     46655       375  QMPE      C315          -23.3852488214      -51.9249406347       -2.5190511378  MEMB      375             0.0000000000
     46656       375  QMPE      H15X          -23.7314654277      -51.2044817675       -3.3051687020  MEMB      375             0.0000000000
     46657       375  QMPE      H15Y          -22.8798487719      -51.3371613156       -1.7746955719  MEMB      375             0.0000000000
     46658       375  QMPE      H15Z          -22.4533669441      -52.4176843470       -2.5968023399  MEMB      375             0.0000000000
     46659       376  OYPE      N              30.8560666678      -53.2906649351      -19.2595678555  MEMB      376             0.0000000000
     46660       376  OYPE      HN1            31.2418071705      -53.8655564761      -20.0346571409  MEMB      376             0.0000000000
     46661       376  OYPE      HN2            29.9287564551      -53.6503753164      -18.9542810413  MEMB      376             0.0000000000
     46662       376  OYPE      HN3            30.7409266784      -52.2885195685      -19.5371036106  MEMB      376             0.0000000000
     46663       376  OYPE      C12            31.9250477536      -53.4066763269      -18.2173003725  MEMB      376             0.0000000000
     46664       376  OYPE      H12A           32.5533782054      -54.2902465333      -18.4870988852  MEMB      376             0.0000000000
     46665       376  OYPE      H12B           31.4611385602      -53.5556621517      -17.2212167043  MEMB      376             0.0000000000
     46666       376  OYPE      C11            32.7119028106      -52.1023977798      -18.1338360166  MEMB      376             0.0000000000
     46667       376  OYPE      H11A           33.3751531167      -52.2667601029      -17.2544958194  MEMB      376             0.0000000000
     46668       376  OYPE      H11B           32.0236666829      -51.2609025726      -17.8468168669  MEMB      376             0.0000000000
     46669       376  OYPE      P              34.1938435377      -50.4128926867      -19.3519258725  MEMB      376             0.0000000000
     46670       376  OYPE      O13            33.1765762667      -49.3883438395      -19.6696830587  MEMB      376             0.0000000000
     46671       376  OYPE      O14            35.4342004422      -50.5200657312      -20.1366134987  MEMB      376             0.0000000000
     46672       376  OYPE      O11            34.5648390306      -50.3258414242      -17.8327559121  MEMB      376             0.0000000000
     46673       376  OYPE      O12            33.4689514211      -51.8400864897      -19.3321266793  MEMB      376             0.0000000000
     46674       376  OYPE      C1             35.2699758700      -49.1853679975      -17.3830410228  MEMB      376             0.0000000000
     46675       376  OYPE      HA             34.7156216153      -48.2880467903      -17.7308226040  MEMB      376             0.0000000000
     46676       376  OYPE      HB             36.3008425753      -49.1355559139      -17.8116799400  MEMB      376             0.0000000000
     46677       376  OYPE      C2             35.2929389037      -49.2607983906      -15.8431930457  MEMB      376             0.0000000000
     46678       376  OYPE      HS             35.9479128260      -48.4095608321      -15.4562509103  MEMB      376             0.0000000000
     46679       376  OYPE      O21            35.7186689301      -50.5328797025      -15.3641570248  MEMB      376             0.0000000000
     46680       376  OYPE      C21            36.9560508784      -50.8000848361      -15.3609178706  MEMB      376             0.0000000000
     46681       376  OYPE      O22            37.8706073590      -50.0847716761      -15.7600879775  MEMB      376             0.0000000000
     46682       376  OYPE      C22            37.1788637399      -52.2115084473      -14.7630375794  MEMB      376             0.0000000000
     46683       376  OYPE      H2R            37.5374459453      -52.8594238345      -15.5743780198  MEMB      376             0.0000000000
     46684       376  OYPE      H2S            36.2634873752      -52.6787862195      -14.3659118230  MEMB      376             0.0000000000
     46685       376  OYPE      C3             33.8831157191      -49.1032143235      -15.2545908767  MEMB      376             0.0000000000
     46686       376  OYPE      HX             33.1399496579      -49.7495697440      -15.6303810210  MEMB      376             0.0000000000
     46687       376  OYPE      HY             33.6299212325      -48.0367878604      -15.6170457248  MEMB      376             0.0000000000
     46688       376  OYPE      O31            33.9479199129      -49.2216490639      -13.7797606986  MEMB      376             0.0000000000
     46689       376  OYPE      C31            33.5592100469      -50.0475458405      -13.0089804994  MEMB      376             0.0000000000
     46690       376  OYPE      O32            33.1014402568      -51.1086646637      -13.3832253562  MEMB      376             0.0000000000
     46691       376  OYPE      C32            33.7758237021      -49.5834851576      -11.5196123686  MEMB      376             0.0000000000
     46692       376  OYPE      H2X            34.9082836907      -49.5035619120      -11.3788708167  MEMB      376             0.0000000000
     46693       376  OYPE      H2Y            33.1993229746      -48.6356475589      -11.2940476690  MEMB      376             0.0000000000
     46694       376  OYPE      C23            38.1860268110      -52.1133787987      -13.6305122140  MEMB      376             0.0000000000
     46695       376  OYPE      H3R            38.9827941292      -51.6111342509      -14.1635926119  MEMB      376             0.0000000000
     46696       376  OYPE      H3S            38.6331795048      -53.0779368428      -13.3151020736  MEMB      376             0.0000000000
     46697       376  OYPE      C24            37.5330449561      -51.3285080328      -12.4746869185  MEMB      376             0.0000000000
     46698       376  OYPE      H4R            36.6739192907      -51.8668403076      -12.0772311547  MEMB      376             0.0000000000
     46699       376  OYPE      H4S            37.4323480655      -50.2459552120      -12.6136904143  MEMB      376             0.0000000000
     46700       376  OYPE      C25            38.1317484080      -51.3632990964      -11.1510141003  MEMB      376             0.0000000000
     46701       376  OYPE      H5R            39.0199263086      -51.3425282779      -11.5947748935  MEMB      376             0.0000000000
     46702       376  OYPE      H5S            38.2626223433      -52.4010148375      -10.8095511032  MEMB      376             0.0000000000
     46703       376  OYPE      C26            38.1791158214      -50.1886638865      -10.0958532114  MEMB      376             0.0000000000
     46704       376  OYPE      H6R            38.2681519352      -49.1819677204      -10.5440971755  MEMB      376             0.0000000000
     46705       376  OYPE      H6S            38.8902108643      -50.2316813651       -9.1945544752  MEMB      376             0.0000000000
     46706       376  OYPE      C27            36.9405521523      -50.2909877637       -9.2976556280  MEMB      376             0.0000000000
     46707       376  OYPE      H7R            36.9769250501      -51.2130209894       -8.6784859185  MEMB      376             0.0000000000
     46708       376  OYPE      H7S            36.1424410233      -50.4370254227      -10.0400238031  MEMB      376             0.0000000000
     46709       376  OYPE      C28            36.7935757664      -49.0035799931       -8.4928000438  MEMB      376             0.0000000000
     46710       376  OYPE      H8R            36.7081681705      -48.1672171369       -9.2293174268  MEMB      376             0.0000000000
     46711       376  OYPE      H8S            37.7029134077      -48.8082971820       -7.8708658256  MEMB      376             0.0000000000
     46712       376  OYPE      C29            35.5779203837      -49.0165846868       -7.6197485619  MEMB      376             0.0000000000
     46713       376  OYPE      H9R            34.6417207335      -48.6616004909       -8.0462788163  MEMB      376             0.0000000000
     46714       376  OYPE      C210           35.3982261360      -49.5726848281       -6.4465886634  MEMB      376             0.0000000000
     46715       376  OYPE      H10R           34.4923914163      -49.3913469055       -5.8804046003  MEMB      376             0.0000000000
     46716       376  OYPE      C211           36.3365313631      -50.3287663392       -5.6924848045  MEMB      376             0.0000000000
     46717       376  OYPE      H11R           37.2047508350      -49.6967030452       -5.4576092947  MEMB      376             0.0000000000
     46718       376  OYPE      H11S           36.7070736538      -51.2272232826       -6.2425974708  MEMB      376             0.0000000000
     46719       376  OYPE      C212           35.5890603442      -50.5983318320       -4.4399969290  MEMB      376             0.0000000000
     46720       376  OYPE      H12R           34.7244626040      -51.3024007258       -4.3514794661  MEMB      376             0.0000000000
     46721       376  OYPE      H12S           35.6459714765      -49.7720481887       -3.6454628158  MEMB      376             0.0000000000
     46722       376  OYPE      C213           36.5861170473      -51.3892450795       -4.1316666651  MEMB      376             0.0000000000
     46723       376  OYPE      H13R           36.4532493775      -51.1664133038       -3.1552061664  MEMB      376             0.0000000000
     46724       376  OYPE      H13S           37.6103030813      -50.8990596892       -3.9268863879  MEMB      376             0.0000000000
     46725       376  OYPE      C214           36.4439412527      -53.0686147571       -4.3031035462  MEMB      376             0.0000000000
     46726       376  OYPE      H14R           37.1304306257      -52.3828030208       -4.8561642323  MEMB      376             0.0000000000
     46727       376  OYPE      H14S           35.6311156905      -53.5867410683       -4.7862805684  MEMB      376             0.0000000000
     46728       376  OYPE      C215           37.5486976485      -54.6422503074       -3.3230638055  MEMB      376             0.0000000000
     46729       376  OYPE      H15R           38.8046844222      -54.6724537414       -3.0323976928  MEMB      376             0.0000000000
     46730       376  OYPE      H15S           38.0699097878      -55.3272840657       -3.6586470939  MEMB      376             0.0000000000
     46731       376  OYPE      C216           37.2914608317      -55.0728433121       -2.2387522680  MEMB      376             0.0000000000
     46732       376  OYPE      H16R           36.3800372404      -55.7165363955       -2.3770438134  MEMB      376             0.0000000000
     46733       376  OYPE      H16S           37.3246822098      -54.2563389408       -1.7564846384  MEMB      376             0.0000000000
     46734       376  OYPE      H16T           37.6666954590      -55.3552047300       -1.2972491296  MEMB      376             0.0000000000
     46735       376  OYPE      C33            33.2566066006      -50.4161247022      -10.4407418469  MEMB      376             0.0000000000
     46736       376  OYPE      H3X            33.7407261766      -50.2204697486       -9.4652101104  MEMB      376             0.0000000000
     46737       376  OYPE      H3Y            33.5806996154      -51.3894176311      -10.8179791609  MEMB      376             0.0000000000
     46738       376  OYPE      C34            31.7584187680      -50.1877345927      -10.3872070423  MEMB      376             0.0000000000
     46739       376  OYPE      H4X            31.4808096762      -49.1204071287      -10.5373816334  MEMB      376             0.0000000000
     46740       376  OYPE      H4Y            31.3587920469      -50.6859964539      -11.2944984976  MEMB      376             0.0000000000
     46741       376  OYPE      C35            30.9913939001      -50.8991491248       -9.2706035807  MEMB      376             0.0000000000
     46742       376  OYPE      H5X            31.2912308919      -51.9674420319       -9.2836551912  MEMB      376             0.0000000000
     46743       376  OYPE      H5Y            29.9369029391      -50.8637460008       -9.6383411453  MEMB      376             0.0000000000
     46744       376  OYPE      C36            31.1638023032      -50.4229432645       -7.8127814053  MEMB      376             0.0000000000
     46745       376  OYPE      H6X            30.2771955414      -50.7978123041       -7.2457838467  MEMB      376             0.0000000000
     46746       376  OYPE      H6Y            32.0831256379      -50.9017714278       -7.3778118825  MEMB      376             0.0000000000
     46747       376  OYPE      C37            31.2287124708      -48.8944310672       -7.6416061285  MEMB      376             0.0000000000
     46748       376  OYPE      H7X            32.2003750478      -48.5250975613       -8.0266011787  MEMB      376             0.0000000000
     46749       376  OYPE      H7Y            30.3811060021      -48.3869873935       -8.1597064673  MEMB      376             0.0000000000
     46750       376  OYPE      C38            30.9847767680      -48.3907061018       -6.2211446359  MEMB      376             0.0000000000
     46751       376  OYPE      H8X            30.4447666964      -47.4324196698       -6.2860668712  MEMB      376             0.0000000000
     46752       376  OYPE      H8Y            30.2581154355      -49.1117325540       -5.8000278477  MEMB      376             0.0000000000
     46753       376  OYPE      C39            32.2268353644      -48.1393282303       -5.4144362953  MEMB      376             0.0000000000
     46754       376  OYPE      H9X            33.1091127869      -47.9069497207       -5.9698196121  MEMB      376             0.0000000000
     46755       376  OYPE      C310           32.4330215433      -48.4711050801       -4.1650907172  MEMB      376             0.0000000000
     46756       376  OYPE      H10X           33.3040233029      -48.1651365464       -3.5596968887  MEMB      376             0.0000000000
     46757       376  OYPE      C311           31.3435602498      -49.1412290221       -3.5152153567  MEMB      376             0.0000000000
     46758       376  OYPE      H11X           30.9038058027      -48.1823102501       -3.3312307102  MEMB      376             0.0000000000
     46759       376  OYPE      H11Y           30.4183293273      -49.0656174711       -3.8778274603  MEMB      376             0.0000000000
     46760       376  OYPE      C312           31.5374022229      -50.1891556513       -2.3791570618  MEMB      376             0.0000000000
     46761       376  OYPE      H12X           30.8431640280      -50.1616402589       -1.5179308891  MEMB      376             0.0000000000
     46762       376  OYPE      H12Y           32.5282489406      -50.0435547668       -1.8547909610  MEMB      376             0.0000000000
     46763       376  OYPE      C313           31.4320180416      -51.3912617713       -3.1750841619  MEMB      376             0.0000000000
     46764       376  OYPE      H13X           30.5554320091      -51.3505075668       -3.8641763929  MEMB      376             0.0000000000
     46765       376  OYPE      H13Y           32.3818413651      -51.4216312414       -3.7420335391  MEMB      376             0.0000000000
     46766       376  OYPE      C314           31.3658284365      -52.5945869300       -2.3337824753  MEMB      376             0.0000000000
     46767       376  OYPE      H14X           31.2108798855      -53.3903002396       -3.0492439025  MEMB      376             0.0000000000
     46768       376  OYPE      H14Y           30.5076079010      -52.4953581770       -1.6667447843  MEMB      376             0.0000000000
     46769       376  OYPE      C315           32.6302289099      -52.7605224753       -1.5579055159  MEMB      376             0.0000000000
     46770       376  OYPE      H15X           32.8854303993      -51.8382341326       -1.0078707391  MEMB      376             0.0000000000
     46771       376  OYPE      H15Y           33.3276640545      -52.8877803740       -2.3633095713  MEMB      376             0.0000000000
     46772       376  OYPE      C316           32.9090579238      -53.9934956099       -0.7068359819  MEMB      376             0.0000000000
     46773       376  OYPE      H16X           32.4197867627      -54.7913726723       -1.0837923177  MEMB      376             0.0000000000
     46774       376  OYPE      H16Y           32.6310812549      -53.6649660046        0.2781939835  MEMB      376             0.0000000000
     46775       376  OYPE      C317           33.8996763049      -54.5228740697        0.1939127217  MEMB      376             0.0000000000
     46776       376  OYPE      H17X           34.4312635252      -55.1248804352       -0.4182555677  MEMB      376             0.0000000000
     46777       376  OYPE      H17Y           33.7509618887      -55.0968200304        1.0405049190  MEMB      376             0.0000000000
     46778       376  OYPE      C318           34.4611844994      -53.5936331832        0.8573593875  MEMB      376             0.0000000000
     46779       376  OYPE      H18X           35.4184986015      -53.8060773927        1.2933487089  MEMB      376             0.0000000000
     46780       376  OYPE      H18Y           34.2004842720      -52.7413681931        0.2336833354  MEMB      376             0.0000000000
     46781       376  OYPE      H18Z           34.0916546144      -53.0141692258        1.6241062517  MEMB      376             0.0000000000
     46782       377  PMPE      N             -34.8500089124       52.0501843104      -19.9644833834  MEMB      377             0.0000000000
     46783       377  PMPE      HN1           -35.0814542146       52.7849535032      -19.2595894430  MEMB      377             0.0000000000
     46784       377  PMPE      HN2           -34.1033415088       51.4738869507      -19.5412682705  MEMB      377             0.0000000000
     46785       377  PMPE      HN3           -34.5526290531       52.3905490714      -20.9052320529  MEMB      377             0.0000000000
     46786       377  PMPE      C12           -36.0246484426       51.2057326807      -20.3349665818  MEMB      377             0.0000000000
     46787       377  PMPE      H12A          -35.6281684439       50.5312586359      -21.1297179721  MEMB      377             0.0000000000
     46788       377  PMPE      H12B          -36.7959009834       51.9386772668      -20.6625919079  MEMB      377             0.0000000000
     46789       377  PMPE      C11           -36.5832665902       50.3855088794      -19.1806140159  MEMB      377             0.0000000000
     46790       377  PMPE      H11A          -37.6811339303       50.5928569517      -19.1053388289  MEMB      377             0.0000000000
     46791       377  PMPE      H11B          -36.1047284504       50.7547383336      -18.2541014223  MEMB      377             0.0000000000
     46792       377  PMPE      P             -37.1882163078       47.9493246982      -18.5310094880  MEMB      377             0.0000000000
     46793       377  PMPE      O13           -36.5657013369       46.6085210376      -18.6270969267  MEMB      377             0.0000000000
     46794       377  PMPE      O14           -38.6064234344       48.0510083350      -18.8832311951  MEMB      377             0.0000000000
     46795       377  PMPE      O11           -36.9823511309       48.4567770308      -17.0529355871  MEMB      377             0.0000000000
     46796       377  PMPE      O12           -36.3046685907       48.9975454377      -19.3718053782  MEMB      377             0.0000000000
     46797       377  PMPE      C1            -35.7040566913       48.3165179182      -16.4451221684  MEMB      377             0.0000000000
     46798       377  PMPE      HA            -35.0643305370       49.1594893666      -16.7952967747  MEMB      377             0.0000000000
     46799       377  PMPE      HB            -35.1922320118       47.3701550535      -16.7386930590  MEMB      377             0.0000000000
     46800       377  PMPE      C2            -35.9309948673       48.3481456238      -14.9229138109  MEMB      377             0.0000000000
     46801       377  PMPE      HS            -36.6764315652       47.5861342690      -14.6184200491  MEMB      377             0.0000000000
     46802       377  PMPE      O21           -36.3812155533       49.6796074711      -14.6524347641  MEMB      377             0.0000000000
     46803       377  PMPE      C21           -37.2227663688       49.8108021609      -13.6774223557  MEMB      377             0.0000000000
     46804       377  PMPE      O22           -37.7007506171       48.9258676972      -12.9864478927  MEMB      377             0.0000000000
     46805       377  PMPE      C22           -37.5211126481       51.2966098046      -13.5306834846  MEMB      377             0.0000000000
     46806       377  PMPE      H2R           -38.5516888288       51.3750122159      -13.9437976938  MEMB      377             0.0000000000
     46807       377  PMPE      H2S           -36.8519507493       51.9246272318      -14.1701216777  MEMB      377             0.0000000000
     46808       377  PMPE      C3            -34.6893863869       47.9883253350      -14.1024933966  MEMB      377             0.0000000000
     46809       377  PMPE      HX            -33.9427510218       48.7020738189      -14.4537932677  MEMB      377             0.0000000000
     46810       377  PMPE      HY            -34.1988487289       47.0517446850      -14.3737844928  MEMB      377             0.0000000000
     46811       377  PMPE      O31           -34.9060869154       48.0837767046      -12.6665130898  MEMB      377             0.0000000000
     46812       377  PMPE      C31           -35.4898874545       47.0856828138      -12.1125045855  MEMB      377             0.0000000000
     46813       377  PMPE      O32           -35.7198247746       46.0090620735      -12.6366739993  MEMB      377             0.0000000000
     46814       377  PMPE      C32           -35.9293202502       47.5083775826      -10.7192784495  MEMB      377             0.0000000000
     46815       377  PMPE      H2X           -36.7197366933       48.2685273845      -10.8856813181  MEMB      377             0.0000000000
     46816       377  PMPE      H2Y           -35.1057968032       48.0104076364      -10.1769184171  MEMB      377             0.0000000000
     46817       377  PMPE      C23           -37.2899875281       51.6885017960      -12.0453237346  MEMB      377             0.0000000000
     46818       377  PMPE      H3R           -37.3281284825       52.7869266341      -11.9362234774  MEMB      377             0.0000000000
     46819       377  PMPE      H3S           -36.2932482714       51.3651117480      -11.6672775646  MEMB      377             0.0000000000
     46820       377  PMPE      C24           -38.4130268084       51.2696403194      -11.0940697613  MEMB      377             0.0000000000
     46821       377  PMPE      H4R           -38.4578317414       50.1752760655      -10.9463389123  MEMB      377             0.0000000000
     46822       377  PMPE      H4S           -39.3363651601       51.6327948849      -11.5960249761  MEMB      377             0.0000000000
     46823       377  PMPE      C25           -38.4386408016       51.9457313365       -9.7084562698  MEMB      377             0.0000000000
     46824       377  PMPE      H5R           -39.4465020698       51.7286972964       -9.2697311508  MEMB      377             0.0000000000
     46825       377  PMPE      H5S           -38.3745992226       53.0389868740       -9.8903140829  MEMB      377             0.0000000000
     46826       377  PMPE      C26           -37.3324239911       51.4545257348       -8.7515572679  MEMB      377             0.0000000000
     46827       377  PMPE      H6R           -36.3214403942       51.6357940070       -9.1743712053  MEMB      377             0.0000000000
     46828       377  PMPE      H6S           -37.4360789609       50.3577743585       -8.6298958741  MEMB      377             0.0000000000
     46829       377  PMPE      C27           -37.4405936046       51.9012221740       -7.2885486306  MEMB      377             0.0000000000
     46830       377  PMPE      H7R           -38.5082088228       51.8355702603       -6.9833846989  MEMB      377             0.0000000000
     46831       377  PMPE      H7S           -37.1306594513       52.9562853774       -7.1583338396  MEMB      377             0.0000000000
     46832       377  PMPE      C28           -36.7453629866       50.9195643703       -6.3163621600  MEMB      377             0.0000000000
     46833       377  PMPE      H8R           -37.2644310822       49.9402592600       -6.3731284626  MEMB      377             0.0000000000
     46834       377  PMPE      H8S           -36.8480023995       51.3305843075       -5.2890090234  MEMB      377             0.0000000000
     46835       377  PMPE      C29           -35.2701455844       50.6608286063       -6.5559191134  MEMB      377             0.0000000000
     46836       377  PMPE      H9R           -34.6118079758       51.5043283850       -6.6277483891  MEMB      377             0.0000000000
     46837       377  PMPE      C217          -34.8252231136       49.4673970875       -7.3989403612  MEMB      377             0.0000000000
     46838       377  PMPE      H17R          -33.9703527526       49.7975630480       -7.9642885116  MEMB      377             0.0000000000
     46839       377  PMPE      H17S          -35.7229856914       49.0962547631       -7.8663952644  MEMB      377             0.0000000000
     46840       377  PMPE      C210          -34.6598421673       49.4744653934       -5.8754575234  MEMB      377             0.0000000000
     46841       377  PMPE      H10R          -33.6080911000       49.5547657728       -5.5482155712  MEMB      377             0.0000000000
     46842       377  PMPE      C211          -35.5069006165       48.4023059457       -5.2357690535  MEMB      377             0.0000000000
     46843       377  PMPE      H11R          -34.8412333047       47.5204202998       -5.0869616922  MEMB      377             0.0000000000
     46844       377  PMPE      H11S          -36.2985989903       48.1110076983       -5.9471986129  MEMB      377             0.0000000000
     46845       377  PMPE      C212          -36.2229563872       48.7700407055       -3.9447814629  MEMB      377             0.0000000000
     46846       377  PMPE      H12R          -37.1133804719       48.0891323241       -3.9357001870  MEMB      377             0.0000000000
     46847       377  PMPE      H12S          -36.5128574469       49.8521285067       -3.8588930990  MEMB      377             0.0000000000
     46848       377  PMPE      C213          -35.3208598201       48.2913400196       -2.8265766004  MEMB      377             0.0000000000
     46849       377  PMPE      H13R          -34.4626629581       49.0108717782       -2.7710379035  MEMB      377             0.0000000000
     46850       377  PMPE      H13S          -35.0332329646       47.2492337927       -3.0068133508  MEMB      377             0.0000000000
     46851       377  PMPE      C214          -36.0455893821       48.0966625863       -1.5360241223  MEMB      377             0.0000000000
     46852       377  PMPE      H14R          -37.0925092697       47.8398733842       -1.5379851858  MEMB      377             0.0000000000
     46853       377  PMPE      H14S          -36.2666106575       49.1667032892       -1.6294239999  MEMB      377             0.0000000000
     46854       377  PMPE      C215          -35.2261935297       47.4480904585       -0.3155471953  MEMB      377             0.0000000000
     46855       377  PMPE      H15R          -35.4899881939       46.3999028513       -0.2578091748  MEMB      377             0.0000000000
     46856       377  PMPE      H15S          -35.5279701901       47.8640025337        0.6901259079  MEMB      377             0.0000000000
     46857       377  PMPE      C216          -33.6869047158       47.6776000732       -0.2914388586  MEMB      377             0.0000000000
     46858       377  PMPE      H16R          -33.2171342273       47.3476691362        0.6658213088  MEMB      377             0.0000000000
     46859       377  PMPE      H16S          -33.2307072990       47.1541728150       -1.1301230185  MEMB      377             0.0000000000
     46860       377  PMPE      H16T          -33.4164626117       48.7600153227       -0.3733175959  MEMB      377             0.0000000000
     46861       377  PMPE      C33           -36.5151353174       46.2952808375       -9.9604993758  MEMB      377             0.0000000000
     46862       377  PMPE      H3X           -35.8193958370       45.4375086782      -10.0193875592  MEMB      377             0.0000000000
     46863       377  PMPE      H3Y           -37.3891142279       45.9191772389      -10.5238792548  MEMB      377             0.0000000000
     46864       377  PMPE      C34           -36.9560716054       46.6504657214       -8.5200618717  MEMB      377             0.0000000000
     46865       377  PMPE      H4X           -37.4044136394       47.6647822640       -8.6223339649  MEMB      377             0.0000000000
     46866       377  PMPE      H4Y           -36.0527839141       46.7344221497       -7.8674920647  MEMB      377             0.0000000000
     46867       377  PMPE      C35           -37.9729949164       45.7182031628       -7.7831589163  MEMB      377             0.0000000000
     46868       377  PMPE      H5X           -37.9469795674       45.8900035301       -6.7069979583  MEMB      377             0.0000000000
     46869       377  PMPE      H5Y           -37.8996965408       44.5964537349       -7.7945417482  MEMB      377             0.0000000000
     46870       377  PMPE      C36           -39.2402389876       45.4752968514       -8.4218512057  MEMB      377             0.0000000000
     46871       377  PMPE      H6X           -39.9166342673       44.8955019609       -7.7340250330  MEMB      377             0.0000000000
     46872       377  PMPE      H6Y           -38.9509632376       44.7492463905       -9.2711088648  MEMB      377             0.0000000000
     46873       377  PMPE      C37           -39.9726559659       46.7302251773       -8.9197977204  MEMB      377             0.0000000000
     46874       377  PMPE      H7X           -40.8709454622       46.5456741946       -9.5548061353  MEMB      377             0.0000000000
     46875       377  PMPE      H7Y           -39.2693777857       47.2738775084       -9.5733945558  MEMB      377             0.0000000000
     46876       377  PMPE      C38           -40.4785534400       47.5487570564       -7.7448456669  MEMB      377             0.0000000000
     46877       377  PMPE      H8X           -39.6445568353       47.6573467441       -7.0378890933  MEMB      377             0.0000000000
     46878       377  PMPE      H8Y           -41.2632741403       46.9825774669       -7.1973548625  MEMB      377             0.0000000000
     46879       377  PMPE      C39           -40.9113172521       48.9658518999       -8.1468182615  MEMB      377             0.0000000000
     46880       377  PMPE      H9X           -41.6681436105       48.9999363880       -8.9642609796  MEMB      377             0.0000000000
     46881       377  PMPE      H9Y           -40.0651078080       49.4759692768       -8.5380393310  MEMB      377             0.0000000000
     46882       377  PMPE      C310          -41.3772239528       49.9039325869       -7.0330544250  MEMB      377             0.0000000000
     46883       377  PMPE      H10X          -42.2408203465       49.5100807889       -6.9777991395  MEMB      377             0.0000000000
     46884       377  PMPE      H10Y          -41.7415368737       50.8841696050       -7.3254998094  MEMB      377             0.0000000000
     46885       377  PMPE      C311          -40.6936678048       50.0138681088       -5.7006053181  MEMB      377             0.0000000000
     46886       377  PMPE      H11X          -40.0055412469       50.7825760148       -6.0867131335  MEMB      377             0.0000000000
     46887       377  PMPE      H11Y          -40.1487717919       49.1040125256       -5.4035936224  MEMB      377             0.0000000000
     46888       377  PMPE      C312          -41.4726880107       50.5181856074       -4.4639315550  MEMB      377             0.0000000000
     46889       377  PMPE      H12X          -42.2272726512       49.7624491282       -4.1812256668  MEMB      377             0.0000000000
     46890       377  PMPE      H12Y          -42.0749250718       51.4304245405       -4.6547982360  MEMB      377             0.0000000000
     46891       377  PMPE      C313          -40.5451180823       50.6841841564       -3.2402563003  MEMB      377             0.0000000000
     46892       377  PMPE      H13X          -40.1542755267       49.6995656897       -2.9301523032  MEMB      377             0.0000000000
     46893       377  PMPE      H13Y          -41.1280158921       51.1420170680       -2.4071638034  MEMB      377             0.0000000000
     46894       377  PMPE      C314          -39.3508746447       51.5854357099       -3.4891040241  MEMB      377             0.0000000000
     46895       377  PMPE      H14X          -39.8725689315       52.2851451113       -4.1124637560  MEMB      377             0.0000000000
     46896       377  PMPE      H14Y          -38.5981282079       51.2346923289       -4.1985053048  MEMB      377             0.0000000000
     46897       377  PMPE      C315          -38.7290718123       52.0922864202       -2.1817684432  MEMB      377             0.0000000000
     46898       377  PMPE      H15X          -38.0992181055       51.2724709688       -1.7932229762  MEMB      377             0.0000000000
     46899       377  PMPE      H15Y          -39.5563338051       52.3305391547       -1.4682271234  MEMB      377             0.0000000000
     46900       377  PMPE      C316          -37.8444441720       53.3144471487       -2.2316305774  MEMB      377             0.0000000000
     46901       377  PMPE      H16X          -38.4345747438       54.0672644168       -2.5707267689  MEMB      377             0.0000000000
     46902       377  PMPE      H16Y          -36.9720460464       53.2985088670       -2.9054678448  MEMB      377             0.0000000000
     46903       377  PMPE      H16Z          -37.7492427208       53.8397195758       -1.2750151950  MEMB      377             0.0000000000
     46904       378  PMPE      N              28.5546186857       53.6789665472      -21.5581375833  MEMB      378             0.0000000000
     46905       378  PMPE      HN1            29.3686530163       53.8597364141      -22.1796157244  MEMB      378             0.0000000000
     46906       378  PMPE      HN2            27.8668482744       53.0747868712      -22.0535319709  MEMB      378             0.0000000000
     46907       378  PMPE      HN3            28.1140437841       54.5835444279      -21.2725075405  MEMB      378             0.0000000000
     46908       378  PMPE      C12            28.9786803000       52.8868419380      -20.3467630935  MEMB      378             0.0000000000
     46909       378  PMPE      H12A           29.2138273949       51.8826261367      -20.7422890154  MEMB      378             0.0000000000
     46910       378  PMPE      H12B           28.1039187040       52.8120759204      -19.6679360801  MEMB      378             0.0000000000
     46911       378  PMPE      C11            30.1930598547       53.4689398606      -19.5970439667  MEMB      378             0.0000000000
     46912       378  PMPE      H11A           31.0544525459       53.4743516805      -20.2976725649  MEMB      378             0.0000000000
     46913       378  PMPE      H11B           30.5271379134       52.8041215903      -18.7634023606  MEMB      378             0.0000000000
     46914       378  PMPE      P              28.7438665139       55.0834943782      -18.0750664180  MEMB      378             0.0000000000
     46915       378  PMPE      O13            27.5156044598       55.2574418595      -18.8649127671  MEMB      378             0.0000000000
     46916       378  PMPE      O14            29.1978657042       56.1472787647      -17.1533212950  MEMB      378             0.0000000000
     46917       378  PMPE      O11            28.6885132224       53.7075216755      -17.3396711818  MEMB      378             0.0000000000
     46918       378  PMPE      O12            29.9275303016       54.7930432473      -19.1270982192  MEMB      378             0.0000000000
     46919       378  PMPE      C1             29.7573242757       53.6806521222      -16.3995044083  MEMB      378             0.0000000000
     46920       378  PMPE      HA             29.6328489318       54.2208957302      -15.4550587490  MEMB      378             0.0000000000
     46921       378  PMPE      HB             30.7852512009       53.7629507338      -16.8402019788  MEMB      378             0.0000000000
     46922       378  PMPE      C2             29.8296597594       52.3877469153      -16.0133926905  MEMB      378             0.0000000000
     46923       378  PMPE      HS             30.2756705330       51.8628315213      -16.7584527877  MEMB      378             0.0000000000
     46924       378  PMPE      O21            28.3769193708       51.9871025354      -15.4873057427  MEMB      378             0.0000000000
     46925       378  PMPE      C21            27.7694939509       50.7624009488      -15.3643997532  MEMB      378             0.0000000000
     46926       378  PMPE      O22            28.1646088417       49.6666874413      -15.6165172292  MEMB      378             0.0000000000
     46927       378  PMPE      C22            26.6921902114       50.5914092370      -14.5222276062  MEMB      378             0.0000000000
     46928       378  PMPE      H2R            25.9573895988       49.9993350095      -15.0003125006  MEMB      378             0.0000000000
     46929       378  PMPE      H2S            26.3914361663       51.1856926380      -13.7985939971  MEMB      378             0.0000000000
     46930       378  PMPE      C3             31.2869407160       52.3886741397      -15.0128323712  MEMB      378             0.0000000000
     46931       378  PMPE      HX             32.1040214961       52.4835400774      -15.5955805907  MEMB      378             0.0000000000
     46932       378  PMPE      HY             31.9247297311       51.3415860263      -14.8673345623  MEMB      378             0.0000000000
     46933       378  PMPE      O31            30.9839226731       53.0063556351      -13.6697705590  MEMB      378             0.0000000000
     46934       378  PMPE      C31            31.8681744040       52.7998702010      -13.0837106058  MEMB      378             0.0000000000
     46935       378  PMPE      O32            32.9553371608       52.5842772015      -13.6150399569  MEMB      378             0.0000000000
     46936       378  PMPE      C32            31.5699098577       52.6099327085      -11.5022584826  MEMB      378             0.0000000000
     46937       378  PMPE      H2X            30.6478367634       52.4122673453      -11.0289358477  MEMB      378             0.0000000000
     46938       378  PMPE      H2Y            31.1722624957       53.5588612633      -11.3216689442  MEMB      378             0.0000000000
     46939       378  PMPE      C23            26.9534457014       49.7817222173      -13.4444694024  MEMB      378             0.0000000000
     46940       378  PMPE      H3R            27.2468640328       48.9387092028      -14.0567703409  MEMB      378             0.0000000000
     46941       378  PMPE      H3S            26.0399092833       49.5637058281      -12.9205692592  MEMB      378             0.0000000000
     46942       378  PMPE      C24            27.6943810392       50.1110301395      -12.1888331108  MEMB      378             0.0000000000
     46943       378  PMPE      H4R            28.6419630865       50.4169650589      -12.3804559036  MEMB      378             0.0000000000
     46944       378  PMPE      H4S            27.7909750415       49.2429637764      -11.4764242625  MEMB      378             0.0000000000
     46945       378  PMPE      C25            27.1595510204       51.3802737662      -11.6516411113  MEMB      378             0.0000000000
     46946       378  PMPE      H5R            26.3707508643       50.7402535359      -11.6003198872  MEMB      378             0.0000000000
     46947       378  PMPE      H5S            26.3064499444       51.9480448133      -11.9819546851  MEMB      378             0.0000000000
     46948       378  PMPE      C26            27.7432776518       52.0219241083      -10.3934907288  MEMB      378             0.0000000000
     46949       378  PMPE      H6R            28.6027943369       52.4444392826      -10.7975398893  MEMB      378             0.0000000000
     46950       378  PMPE      H6S            28.1320813371       51.2596293936       -9.7772655235  MEMB      378             0.0000000000
     46951       378  PMPE      C27            26.7857175179       52.9843395267       -9.5692682896  MEMB      378             0.0000000000
     46952       378  PMPE      H7R            26.0392984999       52.5134398801       -8.8670996176  MEMB      378             0.0000000000
     46953       378  PMPE      H7S            26.0312909759       53.3888540579      -10.2457165273  MEMB      378             0.0000000000
     46954       378  PMPE      C28            27.3767564347       53.7687535789       -8.4940145264  MEMB      378             0.0000000000
     46955       378  PMPE      H8R            28.2626285555       53.1844741515       -8.1695979984  MEMB      378             0.0000000000
     46956       378  PMPE      H8S            26.5973318610       53.7691589844       -7.6754161821  MEMB      378             0.0000000000
     46957       378  PMPE      C29            27.5963619971       55.1376300808       -9.0937242131  MEMB      378             0.0000000000
     46958       378  PMPE      H9R            26.7170869988       55.7535568802       -9.3010369841  MEMB      378             0.0000000000
     46959       378  PMPE      C217           28.9443137941       55.4496632962       -9.7477953738  MEMB      378             0.0000000000
     46960       378  PMPE      H17R           28.8610776702       56.2024817446      -10.5204642415  MEMB      378             0.0000000000
     46961       378  PMPE      H17S           29.6152878773       54.6015619254       -9.8121098765  MEMB      378             0.0000000000
     46962       378  PMPE      C210           28.5332788902       55.9951080403       -8.3640929137  MEMB      378             0.0000000000
     46963       378  PMPE      H10R           28.4831157592       57.0893250259       -8.3278747613  MEMB      378             0.0000000000
     46964       378  PMPE      C211           29.0803116662       55.4129065011       -7.1349789184  MEMB      378             0.0000000000
     46965       378  PMPE      H11R           29.6575052940       56.3012635671       -6.7098102294  MEMB      378             0.0000000000
     46966       378  PMPE      H11S           29.6671125194       54.5308644316       -7.5042524585  MEMB      378             0.0000000000
     46967       378  PMPE      C212           28.3399417660       55.0836221703       -5.9321638632  MEMB      378             0.0000000000
     46968       378  PMPE      H12R           28.1736086085       54.0037374432       -6.0068741870  MEMB      378             0.0000000000
     46969       378  PMPE      H12S           27.4256215009       55.6572599376       -6.1002013133  MEMB      378             0.0000000000
     46970       378  PMPE      C213           29.0683078238       55.3109832371       -4.5822204091  MEMB      378             0.0000000000
     46971       378  PMPE      H13R           29.8654252342       54.5633357092       -4.4101745686  MEMB      378             0.0000000000
     46972       378  PMPE      H13S           28.3154032815       55.0671404103       -3.8160879243  MEMB      378             0.0000000000
     46973       378  PMPE      C214           29.6744139119       56.7023846538       -4.3854019082  MEMB      378             0.0000000000
     46974       378  PMPE      H14R           28.8776195661       57.4320336855       -4.6668861265  MEMB      378             0.0000000000
     46975       378  PMPE      H14S           30.6195739323       56.9188342207       -4.8913713239  MEMB      378             0.0000000000
     46976       378  PMPE      C215           30.2221051539       57.0639466292       -3.0635859629  MEMB      378             0.0000000000
     46977       378  PMPE      H15R           29.4512661971       57.3460708769       -2.6534625741  MEMB      378             0.0000000000
     46978       378  PMPE      H15S           30.2195364881       58.0846475316       -2.7717009555  MEMB      378             0.0000000000
     46979       378  PMPE      C216           31.0313506651       56.1803830312       -2.2419366142  MEMB      378             0.0000000000
     46980       378  PMPE      H16R           31.4650894158       56.7341649319       -1.4637676145  MEMB      378             0.0000000000
     46981       378  PMPE      H16S           30.6189436303       55.2330918372       -1.8594558126  MEMB      378             0.0000000000
     46982       378  PMPE      H16T           31.8495692915       56.1222773559       -2.9147668876  MEMB      378             0.0000000000
     46983       378  PMPE      C33            32.7469313659       52.0808462453      -10.6236968020  MEMB      378             0.0000000000
     46984       378  PMPE      H3X            33.8361935602       51.7893984234      -10.7136248439  MEMB      378             0.0000000000
     46985       378  PMPE      H3Y            32.4684091839       51.4816721980      -11.2191960074  MEMB      378             0.0000000000
     46986       378  PMPE      C34            32.3635055374       52.3945648585       -9.2872453838  MEMB      378             0.0000000000
     46987       378  PMPE      H4X            32.9080539746       53.0085170424       -8.9139563748  MEMB      378             0.0000000000
     46988       378  PMPE      H4Y            33.4137806948       52.2188586667       -8.7111121834  MEMB      378             0.0000000000
     46989       378  PMPE      C35            30.8628326707       52.2599125009       -8.3692397668  MEMB      378             0.0000000000
     46990       378  PMPE      H5X            30.1937322706       52.4863455346       -9.0990311572  MEMB      378             0.0000000000
     46991       378  PMPE      H5Y            30.6518988014       52.9081258375       -7.6395011058  MEMB      378             0.0000000000
     46992       378  PMPE      C36            30.5674007882       50.1558297323       -7.1645407097  MEMB      378             0.0000000000
     46993       378  PMPE      H6X            31.6715575396       49.4797820018       -6.6207235269  MEMB      378             0.0000000000
     46994       378  PMPE      H6Y            30.5747709380       49.2980267141       -8.0928036702  MEMB      378             0.0000000000
     46995       378  PMPE      C37            29.6841133719       50.5998228802       -6.6899057949  MEMB      378             0.0000000000
     46996       378  PMPE      H7X            29.8707303395       49.4668396862       -6.5074751776  MEMB      378             0.0000000000
     46997       378  PMPE      H7Y            28.9675748867       51.0762145514       -7.4398577636  MEMB      378             0.0000000000
     46998       378  PMPE      C38            29.8173109213       51.2178978678       -5.4306109601  MEMB      378             0.0000000000
     46999       378  PMPE      H8X            29.9103846967       52.2778827147       -5.6207925720  MEMB      378             0.0000000000
     47000       378  PMPE      H8Y            30.7253043241       50.7235300570       -4.9984951254  MEMB      378             0.0000000000
     47001       378  PMPE      C39            28.7438723824       51.0548576167       -4.5511854030  MEMB      378             0.0000000000
     47002       378  PMPE      H9X            29.1300083698       50.0105371834       -4.4252790845  MEMB      378             0.0000000000
     47003       378  PMPE      H9Y            27.6753212692       51.1301446531       -4.8737690404  MEMB      378             0.0000000000
     47004       378  PMPE      C310           28.7661359928       51.7228990478       -3.2121847664  MEMB      378             0.0000000000
     47005       378  PMPE      H10X           28.5580599282       52.7525307576       -3.4449905937  MEMB      378             0.0000000000
     47006       378  PMPE      H10Y           29.7839728055       51.6386845946       -2.8318130753  MEMB      378             0.0000000000
     47007       378  PMPE      C311           27.7748847023       51.3399886585       -2.1046633583  MEMB      378             0.0000000000
     47008       378  PMPE      H11X           28.2287949205       50.3651302971       -1.8842792825  MEMB      378             0.0000000000
     47009       378  PMPE      H11Y           26.7128135441       51.3206345696       -2.4374567066  MEMB      378             0.0000000000
     47010       378  PMPE      C312           27.8478477395       52.1671452014       -0.8128318973  MEMB      378             0.0000000000
     47011       378  PMPE      H12X           28.9118398970       52.4320143623       -0.6425317896  MEMB      378             0.0000000000
     47012       378  PMPE      H12Y           27.5159489569       51.5241708688        0.0351419301  MEMB      378             0.0000000000
     47013       378  PMPE      C313           26.9279952633       53.4008114308       -0.7315041745  MEMB      378             0.0000000000
     47014       378  PMPE      H13X           25.8619485397       53.0733038598       -0.7106682373  MEMB      378             0.0000000000
     47015       378  PMPE      H13Y           27.1044090320       54.0400864203       -1.6179767408  MEMB      378             0.0000000000
     47016       378  PMPE      C314           27.1380379266       54.1786881580        0.5707183889  MEMB      378             0.0000000000
     47017       378  PMPE      H14X           28.1067608583       54.7261923511        0.5739971088  MEMB      378             0.0000000000
     47018       378  PMPE      H14Y           27.0719724064       53.4301781871        1.3963937784  MEMB      378             0.0000000000
     47019       378  PMPE      C315           26.2015378766       55.3378176393        0.8480363150  MEMB      378             0.0000000000
     47020       378  PMPE      H15X           25.1513387886       55.0087287196        0.8289326705  MEMB      378             0.0000000000
     47021       378  PMPE      H15Y           26.3983324663       56.1161870733        0.0882947965  MEMB      378             0.0000000000
     47022       378  PMPE      C316           26.5652126562       55.9569084442        2.1511462934  MEMB      378             0.0000000000
     47023       378  PMPE      H16X           27.5301379396       56.5156275225        1.9847591110  MEMB      378             0.0000000000
     47024       378  PMPE      H16Y           26.7120560302       55.1900600289        2.9422859729  MEMB      378             0.0000000000
     47025       378  PMPE      H16Z           25.8428332194       56.6739349831        2.5615777523  MEMB      378             0.0000000000
     47026       379  PMPE      N             -35.6979185871      -47.0999856905      -20.0552404283  MEMB      379             0.0000000000
     47027       379  PMPE      HN1           -35.3055148741      -47.6604800320      -19.2694611462  MEMB      379             0.0000000000
     47028       379  PMPE      HN2           -35.0848225606      -47.2376169313      -20.8832450588  MEMB      379             0.0000000000
     47029       379  PMPE      HN3           -35.7001845396      -46.0819935581      -19.8437442861  MEMB      379             0.0000000000
     47030       379  PMPE      C12           -37.1312011845      -47.5171574480      -20.3789024039  MEMB      379             0.0000000000
     47031       379  PMPE      H12A          -37.3196680508      -47.0804565683      -21.3762052676  MEMB      379             0.0000000000
     47032       379  PMPE      H12B          -37.8219385282      -47.0295718523      -19.6664155320  MEMB      379             0.0000000000
     47033       379  PMPE      C11           -37.4053497343      -49.0404725042      -20.3987534483  MEMB      379             0.0000000000
     47034       379  PMPE      H11A          -36.6267430546      -49.5366472592      -20.9783430541  MEMB      379             0.0000000000
     47035       379  PMPE      H11B          -38.3163819219      -49.2766035436      -21.0020200907  MEMB      379             0.0000000000
     47036       379  PMPE      P             -38.8244894440      -49.6852047543      -18.2333462214  MEMB      379             0.0000000000
     47037       379  PMPE      O13           -38.7813798941      -50.8025240397      -17.2757817556  MEMB      379             0.0000000000
     47038       379  PMPE      O14           -39.9505076062      -49.5198541959      -19.1609412653  MEMB      379             0.0000000000
     47039       379  PMPE      O11           -38.7125819451      -48.3161637886      -17.4085414641  MEMB      379             0.0000000000
     47040       379  PMPE      O12           -37.4437571562      -49.6133606222      -19.0847706017  MEMB      379             0.0000000000
     47041       379  PMPE      C1            -37.6059254236      -48.0295641640      -16.5570851136  MEMB      379             0.0000000000
     47042       379  PMPE      HA            -36.9001581056      -47.3659313885      -17.1006304541  MEMB      379             0.0000000000
     47043       379  PMPE      HB            -37.0778778677      -48.9681070051      -16.2831228672  MEMB      379             0.0000000000
     47044       379  PMPE      C2            -38.0095360769      -47.4244876957      -15.1760915127  MEMB      379             0.0000000000
     47045       379  PMPE      HS            -37.1454828896      -47.3926475236      -14.4796074944  MEMB      379             0.0000000000
     47046       379  PMPE      O21           -39.0951277863      -48.1081520847      -14.5591569593  MEMB      379             0.0000000000
     47047       379  PMPE      C21           -38.9683254508      -49.4014396744      -14.3187001922  MEMB      379             0.0000000000
     47048       379  PMPE      O22           -37.9546996387      -50.0726443240      -14.3251567419  MEMB      379             0.0000000000
     47049       379  PMPE      C22           -40.3664275058      -49.8372699889      -13.8964822841  MEMB      379             0.0000000000
     47050       379  PMPE      H2R           -41.0199419851      -49.6702824898      -14.7862344302  MEMB      379             0.0000000000
     47051       379  PMPE      H2S           -40.6632898810      -49.2022073153      -13.0514487328  MEMB      379             0.0000000000
     47052       379  PMPE      C3            -38.3624713470      -45.9647135935      -15.2966239312  MEMB      379             0.0000000000
     47053       379  PMPE      HX            -38.8704595069      -45.5312505230      -16.1636661121  MEMB      379             0.0000000000
     47054       379  PMPE      HY            -37.5162102957      -45.4864508161      -15.3405371854  MEMB      379             0.0000000000
     47055       379  PMPE      O31           -38.9070917571      -45.4063112634      -14.1927284907  MEMB      379             0.0000000000
     47056       379  PMPE      C31           -38.5146122526      -45.0570586795      -12.9901431369  MEMB      379             0.0000000000
     47057       379  PMPE      O32           -37.4533749932      -44.9767798259      -12.5883795022  MEMB      379             0.0000000000
     47058       379  PMPE      C32           -39.3192093259      -44.6172872595      -11.8273750115  MEMB      379             0.0000000000
     47059       379  PMPE      H2X           -40.0362717869      -45.2846988013      -11.7132609728  MEMB      379             0.0000000000
     47060       379  PMPE      H2Y           -39.9570894147      -43.7642158430      -11.9446624819  MEMB      379             0.0000000000
     47061       379  PMPE      C23           -40.4542216527      -51.2771149863      -13.3946533906  MEMB      379             0.0000000000
     47062       379  PMPE      H3R           -39.8654595118      -51.9354186370      -14.0790189314  MEMB      379             0.0000000000
     47063       379  PMPE      H3S           -41.5277968215      -51.5641357866      -13.4127600226  MEMB      379             0.0000000000
     47064       379  PMPE      C24           -39.9284793294      -51.4121850937      -11.9610774150  MEMB      379             0.0000000000
     47065       379  PMPE      H4R           -38.9526372435      -50.8751753376      -11.9245733538  MEMB      379             0.0000000000
     47066       379  PMPE      H4S           -39.6888549593      -52.4859946418      -11.8230457922  MEMB      379             0.0000000000
     47067       379  PMPE      C25           -40.9443713149      -51.0100343469      -10.8713359974  MEMB      379             0.0000000000
     47068       379  PMPE      H5R           -41.8376012044      -51.6744439650      -10.9591872865  MEMB      379             0.0000000000
     47069       379  PMPE      H5S           -41.2965453500      -50.0021002919      -11.0945305058  MEMB      379             0.0000000000
     47070       379  PMPE      C26           -40.3492663234      -51.2118334448       -9.4715262955  MEMB      379             0.0000000000
     47071       379  PMPE      H6R           -39.5773627016      -51.9759567361       -9.5675479831  MEMB      379             0.0000000000
     47072       379  PMPE      H6S           -41.1147839598      -51.5847712836       -8.7844960457  MEMB      379             0.0000000000
     47073       379  PMPE      C27           -39.6924819658      -50.0387905232       -8.8121915401  MEMB      379             0.0000000000
     47074       379  PMPE      H7R           -40.5328544089      -49.5110970985       -8.8286185398  MEMB      379             0.0000000000
     47075       379  PMPE      H7S           -38.9513874009      -49.4790745879       -9.3804699842  MEMB      379             0.0000000000
     47076       379  PMPE      C28           -39.4792622823      -50.1328102645       -7.3321121804  MEMB      379             0.0000000000
     47077       379  PMPE      H8R           -39.1415468579      -51.1122289627       -7.1175913933  MEMB      379             0.0000000000
     47078       379  PMPE      H8S           -40.4541571205      -49.8314653847       -6.8437575530  MEMB      379             0.0000000000
     47079       379  PMPE      C29           -38.3331726536      -49.3267041187       -6.8815772351  MEMB      379             0.0000000000
     47080       379  PMPE      H9R           -38.3235761399      -48.4660023616       -7.3651023410  MEMB      379             0.0000000000
     47081       379  PMPE      C217          -36.8937251118      -49.4269200475       -6.9320261016  MEMB      379             0.0000000000
     47082       379  PMPE      H17R          -36.3935765669      -48.4583137792       -7.0582678990  MEMB      379             0.0000000000
     47083       379  PMPE      H17S          -36.7197497175      -50.3976084474       -7.2517978217  MEMB      379             0.0000000000
     47084       379  PMPE      C210          -37.5196627625      -49.4287284226       -5.5676028074  MEMB      379             0.0000000000
     47085       379  PMPE      H10R          -37.1122005820      -48.5485561523       -4.9621881157  MEMB      379             0.0000000000
     47086       379  PMPE      C211          -37.5304376993      -50.6986106890       -4.9129031977  MEMB      379             0.0000000000
     47087       379  PMPE      H11R          -36.6882849247      -50.7657316034       -4.2192628742  MEMB      379             0.0000000000
     47088       379  PMPE      H11S          -37.5412996241      -51.4427198844       -5.6861683001  MEMB      379             0.0000000000
     47089       379  PMPE      C212          -38.6980925984      -50.9096309685       -4.1128610930  MEMB      379             0.0000000000
     47090       379  PMPE      H12R          -39.6540393602      -50.6259988626       -4.6661313869  MEMB      379             0.0000000000
     47091       379  PMPE      H12S          -38.4295082109      -50.0613728589       -3.4692772485  MEMB      379             0.0000000000
     47092       379  PMPE      C213          -38.6214126461      -52.2992020334       -3.3163418225  MEMB      379             0.0000000000
     47093       379  PMPE      H13R          -37.6903669567      -52.3902008084       -2.8112420163  MEMB      379             0.0000000000
     47094       379  PMPE      H13S          -38.9627586961      -52.9838590720       -4.1166600153  MEMB      379             0.0000000000
     47095       379  PMPE      C214          -39.3686820008      -52.8228300445       -1.9461794511  MEMB      379             0.0000000000
     47096       379  PMPE      H14R          -39.7721811894      -52.1581986306       -2.3906411541  MEMB      379             0.0000000000
     47097       379  PMPE      H14S          -39.5402631521      -52.1434362131       -1.1008226825  MEMB      379             0.0000000000
     47098       379  PMPE      C215          -40.5433774779      -53.9197943140       -1.8411892057  MEMB      379             0.0000000000
     47099       379  PMPE      H15R          -40.6643876196      -54.4632192725       -2.7422665401  MEMB      379             0.0000000000
     47100       379  PMPE      H15S          -41.6541924776      -53.6970847656       -1.5243995243  MEMB      379             0.0000000000
     47101       379  PMPE      C216          -40.2652813401      -54.8303726003       -0.8644068312  MEMB      379             0.0000000000
     47102       379  PMPE      H16R          -41.1264722920      -55.4555245595       -0.6631875544  MEMB      379             0.0000000000
     47103       379  PMPE      H16S          -39.3043666300      -55.2642894491       -1.1732409700  MEMB      379             0.0000000000
     47104       379  PMPE      H16T          -40.2375808365      -54.2026592219       -0.0114686314  MEMB      379             0.0000000000
     47105       379  PMPE      C33           -38.7282881536      -44.9569367975      -10.5601661492  MEMB      379             0.0000000000
     47106       379  PMPE      H3X           -38.0169843644      -44.2284923820      -10.3285919319  MEMB      379             0.0000000000
     47107       379  PMPE      H3Y           -38.3665212007      -45.9736332369      -10.4835122160  MEMB      379             0.0000000000
     47108       379  PMPE      C34           -39.6759550197      -44.7099683519       -9.5242888018  MEMB      379             0.0000000000
     47109       379  PMPE      H4X           -40.0784788547      -43.8724227841       -9.8732065531  MEMB      379             0.0000000000
     47110       379  PMPE      H4Y           -39.0471406859      -44.7539296903       -8.5971801600  MEMB      379             0.0000000000
     47111       379  PMPE      C35           -41.0094911158      -45.1780701831       -9.3038152900  MEMB      379             0.0000000000
     47112       379  PMPE      H5X           -40.4321150523      -45.9425579162       -9.7153637528  MEMB      379             0.0000000000
     47113       379  PMPE      H5Y           -41.7213462659      -44.8911625427       -9.9925754803  MEMB      379             0.0000000000
     47114       379  PMPE      C36           -41.9875864448      -45.2119668178       -8.0739948694  MEMB      379             0.0000000000
     47115       379  PMPE      H6X           -42.9434101871      -45.6738362205       -8.4147901588  MEMB      379             0.0000000000
     47116       379  PMPE      H6Y           -42.2613293084      -44.3063298014       -7.9373070148  MEMB      379             0.0000000000
     47117       379  PMPE      C37           -41.6929209770      -45.9406251394       -6.7579869274  MEMB      379             0.0000000000
     47118       379  PMPE      H7X           -41.0093068423      -45.2105135957       -6.7397801207  MEMB      379             0.0000000000
     47119       379  PMPE      H7Y           -41.2460741596      -46.9423683026       -6.5860165125  MEMB      379             0.0000000000
     47120       379  PMPE      C38           -42.6518635018      -46.0954245003       -5.8587725930  MEMB      379             0.0000000000
     47121       379  PMPE      H8X           -43.0752129124      -47.0415668033       -6.1468375824  MEMB      379             0.0000000000
     47122       379  PMPE      H8Y           -43.0791993502      -45.1092739674       -5.8668321084  MEMB      379             0.0000000000
     47123       379  PMPE      C39           -42.3462401069      -46.4308188153       -4.5403806437  MEMB      379             0.0000000000
     47124       379  PMPE      H9X           -43.0013965372      -46.4147485562       -3.7605920581  MEMB      379             0.0000000000
     47125       379  PMPE      H9Y           -42.0864845119      -45.2921446266       -4.2628454177  MEMB      379             0.0000000000
     47126       379  PMPE      C310          -41.4404835119      -47.8285021921       -3.9931946903  MEMB      379             0.0000000000
     47127       379  PMPE      H10X          -41.0565517878      -47.5382824500       -4.8497902755  MEMB      379             0.0000000000
     47128       379  PMPE      H10Y          -41.2977430348      -48.8114516516       -4.3732988662  MEMB      379             0.0000000000
     47129       379  PMPE      C311          -40.3614121847      -47.8151056698       -2.5432333559  MEMB      379             0.0000000000
     47130       379  PMPE      H11X          -39.6398321757      -47.1195148606       -2.1369156573  MEMB      379             0.0000000000
     47131       379  PMPE      H11Y          -39.2142373559      -48.0565495686       -2.4408476066  MEMB      379             0.0000000000
     47132       379  PMPE      C312          -41.2249275008      -47.8611172510       -1.6797748335  MEMB      379             0.0000000000
     47133       379  PMPE      H12X          -41.7463381464      -48.5647193806       -2.2093063488  MEMB      379             0.0000000000
     47134       379  PMPE      H12Y          -42.2269661075      -48.0161586910       -1.6737099725  MEMB      379             0.0000000000
     47135       379  PMPE      C313          -40.5386300148      -48.1830440890       -0.6501005955  MEMB      379             0.0000000000
     47136       379  PMPE      H13X          -41.3991720629      -48.6026520082       -0.0300941765  MEMB      379             0.0000000000
     47137       379  PMPE      H13Y          -40.9544340869      -47.2173750320       -0.3420608173  MEMB      379             0.0000000000
     47138       379  PMPE      C314          -38.8362339999      -48.8696615079       -0.4048387400  MEMB      379             0.0000000000
     47139       379  PMPE      H14X          -38.4562749913      -49.3135316152       -1.2091797021  MEMB      379             0.0000000000
     47140       379  PMPE      H14Y          -38.8902591609      -50.0967383176       -0.0673049603  MEMB      379             0.0000000000
     47141       379  PMPE      C315          -37.7586068376      -48.2612147226        0.7525288946  MEMB      379             0.0000000000
     47142       379  PMPE      H15X          -37.1051908480      -49.0560829360        1.0269491904  MEMB      379             0.0000000000
     47143       379  PMPE      H15Y          -37.9823782741      -48.1772831041        1.9039105261  MEMB      379             0.0000000000
     47144       379  PMPE      C316          -37.3779627328      -47.0263462952        0.1910913189  MEMB      379             0.0000000000
     47145       379  PMPE      H16X          -37.3806875431      -47.3055816913       -0.8770515412  MEMB      379             0.0000000000
     47146       379  PMPE      H16Y          -36.4543822522      -46.6918908926        0.6200531118  MEMB      379             0.0000000000
     47147       379  PMPE      H16Z          -38.1139343747      -46.2070557836        0.3318349457  MEMB      379             0.0000000000
     47148       380  POPE      N              43.3603714931       44.7820367312      -18.5438382542  MEMB      380             0.0000000000
     47149       380  POPE      HN1            42.7637434196       44.6222195608      -19.3861014457  MEMB      380             0.0000000000
     47150       380  POPE      HN2            44.1756079195       44.1419207838      -18.4722986541  MEMB      380             0.0000000000
     47151       380  POPE      HN3            42.6992804144       44.6784307135      -17.7583506026  MEMB      380             0.0000000000
     47152       380  POPE      C12            43.8397692248       46.2002178854      -18.6072723635  MEMB      380             0.0000000000
     47153       380  POPE      H12A           44.2517464187       46.3145837119      -19.5963816594  MEMB      380             0.0000000000
     47154       380  POPE      H12B           44.6842265460       46.3238330565      -17.9140699420  MEMB      380             0.0000000000
     47155       380  POPE      C11            42.7186856785       47.1908975618      -18.2647772666  MEMB      380             0.0000000000
     47156       380  POPE      H11A           42.9112912460       48.1902419777      -18.7240019525  MEMB      380             0.0000000000
     47157       380  POPE      H11B           42.7549255750       47.3935730306      -17.1786579812  MEMB      380             0.0000000000
     47158       380  POPE      P              40.4233294597       47.6375132123      -19.3976290332  MEMB      380             0.0000000000
     47159       380  POPE      O13            39.1733830874       46.8848077630      -19.5875277312  MEMB      380             0.0000000000
     47160       380  POPE      O14            41.0975825055       48.1627731790      -20.6086077622  MEMB      380             0.0000000000
     47161       380  POPE      O11            40.2028199176       48.7906462914      -18.3275071821  MEMB      380             0.0000000000
     47162       380  POPE      O12            41.4271852027       46.6641911730      -18.5895480104  MEMB      380             0.0000000000
     47163       380  POPE      C1             39.3294759784       48.5855342505      -17.1908021183  MEMB      380             0.0000000000
     47164       380  POPE      HA             38.9482850133       47.5470693521      -17.0652454724  MEMB      380             0.0000000000
     47165       380  POPE      HB             38.4672291093       49.2770607062      -17.2834013469  MEMB      380             0.0000000000
     47166       380  POPE      C2             39.9309302684       48.8839081219      -15.7908120451  MEMB      380             0.0000000000
     47167       380  POPE      HS             40.1145229824       49.9768131479      -15.8298518376  MEMB      380             0.0000000000
     47168       380  POPE      O21            41.1263140517       48.1289125201      -15.5949439631  MEMB      380             0.0000000000
     47169       380  POPE      C21            41.8960690341       48.5801722987      -14.6618772234  MEMB      380             0.0000000000
     47170       380  POPE      O22            41.8710164212       49.6599219088      -14.1029887735  MEMB      380             0.0000000000
     47171       380  POPE      C22            42.7955574272       47.4760158513      -14.3458180271  MEMB      380             0.0000000000
     47172       380  POPE      H2R            43.5780576262       47.6584313090      -15.0851017858  MEMB      380             0.0000000000
     47173       380  POPE      H2S            42.7619316336       46.4847323284      -14.7289933280  MEMB      380             0.0000000000
     47174       380  POPE      C3             38.9158908153       48.5271922513      -14.6557487622  MEMB      380             0.0000000000
     47175       380  POPE      HX             37.9239706521       48.9205192377      -14.9619303242  MEMB      380             0.0000000000
     47176       380  POPE      HY             39.1642449131       48.9936360126      -13.6820997213  MEMB      380             0.0000000000
     47177       380  POPE      O31            38.8049715957       47.1058651317      -14.5323508460  MEMB      380             0.0000000000
     47178       380  POPE      C31            39.5157537071       46.5170685598      -13.5939631018  MEMB      380             0.0000000000
     47179       380  POPE      O32            40.0261485983       47.0128724499      -12.6074612353  MEMB      380             0.0000000000
     47180       380  POPE      C32            39.6838804065       45.0754706706      -13.9778382556  MEMB      380             0.0000000000
     47181       380  POPE      H2X            39.5551066883       44.8334444824      -15.0269924999  MEMB      380             0.0000000000
     47182       380  POPE      H2Y            38.8236400892       44.5953910650      -13.6714154552  MEMB      380             0.0000000000
     47183       380  POPE      C23            43.1959292690       47.3546007685      -12.8330699832  MEMB      380             0.0000000000
     47184       380  POPE      H3R            42.4358662275       47.2098143230      -12.1463506871  MEMB      380             0.0000000000
     47185       380  POPE      H3S            43.5880156467       48.4595349343      -12.6547446945  MEMB      380             0.0000000000
     47186       380  POPE      C24            44.3104522461       46.1058896311      -12.4716384688  MEMB      380             0.0000000000
     47187       380  POPE      H4R            46.1147760645       46.0162622492      -13.7259884812  MEMB      380             0.0000000000
     47188       380  POPE      H4S            43.8829069047       45.1897282903      -12.7189704670  MEMB      380             0.0000000000
     47189       380  POPE      C25            45.0033991303       45.9963584796      -11.0328219300  MEMB      380             0.0000000000
     47190       380  POPE      H5R            45.4268508345       46.9621651577      -10.4605443066  MEMB      380             0.0000000000
     47191       380  POPE      H5S            45.7244632441       45.4083830096      -11.4876266546  MEMB      380             0.0000000000
     47192       380  POPE      C26            44.2733510064       45.9694298364       -9.9402324794  MEMB      380             0.0000000000
     47193       380  POPE      H6R            43.9294549092       45.0415131231      -10.3399676602  MEMB      380             0.0000000000
     47194       380  POPE      H6S            43.6346586979       46.8663550889      -10.0846904795  MEMB      380             0.0000000000
     47195       380  POPE      C27            45.0664390913       45.9659803495       -8.6837456603  MEMB      380             0.0000000000
     47196       380  POPE      H7R            46.1310902976       45.6445867405       -8.8150306689  MEMB      380             0.0000000000
     47197       380  POPE      H7S            44.8025711197       45.0260839898       -8.2632309026  MEMB      380             0.0000000000
     47198       380  POPE      C28            44.9240647762       47.3377762845       -7.9191211170  MEMB      380             0.0000000000
     47199       380  POPE      H8R            45.4646729504       48.1689251139       -8.4601432595  MEMB      380             0.0000000000
     47200       380  POPE      H8S            45.5879250385       47.1381084870       -7.0548199713  MEMB      380             0.0000000000
     47201       380  POPE      C29            43.5252894556       47.8580152277       -7.5404398598  MEMB      380             0.0000000000
     47202       380  POPE      H91            42.7138544972       47.7184078098       -8.2671694342  MEMB      380             0.0000000000
     47203       380  POPE      C210           43.1012146528       48.3332027087       -6.3529179400  MEMB      380             0.0000000000
     47204       380  POPE      H101           42.0427355672       48.6400487394       -6.1939745670  MEMB      380             0.0000000000
     47205       380  POPE      C211           43.9505035257       48.4433340346       -5.1260495197  MEMB      380             0.0000000000
     47206       380  POPE      H11R           43.8877852168       49.4372688432       -4.6419681758  MEMB      380             0.0000000000
     47207       380  POPE      H11S           45.0369464689       48.3525825726       -5.3100742382  MEMB      380             0.0000000000
     47208       380  POPE      C212           43.4978866953       47.3959779977       -4.0981375920  MEMB      380             0.0000000000
     47209       380  POPE      H12R           42.3925698143       47.3336976268       -3.9720115047  MEMB      380             0.0000000000
     47210       380  POPE      H12S           43.8503385977       47.8440010473       -3.1500456030  MEMB      380             0.0000000000
     47211       380  POPE      C213           44.0567262012       45.9616333046       -4.3137001356  MEMB      380             0.0000000000
     47212       380  POPE      H13R           45.1359124767       45.9290135783       -4.6302704866  MEMB      380             0.0000000000
     47213       380  POPE      H13S           43.4214102998       45.4675173974       -5.0837790459  MEMB      380             0.0000000000
     47214       380  POPE      C214           44.0153561897       45.0596286999       -3.0626615486  MEMB      380             0.0000000000
     47215       380  POPE      H14R           44.6614616300       44.1790803344       -3.2459473695  MEMB      380             0.0000000000
     47216       380  POPE      H14S           43.0103658198       44.6598605130       -2.8094829615  MEMB      380             0.0000000000
     47217       380  POPE      C215           44.5503656727       45.7853845903       -1.8384149479  MEMB      380             0.0000000000
     47218       380  POPE      H15R           43.6806574465       46.3186886101       -1.3871152187  MEMB      380             0.0000000000
     47219       380  POPE      H15S           45.3819751208       46.4436485202       -2.2013170333  MEMB      380             0.0000000000
     47220       380  POPE      C216           45.1522304549       44.9292290477       -0.7469684586  MEMB      380             0.0000000000
     47221       380  POPE      H16R           45.1382874715       45.5121626985        0.1748128934  MEMB      380             0.0000000000
     47222       380  POPE      H16S           46.2102389131       44.7929947405       -1.0417154146  MEMB      380             0.0000000000
     47223       380  POPE      C217           44.4238773971       43.6218152722       -0.4742733205  MEMB      380             0.0000000000
     47224       380  POPE      H17R           44.7682598475       43.1968673124        0.4804299871  MEMB      380             0.0000000000
     47225       380  POPE      H17S           44.6694406784       42.8433158268       -1.2428527836  MEMB      380             0.0000000000
     47226       380  POPE      C218           42.9806929409       43.7984094492       -0.1102839349  MEMB      380             0.0000000000
     47227       380  POPE      H18R           42.3574919152       44.1502311054       -0.9439331985  MEMB      380             0.0000000000
     47228       380  POPE      H18S           42.8690189615       44.4465169560        0.7920661694  MEMB      380             0.0000000000
     47229       380  POPE      H18T           42.6361631573       42.8032267817        0.1464784325  MEMB      380             0.0000000000
     47230       380  POPE      C33            40.9894316016       44.5303004362      -13.4391057359  MEMB      380             0.0000000000
     47231       380  POPE      H3X            41.2999685830       45.0581133483      -12.5145331021  MEMB      380             0.0000000000
     47232       380  POPE      H3Y            41.7290839951       44.7158256958      -14.2359793758  MEMB      380             0.0000000000
     47233       380  POPE      C34            41.0247928595       43.1035914607      -12.9414117864  MEMB      380             0.0000000000
     47234       380  POPE      H4X            40.8775574235       42.3913616237      -13.7594424179  MEMB      380             0.0000000000
     47235       380  POPE      H4Y            40.2291721934       42.8811720610      -12.2408007221  MEMB      380             0.0000000000
     47236       380  POPE      C35            42.2387357755       42.8776374780      -12.0576867275  MEMB      380             0.0000000000
     47237       380  POPE      H5X            42.4567950586       43.7081121360      -11.4024078763  MEMB      380             0.0000000000
     47238       380  POPE      H5Y            43.1406094632       42.9165371791      -12.6107369507  MEMB      380             0.0000000000
     47239       380  POPE      C36            42.2364674011       41.6372697291      -11.2112080307  MEMB      380             0.0000000000
     47240       380  POPE      H6X            43.2672268717       41.2429225168      -10.9431371751  MEMB      380             0.0000000000
     47241       380  POPE      H6Y            41.5884749893       40.8894781614      -11.7253885946  MEMB      380             0.0000000000
     47242       380  POPE      C37            41.6214180863       41.7820386116       -9.9372996164  MEMB      380             0.0000000000
     47243       380  POPE      H7X            41.1767702068       40.7733681992       -9.8168830080  MEMB      380             0.0000000000
     47244       380  POPE      H7Y            40.8413911432       42.5293582433      -10.1397960988  MEMB      380             0.0000000000
     47245       380  POPE      C38            42.6874103516       42.0587221781       -8.8923797743  MEMB      380             0.0000000000
     47246       380  POPE      H8X            43.3872039449       42.8680363416       -9.1958274012  MEMB      380             0.0000000000
     47247       380  POPE      H8Y            43.2434198370       41.1062676236       -8.6943259398  MEMB      380             0.0000000000
     47248       380  POPE      C39            42.0480186608       42.4914471395       -7.6244298388  MEMB      380             0.0000000000
     47249       380  POPE      H9X            42.6791160165       42.1949057874       -6.7542411361  MEMB      380             0.0000000000
     47250       380  POPE      H9Y            41.1199609732       41.9288744504       -7.5877513945  MEMB      380             0.0000000000
     47251       380  POPE      C310           41.5443012015       43.9260707233       -7.6204993071  MEMB      380             0.0000000000
     47252       380  POPE      H10X           41.1747335420       44.0823572282       -8.6561817715  MEMB      380             0.0000000000
     47253       380  POPE      H10Y           42.4498936908       44.5283156528       -7.4283888671  MEMB      380             0.0000000000
     47254       380  POPE      C311           40.4587593683       44.2646683746       -6.5768697753  MEMB      380             0.0000000000
     47255       380  POPE      H11X           40.8155790074       43.8239744848       -5.6296750215  MEMB      380             0.0000000000
     47256       380  POPE      H11Y           39.5244371626       43.6971178893       -6.8035811424  MEMB      380             0.0000000000
     47257       380  POPE      C312           40.3107448727       45.7936070017       -6.3745186609  MEMB      380             0.0000000000
     47258       380  POPE      H12X           39.8013583423       46.2087820479       -7.2703049248  MEMB      380             0.0000000000
     47259       380  POPE      H12Y           41.3176460231       46.2567833717       -6.2643397244  MEMB      380             0.0000000000
     47260       380  POPE      C313           39.4471846962       46.2217684905       -5.1905195904  MEMB      380             0.0000000000
     47261       380  POPE      H13X           38.5155122289       45.7087930329       -5.4580217089  MEMB      380             0.0000000000
     47262       380  POPE      H13Y           39.2909573713       47.3355382822       -5.1539056329  MEMB      380             0.0000000000
     47263       380  POPE      C314           39.8794244493       45.6186376299       -3.8623847124  MEMB      380             0.0000000000
     47264       380  POPE      H14X           40.9917283774       45.6150611453       -3.8264613419  MEMB      380             0.0000000000
     47265       380  POPE      H14Y           39.4935600049       44.5785286255       -3.8003096725  MEMB      380             0.0000000000
     47266       380  POPE      C315           39.3469988702       46.3664508014       -2.6535948586  MEMB      380             0.0000000000
     47267       380  POPE      H15X           39.1927634398       45.6579071213       -1.8084208735  MEMB      380             0.0000000000
     47268       380  POPE      H15Y           38.3440053522       46.7688339133       -2.9064571344  MEMB      380             0.0000000000
     47269       380  POPE      C316           40.3539702985       47.4246692940       -2.2236416584  MEMB      380             0.0000000000
     47270       380  POPE      H16X           40.4410908708       48.2538899058       -2.9589028385  MEMB      380             0.0000000000
     47271       380  POPE      H16Y           41.3432511176       46.9468403489       -2.0525310879  MEMB      380             0.0000000000
     47272       380  POPE      H16Z           40.1168729434       47.8609896353       -1.2483644256  MEMB      380             0.0000000000
     47273       381  PMPE      N              44.2187780005      -43.6879047714      -21.8492099415  MEMB      381             0.0000000000
     47274       381  PMPE      HN1            43.5645125444      -43.0701424219      -21.3160901814  MEMB      381             0.0000000000
     47275       381  PMPE      HN2            44.1767616916      -43.5750103415      -22.8780917270  MEMB      381             0.0000000000
     47276       381  PMPE      HN3            43.9818202466      -44.6711786016      -21.6397146444  MEMB      381             0.0000000000
     47277       381  PMPE      C12            45.5899173400      -43.5173278074      -21.2915344902  MEMB      381             0.0000000000
     47278       381  PMPE      H12A           45.6549746774      -42.4644139150      -20.9736438865  MEMB      381             0.0000000000
     47279       381  PMPE      H12B           46.3403234106      -43.6774451750      -22.1000134105  MEMB      381             0.0000000000
     47280       381  PMPE      C11            45.7091527665      -44.5206747059      -20.1222398702  MEMB      381             0.0000000000
     47281       381  PMPE      H11A           46.7319008941      -44.6362423233      -19.7290046558  MEMB      381             0.0000000000
     47282       381  PMPE      H11B           45.4855157834      -45.5350332771      -20.5191023609  MEMB      381             0.0000000000
     47283       381  PMPE      P              45.0083263663      -43.4412740211      -17.7350633090  MEMB      381             0.0000000000
     47284       381  PMPE      O13            43.7331474966      -42.8089732909      -17.3530021317  MEMB      381             0.0000000000
     47285       381  PMPE      O14            46.1123876344      -42.4856352312      -17.9785155600  MEMB      381             0.0000000000
     47286       381  PMPE      O11            45.4628985654      -44.5700330494      -16.7043800314  MEMB      381             0.0000000000
     47287       381  PMPE      O12            44.7786472191      -44.2448007430      -19.0873084687  MEMB      381             0.0000000000
     47288       381  PMPE      C1             45.4453407521      -45.9769568758      -16.9620496184  MEMB      381             0.0000000000
     47289       381  PMPE      HA             46.3234532178      -46.2574246106      -17.5978514193  MEMB      381             0.0000000000
     47290       381  PMPE      HB             44.4911900425      -46.2564798118      -17.4611633908  MEMB      381             0.0000000000
     47291       381  PMPE      C2             45.5581075856      -46.7966092495      -15.6335890801  MEMB      381             0.0000000000
     47292       381  PMPE      HS             45.3675608194      -47.8702408342      -15.7975767846  MEMB      381             0.0000000000
     47293       381  PMPE      O21            44.6800678147      -46.3301764907      -14.6046158758  MEMB      381             0.0000000000
     47294       381  PMPE      C21            43.3851607678      -46.2508115107      -14.8106254135  MEMB      381             0.0000000000
     47295       381  PMPE      O22            42.7343714991      -46.8615225698      -15.6393650661  MEMB      381             0.0000000000
     47296       381  PMPE      C22            42.8143994261      -45.2678608791      -13.7851594050  MEMB      381             0.0000000000
     47297       381  PMPE      H2R            41.7087941140      -45.3195428010      -13.7436625808  MEMB      381             0.0000000000
     47298       381  PMPE      H2S            43.0378711363      -44.2408397102      -14.1145409362  MEMB      381             0.0000000000
     47299       381  PMPE      C3             47.0027618395      -46.6720344148      -15.0724195787  MEMB      381             0.0000000000
     47300       381  PMPE      HX             47.7275542315      -47.2677964996      -15.6791973312  MEMB      381             0.0000000000
     47301       381  PMPE      HY             46.9653945902      -47.0222056380      -14.0203529514  MEMB      381             0.0000000000
     47302       381  PMPE      O31            47.4063550002      -45.3074384222      -15.0001015727  MEMB      381             0.0000000000
     47303       381  PMPE      C31            48.6233540210      -45.1417456007      -14.5854925289  MEMB      381             0.0000000000
     47304       381  PMPE      O32            49.5147751918      -45.9655522262      -14.5016271593  MEMB      381             0.0000000000
     47305       381  PMPE      C32            48.8262332242      -43.7482495759      -14.1958722016  MEMB      381             0.0000000000
     47306       381  PMPE      H2X            49.0221069938      -43.3972762509      -15.1279953222  MEMB      381             0.0000000000
     47307       381  PMPE      H2Y            49.7383851001      -43.6347654191      -13.7516312037  MEMB      381             0.0000000000
     47308       381  PMPE      C23            43.3134737580      -45.5121589650      -12.3536277497  MEMB      381             0.0000000000
     47309       381  PMPE      H3R            43.2060865657      -44.5247457448      -11.8713714812  MEMB      381             0.0000000000
     47310       381  PMPE      H3S            44.3950062636      -45.7888945457      -12.3000597628  MEMB      381             0.0000000000
     47311       381  PMPE      C24            42.3453308368      -46.5364674741      -11.7879417196  MEMB      381             0.0000000000
     47312       381  PMPE      H4R            42.4185705796      -47.3718550743      -12.4898476422  MEMB      381             0.0000000000
     47313       381  PMPE      H4S            41.2909076932      -46.2356290630      -11.7809491819  MEMB      381             0.0000000000
     47314       381  PMPE      C25            42.5513502874      -47.0323139624      -10.4008536517  MEMB      381             0.0000000000
     47315       381  PMPE      H5R            43.6415040633      -46.8483740100      -10.2684370831  MEMB      381             0.0000000000
     47316       381  PMPE      H5S            42.2062586843      -48.1080854453      -10.3130310807  MEMB      381             0.0000000000
     47317       381  PMPE      C26            42.2860102905      -46.2082065394       -9.1939855981  MEMB      381             0.0000000000
     47318       381  PMPE      H6R            41.2707145035      -45.8339496865       -9.2497135622  MEMB      381             0.0000000000
     47319       381  PMPE      H6S            43.0600369220      -45.4006983821       -9.1784575262  MEMB      381             0.0000000000
     47320       381  PMPE      C27            42.3604879916      -46.9984574009       -7.8996204292  MEMB      381             0.0000000000
     47321       381  PMPE      H7R            43.4432218065      -47.1657990677       -7.6591077407  MEMB      381             0.0000000000
     47322       381  PMPE      H7S            41.7380728020      -47.9273025832       -8.0377043955  MEMB      381             0.0000000000
     47323       381  PMPE      C28            41.9916889993      -46.2521764652       -6.6732806700  MEMB      381             0.0000000000
     47324       381  PMPE      H8R            40.8920265355      -46.1840078253       -6.6725843483  MEMB      381             0.0000000000
     47325       381  PMPE      H8S            42.4602385458      -45.2775432674       -6.8690969314  MEMB      381             0.0000000000
     47326       381  PMPE      C29            42.6314273790      -46.8193229678       -5.4064026218  MEMB      381             0.0000000000
     47327       381  PMPE      H9R            43.6545836333      -47.2086809908       -5.4174251189  MEMB      381             0.0000000000
     47328       381  PMPE      C217           41.6169099061      -47.4135079059       -4.4356838647  MEMB      381             0.0000000000
     47329       381  PMPE      H17R           41.9999941092      -48.3170055422       -3.9896680559  MEMB      381             0.0000000000
     47330       381  PMPE      H17S           40.6162392741      -47.2676092157       -4.7951580963  MEMB      381             0.0000000000
     47331       381  PMPE      C210           42.3864594220      -46.1655910986       -4.1183576807  MEMB      381             0.0000000000
     47332       381  PMPE      H10R           43.1012987787      -46.3517526784       -3.2780518120  MEMB      381             0.0000000000
     47333       381  PMPE      C211           41.6968428319      -44.8322443347       -4.1974969816  MEMB      381             0.0000000000
     47334       381  PMPE      H11R           40.8021109630      -44.7387138978       -4.8050750417  MEMB      381             0.0000000000
     47335       381  PMPE      H11S           42.3867626666      -43.9806253539       -4.2742044221  MEMB      381             0.0000000000
     47336       381  PMPE      C212           41.4525934179      -44.4082953735       -2.9451038176  MEMB      381             0.0000000000
     47337       381  PMPE      H12R           42.2162643883      -44.6535725276       -2.0874859985  MEMB      381             0.0000000000
     47338       381  PMPE      H12S           41.9677129263      -45.2271742647       -2.4697238674  MEMB      381             0.0000000000
     47339       381  PMPE      C213           40.6207758567      -43.0101340785       -3.0160551465  MEMB      381             0.0000000000
     47340       381  PMPE      H13R           40.2741615245      -42.9063933638       -3.8428279571  MEMB      381             0.0000000000
     47341       381  PMPE      H13S           40.5446908386      -41.9840277391       -2.7254665985  MEMB      381             0.0000000000
     47342       381  PMPE      C214           39.6282941501      -43.0851605135       -2.1578125210  MEMB      381             0.0000000000
     47343       381  PMPE      H14R           38.7121456526      -42.9252739809       -1.9428097901  MEMB      381             0.0000000000
     47344       381  PMPE      H14S           39.1925143315      -42.2760982327       -1.4429304007  MEMB      381             0.0000000000
     47345       381  PMPE      C215           40.3612564438      -44.8663110116       -1.2988499045  MEMB      381             0.0000000000
     47346       381  PMPE      H15R           40.2209567303      -45.4047416216       -0.4058792246  MEMB      381             0.0000000000
     47347       381  PMPE      H15S           40.1458107621      -44.8081511153        0.2952265405  MEMB      381             0.0000000000
     47348       381  PMPE      C216           40.9558478460      -42.8300229240        1.1537192627  MEMB      381             0.0000000000
     47349       381  PMPE      H16R           42.1163886946      -42.5405477763        0.9335775084  MEMB      381             0.0000000000
     47350       381  PMPE      H16S           40.4496107040      -42.3238561764        0.9845865480  MEMB      381             0.0000000000
     47351       381  PMPE      H16T           41.7786500770      -42.6137330369        1.5968366600  MEMB      381             0.0000000000
     47352       381  PMPE      C33            47.9439022895      -43.0038235347      -13.2696276147  MEMB      381             0.0000000000
     47353       381  PMPE      H3X            46.9153999231      -43.0351432979      -13.5464996327  MEMB      381             0.0000000000
     47354       381  PMPE      H3Y            48.0800958207      -41.9902378472      -13.2910151412  MEMB      381             0.0000000000
     47355       381  PMPE      C34            48.1822886247      -43.3438168351      -11.8410282940  MEMB      381             0.0000000000
     47356       381  PMPE      H4X            49.1139990691      -42.9387113063      -11.4015512198  MEMB      381             0.0000000000
     47357       381  PMPE      H4Y            48.3789667192      -44.4144411979      -11.8397858701  MEMB      381             0.0000000000
     47358       381  PMPE      C35            46.9197079713      -43.0016454028      -11.0452099494  MEMB      381             0.0000000000
     47359       381  PMPE      H5X            46.0918444413      -43.6282460560      -11.3760997907  MEMB      381             0.0000000000
     47360       381  PMPE      H5Y            46.5624462885      -41.9558939937      -11.2091744434  MEMB      381             0.0000000000
     47361       381  PMPE      C36            47.1146602105      -43.3862991750       -9.5806625050  MEMB      381             0.0000000000
     47362       381  PMPE      H6X            47.8666596372      -42.8599987494       -9.1141318026  MEMB      381             0.0000000000
     47363       381  PMPE      H6Y            47.6367668849      -44.3365789119       -9.5264053551  MEMB      381             0.0000000000
     47364       381  PMPE      C37            45.9215751637      -43.2380140530       -8.6632053711  MEMB      381             0.0000000000
     47365       381  PMPE      H7X            45.4171813220      -44.2103857996       -8.7388224674  MEMB      381             0.0000000000
     47366       381  PMPE      H7Y            45.2567737432      -42.4380875171       -9.0564122904  MEMB      381             0.0000000000
     47367       381  PMPE      C38            46.1672276464      -43.1535540836       -7.1506364940  MEMB      381             0.0000000000
     47368       381  PMPE      H8X            46.7353857684      -42.2290946214       -6.9054328275  MEMB      381             0.0000000000
     47369       381  PMPE      H8Y            46.6553419880      -44.0683342725       -6.7602480579  MEMB      381             0.0000000000
     47370       381  PMPE      C39            44.8432788244      -43.1759140787       -6.3919747098  MEMB      381             0.0000000000
     47371       381  PMPE      H9X            44.3713749656      -44.1325652409       -6.1395013331  MEMB      381             0.0000000000
     47372       381  PMPE      H9Y            44.1938764402      -42.5788109304       -7.0394615477  MEMB      381             0.0000000000
     47373       381  PMPE      C310           44.8938563141      -42.4503897960       -5.1270877486  MEMB      381             0.0000000000
     47374       381  PMPE      H10X           43.9338621565      -42.1821922720       -4.6726954036  MEMB      381             0.0000000000
     47375       381  PMPE      H10Y           45.6610822448      -41.7199224767       -5.3442470302  MEMB      381             0.0000000000
     47376       381  PMPE      C311           45.2414079110      -43.0786022758       -3.9747887247  MEMB      381             0.0000000000
     47377       381  PMPE      H11X           46.1332431333      -43.5121335156       -4.6133575798  MEMB      381             0.0000000000
     47378       381  PMPE      H11Y           44.7982268008      -44.0344991441       -3.8568719195  MEMB      381             0.0000000000
     47379       381  PMPE      C312           45.3655870218      -42.3446537395       -2.3629076644  MEMB      381             0.0000000000
     47380       381  PMPE      H12X           44.4419207003      -42.0072937874       -2.0828741199  MEMB      381             0.0000000000
     47381       381  PMPE      H12Y           46.2413489427      -41.8315107906       -2.3185802782  MEMB      381             0.0000000000
     47382       381  PMPE      C313           46.1090341663      -42.7208248993       -0.9174503232  MEMB      381             0.0000000000
     47383       381  PMPE      H13X           46.5553606672      -42.0795375851       -0.2049179989  MEMB      381             0.0000000000
     47384       381  PMPE      H13Y           47.2465169479      -42.7390590921       -1.0208181857  MEMB      381             0.0000000000
     47385       381  PMPE      C314           45.6667874186      -44.1544783704       -0.4228954033  MEMB      381             0.0000000000
     47386       381  PMPE      H14X           46.5728755594      -44.3475702407        0.1043991110  MEMB      381             0.0000000000
     47387       381  PMPE      H14Y           45.7067211990      -45.2324451509       -0.9296165510  MEMB      381             0.0000000000
     47388       381  PMPE      C315           44.3030054391      -44.2414825023       -0.3865717185  MEMB      381             0.0000000000
     47389       381  PMPE      H15X           43.7617910542      -43.9399207826       -1.1757911639  MEMB      381             0.0000000000
     47390       381  PMPE      H15Y           43.9906130632      -43.3951701902        0.1746018628  MEMB      381             0.0000000000
     47391       381  PMPE      C316           44.1524616540      -45.6145208802        0.0122478097  MEMB      381             0.0000000000
     47392       381  PMPE      H16X           43.6303572813      -46.4142150816       -0.2727793968  MEMB      381             0.0000000000
     47393       381  PMPE      H16Y           43.8076868921      -45.4984257538        0.9118558697  MEMB      381             0.0000000000
     47394       381  PMPE      H16Z           44.3971808368      -45.8432620495        0.9280171032  MEMB      381             0.0000000000
     47395       382  PVCL2     C3            -50.5524192260       39.9479558706      -21.8071363396  MEMB      382             0.0000000000
     47396       382  PVCL2     HG31          -51.5230475852       40.4297579191      -21.6311455072  MEMB      382             0.0000000000
     47397       382  PVCL2     HG32          -50.7245835415       39.4004402277      -22.7453658915  MEMB      382             0.0000000000
     47398       382  PVCL2     P3            -49.4985321296       37.7458498267      -20.8883954856  MEMB      382             0.0000000000
     47399       382  PVCL2     OP33          -48.1190555182       37.9943459811      -21.3684922694  MEMB      382             0.0000000000
     47400       382  PVCL2     OP34          -50.3569154746       36.8487746304      -21.7194925025  MEMB      382             0.0000000000
     47401       382  PVCL2     OP31          -50.2927619116       39.0789901945      -20.7149527322  MEMB      382             0.0000000000
     47402       382  PVCL2     OP32          -49.4908660876       37.1709880054      -19.3791271040  MEMB      382             0.0000000000
     47403       382  PVCL2     C31           -50.7677060128       36.8914485186      -18.7710212629  MEMB      382             0.0000000000
     47404       382  PVCL2     H31J          -51.5805040640       37.3996640443      -19.3243895425  MEMB      382             0.0000000000
     47405       382  PVCL2     H31K          -50.9955372273       35.8147591473      -18.9015765083  MEMB      382             0.0000000000
     47406       382  PVCL2     C2            -49.5190636593       41.0933856710      -21.8752093521  MEMB      382             0.0000000000
     47407       382  PVCL2     HG22          -48.5161906601       40.6422262263      -21.8123079808  MEMB      382             0.0000000000
     47408       382  PVCL2     OG12          -49.6197891598       41.7735293931      -23.1331561397  MEMB      382             0.0000000000
     47409       382  PVCL2     HO12          -49.7969033806       41.1089959627      -23.8094407823  MEMB      382             0.0000000000
     47410       382  PVCL2     C1            -49.6567243014       42.0860867685      -20.6697565278  MEMB      382             0.0000000000
     47411       382  PVCL2     HG11          -50.6356964138       42.5973012583      -20.7414490100  MEMB      382             0.0000000000
     47412       382  PVCL2     HG12          -48.9656584450       42.9542420666      -20.7643941642  MEMB      382             0.0000000000
     47413       382  PVCL2     P1            -48.2736528383       40.9980352889      -18.6140589889  MEMB      382             0.0000000000
     47414       382  PVCL2     OP13          -48.5604689740       40.0362969215      -17.5328169662  MEMB      382             0.0000000000
     47415       382  PVCL2     OP14          -47.2252569274       40.6887811337      -19.6073788509  MEMB      382             0.0000000000
     47416       382  PVCL2     OP11          -49.6014993760       41.4136643947      -19.3956852399  MEMB      382             0.0000000000
     47417       382  PVCL2     OP12          -47.8984232552       42.3582223578      -17.9043896960  MEMB      382             0.0000000000
     47418       382  PVCL2     C11           -48.8090197113       43.4241031533      -17.7938292520  MEMB      382             0.0000000000
     47419       382  PVCL2     H11J          -49.8326300737       43.1155711788      -17.5099713573  MEMB      382             0.0000000000
     47420       382  PVCL2     H11K          -48.7361495107       43.9873177566      -18.7616482119  MEMB      382             0.0000000000
     47421       382  PVCL2     C12           -48.2902069720       44.4256808690      -16.7766645428  MEMB      382             0.0000000000
     47422       382  PVCL2     H12J          -47.2612901396       44.4472225569      -17.0108253174  MEMB      382             0.0000000000
     47423       382  PVCL2     O12           -48.2399259659       44.0686541458      -15.3954693417  MEMB      382             0.0000000000
     47424       382  PVCL2     CA1           -47.1440217474       43.3187544336      -15.0791179586  MEMB      382             0.0000000000
     47425       382  PVCL2     OA1           -46.2679928324       42.9372761307      -15.8081265426  MEMB      382             0.0000000000
     47426       382  PVCL2     CA2           -47.0125078144       43.1787065800      -13.6125784065  MEMB      382             0.0000000000
     47427       382  PVCL2     H2A           -47.9525643151       43.5336232903      -13.1313627010  MEMB      382             0.0000000000
     47428       382  PVCL2     H2B           -46.1013489173       43.7740965039      -13.4417502618  MEMB      382             0.0000000000
     47429       382  PVCL2     C13           -49.1215645779       45.7360489829      -16.9290193534  MEMB      382             0.0000000000
     47430       382  PVCL2     H13J          -50.1562530893       45.4857720038      -16.6946734305  MEMB      382             0.0000000000
     47431       382  PVCL2     H13K          -49.1839686617       46.1089648816      -18.0031275704  MEMB      382             0.0000000000
     47432       382  PVCL2     O13           -48.4950996986       46.6634366860      -15.9992480511  MEMB      382             0.0000000000
     47433       382  PVCL2     CB1           -49.2823094120       47.4189592037      -15.3872475656  MEMB      382             0.0000000000
     47434       382  PVCL2     OB1           -50.4391577285       47.3628449145      -15.5588612388  MEMB      382             0.0000000000
     47435       382  PVCL2     CB2           -48.6370729410       48.2162604922      -14.3191460708  MEMB      382             0.0000000000
     47436       382  PVCL2     H2D           -48.4432341809       49.2277238842      -14.6676213577  MEMB      382             0.0000000000
     47437       382  PVCL2     H2E           -47.7743389391       47.6543481777      -14.1958042527  MEMB      382             0.0000000000
     47438       382  PVCL2     C32           -50.8922864179       37.2001256927      -17.2286908417  MEMB      382             0.0000000000
     47439       382  PVCL2     H32J          -51.8404653469       36.7330389297      -16.8647784609  MEMB      382             0.0000000000
     47440       382  PVCL2     O32           -50.8704128114       38.6000150380      -16.9608853031  MEMB      382             0.0000000000
     47441       382  PVCL2     CC1           -52.0294332215       39.1616647794      -16.8201490508  MEMB      382             0.0000000000
     47442       382  PVCL2     OC1           -53.1139614188       38.6086961245      -16.8753455468  MEMB      382             0.0000000000
     47443       382  PVCL2     CC2           -51.8164617011       40.6102445102      -16.5204522147  MEMB      382             0.0000000000
     47444       382  PVCL2     H2R           -51.6756337224       41.1868051030      -17.4302865759  MEMB      382             0.0000000000
     47445       382  PVCL2     H2S           -51.0157731220       40.7176174779      -15.7719102713  MEMB      382             0.0000000000
     47446       382  PVCL2     C33           -49.7343246741       36.6061255121      -16.3988258708  MEMB      382             0.0000000000
     47447       382  PVCL2     H33J          -49.5822172492       35.5404624484      -16.6425955150  MEMB      382             0.0000000000
     47448       382  PVCL2     H33K          -48.8331524531       37.1839802804      -16.7331102311  MEMB      382             0.0000000000
     47449       382  PVCL2     O33           -50.0114487233       36.6412844740      -14.9757859855  MEMB      382             0.0000000000
     47450       382  PVCL2     CD1           -49.0588649767       37.1483436663      -14.1945948836  MEMB      382             0.0000000000
     47451       382  PVCL2     OD1           -48.0750885694       37.7481221170      -14.5642069526  MEMB      382             0.0000000000
     47452       382  PVCL2     CD2           -49.2995309543       36.8417857561      -12.7174971828  MEMB      382             0.0000000000
     47453       382  PVCL2     H2X           -48.4260986981       36.2637845768      -12.3467681763  MEMB      382             0.0000000000
     47454       382  PVCL2     H2Y           -50.1867676908       36.2008202846      -12.5943939364  MEMB      382             0.0000000000
     47455       382  PVCL2     CA3           -46.3444129084       41.9373230083      -13.0571676328  MEMB      382             0.0000000000
     47456       382  PVCL2     H3A           -45.3117810230       41.9172246752      -13.4948753732  MEMB      382             0.0000000000
     47457       382  PVCL2     H3B           -46.9362527419       41.0867087370      -13.3771881669  MEMB      382             0.0000000000
     47458       382  PVCL2     CA4           -46.2012797195       41.8243376309      -11.5343143727  MEMB      382             0.0000000000
     47459       382  PVCL2     H4A           -45.7156875147       42.6643653365      -11.1977664179  MEMB      382             0.0000000000
     47460       382  PVCL2     H4B           -45.3653800210       41.2249867268      -11.1981496202  MEMB      382             0.0000000000
     47461       382  PVCL2     CA5           -47.4535707561       41.4723437530      -10.6754430265  MEMB      382             0.0000000000
     47462       382  PVCL2     H5A           -47.1774935644       41.0707953053       -9.7106684826  MEMB      382             0.0000000000
     47463       382  PVCL2     H5B           -48.1538620548       40.9689332258      -11.3212138335  MEMB      382             0.0000000000
     47464       382  PVCL2     CA6           -48.4722356681       42.3950764697      -10.1669469389  MEMB      382             0.0000000000
     47465       382  PVCL2     H6A           -48.7639924962       42.9733212878      -11.1299489963  MEMB      382             0.0000000000
     47466       382  PVCL2     H6B           -47.9488128000       42.8957209470       -9.3191351543  MEMB      382             0.0000000000
     47467       382  PVCL2     CA7           -49.5770640886       42.4205185412       -9.1835305736  MEMB      382             0.0000000000
     47468       382  PVCL2     H7A           -49.8973263789       43.4275519428       -8.7625534414  MEMB      382             0.0000000000
     47469       382  PVCL2     H7B           -49.1333615594       42.0350699470       -8.2852216225  MEMB      382             0.0000000000
     47470       382  PVCL2     CA8           -50.5090402867       41.7530518158      -10.0843319970  MEMB      382             0.0000000000
     47471       382  PVCL2     H8A           -50.0230532538       40.8141107067      -10.3441699954  MEMB      382             0.0000000000
     47472       382  PVCL2     H8B           -50.7881539491       42.3150370185      -11.0196410549  MEMB      382             0.0000000000
     47473       382  PVCL2     CA9           -51.6762359972       41.3804379348       -9.3566639229  MEMB      382             0.0000000000
     47474       382  PVCL2     H9A           -52.5055095308       40.8764884864       -9.8344023449  MEMB      382             0.0000000000
     47475       382  PVCL2     H9B           -52.1021077098       42.4392041697       -9.5565573676  MEMB      382             0.0000000000
     47476       382  PVCL2     CA10          -51.4584824780       40.7730934865       -7.7869837157  MEMB      382             0.0000000000
     47477       382  PVCL2     H10A          -51.0368738030       41.6572628221       -7.1718629900  MEMB      382             0.0000000000
     47478       382  PVCL2     H10B          -50.7876327816       39.9891681723       -7.8086131230  MEMB      382             0.0000000000
     47479       382  PVCL2     CA11          -52.7879229756       40.3037776632       -7.0967856397  MEMB      382             0.0000000000
     47480       382  PVCL2     H11A          -53.5615028572       40.0565537288       -7.8232690561  MEMB      382             0.0000000000
     47481       382  PVCL2     CA12          -53.2453853558       40.5511081770       -5.8611561149  MEMB      382             0.0000000000
     47482       382  PVCL2     H12A          -54.3048463648       40.2991301951       -5.6056687872  MEMB      382             0.0000000000
     47483       382  PVCL2     CA13          -52.5210480854       41.3340636997       -4.7991028424  MEMB      382             0.0000000000
     47484       382  PVCL2     H13A          -53.2322214437       41.8452871641       -4.0679226356  MEMB      382             0.0000000000
     47485       382  PVCL2     H13B          -51.6988326919       42.0209400179       -5.0896264060  MEMB      382             0.0000000000
     47486       382  PVCL2     CA14          -51.9927504560       40.4344889866       -3.8811603342  MEMB      382             0.0000000000
     47487       382  PVCL2     H14A          -51.7132195089       41.1018326485       -3.0622787612  MEMB      382             0.0000000000
     47488       382  PVCL2     H14B          -51.2952715365       39.6880343333       -4.1359314477  MEMB      382             0.0000000000
     47489       382  PVCL2     CA15          -53.0523246521       39.5187701495       -3.4775006151  MEMB      382             0.0000000000
     47490       382  PVCL2     H15A          -53.7432767167       38.8411974309       -3.8863925202  MEMB      382             0.0000000000
     47491       382  PVCL2     H15B          -54.0174299924       40.3840720390       -3.6974000892  MEMB      382             0.0000000000
     47492       382  PVCL2     CA16          -52.5468254168       38.9045995116       -1.8915379682  MEMB      382             0.0000000000
     47493       382  PVCL2     H16A          -53.4272886677       38.4937629875       -1.0889850778  MEMB      382             0.0000000000
     47494       382  PVCL2     H16B          -52.0666961251       39.7641511627       -1.2339497330  MEMB      382             0.0000000000
     47495       382  PVCL2     CA17          -51.9556590594       37.7321479507       -1.6824606774  MEMB      382             0.0000000000
     47496       382  PVCL2     H17A          -51.8314907971       37.7111107587       -0.5611786946  MEMB      382             0.0000000000
     47497       382  PVCL2     H17B          -51.1311831232       38.0492551177       -2.3048956162  MEMB      382             0.0000000000
     47498       382  PVCL2     CA18          -52.8519828267       36.7455981906       -2.2800423790  MEMB      382             0.0000000000
     47499       382  PVCL2     H18A          -53.8155560201       36.7740262211       -1.7269572672  MEMB      382             0.0000000000
     47500       382  PVCL2     H18B          -52.2893581453       35.8162109598       -2.1402469642  MEMB      382             0.0000000000
     47501       382  PVCL2     H18C          -53.0306025272       36.9941946422       -3.3511749278  MEMB      382             0.0000000000
     47502       382  PVCL2     CB3           -49.2910643070       48.1488348448      -12.9952298079  MEMB      382             0.0000000000
     47503       382  PVCL2     H3D           -49.8823463220       47.1976173966      -12.8268765993  MEMB      382             0.0000000000
     47504       382  PVCL2     H3E           -49.9941141888       48.9647122386      -13.0528954847  MEMB      382             0.0000000000
     47505       382  PVCL2     CB4           -48.4014855654       48.3679689718      -11.8221566472  MEMB      382             0.0000000000
     47506       382  PVCL2     H4D           -48.8085906121       48.5115023499      -10.8354835934  MEMB      382             0.0000000000
     47507       382  PVCL2     H4E           -47.4800903177       48.9358850982      -11.8770442720  MEMB      382             0.0000000000
     47508       382  PVCL2     CB5           -48.0230545930       47.1714947129      -11.5716276025  MEMB      382             0.0000000000
     47509       382  PVCL2     H5D           -48.1655767348       46.4946352617      -12.5035418319  MEMB      382             0.0000000000
     47510       382  PVCL2     H5E           -48.7811066505       46.6551383234      -11.3220795737  MEMB      382             0.0000000000
     47511       382  PVCL2     CB6           -46.7935445356       47.4110369537      -10.5722149536  MEMB      382             0.0000000000
     47512       382  PVCL2     H6D           -45.9062953168       47.7721017303      -11.0062957609  MEMB      382             0.0000000000
     47513       382  PVCL2     H6E           -46.0557896285       46.8157767631      -10.5598308198  MEMB      382             0.0000000000
     47514       382  PVCL2     CB7           -46.7093680673       47.5360816125       -9.1669978957  MEMB      382             0.0000000000
     47515       382  PVCL2     H7D           -47.3869919545       47.2721923475       -8.6364576764  MEMB      382             0.0000000000
     47516       382  PVCL2     H7E           -47.1056906675       48.4609573522       -8.9769126128  MEMB      382             0.0000000000
     47517       382  PVCL2     CB8           -45.8549941067       46.9041452103       -8.3532724875  MEMB      382             0.0000000000
     47518       382  PVCL2     H8D           -45.8854651388       47.6289346930       -7.4763210296  MEMB      382             0.0000000000
     47519       382  PVCL2     H8E           -45.0023012030       46.9099377757       -9.1639210748  MEMB      382             0.0000000000
     47520       382  PVCL2     CB9           -45.9653823748       45.6188519045       -7.6596206998  MEMB      382             0.0000000000
     47521       382  PVCL2     H9D           -44.9591775748       45.1972031433       -7.6935116180  MEMB      382             0.0000000000
     47522       382  PVCL2     H9E           -46.0745646853       44.8962752312       -8.2468076748  MEMB      382             0.0000000000
     47523       382  PVCL2     CB10          -47.0108303136       45.3537923195       -6.5267653486  MEMB      382             0.0000000000
     47524       382  PVCL2     H10D          -47.6270079488       45.9298625223       -7.0239013162  MEMB      382             0.0000000000
     47525       382  PVCL2     H10E          -47.2072926273       45.9738759135       -5.6219636615  MEMB      382             0.0000000000
     47526       382  PVCL2     CB11          -47.4147597968       43.9477708577       -6.2425202980  MEMB      382             0.0000000000
     47527       382  PVCL2     H11D          -46.7107729719       43.4159782401       -5.6348061741  MEMB      382             0.0000000000
     47528       382  PVCL2     H11E          -47.3970208941       43.4508176289       -7.2037171069  MEMB      382             0.0000000000
     47529       382  PVCL2     CB12          -48.6925314519       43.6754108769       -5.4615555374  MEMB      382             0.0000000000
     47530       382  PVCL2     H12D          -48.8420800671       42.6295956224       -5.3052373002  MEMB      382             0.0000000000
     47531       382  PVCL2     H12E          -49.5725420281       43.7971203383       -6.0724352503  MEMB      382             0.0000000000
     47532       382  PVCL2     CB13          -48.8851262055       44.4759094251       -4.1875298051  MEMB      382             0.0000000000
     47533       382  PVCL2     H13D          -49.0390474395       45.5362859663       -4.3437491417  MEMB      382             0.0000000000
     47534       382  PVCL2     H13E          -47.9916493062       44.2935577973       -3.5733183410  MEMB      382             0.0000000000
     47535       382  PVCL2     CB14          -50.1114220083       43.9803000362       -3.5375854654  MEMB      382             0.0000000000
     47536       382  PVCL2     H14D          -49.9474413366       42.9669226775       -3.6799855711  MEMB      382             0.0000000000
     47537       382  PVCL2     H14E          -50.8828242705       43.6605041196       -4.1277058572  MEMB      382             0.0000000000
     47538       382  PVCL2     CB15          -50.4927824694       44.4439112184       -2.1359434035  MEMB      382             0.0000000000
     47539       382  PVCL2     H15D          -50.7987470867       45.2423331270       -2.6240294240  MEMB      382             0.0000000000
     47540       382  PVCL2     H15E          -49.6505582926       44.7012918082       -1.4820892160  MEMB      382             0.0000000000
     47541       382  PVCL2     CB16          -51.7238752414       43.9700111641       -1.3808966439  MEMB      382             0.0000000000
     47542       382  PVCL2     H16D          -52.4816799130       43.6215815097       -2.1461589963  MEMB      382             0.0000000000
     47543       382  PVCL2     H16E          -52.1749299387       44.7312266076       -0.7122704522  MEMB      382             0.0000000000
     47544       382  PVCL2     H16F          -51.5757800294       43.1741446333       -0.7354242508  MEMB      382             0.0000000000
     47545       382  PVCL2     CC3           -52.9783042648       41.2257979881      -15.9101921663  MEMB      382             0.0000000000
     47546       382  PVCL2     H3R           -52.7288449139       41.0109175081      -14.8294405684  MEMB      382             0.0000000000
     47547       382  PVCL2     H3S           -53.9272959137       40.8140562391      -16.3463023157  MEMB      382             0.0000000000
     47548       382  PVCL2     CC4           -53.0692917215       42.6581885517      -15.8325784811  MEMB      382             0.0000000000
     47549       382  PVCL2     H4R           -53.9647049396       42.9292837211      -15.2034502130  MEMB      382             0.0000000000
     47550       382  PVCL2     H4S           -53.2590178479       43.0629930056      -16.8578828842  MEMB      382             0.0000000000
     47551       382  PVCL2     CC5           -51.8727162654       43.3276326381      -15.1448832351  MEMB      382             0.0000000000
     47552       382  PVCL2     H5R           -51.9401007434       44.4209475872      -15.3177641310  MEMB      382             0.0000000000
     47553       382  PVCL2     H5S           -50.9470541131       43.0261764221      -15.6515070053  MEMB      382             0.0000000000
     47554       382  PVCL2     CC6           -51.6541579949       42.9560905754      -13.6662263588  MEMB      382             0.0000000000
     47555       382  PVCL2     H6R           -50.7937861696       43.5523740577      -13.3004742098  MEMB      382             0.0000000000
     47556       382  PVCL2     H6S           -51.4029798655       41.9082576186      -13.5849439625  MEMB      382             0.0000000000
     47557       382  PVCL2     CC7           -52.7737079162       43.1516990607      -12.7317386803  MEMB      382             0.0000000000
     47558       382  PVCL2     H7R           -52.6597903997       42.7873649328      -11.6751901326  MEMB      382             0.0000000000
     47559       382  PVCL2     H7S           -53.6491323443       42.6410536381      -13.0596059145  MEMB      382             0.0000000000
     47560       382  PVCL2     CC8           -52.7545296159       44.5840791961      -12.8384727392  MEMB      382             0.0000000000
     47561       382  PVCL2     H8R           -53.0679421927       45.2665208108      -13.6028227372  MEMB      382             0.0000000000
     47562       382  PVCL2     H8S           -51.7535605725       44.6101231731      -12.3209896756  MEMB      382             0.0000000000
     47563       382  PVCL2     CC9           -53.4857668100       45.1718475970      -11.9694923636  MEMB      382             0.0000000000
     47564       382  PVCL2     H9R           -53.0986395171       44.4584682797      -11.2242666382  MEMB      382             0.0000000000
     47565       382  PVCL2     H9S           -54.2667786536       44.7622894224      -11.7197778654  MEMB      382             0.0000000000
     47566       382  PVCL2     CC10          -53.7382746802       46.4714265131      -11.7837609605  MEMB      382             0.0000000000
     47567       382  PVCL2     H10R          -54.3027634084       46.7116084507      -10.8531587732  MEMB      382             0.0000000000
     47568       382  PVCL2     H10S          -54.5408048376       47.1836155546      -12.2189205234  MEMB      382             0.0000000000
     47569       382  PVCL2     CC11          -52.1719667234       46.4873896592      -11.6104005319  MEMB      382             0.0000000000
     47570       382  PVCL2     H11R          -51.9060060048       47.1088840169      -12.4681666383  MEMB      382             0.0000000000
     47571       382  PVCL2     CC12          -51.4936694971       46.7581499242      -10.5557835505  MEMB      382             0.0000000000
     47572       382  PVCL2     H12R          -50.8638352937       47.6158744213      -10.2685338113  MEMB      382             0.0000000000
     47573       382  PVCL2     CC13          -51.9433811918       47.2263131502       -9.2908193928  MEMB      382             0.0000000000
     47574       382  PVCL2     H13R          -52.4711546748       46.6783391753       -8.8818077385  MEMB      382             0.0000000000
     47575       382  PVCL2     H13S          -52.4741637007       48.1749819046       -9.0331701491  MEMB      382             0.0000000000
     47576       382  PVCL2     CC14          -51.5431447858       46.8713593085       -8.1300386390  MEMB      382             0.0000000000
     47577       382  PVCL2     H14R          -50.6175370276       47.3967965720       -8.7354573128  MEMB      382             0.0000000000
     47578       382  PVCL2     H14S          -51.4748741273       45.7095823102       -8.1939967472  MEMB      382             0.0000000000
     47579       382  PVCL2     CC15          -51.5958056471       47.2907273732       -6.4913877237  MEMB      382             0.0000000000
     47580       382  PVCL2     H15R          -51.6418536252       48.3674983941       -6.2361974635  MEMB      382             0.0000000000
     47581       382  PVCL2     H15S          -50.7268424097       47.0267734243       -5.7061610076  MEMB      382             0.0000000000
     47582       382  PVCL2     CC16          -52.3750531941       46.4751685988       -6.3242101402  MEMB      382             0.0000000000
     47583       382  PVCL2     H16R          -52.4021524044       45.4709811072       -6.6267071489  MEMB      382             0.0000000000
     47584       382  PVCL2     H16S          -53.1933457299       46.3791127588       -6.4077678266  MEMB      382             0.0000000000
     47585       382  PVCL2     CC17          -52.6581207556       47.0506714350       -4.8655561929  MEMB      382             0.0000000000
     47586       382  PVCL2     H17R          -51.5806749696       46.6544728614       -4.3116155749  MEMB      382             0.0000000000
     47587       382  PVCL2     H17S          -53.6608385459       46.5634407380       -4.3933083844  MEMB      382             0.0000000000
     47588       382  PVCL2     CC18          -52.9874493392       48.1806260426       -4.2736507648  MEMB      382             0.0000000000
     47589       382  PVCL2     H18R          -53.4883286710       48.9233870667       -4.7392101474  MEMB      382             0.0000000000
     47590       382  PVCL2     H18S          -52.4369453896       48.8963411374       -4.5495978541  MEMB      382             0.0000000000
     47591       382  PVCL2     H18T          -53.6045872804       47.9422167796       -3.3340025740  MEMB      382             0.0000000000
     47592       382  PVCL2     CD3           -49.5208571454       38.1269516467      -11.8704807141  MEMB      382             0.0000000000
     47593       382  PVCL2     H3X           -49.9954942135       38.9213490831      -12.4885619830  MEMB      382             0.0000000000
     47594       382  PVCL2     H3Y           -48.5713797079       38.5938539013      -11.5376825304  MEMB      382             0.0000000000
     47595       382  PVCL2     CD4           -50.3686991357       37.8627472977      -10.6038913749  MEMB      382             0.0000000000
     47596       382  PVCL2     H4X           -51.2882643837       37.2602561394      -10.8174048459  MEMB      382             0.0000000000
     47597       382  PVCL2     H4Y           -50.6481354501       38.8212460437      -10.1176486255  MEMB      382             0.0000000000
     47598       382  PVCL2     CD5           -49.6294659486       37.0587792928       -9.5298771242  MEMB      382             0.0000000000
     47599       382  PVCL2     H5X           -49.3481773870       36.1158711076      -10.0440262439  MEMB      382             0.0000000000
     47600       382  PVCL2     H5Y           -50.3301832467       36.8076866654       -8.6979752673  MEMB      382             0.0000000000
     47601       382  PVCL2     CD6           -48.2993636501       37.6458854098       -9.0161730187  MEMB      382             0.0000000000
     47602       382  PVCL2     H6X           -47.6999545635       38.0046814943       -9.8815764532  MEMB      382             0.0000000000
     47603       382  PVCL2     H6Y           -47.7719731137       36.7777821972       -8.5554580074  MEMB      382             0.0000000000
     47604       382  PVCL2     CD7           -48.4280846429       38.7384542395       -7.9359580180  MEMB      382             0.0000000000
     47605       382  PVCL2     H7X           -49.2235317983       38.4263288924       -7.2275138692  MEMB      382             0.0000000000
     47606       382  PVCL2     H7Y           -48.8196962933       39.6629677041       -8.3963084910  MEMB      382             0.0000000000
     47607       382  PVCL2     CD8           -47.0997223763       39.1190484446       -7.2283040867  MEMB      382             0.0000000000
     47608       382  PVCL2     H8X           -46.4542384778       39.6705823893       -7.9398448258  MEMB      382             0.0000000000
     47609       382  PVCL2     H8Y           -46.5445659327       38.2071607321       -6.9163602890  MEMB      382             0.0000000000
     47610       382  PVCL2     CD9           -47.2561391068       39.9806901326       -5.9678617410  MEMB      382             0.0000000000
     47611       382  PVCL2     H9X           -47.9661508601       40.8153715020       -6.1255179089  MEMB      382             0.0000000000
     47612       382  PVCL2     H9Y           -46.2940104982       40.4641758467       -5.6514047447  MEMB      382             0.0000000000
     47613       382  PVCL2     CD10          -47.8290445056       39.1153650728       -4.8560183476  MEMB      382             0.0000000000
     47614       382  PVCL2     H10X          -47.3991204227       38.1000410411       -4.8578470808  MEMB      382             0.0000000000
     47615       382  PVCL2     H10Y          -48.9449030323       39.0591678996       -4.9497760162  MEMB      382             0.0000000000
     47616       382  PVCL2     CD11          -47.4296334769       39.6386140101       -3.5450667206  MEMB      382             0.0000000000
     47617       382  PVCL2     H11X          -47.5831870628       40.7612087782       -3.6708321182  MEMB      382             0.0000000000
     47618       382  PVCL2     H11Y          -46.4375022341       39.4915476649       -3.1182597915  MEMB      382             0.0000000000
     47619       382  PVCL2     CD12          -48.0943277379       38.9490506459       -2.3780007394  MEMB      382             0.0000000000
     47620       382  PVCL2     H12X          -48.1690074966       37.9544023030       -2.2282079435  MEMB      382             0.0000000000
     47621       382  PVCL2     H12Y          -49.2886071882       39.2127504174       -2.7076955526  MEMB      382             0.0000000000
     47622       382  PVCL2     CD13          -47.4098901953       39.6319391935       -0.5627484241  MEMB      382             0.0000000000
     47623       382  PVCL2     H13X          -46.5176831088       39.6238679906       -0.5726179083  MEMB      382             0.0000000000
     47624       382  PVCL2     H13Y          -47.8220503934       39.3016863883        0.1898300673  MEMB      382             0.0000000000
     47625       382  PVCL2     CD14          -48.0573338013       41.7528720948        0.2551731215  MEMB      382             0.0000000000
     47626       382  PVCL2     H14X          -49.1966686722       41.8003318989        0.2473939742  MEMB      382             0.0000000000
     47627       382  PVCL2     H14Y          -47.7970229289       42.6620069496       -0.6971578553  MEMB      382             0.0000000000
     47628       382  PVCL2     CD15          -47.6933146249       42.3203989819        1.1640152563  MEMB      382             0.0000000000
     47629       382  PVCL2     H15X          -46.7023279141       42.0264404612        1.0788010886  MEMB      382             0.0000000000
     47630       382  PVCL2     H15Y          -48.0961058141       41.7104173791        1.6657207968  MEMB      382             0.0000000000
     47631       382  PVCL2     CD16          -48.5389698369       43.4543887133        1.2870835312  MEMB      382             0.0000000000
     47632       382  PVCL2     H16X          -48.3063792798       43.6019899488        2.3291393866  MEMB      382             0.0000000000
     47633       382  PVCL2     H16Y          -49.6528231047       43.2751766169        1.0996488503  MEMB      382             0.0000000000
     47634       382  PVCL2     H16Z          -48.0283559519       44.0461252073        0.5322492814  MEMB      382             0.0000000000
     47635       383  PMPE      N              54.4561204157       31.0274976734      -20.6746241321  MEMB      383             0.0000000000
     47636       383  PMPE      HN1            53.5762672728       30.4869704952      -20.7243987785  MEMB      383             0.0000000000
     47637       383  PMPE      HN2            54.2823679132       32.0377934200      -20.4983502792  MEMB      383             0.0000000000
     47638       383  PMPE      HN3            54.9846279748       30.8863050362      -21.5581400632  MEMB      383             0.0000000000
     47639       383  PMPE      C12            55.2864202067       30.5170721548      -19.5450561295  MEMB      383             0.0000000000
     47640       383  PMPE      H12A           55.0351455665       29.4418775483      -19.4868630015  MEMB      383             0.0000000000
     47641       383  PMPE      H12B           54.8848897937       30.9277223466      -18.6027695809  MEMB      383             0.0000000000
     47642       383  PMPE      C11            56.7566610751       30.9630941790      -19.7551603102  MEMB      383             0.0000000000
     47643       383  PMPE      H11A           57.2500711496       30.5406072353      -20.6699213106  MEMB      383             0.0000000000
     47644       383  PMPE      H11B           57.3921490217       30.5788283787      -18.9427224760  MEMB      383             0.0000000000
     47645       383  PMPE      P              57.2248244630       33.2065330803      -18.3890161563  MEMB      383             0.0000000000
     47646       383  PMPE      O13            56.9494688420       34.6352880068      -18.5534392367  MEMB      383             0.0000000000
     47647       383  PMPE      O14            58.5923479203       32.8227127465      -17.9667178231  MEMB      383             0.0000000000
     47648       383  PMPE      O11            56.1529235620       32.5546214722      -17.4010076667  MEMB      383             0.0000000000
     47649       383  PMPE      O12            56.8521618555       32.3921491365      -19.7348863617  MEMB      383             0.0000000000
     47650       383  PMPE      C1             56.5381314755       32.1534146238      -16.0793199672  MEMB      383             0.0000000000
     47651       383  PMPE      HA             57.5219991430       32.5822720380      -15.7679182371  MEMB      383             0.0000000000
     47652       383  PMPE      HB             56.6752586531       31.0623807162      -16.0427978241  MEMB      383             0.0000000000
     47653       383  PMPE      C2             55.4719010503       32.4889133998      -14.9867091617  MEMB      383             0.0000000000
     47654       383  PMPE      HS             55.6326610601       31.8800566328      -14.0692592374  MEMB      383             0.0000000000
     47655       383  PMPE      O21            54.0859614075       32.3164626427      -15.3963854966  MEMB      383             0.0000000000
     47656       383  PMPE      C21            53.7361099014       31.1012621444      -15.7557905490  MEMB      383             0.0000000000
     47657       383  PMPE      O22            54.4792624366       30.1351981366      -15.8404436232  MEMB      383             0.0000000000
     47658       383  PMPE      C22            52.2467565548       31.0285564408      -16.0285203071  MEMB      383             0.0000000000
     47659       383  PMPE      H2R            52.1022629234       30.7474691808      -17.1076803613  MEMB      383             0.0000000000
     47660       383  PMPE      H2S            51.5891549953       31.8373625577      -15.7004820299  MEMB      383             0.0000000000
     47661       383  PMPE      C3             55.7377936740       33.9573621733      -14.5676342136  MEMB      383             0.0000000000
     47662       383  PMPE      HX             55.7121429944       34.5247792108      -15.5192155747  MEMB      383             0.0000000000
     47663       383  PMPE      HY             56.7785141422       34.1220490336      -14.1825161642  MEMB      383             0.0000000000
     47664       383  PMPE      O31            54.7530231973       34.3898008048      -13.6080601010  MEMB      383             0.0000000000
     47665       383  PMPE      C31            53.9581879134       35.3626480195      -14.0634501380  MEMB      383             0.0000000000
     47666       383  PMPE      O32            53.9959272496       35.8735218801      -15.1571484690  MEMB      383             0.0000000000
     47667       383  PMPE      C32            53.0571200461       35.8787269391      -12.9829495085  MEMB      383             0.0000000000
     47668       383  PMPE      H2X            52.5402168113       35.0432996162      -12.4970464356  MEMB      383             0.0000000000
     47669       383  PMPE      H2Y            52.3242178472       36.5496755848      -13.4898342036  MEMB      383             0.0000000000
     47670       383  PMPE      C23            51.6847185913       29.9753804324      -15.1765537701  MEMB      383             0.0000000000
     47671       383  PMPE      H3R            52.4684313122       29.4997935351      -14.5441936218  MEMB      383             0.0000000000
     47672       383  PMPE      H3S            51.3515021659       29.3613536440      -16.0855029470  MEMB      383             0.0000000000
     47673       383  PMPE      C24            50.7943790603       30.2397230388      -13.9890626591  MEMB      383             0.0000000000
     47674       383  PMPE      H4R            50.1266813943       29.4755710318      -13.7843008648  MEMB      383             0.0000000000
     47675       383  PMPE      H4S            50.0895779687       30.9788126584      -14.1859669767  MEMB      383             0.0000000000
     47676       383  PMPE      C25            51.3639437174       30.1393901153      -12.6010523472  MEMB      383             0.0000000000
     47677       383  PMPE      H5R            51.9520714392       29.2289470480      -12.3624745817  MEMB      383             0.0000000000
     47678       383  PMPE      H5S            50.5405986435       30.2146477761      -11.8630438119  MEMB      383             0.0000000000
     47679       383  PMPE      C26            52.1751103226       31.3614824077      -12.5499969533  MEMB      383             0.0000000000
     47680       383  PMPE      H6R            51.4653702847       32.1639263518      -12.8961567667  MEMB      383             0.0000000000
     47681       383  PMPE      H6S            52.9670556191       31.3071008199      -13.3208139445  MEMB      383             0.0000000000
     47682       383  PMPE      C27            52.7800177501       31.6245472011      -11.1724447188  MEMB      383             0.0000000000
     47683       383  PMPE      H7R            51.9432678385       31.8567846728      -10.4757205316  MEMB      383             0.0000000000
     47684       383  PMPE      H7S            53.3786152127       32.5386285120      -11.3604382121  MEMB      383             0.0000000000
     47685       383  PMPE      C28            53.7247700492       30.5651412181      -10.5246211072  MEMB      383             0.0000000000
     47686       383  PMPE      H8R            54.6232922305       30.3796227725      -11.1575422414  MEMB      383             0.0000000000
     47687       383  PMPE      H8S            53.1776851226       29.5998197514      -10.3775223878  MEMB      383             0.0000000000
     47688       383  PMPE      C29            54.3553099196       31.0777433941       -9.2183411173  MEMB      383             0.0000000000
     47689       383  PMPE      H9R            54.9361598753       32.0197655726       -9.2033185485  MEMB      383             0.0000000000
     47690       383  PMPE      C217           54.9797212250       30.0047291727       -8.3271255873  MEMB      383             0.0000000000
     47691       383  PMPE      H17R           55.9809592740       30.3355667834       -8.0778426960  MEMB      383             0.0000000000
     47692       383  PMPE      H17S           54.7583960980       29.0585288064       -8.7889613738  MEMB      383             0.0000000000
     47693       383  PMPE      C210           53.7508028035       30.7799261900       -7.8924834140  MEMB      383             0.0000000000
     47694       383  PMPE      H10R           53.9025176947       31.6688444450       -7.2758320601  MEMB      383             0.0000000000
     47695       383  PMPE      C211           52.5055831868       29.8957057087       -7.8098924570  MEMB      383             0.0000000000
     47696       383  PMPE      H11R           52.7579539575       28.8437938764       -8.0389923228  MEMB      383             0.0000000000
     47697       383  PMPE      H11S           51.6966556602       30.2905080898       -8.4627871858  MEMB      383             0.0000000000
     47698       383  PMPE      C212           52.0382381562       29.6835980993       -6.3978435267  MEMB      383             0.0000000000
     47699       383  PMPE      H12R           52.8548878557       29.5195039459       -5.7093425253  MEMB      383             0.0000000000
     47700       383  PMPE      H12S           51.1425738093       29.0538964037       -6.2961034610  MEMB      383             0.0000000000
     47701       383  PMPE      C213           51.4158654908       30.7853940630       -5.9321125323  MEMB      383             0.0000000000
     47702       383  PMPE      H13R           50.6001610992       30.9149365895       -6.6292631781  MEMB      383             0.0000000000
     47703       383  PMPE      H13S           51.9888123226       31.4605139299       -6.3247176054  MEMB      383             0.0000000000
     47704       383  PMPE      C214           51.3740141675       31.1985626225       -4.5395436516  MEMB      383             0.0000000000
     47705       383  PMPE      H14R           50.6982865051       32.1809985971       -4.1886925364  MEMB      383             0.0000000000
     47706       383  PMPE      H14S           52.3935682080       31.0726538727       -4.0740923934  MEMB      383             0.0000000000
     47707       383  PMPE      C215           51.1318668257       30.3751978421       -3.7910641376  MEMB      383             0.0000000000
     47708       383  PMPE      H15R           51.2473995997       29.3656366597       -4.1880178250  MEMB      383             0.0000000000
     47709       383  PMPE      H15S           50.1116446249       30.7413976791       -4.3275319496  MEMB      383             0.0000000000
     47710       383  PMPE      C216           51.3828280665       30.5474254722       -2.1910243764  MEMB      383             0.0000000000
     47711       383  PMPE      H16R           51.1454520862       29.4655390221       -1.6039121731  MEMB      383             0.0000000000
     47712       383  PMPE      H16S           52.1732814173       30.4463219214       -1.6425150155  MEMB      383             0.0000000000
     47713       383  PMPE      H16T           50.5867264703       31.2903187402       -1.8146594092  MEMB      383             0.0000000000
     47714       383  PMPE      C33            53.8303309770       36.8018416341      -12.0422925137  MEMB      383             0.0000000000
     47715       383  PMPE      H3X            53.1364947327       37.5879265806      -11.6951510604  MEMB      383             0.0000000000
     47716       383  PMPE      H3Y            54.6049972270       37.2866926718      -12.6085850763  MEMB      383             0.0000000000
     47717       383  PMPE      C34            54.4623729133       36.1345028103      -10.8354397765  MEMB      383             0.0000000000
     47718       383  PMPE      H4X            55.1658984638       35.3456383421      -11.1499977845  MEMB      383             0.0000000000
     47719       383  PMPE      H4Y            53.6269842887       35.6976736405      -10.2663095135  MEMB      383             0.0000000000
     47720       383  PMPE      C35            55.2422452465       37.1009496857       -9.9834313694  MEMB      383             0.0000000000
     47721       383  PMPE      H5X            54.5081709488       37.9068101543       -9.6643843792  MEMB      383             0.0000000000
     47722       383  PMPE      H5Y            56.0701363173       37.5091678348      -10.6293683762  MEMB      383             0.0000000000
     47723       383  PMPE      C36            56.0129125345       36.5842328148       -8.7828402695  MEMB      383             0.0000000000
     47724       383  PMPE      H6X            56.4482570043       37.4432414026       -8.2144780268  MEMB      383             0.0000000000
     47725       383  PMPE      H6Y            56.8863972577       35.9726471289       -9.1113121258  MEMB      383             0.0000000000
     47726       383  PMPE      C37            55.1093618056       35.8387582775       -7.8178126342  MEMB      383             0.0000000000
     47727       383  PMPE      H7X            54.6243127098       34.9379352001       -8.2548085050  MEMB      383             0.0000000000
     47728       383  PMPE      H7Y            54.3193695465       36.5153369347       -7.4415642484  MEMB      383             0.0000000000
     47729       383  PMPE      C38            55.8993757586       35.3055578127       -6.6544063128  MEMB      383             0.0000000000
     47730       383  PMPE      H8X            56.4775607449       36.0921749923       -6.1281580560  MEMB      383             0.0000000000
     47731       383  PMPE      H8Y            56.5671851297       34.4873732955       -7.0070709769  MEMB      383             0.0000000000
     47732       383  PMPE      C39            55.0086124013       34.7151752878       -5.6545928838  MEMB      383             0.0000000000
     47733       383  PMPE      H9X            54.1320602482       34.2025790313       -6.1016578423  MEMB      383             0.0000000000
     47734       383  PMPE      H9Y            54.5625628432       35.4959852068       -4.9846719929  MEMB      383             0.0000000000
     47735       383  PMPE      C310           55.8010501349       33.6942825779       -4.8254454294  MEMB      383             0.0000000000
     47736       383  PMPE      H10X           55.7103016025       32.6655856646       -5.1665294032  MEMB      383             0.0000000000
     47737       383  PMPE      H10Y           55.3484393223       33.4974215415       -3.9526051532  MEMB      383             0.0000000000
     47738       383  PMPE      C311           56.5801517550       34.1588057884       -3.6132853770  MEMB      383             0.0000000000
     47739       383  PMPE      H11X           56.1048254195       35.0846985284       -3.2118601037  MEMB      383             0.0000000000
     47740       383  PMPE      H11Y           57.4003312123       34.3432183346       -4.2814761773  MEMB      383             0.0000000000
     47741       383  PMPE      C312           56.8085532247       33.1201233907       -2.4769185974  MEMB      383             0.0000000000
     47742       383  PMPE      H12X           57.8620593036       33.0886379920       -2.2188531347  MEMB      383             0.0000000000
     47743       383  PMPE      H12Y           56.4145864144       32.1065399686       -2.8144853567  MEMB      383             0.0000000000
     47744       383  PMPE      C313           56.2195519291       33.4999474413       -1.1209963971  MEMB      383             0.0000000000
     47745       383  PMPE      H13X           55.2006184844       33.9641510167       -1.0714560927  MEMB      383             0.0000000000
     47746       383  PMPE      H13Y           56.5590763708       34.4338378628       -0.7516320136  MEMB      383             0.0000000000
     47747       383  PMPE      C314           56.3059010814       32.2484341649       -0.3204380193  MEMB      383             0.0000000000
     47748       383  PMPE      H14X           57.3136179258       32.1604386710        0.0594300524  MEMB      383             0.0000000000
     47749       383  PMPE      H14Y           55.7103415030       31.3622496760       -0.6548303638  MEMB      383             0.0000000000
     47750       383  PMPE      C315           55.6815645206       32.6407397664        0.7178816305  MEMB      383             0.0000000000
     47751       383  PMPE      H15X           54.7589797847       32.9631163868        0.2352462052  MEMB      383             0.0000000000
     47752       383  PMPE      H15Y           55.8046979306       33.5769971337        1.0630995077  MEMB      383             0.0000000000
     47753       383  PMPE      C316           55.5077640601       31.8006444100        1.6919980999  MEMB      383             0.0000000000
     47754       383  PMPE      H16X           55.5474328399       31.0727414786        2.3244740977  MEMB      383             0.0000000000
     47755       383  PMPE      H16Y           54.7939137798       31.0769805147        1.2064339879  MEMB      383             0.0000000000
     47756       383  PMPE      H16Z           55.2428773110       32.2854396438        2.4996526172  MEMB      383             0.0000000000
     47757       384  PMPE      N             -31.9039763546      -54.4531111544      -21.2219170361  MEMB      384             0.0000000000
     47758       384  PMPE      HN1           -32.8343815692      -54.4217312095      -21.6991434347  MEMB      384             0.0000000000
     47759       384  PMPE      HN2           -31.9232900921      -53.8566324025      -20.3720584668  MEMB      384             0.0000000000
     47760       384  PMPE      HN3           -31.1321013647      -54.1256269691      -21.8193364258  MEMB      384             0.0000000000
     47761       384  PMPE      C12           -31.5032599190      -55.8556738467      -20.9344625659  MEMB      384             0.0000000000
     47762       384  PMPE      H12A          -30.5259288231      -55.8562659438      -20.4047105205  MEMB      384             0.0000000000
     47763       384  PMPE      H12B          -31.3677723807      -56.3462010209      -21.9189702183  MEMB      384             0.0000000000
     47764       384  PMPE      C11           -32.5923581190      -56.5478688400      -20.1314170712  MEMB      384             0.0000000000
     47765       384  PMPE      H11A          -32.3220646388      -57.5570526094      -19.8467500549  MEMB      384             0.0000000000
     47766       384  PMPE      H11B          -33.5171852927      -56.6855443067      -20.7121104943  MEMB      384             0.0000000000
     47767       384  PMPE      P             -33.9249270596      -56.3741954739      -17.9217251608  MEMB      384             0.0000000000
     47768       384  PMPE      O13           -33.3214596292      -57.5270870844      -17.2132152494  MEMB      384             0.0000000000
     47769       384  PMPE      O14           -35.1659057415      -56.6626147294      -18.6703920825  MEMB      384             0.0000000000
     47770       384  PMPE      O11           -34.0216192279      -55.0820127404      -17.0284261824  MEMB      384             0.0000000000
     47771       384  PMPE      O12           -32.8297889630      -55.8399368420      -18.9469545419  MEMB      384             0.0000000000
     47772       384  PMPE      C1            -34.8975243461      -54.9954945288      -15.9014006388  MEMB      384             0.0000000000
     47773       384  PMPE      HA            -35.4449513784      -55.9408000844      -15.7197313407  MEMB      384             0.0000000000
     47774       384  PMPE      HB            -35.6506559184      -54.1747318550      -16.0473513423  MEMB      384             0.0000000000
     47775       384  PMPE      C2            -34.1107176169      -54.6369468605      -14.6131501139  MEMB      384             0.0000000000
     47776       384  PMPE      HS            -33.8408664592      -53.5742984019      -14.8166478145  MEMB      384             0.0000000000
     47777       384  PMPE      O21           -32.9585577840      -55.4708699882      -14.4205703938  MEMB      384             0.0000000000
     47778       384  PMPE      C21           -31.8259897175      -55.0174633791      -14.9012207405  MEMB      384             0.0000000000
     47779       384  PMPE      O22           -31.6308364372      -53.9490113182      -15.4529791875  MEMB      384             0.0000000000
     47780       384  PMPE      C22           -30.7231000935      -56.0261098341      -14.5936474834  MEMB      384             0.0000000000
     47781       384  PMPE      H2R           -29.8739897183      -55.8391982739      -15.2818473584  MEMB      384             0.0000000000
     47782       384  PMPE      H2S           -31.1026623100      -57.0612396707      -14.7511209803  MEMB      384             0.0000000000
     47783       384  PMPE      C3            -34.9386478179      -54.7131592872      -13.3004066946  MEMB      384             0.0000000000
     47784       384  PMPE      HX            -35.0385014408      -55.7798383841      -12.9777945068  MEMB      384             0.0000000000
     47785       384  PMPE      HY            -35.9552533566      -54.3105016272      -13.5067972190  MEMB      384             0.0000000000
     47786       384  PMPE      O31           -34.2810117937      -53.8991841064      -12.3055204514  MEMB      384             0.0000000000
     47787       384  PMPE      C31           -34.6070013965      -54.0866279224      -11.0424889245  MEMB      384             0.0000000000
     47788       384  PMPE      O32           -35.2653064522      -55.0147691993      -10.6083175712  MEMB      384             0.0000000000
     47789       384  PMPE      C32           -34.0403607917      -52.9508484353      -10.1939078504  MEMB      384             0.0000000000
     47790       384  PMPE      H2X           -34.8486158819      -52.2345847631       -9.9115426761  MEMB      384             0.0000000000
     47791       384  PMPE      H2Y           -33.2360199662      -52.4607556992      -10.7929532926  MEMB      384             0.0000000000
     47792       384  PMPE      C23           -30.1797025230      -55.8762686653      -13.1555438595  MEMB      384             0.0000000000
     47793       384  PMPE      H3R           -29.8476308764      -54.8458341304      -12.8947252997  MEMB      384             0.0000000000
     47794       384  PMPE      H3S           -29.2664930498      -56.5033308386      -13.1191063098  MEMB      384             0.0000000000
     47795       384  PMPE      C24           -31.1512334470      -56.4843215335      -12.1404062767  MEMB      384             0.0000000000
     47796       384  PMPE      H4R           -31.3926286289      -57.5280640884      -12.4710838812  MEMB      384             0.0000000000
     47797       384  PMPE      H4S           -32.0967381600      -55.9005787518      -12.0984792699  MEMB      384             0.0000000000
     47798       384  PMPE      C25           -30.6366055945      -56.5211413190      -10.7094913792  MEMB      384             0.0000000000
     47799       384  PMPE      H5R           -30.4352695302      -55.4972174342      -10.3208489339  MEMB      384             0.0000000000
     47800       384  PMPE      H5S           -29.7003619957      -57.1277125906      -10.6757900038  MEMB      384             0.0000000000
     47801       384  PMPE      C26           -31.6909401102      -57.1154359266       -9.7778314584  MEMB      384             0.0000000000
     47802       384  PMPE      H6R           -31.9876290617      -58.1211070180      -10.1495194532  MEMB      384             0.0000000000
     47803       384  PMPE      H6S           -32.6001014322      -56.4853722963       -9.6481082547  MEMB      384             0.0000000000
     47804       384  PMPE      C27           -31.1507629225      -57.2813915751       -8.3726694751  MEMB      384             0.0000000000
     47805       384  PMPE      H7R           -30.6098816227      -56.3569552381       -8.0770028311  MEMB      384             0.0000000000
     47806       384  PMPE      H7S           -30.3786758094      -58.0713309885       -8.4759944695  MEMB      384             0.0000000000
     47807       384  PMPE      C28           -32.3083727036      -57.5531131697       -7.3808832094  MEMB      384             0.0000000000
     47808       384  PMPE      H8R           -33.0474134300      -58.2780949359       -7.7864259814  MEMB      384             0.0000000000
     47809       384  PMPE      H8S           -32.8242041215      -56.5884007158       -7.1647451535  MEMB      384             0.0000000000
     47810       384  PMPE      C29           -31.8230941069      -57.9944597441       -6.0244652377  MEMB      384             0.0000000000
     47811       384  PMPE      H9R           -31.1336633839      -57.3100655604       -5.5094134885  MEMB      384             0.0000000000
     47812       384  PMPE      C217          -31.4288194467      -59.4587351950       -6.0204940545  MEMB      384             0.0000000000
     47813       384  PMPE      H17R          -30.4184614356      -59.5191618159       -5.6348126401  MEMB      384             0.0000000000
     47814       384  PMPE      H17S          -31.8188576624      -60.1158611575       -6.7836416494  MEMB      384             0.0000000000
     47815       384  PMPE      C210          -32.5637652316      -58.9515386775       -5.1251584802  MEMB      384             0.0000000000
     47816       384  PMPE      H10R          -32.3080270395      -58.7743681319       -4.0686477924  MEMB      384             0.0000000000
     47817       384  PMPE      C211          -34.0484378002      -59.1884939405       -5.4858211940  MEMB      384             0.0000000000
     47818       384  PMPE      H11R          -34.4896920395      -59.9831069104       -4.8540441840  MEMB      384             0.0000000000
     47819       384  PMPE      H11S          -34.1418314660      -59.5318872517       -6.5241561868  MEMB      384             0.0000000000
     47820       384  PMPE      C212          -34.9795115226      -57.9801679767       -5.4402686962  MEMB      384             0.0000000000
     47821       384  PMPE      H12R          -36.0513684396      -58.2833017140       -5.5788488947  MEMB      384             0.0000000000
     47822       384  PMPE      H12S          -34.6691936463      -57.2695233938       -6.2457591407  MEMB      384             0.0000000000
     47823       384  PMPE      C213          -34.9671843827      -57.2953718053       -4.0924179881  MEMB      384             0.0000000000
     47824       384  PMPE      H13R          -34.1005563038      -56.6117269934       -4.0915526333  MEMB      384             0.0000000000
     47825       384  PMPE      H13S          -34.9139486127      -57.9889871346       -3.2237373322  MEMB      384             0.0000000000
     47826       384  PMPE      C214          -36.2127901952      -56.4497798542       -3.9325665177  MEMB      384             0.0000000000
     47827       384  PMPE      H14R          -36.9246445965      -56.9403331958       -3.2457253105  MEMB      384             0.0000000000
     47828       384  PMPE      H14S          -36.6723956585      -56.3358897696       -4.9433260257  MEMB      384             0.0000000000
     47829       384  PMPE      C215          -35.9857176535      -55.1011040567       -3.2600382521  MEMB      384             0.0000000000
     47830       384  PMPE      H15R          -36.9993110215      -54.6276349693       -3.1916188417  MEMB      384             0.0000000000
     47831       384  PMPE      H15S          -35.3413241933      -54.5209421619       -3.9423714483  MEMB      384             0.0000000000
     47832       384  PMPE      C216          -35.3686171657      -55.1571149884       -1.8532127684  MEMB      384             0.0000000000
     47833       384  PMPE      H16R          -34.2854195580      -55.3771247772       -1.7882075694  MEMB      384             0.0000000000
     47834       384  PMPE      H16S          -35.5931263622      -54.2138059350       -1.2919436126  MEMB      384             0.0000000000
     47835       384  PMPE      H16T          -35.7762710937      -56.0528923730       -1.3564395979  MEMB      384             0.0000000000
     47836       384  PMPE      C33           -33.5628701446      -53.5845744905       -8.8832845327  MEMB      384             0.0000000000
     47837       384  PMPE      H3X           -33.0076433355      -54.5310814716       -9.0327733052  MEMB      384             0.0000000000
     47838       384  PMPE      H3Y           -34.4277652451      -53.8488861697       -8.2532862349  MEMB      384             0.0000000000
     47839       384  PMPE      C34           -32.7618334540      -52.7192694710       -7.9721314529  MEMB      384             0.0000000000
     47840       384  PMPE      H4X           -33.2558798895      -51.7320275400       -7.8057757740  MEMB      384             0.0000000000
     47841       384  PMPE      H4Y           -31.8137303979      -52.5601896888       -8.5029374461  MEMB      384             0.0000000000
     47842       384  PMPE      C35           -32.4558879852      -53.5181020325       -6.6910473150  MEMB      384             0.0000000000
     47843       384  PMPE      H5X           -31.9839612157      -54.4648472496       -6.9835098728  MEMB      384             0.0000000000
     47844       384  PMPE      H5Y           -33.3991077217      -53.6248235227       -6.1236028206  MEMB      384             0.0000000000
     47845       384  PMPE      C36           -31.6116597333      -52.8513591458       -5.6969263387  MEMB      384             0.0000000000
     47846       384  PMPE      H6X           -32.2302853826      -51.9234130965       -5.5624808889  MEMB      384             0.0000000000
     47847       384  PMPE      H6Y           -30.6072802708      -52.6327827956       -6.0834819411  MEMB      384             0.0000000000
     47848       384  PMPE      C37           -30.9389096294      -53.5151359060       -4.5354175278  MEMB      384             0.0000000000
     47849       384  PMPE      H7X           -30.3924199589      -52.7797765873       -4.0088845862  MEMB      384             0.0000000000
     47850       384  PMPE      H7Y           -30.1097298044      -54.1237740308       -4.9225087610  MEMB      384             0.0000000000
     47851       384  PMPE      C38           -31.8675035770      -54.0731127798       -3.5357693242  MEMB      384             0.0000000000
     47852       384  PMPE      H8X           -32.4657837395      -54.8250973945       -4.0830771851  MEMB      384             0.0000000000
     47853       384  PMPE      H8Y           -32.5203141916      -53.2733053478       -3.1395188524  MEMB      384             0.0000000000
     47854       384  PMPE      C39           -31.1902049869      -54.6829286400       -2.3347988612  MEMB      384             0.0000000000
     47855       384  PMPE      H9X           -32.0187417107      -55.0403912740       -1.6979636004  MEMB      384             0.0000000000
     47856       384  PMPE      H9Y           -30.6477399171      -53.9840480455       -1.7024106063  MEMB      384             0.0000000000
     47857       384  PMPE      C310          -30.3418774734      -55.8527282735       -2.7526232452  MEMB      384             0.0000000000
     47858       384  PMPE      H10X          -29.3104155291      -55.5470282001       -3.0087705596  MEMB      384             0.0000000000
     47859       384  PMPE      H10Y          -30.8773802265      -56.3229364965       -3.6163103856  MEMB      384             0.0000000000
     47860       384  PMPE      C311          -30.3471371378      -56.8886325398       -1.6944508981  MEMB      384             0.0000000000
     47861       384  PMPE      H11X          -29.7405365974      -57.7670962971       -2.0201303352  MEMB      384             0.0000000000
     47862       384  PMPE      H11Y          -31.4346501876      -57.1298464407       -1.6881726067  MEMB      384             0.0000000000
     47863       384  PMPE      C312          -29.9117203164      -56.3801798194       -0.3587160669  MEMB      384             0.0000000000
     47864       384  PMPE      H12X          -30.4295823062      -55.5404166674        0.1304896838  MEMB      384             0.0000000000
     47865       384  PMPE      H12Y          -28.9051795148      -56.2038712177       -0.4584233254  MEMB      384             0.0000000000
     47866       384  PMPE      C313          -29.8834364395      -57.3966619785        0.5204491555  MEMB      384             0.0000000000
     47867       384  PMPE      H13X          -29.8420010938      -56.8282195722        1.4194473177  MEMB      384             0.0000000000
     47868       384  PMPE      H13Y          -28.9548793637      -57.9957167589        0.4704723379  MEMB      384             0.0000000000
     47869       384  PMPE      C314          -31.1525232580      -58.0829897073        0.1233750951  MEMB      384             0.0000000000
     47870       384  PMPE      H14X          -30.6628538529      -58.9243406954        0.6328497949  MEMB      384             0.0000000000
     47871       384  PMPE      H14Y          -31.2296570344      -59.0421630662       -0.3300952643  MEMB      384             0.0000000000
     47872       384  PMPE      C315          -32.9472010875      -57.3971530113        0.4501219314  MEMB      384             0.0000000000
     47873       384  PMPE      H15X          -32.3704260553      -56.5482904499        0.3727780322  MEMB      384             0.0000000000
     47874       384  PMPE      H15Y          -33.4337053307      -57.4348966157        1.5133217590  MEMB      384             0.0000000000
     47875       384  PMPE      C316          -33.8572758217      -58.6468235013        0.3279870174  MEMB      384             0.0000000000
     47876       384  PMPE      H16X          -33.9239205125      -58.5062391527       -0.6922615189  MEMB      384             0.0000000000
     47877       384  PMPE      H16Y          -34.7550600234      -58.4672527153        1.0121147012  MEMB      384             0.0000000000
     47878       384  PMPE      H16Z          -33.5129961479      -59.6985082603        0.6059221503  MEMB      384             0.0000000000
     47879       385  PMPE      N              39.4725190725       56.4413841060      -19.7542208021  MEMB      385             0.0000000000
     47880       385  PMPE      HN1            38.9758330363       56.6386990949      -18.8755033043  MEMB      385             0.0000000000
     47881       385  PMPE      HN2            40.4977466070       56.3952019374      -19.7930635194  MEMB      385             0.0000000000
     47882       385  PMPE      HN3            39.4036764625       57.3757872689      -20.2387205296  MEMB      385             0.0000000000
     47883       385  PMPE      C12            38.8581255238       55.3342560447      -20.6726738553  MEMB      385             0.0000000000
     47884       385  PMPE      H12A           39.5853576705       55.1491640781      -21.4526760948  MEMB      385             0.0000000000
     47885       385  PMPE      H12B           37.9636875218       55.6996040418      -21.2537401523  MEMB      385             0.0000000000
     47886       385  PMPE      C11            38.6635595303       54.1181246537      -19.8620437155  MEMB      385             0.0000000000
     47887       385  PMPE      H11A           39.6120980107       53.9588196326      -19.3049862292  MEMB      385             0.0000000000
     47888       385  PMPE      H11B           38.4391930982       53.2133293859      -20.4698708778  MEMB      385             0.0000000000
     47889       385  PMPE      P              36.7499270926       53.4394326879      -18.2298033221  MEMB      385             0.0000000000
     47890       385  PMPE      O13            35.8435121306       52.7452703600      -19.1752312004  MEMB      385             0.0000000000
     47891       385  PMPE      O14            36.0886695308       54.1710996186      -17.1442779229  MEMB      385             0.0000000000
     47892       385  PMPE      O11            37.8545790692       52.4478544332      -17.6660961339  MEMB      385             0.0000000000
     47893       385  PMPE      O12            37.6304476371       54.4798299939      -18.9899574389  MEMB      385             0.0000000000
     47894       385  PMPE      C1             38.8775599254       52.8429903346      -16.7375124464  MEMB      385             0.0000000000
     47895       385  PMPE      HA             39.1264794925       53.9339621265      -16.7481852553  MEMB      385             0.0000000000
     47896       385  PMPE      HB             39.8209011372       52.3231498385      -17.0309507764  MEMB      385             0.0000000000
     47897       385  PMPE      C2             38.5357586725       52.3444254267      -15.2957032276  MEMB      385             0.0000000000
     47898       385  PMPE      HS             38.6619660319       51.2475581123      -15.3744039123  MEMB      385             0.0000000000
     47899       385  PMPE      O21            37.1787081446       52.6320160048      -14.9803501863  MEMB      385             0.0000000000
     47900       385  PMPE      C21            36.6881429765       52.0953762964      -13.9198357557  MEMB      385             0.0000000000
     47901       385  PMPE      O22            37.1582641655       51.2240204660      -13.2120127069  MEMB      385             0.0000000000
     47902       385  PMPE      C22            35.3583531396       52.6381733394      -13.7269968687  MEMB      385             0.0000000000
     47903       385  PMPE      H2R            34.8379086014       51.7364867890      -13.2822066772  MEMB      385             0.0000000000
     47904       385  PMPE      H2S            34.8937745097       52.9678810721      -14.7062919583  MEMB      385             0.0000000000
     47905       385  PMPE      C3             39.4420390203       52.9432911184      -14.1870719034  MEMB      385             0.0000000000
     47906       385  PMPE      HX             40.4979312284       52.7780027074      -14.5284210833  MEMB      385             0.0000000000
     47907       385  PMPE      HY             39.2905105918       52.4175376322      -13.2195917642  MEMB      385             0.0000000000
     47908       385  PMPE      O31            39.1282006913       54.3446986645      -14.0259180990  MEMB      385             0.0000000000
     47909       385  PMPE      C31            38.6496973208       54.7406719162      -12.8297530922  MEMB      385             0.0000000000
     47910       385  PMPE      O32            38.5048223885       54.0485022693      -11.8424719707  MEMB      385             0.0000000000
     47911       385  PMPE      C32            38.3501194391       56.2319002771      -12.8805904254  MEMB      385             0.0000000000
     47912       385  PMPE      H2X            37.3633344320       56.4163619151      -13.3458399736  MEMB      385             0.0000000000
     47913       385  PMPE      H2Y            39.1433294877       56.6778688485      -13.5072513590  MEMB      385             0.0000000000
     47914       385  PMPE      C23            35.2174128412       53.8569756128      -12.7682100443  MEMB      385             0.0000000000
     47915       385  PMPE      H3R            35.9273414873       54.5646134755      -13.1538845965  MEMB      385             0.0000000000
     47916       385  PMPE      H3S            35.4539696147       53.5942338504      -11.7230726424  MEMB      385             0.0000000000
     47917       385  PMPE      C24            34.0059582982       54.8047550686      -12.9541787458  MEMB      385             0.0000000000
     47918       385  PMPE      H4R            33.5357967962       54.7335138375      -13.9540215255  MEMB      385             0.0000000000
     47919       385  PMPE      H4S            33.9122973751       55.7571572504      -12.4652216159  MEMB      385             0.0000000000
     47920       385  PMPE      C25            33.0147218092       54.7567188403      -11.9314575677  MEMB      385             0.0000000000
     47921       385  PMPE      H5R            33.3580567033       53.7146197902      -11.9648923369  MEMB      385             0.0000000000
     47922       385  PMPE      H5S            31.9423811847       54.8785961439      -12.2740117813  MEMB      385             0.0000000000
     47923       385  PMPE      C26            33.2896318819       54.4037257465      -10.5812022375  MEMB      385             0.0000000000
     47924       385  PMPE      H6R            34.1514006518       53.5882734768      -10.4305888187  MEMB      385             0.0000000000
     47925       385  PMPE      H6S            32.1891116289       54.2179798520      -10.1133832459  MEMB      385             0.0000000000
     47926       385  PMPE      C27            33.4573471580       55.2520300153       -9.6651356043  MEMB      385             0.0000000000
     47927       385  PMPE      H7R            32.6180837090       55.8528046758      -10.0073840228  MEMB      385             0.0000000000
     47928       385  PMPE      H7S            34.4357097902       55.3897203753      -10.0819101818  MEMB      385             0.0000000000
     47929       385  PMPE      C28            33.4367261173       54.8808323283       -8.2225443359  MEMB      385             0.0000000000
     47930       385  PMPE      H8R            33.7571866727       55.7463884253       -7.7332452492  MEMB      385             0.0000000000
     47931       385  PMPE      H8S            34.0994094700       53.9906257758       -8.0347980086  MEMB      385             0.0000000000
     47932       385  PMPE      C29            32.0432789223       54.6699687891       -7.7668126464  MEMB      385             0.0000000000
     47933       385  PMPE      H9R            31.2779426855       54.3880748820       -8.5122425367  MEMB      385             0.0000000000
     47934       385  PMPE      C217           31.6115359432       55.9431550094       -7.4587451600  MEMB      385             0.0000000000
     47935       385  PMPE      H17R           30.8545467259       56.1052406366       -8.2162845905  MEMB      385             0.0000000000
     47936       385  PMPE      H17S           32.1277080051       56.7427162591       -7.1277508048  MEMB      385             0.0000000000
     47937       385  PMPE      C210           31.6230905631       54.8241918354       -6.3428390244  MEMB      385             0.0000000000
     47938       385  PMPE      H10R           30.7472168759       54.2594643208       -6.0020804047  MEMB      385             0.0000000000
     47939       385  PMPE      C211           32.6364704666       54.9073312639       -5.2543129613  MEMB      385             0.0000000000
     47940       385  PMPE      H11R           32.2036100899       55.4751511053       -4.4630833196  MEMB      385             0.0000000000
     47941       385  PMPE      H11S           33.5297433964       55.4321052340       -5.6176177755  MEMB      385             0.0000000000
     47942       385  PMPE      C212           33.1030155898       53.5977344088       -4.6713245100  MEMB      385             0.0000000000
     47943       385  PMPE      H12R           33.7922876288       53.4298928157       -5.4733115029  MEMB      385             0.0000000000
     47944       385  PMPE      H12S           32.3684858593       52.7557089254       -4.6253463644  MEMB      385             0.0000000000
     47945       385  PMPE      C213           33.9098763731       53.8983047295       -3.4200994907  MEMB      385             0.0000000000
     47946       385  PMPE      H13R           33.2549605039       54.1448918800       -2.6090088766  MEMB      385             0.0000000000
     47947       385  PMPE      H13S           34.8069927102       54.4624851956       -3.6536176789  MEMB      385             0.0000000000
     47948       385  PMPE      C214           34.6771778807       52.9569139050       -2.7195338442  MEMB      385             0.0000000000
     47949       385  PMPE      H14R           35.7190001509       52.8135865684       -3.1577938322  MEMB      385             0.0000000000
     47950       385  PMPE      H14S           33.8648851856       52.2053566515       -3.3299289259  MEMB      385             0.0000000000
     47951       385  PMPE      C215           35.0672174836       52.6291774846       -0.9450899104  MEMB      385             0.0000000000
     47952       385  PMPE      H15R           34.0981348486       52.8227089087       -0.4524278407  MEMB      385             0.0000000000
     47953       385  PMPE      H15S           35.6759725986       53.4084866699       -0.9925079178  MEMB      385             0.0000000000
     47954       385  PMPE      C216           36.0242587815       51.1390262734       -0.3154794058  MEMB      385             0.0000000000
     47955       385  PMPE      H16R           36.9432387391       50.9189932466       -0.8264288230  MEMB      385             0.0000000000
     47956       385  PMPE      H16S           36.0439290796       50.5492644884        0.4780261899  MEMB      385             0.0000000000
     47957       385  PMPE      H16T           35.3586268010       50.1764195913       -0.3105908454  MEMB      385             0.0000000000
     47958       385  PMPE      C33            38.3688245076       56.8697742937      -11.4831263773  MEMB      385             0.0000000000
     47959       385  PMPE      H3X            38.5532938882       57.9547110027      -11.6003635537  MEMB      385             0.0000000000
     47960       385  PMPE      H3Y            39.2207762934       56.4415573469      -10.9151532468  MEMB      385             0.0000000000
     47961       385  PMPE      C34            37.0400743052       56.7028071044      -10.7443750139  MEMB      385             0.0000000000
     47962       385  PMPE      H4X            36.7770445527       55.6278096133      -10.7765587075  MEMB      385             0.0000000000
     47963       385  PMPE      H4Y            36.2338944916       57.2681092714      -11.2523836233  MEMB      385             0.0000000000
     47964       385  PMPE      C35            37.0742468797       57.1298881973       -9.2909739540  MEMB      385             0.0000000000
     47965       385  PMPE      H5X            36.0330906294       57.2830531028       -8.9414665832  MEMB      385             0.0000000000
     47966       385  PMPE      H5Y            37.6323051862       58.0849195209       -9.2459935868  MEMB      385             0.0000000000
     47967       385  PMPE      C36            37.7086895472       56.0112226276       -8.4520388714  MEMB      385             0.0000000000
     47968       385  PMPE      H6X            38.7457339811       55.8723998594       -8.8071865424  MEMB      385             0.0000000000
     47969       385  PMPE      H6Y            37.1007289468       55.1212227973       -8.4935579478  MEMB      385             0.0000000000
     47970       385  PMPE      C37            37.7523892783       56.0277686734       -6.9627864609  MEMB      385             0.0000000000
     47971       385  PMPE      H7X            37.9843367254       56.9067763886       -7.1772012102  MEMB      385             0.0000000000
     47972       385  PMPE      H7Y            38.6833959462       55.7890917628       -6.4469504173  MEMB      385             0.0000000000
     47973       385  PMPE      C38            36.5079398472       56.2393457420       -6.1714440515  MEMB      385             0.0000000000
     47974       385  PMPE      H8X            35.9728205958       55.3737012853       -6.1912133803  MEMB      385             0.0000000000
     47975       385  PMPE      H8Y            35.8854634473       57.1279120272       -6.4860672241  MEMB      385             0.0000000000
     47976       385  PMPE      C39            36.7716566176       56.3231967152       -4.7656998767  MEMB      385             0.0000000000
     47977       385  PMPE      H9X            36.0109835947       57.0403563673       -4.2955034895  MEMB      385             0.0000000000
     47978       385  PMPE      H9Y            37.7493767895       56.8792580371       -5.1406806304  MEMB      385             0.0000000000
     47979       385  PMPE      C310           37.6082857202       55.3993604014       -3.7651877053  MEMB      385             0.0000000000
     47980       385  PMPE      H10X           38.5626005342       55.2764055070       -4.2176533636  MEMB      385             0.0000000000
     47981       385  PMPE      H10Y           36.8176501384       54.7698670628       -3.4648685122  MEMB      385             0.0000000000
     47982       385  PMPE      C311           38.1485655396       55.5545013772       -2.2798890425  MEMB      385             0.0000000000
     47983       385  PMPE      H11X           37.1751782219       55.6749330245       -1.6223609529  MEMB      385             0.0000000000
     47984       385  PMPE      H11Y           38.9398181735       56.5483861490       -2.2595878156  MEMB      385             0.0000000000
     47985       385  PMPE      C312           39.3029262706       55.2907169920       -1.6179955066  MEMB      385             0.0000000000
     47986       385  PMPE      H12X           40.1520073178       55.4289927619       -2.3136570731  MEMB      385             0.0000000000
     47987       385  PMPE      H12Y           38.9665901780       54.2865965192       -1.5056169010  MEMB      385             0.0000000000
     47988       385  PMPE      C313           39.5074807782       56.0959887294       -0.3162739178  MEMB      385             0.0000000000
     47989       385  PMPE      H13X           39.6164987038       57.2002684162       -0.4810228041  MEMB      385             0.0000000000
     47990       385  PMPE      H13Y           40.4926242624       55.6809481116       -0.0579183439  MEMB      385             0.0000000000
     47991       385  PMPE      C314           38.4613699012       55.7319466133        0.7318674218  MEMB      385             0.0000000000
     47992       385  PMPE      H14X           38.5115179153       54.6557937267        0.9190588013  MEMB      385             0.0000000000
     47993       385  PMPE      H14Y           37.4691360980       56.1953096278        0.5644023370  MEMB      385             0.0000000000
     47994       385  PMPE      C315           38.6550230284       56.1809300537        2.0779100495  MEMB      385             0.0000000000
     47995       385  PMPE      H15X           39.6721998912       55.7610301484        2.3201175413  MEMB      385             0.0000000000
     47996       385  PMPE      H15Y           38.0971505302       55.8346452700        2.9488595809  MEMB      385             0.0000000000
     47997       385  PMPE      C316           38.4346944124       57.6613961654        1.9472645972  MEMB      385             0.0000000000
     47998       385  PMPE      H16X           39.2417240229       58.1212592564        1.3053952631  MEMB      385             0.0000000000
     47999       385  PMPE      H16Y           38.4851264409       57.8438941339        3.1090884085  MEMB      385             0.0000000000
     48000       385  PMPE      H16Z           37.8590878900       58.5230057466        1.9171845758  MEMB      385             0.0000000000
     48001       386  POPE      N              39.9423251416      -51.7921212837      -16.9491201555  MEMB      386             0.0000000000
     48002       386  POPE      HN1            39.1499464658      -51.4682484118      -16.3510778504  MEMB      386             0.0000000000
     48003       386  POPE      HN2            40.0994004499      -52.8119492049      -16.8551890254  MEMB      386             0.0000000000
     48004       386  POPE      HN3            40.7929340376      -51.2516656936      -16.6693117137  MEMB      386             0.0000000000
     48005       386  POPE      C12            39.6132884007      -51.5494259633      -18.3996587703  MEMB      386             0.0000000000
     48006       386  POPE      H12A           39.7428464531      -50.4698351658      -18.6148061241  MEMB      386             0.0000000000
     48007       386  POPE      H12B           38.5579735542      -51.8450474693      -18.5793165774  MEMB      386             0.0000000000
     48008       386  POPE      C11            40.5626541304      -52.2983704940      -19.3421961757  MEMB      386             0.0000000000
     48009       386  POPE      H11A           40.0971394057      -52.3177674096      -20.3591890308  MEMB      386             0.0000000000
     48010       386  POPE      H11B           40.7176612448      -53.3577750460      -19.0399938843  MEMB      386             0.0000000000
     48011       386  POPE      P              43.1782325182      -52.3294762608      -19.5721539673  MEMB      386             0.0000000000
     48012       386  POPE      O13            44.3379420811      -51.4090669736      -19.7047235258  MEMB      386             0.0000000000
     48013       386  POPE      O14            42.9477822151      -53.3844612974      -20.5843620875  MEMB      386             0.0000000000
     48014       386  POPE      O11            43.2971970848      -53.0656462487      -18.1642163764  MEMB      386             0.0000000000
     48015       386  POPE      O12            41.7861242411      -51.5694773526      -19.3854225446  MEMB      386             0.0000000000
     48016       386  POPE      C1             44.4509754458      -53.8730911517      -17.9401938541  MEMB      386             0.0000000000
     48017       386  POPE      HA             45.2566177558      -53.7927163007      -18.7222736783  MEMB      386             0.0000000000
     48018       386  POPE      HB             44.1394432677      -54.9322929204      -17.9458729276  MEMB      386             0.0000000000
     48019       386  POPE      C2             45.0980580579      -53.5984607350      -16.5844854361  MEMB      386             0.0000000000
     48020       386  POPE      HS             46.1548538728      -53.8309044328      -16.7309881722  MEMB      386             0.0000000000
     48021       386  POPE      O21            44.3881595509      -54.4540387716      -15.6470724590  MEMB      386             0.0000000000
     48022       386  POPE      C21            44.7647742804      -54.6485955088      -14.4325227016  MEMB      386             0.0000000000
     48023       386  POPE      O22            45.5938443006      -54.0364361901      -13.8528811046  MEMB      386             0.0000000000
     48024       386  POPE      C22            43.9993605123      -55.5350332414      -13.5916372684  MEMB      386             0.0000000000
     48025       386  POPE      H2R            44.5116640987      -55.9789945148      -12.7706869316  MEMB      386             0.0000000000
     48026       386  POPE      H2S            43.5672522533      -56.3907180731      -14.0712194482  MEMB      386             0.0000000000
     48027       386  POPE      C3             45.1085499026      -52.1184715446      -16.1901229230  MEMB      386             0.0000000000
     48028       386  POPE      HX             45.4676441159      -51.5603068455      -17.1076966239  MEMB      386             0.0000000000
     48029       386  POPE      HY             45.8766627661      -52.0098326716      -15.3939493773  MEMB      386             0.0000000000
     48030       386  POPE      O31            43.8175025783      -51.7598399829      -15.6840818626  MEMB      386             0.0000000000
     48031       386  POPE      C31            43.5307156396      -50.5067849095      -15.7002672434  MEMB      386             0.0000000000
     48032       386  POPE      O32            44.2435515318      -49.6235945659      -16.1380759506  MEMB      386             0.0000000000
     48033       386  POPE      C32            42.1858077542      -50.3574785707      -14.9999253103  MEMB      386             0.0000000000
     48034       386  POPE      H2X            41.8194569945      -51.3406607282      -14.6364955121  MEMB      386             0.0000000000
     48035       386  POPE      H2Y            41.4515165175      -49.9290019443      -15.7021678536  MEMB      386             0.0000000000
     48036       386  POPE      C23            43.2329130140      -54.5619456526      -12.7433435257  MEMB      386             0.0000000000
     48037       386  POPE      H3R            42.4892336760      -55.2140639120      -12.2766618659  MEMB      386             0.0000000000
     48038       386  POPE      H3S            42.7464823235      -53.9037916902      -13.4793632579  MEMB      386             0.0000000000
     48039       386  POPE      C24            43.9740747900      -53.8034624784      -11.6027525842  MEMB      386             0.0000000000
     48040       386  POPE      H4R            44.6999321631      -54.4350528920      -11.0550235845  MEMB      386             0.0000000000
     48041       386  POPE      H4S            43.2329355623      -53.4873973482      -10.8490583118  MEMB      386             0.0000000000
     48042       386  POPE      C25            44.6844107752      -52.5331918853      -12.0684837814  MEMB      386             0.0000000000
     48043       386  POPE      H5R            44.1362493252      -52.1570827760      -12.9530599612  MEMB      386             0.0000000000
     48044       386  POPE      H5S            45.7239548800      -52.7442411959      -12.3897853641  MEMB      386             0.0000000000
     48045       386  POPE      C26            44.8349300531      -51.4829957118      -11.0256420685  MEMB      386             0.0000000000
     48046       386  POPE      H6R            45.4804522229      -51.9149615551      -10.2263415162  MEMB      386             0.0000000000
     48047       386  POPE      H6S            43.9268817278      -51.2511114083      -10.5093831146  MEMB      386             0.0000000000
     48048       386  POPE      C27            45.3516090100      -50.1826736263      -11.6479994361  MEMB      386             0.0000000000
     48049       386  POPE      H7R            44.9143418400      -49.8397139844      -12.5894308174  MEMB      386             0.0000000000
     48050       386  POPE      H7S            46.1929074609      -50.7060528695      -12.0232026017  MEMB      386             0.0000000000
     48051       386  POPE      C28            45.8588272908      -49.1162946718      -10.6605272667  MEMB      386             0.0000000000
     48052       386  POPE      H8R            46.4886255096      -48.3315877325      -11.1091237544  MEMB      386             0.0000000000
     48053       386  POPE      H8S            46.3789759420      -49.4872735846       -9.7992120086  MEMB      386             0.0000000000
     48054       386  POPE      C29            44.7386125690      -48.7513968895       -9.9139329351  MEMB      386             0.0000000000
     48055       386  POPE      H91            44.0336055887      -48.5374262243      -10.6796702563  MEMB      386             0.0000000000
     48056       386  POPE      C210           44.3862867460      -48.9931852800       -8.6669438461  MEMB      386             0.0000000000
     48057       386  POPE      H101           43.3729477046      -48.8039124547       -8.4332256126  MEMB      386             0.0000000000
     48058       386  POPE      C211           45.1380167705      -49.7627892664       -7.6650424290  MEMB      386             0.0000000000
     48059       386  POPE      H11R           45.9852100206      -49.1883289120       -7.2533675759  MEMB      386             0.0000000000
     48060       386  POPE      H11S           45.5952762536      -50.5489321826       -8.2719114745  MEMB      386             0.0000000000
     48061       386  POPE      C212           44.4441754533      -50.4826293261       -6.4999431375  MEMB      386             0.0000000000
     48062       386  POPE      H12R           43.7687407218      -49.8420938664       -5.9057471534  MEMB      386             0.0000000000
     48063       386  POPE      H12S           45.2888319299      -50.6990406398       -5.8099946897  MEMB      386             0.0000000000
     48064       386  POPE      C213           43.6744769311      -51.7615703556       -6.8728574991  MEMB      386             0.0000000000
     48065       386  POPE      H13R           44.0293278308      -52.1986862196       -7.8373033755  MEMB      386             0.0000000000
     48066       386  POPE      H13S           42.6014348744      -51.4574995024       -6.9587046311  MEMB      386             0.0000000000
     48067       386  POPE      C214           43.7906991378      -52.8646196264       -5.8027624199  MEMB      386             0.0000000000
     48068       386  POPE      H14R           44.8349493572      -52.8955408848       -5.4228312284  MEMB      386             0.0000000000
     48069       386  POPE      H14S           43.6068089573      -53.8397287776       -6.3158723668  MEMB      386             0.0000000000
     48070       386  POPE      C215           42.7768735432      -52.5921298569       -4.6632401870  MEMB      386             0.0000000000
     48071       386  POPE      H15R           41.7829957490      -52.4657016879       -5.1295621814  MEMB      386             0.0000000000
     48072       386  POPE      H15S           43.0084605770      -51.6191168147       -4.1696040503  MEMB      386             0.0000000000
     48073       386  POPE      C216           42.6553596612      -53.5794111410       -3.4825326077  MEMB      386             0.0000000000
     48074       386  POPE      H16R           41.8812905979      -53.2041890288       -2.7712219798  MEMB      386             0.0000000000
     48075       386  POPE      H16S           43.6345120875      -53.5358813887       -2.9685052461  MEMB      386             0.0000000000
     48076       386  POPE      C217           42.2170114702      -55.0136757460       -3.7981167579  MEMB      386             0.0000000000
     48077       386  POPE      H17R           42.9447435935      -55.4313815751       -4.5243277578  MEMB      386             0.0000000000
     48078       386  POPE      H17S           41.2223423908      -54.9342568346       -4.2825387341  MEMB      386             0.0000000000
     48079       386  POPE      C218           42.1618686906      -55.9328189231       -2.5678965065  MEMB      386             0.0000000000
     48080       386  POPE      H18R           43.1759667333      -56.0062795087       -2.1392730294  MEMB      386             0.0000000000
     48081       386  POPE      H18S           41.8438676414      -56.9638489084       -2.8154477877  MEMB      386             0.0000000000
     48082       386  POPE      H18T           41.4827805786      -55.5686750253       -1.7677705584  MEMB      386             0.0000000000
     48083       386  POPE      C33            42.3298007558      -49.4087994790      -13.8144014308  MEMB      386             0.0000000000
     48084       386  POPE      H3X            42.7276224556      -48.4710398048      -14.1909516408  MEMB      386             0.0000000000
     48085       386  POPE      H3Y            43.0448494572      -49.7869728912      -13.0647043279  MEMB      386             0.0000000000
     48086       386  POPE      C34            41.0167828797      -49.0769676953      -13.1784256804  MEMB      386             0.0000000000
     48087       386  POPE      H4X            40.2713265153      -48.6970542024      -13.9234581200  MEMB      386             0.0000000000
     48088       386  POPE      H4Y            41.0459940515      -48.4869625975      -12.2409937203  MEMB      386             0.0000000000
     48089       386  POPE      C35            40.4620899657      -50.2265149732      -12.5372450844  MEMB      386             0.0000000000
     48090       386  POPE      H5X            40.2844663879      -50.9877781965      -13.2515277505  MEMB      386             0.0000000000
     48091       386  POPE      H5Y            39.4514879315      -49.7577892618      -12.3104650556  MEMB      386             0.0000000000
     48092       386  POPE      C36            41.1904290676      -51.0083650154      -11.3224533168  MEMB      386             0.0000000000
     48093       386  POPE      H6X            41.4637901998      -50.2474013477      -10.6056891538  MEMB      386             0.0000000000
     48094       386  POPE      H6Y            42.0076101352      -51.5593464839      -11.7972589219  MEMB      386             0.0000000000
     48095       386  POPE      C37            40.5350324764      -52.1475182986      -10.4121798965  MEMB      386             0.0000000000
     48096       386  POPE      H7X            40.0904538929      -52.9076237059      -11.1132889122  MEMB      386             0.0000000000
     48097       386  POPE      H7Y            39.7196360763      -51.7514079632       -9.7684931431  MEMB      386             0.0000000000
     48098       386  POPE      C38            40.9675465913      -52.5462732036       -9.1004099626  MEMB      386             0.0000000000
     48099       386  POPE      H8X            41.1427152307      -51.6672530025       -8.4493992954  MEMB      386             0.0000000000
     48100       386  POPE      H8Y            41.8628096966      -52.9296523710       -9.5368033771  MEMB      386             0.0000000000
     48101       386  POPE      C39            40.0383737463      -53.5631090844       -8.4942250043  MEMB      386             0.0000000000
     48102       386  POPE      H9X            40.7508943229      -54.2870989873       -8.0532789017  MEMB      386             0.0000000000
     48103       386  POPE      H9Y            39.4391379756      -54.1463897438       -9.2347172101  MEMB      386             0.0000000000
     48104       386  POPE      C310           39.1956412445      -52.9236335796       -7.4259489184  MEMB      386             0.0000000000
     48105       386  POPE      H10X           38.3754855884      -52.2615107974       -7.7346647316  MEMB      386             0.0000000000
     48106       386  POPE      H10Y           39.7814281648      -52.4809892107       -6.6080557337  MEMB      386             0.0000000000
     48107       386  POPE      C311           38.5456190207      -54.0236843283       -6.9863278794  MEMB      386             0.0000000000
     48108       386  POPE      H11X           39.2548051187      -54.8498597407       -6.5914937867  MEMB      386             0.0000000000
     48109       386  POPE      H11Y           37.5938737772      -54.2581983561       -7.5730768726  MEMB      386             0.0000000000
     48110       386  POPE      C312           37.7710986345      -53.8403096462       -6.0803067908  MEMB      386             0.0000000000
     48111       386  POPE      H12X           36.9464615981      -54.4889301004       -5.7260134541  MEMB      386             0.0000000000
     48112       386  POPE      H12Y           36.9276093442      -53.0920536051       -6.4674159274  MEMB      386             0.0000000000
     48113       386  POPE      C313           38.9323968062      -53.5923953798       -4.8914452117  MEMB      386             0.0000000000
     48114       386  POPE      H13X           39.3365401070      -52.7395764203       -4.6705844749  MEMB      386             0.0000000000
     48115       386  POPE      H13Y           39.3484107231      -54.6506768589       -4.7176487938  MEMB      386             0.0000000000
     48116       386  POPE      C314           38.8565916473      -52.6161368752       -3.2718911477  MEMB      386             0.0000000000
     48117       386  POPE      H14X           37.8615107341      -52.7894420729       -2.8420720712  MEMB      386             0.0000000000
     48118       386  POPE      H14Y           37.9385669713      -52.4393088332       -3.1083678864  MEMB      386             0.0000000000
     48119       386  POPE      C315           39.0431381472      -52.9447823808       -1.7051106029  MEMB      386             0.0000000000
     48120       386  POPE      H15X           39.7121538320      -52.2848516886       -1.9349677205  MEMB      386             0.0000000000
     48121       386  POPE      H15Y           39.1107746983      -53.9664784964       -1.3321405396  MEMB      386             0.0000000000
     48122       386  POPE      C316           38.3745243829      -52.4041256302       -0.6206657628  MEMB      386             0.0000000000
     48123       386  POPE      H16X           38.6447084696      -52.2986927615        0.3918199159  MEMB      386             0.0000000000
     48124       386  POPE      H16Y           37.6539850654      -53.2849638656       -0.4343152267  MEMB      386             0.0000000000
     48125       386  POPE      H16Z           37.9001182964      -51.3893779553       -0.9389618015  MEMB      386             0.0000000000
     48126       387  QMPE      N              56.4314044939      -37.6752406273      -19.1738700874  MEMB      387             0.0000000000
     48127       387  QMPE      HN1            56.3348259870      -38.6827290171      -19.3987558106  MEMB      387             0.0000000000
     48128       387  QMPE      HN2            57.4611777137      -37.4260923974      -19.2290281450  MEMB      387             0.0000000000
     48129       387  QMPE      HN3            56.1318000509      -37.4844790646      -18.2029741211  MEMB      387             0.0000000000
     48130       387  QMPE      C12            55.6193616781      -36.9022281991      -20.2136563934  MEMB      387             0.0000000000
     48131       387  QMPE      H12A           54.7491946140      -37.4861780076      -20.4898018937  MEMB      387             0.0000000000
     48132       387  QMPE      H12B           56.1213225637      -36.7883346346      -21.1789156102  MEMB      387             0.0000000000
     48133       387  QMPE      C11            55.2899474810      -35.4688429438      -19.8366188521  MEMB      387             0.0000000000
     48134       387  QMPE      H11A           54.3599057482      -35.6591262841      -19.2640260424  MEMB      387             0.0000000000
     48135       387  QMPE      H11B           55.0344282839      -34.8820761118      -20.7640466159  MEMB      387             0.0000000000
     48136       387  QMPE      P              55.8170417087      -33.3483736564      -18.5080226732  MEMB      387             0.0000000000
     48137       387  QMPE      O13            54.4003107258      -33.4779368076      -18.1877633497  MEMB      387             0.0000000000
     48138       387  QMPE      O14            56.1371588235      -32.2296049852      -19.4056205180  MEMB      387             0.0000000000
     48139       387  QMPE      O11            56.7402841545      -33.0975043223      -17.2776799311  MEMB      387             0.0000000000
     48140       387  QMPE      O12            56.2924103585      -34.8204035558      -19.0255765369  MEMB      387             0.0000000000
     48141       387  QMPE      C1             56.5464655659      -33.7308691561      -16.0329649810  MEMB      387             0.0000000000
     48142       387  QMPE      HA             57.5345436102      -33.7437243265      -15.5313401060  MEMB      387             0.0000000000
     48143       387  QMPE      HB             56.2005791910      -34.7887511260      -16.0967843860  MEMB      387             0.0000000000
     48144       387  QMPE      C2             55.5255104297      -32.9675411648      -15.1587092238  MEMB      387             0.0000000000
     48145       387  QMPE      HS             54.5014405743      -33.1317491653      -15.5541388124  MEMB      387             0.0000000000
     48146       387  QMPE      O21            55.8612020041      -31.5703791559      -15.1330972264  MEMB      387             0.0000000000
     48147       387  QMPE      C21            54.7858698981      -30.7782433641      -15.0077297163  MEMB      387             0.0000000000
     48148       387  QMPE      O22            53.6410181136      -31.1073312370      -15.0698676400  MEMB      387             0.0000000000
     48149       387  QMPE      C22            55.0473272602      -29.3931127133      -14.6426235171  MEMB      387             0.0000000000
     48150       387  QMPE      H2R            55.0834656857      -28.6332379175      -15.4810095573  MEMB      387             0.0000000000
     48151       387  QMPE      H2S            55.9517908351      -29.5878800210      -14.1020239231  MEMB      387             0.0000000000
     48152       387  QMPE      C3             55.5576886227      -33.5611610528      -13.7309042533  MEMB      387             0.0000000000
     48153       387  QMPE      HX             56.6312084729      -33.4769985201      -13.4889523364  MEMB      387             0.0000000000
     48154       387  QMPE      HY             55.3104898201      -34.6537699506      -13.7492583388  MEMB      387             0.0000000000
     48155       387  QMPE      O31            54.8155643504      -32.7724733483      -12.7683643119  MEMB      387             0.0000000000
     48156       387  QMPE      C31            53.6383976426      -33.2902684419      -12.4168347030  MEMB      387             0.0000000000
     48157       387  QMPE      O32            53.2828501054      -34.4291856952      -12.6482623756  MEMB      387             0.0000000000
     48158       387  QMPE      C32            52.7942916682      -32.3214188219      -11.5807871406  MEMB      387             0.0000000000
     48159       387  QMPE      H2X            53.3144129970      -31.3767727794      -11.4167212512  MEMB      387             0.0000000000
     48160       387  QMPE      H2Y            51.8722316300      -32.1134565728      -12.1651642909  MEMB      387             0.0000000000
     48161       387  QMPE      C23            54.5512226265      -28.7482718085      -13.5169887088  MEMB      387             0.0000000000
     48162       387  QMPE      H3R            53.5215261062      -28.8233145847      -13.7058547719  MEMB      387             0.0000000000
     48163       387  QMPE      H3S            54.7583642236      -27.6828107853      -13.7648367099  MEMB      387             0.0000000000
     48164       387  QMPE      C24            55.1765132813      -29.4347284004      -12.2977145030  MEMB      387             0.0000000000
     48165       387  QMPE      H4R            56.2280779325      -29.0877256947      -12.0971312898  MEMB      387             0.0000000000
     48166       387  QMPE      H4S            55.1541256781      -30.5176358952      -12.3085394540  MEMB      387             0.0000000000
     48167       387  QMPE      C25            54.3105973166      -29.2596732690      -11.2056531090  MEMB      387             0.0000000000
     48168       387  QMPE      H5R            53.2467443289      -29.3019371749      -11.1776268599  MEMB      387             0.0000000000
     48169       387  QMPE      H5S            53.9543491187      -28.2492108590      -11.5457333632  MEMB      387             0.0000000000
     48170       387  QMPE      C26            55.0185781574      -29.6680727519       -9.8265089890  MEMB      387             0.0000000000
     48171       387  QMPE      H6R            55.1746995881      -30.7104772780       -9.9530865416  MEMB      387             0.0000000000
     48172       387  QMPE      H6S            54.2133570663      -29.5868764341       -9.0530743406  MEMB      387             0.0000000000
     48173       387  QMPE      C27            56.4924290961      -29.2155041874       -9.3282098204  MEMB      387             0.0000000000
     48174       387  QMPE      H7R            56.5144834050      -28.1457413957       -8.9671878114  MEMB      387             0.0000000000
     48175       387  QMPE      H7S            57.2336424140      -28.8692837190      -10.0117808919  MEMB      387             0.0000000000
     48176       387  QMPE      C28            57.1774929777      -30.0543138029       -8.2075967451  MEMB      387             0.0000000000
     48177       387  QMPE      H8R            57.3324241151      -30.9947160447       -8.5865123789  MEMB      387             0.0000000000
     48178       387  QMPE      H8S            56.5503018880      -30.3451405495       -7.2964993049  MEMB      387             0.0000000000
     48179       387  QMPE      C29            58.3471754627      -29.2138493975       -7.6454355395  MEMB      387             0.0000000000
     48180       387  QMPE      H9R            58.8895814211      -28.4717002834       -8.2614997522  MEMB      387             0.0000000000
     48181       387  QMPE      C217           59.0182978308      -30.1856300593       -6.7910132784  MEMB      387             0.0000000000
     48182       387  QMPE      H17R           58.5828175751      -31.1618339351       -6.7386401559  MEMB      387             0.0000000000
     48183       387  QMPE      H17S           59.9628087123      -29.9402417792       -6.8915140192  MEMB      387             0.0000000000
     48184       387  QMPE      C210           58.6926401924      -28.9733555611       -6.1642834471  MEMB      387             0.0000000000
     48185       387  QMPE      H10R           59.5862725580      -28.3320967982       -6.0244348649  MEMB      387             0.0000000000
     48186       387  QMPE      C211           58.0413306713      -29.5803686624       -5.0080976050  MEMB      387             0.0000000000
     48187       387  QMPE      H11R           57.3532092544      -30.4226096999       -5.2195879309  MEMB      387             0.0000000000
     48188       387  QMPE      H11S           58.5936367455      -29.8038390715       -4.1467367455  MEMB      387             0.0000000000
     48189       387  QMPE      C212           57.1985154814      -28.6496324916       -4.5018543518  MEMB      387             0.0000000000
     48190       387  QMPE      H12R           56.8378026535      -28.6097318889       -5.4474418091  MEMB      387             0.0000000000
     48191       387  QMPE      H12S           57.4861505272      -27.6343762296       -4.2692921394  MEMB      387             0.0000000000
     48192       387  QMPE      C213           56.2728529813      -29.3648458989       -3.5548394033  MEMB      387             0.0000000000
     48193       387  QMPE      H13R           56.8090453250      -29.4715495098       -2.6546612518  MEMB      387             0.0000000000
     48194       387  QMPE      H13S           55.2478377419      -29.5971871149       -3.8907140650  MEMB      387             0.0000000000
     48195       387  QMPE      C214           55.6145858591      -28.3721114366       -2.4105434077  MEMB      387             0.0000000000
     48196       387  QMPE      H14R           55.1196843824      -29.0781124271       -1.9139401511  MEMB      387             0.0000000000
     48197       387  QMPE      H14S           56.8907544089      -26.3664813525       -2.1123990109  MEMB      387             0.0000000000
     48198       387  QMPE      C215           53.5389620787      -28.3090292140       -1.0782232776  MEMB      387             0.0000000000
     48199       387  QMPE      H15R           52.7612076632      -27.3484325654       -1.0183079372  MEMB      387             0.0000000000
     48200       387  QMPE      H15S           53.1076391498      -29.0365643633        0.1300980214  MEMB      387             0.0000000000
     48201       387  QMPE      C216           51.4854250390      -27.5978720097       -2.9130965513  MEMB      387             0.0000000000
     48202       387  QMPE      H16R           51.8001397140      -27.1858653439       -2.3591310489  MEMB      387             0.0000000000
     48203       387  QMPE      H16S           52.3338607703      -27.8762618609       -2.9666390290  MEMB      387             0.0000000000
     48204       387  QMPE      H16T           50.2414684913      -28.1710678767       -3.5311491501  MEMB      387             0.0000000000
     48205       387  QMPE      C33            52.3547102031      -32.9805689135      -10.2507814969  MEMB      387             0.0000000000
     48206       387  QMPE      H3X            51.9116878476      -33.9764329052      -10.4858768663  MEMB      387             0.0000000000
     48207       387  QMPE      H3Y            51.6515887422      -32.3367187735       -9.6651437019  MEMB      387             0.0000000000
     48208       387  QMPE      C34            53.4885839975      -33.2380987292       -9.2783826877  MEMB      387             0.0000000000
     48209       387  QMPE      H4X            53.7778536976      -32.2465523470       -8.8734261812  MEMB      387             0.0000000000
     48210       387  QMPE      H4Y            54.3533772039      -33.6751622242       -9.8199370806  MEMB      387             0.0000000000
     48211       387  QMPE      C35            53.1283480268      -34.2429799939       -8.1792292283  MEMB      387             0.0000000000
     48212       387  QMPE      H5X            53.3296120446      -35.2396160777       -8.6307559527  MEMB      387             0.0000000000
     48213       387  QMPE      H5Y            52.0427677707      -34.2576128548       -7.9255642231  MEMB      387             0.0000000000
     48214       387  QMPE      C36            53.9929211437      -34.0244955234       -6.9190472927  MEMB      387             0.0000000000
     48215       387  QMPE      H6X            53.7105760093      -33.0814223575       -6.4106921415  MEMB      387             0.0000000000
     48216       387  QMPE      H6Y            55.0591328782      -33.8962405208       -7.1954576947  MEMB      387             0.0000000000
     48217       387  QMPE      C37            53.8517821201      -35.1473732485       -5.8923500791  MEMB      387             0.0000000000
     48218       387  QMPE      H7X            52.8391161374      -35.1831535985       -5.4542745471  MEMB      387             0.0000000000
     48219       387  QMPE      H7Y            54.1419856186      -36.0864939206       -6.3466548770  MEMB      387             0.0000000000
     48220       387  QMPE      C38            54.9366437732      -35.4606265741       -4.8961761018  MEMB      387             0.0000000000
     48221       387  QMPE      H8X            54.5888662560      -36.1760232468       -4.1148193870  MEMB      387             0.0000000000
     48222       387  QMPE      H8Y            55.7589773994      -35.9878844088       -5.4289785531  MEMB      387             0.0000000000
     48223       387  QMPE      C39            55.3868937988      -34.2545359979       -4.1654284323  MEMB      387             0.0000000000
     48224       387  QMPE      H9X            54.4591277951      -33.9243754488       -3.6460967875  MEMB      387             0.0000000000
     48225       387  QMPE      H9Y            55.7292673114      -33.4368611882       -4.8323559004  MEMB      387             0.0000000000
     48226       387  QMPE      C310           56.4738926411      -34.5930102967       -3.1490323106  MEMB      387             0.0000000000
     48227       387  QMPE      H10X           56.1740663373      -35.4132404666       -2.4539090801  MEMB      387             0.0000000000
     48228       387  QMPE      H10Y           56.5418348302      -33.6469127712       -2.5758543916  MEMB      387             0.0000000000
     48229       387  QMPE      C311           57.8324350792      -35.0015432645       -3.7518149022  MEMB      387             0.0000000000
     48230       387  QMPE      H11X           58.3562420961      -34.1383252979       -4.2123796180  MEMB      387             0.0000000000
     48231       387  QMPE      H11Y           57.6710703885      -35.7318694882       -4.5741568745  MEMB      387             0.0000000000
     48232       387  QMPE      C312           58.7737522906      -35.7348923003       -2.7707006559  MEMB      387             0.0000000000
     48233       387  QMPE      H12X           59.7306099572      -35.9069908008       -3.3009204856  MEMB      387             0.0000000000
     48234       387  QMPE      H12Y           58.3516579512      -36.7219008366       -2.5350746050  MEMB      387             0.0000000000
     48235       387  QMPE      C313           59.0403667986      -35.0621316294       -1.4623212999  MEMB      387             0.0000000000
     48236       387  QMPE      H13X           58.1018715507      -34.9636572641       -0.8757028099  MEMB      387             0.0000000000
     48237       387  QMPE      H13Y           59.7265866513      -35.6336939991       -0.7819770848  MEMB      387             0.0000000000
     48238       387  QMPE      C314           59.5711257589      -33.7262871722       -1.8052195612  MEMB      387             0.0000000000
     48239       387  QMPE      H14X           59.0766627457      -33.0359331602       -2.4629685667  MEMB      387             0.0000000000
     48240       387  QMPE      H14Y           60.6866553637      -33.7339895166       -1.9969990145  MEMB      387             0.0000000000
     48241       387  QMPE      C315           59.2631612530      -33.0174744231       -0.7263097062  MEMB      387             0.0000000000
     48242       387  QMPE      H15X           58.5834958872      -32.7814880151        0.1103359116  MEMB      387             0.0000000000
     48243       387  QMPE      H15Y           60.1114440848      -33.8375029009       -0.2375181536  MEMB      387             0.0000000000
     48244       387  QMPE      H15Z           59.6209900617      -31.9437194221       -0.8033162723  MEMB      387             0.0000000000
     48245       388  PMPG      C13           -46.8907608831       46.4537276401      -18.5362435224  MEMB      388             0.0000000000
     48246       388  PMPG      H13A          -47.7344229113       46.2096744538      -19.2074721223  MEMB      388             0.0000000000
     48247       388  PMPG      H13B          -46.6857341189       45.6395717930      -17.9471928364  MEMB      388             0.0000000000
     48248       388  PMPG      OC3           -47.1979738391       47.5677193355      -17.7200016423  MEMB      388             0.0000000000
     48249       388  PMPG      HO3           -46.3871003979       47.9854958336      -17.4284214847  MEMB      388             0.0000000000
     48250       388  PMPG      C12           -45.5506336530       46.5460699592      -19.1147625176  MEMB      388             0.0000000000
     48251       388  PMPG      H12A          -45.3535386491       45.6240515321      -19.6979300573  MEMB      388             0.0000000000
     48252       388  PMPG      OC2           -44.5708179270       46.5800942654      -18.0768242315  MEMB      388             0.0000000000
     48253       388  PMPG      HO2           -43.7663778821       46.8777872825      -18.5370003808  MEMB      388             0.0000000000
     48254       388  PMPG      C11           -45.6686821070       47.8085486518      -19.9672913648  MEMB      388             0.0000000000
     48255       388  PMPG      H11A          -46.2721237609       48.6140068096      -19.4981029553  MEMB      388             0.0000000000
     48256       388  PMPG      H11B          -46.2399875597       47.5287336898      -20.8797656871  MEMB      388             0.0000000000
     48257       388  PMPG      P             -43.4238351373       49.1082383552      -19.4280898096  MEMB      388             0.0000000000
     48258       388  PMPG      O13           -43.2860897430       50.4904777108      -19.9395584512  MEMB      388             0.0000000000
     48259       388  PMPG      O14           -42.2211999169       48.2807111474      -19.2940015544  MEMB      388             0.0000000000
     48260       388  PMPG      O11           -44.1375982806       49.2123199366      -18.0284633634  MEMB      388             0.0000000000
     48261       388  PMPG      O12           -44.4237985959       48.3094729247      -20.3242687864  MEMB      388             0.0000000000
     48262       388  PMPG      C1            -43.3248587077       49.6489525326      -16.9376203569  MEMB      388             0.0000000000
     48263       388  PMPG      HA            -42.6185497566       50.4602407115      -17.2461131469  MEMB      388             0.0000000000
     48264       388  PMPG      HB            -42.7156639489       48.8384508677      -16.4581543854  MEMB      388             0.0000000000
     48265       388  PMPG      C2            -44.2864502891       50.2092490332      -15.8789518548  MEMB      388             0.0000000000
     48266       388  PMPG      HS            -43.6549296347       50.6170345189      -15.0593290565  MEMB      388             0.0000000000
     48267       388  PMPG      O21           -45.1353728442       49.2250700314      -15.3151563155  MEMB      388             0.0000000000
     48268       388  PMPG      C21           -44.5729530012       48.3158184479      -14.5760315197  MEMB      388             0.0000000000
     48269       388  PMPG      O22           -43.4061785121       48.1413147975      -14.3145552329  MEMB      388             0.0000000000
     48270       388  PMPG      C22           -45.6352905862       47.5172062649      -13.9980859708  MEMB      388             0.0000000000
     48271       388  PMPG      H2R           -46.1404084639       46.9800206841      -14.8436653120  MEMB      388             0.0000000000
     48272       388  PMPG      H2S           -46.2893638544       48.2565995229      -13.4365748025  MEMB      388             0.0000000000
     48273       388  PMPG      C3            -45.2579989403       51.2815361818      -16.4792197982  MEMB      388             0.0000000000
     48274       388  PMPG      HX            -45.7201454354       50.8360337513      -17.3685785103  MEMB      388             0.0000000000
     48275       388  PMPG      HY            -44.8160589301       52.1555435143      -16.9775509324  MEMB      388             0.0000000000
     48276       388  PMPG      O31           -46.2742288648       51.7017086369      -15.5570992626  MEMB      388             0.0000000000
     48277       388  PMPG      C31           -46.0936998026       52.6992391849      -14.7117601266  MEMB      388             0.0000000000
     48278       388  PMPG      O32           -45.0924600736       53.2486157393      -14.3479659333  MEMB      388             0.0000000000
     48279       388  PMPG      C32           -47.3500826525       53.0752929184      -14.0642060168  MEMB      388             0.0000000000
     48280       388  PMPG      H2X           -48.1311700417       53.0245983839      -14.8415557426  MEMB      388             0.0000000000
     48281       388  PMPG      H2Y           -47.3484451582       54.1306964210      -13.7075446143  MEMB      388             0.0000000000
     48282       388  PMPG      C23           -45.1358522544       46.5109622131      -12.9447489031  MEMB      388             0.0000000000
     48283       388  PMPG      H3R           -44.6640029297       47.1051124661      -12.1409877852  MEMB      388             0.0000000000
     48284       388  PMPG      H3S           -44.4586536443       45.8229056773      -13.3232955741  MEMB      388             0.0000000000
     48285       388  PMPG      C24           -46.1317603194       45.5497048855      -12.3824176968  MEMB      388             0.0000000000
     48286       388  PMPG      H4R           -47.0247961600       45.2553549550      -12.9341116903  MEMB      388             0.0000000000
     48287       388  PMPG      H4S           -46.3674560956       46.5190971610      -12.4758732181  MEMB      388             0.0000000000
     48288       388  PMPG      C25           -45.9980681263       44.8863284265      -10.9987095586  MEMB      388             0.0000000000
     48289       388  PMPG      H5R           -45.5407794802       45.2678851025      -10.0217176092  MEMB      388             0.0000000000
     48290       388  PMPG      H5S           -45.2427892828       44.2697713412      -11.0907749103  MEMB      388             0.0000000000
     48291       388  PMPG      C26           -47.1407960225       44.5040981121      -10.3977556972  MEMB      388             0.0000000000
     48292       388  PMPG      H6R           -46.7283711246       44.0338866082       -9.4775906728  MEMB      388             0.0000000000
     48293       388  PMPG      H6S           -47.1858128530       43.8209501105      -11.2474400876  MEMB      388             0.0000000000
     48294       388  PMPG      C27           -48.5761549255       44.9236237183      -10.2824269810  MEMB      388             0.0000000000
     48295       388  PMPG      H7R           -49.4403271663       44.3250642085      -10.2189567094  MEMB      388             0.0000000000
     48296       388  PMPG      H7S           -49.1500091605       44.9806787224      -11.2222771149  MEMB      388             0.0000000000
     48297       388  PMPG      C28           -48.6247068285       45.7744877190       -9.2690344450  MEMB      388             0.0000000000
     48298       388  PMPG      H8R           -48.7492575494       46.8183249365       -9.5593099932  MEMB      388             0.0000000000
     48299       388  PMPG      H8S           -47.9069299737       45.5219466774       -8.6521500461  MEMB      388             0.0000000000
     48300       388  PMPG      C29           -49.4642117848       45.7846941737       -8.5578931687  MEMB      388             0.0000000000
     48301       388  PMPG      H9R           -50.2741750181       45.5056830383       -9.3564180973  MEMB      388             0.0000000000
     48302       388  PMPG      C217          -49.6773825884       45.6163105655       -7.1502942267  MEMB      388             0.0000000000
     48303       388  PMPG      H17R          -50.5871195675       45.1750308913       -6.8392010244  MEMB      388             0.0000000000
     48304       388  PMPG      H17S          -49.2192231884       45.5534400850       -6.3930818266  MEMB      388             0.0000000000
     48305       388  PMPG      C210          -49.3250676808       47.1221545839       -7.3724085172  MEMB      388             0.0000000000
     48306       388  PMPG      H10R          -49.9937034407       48.1147254988       -7.3332190569  MEMB      388             0.0000000000
     48307       388  PMPG      C211          -48.5894580515       48.2571876221       -7.1451057032  MEMB      388             0.0000000000
     48308       388  PMPG      H11R          -47.7746359414       47.7257611952       -7.0781110370  MEMB      388             0.0000000000
     48309       388  PMPG      H11S          -48.6100689215       48.9537963350       -8.0259865258  MEMB      388             0.0000000000
     48310       388  PMPG      C212          -48.8758298069       48.6913544057       -5.7772569586  MEMB      388             0.0000000000
     48311       388  PMPG      H12R          -48.6747643213       47.7832768958       -5.1720285176  MEMB      388             0.0000000000
     48312       388  PMPG      H12S          -49.9417466742       48.9744036300       -5.6685851044  MEMB      388             0.0000000000
     48313       388  PMPG      C213          -48.0230775230       49.8590112666       -5.5105447731  MEMB      388             0.0000000000
     48314       388  PMPG      H13R          -48.3776875223       50.6474066763       -6.2045717446  MEMB      388             0.0000000000
     48315       388  PMPG      H13S          -46.9666746241       49.6614709202       -5.7586240212  MEMB      388             0.0000000000
     48316       388  PMPG      C214          -48.0300940263       50.2461300040       -4.0473006582  MEMB      388             0.0000000000
     48317       388  PMPG      H14R          -47.1954173068       50.9212128089       -3.7938679967  MEMB      388             0.0000000000
     48318       388  PMPG      H14S          -47.8354652231       49.3533596713       -3.4186149392  MEMB      388             0.0000000000
     48319       388  PMPG      C215          -49.2696988493       51.0089591449       -3.6302488947  MEMB      388             0.0000000000
     48320       388  PMPG      H15R          -50.0667116815       50.2597806316       -3.4785693165  MEMB      388             0.0000000000
     48321       388  PMPG      H15S          -49.6224858098       51.6821580526       -4.4368900124  MEMB      388             0.0000000000
     48322       388  PMPG      C216          -49.0321977053       51.7938017107       -2.3434196528  MEMB      388             0.0000000000
     48323       388  PMPG      H16R          -49.9973429864       52.1698515140       -1.9541935741  MEMB      388             0.0000000000
     48324       388  PMPG      H16S          -48.3866462546       52.6909939835       -2.4747949402  MEMB      388             0.0000000000
     48325       388  PMPG      H16T          -48.5593842374       51.0963979350       -1.6240711906  MEMB      388             0.0000000000
     48326       388  PMPG      C33           -47.2549824286       52.0644300919      -12.9199667032  MEMB      388             0.0000000000
     48327       388  PMPG      H3X           -47.1498167527       51.0539042466      -13.2704117466  MEMB      388             0.0000000000
     48328       388  PMPG      H3Y           -48.0129224338       51.7115550173      -12.2786683387  MEMB      388             0.0000000000
     48329       388  PMPG      C34           -46.7164757366       52.6245880860      -11.6427452240  MEMB      388             0.0000000000
     48330       388  PMPG      H4X           -47.2899820580       53.4954770269      -11.2366984125  MEMB      388             0.0000000000
     48331       388  PMPG      H4Y           -45.7150893569       52.9219165364      -11.9453426466  MEMB      388             0.0000000000
     48332       388  PMPG      C35           -46.7618267317       51.5528979633      -10.5588022530  MEMB      388             0.0000000000
     48333       388  PMPG      H5X           -47.4884397732       50.7469539812      -10.7902441296  MEMB      388             0.0000000000
     48334       388  PMPG      H5Y           -47.0640962253       52.0606792013       -9.6235898205  MEMB      388             0.0000000000
     48335       388  PMPG      C36           -45.3963683951       50.9328156824      -10.4337668924  MEMB      388             0.0000000000
     48336       388  PMPG      H6X           -44.6715077856       51.7369024217      -10.3116026526  MEMB      388             0.0000000000
     48337       388  PMPG      H6Y           -45.1788650101       50.3772819822      -11.3828479292  MEMB      388             0.0000000000
     48338       388  PMPG      C37           -45.2589797696       49.9669342821       -9.2821177678  MEMB      388             0.0000000000
     48339       388  PMPG      H7X           -45.9038684397       49.3535719364       -9.8101326454  MEMB      388             0.0000000000
     48340       388  PMPG      H7Y           -45.6416673543       50.2600212561       -8.2933379033  MEMB      388             0.0000000000
     48341       388  PMPG      C38           -43.9753000524       49.1786279372       -9.2630443493  MEMB      388             0.0000000000
     48342       388  PMPG      H8X           -43.3028420210       50.0467861020       -9.1951990144  MEMB      388             0.0000000000
     48343       388  PMPG      H8Y           -43.8233525591       48.6561365718      -10.2445562873  MEMB      388             0.0000000000
     48344       388  PMPG      C39           -43.5722433301       48.2464028239       -8.0854571995  MEMB      388             0.0000000000
     48345       388  PMPG      H9X           -42.7849659969       47.5201729089       -8.3241107145  MEMB      388             0.0000000000
     48346       388  PMPG      H9Y           -43.9678288937       47.3910478101       -7.8691198804  MEMB      388             0.0000000000
     48347       388  PMPG      C310          -44.0709893571       48.4041646934       -6.6334605226  MEMB      388             0.0000000000
     48348       388  PMPG      H10X          -44.9914513386       48.9650361557       -6.5282274442  MEMB      388             0.0000000000
     48349       388  PMPG      H10Y          -43.5235411991       49.0361808058       -6.0665568411  MEMB      388             0.0000000000
     48350       388  PMPG      C311          -43.7724828060       47.2814025176       -5.6539186127  MEMB      388             0.0000000000
     48351       388  PMPG      H11X          -43.8857410967       47.7195778094       -4.6701701665  MEMB      388             0.0000000000
     48352       388  PMPG      H11Y          -42.7915999517       46.8562599921       -5.8437062176  MEMB      388             0.0000000000
     48353       388  PMPG      C312          -44.7946779983       46.3205822746       -5.4404612034  MEMB      388             0.0000000000
     48354       388  PMPG      H12X          -44.3799662474       45.7629842757       -6.2218948805  MEMB      388             0.0000000000
     48355       388  PMPG      H12Y          -45.6775625764       46.8393073939       -5.7373367669  MEMB      388             0.0000000000
     48356       388  PMPG      C313          -44.7707977465       45.0605113860       -4.7199622524  MEMB      388             0.0000000000
     48357       388  PMPG      H13X          -43.8365012463       44.5071626059       -4.9747535071  MEMB      388             0.0000000000
     48358       388  PMPG      H13Y          -45.4713526507       44.3133746799       -4.9115300786  MEMB      388             0.0000000000
     48359       388  PMPG      C314          -45.1770439519       45.4609250446       -3.3515483461  MEMB      388             0.0000000000
     48360       388  PMPG      H14X          -46.2090455156       45.7020107075       -3.2135473005  MEMB      388             0.0000000000
     48361       388  PMPG      H14Y          -44.5327693124       46.3608517931       -3.1066124468  MEMB      388             0.0000000000
     48362       388  PMPG      C315          -44.9920072951       44.2679064159       -2.4805312822  MEMB      388             0.0000000000
     48363       388  PMPG      H15X          -44.1890624531       43.7285328220       -3.0203648101  MEMB      388             0.0000000000
     48364       388  PMPG      H15Y          -45.3033416289       43.2761877340       -2.7414713815  MEMB      388             0.0000000000
     48365       388  PMPG      C316          -44.8564287365       44.5970064826       -0.9277085186  MEMB      388             0.0000000000
     48366       388  PMPG      H16X          -44.1727350430       45.4747080716       -0.6843181577  MEMB      388             0.0000000000
     48367       388  PMPG      H16Y          -44.3198809101       43.7813287981       -0.3288217125  MEMB      388             0.0000000000
     48368       388  PMPG      H16Z          -45.8292304742       44.5784478328       -0.5651317550  MEMB      388             0.0000000000
     48369       389  PMPG      C13           -48.2193430197      -43.1464073903      -19.4812237699  MEMB      389             0.0000000000
     48370       389  PMPG      H13A          -47.8190117624      -43.0229124807      -18.4559675546  MEMB      389             0.0000000000
     48371       389  PMPG      H13B          -47.6491695788      -44.0014354483      -19.9258002821  MEMB      389             0.0000000000
     48372       389  PMPG      OC3           -47.9842019752      -41.9618855639      -20.2306854314  MEMB      389             0.0000000000
     48373       389  PMPG      HO3           -48.6132119964      -41.3073153759      -19.8990552339  MEMB      389             0.0000000000
     48374       389  PMPG      C12           -49.7396458509      -43.3868305938      -19.4527906899  MEMB      389             0.0000000000
     48375       389  PMPG      H12A          -49.9109775585      -44.2978935274      -18.8456400369  MEMB      389             0.0000000000
     48376       389  PMPG      OC2           -50.1828193988      -43.6587412054      -20.7788360599  MEMB      389             0.0000000000
     48377       389  PMPG      HO2           -51.1379342040      -43.6008436649      -20.6810047239  MEMB      389             0.0000000000
     48378       389  PMPG      C11           -50.6265001591      -42.2400154239      -18.8455582919  MEMB      389             0.0000000000
     48379       389  PMPG      H11A          -50.2603977669      -41.2579207417      -19.2137867000  MEMB      389             0.0000000000
     48380       389  PMPG      H11B          -50.4620359480      -42.1712974508      -17.7373290458  MEMB      389             0.0000000000
     48381       389  PMPG      P             -53.0689022604      -41.6708013262      -18.2618802853  MEMB      389             0.0000000000
     48382       389  PMPG      O13           -54.4202646658      -41.8197980921      -18.8334287203  MEMB      389             0.0000000000
     48383       389  PMPG      O14           -52.5767403490      -40.3132201329      -17.9478203493  MEMB      389             0.0000000000
     48384       389  PMPG      O11           -52.9570216315      -42.6393877304      -17.0108950148  MEMB      389             0.0000000000
     48385       389  PMPG      O12           -52.0237977866      -42.4015837955      -19.2182745603  MEMB      389             0.0000000000
     48386       389  PMPG      C1            -53.4183520127      -43.9793734162      -17.2250434611  MEMB      389             0.0000000000
     48387       389  PMPG      HA            -52.6918093053      -44.4796699312      -17.9001878902  MEMB      389             0.0000000000
     48388       389  PMPG      HB            -54.4220467620      -44.0372752069      -17.7240891035  MEMB      389             0.0000000000
     48389       389  PMPG      C2            -53.4870787238      -44.7844149624      -15.8977122849  MEMB      389             0.0000000000
     48390       389  PMPG      HS            -54.3881620306      -45.4412905003      -15.9780600024  MEMB      389             0.0000000000
     48391       389  PMPG      O21           -53.5460027185      -43.9977261860      -14.6889241213  MEMB      389             0.0000000000
     48392       389  PMPG      C21           -54.7430075327      -43.4763270353      -14.4377183674  MEMB      389             0.0000000000
     48393       389  PMPG      O22           -55.7211867626      -43.5419015568      -15.1581801751  MEMB      389             0.0000000000
     48394       389  PMPG      C22           -54.7620302270      -42.8443716364      -13.0377683525  MEMB      389             0.0000000000
     48395       389  PMPG      H2R           -55.3372702548      -41.9085162587      -13.2024266947  MEMB      389             0.0000000000
     48396       389  PMPG      H2S           -53.7733066147      -42.5190691146      -12.6566658714  MEMB      389             0.0000000000
     48397       389  PMPG      C3            -52.1942034307      -45.6346630513      -15.8217099082  MEMB      389             0.0000000000
     48398       389  PMPG      HX            -52.2203490775      -46.2398595317      -16.7586056568  MEMB      389             0.0000000000
     48399       389  PMPG      HY            -52.2632857994      -46.2644258065      -14.8992736067  MEMB      389             0.0000000000
     48400       389  PMPG      O31           -51.0195918263      -44.7948561303      -15.9011757945  MEMB      389             0.0000000000
     48401       389  PMPG      C31           -50.3464390227      -44.5052978224      -14.7917484962  MEMB      389             0.0000000000
     48402       389  PMPG      O32           -50.4425969374      -45.0754093621      -13.7225662830  MEMB      389             0.0000000000
     48403       389  PMPG      C32           -49.2369186651      -43.5136134139      -15.1699576432  MEMB      389             0.0000000000
     48404       389  PMPG      H2X           -49.5429045507      -42.6764848254      -15.8310728580  MEMB      389             0.0000000000
     48405       389  PMPG      H2Y           -48.5097518585      -44.0767967176      -15.7730293955  MEMB      389             0.0000000000
     48406       389  PMPG      C23           -55.5207650232      -43.7653148718      -12.0530995041  MEMB      389             0.0000000000
     48407       389  PMPG      H3R           -56.3992137676      -44.2380848807      -12.5347600655  MEMB      389             0.0000000000
     48408       389  PMPG      H3S           -55.8778431529      -43.0938329529      -11.2388563936  MEMB      389             0.0000000000
     48409       389  PMPG      C24           -54.7116313550      -44.9562233175      -11.5380075952  MEMB      389             0.0000000000
     48410       389  PMPG      H4R           -53.7363238645      -44.5114733960      -11.2608041018  MEMB      389             0.0000000000
     48411       389  PMPG      H4S           -54.4523034580      -45.6730516116      -12.3467623560  MEMB      389             0.0000000000
     48412       389  PMPG      C25           -55.3429181010      -45.6503916417      -10.3120565314  MEMB      389             0.0000000000
     48413       389  PMPG      H5R           -56.1387744672      -46.4044927036      -10.5172662913  MEMB      389             0.0000000000
     48414       389  PMPG      H5S           -55.8557456122      -44.8506804796       -9.7378590598  MEMB      389             0.0000000000
     48415       389  PMPG      C26           -54.2173675467      -46.2989131627       -9.4993003094  MEMB      389             0.0000000000
     48416       389  PMPG      H6R           -53.6963918733      -45.4918799290       -8.9476394287  MEMB      389             0.0000000000
     48417       389  PMPG      H6S           -53.5250932074      -46.7254753019      -10.2591505077  MEMB      389             0.0000000000
     48418       389  PMPG      C27           -54.7161454911      -47.4041927932       -8.5833498288  MEMB      389             0.0000000000
     48419       389  PMPG      H7R           -55.2593690051      -48.1184879919       -9.2423926126  MEMB      389             0.0000000000
     48420       389  PMPG      H7S           -55.4161125023      -46.9875427598       -7.8459596510  MEMB      389             0.0000000000
     48421       389  PMPG      C28           -53.7121764727      -48.1285599099       -7.7362281143  MEMB      389             0.0000000000
     48422       389  PMPG      H8R           -52.9493518326      -47.5193936119       -7.2215159175  MEMB      389             0.0000000000
     48423       389  PMPG      H8S           -53.1333566966      -48.7007312436       -8.5476776113  MEMB      389             0.0000000000
     48424       389  PMPG      C29           -54.5237261927      -48.9555959030       -6.6034187061  MEMB      389             0.0000000000
     48425       389  PMPG      H9R           -55.1058472987      -49.9285818811       -6.9185721851  MEMB      389             0.0000000000
     48426       389  PMPG      C217          -53.3567149909      -49.2760841395       -5.4396109168  MEMB      389             0.0000000000
     48427       389  PMPG      H17R          -53.0793139406      -50.2899471140       -5.1351209308  MEMB      389             0.0000000000
     48428       389  PMPG      H17S          -52.5028422303      -48.6469602692       -5.4472904098  MEMB      389             0.0000000000
     48429       389  PMPG      C210          -54.7124004163      -48.8395472559       -5.2038391443  MEMB      389             0.0000000000
     48430       389  PMPG      H10R          -55.4748079021      -49.6013829019       -5.0164692714  MEMB      389             0.0000000000
     48431       389  PMPG      C211          -54.8944554136      -47.4611262816       -4.8618820900  MEMB      389             0.0000000000
     48432       389  PMPG      H11R          -54.1210120812      -46.8331440732       -5.3474086676  MEMB      389             0.0000000000
     48433       389  PMPG      H11S          -55.8900870095      -47.1940302397       -5.2702777925  MEMB      389             0.0000000000
     48434       389  PMPG      C212          -54.8992067231      -47.3981653691       -3.3528862008  MEMB      389             0.0000000000
     48435       389  PMPG      H12R          -53.9667121791      -47.7063158656       -2.8337846519  MEMB      389             0.0000000000
     48436       389  PMPG      H12S          -55.7221215781      -48.0807613675       -3.0322600677  MEMB      389             0.0000000000
     48437       389  PMPG      C213          -55.2732338576      -46.0524532663       -2.8512890531  MEMB      389             0.0000000000
     48438       389  PMPG      H13R          -56.2833411425      -45.8133466811       -3.2701671186  MEMB      389             0.0000000000
     48439       389  PMPG      H13S          -54.5693698005      -45.2091667977       -3.0113723578  MEMB      389             0.0000000000
     48440       389  PMPG      C214          -55.3291758171      -46.0689728899       -1.3921486290  MEMB      389             0.0000000000
     48441       389  PMPG      H14R          -54.4063078605      -46.1031912670       -0.8150834063  MEMB      389             0.0000000000
     48442       389  PMPG      H14S          -55.9538705642      -46.8792542922       -1.0059806244  MEMB      389             0.0000000000
     48443       389  PMPG      C215          -55.8174864928      -44.7986175038       -1.0612299418  MEMB      389             0.0000000000
     48444       389  PMPG      H15R          -55.6202698446      -43.7039588246       -1.1006762958  MEMB      389             0.0000000000
     48445       389  PMPG      H15S          -55.3190441183      -44.7521169087       -0.1153453777  MEMB      389             0.0000000000
     48446       389  PMPG      C216          -57.1839359286      -45.0076278928       -1.0728257589  MEMB      389             0.0000000000
     48447       389  PMPG      H16R          -57.9122898204      -44.1870718628       -0.5069109342  MEMB      389             0.0000000000
     48448       389  PMPG      H16S          -58.0770334293      -45.6877869248       -1.2283744865  MEMB      389             0.0000000000
     48449       389  PMPG      H16T          -56.8433013475      -44.5602338967       -2.1426587366  MEMB      389             0.0000000000
     48450       389  PMPG      C33           -48.6719581022      -42.7993474490      -13.9322477218  MEMB      389             0.0000000000
     48451       389  PMPG      H3X           -49.3671206546      -42.5403994929      -13.1249457318  MEMB      389             0.0000000000
     48452       389  PMPG      H3Y           -48.0180945924      -41.9658245699      -14.2987514540  MEMB      389             0.0000000000
     48453       389  PMPG      C34           -47.8044436144      -43.4804770625      -12.9875068410  MEMB      389             0.0000000000
     48454       389  PMPG      H4X           -47.0817544781      -43.5866510219      -13.8199594724  MEMB      389             0.0000000000
     48455       389  PMPG      H4Y           -48.1164910483      -44.4510863145      -12.5631794573  MEMB      389             0.0000000000
     48456       389  PMPG      C35           -47.2200585226      -42.4878378458      -11.9502260103  MEMB      389             0.0000000000
     48457       389  PMPG      H5X           -46.6531621204      -41.7186899984      -12.4860034992  MEMB      389             0.0000000000
     48458       389  PMPG      H5Y           -46.3484145767      -42.7310384615      -11.4163926013  MEMB      389             0.0000000000
     48459       389  PMPG      C36           -47.8791671117      -42.2076318617      -10.6946274866  MEMB      389             0.0000000000
     48460       389  PMPG      H6X           -48.5868002547      -41.5092650357      -11.1253047471  MEMB      389             0.0000000000
     48461       389  PMPG      H6Y           -47.1381687925      -41.7365307326      -10.0023738281  MEMB      389             0.0000000000
     48462       389  PMPG      C37           -48.6408588856      -43.3569120819      -10.1086840885  MEMB      389             0.0000000000
     48463       389  PMPG      H7X           -47.9509542336      -44.0443797921       -9.5791163761  MEMB      389             0.0000000000
     48464       389  PMPG      H7Y           -49.1581269731      -43.8800314049      -10.9435538877  MEMB      389             0.0000000000
     48465       389  PMPG      C38           -49.7707544589      -42.8247753806       -9.2360421937  MEMB      389             0.0000000000
     48466       389  PMPG      H8X           -50.5070477343      -42.3272305919       -9.8847222455  MEMB      389             0.0000000000
     48467       389  PMPG      H8Y           -49.4247555814      -41.9911950307       -8.5856533305  MEMB      389             0.0000000000
     48468       389  PMPG      C39           -50.5387690333      -43.9225939148       -8.4959003287  MEMB      389             0.0000000000
     48469       389  PMPG      H9X           -49.7623354896      -44.5328078391       -8.0020953654  MEMB      389             0.0000000000
     48470       389  PMPG      H9Y           -51.1408562076      -44.6160496998       -9.1239291302  MEMB      389             0.0000000000
     48471       389  PMPG      C310          -51.5285290595      -43.3314464118       -7.4983901930  MEMB      389             0.0000000000
     48472       389  PMPG      H10X          -52.4040097898      -42.8451773757       -7.9968690844  MEMB      389             0.0000000000
     48473       389  PMPG      H10Y          -50.9558700984      -42.5699014820       -6.9262645702  MEMB      389             0.0000000000
     48474       389  PMPG      C311          -52.0013637134      -44.3624395009       -6.4886144745  MEMB      389             0.0000000000
     48475       389  PMPG      H11X          -51.0948857760      -44.8276443631       -6.0304262273  MEMB      389             0.0000000000
     48476       389  PMPG      H11Y          -52.6593702441      -45.1438506800       -6.9624875598  MEMB      389             0.0000000000
     48477       389  PMPG      C312          -52.8064403471      -43.7385586915       -5.3407893251  MEMB      389             0.0000000000
     48478       389  PMPG      H12X          -53.0872889269      -44.6283418915       -4.7434362477  MEMB      389             0.0000000000
     48479       389  PMPG      H12Y          -53.7223419037      -43.2457811013       -5.7396232695  MEMB      389             0.0000000000
     48480       389  PMPG      C313          -52.1541671723      -42.7089058923       -4.3890032315  MEMB      389             0.0000000000
     48481       389  PMPG      H13X          -52.9034333991      -42.4858549632       -3.5882238855  MEMB      389             0.0000000000
     48482       389  PMPG      H13Y          -52.0522400818      -41.7403379312       -4.9250852500  MEMB      389             0.0000000000
     48483       389  PMPG      C314          -50.8114806263      -43.1166695306       -3.7376429921  MEMB      389             0.0000000000
     48484       389  PMPG      H14X          -50.5410855592      -42.2508543847       -3.0797100692  MEMB      389             0.0000000000
     48485       389  PMPG      H14Y          -50.0273509817      -43.2446292208       -4.5229970103  MEMB      389             0.0000000000
     48486       389  PMPG      C315          -50.8651596503      -44.4350050279       -2.9409807538  MEMB      389             0.0000000000
     48487       389  PMPG      H15X          -50.7133550404      -45.2932133402       -3.6464340338  MEMB      389             0.0000000000
     48488       389  PMPG      H15Y          -51.8680118113      -44.5665439069       -2.4871196181  MEMB      389             0.0000000000
     48489       389  PMPG      C316          -49.9148786453      -44.4936555470       -1.7571142325  MEMB      389             0.0000000000
     48490       389  PMPG      H16X          -49.8363750425      -43.5844511129       -1.1652038742  MEMB      389             0.0000000000
     48491       389  PMPG      H16Y          -48.9088213104      -44.5423930253       -2.0606043288  MEMB      389             0.0000000000
     48492       389  PMPG      H16Z          -50.1318365432      -45.3619384837       -1.1167129188  MEMB      389             0.0000000000
     48493       390  PMPG      C13            51.8614482505       40.4146835097      -21.3006604485  MEMB      390             0.0000000000
     48494       390  PMPG      H13A           52.2279069895       39.4505520284      -21.7134598394  MEMB      390             0.0000000000
     48495       390  PMPG      H13B           51.1485187467       40.8676088267      -21.9766745835  MEMB      390             0.0000000000
     48496       390  PMPG      OC3            52.8926189450       41.3863543108      -21.1655263076  MEMB      390             0.0000000000
     48497       390  PMPG      HO3            53.1717532199       41.6190517419      -22.0414647277  MEMB      390             0.0000000000
     48498       390  PMPG      C12            51.1215641654       40.0694161090      -19.9933664850  MEMB      390             0.0000000000
     48499       390  PMPG      H12A           50.3186074410       39.3441827932      -20.2663188917  MEMB      390             0.0000000000
     48500       390  PMPG      OC2            50.4742309308       41.2008089695      -19.4276748214  MEMB      390             0.0000000000
     48501       390  PMPG      HO2            50.2651091635       40.9109274950      -18.5423805199  MEMB      390             0.0000000000
     48502       390  PMPG      C11            52.0112280255       39.3568785871      -18.9472547850  MEMB      390             0.0000000000
     48503       390  PMPG      H11A           52.2492133171       38.3726390077      -19.3961179237  MEMB      390             0.0000000000
     48504       390  PMPG      H11B           51.4321924980       39.1823986467      -18.0114568737  MEMB      390             0.0000000000
     48505       390  PMPG      P              54.3489449383       39.3263169823      -17.7841931343  MEMB      390             0.0000000000
     48506       390  PMPG      O13            54.8124417916       38.1009530504      -18.4683631387  MEMB      390             0.0000000000
     48507       390  PMPG      O14            53.8145567994       39.1861661254      -16.3998807820  MEMB      390             0.0000000000
     48508       390  PMPG      O11            55.4575479730       40.4464963894      -17.8383103145  MEMB      390             0.0000000000
     48509       390  PMPG      O12            53.2290174481       40.0465921297      -18.6734567279  MEMB      390             0.0000000000
     48510       390  PMPG      C1             55.3581593009       41.5646582796      -16.9731609226  MEMB      390             0.0000000000
     48511       390  PMPG      HA             54.3555777881       41.7076987343      -16.5092320899  MEMB      390             0.0000000000
     48512       390  PMPG      HB             55.4854022366       42.4859781223      -17.5786167314  MEMB      390             0.0000000000
     48513       390  PMPG      C2             56.4120260785       41.3453291262      -15.8881442488  MEMB      390             0.0000000000
     48514       390  PMPG      HS             57.3573897147       41.7758203028      -16.3377291734  MEMB      390             0.0000000000
     48515       390  PMPG      O21            56.4808504143       40.0140659574      -15.4325597039  MEMB      390             0.0000000000
     48516       390  PMPG      C21            57.4807532995       39.6424191599      -14.6807600279  MEMB      390             0.0000000000
     48517       390  PMPG      O22            58.3738226138       40.2631126611      -14.2446974886  MEMB      390             0.0000000000
     48518       390  PMPG      C22            57.4450675741       38.3989687268      -13.9685357399  MEMB      390             0.0000000000
     48519       390  PMPG      H2R            58.4139446102       38.1882330194      -13.4117304807  MEMB      390             0.0000000000
     48520       390  PMPG      H2S            57.1866760231       37.6326857480      -14.6927183437  MEMB      390             0.0000000000
     48521       390  PMPG      C3             56.1742692117       42.0653320606      -14.7099284273  MEMB      390             0.0000000000
     48522       390  PMPG      HX             55.8384240168       42.9985136537      -15.3481091707  MEMB      390             0.0000000000
     48523       390  PMPG      HY             57.1642363510       42.0920994400      -14.0657998411  MEMB      390             0.0000000000
     48524       390  PMPG      O31            55.1692647594       41.8219742727      -13.7775801528  MEMB      390             0.0000000000
     48525       390  PMPG      C31            54.0115986790       42.4014069811      -13.9092045857  MEMB      390             0.0000000000
     48526       390  PMPG      O32            53.6461955926       43.2176731264      -14.7446885709  MEMB      390             0.0000000000
     48527       390  PMPG      C32            53.2430964376       41.7652245548      -12.8181123790  MEMB      390             0.0000000000
     48528       390  PMPG      H2X            53.6368275247       41.9095592203      -11.7849012590  MEMB      390             0.0000000000
     48529       390  PMPG      H2Y            53.3241400245       40.7020955680      -13.1422603172  MEMB      390             0.0000000000
     48530       390  PMPG      C23            56.3981334036       38.7886816039      -12.9584419493  MEMB      390             0.0000000000
     48531       390  PMPG      H3R            56.2618664789       37.8102945510      -12.5176507095  MEMB      390             0.0000000000
     48532       390  PMPG      H3S            55.4836971136       39.1249486381      -13.5098478685  MEMB      390             0.0000000000
     48533       390  PMPG      C24            56.8861496052       39.7249987368      -11.8308810644  MEMB      390             0.0000000000
     48534       390  PMPG      H4R            57.0976901539       40.7339692737      -12.2335861464  MEMB      390             0.0000000000
     48535       390  PMPG      H4S            57.7930804542       39.2195521866      -11.4055448151  MEMB      390             0.0000000000
     48536       390  PMPG      C25            56.0159464696       40.0529614159      -10.6165464407  MEMB      390             0.0000000000
     48537       390  PMPG      H5R            55.6532999640       39.1846082688      -10.2424400040  MEMB      390             0.0000000000
     48538       390  PMPG      H5S            55.0183011641       40.4775322894      -10.7726591764  MEMB      390             0.0000000000
     48539       390  PMPG      C26            56.8471020311       40.5384436688       -9.4115911417  MEMB      390             0.0000000000
     48540       390  PMPG      H6R            57.2155334714       41.5526747727       -9.6023396009  MEMB      390             0.0000000000
     48541       390  PMPG      H6S            57.7684143445       39.9052674888       -9.3021757486  MEMB      390             0.0000000000
     48542       390  PMPG      C27            56.1153389419       40.5386331699       -8.0500710147  MEMB      390             0.0000000000
     48543       390  PMPG      H7R            56.9132810333       40.5748094376       -7.2732574030  MEMB      390             0.0000000000
     48544       390  PMPG      H7S            55.5747394033       39.5700131702       -7.9586133293  MEMB      390             0.0000000000
     48545       390  PMPG      C28            55.2621533636       41.7820174035       -7.6990466816  MEMB      390             0.0000000000
     48546       390  PMPG      H8R            54.8692264194       41.6876618991       -6.6736804764  MEMB      390             0.0000000000
     48547       390  PMPG      H8S            54.4054708120       41.9374963502       -8.3672525652  MEMB      390             0.0000000000
     48548       390  PMPG      C29            56.0730331008       43.0003065134       -7.6732063831  MEMB      390             0.0000000000
     48549       390  PMPG      H9R            57.1133631010       42.9147100112       -7.5051901866  MEMB      390             0.0000000000
     48550       390  PMPG      C217           55.6976196957       43.8219776150       -8.7729944959  MEMB      390             0.0000000000
     48551       390  PMPG      H17R           56.6438344033       43.7808098580       -9.0668588900  MEMB      390             0.0000000000
     48552       390  PMPG      H17S           54.9153210614       43.6075421144       -9.4448312607  MEMB      390             0.0000000000
     48553       390  PMPG      C210           55.5756684665       44.4137227022       -7.4875322489  MEMB      390             0.0000000000
     48554       390  PMPG      H10R           56.3837825140       44.8972319622       -6.9163265327  MEMB      390             0.0000000000
     48555       390  PMPG      C211           54.1584298927       44.5725277397       -7.1254474685  MEMB      390             0.0000000000
     48556       390  PMPG      H11R           53.7985200781       45.5206131967       -7.4891079542  MEMB      390             0.0000000000
     48557       390  PMPG      H11S           53.5144732727       43.8925206681       -7.6312294691  MEMB      390             0.0000000000
     48558       390  PMPG      C212           53.9698392171       44.4518648530       -5.6437140255  MEMB      390             0.0000000000
     48559       390  PMPG      H12R           53.7788640352       45.4793431344       -5.3825903624  MEMB      390             0.0000000000
     48560       390  PMPG      H12S           54.8445601017       44.0129928734       -5.1235201785  MEMB      390             0.0000000000
     48561       390  PMPG      C213           52.6723479212       44.3835832581       -4.9966066965  MEMB      390             0.0000000000
     48562       390  PMPG      H13R           52.3325995665       43.4106861399       -5.2690789927  MEMB      390             0.0000000000
     48563       390  PMPG      H13S           51.9813999153       45.1999595238       -5.3107965080  MEMB      390             0.0000000000
     48564       390  PMPG      C214           52.7372718806       44.4841533497       -3.5259166608  MEMB      390             0.0000000000
     48565       390  PMPG      H14R           53.7078514744       44.1823177656       -3.0735974886  MEMB      390             0.0000000000
     48566       390  PMPG      H14S           51.9677259402       43.8493139001       -3.1146325620  MEMB      390             0.0000000000
     48567       390  PMPG      C215           52.1402799758       45.7802600123       -2.9841596421  MEMB      390             0.0000000000
     48568       390  PMPG      H15R           51.8199960334       45.9129079997       -1.9374620012  MEMB      390             0.0000000000
     48569       390  PMPG      H15S           51.4173552350       46.2522241987       -3.5956563461  MEMB      390             0.0000000000
     48570       390  PMPG      C216           52.9417004037       46.7834005478       -3.1208161062  MEMB      390             0.0000000000
     48571       390  PMPG      H16R           53.1646521716       47.9041384730       -1.7459596042  MEMB      390             0.0000000000
     48572       390  PMPG      H16S           53.2331100698       46.6224482599       -4.0375687309  MEMB      390             0.0000000000
     48573       390  PMPG      H16T           54.0541611220       47.5820082511       -2.4878041722  MEMB      390             0.0000000000
     48574       390  PMPG      C33            51.8132681746       42.2564170454      -12.8198487498  MEMB      390             0.0000000000
     48575       390  PMPG      H3X            51.3960103633       42.0462105028      -13.8325049786  MEMB      390             0.0000000000
     48576       390  PMPG      H3Y            51.8460054581       43.3625235537      -12.6658530196  MEMB      390             0.0000000000
     48577       390  PMPG      C34            50.9735775357       41.5082194262      -11.7674842425  MEMB      390             0.0000000000
     48578       390  PMPG      H4X            49.9531356454       41.9053347775      -11.7379246459  MEMB      390             0.0000000000
     48579       390  PMPG      H4Y            51.3848395715       41.6490715000      -10.7405194989  MEMB      390             0.0000000000
     48580       390  PMPG      C35            50.8511341722       40.0048895850      -12.0905620146  MEMB      390             0.0000000000
     48581       390  PMPG      H5X            51.8769661943       39.5909871835      -12.0040383205  MEMB      390             0.0000000000
     48582       390  PMPG      H5Y            50.5116329276       39.8715691733      -13.1499284232  MEMB      390             0.0000000000
     48583       390  PMPG      C36            49.8560080693       39.2351763787      -11.2058800766  MEMB      390             0.0000000000
     48584       390  PMPG      H6X            49.7092923040       38.2180768723      -11.6188308737  MEMB      390             0.0000000000
     48585       390  PMPG      H6Y            48.8909203050       39.7841462185      -11.1996060489  MEMB      390             0.0000000000
     48586       390  PMPG      C37            50.2670901783       39.0102812016       -9.7684751315  MEMB      390             0.0000000000
     48587       390  PMPG      H7X            49.4245611291       38.5360487729       -9.1944787801  MEMB      390             0.0000000000
     48588       390  PMPG      H7Y            50.5333302030       40.0130878777       -9.3702810586  MEMB      390             0.0000000000
     48589       390  PMPG      C38            51.4893162658       38.1471964125       -9.6233917601  MEMB      390             0.0000000000
     48590       390  PMPG      H8X            52.3404600825       38.7023534071      -10.0481632294  MEMB      390             0.0000000000
     48591       390  PMPG      H8Y            51.2519430739       37.1636918455      -10.0555610718  MEMB      390             0.0000000000
     48592       390  PMPG      C39            51.9264423050       37.8130635289       -8.2287067904  MEMB      390             0.0000000000
     48593       390  PMPG      H9X            52.8572691426       37.3384717443       -8.1140304492  MEMB      390             0.0000000000
     48594       390  PMPG      H9Y            51.0900637043       37.1446463837       -7.8636503168  MEMB      390             0.0000000000
     48595       390  PMPG      C310           52.3603898948       39.0509241654       -7.4138100449  MEMB      390             0.0000000000
     48596       390  PMPG      H10X           51.3733297874       39.1983618111       -7.7662754350  MEMB      390             0.0000000000
     48597       390  PMPG      H10Y           52.6548954383       39.9514894996       -7.9228336547  MEMB      390             0.0000000000
     48598       390  PMPG      C311           52.7370878240       38.8432895609       -5.8190077756  MEMB      390             0.0000000000
     48599       390  PMPG      H11X           53.5861813489       38.2437100419       -5.9291923227  MEMB      390             0.0000000000
     48600       390  PMPG      H11Y           52.0468587311       38.1003748103       -5.2524998639  MEMB      390             0.0000000000
     48601       390  PMPG      C312           52.6904014825       40.1210654046       -4.7535903052  MEMB      390             0.0000000000
     48602       390  PMPG      H12X           51.8608061748       40.9700570021       -4.7671151882  MEMB      390             0.0000000000
     48603       390  PMPG      H12Y           53.2709181425       40.8574809493       -5.1905502185  MEMB      390             0.0000000000
     48604       390  PMPG      C313           52.6063217784       39.5749497542       -3.3725840822  MEMB      390             0.0000000000
     48605       390  PMPG      H13X           53.5411809577       39.9934161078       -3.0660957929  MEMB      390             0.0000000000
     48606       390  PMPG      H13Y           52.4861124910       38.4806605908       -3.3125597278  MEMB      390             0.0000000000
     48607       390  PMPG      C314           51.6343483752       40.0711545407       -2.4714057976  MEMB      390             0.0000000000
     48608       390  PMPG      H14X           50.7310812755       39.5969799062       -2.6625622515  MEMB      390             0.0000000000
     48609       390  PMPG      H14Y           51.6789213851       41.1792162580       -2.3557675699  MEMB      390             0.0000000000
     48610       390  PMPG      C315           51.5360373305       39.6759634895       -1.1586365850  MEMB      390             0.0000000000
     48611       390  PMPG      H15X           51.2554341708       38.6360623583       -0.8726367497  MEMB      390             0.0000000000
     48612       390  PMPG      H15Y           50.7687726242       40.2521165397       -0.6507896204  MEMB      390             0.0000000000
     48613       390  PMPG      C316           52.6209756055       40.4674613602       -0.7394746530  MEMB      390             0.0000000000
     48614       390  PMPG      H16X           53.5435097982       39.7906906530       -0.8846047833  MEMB      390             0.0000000000
     48615       390  PMPG      H16Y           52.3400233530       40.9312599314        0.3353756508  MEMB      390             0.0000000000
     48616       390  PMPG      H16Z           52.9622246908       41.4076624976       -0.6760630208  MEMB      390             0.0000000000
     48617       391  PMPE      N             -48.9681243561      -48.6177027225      -18.5737116612  MEMB      391             0.0000000000
     48618       391  PMPE      HN1           -49.4108467665      -48.5789175329      -17.6284519829  MEMB      391             0.0000000000
     48619       391  PMPE      HN2           -49.7317278017      -48.5094028351      -19.2679930432  MEMB      391             0.0000000000
     48620       391  PMPE      HN3           -48.5279512905      -49.5617577147      -18.6432400196  MEMB      391             0.0000000000
     48621       391  PMPE      C12           -47.9353119880      -47.5917939335      -18.8188125243  MEMB      391             0.0000000000
     48622       391  PMPE      H12A          -47.7286672897      -47.0783252249      -17.8676507690  MEMB      391             0.0000000000
     48623       391  PMPE      H12B          -48.3191840702      -46.8298486085      -19.5172612022  MEMB      391             0.0000000000
     48624       391  PMPE      C11           -46.7195287029      -48.3124309895      -19.3750287468  MEMB      391             0.0000000000
     48625       391  PMPE      H11A          -45.8988382408      -47.5555222738      -19.3902665108  MEMB      391             0.0000000000
     48626       391  PMPE      H11B          -46.9705615880      -48.6731221145      -20.3911262490  MEMB      391             0.0000000000
     48627       391  PMPE      P             -45.4646209646      -50.5827335034      -19.1333990098  MEMB      391             0.0000000000
     48628       391  PMPE      O13           -44.1915277843      -50.0223069661      -19.5875231624  MEMB      391             0.0000000000
     48629       391  PMPE      O14           -46.2991876641      -51.3058821362      -20.1187636339  MEMB      391             0.0000000000
     48630       391  PMPE      O11           -45.2553595572      -51.4132222150      -17.8888006131  MEMB      391             0.0000000000
     48631       391  PMPE      O12           -46.3861214668      -49.4248194194      -18.5573372700  MEMB      391             0.0000000000
     48632       391  PMPE      C1            -46.2652218860      -52.2589676714      -17.4721110515  MEMB      391             0.0000000000
     48633       391  PMPE      HA            -45.5531648382      -52.5036934526      -16.7186936947  MEMB      391             0.0000000000
     48634       391  PMPE      HB            -46.5596169309      -53.1297545554      -18.1320843807  MEMB      391             0.0000000000
     48635       391  PMPE      C2            -47.4847656349      -51.7129766999      -16.7053348118  MEMB      391             0.0000000000
     48636       391  PMPE      HS            -47.9818239204      -51.1863349874      -17.5322108406  MEMB      391             0.0000000000
     48637       391  PMPE      O21           -46.9726630088      -50.8449159167      -15.6428338651  MEMB      391             0.0000000000
     48638       391  PMPE      C21           -47.8284682550      -49.9367508104      -15.1767614684  MEMB      391             0.0000000000
     48639       391  PMPE      O22           -48.9772739897      -49.8157241850      -15.5860985742  MEMB      391             0.0000000000
     48640       391  PMPE      C22           -47.2402226403      -48.9731623451      -14.1083611172  MEMB      391             0.0000000000
     48641       391  PMPE      H2R           -46.7661904966      -48.1102957928      -14.5895041122  MEMB      391             0.0000000000
     48642       391  PMPE      H2S           -46.5080560806      -49.4586438741      -13.4379123521  MEMB      391             0.0000000000
     48643       391  PMPE      C3            -48.4818243688      -52.8108728981      -16.1122721559  MEMB      391             0.0000000000
     48644       391  PMPE      HX            -49.0253580743      -53.3902630447      -16.8967887284  MEMB      391             0.0000000000
     48645       391  PMPE      HY            -49.2874561020      -52.3488408412      -15.5492710486  MEMB      391             0.0000000000
     48646       391  PMPE      O31           -47.9059839990      -53.7675238200      -15.2598713883  MEMB      391             0.0000000000
     48647       391  PMPE      C31           -47.9150120168      -53.7202906691      -13.9945164610  MEMB      391             0.0000000000
     48648       391  PMPE      O32           -48.4067534200      -52.8765948743      -13.3247238634  MEMB      391             0.0000000000
     48649       391  PMPE      C32           -47.1772963955      -54.8182513384      -13.3441606125  MEMB      391             0.0000000000
     48650       391  PMPE      H2X           -46.3099558742      -54.5878892273      -13.8699538129  MEMB      391             0.0000000000
     48651       391  PMPE      H2Y           -47.3403894239      -55.7886743292      -13.7547073673  MEMB      391             0.0000000000
     48652       391  PMPE      C23           -48.4152301158      -48.4975284142      -13.2091906046  MEMB      391             0.0000000000
     48653       391  PMPE      H3R           -48.8732379108      -49.4273169494      -12.8277384313  MEMB      391             0.0000000000
     48654       391  PMPE      H3S           -49.1781122845      -47.9160111153      -13.7643431714  MEMB      391             0.0000000000
     48655       391  PMPE      C24           -48.1338148915      -47.7048064978      -11.9355778502  MEMB      391             0.0000000000
     48656       391  PMPE      H4R           -48.7360247235      -46.7723958349      -11.9355589893  MEMB      391             0.0000000000
     48657       391  PMPE      H4S           -47.0780582346      -47.4155222175      -11.9929616775  MEMB      391             0.0000000000
     48658       391  PMPE      C25           -48.4833889310      -48.4280656510      -10.6320964525  MEMB      391             0.0000000000
     48659       391  PMPE      H5R           -47.8012103700      -49.3061704117      -10.5766905833  MEMB      391             0.0000000000
     48660       391  PMPE      H5S           -49.5282857914      -48.7967252398      -10.6362169705  MEMB      391             0.0000000000
     48661       391  PMPE      C26           -48.2612999148      -47.5451426837       -9.4011678540  MEMB      391             0.0000000000
     48662       391  PMPE      H6R           -48.9504720313      -46.6664542118       -9.3644010198  MEMB      391             0.0000000000
     48663       391  PMPE      H6S           -47.2012225009      -47.2604734469       -9.5647119551  MEMB      391             0.0000000000
     48664       391  PMPE      C27           -48.3998230137      -48.3313272981       -8.1052273781  MEMB      391             0.0000000000
     48665       391  PMPE      H7R           -47.8782665736      -49.2995887176       -8.3224543014  MEMB      391             0.0000000000
     48666       391  PMPE      H7S           -49.4960709286      -48.4807438965       -7.9189290016  MEMB      391             0.0000000000
     48667       391  PMPE      C28           -47.8556432721      -47.7926828226       -6.7857826146  MEMB      391             0.0000000000
     48668       391  PMPE      H8R           -46.7521218730      -47.8992120583       -6.7841284789  MEMB      391             0.0000000000
     48669       391  PMPE      H8S           -48.2673587566      -48.4530440258       -5.9822158673  MEMB      391             0.0000000000
     48670       391  PMPE      C29           -48.3129618512      -46.3559819333       -6.5622737819  MEMB      391             0.0000000000
     48671       391  PMPE      H9R           -49.3459634560      -46.1078583064       -6.8633420071  MEMB      391             0.0000000000
     48672       391  PMPE      C217          -47.2949170862      -45.3460414341       -7.1126866132  MEMB      391             0.0000000000
     48673       391  PMPE      H17R          -47.6928027776      -44.4764804385       -7.6071244175  MEMB      391             0.0000000000
     48674       391  PMPE      H17S          -46.3937212283      -45.8198247571       -7.4557097984  MEMB      391             0.0000000000
     48675       391  PMPE      C210          -47.5782621992      -45.4413915191       -5.6086297043  MEMB      391             0.0000000000
     48676       391  PMPE      H10R          -48.1535317116      -44.6053205378       -5.1806013099  MEMB      391             0.0000000000
     48677       391  PMPE      C211          -46.3947277783      -45.9026874012       -4.7413356620  MEMB      391             0.0000000000
     48678       391  PMPE      H11R          -45.9525759381      -44.9864281568       -4.2927792340  MEMB      391             0.0000000000
     48679       391  PMPE      H11S          -45.6137486260      -46.3533129108       -5.3683565344  MEMB      391             0.0000000000
     48680       391  PMPE      C212          -46.7093087305      -46.8390020843       -3.5564280288  MEMB      391             0.0000000000
     48681       391  PMPE      H12R          -45.9660910651      -46.7129209163       -2.7293385787  MEMB      391             0.0000000000
     48682       391  PMPE      H12S          -46.8180540431      -47.8873049359       -3.8498792914  MEMB      391             0.0000000000
     48683       391  PMPE      C213          -47.9711549591      -46.4696002223       -2.8656996010  MEMB      391             0.0000000000
     48684       391  PMPE      H13R          -48.8805458186      -46.5994402713       -3.4821796728  MEMB      391             0.0000000000
     48685       391  PMPE      H13S          -47.6550552888      -45.4121646176       -2.7856860101  MEMB      391             0.0000000000
     48686       391  PMPE      C214          -48.2545909576      -47.2201754440       -1.5665928954  MEMB      391             0.0000000000
     48687       391  PMPE      H14R          -48.4014456954      -48.2701790487       -1.8612634406  MEMB      391             0.0000000000
     48688       391  PMPE      H14S          -49.2675505777      -46.9981937531       -1.1695440683  MEMB      391             0.0000000000
     48689       391  PMPE      C215          -47.2034774237      -46.9463081548       -0.4717239162  MEMB      391             0.0000000000
     48690       391  PMPE      H15R          -47.2873656306      -45.8580656496       -0.2632786592  MEMB      391             0.0000000000
     48691       391  PMPE      H15S          -46.1743731916      -47.2235548353       -0.6728243963  MEMB      391             0.0000000000
     48692       391  PMPE      C216          -47.4574188224      -47.6510086032        0.7583397537  MEMB      391             0.0000000000
     48693       391  PMPE      H16R          -48.5413639693      -47.3943451005        0.6555405607  MEMB      391             0.0000000000
     48694       391  PMPE      H16S          -47.2621698006      -48.7387448287        0.8837332567  MEMB      391             0.0000000000
     48695       391  PMPE      H16T          -47.1824088860      -47.2566726476        1.7390926400  MEMB      391             0.0000000000
     48696       391  PMPE      C33           -47.1836307848      -54.8250472157      -11.7935491614  MEMB      391             0.0000000000
     48697       391  PMPE      H3X           -46.7614525651      -55.7825152757      -11.3830018137  MEMB      391             0.0000000000
     48698       391  PMPE      H3Y           -48.2469969951      -54.7705478227      -11.5612226348  MEMB      391             0.0000000000
     48699       391  PMPE      C34           -46.5907245184      -53.5962271386      -11.1125242494  MEMB      391             0.0000000000
     48700       391  PMPE      H4X           -46.8994035161      -52.6386585198      -11.4766367078  MEMB      391             0.0000000000
     48701       391  PMPE      H4Y           -45.5762766496      -53.5571919397      -11.3453313397  MEMB      391             0.0000000000
     48702       391  PMPE      C35           -46.6912609358      -53.6001994851       -9.6249061418  MEMB      391             0.0000000000
     48703       391  PMPE      H5X           -46.3863484408      -54.6805471590       -9.3766089583  MEMB      391             0.0000000000
     48704       391  PMPE      H5Y           -47.6871413174      -53.5755595570       -9.2786073440  MEMB      391             0.0000000000
     48705       391  PMPE      C36           -46.0333326186      -52.3603962470       -8.8523314411  MEMB      391             0.0000000000
     48706       391  PMPE      H6X           -46.2301150705      -51.3985839638       -9.1751936674  MEMB      391             0.0000000000
     48707       391  PMPE      H6Y           -44.9556095229      -52.0088333372       -9.0400180910  MEMB      391             0.0000000000
     48708       391  PMPE      C37           -46.3294855184      -52.6782628159       -7.3992696373  MEMB      391             0.0000000000
     48709       391  PMPE      H7X           -45.8529749289      -53.6775025899       -7.0219540130  MEMB      391             0.0000000000
     48710       391  PMPE      H7Y           -47.3063226835      -52.7298574738       -7.1626304206  MEMB      391             0.0000000000
     48711       391  PMPE      C38           -46.1620690919      -51.4341740666       -6.4424476177  MEMB      391             0.0000000000
     48712       391  PMPE      H8X           -46.3322468507      -50.4610582471       -6.8490186322  MEMB      391             0.0000000000
     48713       391  PMPE      H8Y           -45.2544603294      -51.0597080100       -6.4525940073  MEMB      391             0.0000000000
     48714       391  PMPE      C39           -45.5962523653      -51.5224141029       -5.0189341729  MEMB      391             0.0000000000
     48715       391  PMPE      H9X           -45.0245092100      -52.5026136936       -4.8935457296  MEMB      391             0.0000000000
     48716       391  PMPE      H9Y           -46.5550033046      -51.5285167075       -4.6141947157  MEMB      391             0.0000000000
     48717       391  PMPE      C310          -44.7482878540      -50.2788569015       -4.4233664748  MEMB      391             0.0000000000
     48718       391  PMPE      H10X          -45.0789031030      -49.2978581870       -4.7606434848  MEMB      391             0.0000000000
     48719       391  PMPE      H10Y          -43.6576396838      -50.1235782831       -4.6339739283  MEMB      391             0.0000000000
     48720       391  PMPE      C311          -44.7900150075      -50.5519169400       -2.9752942181  MEMB      391             0.0000000000
     48721       391  PMPE      H11X          -44.4990450755      -51.5921627830       -2.7134011689  MEMB      391             0.0000000000
     48722       391  PMPE      H11Y          -45.8455604913      -50.4424772143       -2.8546653761  MEMB      391             0.0000000000
     48723       391  PMPE      C312          -44.2332617167      -49.5137621666       -2.0748693172  MEMB      391             0.0000000000
     48724       391  PMPE      H12X          -44.3453527729      -48.4994886237       -2.3931482775  MEMB      391             0.0000000000
     48725       391  PMPE      H12Y          -43.2408110911      -49.4437735860       -2.2217100087  MEMB      391             0.0000000000
     48726       391  PMPE      C313          -44.5489979961      -49.7717155954       -0.6427727560  MEMB      391             0.0000000000
     48727       391  PMPE      H13X          -44.6503403649      -50.8491054200       -0.4769035505  MEMB      391             0.0000000000
     48728       391  PMPE      H13Y          -45.5121994028      -49.3224908830       -0.3949797501  MEMB      391             0.0000000000
     48729       391  PMPE      C314          -43.6043095312      -49.2225093687        0.3382059090  MEMB      391             0.0000000000
     48730       391  PMPE      H14X          -43.2193326289      -48.2534183310        0.0041437164  MEMB      391             0.0000000000
     48731       391  PMPE      H14Y          -42.7803958712      -49.9238133594        0.4177553682  MEMB      391             0.0000000000
     48732       391  PMPE      C315          -44.2793900995      -49.0136988643        1.6557872685  MEMB      391             0.0000000000
     48733       391  PMPE      H15X          -44.7716083252      -48.0869908358        1.7296767548  MEMB      391             0.0000000000
     48734       391  PMPE      H15Y          -43.4643999421      -48.9010312919        2.3074019486  MEMB      391             0.0000000000
     48735       391  PMPE      C316          -45.1364196081      -50.1048525741        2.2175787619  MEMB      391             0.0000000000
     48736       391  PMPE      H16X          -44.9767659175      -50.1708206087        3.3677350019  MEMB      391             0.0000000000
     48737       391  PMPE      H16Y          -44.5502844980      -50.9158998129        1.6614683531  MEMB      391             0.0000000000
     48738       391  PMPE      H16Z          -45.8764151506      -50.6969596467        1.7642976411  MEMB      391             0.0000000000
     48739       392  PMPE      N              52.1914204638      -44.1984256116      -21.0651619305  MEMB      392             0.0000000000
     48740       392  PMPE      HN1            52.1985936113      -44.0906699519      -22.0936690737  MEMB      392             0.0000000000
     48741       392  PMPE      HN2            53.1013469038      -44.5507849113      -20.6911210577  MEMB      392             0.0000000000
     48742       392  PMPE      HN3            51.5148148143      -44.9338943017      -20.7824590146  MEMB      392             0.0000000000
     48743       392  PMPE      C12            51.6493607960      -42.9128051283      -20.4723398715  MEMB      392             0.0000000000
     48744       392  PMPE      H12A           50.6087404891      -42.8684409999      -20.7894417842  MEMB      392             0.0000000000
     48745       392  PMPE      H12B           52.0601330680      -42.0056453873      -20.9342747580  MEMB      392             0.0000000000
     48746       392  PMPE      C11            51.7822883222      -42.9159949054      -18.9559678190  MEMB      392             0.0000000000
     48747       392  PMPE      H11A           51.2935357726      -43.8471955783      -18.6010743584  MEMB      392             0.0000000000
     48748       392  PMPE      H11B           51.2640565358      -42.0468222386      -18.4744665615  MEMB      392             0.0000000000
     48749       392  PMPE      P              53.8766830836      -41.5598807185      -18.3634361709  MEMB      392             0.0000000000
     48750       392  PMPE      O13            53.6338112296      -40.7181662790      -19.5694030877  MEMB      392             0.0000000000
     48751       392  PMPE      O14            55.2419780181      -41.8096534488      -17.9035652743  MEMB      392             0.0000000000
     48752       392  PMPE      O11            53.0667853666      -40.9331124576      -17.1785027191  MEMB      392             0.0000000000
     48753       392  PMPE      O12            53.1463355604      -42.9573969592      -18.5857617039  MEMB      392             0.0000000000
     48754       392  PMPE      C1             53.0955456866      -41.5682705201      -15.9020432063  MEMB      392             0.0000000000
     48755       392  PMPE      HA             53.3219194990      -40.8102184603      -15.1169641636  MEMB      392             0.0000000000
     48756       392  PMPE      HB             53.8752136260      -42.3621470493      -15.7765343325  MEMB      392             0.0000000000
     48757       392  PMPE      C2             51.7459797852      -42.1864834028      -15.5835976129  MEMB      392             0.0000000000
     48758       392  PMPE      HS             51.3564469265      -42.8119531375      -16.4271107996  MEMB      392             0.0000000000
     48759       392  PMPE      O21            50.8962000351      -41.0821158989      -15.2635843707  MEMB      392             0.0000000000
     48760       392  PMPE      C21            49.6246003985      -41.1989425525      -15.3872515647  MEMB      392             0.0000000000
     48761       392  PMPE      O22            49.0224566760      -41.7737104091      -16.2738946480  MEMB      392             0.0000000000
     48762       392  PMPE      C22            48.9619094635      -40.3207407657      -14.3810623700  MEMB      392             0.0000000000
     48763       392  PMPE      H2R            47.8549069316      -40.5364510115      -14.2944646104  MEMB      392             0.0000000000
     48764       392  PMPE      H2S            48.9974317464      -39.3384129451      -14.8261570398  MEMB      392             0.0000000000
     48765       392  PMPE      C3             52.0605934136      -43.0540712109      -14.3519308920  MEMB      392             0.0000000000
     48766       392  PMPE      HX             52.8452529141      -43.7804578926      -14.5820732065  MEMB      392             0.0000000000
     48767       392  PMPE      HY             51.3339542304      -43.7827654948      -14.1957943944  MEMB      392             0.0000000000
     48768       392  PMPE      O31            52.3090988431      -42.2695494644      -13.1761326038  MEMB      392             0.0000000000
     48769       392  PMPE      C31            53.3732881858      -42.5858728913      -12.4589668167  MEMB      392             0.0000000000
     48770       392  PMPE      O32            54.1136436618      -43.5320512463      -12.6308102869  MEMB      392             0.0000000000
     48771       392  PMPE      C32            53.4077974758      -41.6222318711      -11.2846892006  MEMB      392             0.0000000000
     48772       392  PMPE      H2X            53.9795520856      -42.0319059105      -10.4303016535  MEMB      392             0.0000000000
     48773       392  PMPE      H2Y            52.3596640900      -41.4586582746      -10.9512171040  MEMB      392             0.0000000000
     48774       392  PMPE      C23            49.6143496103      -40.4432730022      -13.0047231544  MEMB      392             0.0000000000
     48775       392  PMPE      H3R            50.7231232799      -40.4028319301      -12.9266703302  MEMB      392             0.0000000000
     48776       392  PMPE      H3S            49.4874079096      -41.3457410115      -12.3843702422  MEMB      392             0.0000000000
     48777       392  PMPE      C24            48.6325951821      -39.7949220540      -12.1008384888  MEMB      392             0.0000000000
     48778       392  PMPE      H4R            47.5997276825      -39.7972889276      -12.0947653307  MEMB      392             0.0000000000
     48779       392  PMPE      H4S            48.5657681258      -38.6781383788      -12.2515884359  MEMB      392             0.0000000000
     48780       392  PMPE      C25            49.1126566770      -40.3669730078      -10.7013611313  MEMB      392             0.0000000000
     48781       392  PMPE      H5R            48.6851643620      -39.5277326213      -10.1937033729  MEMB      392             0.0000000000
     48782       392  PMPE      H5S            50.2230132742      -40.5170661165      -10.7352487140  MEMB      392             0.0000000000
     48783       392  PMPE      C26            48.4664444132      -40.9269536845       -9.6885522032  MEMB      392             0.0000000000
     48784       392  PMPE      H6R            48.7186519321      -41.7475169219      -10.2385600030  MEMB      392             0.0000000000
     48785       392  PMPE      H6S            47.4032688878      -40.7553704206       -9.8403199803  MEMB      392             0.0000000000
     48786       392  PMPE      C27            49.0050032794      -41.1268687372       -8.3072815228  MEMB      392             0.0000000000
     48787       392  PMPE      H7R            48.2496549105      -41.6636849996       -7.7695613999  MEMB      392             0.0000000000
     48788       392  PMPE      H7S            48.8381013541      -40.3539241146       -7.7566237405  MEMB      392             0.0000000000
     48789       392  PMPE      C28            50.3577255277      -41.6299137663       -7.9750765026  MEMB      392             0.0000000000
     48790       392  PMPE      H8R            50.5018552794      -41.4996929005       -6.8714147858  MEMB      392             0.0000000000
     48791       392  PMPE      H8S            51.1213144785      -41.0399339105       -8.4986210579  MEMB      392             0.0000000000
     48792       392  PMPE      C29            50.3618635707      -43.0851535471       -8.3350960007  MEMB      392             0.0000000000
     48793       392  PMPE      H9R            50.0744545934      -43.4576908817       -9.3377330530  MEMB      392             0.0000000000
     48794       392  PMPE      C217           49.8506070779      -43.9787003792       -7.2065912923  MEMB      392             0.0000000000
     48795       392  PMPE      H17R           49.2394969154      -44.6838051912       -7.7461651497  MEMB      392             0.0000000000
     48796       392  PMPE      H17S           49.5242608337      -43.3643431262       -6.3736604753  MEMB      392             0.0000000000
     48797       392  PMPE      C210           51.3083200654      -43.9639269726       -7.6108797868  MEMB      392             0.0000000000
     48798       392  PMPE      H10R           51.6268055564      -44.8432338649       -8.2047908745  MEMB      392             0.0000000000
     48799       392  PMPE      C211           52.3164837966      -43.3251428034       -6.6704118909  MEMB      392             0.0000000000
     48800       392  PMPE      H11R           51.9489964853      -42.5980288542       -5.9137991459  MEMB      392             0.0000000000
     48801       392  PMPE      H11S           52.9434789585      -42.6889237762       -7.3198209877  MEMB      392             0.0000000000
     48802       392  PMPE      C212           53.0984616654      -44.4862374923       -6.0382883270  MEMB      392             0.0000000000
     48803       392  PMPE      H12R           53.6538999437      -45.0385416219       -6.8259879357  MEMB      392             0.0000000000
     48804       392  PMPE      H12S           52.4124636271      -45.2438712205       -5.5957314870  MEMB      392             0.0000000000
     48805       392  PMPE      C213           54.0170668143      -44.0508611471       -4.9124809601  MEMB      392             0.0000000000
     48806       392  PMPE      H13R           54.8736727063      -43.5183113389       -5.3447097901  MEMB      392             0.0000000000
     48807       392  PMPE      H13S           54.4137267971      -45.0073058977       -4.5069318737  MEMB      392             0.0000000000
     48808       392  PMPE      C214           53.2380514951      -43.1961331002       -3.8838536270  MEMB      392             0.0000000000
     48809       392  PMPE      H14R           52.3930187924      -43.8508018889       -3.5302657275  MEMB      392             0.0000000000
     48810       392  PMPE      H14S           52.8634630640      -42.2630092201       -4.2591237535  MEMB      392             0.0000000000
     48811       392  PMPE      C215           53.9705727764      -42.6051209839       -2.7959456455  MEMB      392             0.0000000000
     48812       392  PMPE      H15R           53.4710556516      -42.1957926754       -1.8812674867  MEMB      392             0.0000000000
     48813       392  PMPE      H15S           54.9618751023      -42.1234557401       -3.0694994257  MEMB      392             0.0000000000
     48814       392  PMPE      C216           54.0498715670      -43.7522634539       -2.3474215442  MEMB      392             0.0000000000
     48815       392  PMPE      H16R           55.0914082782      -43.1149535044       -1.7646789254  MEMB      392             0.0000000000
     48816       392  PMPE      H16S           53.4295662721      -44.2573534168       -1.5073750642  MEMB      392             0.0000000000
     48817       392  PMPE      H16T           54.3862929499      -44.8255066371       -2.8113448975  MEMB      392             0.0000000000
     48818       392  PMPE      C33            54.0861735798      -40.3540105813      -11.7821802492  MEMB      392             0.0000000000
     48819       392  PMPE      H3X            53.4485412652      -39.8284901288      -12.5218837270  MEMB      392             0.0000000000
     48820       392  PMPE      H3Y            55.0250283716      -40.6494203303      -12.3156567570  MEMB      392             0.0000000000
     48821       392  PMPE      C34            54.4731424976      -39.3664226633      -10.6889590217  MEMB      392             0.0000000000
     48822       392  PMPE      H4X            54.6789125386      -38.4208216799      -11.2263272536  MEMB      392             0.0000000000
     48823       392  PMPE      H4Y            55.4208680814      -39.7302637530      -10.2501780478  MEMB      392             0.0000000000
     48824       392  PMPE      C35            53.4511433568      -39.0875882271       -9.5941035812  MEMB      392             0.0000000000
     48825       392  PMPE      H5X            53.1394708149      -40.0359825926       -9.1316621180  MEMB      392             0.0000000000
     48826       392  PMPE      H5Y            52.5606907202      -38.7139968246      -10.0544112068  MEMB      392             0.0000000000
     48827       392  PMPE      C36            53.8984368767      -38.0135373909       -8.6010707120  MEMB      392             0.0000000000
     48828       392  PMPE      H6X            54.2863374758      -37.1323094318       -9.1566406430  MEMB      392             0.0000000000
     48829       392  PMPE      H6Y            54.6907141085      -38.3611161339       -7.9073733373  MEMB      392             0.0000000000
     48830       392  PMPE      C37            52.7277114856      -37.5186853823       -7.8111082406  MEMB      392             0.0000000000
     48831       392  PMPE      H7X            51.9963735056      -36.9249839294       -8.3653762869  MEMB      392             0.0000000000
     48832       392  PMPE      H7Y            52.8972386979      -36.6913751452       -7.2467973703  MEMB      392             0.0000000000
     48833       392  PMPE      C38            52.2699555619      -38.4503608141       -6.7205108488  MEMB      392             0.0000000000
     48834       392  PMPE      H8X            53.0309454776      -38.8731648338       -6.1191732727  MEMB      392             0.0000000000
     48835       392  PMPE      H8Y            51.7332532592      -39.2413670919       -7.2802082827  MEMB      392             0.0000000000
     48836       392  PMPE      C39            51.4477809506      -37.7781937991       -5.6382076937  MEMB      392             0.0000000000
     48837       392  PMPE      H9X            51.0896238482      -37.0601715308       -6.5711370775  MEMB      392             0.0000000000
     48838       392  PMPE      H9Y            51.6839328029      -36.9377149913       -5.0242565877  MEMB      392             0.0000000000
     48839       392  PMPE      C310           50.3241471469      -38.7702311465       -4.6091426087  MEMB      392             0.0000000000
     48840       392  PMPE      H10X           49.2493564767      -39.5342578429       -5.0580709247  MEMB      392             0.0000000000
     48841       392  PMPE      H10Y           49.5415841376      -38.3245991856       -4.2696986305  MEMB      392             0.0000000000
     48842       392  PMPE      C311           51.0714443519      -39.7414003531       -4.0152401876  MEMB      392             0.0000000000
     48843       392  PMPE      H11X           51.8727391022      -39.0899925386       -3.6389949831  MEMB      392             0.0000000000
     48844       392  PMPE      H11Y           51.4609959932      -40.3720434274       -4.8424591752  MEMB      392             0.0000000000
     48845       392  PMPE      C312           50.2385365109      -40.5008095109       -3.0469448419  MEMB      392             0.0000000000
     48846       392  PMPE      H12X           49.6160874543      -39.8402183344       -2.4005086137  MEMB      392             0.0000000000
     48847       392  PMPE      H12Y           50.9120711259      -41.0754252876       -2.3951805410  MEMB      392             0.0000000000
     48848       392  PMPE      C313           49.3212117708      -41.4846895823       -3.7054656666  MEMB      392             0.0000000000
     48849       392  PMPE      H13X           49.7231460329      -42.3804799745       -4.1878964854  MEMB      392             0.0000000000
     48850       392  PMPE      H13Y           48.5681070295      -41.0255538035       -4.3606258910  MEMB      392             0.0000000000
     48851       392  PMPE      C314           48.6175845191      -42.1553457644       -2.6444933382  MEMB      392             0.0000000000
     48852       392  PMPE      H14X           48.1468784144      -41.4198073850       -2.1022335664  MEMB      392             0.0000000000
     48853       392  PMPE      H14Y           49.0796469892      -42.6681875381       -1.8584199892  MEMB      392             0.0000000000
     48854       392  PMPE      C315           47.7184446744      -43.1870207452       -3.2192090524  MEMB      392             0.0000000000
     48855       392  PMPE      H15X           47.9747467163      -43.9233039299       -3.8536282967  MEMB      392             0.0000000000
     48856       392  PMPE      H15Y           47.2357240314      -42.3696114183       -3.8292314839  MEMB      392             0.0000000000
     48857       392  PMPE      C316           46.9307543165      -44.4464163492       -2.5669397198  MEMB      392             0.0000000000
     48858       392  PMPE      H16X           47.4342324366      -44.4886796791       -1.5371677115  MEMB      392             0.0000000000
     48859       392  PMPE      H16Y           45.9913925752      -44.9243296018       -2.7471729693  MEMB      392             0.0000000000
     48860       392  PMPE      H16Z           45.6291189226      -44.3231332585       -2.3838663442  MEMB      392             0.0000000000
     48861       393  QMPE      N              49.8782249977       46.3513614531      -21.0899561611  MEMB      393             0.0000000000
     48862       393  QMPE      HN1            49.4556627618       46.8136189445      -21.9054011450  MEMB      393             0.0000000000
     48863       393  QMPE      HN2            50.4837836349       45.5794697268      -21.4206408180  MEMB      393             0.0000000000
     48864       393  QMPE      HN3            49.1550822474       45.9706207438      -20.4527063412  MEMB      393             0.0000000000
     48865       393  QMPE      C12            50.6068587706       47.3478733877      -20.2470624370  MEMB      393             0.0000000000
     48866       393  QMPE      H12A           51.5994976283       47.4755384602      -20.7174188259  MEMB      393             0.0000000000
     48867       393  QMPE      H12B           50.7587131893       46.8591437476      -19.2671931830  MEMB      393             0.0000000000
     48868       393  QMPE      C11            49.7735580769       48.6488992564      -20.1376117291  MEMB      393             0.0000000000
     48869       393  QMPE      H11A           49.6544303918       49.0052916373      -21.1896537420  MEMB      393             0.0000000000
     48870       393  QMPE      H11B           50.3096452758       49.4168056683      -19.5302904295  MEMB      393             0.0000000000
     48871       393  QMPE      P              48.2142922905       48.1519900279      -18.0434154575  MEMB      393             0.0000000000
     48872       393  QMPE      O13            49.2435095429       47.1843115858      -17.6063562821  MEMB      393             0.0000000000
     48873       393  QMPE      O14            46.8006021809       47.7453338095      -17.9090144630  MEMB      393             0.0000000000
     48874       393  QMPE      O11            48.4557670344       49.5589467703      -17.4008363030  MEMB      393             0.0000000000
     48875       393  QMPE      O12            48.4666519443       48.4388297082      -19.6045050079  MEMB      393             0.0000000000
     48876       393  QMPE      C1             47.9314083887       50.8117490276      -17.8620436916  MEMB      393             0.0000000000
     48877       393  QMPE      HA             47.0960120111       50.6947209909      -18.5788984139  MEMB      393             0.0000000000
     48878       393  QMPE      HB             48.7290653785       51.3524416338      -18.4144290223  MEMB      393             0.0000000000
     48879       393  QMPE      C2             47.3863935147       51.6908890080      -16.6916285238  MEMB      393             0.0000000000
     48880       393  QMPE      HS             47.0546997158       52.6641467362      -17.0898397434  MEMB      393             0.0000000000
     48881       393  QMPE      O21            48.4476870672       51.9157871394      -15.7714758993  MEMB      393             0.0000000000
     48882       393  QMPE      C21            48.2663830360       52.7699110887      -14.8236468979  MEMB      393             0.0000000000
     48883       393  QMPE      O22            47.3500240932       53.5394910748      -14.6553400779  MEMB      393             0.0000000000
     48884       393  QMPE      C22            49.3966711867       52.5000576475      -13.8797228589  MEMB      393             0.0000000000
     48885       393  QMPE      H2R            49.2311449902       53.1856551411      -13.0391318843  MEMB      393             0.0000000000
     48886       393  QMPE      H2S            50.4128528857       52.6971266883      -14.3298177684  MEMB      393             0.0000000000
     48887       393  QMPE      C3             46.1806993999       51.0498616001      -15.9871567425  MEMB      393             0.0000000000
     48888       393  QMPE      HX             45.3933233522       50.8498580909      -16.7649409650  MEMB      393             0.0000000000
     48889       393  QMPE      HY             45.7539431777       51.7667164248      -15.2558214803  MEMB      393             0.0000000000
     48890       393  QMPE      O31            46.6553702798       49.8835537964      -15.3084702474  MEMB      393             0.0000000000
     48891       393  QMPE      C31            45.7104032732       49.1257136661      -15.1407150872  MEMB      393             0.0000000000
     48892       393  QMPE      O32            44.5330006352       49.3944291222      -15.4028475370  MEMB      393             0.0000000000
     48893       393  QMPE      C32            46.3823964841       47.9040654478      -14.6082609782  MEMB      393             0.0000000000
     48894       393  QMPE      H2X            46.4260767770       47.0397423070      -15.3012615404  MEMB      393             0.0000000000
     48895       393  QMPE      H2Y            47.2742296761       47.9527093914      -13.9705258691  MEMB      393             0.0000000000
     48896       393  QMPE      C23            49.1876075693       51.2612662943      -13.0877825013  MEMB      393             0.0000000000
     48897       393  QMPE      H3R            50.0974952428       51.1237300406      -12.4727119388  MEMB      393             0.0000000000
     48898       393  QMPE      H3S            49.0504285653       50.4021587338      -13.7442166453  MEMB      393             0.0000000000
     48899       393  QMPE      C24            47.9199032609       51.3211433892      -12.2755821838  MEMB      393             0.0000000000
     48900       393  QMPE      H4R            47.8453165536       50.5191135813      -11.5288304403  MEMB      393             0.0000000000
     48901       393  QMPE      H4S            46.9764039974       51.3080649707      -12.8585986621  MEMB      393             0.0000000000
     48902       393  QMPE      C25            47.7107154745       52.5000173979      -11.5179536781  MEMB      393             0.0000000000
     48903       393  QMPE      H5R            46.6804214086       52.1738241632      -11.1994599774  MEMB      393             0.0000000000
     48904       393  QMPE      H5S            47.7519885448       53.4631630921      -12.0078471156  MEMB      393             0.0000000000
     48905       393  QMPE      C26            48.6719769563       52.6782196104      -10.5106126458  MEMB      393             0.0000000000
     48906       393  QMPE      H6R            49.6994031613       52.5700081462      -10.8324379140  MEMB      393             0.0000000000
     48907       393  QMPE      H6S            48.4040206738       51.7087901799       -9.9489816031  MEMB      393             0.0000000000
     48908       393  QMPE      C27            48.8452468786       54.0086957343       -9.6753877889  MEMB      393             0.0000000000
     48909       393  QMPE      H7R            48.1090613586       53.9567079502       -9.3069252485  MEMB      393             0.0000000000
     48910       393  QMPE      H7S            48.7575821476       55.0515226720       -9.8131418527  MEMB      393             0.0000000000
     48911       393  QMPE      C28            49.4248541313       54.1756116292       -8.5609905125  MEMB      393             0.0000000000
     48912       393  QMPE      H8R            50.1877303925       53.6916197672       -9.1988389124  MEMB      393             0.0000000000
     48913       393  QMPE      H8S            49.9740343008       53.5132791380       -8.3151950352  MEMB      393             0.0000000000
     48914       393  QMPE      C29            49.7094465747       55.1611928655       -7.1928874502  MEMB      393             0.0000000000
     48915       393  QMPE      H9R            48.9576633447       55.2813358963       -6.4342864786  MEMB      393             0.0000000000
     48916       393  QMPE      C217           50.3687679186       56.4365551317       -7.2441095103  MEMB      393             0.0000000000
     48917       393  QMPE      H17R           50.9244609765       57.3527310696       -8.5086749783  MEMB      393             0.0000000000
     48918       393  QMPE      H17S           49.4913948380       56.7071638501       -6.9894911740  MEMB      393             0.0000000000
     48919       393  QMPE      C210           51.0753530251       55.4458285629       -6.5670095783  MEMB      393             0.0000000000
     48920       393  QMPE      H10R           51.5634654094       56.0227754054       -5.8948536432  MEMB      393             0.0000000000
     48921       393  QMPE      C211           52.2100880134       55.0341048654       -6.9166497402  MEMB      393             0.0000000000
     48922       393  QMPE      H11R           52.9943541183       55.3807635632       -7.9120467957  MEMB      393             0.0000000000
     48923       393  QMPE      H11S           52.8040575697       55.9598450821       -7.0789663856  MEMB      393             0.0000000000
     48924       393  QMPE      C212           52.4889040844       53.6343156847       -6.4515478833  MEMB      393             0.0000000000
     48925       393  QMPE      H12R           53.5043334475       53.4459303990       -6.2150851417  MEMB      393             0.0000000000
     48926       393  QMPE      H12S           52.8843088772       53.0257741734       -7.1419375710  MEMB      393             0.0000000000
     48927       393  QMPE      C213           52.4161704010       53.3002278823       -5.2368559035  MEMB      393             0.0000000000
     48928       393  QMPE      H13R           51.4698215191       53.4492981914       -5.3044609181  MEMB      393             0.0000000000
     48929       393  QMPE      H13S           52.9070032067       54.0450928941       -4.7555278668  MEMB      393             0.0000000000
     48930       393  QMPE      C214           53.0579509929       52.1440192207       -4.8545445147  MEMB      393             0.0000000000
     48931       393  QMPE      H14R           54.1884065026       52.1995730752       -4.7929672533  MEMB      393             0.0000000000
     48932       393  QMPE      H14S           52.5932413951       51.4335375028       -5.5245589803  MEMB      393             0.0000000000
     48933       393  QMPE      C215           52.9451845878       51.9410909371       -3.6711904107  MEMB      393             0.0000000000
     48934       393  QMPE      H15R           53.5328386438       51.2073714923       -3.2739373469  MEMB      393             0.0000000000
     48935       393  QMPE      H15S           51.8351405224       51.8368834235       -3.6096470514  MEMB      393             0.0000000000
     48936       393  QMPE      C216           53.8713200034       52.5377526781       -2.8180747536  MEMB      393             0.0000000000
     48937       393  QMPE      H16R           54.7669574641       52.6331367077       -2.7291796099  MEMB      393             0.0000000000
     48938       393  QMPE      H16S           54.1114135102       52.5984967693       -1.4657492735  MEMB      393             0.0000000000
     48939       393  QMPE      H16T           53.1247784593       53.3225387517       -3.1903110748  MEMB      393             0.0000000000
     48940       393  QMPE      C33            45.5599812289       47.6346692205      -13.5218811865  MEMB      393             0.0000000000
     48941       393  QMPE      H3X            45.3811902075       44.9512567591      -13.3403295449  MEMB      393             0.0000000000
     48942       393  QMPE      H3Y            44.8766107397       47.2729848472      -14.1022071355  MEMB      393             0.0000000000
     48943       393  QMPE      C34            46.0908886996       47.8351561649      -12.2242530019  MEMB      393             0.0000000000
     48944       393  QMPE      H4X            44.9697834919       48.0093097518      -11.6717031827  MEMB      393             0.0000000000
     48945       393  QMPE      H4Y            45.9608144390       48.7400684592      -11.8593677141  MEMB      393             0.0000000000
     48946       393  QMPE      C35            47.3508444826       46.8221626626      -11.5565902655  MEMB      393             0.0000000000
     48947       393  QMPE      H5X            48.1294214250       46.9332765499      -12.2276085775  MEMB      393             0.0000000000
     48948       393  QMPE      H5Y            47.4163582703       45.6266435693      -11.4044922424  MEMB      393             0.0000000000
     48949       393  QMPE      C36            47.5312342753       47.2316463424      -10.0917151581  MEMB      393             0.0000000000
     48950       393  QMPE      H6X            46.7791209699       47.1901413474       -9.3482873453  MEMB      393             0.0000000000
     48951       393  QMPE      H6Y            47.2875122740       48.2673802471      -10.1044968969  MEMB      393             0.0000000000
     48952       393  QMPE      C37            48.6537821453       46.7150113539       -9.4270978443  MEMB      393             0.0000000000
     48953       393  QMPE      H7X            48.6890132790       45.6226151926       -9.5024022422  MEMB      393             0.0000000000
     48954       393  QMPE      H7Y            49.3971144802       47.2630733708      -10.0289592653  MEMB      393             0.0000000000
     48955       393  QMPE      C38            48.5945723105       47.0413451540       -7.9933812896  MEMB      393             0.0000000000
     48956       393  QMPE      H8X            47.9877987739       46.6162130890       -7.2290868455  MEMB      393             0.0000000000
     48957       393  QMPE      H8Y            49.6015150913       46.5145009302       -7.7878768374  MEMB      393             0.0000000000
     48958       393  QMPE      C39            48.2977443928       48.5967540909       -7.7601811799  MEMB      393             0.0000000000
     48959       393  QMPE      H9X            47.4940366622       49.1064493793       -8.2100438665  MEMB      393             0.0000000000
     48960       393  QMPE      H9Y            49.0237159222       49.0432032811       -8.3578635135  MEMB      393             0.0000000000
     48961       393  QMPE      C310           48.5237309148       49.0162254031       -6.3433950869  MEMB      393             0.0000000000
     48962       393  QMPE      H10X           49.3523058645       48.9008691129       -5.8706494114  MEMB      393             0.0000000000
     48963       393  QMPE      H10Y           47.8430114828       48.7040115748       -5.6525440417  MEMB      393             0.0000000000
     48964       393  QMPE      C311           48.5189693442       50.2352855627       -5.7846309607  MEMB      393             0.0000000000
     48965       393  QMPE      H11X           47.7081319591       50.7153467886       -6.3809111207  MEMB      393             0.0000000000
     48966       393  QMPE      H11Y           49.2335492314       50.7344497271       -6.0567969789  MEMB      393             0.0000000000
     48967       393  QMPE      C312           49.3985042391       50.8297292480       -4.6282494617  MEMB      393             0.0000000000
     48968       393  QMPE      H12X           49.5974789085       51.8042084267       -4.2869381389  MEMB      393             0.0000000000
     48969       393  QMPE      H12Y           50.4363595448       51.1957126711       -4.5908693641  MEMB      393             0.0000000000
     48970       393  QMPE      C313           48.6320622237       50.3583842679       -3.5069656895  MEMB      393             0.0000000000
     48971       393  QMPE      H13X           47.6512790084       50.7536440448       -3.3222670404  MEMB      393             0.0000000000
     48972       393  QMPE      H13Y           47.7844748983       49.7983248577       -3.8062207539  MEMB      393             0.0000000000
     48973       393  QMPE      C314           49.3780415320       50.1015383492       -2.3494664517  MEMB      393             0.0000000000
     48974       393  QMPE      H14X           50.3263820066       50.6728525329       -2.2503560696  MEMB      393             0.0000000000
     48975       393  QMPE      H14Y           49.3784836256       49.1526777324       -2.8070165484  MEMB      393             0.0000000000
     48976       393  QMPE      C315           48.6035639166       49.8283954469       -1.2072195788  MEMB      393             0.0000000000
     48977       393  QMPE      H15X           48.4672413564       50.8975155566       -0.9835300920  MEMB      393             0.0000000000
     48978       393  QMPE      H15Y           47.6677775914       49.2539086809       -1.4265223617  MEMB      393             0.0000000000
     48979       393  QMPE      H15Z           49.2324126010       49.3441326816       -0.4469902760  MEMB      393             0.0000000000
     48980       394  PMPE      N             -41.2202148857      -59.7809401264      -19.2491946787  MEMB      394             0.0000000000
     48981       394  PMPE      HN1           -41.5588772859      -60.3126746191      -20.0914181696  MEMB      394             0.0000000000
     48982       394  PMPE      HN2           -40.1800185347      -59.7151814483      -19.2154609372  MEMB      394             0.0000000000
     48983       394  PMPE      HN3           -41.5175973874      -60.2927041117      -18.4009021158  MEMB      394             0.0000000000
     48984       394  PMPE      C12           -41.8562171431      -58.4276252268      -19.2289621456  MEMB      394             0.0000000000
     48985       394  PMPE      H12A          -42.2677779422      -58.1966374766      -18.2324358717  MEMB      394             0.0000000000
     48986       394  PMPE      H12B          -42.7184802150      -58.4973671017      -19.9069899856  MEMB      394             0.0000000000
     48987       394  PMPE      C11           -40.8714249105      -57.3653976322      -19.6808928721  MEMB      394             0.0000000000
     48988       394  PMPE      H11A          -40.4085167213      -57.7096157029      -20.6374543246  MEMB      394             0.0000000000
     48989       394  PMPE      H11B          -40.0525808232      -57.2603989197      -18.9188122950  MEMB      394             0.0000000000
     48990       394  PMPE      P             -41.6462739601      -55.0099291934      -18.7550832633  MEMB      394             0.0000000000
     48991       394  PMPE      O13           -42.1493596226      -53.7653487699      -19.3356064592  MEMB      394             0.0000000000
     48992       394  PMPE      O14           -40.3353786638      -55.0264389172      -18.0942670076  MEMB      394             0.0000000000
     48993       394  PMPE      O11           -42.7133278372      -55.5817653064      -17.7391869174  MEMB      394             0.0000000000
     48994       394  PMPE      O12           -41.6117758502      -56.1605545320      -19.8877723919  MEMB      394             0.0000000000
     48995       394  PMPE      C1            -44.1020070151      -55.7539505626      -18.0452695595  MEMB      394             0.0000000000
     48996       394  PMPE      HA            -44.2300414773      -56.4294955423      -18.9027264496  MEMB      394             0.0000000000
     48997       394  PMPE      HB            -44.5856910633      -54.7975785165      -18.3857592746  MEMB      394             0.0000000000
     48998       394  PMPE      C2            -44.8708132203      -56.2586389010      -16.7795666109  MEMB      394             0.0000000000
     48999       394  PMPE      HS            -45.9817187083      -56.2258095819      -17.0529588901  MEMB      394             0.0000000000
     49000       394  PMPE      O21           -44.3628271610      -55.5204867495      -15.6119011132  MEMB      394             0.0000000000
     49001       394  PMPE      C21           -44.9337485121      -54.3906588839      -15.6226184762  MEMB      394             0.0000000000
     49002       394  PMPE      O22           -45.9877844224      -54.3732734975      -16.2193161341  MEMB      394             0.0000000000
     49003       394  PMPE      C22           -44.3386158086      -53.4283587193      -14.5173455840  MEMB      394             0.0000000000
     49004       394  PMPE      H2R           -44.8815787168      -52.4791736220      -14.2987514536  MEMB      394             0.0000000000
     49005       394  PMPE      H2S           -43.2781715203      -53.2518173779      -14.7656579132  MEMB      394             0.0000000000
     49006       394  PMPE      C3            -44.7168665977      -57.7171197077      -16.3599892004  MEMB      394             0.0000000000
     49007       394  PMPE      HX            -44.9361154523      -58.3814971231      -17.2013662721  MEMB      394             0.0000000000
     49008       394  PMPE      HY            -45.5149084111      -57.8853696328      -15.5979994149  MEMB      394             0.0000000000
     49009       394  PMPE      O31           -43.4081857535      -57.9128884007      -15.8025899466  MEMB      394             0.0000000000
     49010       394  PMPE      C31           -42.8543710111      -59.0803111082      -15.5475552768  MEMB      394             0.0000000000
     49011       394  PMPE      O32           -43.2162785036      -60.1670717666      -15.8372688399  MEMB      394             0.0000000000
     49012       394  PMPE      C32           -41.5952095207      -59.0904218257      -14.8017591900  MEMB      394             0.0000000000
     49013       394  PMPE      H2X           -40.8874477186      -59.8542126578      -15.2070050771  MEMB      394             0.0000000000
     49014       394  PMPE      H2Y           -41.9320270501      -59.5608306708      -13.8457411870  MEMB      394             0.0000000000
     49015       394  PMPE      C23           -44.1918377491      -54.2311153650      -13.2175720277  MEMB      394             0.0000000000
     49016       394  PMPE      H3R           -43.8671361097      -55.2219651179      -13.4630366396  MEMB      394             0.0000000000
     49017       394  PMPE      H3S           -45.0569208138      -54.4784679817      -12.7018041848  MEMB      394             0.0000000000
     49018       394  PMPE      C24           -43.3577526839      -53.6572351975      -12.1447511883  MEMB      394             0.0000000000
     49019       394  PMPE      H4R           -43.9631800799      -52.8253219136      -11.7548949802  MEMB      394             0.0000000000
     49020       394  PMPE      H4S           -42.5215814359      -53.2457840945      -12.6851914159  MEMB      394             0.0000000000
     49021       394  PMPE      C25           -42.9265249858      -54.6466123454      -11.0517993961  MEMB      394             0.0000000000
     49022       394  PMPE      H5R           -42.1356452115      -54.1694680272      -10.4389141468  MEMB      394             0.0000000000
     49023       394  PMPE      H5S           -42.5095800323      -55.5555731587      -11.4817258488  MEMB      394             0.0000000000
     49024       394  PMPE      C26           -43.9832437340      -55.0822432750      -10.0939596324  MEMB      394             0.0000000000
     49025       394  PMPE      H6R           -43.8222273041      -55.8658210701       -9.3797930886  MEMB      394             0.0000000000
     49026       394  PMPE      H6S           -44.9452991667      -55.2729679738      -10.6099360095  MEMB      394             0.0000000000
     49027       394  PMPE      C27           -44.1093404665      -54.0046196182       -9.1824517684  MEMB      394             0.0000000000
     49028       394  PMPE      H7R           -44.9007135737      -54.3201232203       -8.4580099418  MEMB      394             0.0000000000
     49029       394  PMPE      H7S           -44.4020852591      -53.2926425653      -10.0146221624  MEMB      394             0.0000000000
     49030       394  PMPE      C28           -43.2216282830      -53.4715210489       -8.1112900426  MEMB      394             0.0000000000
     49031       394  PMPE      H8R           -42.3990614096      -52.9915437012       -8.5102944641  MEMB      394             0.0000000000
     49032       394  PMPE      H8S           -43.1893596087      -54.3364284420       -7.4015201262  MEMB      394             0.0000000000
     49033       394  PMPE      C29           -43.6761498061      -52.2689400557       -7.3587382497  MEMB      394             0.0000000000
     49034       394  PMPE      H9R           -44.3294624263      -52.7654394794       -6.7807331415  MEMB      394             0.0000000000
     49035       394  PMPE      C217          -43.6936160321      -50.6825388784       -7.7748037601  MEMB      394             0.0000000000
     49036       394  PMPE      H17R          -44.6918810579      -50.1307444305       -7.8766387976  MEMB      394             0.0000000000
     49037       394  PMPE      H17S          -43.3303730811      -50.8431467436       -8.7124859468  MEMB      394             0.0000000000
     49038       394  PMPE      C210          -43.1224103735      -51.3158004850       -6.4824704522  MEMB      394             0.0000000000
     49039       394  PMPE      H10R          -43.5194812940      -51.6485032191       -5.5838950811  MEMB      394             0.0000000000
     49040       394  PMPE      C211          -41.8428689126      -51.4427082915       -6.0998222965  MEMB      394             0.0000000000
     49041       394  PMPE      H11R          -41.6206706807      -50.6033852421       -5.4215261416  MEMB      394             0.0000000000
     49042       394  PMPE      H11S          -41.4524518742      -51.3494779074       -7.0624367082  MEMB      394             0.0000000000
     49043       394  PMPE      C212          -41.5772982972      -52.7828148358       -5.5442152155  MEMB      394             0.0000000000
     49044       394  PMPE      H12R          -40.4598000964      -52.8661333967       -5.5756190186  MEMB      394             0.0000000000
     49045       394  PMPE      H12S          -42.0665544357      -53.5790385451       -6.0621886320  MEMB      394             0.0000000000
     49046       394  PMPE      C213          -42.1234236634      -52.9851929148       -4.1830637079  MEMB      394             0.0000000000
     49047       394  PMPE      H13R          -41.7089471269      -53.9666586425       -4.0089482706  MEMB      394             0.0000000000
     49048       394  PMPE      H13S          -43.0873288643      -52.9126726591       -3.7677305796  MEMB      394             0.0000000000
     49049       394  PMPE      C214          -41.5557200084      -52.0085388602       -3.4316811241  MEMB      394             0.0000000000
     49050       394  PMPE      H14R          -40.6548482382      -51.9294818634       -3.9527252406  MEMB      394             0.0000000000
     49051       394  PMPE      H14S          -41.5972045072      -52.2392370594       -2.3755661468  MEMB      394             0.0000000000
     49052       394  PMPE      C215          -41.7214235557      -50.7739442498       -2.8868240669  MEMB      394             0.0000000000
     49053       394  PMPE      H15R          -42.4109745533      -50.8827396836       -1.9946883777  MEMB      394             0.0000000000
     49054       394  PMPE      H15S          -42.1396025325      -50.1254415307       -3.6084834260  MEMB      394             0.0000000000
     49055       394  PMPE      C216          -40.5378978970      -50.3172185246       -2.2245096473  MEMB      394             0.0000000000
     49056       394  PMPE      H16R          -39.9077783448      -49.7231828706       -2.7893487899  MEMB      394             0.0000000000
     49057       394  PMPE      H16S          -41.0264133234      -50.0443688696       -1.3463567932  MEMB      394             0.0000000000
     49058       394  PMPE      H16T          -39.9805943009      -50.5026761035       -1.3673873825  MEMB      394             0.0000000000
     49059       394  PMPE      C33           -40.9814996608      -57.6894889137      -14.8709978630  MEMB      394             0.0000000000
     49060       394  PMPE      H3X           -41.4800461861      -56.9913737922      -15.5848742122  MEMB      394             0.0000000000
     49061       394  PMPE      H3Y           -39.9603292537      -57.8114985155      -15.2797826400  MEMB      394             0.0000000000
     49062       394  PMPE      C34           -40.8673264306      -56.9673590037      -13.5265965085  MEMB      394             0.0000000000
     49063       394  PMPE      H4X           -41.8717156329      -56.9359035328      -13.0672492904  MEMB      394             0.0000000000
     49064       394  PMPE      H4Y           -40.5594657778      -55.9133253169      -13.6889478902  MEMB      394             0.0000000000
     49065       394  PMPE      C35           -39.8351839579      -57.6914086624      -12.6590107255  MEMB      394             0.0000000000
     49066       394  PMPE      H5X           -38.8475772513      -57.5488969555      -13.1489855434  MEMB      394             0.0000000000
     49067       394  PMPE      H5Y           -40.0842510363      -58.7612739410      -12.7719170226  MEMB      394             0.0000000000
     49068       394  PMPE      C36           -39.7038138884      -57.2677912498      -11.1770048059  MEMB      394             0.0000000000
     49069       394  PMPE      H6X           -39.8606409412      -56.1739857539      -11.1592400022  MEMB      394             0.0000000000
     49070       394  PMPE      H6Y           -38.6557177112      -57.5061705151      -10.8736359323  MEMB      394             0.0000000000
     49071       394  PMPE      C37           -40.7914282835      -57.8390171029      -10.2388355867  MEMB      394             0.0000000000
     49072       394  PMPE      H7X           -40.7998693410      -58.9322536125      -10.4392670609  MEMB      394             0.0000000000
     49073       394  PMPE      H7Y           -41.7099896939      -57.4163816270      -10.6987780855  MEMB      394             0.0000000000
     49074       394  PMPE      C38           -40.8011157209      -57.4382128384       -8.7181552883  MEMB      394             0.0000000000
     49075       394  PMPE      H8X           -39.9906580996      -57.9338939096       -8.1468058954  MEMB      394             0.0000000000
     49076       394  PMPE      H8Y           -41.7421264694      -57.7873171374       -8.2275545646  MEMB      394             0.0000000000
     49077       394  PMPE      C39           -40.6629419977      -55.9335278090       -8.3996465060  MEMB      394             0.0000000000
     49078       394  PMPE      H9X           -41.6788658618      -55.5028823434       -8.2607565648  MEMB      394             0.0000000000
     49079       394  PMPE      H9Y           -40.1906369775      -55.4147486624       -9.2644625818  MEMB      394             0.0000000000
     49080       394  PMPE      C310          -39.7099472802      -55.6306749136       -7.2152407559  MEMB      394             0.0000000000
     49081       394  PMPE      H10X          -39.6911580024      -54.5190856769       -7.0672444917  MEMB      394             0.0000000000
     49082       394  PMPE      H10Y          -38.6783424547      -55.9195339598       -7.5013461279  MEMB      394             0.0000000000
     49083       394  PMPE      C311          -40.0350547907      -56.2568232236       -5.8446289758  MEMB      394             0.0000000000
     49084       394  PMPE      H11X          -41.1283803952      -56.1670926624       -5.6769405961  MEMB      394             0.0000000000
     49085       394  PMPE      H11Y          -39.5461653549      -55.5750496140       -5.1044980536  MEMB      394             0.0000000000
     49086       394  PMPE      C312          -39.5775200006      -57.6929611951       -5.4932183429  MEMB      394             0.0000000000
     49087       394  PMPE      H12X          -38.5274532718      -57.9324344356       -5.7896502683  MEMB      394             0.0000000000
     49088       394  PMPE      H12Y          -40.2043460252      -58.4838114937       -5.9527641927  MEMB      394             0.0000000000
     49089       394  PMPE      C313          -39.8088092519      -57.8996143126       -4.0152743752  MEMB      394             0.0000000000
     49090       394  PMPE      H13X          -39.0508658736      -57.3889103853       -3.4087527075  MEMB      394             0.0000000000
     49091       394  PMPE      H13Y          -39.7705793472      -58.9130709042       -3.7474873944  MEMB      394             0.0000000000
     49092       394  PMPE      C314          -41.0998158598      -57.4624710492       -3.3997449173  MEMB      394             0.0000000000
     49093       394  PMPE      H14X          -41.9046220787      -57.7565600737       -4.0847862237  MEMB      394             0.0000000000
     49094       394  PMPE      H14Y          -41.0232333085      -56.3686125642       -3.4453032371  MEMB      394             0.0000000000
     49095       394  PMPE      C315          -41.3161299190      -57.9276963741       -1.9465340138  MEMB      394             0.0000000000
     49096       394  PMPE      H15X          -40.5234244193      -57.4952317614       -1.2953383680  MEMB      394             0.0000000000
     49097       394  PMPE      H15Y          -41.1915965034      -59.0269710249       -1.8258823221  MEMB      394             0.0000000000
     49098       394  PMPE      C316          -42.6669295219      -57.4727391880       -1.3873706614  MEMB      394             0.0000000000
     49099       394  PMPE      H16X          -42.7293431368      -57.7826426820       -0.3203541668  MEMB      394             0.0000000000
     49100       394  PMPE      H16Y          -43.5353696299      -57.8475110256       -1.9559444728  MEMB      394             0.0000000000
     49101       394  PMPE      H16Z          -42.7857395649      -56.3779367548       -1.4868261923  MEMB      394             0.0000000000
     49102       395  QMPE      N              47.3476753106       53.3191959511      -22.3086278090  MEMB      395             0.0000000000
     49103       395  QMPE      HN1            46.4579749635       52.7990403088      -22.4689194986  MEMB      395             0.0000000000
     49104       395  QMPE      HN2            47.3307131984       54.2265357452      -22.8119085756  MEMB      395             0.0000000000
     49105       395  QMPE      HN3            48.1359904803       52.8025854796      -22.7633342991  MEMB      395             0.0000000000
     49106       395  QMPE      C12            47.4707888543       53.5478315793      -20.8035313805  MEMB      395             0.0000000000
     49107       395  QMPE      H12A           48.3534943802       54.1904993993      -20.6526744672  MEMB      395             0.0000000000
     49108       395  QMPE      H12B           47.6791646511       52.5782365987      -20.2992989076  MEMB      395             0.0000000000
     49109       395  QMPE      C11            46.2876279968       54.3493622576      -20.1658695834  MEMB      395             0.0000000000
     49110       395  QMPE      H11A           45.2728507624       54.0317060643      -20.4847341329  MEMB      395             0.0000000000
     49111       395  QMPE      H11B           46.3714194096       55.4134930504      -20.4774365249  MEMB      395             0.0000000000
     49112       395  QMPE      P              45.2367332116       54.8433548432      -17.7410105944  MEMB      395             0.0000000000
     49113       395  QMPE      O13            44.6378122427       53.7220316527      -17.0015238262  MEMB      395             0.0000000000
     49114       395  QMPE      O14            44.3075432681       55.6764751268      -18.5339798105  MEMB      395             0.0000000000
     49115       395  QMPE      O11            46.0485583219       55.6990687090      -16.7020550899  MEMB      395             0.0000000000
     49116       395  QMPE      O12            46.3914323519       54.3078920510      -18.7475896920  MEMB      395             0.0000000000
     49117       395  QMPE      C1             46.9409263700       56.7021056651      -17.1663186402  MEMB      395             0.0000000000
     49118       395  QMPE      HA             46.4120784348       57.5120454134      -17.6282093547  MEMB      395             0.0000000000
     49119       395  QMPE      HB             47.5669228232       56.3280543494      -17.9796937104  MEMB      395             0.0000000000
     49120       395  QMPE      C2             47.9403844441       57.2808575063      -16.1421552226  MEMB      395             0.0000000000
     49121       395  QMPE      HS             48.4232728956       58.1676331120      -16.6301544921  MEMB      395             0.0000000000
     49122       395  QMPE      O21            48.7732130957       56.2901992984      -15.6694271007  MEMB      395             0.0000000000
     49123       395  QMPE      C21            49.6695807474       56.0364072767      -16.4994512851  MEMB      395             0.0000000000
     49124       395  QMPE      O22            49.8734444963       56.5441160673      -17.5866279853  MEMB      395             0.0000000000
     49125       395  QMPE      C22            50.5380728355       55.2005615453      -15.7095640744  MEMB      395             0.0000000000
     49126       395  QMPE      H2R            51.4064942642       55.2912115983      -16.2847877200  MEMB      395             0.0000000000
     49127       395  QMPE      H2S            50.2074183755       54.1568942736      -15.6813070169  MEMB      395             0.0000000000
     49128       395  QMPE      C3             47.4838777043       57.8300988717      -14.9140792280  MEMB      395             0.0000000000
     49129       395  QMPE      HX             47.0325265915       58.8450619545      -15.2339157242  MEMB      395             0.0000000000
     49130       395  QMPE      HY             48.0217531511       58.3876025675      -14.1655036219  MEMB      395             0.0000000000
     49131       395  QMPE      O31            46.8106487531       56.7069639985      -14.1981326751  MEMB      395             0.0000000000
     49132       395  QMPE      C31            46.7213124277       56.6043140152      -12.8430304921  MEMB      395             0.0000000000
     49133       395  QMPE      O32            46.8389861327       57.4966941543      -12.0233931224  MEMB      395             0.0000000000
     49134       395  QMPE      C32            46.0089969020       55.2590958825      -12.6009916654  MEMB      395             0.0000000000
     49135       395  QMPE      H2X            45.0924930645       55.1205755879      -13.2356530843  MEMB      395             0.0000000000
     49136       395  QMPE      H2Y            46.7250661734       54.5764154807      -12.9561827887  MEMB      395             0.0000000000
     49137       395  QMPE      C23            50.9524170284       55.8888537275      -14.4283731390  MEMB      395             0.0000000000
     49138       395  QMPE      H3R            50.9697262505       56.9536651558      -14.3778714961  MEMB      395             0.0000000000
     49139       395  QMPE      H3S            51.9652432750       55.7725706624      -14.3867169139  MEMB      395             0.0000000000
     49140       395  QMPE      C24            50.3785405845       55.3208215240      -13.1944290768  MEMB      395             0.0000000000
     49141       395  QMPE      H4R            50.3151150787       54.3853168157      -13.5546164830  MEMB      395             0.0000000000
     49142       395  QMPE      H4S            49.4812324018       55.7853784252      -12.9151175562  MEMB      395             0.0000000000
     49143       395  QMPE      C25            51.1573633024       55.2483847296      -12.0062093936  MEMB      395             0.0000000000
     49144       395  QMPE      H5R            51.7637808213       56.1463827521      -12.1762185852  MEMB      395             0.0000000000
     49145       395  QMPE      H5S            51.6627903825       54.2026148583      -11.8900829902  MEMB      395             0.0000000000
     49146       395  QMPE      C26            50.5599235246       55.5000671141      -10.9053991053  MEMB      395             0.0000000000
     49147       395  QMPE      H6R            50.2513479035       54.4657467805      -10.9992125988  MEMB      395             0.0000000000
     49148       395  QMPE      H6S            49.8338454636       56.2323661396      -10.7531547366  MEMB      395             0.0000000000
     49149       395  QMPE      C27            51.4043442528       55.6037131299      -10.0073482661  MEMB      395             0.0000000000
     49150       395  QMPE      H7R            52.1245431173       56.1680464226       -9.7961438388  MEMB      395             0.0000000000
     49151       395  QMPE      H7S            51.7595065118       54.7675037910       -9.9252381338  MEMB      395             0.0000000000
     49152       395  QMPE      C28            51.1308705987       55.6859905484       -9.1648980923  MEMB      395             0.0000000000
     49153       395  QMPE      H8R            52.0208546791       56.4525093902       -8.3101743012  MEMB      395             0.0000000000
     49154       395  QMPE      H8S            51.2820726352       54.6500076523       -8.4813965066  MEMB      395             0.0000000000
     49155       395  QMPE      C29            49.2304979200       57.6596212474       -8.7588778159  MEMB      395             0.0000000000
     49156       395  QMPE      H9R            48.7378010814       56.7058022449       -8.6881834720  MEMB      395             0.0000000000
     49157       395  QMPE      C217           50.4228847652       59.0371142078       -7.9167402978  MEMB      395             0.0000000000
     49158       395  QMPE      H17R           51.5459368430       58.6251322508       -7.7589632973  MEMB      395             0.0000000000
     49159       395  QMPE      H17S           50.1597130455       59.1917060534       -8.8520347074  MEMB      395             0.0000000000
     49160       395  QMPE      C210           49.7425602241       58.6240395543       -6.8647511698  MEMB      395             0.0000000000
     49161       395  QMPE      H10R           48.8083759587       58.3628296970       -6.5665404659  MEMB      395             0.0000000000
     49162       395  QMPE      C211           50.6601893934       57.8985450740       -5.4573702451  MEMB      395             0.0000000000
     49163       395  QMPE      H11R           51.7637804994       57.8086261671       -5.5470409947  MEMB      395             0.0000000000
     49164       395  QMPE      H11S           50.3588392936       58.3349727336       -4.6796660739  MEMB      395             0.0000000000
     49165       395  QMPE      C212           50.0963796811       56.6695857194       -4.5184665652  MEMB      395             0.0000000000
     49166       395  QMPE      H12R           50.0716971557       55.5613159521       -4.7663384002  MEMB      395             0.0000000000
     49167       395  QMPE      H12S           49.0684383321       56.7968768453       -4.5158057182  MEMB      395             0.0000000000
     49168       395  QMPE      C213           50.8628176286       56.6029012058       -3.3000158188  MEMB      395             0.0000000000
     49169       395  QMPE      H13R           50.0699134482       56.1870768714       -2.6939688503  MEMB      395             0.0000000000
     49170       395  QMPE      H13S           51.2568961402       57.5787045463       -3.0296373993  MEMB      395             0.0000000000
     49171       395  QMPE      C214           51.9818118421       55.7195102626       -3.4243796621  MEMB      395             0.0000000000
     49172       395  QMPE      H14R           52.7623630537       56.3566903571       -3.6458473589  MEMB      395             0.0000000000
     49173       395  QMPE      H14S           51.7846181983       55.1873877311       -4.2849189474  MEMB      395             0.0000000000
     49174       395  QMPE      C215           52.0670704574       54.8719076675       -2.3004774244  MEMB      395             0.0000000000
     49175       395  QMPE      H15R           53.2188963874       54.2287105709       -1.8635514461  MEMB      395             0.0000000000
     49176       395  QMPE      H15S           51.2958382267       54.1724320366       -2.7279047837  MEMB      395             0.0000000000
     49177       395  QMPE      C216           51.3622202057       55.4465795257       -1.1048465431  MEMB      395             0.0000000000
     49178       395  QMPE      H16R           50.8342453784       56.2341879315       -0.6818290377  MEMB      395             0.0000000000
     49179       395  QMPE      H16S           52.0464467335       56.1798174976       -0.8982707975  MEMB      395             0.0000000000
     49180       395  QMPE      H16T           51.5153433774       54.8455579373       -0.3871056591  MEMB      395             0.0000000000
     49181       395  QMPE      C33            45.4985449359       55.1073121579      -11.1680306385  MEMB      395             0.0000000000
     49182       395  QMPE      H3X            44.5747804732       54.5434582224      -11.1338079785  MEMB      395             0.0000000000
     49183       395  QMPE      H3Y            45.4352272735       56.0617638194      -10.6439250879  MEMB      395             0.0000000000
     49184       395  QMPE      C34            46.3672710466       54.5101764432      -10.2562547955  MEMB      395             0.0000000000
     49185       395  QMPE      H4X            47.2996974072       54.7696822547      -10.7910209540  MEMB      395             0.0000000000
     49186       395  QMPE      H4Y            46.3097662330       53.4803001944      -10.2094456013  MEMB      395             0.0000000000
     49187       395  QMPE      C35            46.1077286137       54.4501049084       -8.7090058091  MEMB      395             0.0000000000
     49188       395  QMPE      H5X            45.3636590805       53.6824105178       -8.5849628890  MEMB      395             0.0000000000
     49189       395  QMPE      H5Y            45.8708134657       55.4772620367       -8.6305170891  MEMB      395             0.0000000000
     49190       395  QMPE      C36            47.0532590914       54.0850675742       -7.5453748037  MEMB      395             0.0000000000
     49191       395  QMPE      H6X            47.0762090251       54.3658205332       -6.5648746868  MEMB      395             0.0000000000
     49192       395  QMPE      H6Y            47.6652068759       54.9925556745       -7.7893963354  MEMB      395             0.0000000000
     49193       395  QMPE      C37            47.6315532383       52.6639175217       -7.5829211697  MEMB      395             0.0000000000
     49194       395  QMPE      H7X            47.0723702975       51.8429584760       -7.8900949340  MEMB      395             0.0000000000
     49195       395  QMPE      H7Y            48.1714792739       52.4122184664       -8.4112254488  MEMB      395             0.0000000000
     49196       395  QMPE      C38            48.8713387584       52.4055105408       -7.0028532644  MEMB      395             0.0000000000
     49197       395  QMPE      H8X            48.9334415947       51.2242748901       -7.6138337399  MEMB      395             0.0000000000
     49198       395  QMPE      H8Y            49.9868919787       52.6267922361       -6.8697003536  MEMB      395             0.0000000000
     49199       395  QMPE      C39            48.8120510437       53.1063808869       -5.6966231205  MEMB      395             0.0000000000
     49200       395  QMPE      H9X            48.5449318313       54.0496106991       -5.4152032811  MEMB      395             0.0000000000
     49201       395  QMPE      H9Y            49.8348432444       53.2302781791       -5.2455365407  MEMB      395             0.0000000000
     49202       395  QMPE      C310           47.6281059629       52.6484128921       -4.7360951544  MEMB      395             0.0000000000
     49203       395  QMPE      H10X           47.3025979150       51.5900090417       -4.8363610840  MEMB      395             0.0000000000
     49204       395  QMPE      H10Y           46.7465812054       52.2693381352       -5.2034694372  MEMB      395             0.0000000000
     49205       395  QMPE      C311           48.0635724935       52.8430293541       -3.1589424335  MEMB      395             0.0000000000
     49206       395  QMPE      H11X           49.1800539165       52.7873009300       -2.8865210163  MEMB      395             0.0000000000
     49207       395  QMPE      H11Y           47.7572502298       52.1324537603       -2.3380898384  MEMB      395             0.0000000000
     49208       395  QMPE      C312           47.4935592934       54.0037015667       -2.8213222127  MEMB      395             0.0000000000
     49209       395  QMPE      H12X           46.5506939904       53.9875660563       -3.4072564101  MEMB      395             0.0000000000
     49210       395  QMPE      H12Y           48.3001630030       54.6069747017       -3.2663664752  MEMB      395             0.0000000000
     49211       395  QMPE      C313           47.3473847519       54.0506977367       -1.3470126162  MEMB      395             0.0000000000
     49212       395  QMPE      H13X           48.3315084428       54.0576338849       -0.8210710810  MEMB      395             0.0000000000
     49213       395  QMPE      H13Y           46.8195659176       54.9963393014       -1.1967433988  MEMB      395             0.0000000000
     49214       395  QMPE      C314           46.4451393906       53.0180841483       -0.7321483552  MEMB      395             0.0000000000
     49215       395  QMPE      H14X           46.9107974057       52.0075813656       -0.7168706635  MEMB      395             0.0000000000
     49216       395  QMPE      H14Y           45.5168831096       52.7859274062       -1.2698131817  MEMB      395             0.0000000000
     49217       395  QMPE      C315           46.0744435708       53.5296472435        0.6159274727  MEMB      395             0.0000000000
     49218       395  QMPE      H15X           46.9701467109       53.8211346296        1.2662734248  MEMB      395             0.0000000000
     49219       395  QMPE      H15Y           45.5084126048       54.3357878150        0.9366581835  MEMB      395             0.0000000000
     49220       395  QMPE      H15Z           45.4815776894       52.6497972469        0.9339607604  MEMB      395             0.0000000000
     49221       396  QMPE      N              47.3780081096      -49.1334079181      -19.1456425318  MEMB      396             0.0000000000
     49222       396  QMPE      HN1            46.3775196041      -49.3756885399      -18.9748309552  MEMB      396             0.0000000000
     49223       396  QMPE      HN2            47.8974511287      -49.1375263913      -18.2441398115  MEMB      396             0.0000000000
     49224       396  QMPE      HN3            47.5043375890      -48.1803143944      -19.5475255707  MEMB      396             0.0000000000
     49225       396  QMPE      C12            47.8735444694      -50.2099181394      -20.0807499839  MEMB      396             0.0000000000
     49226       396  QMPE      H12A           48.6291433082      -49.7207593237      -20.7235989026  MEMB      396             0.0000000000
     49227       396  QMPE      H12B           46.9792214347      -50.5536445823      -20.6623063228  MEMB      396             0.0000000000
     49228       396  QMPE      C11            48.4777004238      -51.3939137243      -19.2987721167  MEMB      396             0.0000000000
     49229       396  QMPE      H11A           48.7889808417      -52.2502718575      -19.9412802541  MEMB      396             0.0000000000
     49230       396  QMPE      H11B           47.6408644519      -51.8138701337      -18.7133479438  MEMB      396             0.0000000000
     49231       396  QMPE      P              51.0347960383      -51.3549554355      -18.7669078006  MEMB      396             0.0000000000
     49232       396  QMPE      O13            51.4961718383      -50.3310996986      -19.7302345554  MEMB      396             0.0000000000
     49233       396  QMPE      O14            51.1128936725      -52.7869525583      -19.1015094211  MEMB      396             0.0000000000
     49234       396  QMPE      O11            51.7442498170      -51.1377500284      -17.3889463899  MEMB      396             0.0000000000
     49235       396  QMPE      O12            49.5152793167      -50.9678002711      -18.4126605341  MEMB      396             0.0000000000
     49236       396  QMPE      C1             51.0721088297      -50.6013752879      -16.2473171708  MEMB      396             0.0000000000
     49237       396  QMPE      HA             50.2708713043      -51.2706904789      -15.8691006036  MEMB      396             0.0000000000
     49238       396  QMPE      HB             50.5587886364      -49.6578426630      -16.5032518727  MEMB      396             0.0000000000
     49239       396  QMPE      C2             52.0671168766      -50.4432204010      -15.0725534318  MEMB      396             0.0000000000
     49240       396  QMPE      HS             52.9813270069      -49.9451316388      -15.4866791533  MEMB      396             0.0000000000
     49241       396  QMPE      O21            52.3427299595      -51.7752427804      -14.6092971411  MEMB      396             0.0000000000
     49242       396  QMPE      C21            53.3726465004      -51.7908261560      -13.8279385396  MEMB      396             0.0000000000
     49243       396  QMPE      O22            54.1601139449      -50.8675205547      -13.6581845328  MEMB      396             0.0000000000
     49244       396  QMPE      C22            53.4035525174      -53.1382743132      -13.1521139861  MEMB      396             0.0000000000
     49245       396  QMPE      H2R            53.4945869590      -53.9659616397      -13.8898170902  MEMB      396             0.0000000000
     49246       396  QMPE      H2S            52.4385510755      -53.2838520903      -12.6343272666  MEMB      396             0.0000000000
     49247       396  QMPE      C3             51.4979334254      -49.6118525942      -13.8820755484  MEMB      396             0.0000000000
     49248       396  QMPE      HX             51.2806750572      -48.6138831935      -14.3042530142  MEMB      396             0.0000000000
     49249       396  QMPE      HY             52.2097551217      -49.4612027844      -13.0383397782  MEMB      396             0.0000000000
     49250       396  QMPE      O31            50.3230064427      -50.2626127471      -13.3969657168  MEMB      396             0.0000000000
     49251       396  QMPE      C31            49.3360843537      -49.5009076243      -13.0465117581  MEMB      396             0.0000000000
     49252       396  QMPE      O32            49.2960712515      -48.2950811490      -12.9131654432  MEMB      396             0.0000000000
     49253       396  QMPE      C32            48.1912239204      -50.3669187835      -12.8195889992  MEMB      396             0.0000000000
     49254       396  QMPE      H2X            47.4726483991      -49.5921218174      -12.5290205926  MEMB      396             0.0000000000
     49255       396  QMPE      H2Y            47.7759114380      -50.8565648684      -13.7196699900  MEMB      396             0.0000000000
     49256       396  QMPE      C23            54.4706545100      -53.0771965541      -12.0632814930  MEMB      396             0.0000000000
     49257       396  QMPE      H3R            54.3881915750      -52.1390200513      -11.4981323154  MEMB      396             0.0000000000
     49258       396  QMPE      H3S            55.5186344337      -53.0766896381      -12.4240414578  MEMB      396             0.0000000000
     49259       396  QMPE      C24            54.3021284893      -54.1236698187      -11.0137810932  MEMB      396             0.0000000000
     49260       396  QMPE      H4R            55.2221035576      -54.1613008421      -10.4459516132  MEMB      396             0.0000000000
     49261       396  QMPE      H4S            54.1727080400      -55.1031661327      -11.3757438667  MEMB      396             0.0000000000
     49262       396  QMPE      C25            53.1394717976      -54.0731423496      -10.2250416484  MEMB      396             0.0000000000
     49263       396  QMPE      H5R            52.2564716907      -54.3265095332      -10.9000170183  MEMB      396             0.0000000000
     49264       396  QMPE      H5S            53.1195701018      -53.0874099311       -9.7834453095  MEMB      396             0.0000000000
     49265       396  QMPE      C26            53.4930035530      -54.9974951522       -9.1182675346  MEMB      396             0.0000000000
     49266       396  QMPE      H6R            53.7307027316      -56.0133644426       -9.2541566238  MEMB      396             0.0000000000
     49267       396  QMPE      H6S            52.5191050316      -55.0373990941       -9.0852773238  MEMB      396             0.0000000000
     49268       396  QMPE      C27            54.2573107219      -54.6447860442       -7.9241743597  MEMB      396             0.0000000000
     49269       396  QMPE      H7R            54.1236487680      -53.6208308287       -7.7135416068  MEMB      396             0.0000000000
     49270       396  QMPE      H7S            55.2268100105      -54.8854099135       -8.2871471554  MEMB      396             0.0000000000
     49271       396  QMPE      C28            54.3239741547      -55.3721086172       -6.6519698345  MEMB      396             0.0000000000
     49272       396  QMPE      H8R            53.3334425626      -55.3989416575       -6.2280530952  MEMB      396             0.0000000000
     49273       396  QMPE      H8S            54.9351203846      -55.0454173561       -5.8325017786  MEMB      396             0.0000000000
     49274       396  QMPE      C29            55.0220708771      -56.5846567144       -6.8571336197  MEMB      396             0.0000000000
     49275       396  QMPE      H9R            55.0087716322      -57.0566561154       -7.9077308622  MEMB      396             0.0000000000
     49276       396  QMPE      C217           54.2838578905      -57.5392056664       -6.0660419099  MEMB      396             0.0000000000
     49277       396  QMPE      H17R           53.3754249958      -57.1472608972       -5.3520347354  MEMB      396             0.0000000000
     49278       396  QMPE      H17S           54.1448517749      -58.3381577471       -7.3266802864  MEMB      396             0.0000000000
     49279       396  QMPE      C210           54.9495429121      -57.1799591314       -5.6157306268  MEMB      396             0.0000000000
     49280       396  QMPE      H10R           54.9056031504      -58.0249847805       -6.0130745350  MEMB      396             0.0000000000
     49281       396  QMPE      C211           55.0260685660      -56.9708666681       -4.2160269954  MEMB      396             0.0000000000
     49282       396  QMPE      H11R           55.9833137144      -56.6673893429       -4.0977738333  MEMB      396             0.0000000000
     49283       396  QMPE      H11S           54.3505117256      -56.2411420552       -4.1474073369  MEMB      396             0.0000000000
     49284       396  QMPE      C212           54.9487786013      -57.9522851269       -3.2338700344  MEMB      396             0.0000000000
     49285       396  QMPE      H12R           55.4869127991      -58.8282650731       -3.3481201764  MEMB      396             0.0000000000
     49286       396  QMPE      H12S           54.1823839324      -58.3005618167       -3.7785408582  MEMB      396             0.0000000000
     49287       396  QMPE      C213           55.2495653072      -57.7351355320       -1.7797651984  MEMB      396             0.0000000000
     49288       396  QMPE      H13R           56.0934035546      -57.1218765308       -1.7897447585  MEMB      396             0.0000000000
     49289       396  QMPE      H13S           55.4907197496      -58.6601725772       -1.1811303355  MEMB      396             0.0000000000
     49290       396  QMPE      C214           54.2443538453      -56.8612747624       -1.3226681179  MEMB      396             0.0000000000
     49291       396  QMPE      H14R           53.5849890999      -57.4655997427       -0.8550014983  MEMB      396             0.0000000000
     49292       396  QMPE      H14S           53.6964784404      -56.4631249209       -2.1369633865  MEMB      396             0.0000000000
     49293       396  QMPE      C215           54.0586902364      -56.2272326702       -0.0380893406  MEMB      396             0.0000000000
     49294       396  QMPE      H15R           54.2291089207      -56.9205449416        0.7897663547  MEMB      396             0.0000000000
     49295       396  QMPE      H15S           53.0518392322      -55.7852242130        0.1963396390  MEMB      396             0.0000000000
     49296       396  QMPE      C216           54.8865941953      -55.1158015651       -0.2803437884  MEMB      396             0.0000000000
     49297       396  QMPE      H16R           55.8925559517      -55.5592949539       -0.2725373851  MEMB      396             0.0000000000
     49298       396  QMPE      H16S           54.7987835864      -54.4085078289        0.5333553134  MEMB      396             0.0000000000
     49299       396  QMPE      H16T           54.5353249127      -54.6983698918       -1.2674282785  MEMB      396             0.0000000000
     49300       396  QMPE      C33            48.4278043732      -51.4976529183      -11.8055845334  MEMB      396             0.0000000000
     49301       396  QMPE      H3X            49.5042882287      -51.6642216391      -11.7042974908  MEMB      396             0.0000000000
     49302       396  QMPE      H3Y            47.9159630676      -52.3732436563      -12.2794021635  MEMB      396             0.0000000000
     49303       396  QMPE      C34            47.9881677123      -51.2873174064      -10.3710079342  MEMB      396             0.0000000000
     49304       396  QMPE      H4X            47.9921903630      -52.2295939551       -9.8162208381  MEMB      396             0.0000000000
     49305       396  QMPE      H4Y            46.9899570934      -51.0491451572      -10.3577690512  MEMB      396             0.0000000000
     49306       396  QMPE      C35            48.5770000244      -50.0927703459       -9.6279546963  MEMB      396             0.0000000000
     49307       396  QMPE      H5X            48.1876377022      -50.1346855993       -8.5840878197  MEMB      396             0.0000000000
     49308       396  QMPE      H5Y            48.2140636015      -49.1446623166      -10.1032650489  MEMB      396             0.0000000000
     49309       396  QMPE      C36            50.0812302352      -50.0624173964       -9.5909934273  MEMB      396             0.0000000000
     49310       396  QMPE      H6X            50.4426537769      -50.0313389615      -10.6331945596  MEMB      396             0.0000000000
     49311       396  QMPE      H6Y            50.4161491144      -51.0030003621       -9.0950545680  MEMB      396             0.0000000000
     49312       396  QMPE      C37            50.6130541617      -48.8047306350       -8.8797149853  MEMB      396             0.0000000000
     49313       396  QMPE      H7X            50.2728354200      -47.8756490756       -9.3828190142  MEMB      396             0.0000000000
     49314       396  QMPE      H7Y            50.0918206570      -48.7919659654       -7.9126761444  MEMB      396             0.0000000000
     49315       396  QMPE      C38            52.1193353596      -48.8318743203       -8.5789424354  MEMB      396             0.0000000000
     49316       396  QMPE      H8X            52.6478098160      -48.8460535909       -9.5642578345  MEMB      396             0.0000000000
     49317       396  QMPE      H8Y            52.5202712121      -47.9293276529       -8.0570443854  MEMB      396             0.0000000000
     49318       396  QMPE      C39            52.4716945137      -50.0255507883       -7.6596749489  MEMB      396             0.0000000000
     49319       396  QMPE      H9X            53.4675403604      -49.7994004140       -7.2325372021  MEMB      396             0.0000000000
     49320       396  QMPE      H9Y            52.6789793321      -50.9132796044       -8.2895374119  MEMB      396             0.0000000000
     49321       396  QMPE      C310           51.5142367831      -50.3631023110       -6.4728090400  MEMB      396             0.0000000000
     49322       396  QMPE      H10X           50.4037378648      -50.3510577057       -6.6448641083  MEMB      396             0.0000000000
     49323       396  QMPE      H10Y           51.6782092608      -49.6422129271       -5.6479717794  MEMB      396             0.0000000000
     49324       396  QMPE      C311           51.8503461509      -51.7205570639       -5.9048388894  MEMB      396             0.0000000000
     49325       396  QMPE      H11X           52.8130495893      -51.7767634433       -5.3746777991  MEMB      396             0.0000000000
     49326       396  QMPE      H11Y           51.9092880261      -52.4473134195       -6.7330689553  MEMB      396             0.0000000000
     49327       396  QMPE      C312           50.7988926202      -52.0811672860       -4.9252543093  MEMB      396             0.0000000000
     49328       396  QMPE      H12X           51.0304220572      -53.0130378438       -4.8403711119  MEMB      396             0.0000000000
     49329       396  QMPE      H12Y           49.7905393414      -52.1111626942       -5.3609569447  MEMB      396             0.0000000000
     49330       396  QMPE      C313           51.0737243254      -51.7733577652       -3.4774950941  MEMB      396             0.0000000000
     49331       396  QMPE      H13X           51.9411373422      -52.2734803457       -2.9728256870  MEMB      396             0.0000000000
     49332       396  QMPE      H13Y           51.3074079217      -50.7107038905       -3.5179448780  MEMB      396             0.0000000000
     49333       396  QMPE      C314           49.7568624275      -51.8244378222       -2.7452730272  MEMB      396             0.0000000000
     49334       396  QMPE      H14X           49.6955781524      -52.8006008361       -2.1936545881  MEMB      396             0.0000000000
     49335       396  QMPE      H14Y           48.9797227549      -51.6540518890       -3.4896773422  MEMB      396             0.0000000000
     49336       396  QMPE      C315           49.5402783359      -50.7263759572       -1.7844248008  MEMB      396             0.0000000000
     49337       396  QMPE      H15X           48.6871922855      -50.6469258636       -1.0847013513  MEMB      396             0.0000000000
     49338       396  QMPE      H15Y           50.1874903495      -51.3567359707       -1.1846573776  MEMB      396             0.0000000000
     49339       396  QMPE      H15Z           49.9676393457      -49.7221521580       -1.9664427587  MEMB      396             0.0000000000
     49340       397  PMPE      N             -52.2092539804       46.7583708983      -20.7290641287  MEMB      397             0.0000000000
     49341       397  PMPE      HN1           -52.1445982733       46.2982036792      -19.7875528056  MEMB      397             0.0000000000
     49342       397  PMPE      HN2           -52.9374817740       46.2455541924      -21.2677410322  MEMB      397             0.0000000000
     49343       397  PMPE      HN3           -51.2965528342       46.6459253812      -21.2198340709  MEMB      397             0.0000000000
     49344       397  PMPE      C12           -52.6673287279       48.2169440995      -20.7139408836  MEMB      397             0.0000000000
     49345       397  PMPE      H12A          -52.5145832591       48.6449963726      -21.7185969472  MEMB      397             0.0000000000
     49346       397  PMPE      H12B          -52.0482087786       48.8519587574      -20.0589917579  MEMB      397             0.0000000000
     49347       397  PMPE      C11           -54.1749119586       48.3576919500      -20.4773387325  MEMB      397             0.0000000000
     49348       397  PMPE      H11A          -54.7011125609       47.9394015971      -21.3549470502  MEMB      397             0.0000000000
     49349       397  PMPE      H11B          -54.4455369107       49.4441222447      -20.4823318421  MEMB      397             0.0000000000
     49350       397  PMPE      P             -54.9460487043       48.3490423426      -17.9630866852  MEMB      397             0.0000000000
     49351       397  PMPE      O13           -55.8172988076       47.4419419784      -17.2198891601  MEMB      397             0.0000000000
     49352       397  PMPE      O14           -55.4176158469       49.6972904224      -18.1839129883  MEMB      397             0.0000000000
     49353       397  PMPE      O11           -53.4862591890       48.3842755584      -17.3968568461  MEMB      397             0.0000000000
     49354       397  PMPE      O12           -54.6187876159       47.6361221595      -19.3373623472  MEMB      397             0.0000000000
     49355       397  PMPE      C1            -52.8317379242       47.2185255890      -16.9405435464  MEMB      397             0.0000000000
     49356       397  PMPE      HA            -51.7694256151       47.2782794978      -17.2412289827  MEMB      397             0.0000000000
     49357       397  PMPE      HB            -53.1667296124       46.3041104156      -17.4461248560  MEMB      397             0.0000000000
     49358       397  PMPE      C2            -52.9772995006       47.1602805861      -15.3944443394  MEMB      397             0.0000000000
     49359       397  PMPE      HS            -52.2410835534       46.4445218355      -14.9216405882  MEMB      397             0.0000000000
     49360       397  PMPE      O21           -54.3040050982       46.8678017944      -14.9319980279  MEMB      397             0.0000000000
     49361       397  PMPE      C21           -54.6706618387       45.6943348082      -15.3024624575  MEMB      397             0.0000000000
     49362       397  PMPE      O22           -53.9540894554       44.9336887909      -15.8776729983  MEMB      397             0.0000000000
     49363       397  PMPE      C22           -56.1052956011       45.4089990501      -14.9657922310  MEMB      397             0.0000000000
     49364       397  PMPE      H2R           -56.6613339981       45.1393429692      -15.9102431494  MEMB      397             0.0000000000
     49365       397  PMPE      H2S           -56.5377819423       46.2491341419      -14.4798451464  MEMB      397             0.0000000000
     49366       397  PMPE      C3            -52.5871908739       48.5666658509      -14.8978605201  MEMB      397             0.0000000000
     49367       397  PMPE      HX            -53.2982660261       49.3225475590      -15.1231148031  MEMB      397             0.0000000000
     49368       397  PMPE      HY            -51.5834953189       48.9573350222      -15.0723249190  MEMB      397             0.0000000000
     49369       397  PMPE      O31           -52.4718506358       48.5837612545      -13.5937758902  MEMB      397             0.0000000000
     49370       397  PMPE      C31           -53.3941421874       49.0488711765      -12.9326282783  MEMB      397             0.0000000000
     49371       397  PMPE      O32           -54.4800655021       49.5162205791      -13.1387097430  MEMB      397             0.0000000000
     49372       397  PMPE      C32           -53.0066003984       48.8373099634      -11.7385375653  MEMB      397             0.0000000000
     49373       397  PMPE      H2X           -53.2116591739       48.1956083112      -10.8375307601  MEMB      397             0.0000000000
     49374       397  PMPE      H2Y           -54.0580652698       48.7873881339      -11.5015837740  MEMB      397             0.0000000000
     49375       397  PMPE      C23           -56.3388372869       44.4100140799      -13.9233535877  MEMB      397             0.0000000000
     49376       397  PMPE      H3R           -55.5852182114       43.8269216213      -14.5358336751  MEMB      397             0.0000000000
     49377       397  PMPE      H3S           -57.3804983975       44.1235997580      -13.7980994924  MEMB      397             0.0000000000
     49378       397  PMPE      C24           -55.9189269955       44.0444461751      -12.6676002630  MEMB      397             0.0000000000
     49379       397  PMPE      H4R           -54.9108999922       43.8520872122      -12.9961860288  MEMB      397             0.0000000000
     49380       397  PMPE      H4S           -56.0058761891       43.0857013613      -12.1510943346  MEMB      397             0.0000000000
     49381       397  PMPE      C25           -56.2772134642       45.3445920890      -11.9654603626  MEMB      397             0.0000000000
     49382       397  PMPE      H5R           -57.2720815052       45.6373269935      -12.1467963412  MEMB      397             0.0000000000
     49383       397  PMPE      H5S           -55.7526101648       46.0119180998      -12.6440064115  MEMB      397             0.0000000000
     49384       397  PMPE      C26           -55.8720246658       45.3881953423      -10.4373043829  MEMB      397             0.0000000000
     49385       397  PMPE      H6R           -56.4618620754       44.5161143789      -10.6515339249  MEMB      397             0.0000000000
     49386       397  PMPE      H6S           -56.2152845346       46.2668205707       -9.9195271437  MEMB      397             0.0000000000
     49387       397  PMPE      C27           -54.4588338851       44.7809806079       -9.6831068302  MEMB      397             0.0000000000
     49388       397  PMPE      H7R           -53.4605087037       45.3670903930       -9.8482251231  MEMB      397             0.0000000000
     49389       397  PMPE      H7S           -54.3655897036       43.7487630043      -10.1059752383  MEMB      397             0.0000000000
     49390       397  PMPE      C28           -54.0723651027       44.5212624236       -8.4177219849  MEMB      397             0.0000000000
     49391       397  PMPE      H8R           -54.9231530227       44.5179542722       -7.8651110101  MEMB      397             0.0000000000
     49392       397  PMPE      H8S           -53.6422535980       45.3802909346       -8.1397567907  MEMB      397             0.0000000000
     49393       397  PMPE      C29           -52.8184163870       43.9986493278       -8.0722773311  MEMB      397             0.0000000000
     49394       397  PMPE      H9R           -51.8691821601       44.0676542828       -8.6350778280  MEMB      397             0.0000000000
     49395       397  PMPE      C217          -53.3458931988       42.8663513458       -7.6919797337  MEMB      397             0.0000000000
     49396       397  PMPE      H17R          -52.6666639206       42.3974503179       -7.8744230437  MEMB      397             0.0000000000
     49397       397  PMPE      H17S          -54.1488220415       42.2845568810       -7.8911570756  MEMB      397             0.0000000000
     49398       397  PMPE      C210          -52.6608854863       43.4374634409       -6.6411008732  MEMB      397             0.0000000000
     49399       397  PMPE      H10R          -51.5669336794       43.4469176698       -6.4003043655  MEMB      397             0.0000000000
     49400       397  PMPE      C211          -53.7653826093       43.4835944186       -5.7052707844  MEMB      397             0.0000000000
     49401       397  PMPE      H11R          -53.3693232582       43.2977080325       -4.7664870386  MEMB      397             0.0000000000
     49402       397  PMPE      H11S          -54.6518069007       42.9030897740       -5.8772137240  MEMB      397             0.0000000000
     49403       397  PMPE      C212          -53.9559565750       44.6162211745       -5.0095138084  MEMB      397             0.0000000000
     49404       397  PMPE      H12R          -54.7069840488       44.7955935588       -4.2680709059  MEMB      397             0.0000000000
     49405       397  PMPE      H12S          -54.4076822299       45.2747797428       -5.7104798145  MEMB      397             0.0000000000
     49406       397  PMPE      C213          -52.5881112305       44.8556081153       -4.0865664667  MEMB      397             0.0000000000
     49407       397  PMPE      H13R          -51.8576627681       45.1596385136       -4.9011640698  MEMB      397             0.0000000000
     49408       397  PMPE      H13S          -51.6844510143       44.8962132147       -4.8969782860  MEMB      397             0.0000000000
     49409       397  PMPE      C214          -52.5856992909       46.2801538626       -2.5612749044  MEMB      397             0.0000000000
     49410       397  PMPE      H14R          -52.5349762193       45.4428540833       -2.5869838357  MEMB      397             0.0000000000
     49411       397  PMPE      H14S          -53.6389538324       46.3622845537       -2.5937793883  MEMB      397             0.0000000000
     49412       397  PMPE      C215          -51.3518791501       47.6504799300       -2.5741116632  MEMB      397             0.0000000000
     49413       397  PMPE      H15R          -51.8876730046       48.5222167728       -2.2508808021  MEMB      397             0.0000000000
     49414       397  PMPE      H15S          -50.9781842870       48.1103212275       -3.6946816542  MEMB      397             0.0000000000
     49415       397  PMPE      C216          -50.0704345489       47.2345770310       -2.2534795767  MEMB      397             0.0000000000
     49416       397  PMPE      H16R          -49.5196013966       48.0470237087       -1.9727619839  MEMB      397             0.0000000000
     49417       397  PMPE      H16S          -50.2951822315       46.5679745478       -1.4073921140  MEMB      397             0.0000000000
     49418       397  PMPE      H16T          -49.6126003478       46.6490458325       -3.0871580643  MEMB      397             0.0000000000
     49419       397  PMPE      C33           -51.7119569037       49.0692759909      -11.1534286429  MEMB      397             0.0000000000
     49420       397  PMPE      H3X           -51.6710793895       49.7979727090      -11.6515304918  MEMB      397             0.0000000000
     49421       397  PMPE      H3Y           -50.8766992016       48.6073522873      -11.6159684914  MEMB      397             0.0000000000
     49422       397  PMPE      C34           -50.9991846543       49.5136107399       -8.7959276587  MEMB      397             0.0000000000
     49423       397  PMPE      H4X           -50.0885798995       49.1107445477       -8.8837248612  MEMB      397             0.0000000000
     49424       397  PMPE      H4Y           -51.2530374298       49.0104196540       -8.3980495463  MEMB      397             0.0000000000
     49425       397  PMPE      C35           -51.2511869266       51.1626110985       -8.0117545756  MEMB      397             0.0000000000
     49426       397  PMPE      H5X           -51.0658760355       51.9243397452       -8.8367558782  MEMB      397             0.0000000000
     49427       397  PMPE      H5Y           -50.5560938688       50.7629005150       -7.4450409290  MEMB      397             0.0000000000
     49428       397  PMPE      C36           -52.6957308505       51.7617828340       -7.6502821036  MEMB      397             0.0000000000
     49429       397  PMPE      H6X           -53.6342847651       51.5229417470       -8.2631137561  MEMB      397             0.0000000000
     49430       397  PMPE      H6Y           -52.9840612899       52.4602000885       -8.4171275651  MEMB      397             0.0000000000
     49431       397  PMPE      C37           -53.1889505327       51.0105090119       -6.6027255842  MEMB      397             0.0000000000
     49432       397  PMPE      H7X           -52.4234223589       51.3431004668       -5.9766270769  MEMB      397             0.0000000000
     49433       397  PMPE      H7Y           -52.9830408367       49.9790197138       -6.6246059926  MEMB      397             0.0000000000
     49434       397  PMPE      C38           -54.4778910332       51.5078717573       -6.5099634470  MEMB      397             0.0000000000
     49435       397  PMPE      H8X           -54.6727045422       52.4674185876       -7.0514473800  MEMB      397             0.0000000000
     49436       397  PMPE      H8Y           -54.7628567622       51.6445298603       -5.5947557283  MEMB      397             0.0000000000
     49437       397  PMPE      C39           -55.2509830218       50.5005126570       -7.0336693718  MEMB      397             0.0000000000
     49438       397  PMPE      H9X           -55.0070141517       50.4606621754       -8.0297952839  MEMB      397             0.0000000000
     49439       397  PMPE      H9Y           -55.9611404012       51.1595200585       -6.7328500517  MEMB      397             0.0000000000
     49440       397  PMPE      C310          -56.3538583424       49.5304816396       -6.6532695019  MEMB      397             0.0000000000
     49441       397  PMPE      H10X          -55.8907781995       49.5505748735       -5.8898746270  MEMB      397             0.0000000000
     49442       397  PMPE      H10Y          -55.9618425974       48.8889612260       -7.4530458906  MEMB      397             0.0000000000
     49443       397  PMPE      C311          -57.4271541083       48.6138522420       -7.0109064904  MEMB      397             0.0000000000
     49444       397  PMPE      H11X          -57.7020457175       48.8426682359       -7.9493103365  MEMB      397             0.0000000000
     49445       397  PMPE      H11Y          -58.1276614249       48.9596715738       -6.2867105371  MEMB      397             0.0000000000
     49446       397  PMPE      C312          -57.5097965423       47.2668226265       -6.9453565495  MEMB      397             0.0000000000
     49447       397  PMPE      H12X          -56.8410135176       46.6941224909       -7.3654923669  MEMB      397             0.0000000000
     49448       397  PMPE      H12Y          -58.4409257126       47.1217328010       -7.3963574391  MEMB      397             0.0000000000
     49449       397  PMPE      C313          -57.5203538780       46.7226676039       -5.7246068572  MEMB      397             0.0000000000
     49450       397  PMPE      H13X          -56.7935594311       46.3043611378       -5.1816853861  MEMB      397             0.0000000000
     49451       397  PMPE      H13Y          -57.1690446378       45.7710563075       -5.5049702900  MEMB      397             0.0000000000
     49452       397  PMPE      C314          -57.8516642676       47.3670525300       -4.7327197021  MEMB      397             0.0000000000
     49453       397  PMPE      H14X          -58.9388585487       47.4981957745       -5.2777494855  MEMB      397             0.0000000000
     49454       397  PMPE      H14Y          -57.5273466069       48.4153881965       -4.6603465259  MEMB      397             0.0000000000
     49455       397  PMPE      C315          -57.5490150152       46.5050624097       -3.2890237475  MEMB      397             0.0000000000
     49456       397  PMPE      H15X          -57.9738360549       45.5789818590       -3.6205810099  MEMB      397             0.0000000000
     49457       397  PMPE      H15Y          -58.9215327785       46.5314640825       -1.5638857530  MEMB      397             0.0000000000
     49458       397  PMPE      C316          -56.4533177590       46.9171703329       -2.2575897922  MEMB      397             0.0000000000
     49459       397  PMPE      H16X          -56.7733526126       46.9871311668       -1.2318308250  MEMB      397             0.0000000000
     49460       397  PMPE      H16Y          -56.1722556360       47.9425643462       -1.8936883634  MEMB      397             0.0000000000
     49461       397  PMPE      H16Z          -55.7648421241       46.3412386927       -2.8160659587  MEMB      397             0.0000000000
     49462       398  POPE      N             -51.9839812996      -48.2771457678      -20.0589449802  MEMB      398             0.0000000000
     49463       398  POPE      HN1           -51.1299429995      -48.2367499579      -20.6488035831  MEMB      398             0.0000000000
     49464       398  POPE      HN2           -52.7143257367      -48.7153131950      -20.6578231463  MEMB      398             0.0000000000
     49465       398  POPE      HN3           -52.2666174940      -47.3195520980      -19.7329839068  MEMB      398             0.0000000000
     49466       398  POPE      C12           -51.7075555697      -49.2539241899      -18.9599574636  MEMB      398             0.0000000000
     49467       398  POPE      H12A          -51.1096348281      -48.6911492322      -18.2316110404  MEMB      398             0.0000000000
     49468       398  POPE      H12B          -51.1977632445      -50.1056084371      -19.4605090700  MEMB      398             0.0000000000
     49469       398  POPE      C11           -52.8890209285      -49.7728893045      -18.1715585261  MEMB      398             0.0000000000
     49470       398  POPE      H11A          -53.4243383367      -48.8864079306      -17.7717259810  MEMB      398             0.0000000000
     49471       398  POPE      H11B          -52.5321184839      -50.4347933898      -17.3337978896  MEMB      398             0.0000000000
     49472       398  POPE      P             -53.9685731164      -52.0280249256      -19.0525570887  MEMB      398             0.0000000000
     49473       398  POPE      O13           -52.6394043533      -52.6364556751      -19.2964014075  MEMB      398             0.0000000000
     49474       398  POPE      O14           -55.0462644140      -52.3618156613      -19.9899139837  MEMB      398             0.0000000000
     49475       398  POPE      O11           -54.4161010961      -52.4618147144      -17.5890360042  MEMB      398             0.0000000000
     49476       398  POPE      O12           -53.7549428522      -50.4519563879      -19.0423177181  MEMB      398             0.0000000000
     49477       398  POPE      C1            -55.5861068050      -51.8880716233      -17.0239834705  MEMB      398             0.0000000000
     49478       398  POPE      HA            -56.4601135556      -52.1414905496      -17.6731963517  MEMB      398             0.0000000000
     49479       398  POPE      HB            -55.5113921217      -50.7772867966      -17.0029187816  MEMB      398             0.0000000000
     49480       398  POPE      C2            -55.7700846662      -52.3743327629      -15.5509411758  MEMB      398             0.0000000000
     49481       398  POPE      HS            -56.2638286425      -51.5887954865      -14.9331851129  MEMB      398             0.0000000000
     49482       398  POPE      O21           -54.5490083439      -52.7871875157      -14.9204073544  MEMB      398             0.0000000000
     49483       398  POPE      C21           -53.5735949940      -51.9220667272      -14.7640443077  MEMB      398             0.0000000000
     49484       398  POPE      O22           -53.6116874177      -50.7195080412      -14.9681305261  MEMB      398             0.0000000000
     49485       398  POPE      C22           -52.3548080982      -52.6597405108      -14.2214292526  MEMB      398             0.0000000000
     49486       398  POPE      H2R           -51.4883186793      -52.1765781764      -14.7303902256  MEMB      398             0.0000000000
     49487       398  POPE      H2S           -52.4373254579      -53.7246300159      -14.5480852818  MEMB      398             0.0000000000
     49488       398  POPE      C3            -56.6967309129      -53.6034981778      -15.5266003480  MEMB      398             0.0000000000
     49489       398  POPE      HX            -56.3305229198      -54.3833170170      -16.2189913807  MEMB      398             0.0000000000
     49490       398  POPE      HY            -57.6881516126      -53.2672696671      -15.9017769926  MEMB      398             0.0000000000
     49491       398  POPE      O31           -56.8732454078      -54.1222426301      -14.2151677006  MEMB      398             0.0000000000
     49492       398  POPE      C31           -56.0203528210      -55.0019084503      -13.6814771224  MEMB      398             0.0000000000
     49493       398  POPE      O32           -54.9951363125      -55.4219301694      -14.1271207572  MEMB      398             0.0000000000
     49494       398  POPE      C32           -56.5689466286      -55.6284608848      -12.4517596919  MEMB      398             0.0000000000
     49495       398  POPE      H2X           -56.8019159468      -56.6789579208      -12.5994631977  MEMB      398             0.0000000000
     49496       398  POPE      H2Y           -57.5166588359      -55.2436517592      -12.5826736819  MEMB      398             0.0000000000
     49497       398  POPE      C23           -52.1828852033      -52.4543590922      -12.6780949896  MEMB      398             0.0000000000
     49498       398  POPE      H3R           -52.8367220640      -53.0685993869      -12.0433810952  MEMB      398             0.0000000000
     49499       398  POPE      H3S           -52.3605223940      -51.3918259101      -12.4141042729  MEMB      398             0.0000000000
     49500       398  POPE      C24           -50.8313970499      -52.8847646519      -12.1449298569  MEMB      398             0.0000000000
     49501       398  POPE      H4R           -50.1752809709      -52.2622398769      -12.7199207828  MEMB      398             0.0000000000
     49502       398  POPE      H4S           -50.7243785456      -53.9573074597      -12.4171328054  MEMB      398             0.0000000000
     49503       398  POPE      C25           -50.4847311176      -52.6431954066      -10.6649288880  MEMB      398             0.0000000000
     49504       398  POPE      H5R           -49.5333549471      -53.1713087199      -10.4038259481  MEMB      398             0.0000000000
     49505       398  POPE      H5S           -51.3202056747      -53.0332503703      -10.0588469989  MEMB      398             0.0000000000
     49506       398  POPE      C26           -50.3271892290      -51.1969281679      -10.2112324258  MEMB      398             0.0000000000
     49507       398  POPE      H6R           -51.2625603044      -50.6246391005      -10.3145804591  MEMB      398             0.0000000000
     49508       398  POPE      H6S           -49.5588572444      -50.6769802584      -10.8208954680  MEMB      398             0.0000000000
     49509       398  POPE      C27           -49.9218292578      -51.0969848789       -8.7443243117  MEMB      398             0.0000000000
     49510       398  POPE      H7R           -49.6727059573      -50.0766160123       -8.6478720596  MEMB      398             0.0000000000
     49511       398  POPE      H7S           -49.0285787735      -51.7048823695       -8.5779320728  MEMB      398             0.0000000000
     49512       398  POPE      C28           -50.8719760769      -51.4705822282       -7.6531462544  MEMB      398             0.0000000000
     49513       398  POPE      H8R           -50.3791309348      -51.4897752026       -6.6761276788  MEMB      398             0.0000000000
     49514       398  POPE      H8S           -51.3074315709      -52.4496827205       -7.8971242089  MEMB      398             0.0000000000
     49515       398  POPE      C29           -51.9306859209      -50.5638619725       -7.5690374928  MEMB      398             0.0000000000
     49516       398  POPE      H91           -51.8134459160      -49.4472008196       -7.3958272072  MEMB      398             0.0000000000
     49517       398  POPE      C210          -53.0808427762      -51.1011709118       -7.3635604582  MEMB      398             0.0000000000
     49518       398  POPE      H101          -53.4986163270      -50.2867222858       -7.5392978654  MEMB      398             0.0000000000
     49519       398  POPE      C211          -54.0337552547      -52.1899708118       -7.1424434963  MEMB      398             0.0000000000
     49520       398  POPE      H11R          -53.5006127564      -52.8305175397       -7.7917434194  MEMB      398             0.0000000000
     49521       398  POPE      H11S          -55.0842812714      -52.0895927892       -7.5479701023  MEMB      398             0.0000000000
     49522       398  POPE      C212          -54.0767146598      -52.7013793886       -5.6853675341  MEMB      398             0.0000000000
     49523       398  POPE      H12R          -53.0450359215      -52.8667752867       -5.3182255549  MEMB      398             0.0000000000
     49524       398  POPE      H12S          -54.5885475153      -53.6727316849       -5.8090476989  MEMB      398             0.0000000000
     49525       398  POPE      C213          -54.8990739729      -51.9043158658       -4.6596528263  MEMB      398             0.0000000000
     49526       398  POPE      H13R          -55.7700433988      -51.5540624395       -5.2381806737  MEMB      398             0.0000000000
     49527       398  POPE      H13S          -54.4374934011      -51.0117905128       -4.2708064715  MEMB      398             0.0000000000
     49528       398  POPE      C214          -55.4545827513      -52.4988282632       -3.3605612796  MEMB      398             0.0000000000
     49529       398  POPE      H14R          -56.5093995251      -52.7196038932       -3.6046755460  MEMB      398             0.0000000000
     49530       398  POPE      H14S          -55.5647246196      -51.7819689379       -2.5109030676  MEMB      398             0.0000000000
     49531       398  POPE      C215          -54.8379214985      -53.7960033024       -2.8622258162  MEMB      398             0.0000000000
     49532       398  POPE      H15R          -54.5346376511      -54.4419573618       -3.7093086021  MEMB      398             0.0000000000
     49533       398  POPE      H15S          -55.6825668398      -54.3156766184       -2.3588257471  MEMB      398             0.0000000000
     49534       398  POPE      C216          -53.6767433747      -53.6375278650       -1.8770222136  MEMB      398             0.0000000000
     49535       398  POPE      H16R          -52.9423993190      -52.9048423903       -2.2916171022  MEMB      398             0.0000000000
     49536       398  POPE      H16S          -53.1664771833      -54.6257629310       -1.8231140848  MEMB      398             0.0000000000
     49537       398  POPE      C217          -54.1427978303      -53.2498773034       -0.4671628775  MEMB      398             0.0000000000
     49538       398  POPE      H17R          -54.6609168658      -54.0580795634        0.0909799524  MEMB      398             0.0000000000
     49539       398  POPE      H17S          -54.8137015628      -52.4031208657       -0.4791464838  MEMB      398             0.0000000000
     49540       398  POPE      C218          -53.0501513921      -52.9220866383        0.3904005063  MEMB      398             0.0000000000
     49541       398  POPE      H18R          -52.4210410832      -52.0367027488        0.1854581729  MEMB      398             0.0000000000
     49542       398  POPE      H18S          -52.4815974165      -53.8771752586        0.1621164544  MEMB      398             0.0000000000
     49543       398  POPE      H18T          -53.2628759324      -52.8972057586        1.4936601232  MEMB      398             0.0000000000
     49544       398  POPE      C33           -55.7615189413      -55.3170282906      -11.1938370583  MEMB      398             0.0000000000
     49545       398  POPE      H3X           -55.7557086989      -54.2888078607      -10.8282177684  MEMB      398             0.0000000000
     49546       398  POPE      H3Y           -54.7080251110      -55.5558819975      -11.4180705885  MEMB      398             0.0000000000
     49547       398  POPE      C34           -56.2514445028      -55.9561240878       -9.9344722866  MEMB      398             0.0000000000
     49548       398  POPE      H4X           -56.1379086348      -56.8679508632      -10.3058785903  MEMB      398             0.0000000000
     49549       398  POPE      H4Y           -57.2767559757      -56.1287433367       -9.6596200403  MEMB      398             0.0000000000
     49550       398  POPE      C35           -55.4312764022      -55.5885531568       -8.7119418972  MEMB      398             0.0000000000
     49551       398  POPE      H5X           -55.7385284681      -56.1797446801       -7.7979467036  MEMB      398             0.0000000000
     49552       398  POPE      H5Y           -55.7476062225      -54.5977362412       -8.5094615218  MEMB      398             0.0000000000
     49553       398  POPE      C36           -53.9211865643      -55.3288808481       -8.8034288458  MEMB      398             0.0000000000
     49554       398  POPE      H6X           -53.3757041087      -54.8854693530       -9.5916230626  MEMB      398             0.0000000000
     49555       398  POPE      H6Y           -53.4344255513      -56.0377442272       -9.4587304966  MEMB      398             0.0000000000
     49556       398  POPE      C37           -53.2261675260      -55.3816959873       -7.3815830042  MEMB      398             0.0000000000
     49557       398  POPE      H7X           -53.5193128303      -56.2312586274       -6.5968538129  MEMB      398             0.0000000000
     49558       398  POPE      H7Y           -53.2911780724      -54.7531198343       -6.5926391404  MEMB      398             0.0000000000
     49559       398  POPE      C38           -51.7153593165      -55.1072607181       -7.5081484259  MEMB      398             0.0000000000
     49560       398  POPE      H8X           -51.2143580436      -54.5123106936       -8.0835854937  MEMB      398             0.0000000000
     49561       398  POPE      H8Y           -51.5487049552      -55.4760360145       -8.6286134102  MEMB      398             0.0000000000
     49562       398  POPE      C39           -50.5344967528      -55.6382168419       -6.2275169228  MEMB      398             0.0000000000
     49563       398  POPE      H9X           -49.5046590166      -55.9516281166       -6.4795892836  MEMB      398             0.0000000000
     49564       398  POPE      H9Y           -50.5911976485      -56.6346798446       -5.8755301446  MEMB      398             0.0000000000
     49565       398  POPE      C310          -50.4759968105      -55.0634040099       -5.1095255843  MEMB      398             0.0000000000
     49566       398  POPE      H10X          -51.5425203408      -55.1059864510       -4.9006216390  MEMB      398             0.0000000000
     49567       398  POPE      H10Y          -50.0460380926      -54.3176640292       -5.8107550587  MEMB      398             0.0000000000
     49568       398  POPE      C311          -49.4932193343      -55.5620282894       -4.1509712041  MEMB      398             0.0000000000
     49569       398  POPE      H11X          -48.4862379117      -55.6001096677       -4.6074042629  MEMB      398             0.0000000000
     49570       398  POPE      H11Y          -49.5706767427      -56.5088624762       -3.5994360626  MEMB      398             0.0000000000
     49571       398  POPE      C312          -49.6738260947      -54.6002580491       -3.0858632335  MEMB      398             0.0000000000
     49572       398  POPE      H12X          -50.6883114128      -54.5791927233       -2.6170825517  MEMB      398             0.0000000000
     49573       398  POPE      H12Y          -49.3943263540      -53.5826753420       -3.4304791435  MEMB      398             0.0000000000
     49574       398  POPE      C313          -48.7540911872      -55.1671479243       -2.1424955761  MEMB      398             0.0000000000
     49575       398  POPE      H13X          -47.7137098412      -54.9474849150       -2.5044920231  MEMB      398             0.0000000000
     49576       398  POPE      H13Y          -48.8242447337      -56.1739550733       -1.7683544591  MEMB      398             0.0000000000
     49577       398  POPE      C314          -49.1228189173      -54.5452195907       -0.9854775788  MEMB      398             0.0000000000
     49578       398  POPE      H14X          -48.2564709449      -55.0914954596       -0.2531152986  MEMB      398             0.0000000000
     49579       398  POPE      H14Y          -49.5359141135      -55.1175402445       -0.1567174200  MEMB      398             0.0000000000
     49580       398  POPE      C315          -49.1761797015      -52.3703284070       -1.2136106265  MEMB      398             0.0000000000
     49581       398  POPE      H15X          -49.2780310509      -51.7440975850       -0.2776349356  MEMB      398             0.0000000000
     49582       398  POPE      H15Y          -50.0262194139      -52.4544334693       -1.7476576071  MEMB      398             0.0000000000
     49583       398  POPE      C316          -47.5794644894      -51.2762004335       -1.4994293077  MEMB      398             0.0000000000
     49584       398  POPE      H16X          -46.9806790431      -51.2480218668       -0.4678445864  MEMB      398             0.0000000000
     49585       398  POPE      H16Y          -47.9418252899      -50.4763088586       -1.2607665019  MEMB      398             0.0000000000
     49586       398  POPE      H16Z          -46.8797535743      -51.8205363584       -2.3877612158  MEMB      398             0.0000000000
     49587       399  POPE      N             -48.4275746714       54.1388296420      -20.7488841976  MEMB      399             0.0000000000
     49588       399  POPE      HN1           -48.4652495932       53.1020517362      -20.7700059011  MEMB      399             0.0000000000
     49589       399  POPE      HN2           -47.6641292956       54.5210326933      -21.3437450647  MEMB      399             0.0000000000
     49590       399  POPE      HN3           -48.2911800758       54.4747493929      -19.7643252283  MEMB      399             0.0000000000
     49591       399  POPE      C12           -49.6708141455       54.7285509088      -21.3290465212  MEMB      399             0.0000000000
     49592       399  POPE      H12A          -49.9404704683       54.1772715684      -22.2529596306  MEMB      399             0.0000000000
     49593       399  POPE      H12B          -49.4616923481       55.7951132553      -21.5735053387  MEMB      399             0.0000000000
     49594       399  POPE      C11           -50.8435930288       54.5177274395      -20.3866837940  MEMB      399             0.0000000000
     49595       399  POPE      H11A          -51.2278320202       53.4819196742      -20.5737414869  MEMB      399             0.0000000000
     49596       399  POPE      H11B          -51.5989604689       55.2537991304      -20.7411780811  MEMB      399             0.0000000000
     49597       399  POPE      P             -50.3215269814       53.6442778824      -17.8904857712  MEMB      399             0.0000000000
     49598       399  POPE      O13           -49.3313986249       54.1321285312      -16.9259262594  MEMB      399             0.0000000000
     49599       399  POPE      O14           -50.0277698546       52.3645970362      -18.5757360913  MEMB      399             0.0000000000
     49600       399  POPE      O11           -51.6929243404       53.6323261449      -17.1671574028  MEMB      399             0.0000000000
     49601       399  POPE      O12           -50.4825910821       54.7714777179      -19.0281980813  MEMB      399             0.0000000000
     49602       399  POPE      C1            -52.4334619733       54.8466562118      -17.1253495307  MEMB      399             0.0000000000
     49603       399  POPE      HA            -52.9227980111       54.9984039899      -18.1158840670  MEMB      399             0.0000000000
     49604       399  POPE      HB            -51.7567095965       55.7050994197      -16.8689622094  MEMB      399             0.0000000000
     49605       399  POPE      C2            -53.5345129240       54.7203308977      -16.0458582496  MEMB      399             0.0000000000
     49606       399  POPE      HS            -54.0619696666       55.6781142588      -15.8421970158  MEMB      399             0.0000000000
     49607       399  POPE      O21           -52.9505545191       54.2273321889      -14.8355520028  MEMB      399             0.0000000000
     49608       399  POPE      C21           -52.1773144391       55.0714879421      -14.1797335424  MEMB      399             0.0000000000
     49609       399  POPE      O22           -52.0299074525       56.2550655918      -14.3911059795  MEMB      399             0.0000000000
     49610       399  POPE      C22           -51.5955413972       54.3777215016      -12.9782307265  MEMB      399             0.0000000000
     49611       399  POPE      H2R           -52.3887922467       53.7342833838      -12.5668063573  MEMB      399             0.0000000000
     49612       399  POPE      H2S           -51.3685714619       55.0906301289      -12.1536179645  MEMB      399             0.0000000000
     49613       399  POPE      C3            -54.6522838460       53.7384387464      -16.4865203518  MEMB      399             0.0000000000
     49614       399  POPE      HX            -54.2065934791       52.7784848382      -16.8223271982  MEMB      399             0.0000000000
     49615       399  POPE      HY            -55.1681745528       54.2274307352      -17.3574861816  MEMB      399             0.0000000000
     49616       399  POPE      O31           -55.5869906959       53.5322194551      -15.4142234696  MEMB      399             0.0000000000
     49617       399  POPE      C31           -55.3599529621       52.5764944427      -14.5100434524  MEMB      399             0.0000000000
     49618       399  POPE      O32           -54.4133581024       51.8221686523      -14.4695581355  MEMB      399             0.0000000000
     49619       399  POPE      C32           -56.4045750477       52.7334126420      -13.4044270758  MEMB      399             0.0000000000
     49620       399  POPE      H2X           -57.3777361454       52.3685110485      -13.6213452152  MEMB      399             0.0000000000
     49621       399  POPE      H2Y           -56.5857530454       53.7353080476      -13.0902678636  MEMB      399             0.0000000000
     49622       399  POPE      C23           -50.4571475222       53.5571045614      -13.4652663185  MEMB      399             0.0000000000
     49623       399  POPE      H3R           -49.7148519065       54.0971566116      -14.1291722055  MEMB      399             0.0000000000
     49624       399  POPE      H3S           -50.8052548077       52.6780147197      -14.0995542327  MEMB      399             0.0000000000
     49625       399  POPE      C24           -49.7123575813       53.1544342594      -12.2620931233  MEMB      399             0.0000000000
     49626       399  POPE      H4R           -48.9680937173       53.8615338461      -11.9427241163  MEMB      399             0.0000000000
     49627       399  POPE      H4S           -49.3903611390       52.4431752805      -13.0447187566  MEMB      399             0.0000000000
     49628       399  POPE      C25           -50.2178768989       52.5026557582      -11.0798854170  MEMB      399             0.0000000000
     49629       399  POPE      H5R           -51.2482204534       52.8287615968      -10.8620643343  MEMB      399             0.0000000000
     49630       399  POPE      H5S           -49.5842863685       52.5778418941      -10.1337695309  MEMB      399             0.0000000000
     49631       399  POPE      C26           -50.0367690660       51.1936988138      -11.5205665313  MEMB      399             0.0000000000
     49632       399  POPE      H6R           -49.1338292649       50.5865208351      -11.5505859310  MEMB      399             0.0000000000
     49633       399  POPE      H6S           -50.6620788118       50.9021051768      -12.3566930274  MEMB      399             0.0000000000
     49634       399  POPE      C27           -50.3252571243       50.8259052194      -10.4339172239  MEMB      399             0.0000000000
     49635       399  POPE      H7R           -49.5285162436       50.7944543412       -9.5179363059  MEMB      399             0.0000000000
     49636       399  POPE      H7S           -49.9559031725       49.6795542246      -10.4873900585  MEMB      399             0.0000000000
     49637       399  POPE      C28           -52.5266686458       50.7980957956       -9.9704162389  MEMB      399             0.0000000000
     49638       399  POPE      H8R           -52.6852357081       51.6715035593      -10.0141537127  MEMB      399             0.0000000000
     49639       399  POPE      H8S           -52.8538395558       50.1206041930       -8.9780288475  MEMB      399             0.0000000000
     49640       399  POPE      C29           -53.8370263748       50.0093388903       -9.7967344340  MEMB      399             0.0000000000
     49641       399  POPE      H91           -53.9353262150       50.4775509866      -10.8043769220  MEMB      399             0.0000000000
     49642       399  POPE      C210          -54.5830408801       48.8271317157       -9.3053994910  MEMB      399             0.0000000000
     49643       399  POPE      H101          -54.9679603770       48.2199185419      -10.1295462682  MEMB      399             0.0000000000
     49644       399  POPE      C211          -54.3563527632       47.5996715380       -8.5430116207  MEMB      399             0.0000000000
     49645       399  POPE      H11R          -53.5162081672       47.6364813256       -7.8792856327  MEMB      399             0.0000000000
     49646       399  POPE      H11S          -54.0490187419       46.8423075212       -9.1550594271  MEMB      399             0.0000000000
     49647       399  POPE      C212          -54.8035200514       47.1233785994       -7.4607423656  MEMB      399             0.0000000000
     49648       399  POPE      H12R          -54.7473394757       46.1912998622       -7.0951179427  MEMB      399             0.0000000000
     49649       399  POPE      H12S          -55.4912564358       46.9921051297       -8.2005926694  MEMB      399             0.0000000000
     49650       399  POPE      C213          -54.5117222408       47.9361273448       -6.3296797072  MEMB      399             0.0000000000
     49651       399  POPE      H13R          -54.2622459626       48.8294496514       -6.5692947970  MEMB      399             0.0000000000
     49652       399  POPE      H13S          -53.4904803198       48.3437978313       -6.3699745838  MEMB      399             0.0000000000
     49653       399  POPE      C214          -55.2382285378       47.7741892921       -5.0069898413  MEMB      399             0.0000000000
     49654       399  POPE      H14R          -55.2469996054       46.7176707532       -4.8997605958  MEMB      399             0.0000000000
     49655       399  POPE      H14S          -55.9055089289       47.9034229343       -5.4459427185  MEMB      399             0.0000000000
     49656       399  POPE      C215          -55.3585232303       48.9721914064       -3.8729207936  MEMB      399             0.0000000000
     49657       399  POPE      H15R          -54.4689847276       49.3313843672       -3.1702812479  MEMB      399             0.0000000000
     49658       399  POPE      H15S          -55.4893198581       48.4043515675       -3.2765916242  MEMB      399             0.0000000000
     49659       399  POPE      C216          -55.4797009561       50.2870236302       -3.9908726711  MEMB      399             0.0000000000
     49660       399  POPE      H16R          -56.4165982412       50.4261557809       -4.5285927515  MEMB      399             0.0000000000
     49661       399  POPE      H16S          -54.5422788091       50.3956565060       -4.5480571526  MEMB      399             0.0000000000
     49662       399  POPE      C217          -55.5123510102       50.9356233935       -2.7717701456  MEMB      399             0.0000000000
     49663       399  POPE      H17R          -54.5052339604       51.0250562003       -2.3267016514  MEMB      399             0.0000000000
     49664       399  POPE      H17S          -56.3632991460       50.8158991138       -2.1814384595  MEMB      399             0.0000000000
     49665       399  POPE      C218          -55.9658370032       52.0516349991       -3.1221032951  MEMB      399             0.0000000000
     49666       399  POPE      H18R          -54.9413153897       52.2423095846       -3.7002155636  MEMB      399             0.0000000000
     49667       399  POPE      H18S          -56.1381250640       52.7430865033       -2.2452336237  MEMB      399             0.0000000000
     49668       399  POPE      H18T          -56.7986884646       52.2115515440       -3.7875509290  MEMB      399             0.0000000000
     49669       399  POPE      C33           -56.1274756253       52.0196570954      -12.1691922328  MEMB      399             0.0000000000
     49670       399  POPE      H3X           -55.6771277206       51.0500603552      -12.4439431756  MEMB      399             0.0000000000
     49671       399  POPE      H3Y           -57.1452811959       51.8700414601      -11.6990150967  MEMB      399             0.0000000000
     49672       399  POPE      C34           -55.4441832525       52.7672527523      -11.1671054916  MEMB      399             0.0000000000
     49673       399  POPE      H4X           -54.5668263450       53.1568466632      -11.6263654910  MEMB      399             0.0000000000
     49674       399  POPE      H4Y           -55.0758312230       52.1018149859      -10.3937126124  MEMB      399             0.0000000000
     49675       399  POPE      C35           -56.2850862811       53.7779113132      -10.4983325972  MEMB      399             0.0000000000
     49676       399  POPE      H5X           -57.2461095982       53.4393998217      -10.2532760996  MEMB      399             0.0000000000
     49677       399  POPE      H5Y           -56.5508851209       54.5546156715      -11.2312491756  MEMB      399             0.0000000000
     49678       399  POPE      C36           -55.5297028597       54.2186317817       -9.2809267299  MEMB      399             0.0000000000
     49679       399  POPE      H6X           -55.1215670268       53.4688292171       -8.6358747492  MEMB      399             0.0000000000
     49680       399  POPE      H6Y           -56.1109489853       54.9475934382       -8.6262750552  MEMB      399             0.0000000000
     49681       399  POPE      C37           -54.2449178059       54.7756913373       -9.6059728773  MEMB      399             0.0000000000
     49682       399  POPE      H7X           -54.3812480106       55.6101654112      -10.3421060729  MEMB      399             0.0000000000
     49683       399  POPE      H7Y           -53.5265443676       54.3679090734      -10.2461664215  MEMB      399             0.0000000000
     49684       399  POPE      C38           -53.4131104333       54.9236289895       -8.3459802059  MEMB      399             0.0000000000
     49685       399  POPE      H8X           -53.5590915628       54.5410668894       -7.3682551744  MEMB      399             0.0000000000
     49686       399  POPE      H8Y           -54.1853886525       55.5551417703       -7.8347714421  MEMB      399             0.0000000000
     49687       399  POPE      C39           -51.9325498463       55.2163947158       -8.8938910796  MEMB      399             0.0000000000
     49688       399  POPE      H9X           -51.8523048641       55.9609620135       -9.8033228753  MEMB      399             0.0000000000
     49689       399  POPE      H9Y           -51.4105556306       54.3747679959       -9.1752817820  MEMB      399             0.0000000000
     49690       399  POPE      C310          -50.8562591973       55.4888161362       -7.8780581878  MEMB      399             0.0000000000
     49691       399  POPE      H10X          -51.8307913469       55.7018437192       -6.9526736455  MEMB      399             0.0000000000
     49692       399  POPE      H10Y          -50.0362571074       56.4968566966       -8.1872997490  MEMB      399             0.0000000000
     49693       399  POPE      C311          -49.7512655123       54.7053448695       -7.2312069001  MEMB      399             0.0000000000
     49694       399  POPE      H11X          -48.8955543008       55.2133289665       -6.6508021099  MEMB      399             0.0000000000
     49695       399  POPE      H11Y          -49.2999447982       54.6724354113       -8.2110669299  MEMB      399             0.0000000000
     49696       399  POPE      C312          -50.5309515874       53.9061446069       -6.1339895339  MEMB      399             0.0000000000
     49697       399  POPE      H12X          -49.6384109918       53.3509634781       -5.8569660324  MEMB      399             0.0000000000
     49698       399  POPE      H12Y          -51.3863775270       53.5314934633       -6.6963106887  MEMB      399             0.0000000000
     49699       399  POPE      C313          -51.2077410235       54.5497780434       -4.8245179972  MEMB      399             0.0000000000
     49700       399  POPE      H13X          -52.0743358137       55.2648381164       -4.9915051326  MEMB      399             0.0000000000
     49701       399  POPE      H13Y          -50.3750594272       55.1276166049       -4.4929702180  MEMB      399             0.0000000000
     49702       399  POPE      C314          -51.4769747504       53.8251542988       -3.6696795707  MEMB      399             0.0000000000
     49703       399  POPE      H14X          -50.6579556165       53.1903624829       -3.4794454828  MEMB      399             0.0000000000
     49704       399  POPE      H14Y          -52.2608179708       53.2335207636       -4.1542797366  MEMB      399             0.0000000000
     49705       399  POPE      C315          -51.7066019959       54.7669092521       -2.5198016818  MEMB      399             0.0000000000
     49706       399  POPE      H15X          -52.5940452525       55.4288806033       -2.7535700088  MEMB      399             0.0000000000
     49707       399  POPE      H15Y          -50.8540348541       55.3448547378       -2.1597694251  MEMB      399             0.0000000000
     49708       399  POPE      C316          -51.8018919874       53.8941703731       -1.3275722482  MEMB      399             0.0000000000
     49709       399  POPE      H16X          -52.1755390795       54.4560980093       -0.4333440499  MEMB      399             0.0000000000
     49710       399  POPE      H16Y          -51.8578081641       52.8088887820       -1.3588597141  MEMB      399             0.0000000000
     49711       399  POPE      H16Z          -52.6298040749       53.2820159397       -1.5892559978  MEMB      399             0.0000000000
     49712       400  PYPG      C13            55.0818427389       51.2875302844      -19.9077577957  MEMB      400             0.0000000000
     49713       400  PYPG      H13A           54.2711180877       50.9833053101      -19.1952468933  MEMB      400             0.0000000000
     49714       400  PYPG      H13B           55.4150188599       50.4184371097      -20.5204960073  MEMB      400             0.0000000000
     49715       400  PYPG      OC3            56.2413870435       51.6908089188      -19.2139989794  MEMB      400             0.0000000000
     49716       400  PYPG      HO3            55.9755188902       52.3403522662      -18.5676510645  MEMB      400             0.0000000000
     49717       400  PYPG      C12            54.5885287984       52.5034630543      -20.7302837457  MEMB      400             0.0000000000
     49718       400  PYPG      H12A           53.6593551634       52.2088130836      -21.2493970008  MEMB      400             0.0000000000
     49719       400  PYPG      OC2            55.5104714911       52.8718977648      -21.7409209438  MEMB      400             0.0000000000
     49720       400  PYPG      HO2            55.2545641155       53.7304392258      -22.0404403930  MEMB      400             0.0000000000
     49721       400  PYPG      C11            54.2728882327       53.7535774333      -19.8963071234  MEMB      400             0.0000000000
     49722       400  PYPG      H11A           53.6565807902       54.4344684519      -20.5290423601  MEMB      400             0.0000000000
     49723       400  PYPG      H11B           55.1994344997       54.2987746555      -19.6123584233  MEMB      400             0.0000000000
     49724       400  PYPG      P              52.9847289335       54.3288414162      -17.8135087963  MEMB      400             0.0000000000
     49725       400  PYPG      O13            51.9558753685       53.4765672517      -17.1716265000  MEMB      400             0.0000000000
     49726       400  PYPG      O14            52.5953366992       55.5787956820      -18.5094727528  MEMB      400             0.0000000000
     49727       400  PYPG      O11            54.1427902010       54.6700730087      -16.7714500716  MEMB      400             0.0000000000
     49728       400  PYPG      O12            53.5852904627       53.3311856572      -18.7507394108  MEMB      400             0.0000000000
     49729       400  PYPG      C1             53.9269179983       55.2750110633      -15.5167000600  MEMB      400             0.0000000000
     49730       400  PYPG      HA             53.1089214192       55.9460971357      -15.6384754041  MEMB      400             0.0000000000
     49731       400  PYPG      HB             54.6847035557       56.0426438792      -15.2595464676  MEMB      400             0.0000000000
     49732       400  PYPG      C2             54.0158364601       54.3017541419      -14.3322693799  MEMB      400             0.0000000000
     49733       400  PYPG      HS             55.0014336272       54.3722936814      -14.0265135214  MEMB      400             0.0000000000
     49734       400  PYPG      O21            53.3995908743       52.9829259733      -14.4793522805  MEMB      400             0.0000000000
     49735       400  PYPG      C21            54.0662252072       52.0680896164      -15.2130586879  MEMB      400             0.0000000000
     49736       400  PYPG      O22            55.1030978049       52.2626481143      -15.7908619002  MEMB      400             0.0000000000
     49737       400  PYPG      C22            53.5736500382       50.6653671989      -14.8295039263  MEMB      400             0.0000000000
     49738       400  PYPG      H2R            53.4303342368       50.2004150951      -15.8122571356  MEMB      400             0.0000000000
     49739       400  PYPG      H2S            52.5946368394       50.7662934900      -14.3513227729  MEMB      400             0.0000000000
     49740       400  PYPG      C3             53.4944597931       54.8434371909      -13.0759060716  MEMB      400             0.0000000000
     49741       400  PYPG      HX             52.5291394934       54.4497083055      -13.3915702611  MEMB      400             0.0000000000
     49742       400  PYPG      HY             53.4204254817       55.9894625640      -13.0877300315  MEMB      400             0.0000000000
     49743       400  PYPG      O31            53.8126988130       54.0626209958      -11.8789600924  MEMB      400             0.0000000000
     49744       400  PYPG      C31            53.7289492251       54.7539698997      -10.8781614512  MEMB      400             0.0000000000
     49745       400  PYPG      O32            53.5666687044       55.9394521995      -11.0292829776  MEMB      400             0.0000000000
     49746       400  PYPG      C32            53.4540469008       53.6632873079       -9.7167963269  MEMB      400             0.0000000000
     49747       400  PYPG      H2X            54.2504430583       53.4560015476       -9.1416168028  MEMB      400             0.0000000000
     49748       400  PYPG      H2Y            52.9451127435       53.9863494486       -8.8661263022  MEMB      400             0.0000000000
     49749       400  PYPG      C23            54.4565798881       49.6823442214      -13.9853504920  MEMB      400             0.0000000000
     49750       400  PYPG      H3R            55.4742106244       49.5168624133      -14.4222845126  MEMB      400             0.0000000000
     49751       400  PYPG      H3S            54.0176224674       48.6884223956      -13.9511254173  MEMB      400             0.0000000000
     49752       400  PYPG      C24            54.5605265489       50.0744047945      -12.5392582386  MEMB      400             0.0000000000
     49753       400  PYPG      H4R            53.8588364390       50.8116380902      -12.1307025258  MEMB      400             0.0000000000
     49754       400  PYPG      H4S            55.4245909840       50.5351843053      -12.8923601179  MEMB      400             0.0000000000
     49755       400  PYPG      C25            55.0083064820       49.1066963638      -11.4978011903  MEMB      400             0.0000000000
     49756       400  PYPG      H5R            55.9917114571       48.6201773198      -11.6677532566  MEMB      400             0.0000000000
     49757       400  PYPG      H5S            54.1851691041       48.3872850039      -11.5119629156  MEMB      400             0.0000000000
     49758       400  PYPG      C26            54.9401908012       49.5979133600      -10.1249103418  MEMB      400             0.0000000000
     49759       400  PYPG      H6R            55.1730667995       48.6307209368       -9.6323628919  MEMB      400             0.0000000000
     49760       400  PYPG      H6S            53.9714484008       49.9523689793       -9.7856571632  MEMB      400             0.0000000000
     49761       400  PYPG      C27            55.8597925869       50.6870673429       -9.8732631351  MEMB      400             0.0000000000
     49762       400  PYPG      H7R            55.5406500316       51.7140753743       -9.8789132664  MEMB      400             0.0000000000
     49763       400  PYPG      H7S            56.8656142891       50.5593219465      -10.2918710966  MEMB      400             0.0000000000
     49764       400  PYPG      C28            55.8558485851       51.0463181164       -8.6592492317  MEMB      400             0.0000000000
     49765       400  PYPG      H8R            56.7976129184       51.8070819001       -8.5484455102  MEMB      400             0.0000000000
     49766       400  PYPG      H8S            56.3066248670       49.9427574692       -8.7306938518  MEMB      400             0.0000000000
     49767       400  PYPG      C29            54.7513629087       51.1635435457       -7.6667601303  MEMB      400             0.0000000000
     49768       400  PYPG      H9R            54.5793630062       50.5126364620       -6.7876026546  MEMB      400             0.0000000000
     49769       400  PYPG      C210           54.9892295002       52.1032832363       -6.9941548999  MEMB      400             0.0000000000
     49770       400  PYPG      H10R           54.2238857538       52.0018522797       -6.4377423382  MEMB      400             0.0000000000
     49771       400  PYPG      C211           55.9477748879       53.1519421232       -6.8348498371  MEMB      400             0.0000000000
     49772       400  PYPG      H11R           55.5662509689       53.7835754643       -7.6226126349  MEMB      400             0.0000000000
     49773       400  PYPG      H11S           56.4873280614       53.4716429573       -7.4998758874  MEMB      400             0.0000000000
     49774       400  PYPG      C212           56.4588069545       53.7839293160       -5.4931303458  MEMB      400             0.0000000000
     49775       400  PYPG      H12R           55.4390075608       53.4958129742       -4.9849301002  MEMB      400             0.0000000000
     49776       400  PYPG      H12S           56.7572241940       54.9750152860       -5.5186257451  MEMB      400             0.0000000000
     49777       400  PYPG      C213           57.4957646301       53.8344717742       -4.9435919544  MEMB      400             0.0000000000
     49778       400  PYPG      H13R           58.2769028361       53.7514841953       -5.5303218636  MEMB      400             0.0000000000
     49779       400  PYPG      H13S           57.0397055681       52.8329424736       -5.1300454924  MEMB      400             0.0000000000
     49780       400  PYPG      C214           57.6879050821       54.5618002306       -3.6059012799  MEMB      400             0.0000000000
     49781       400  PYPG      H14R           57.8733763045       55.5709748074       -3.7575775332  MEMB      400             0.0000000000
     49782       400  PYPG      H14S           57.0261972817       54.4775306254       -2.8213567090  MEMB      400             0.0000000000
     49783       400  PYPG      C215           58.4782737407       53.9763367880       -2.5258340293  MEMB      400             0.0000000000
     49784       400  PYPG      H15R           59.2155042583       53.5662745467       -3.1470739886  MEMB      400             0.0000000000
     49785       400  PYPG      H15S           58.5550549186       52.9191799857       -2.1188161895  MEMB      400             0.0000000000
     49786       400  PYPG      C216           58.3923270704       54.4822468291       -1.1205878383  MEMB      400             0.0000000000
     49787       400  PYPG      H16R           57.7049201014       54.0693059489       -0.4351916098  MEMB      400             0.0000000000
     49788       400  PYPG      H16S           58.9624931926       55.4266846247       -1.1990128100  MEMB      400             0.0000000000
     49789       400  PYPG      H16T           58.9509930233       53.7977341613       -0.3783767167  MEMB      400             0.0000000000
     49790       400  PYPG      C33            52.3053840551       52.6589148656       -9.8507815100  MEMB      400             0.0000000000
     49791       400  PYPG      H3X            52.7071975692       51.9493163911      -10.4726467412  MEMB      400             0.0000000000
     49792       400  PYPG      H3Y            51.4477780929       53.0994182517      -10.3847329054  MEMB      400             0.0000000000
     49793       400  PYPG      C34            51.8050454252       52.0084557279       -8.6502682065  MEMB      400             0.0000000000
     49794       400  PYPG      H4X            51.4296228162       52.7978132706       -7.9750206017  MEMB      400             0.0000000000
     49795       400  PYPG      H4Y            52.3459847120       51.4690803878       -7.8969064438  MEMB      400             0.0000000000
     49796       400  PYPG      C35            50.6724968769       51.3529854351       -9.0312115943  MEMB      400             0.0000000000
     49797       400  PYPG      H5X            49.9459875088       51.9531315740       -9.0928678331  MEMB      400             0.0000000000
     49798       400  PYPG      H5Y            50.4885938494       51.4082431624       -8.0750262214  MEMB      400             0.0000000000
     49799       400  PYPG      C36            50.3598581541       50.1495522946       -9.6608552698  MEMB      400             0.0000000000
     49800       400  PYPG      H6X            50.6430655476       50.4512411794      -10.6506520797  MEMB      400             0.0000000000
     49801       400  PYPG      H6Y            49.2495392827       49.9930670110       -9.8102124061  MEMB      400             0.0000000000
     49802       400  PYPG      C37            51.2253850378       49.0491373253       -9.0990654931  MEMB      400             0.0000000000
     49803       400  PYPG      H7X            51.0490459753       48.2806511251       -9.8486533751  MEMB      400             0.0000000000
     49804       400  PYPG      H7Y            52.2415699659       49.3987762151       -9.0608988733  MEMB      400             0.0000000000
     49805       400  PYPG      C38            51.1999489578       48.3706921047       -7.7434660710  MEMB      400             0.0000000000
     49806       400  PYPG      H8X            51.3903474900       47.3094278073       -7.7090807836  MEMB      400             0.0000000000
     49807       400  PYPG      H8Y            50.3184666334       48.1091429561       -7.5034830321  MEMB      400             0.0000000000
     49808       400  PYPG      C39            51.4171422029       49.0679791059       -6.4632499307  MEMB      400             0.0000000000
     49809       400  PYPG      H9X            50.8208724173       49.9895454540       -6.4085658645  MEMB      400             0.0000000000
     49810       400  PYPG      H9Y            52.3602173969       49.4885711010       -6.5193803221  MEMB      400             0.0000000000
     49811       400  PYPG      C310           51.1672914993       48.0917141996       -5.2617809311  MEMB      400             0.0000000000
     49812       400  PYPG      H10X           51.8663363939       47.3244612312       -5.3317383798  MEMB      400             0.0000000000
     49813       400  PYPG      H10Y           50.1759539284       47.5319793576       -5.2095469444  MEMB      400             0.0000000000
     49814       400  PYPG      C311           51.3201015366       48.7876822732       -4.0205199836  MEMB      400             0.0000000000
     49815       400  PYPG      H11X           50.7551264929       48.4895047970       -3.2390999198  MEMB      400             0.0000000000
     49816       400  PYPG      H11Y           50.8395191922       49.5935289250       -4.0615230576  MEMB      400             0.0000000000
     49817       400  PYPG      C312           52.4547406267       49.5094163611       -3.8098809556  MEMB      400             0.0000000000
     49818       400  PYPG      H12X           53.1031003722       49.8892646745       -4.6311503609  MEMB      400             0.0000000000
     49819       400  PYPG      H12Y           52.4006996409       49.9598814361       -2.7490458834  MEMB      400             0.0000000000
     49820       400  PYPG      C313           53.1821174594       49.0822729295       -3.2060183630  MEMB      400             0.0000000000
     49821       400  PYPG      H13X           51.8243615198       48.0721921580       -2.2823348410  MEMB      400             0.0000000000
     49822       400  PYPG      H13Y           53.7282565504       48.5651625785       -3.8557533653  MEMB      400             0.0000000000
     49823       400  PYPG      C314           54.6485178973       49.4416192014       -2.5099029040  MEMB      400             0.0000000000
     49824       400  PYPG      H14X           55.1264901640       48.7008395219       -1.8467489237  MEMB      400             0.0000000000
     49825       400  PYPG      H14Y           55.4571204597       49.3979005029       -3.1586350642  MEMB      400             0.0000000000
     49826       400  PYPG      C315           54.6973998393       49.7343452631       -1.0799010950  MEMB      400             0.0000000000
     49827       400  PYPG      H15X           55.7253225513       49.7614811308       -0.6576368218  MEMB      400             0.0000000000
     49828       400  PYPG      H15Y           54.6090340675       50.6752420000       -1.5058278001  MEMB      400             0.0000000000
     49829       400  PYPG      C316           53.7854266648       49.1777963158        0.0083158474  MEMB      400             0.0000000000
     49830       400  PYPG      H16X           54.3727928451       48.4929741049        0.5717404909  MEMB      400             0.0000000000
     49831       400  PYPG      H16Y           52.9532397605       48.4969656100       -0.1472503600  MEMB      400             0.0000000000
     49832       400  PYPG      H16Z           53.3417528271       49.9312076094        0.6241385332  MEMB      400             0.0000000000
     49833       401  TIP3      OH2           -44.7575568298      -46.3639460476       26.8455227448  TIP3      1               0.0000000000
     49834       401  TIP3      H1            -44.7148221342      -45.3899354599       26.7482654308  TIP3      1               0.0000000000
     49835       401  TIP3      H2            -45.4436509225      -46.6065580196       26.2020633755  TIP3      1               0.0000000000
     49836       402  TIP3      OH2           -45.8642518138      -47.0898114184       30.3041800236  TIP3      2               0.0000000000
     49837       402  TIP3      H1            -45.8913456459      -47.7482239499       31.0069225125  TIP3      2               0.0000000000
     49838       402  TIP3      H2            -46.1895919702      -47.5785408791       29.5308614369  TIP3      2               0.0000000000
     49839       403  TIP3      OH2           -53.5080340665      -47.4539293065       31.8624035943  TIP3      3               0.0000000000
     49840       403  TIP3      H1            -53.4321819274      -48.1095078176       32.5903659767  TIP3      3               0.0000000000
     49841       403  TIP3      H2            -52.7758797846      -46.8576092443       32.0738505917  TIP3      3               0.0000000000
     49842       404  TIP3      OH2           -42.1789893224      -44.1529118398       28.5748524149  TIP3      4               0.0000000000
     49843       404  TIP3      H1            -42.5864534320      -44.8726106980       29.0664134690  TIP3      4               0.0000000000
     49844       404  TIP3      H2            -42.1490324016      -43.4428144286       29.2491419795  TIP3      4               0.0000000000
     49845       405  TIP3      OH2           -52.5837274386      -42.9971641640       30.4033143541  TIP3      5               0.0000000000
     49846       405  TIP3      H1            -52.9168150409      -43.8407826867       30.0463260399  TIP3      5               0.0000000000
     49847       405  TIP3      H2            -51.6303368993      -43.1919952600       30.4451221482  TIP3      5               0.0000000000
     49848       406  TIP3      OH2           -55.9206920330      -49.4256048218       25.8108411221  TIP3      6               0.0000000000
     49849       406  TIP3      H1            -56.3647161044      -48.5386797671       25.7896310626  TIP3      6               0.0000000000
     49850       406  TIP3      H2            -56.5211945622      -49.9568890095       25.2928604554  TIP3      6               0.0000000000
     49851       407  TIP3      OH2           -55.2429270329      -47.1955613722       27.9588354575  TIP3      7               0.0000000000
     49852       407  TIP3      H1            -55.0078249492      -48.0011469254       28.4539467581  TIP3      7               0.0000000000
     49853       407  TIP3      H2            -54.5088073247      -47.1114997334       27.3345499900  TIP3      7               0.0000000000
     49854       408  TIP3      OH2           -45.0533715894      -39.0142981809       28.8118797149  TIP3      8               0.0000000000
     49855       408  TIP3      H1            -44.4138877759      -39.7219316771       28.5378146464  TIP3      8               0.0000000000
     49856       408  TIP3      H2            -45.2515692251      -39.2934590693       29.7062263607  TIP3      8               0.0000000000
     49857       409  TIP3      OH2           -47.4884930259      -44.6731364496       30.7280969668  TIP3      9               0.0000000000
     49858       409  TIP3      H1            -47.1530887410      -45.3406200729       30.1077593598  TIP3      9               0.0000000000
     49859       409  TIP3      H2            -46.7158789146      -44.5444919538       31.3047432728  TIP3      9               0.0000000000
     49860       410  TIP3      OH2           -38.8362235222      -53.0733070053       31.5298079656  TIP3      10              0.0000000000
     49861       410  TIP3      H1            -38.7368569058      -52.4526113209       32.2858675526  TIP3      10              0.0000000000
     49862       410  TIP3      H2            -38.3552418438      -52.5975288587       30.8377919219  TIP3      10              0.0000000000
     49863       411  TIP3      OH2           -44.3269576566      -50.2407143755       31.0637103885  TIP3      11              0.0000000000
     49864       411  TIP3      H1            -44.1745613851      -51.2060655769       31.0551108458  TIP3      11              0.0000000000
     49865       411  TIP3      H2            -44.4267031261      -50.0731191514       30.1043930929  TIP3      11              0.0000000000
     49866       412  TIP3      OH2           -51.1888900546      -52.1572644577       28.3119959984  TIP3      12              0.0000000000
     49867       412  TIP3      H1            -51.1173192010      -51.3033087332       27.8516059459  TIP3      12              0.0000000000
     49868       412  TIP3      H2            -51.6185395537      -52.7231132072       27.6360996402  TIP3      12              0.0000000000
     49869       413  TIP3      OH2           -43.4651703762      -52.0390968579       26.6776942467  TIP3      13              0.0000000000
     49870       413  TIP3      H1            -42.8060416864      -52.3718044012       27.3399642846  TIP3      13              0.0000000000
     49871       413  TIP3      H2            -42.9143257729      -51.4948213610       26.1065407070  TIP3      13              0.0000000000
     49872       414  TIP3      OH2           -54.5731262538      -49.7460829534       29.0510482368  TIP3      14              0.0000000000
     49873       414  TIP3      H1            -53.8977694419      -50.3087586516       29.4892162668  TIP3      14              0.0000000000
     49874       414  TIP3      H2            -54.5004323200      -50.0530554938       28.1350301876  TIP3      14              0.0000000000
     49875       415  TIP3      OH2           -49.4071206638      -48.1932450521       28.3107670488  TIP3      15              0.0000000000
     49876       415  TIP3      H1            -48.7681658127      -48.7601937719       28.7738833291  TIP3      15              0.0000000000
     49877       415  TIP3      H2            -49.9641991478      -48.8616297553       27.8587324121  TIP3      15              0.0000000000
     49878       416  TIP3      OH2           -38.3954753573      -51.5861146091       33.7798697837  TIP3      16              0.0000000000
     49879       416  TIP3      H1            -39.1015616041      -50.9128036639       33.6929853742  TIP3      16              0.0000000000
     49880       416  TIP3      H2            -38.4130235765      -51.7749764020       34.7303812657  TIP3      16              0.0000000000
     49881       417  TIP3      OH2           -52.3344563123      -53.2655570729       32.3584642806  TIP3      17              0.0000000000
     49882       417  TIP3      H1            -52.5838706235      -52.6978951109       31.6015783118  TIP3      17              0.0000000000
     49883       417  TIP3      H2            -53.0191000658      -53.0054950780       33.0276035700  TIP3      17              0.0000000000
     49884       418  TIP3      OH2           -44.9860733740      -43.7584479310       25.9253418961  TIP3      18              0.0000000000
     49885       418  TIP3      H1            -45.3031884637      -44.0576845488       25.0593147115  TIP3      18              0.0000000000
     49886       418  TIP3      H2            -45.3199805280      -42.8327563709       25.9430943024  TIP3      18              0.0000000000
     49887       419  TIP3      OH2           -49.7860182938      -45.5974418825       32.6305503161  TIP3      19              0.0000000000
     49888       419  TIP3      H1            -50.5182692051      -44.9609070871       32.7813295408  TIP3      19              0.0000000000
     49889       419  TIP3      H2            -49.0808435293      -45.0068113200       32.3268540740  TIP3      19              0.0000000000
     49890       420  TIP3      OH2           -41.6772958500      -52.7285218752       28.6555476223  TIP3      20              0.0000000000
     49891       420  TIP3      H1            -41.8987683634      -53.4891644558       29.2091111796  TIP3      20              0.0000000000
     49892       420  TIP3      H2            -41.0161793091      -52.2711688699       29.2016138548  TIP3      20              0.0000000000
     49893       421  TIP3      OH2           -52.7775310678      -51.3606077757       30.3395433999  TIP3      21              0.0000000000
     49894       421  TIP3      H1            -52.1335947820      -50.7120531499       30.7005810031  TIP3      21              0.0000000000
     49895       421  TIP3      H2            -52.2344135397      -51.8213710527       29.6538389574  TIP3      21              0.0000000000
     49896       422  TIP3      OH2           -51.3575135025      -43.6170044110       33.4239977592  TIP3      22              0.0000000000
     49897       422  TIP3      H1            -51.3926998572      -42.7081938710       33.0674467188  TIP3      22              0.0000000000
     49898       422  TIP3      H2            -52.2413388409      -43.6869833585       33.8641157170  TIP3      22              0.0000000000
     49899       423  TIP3      OH2           -55.2498352336      -43.9535909960       24.2125402038  TIP3      23              0.0000000000
     49900       423  TIP3      H1            -55.5135691271      -43.6882264798       23.3203296296  TIP3      23              0.0000000000
     49901       423  TIP3      H2            -55.1976346870      -43.1016143032       24.6876939575  TIP3      23              0.0000000000
     49902       424  TIP3      OH2           -41.6399997436      -42.3256944734       30.9428929633  TIP3      24              0.0000000000
     49903       424  TIP3      H1            -42.5984102271      -42.2373877362       31.0978013459  TIP3      24              0.0000000000
     49904       424  TIP3      H2            -41.3623620943      -41.4032989925       30.7895118330  TIP3      24              0.0000000000
     49905       425  TIP3      OH2           -41.3193302814      -54.0401552456       32.3739196507  TIP3      25              0.0000000000
     49906       425  TIP3      H1            -42.0616250275      -53.4237879514       32.2976931609  TIP3      25              0.0000000000
     49907       425  TIP3      H2            -40.6360383657      -53.6227790107       31.8290184575  TIP3      25              0.0000000000
     49908       426  TIP3      OH2           -48.3213390289      -55.9262297848       29.7997601526  TIP3      26              0.0000000000
     49909       426  TIP3      H1            -48.4785140331      -56.8837235279       29.7716002660  TIP3      26              0.0000000000
     49910       426  TIP3      H2            -49.1975426798      -55.6080876271       30.1010660053  TIP3      26              0.0000000000
     49911       427  TIP3      OH2           -43.3850791765      -40.5382668354       27.5824876010  TIP3      27              0.0000000000
     49912       427  TIP3      H1            -42.9568504992      -41.2485303298       27.0643087856  TIP3      27              0.0000000000
     49913       427  TIP3      H2            -43.0345467682      -39.7358877706       27.1425551543  TIP3      27              0.0000000000
     49914       428  TIP3      OH2           -42.2088007732      -42.6151225933       26.0631443786  TIP3      28              0.0000000000
     49915       428  TIP3      H1            -42.4856627190      -43.3174681019       25.4609913535  TIP3      28              0.0000000000
     49916       428  TIP3      H2            -42.1524604790      -43.0897157655       26.9140586403  TIP3      28              0.0000000000
     49917       429  TIP3      OH2           -40.7758435222      -44.0057928044       34.6789302940  TIP3      29              0.0000000000
     49918       429  TIP3      H1            -40.4319544027      -44.6083455610       33.9219926899  TIP3      29              0.0000000000
     49919       429  TIP3      H2            -40.3740703070      -43.2267196784       34.2080214918  TIP3      29              0.0000000000
     49920       430  TIP3      OH2           -46.0607198131      -47.1076112501       24.3316181709  TIP3      30              0.0000000000
     49921       430  TIP3      H1            -46.7812103470      -46.5499117288       23.9569850152  TIP3      30              0.0000000000
     49922       430  TIP3      H2            -45.3764389352      -47.0350051326       23.6498479419  TIP3      30              0.0000000000
     49923       431  TIP3      OH2           -45.9832278826      -48.6216441800       21.3332967537  TIP3      31              0.0000000000
     49924       431  TIP3      H1            -45.3062477014      -48.6089659491       22.0272976778  TIP3      31              0.0000000000
     49925       431  TIP3      H2            -45.7171839423      -49.3095073630       20.7340535611  TIP3      31              0.0000000000
     49926       432  TIP3      OH2           -38.6554676725      -47.7311732709       32.6300839218  TIP3      32              0.0000000000
     49927       432  TIP3      H1            -39.3421247004      -47.0086165292       32.6828779703  TIP3      32              0.0000000000
     49928       432  TIP3      H2            -38.2385691684      -47.4819798181       31.7856778910  TIP3      32              0.0000000000
     49929       433  TIP3      OH2           -42.6428156358      -46.8987557156       25.2429267308  TIP3      33              0.0000000000
     49930       433  TIP3      H1            -43.3845381203      -46.6657463991       25.8562997464  TIP3      33              0.0000000000
     49931       433  TIP3      H2            -42.1891228421      -47.5943667811       25.7516739037  TIP3      33              0.0000000000
     49932       434  TIP3      OH2           -42.7294686077      -48.7455897360       34.3549072337  TIP3      34              0.0000000000
     49933       434  TIP3      H1            -42.6839557957      -47.9356410547       34.8963492636  TIP3      34              0.0000000000
     49934       434  TIP3      H2            -43.3545049935      -48.4383011661       33.6620319584  TIP3      34              0.0000000000
     49935       435  TIP3      OH2           -51.0169057692      -46.2456284057       27.1649570679  TIP3      35              0.0000000000
     49936       435  TIP3      H1            -51.3442637064      -46.6432588773       26.3244844292  TIP3      35              0.0000000000
     49937       435  TIP3      H2            -50.4100839771      -46.9448592473       27.5012641572  TIP3      35              0.0000000000
     49938       436  TIP3      OH2           -49.6725573842      -42.8372391489       29.8424817358  TIP3      36              0.0000000000
     49939       436  TIP3      H1            -49.7231056044      -43.4088156594       29.0658007208  TIP3      36              0.0000000000
     49940       436  TIP3      H2            -48.9099281419      -43.2159904781       30.3156017543  TIP3      36              0.0000000000
     49941       437  TIP3      OH2           -50.6662200241      -47.5052612714       30.8029304662  TIP3      37              0.0000000000
     49942       437  TIP3      H1            -50.0935019257      -47.3803705076       30.0226580369  TIP3      37              0.0000000000
     49943       437  TIP3      H2            -50.3142178431      -46.8459327742       31.4334966071  TIP3      37              0.0000000000
     49944       438  TIP3      OH2           -44.3085634909      -41.9553304366       31.5146136257  TIP3      38              0.0000000000
     49945       438  TIP3      H1            -44.5753675127      -41.3183636629       32.1810281623  TIP3      38              0.0000000000
     49946       438  TIP3      H2            -44.5288474311      -42.8161857959       31.9557458304  TIP3      38              0.0000000000
     49947       439  TIP3      OH2           -49.7432541917      -43.0897790552       35.5241997449  TIP3      39              0.0000000000
     49948       439  TIP3      H1            -50.1088744729      -42.3130268308       35.9762915626  TIP3      39              0.0000000000
     49949       439  TIP3      H2            -50.4171892758      -43.2605021403       34.8184411203  TIP3      39              0.0000000000
     49950       440  TIP3      OH2           -43.7588804885      -47.7743205173       22.9240743401  TIP3      40              0.0000000000
     49951       440  TIP3      H1            -43.2175631596      -47.5638718203       23.7308893683  TIP3      40              0.0000000000
     49952       440  TIP3      H2            -43.3750188163      -47.2211352264       22.2528429910  TIP3      40              0.0000000000
     49953       441  TIP3      OH2           -52.8193075202      -46.9080019600       34.7035887661  TIP3      41              0.0000000000
     49954       441  TIP3      H1            -52.7788996195      -46.2434520913       35.4236768259  TIP3      41              0.0000000000
     49955       441  TIP3      H2            -53.7414012865      -46.7964084565       34.4259968454  TIP3      41              0.0000000000
     49956       442  TIP3      OH2           -46.0526042432      -41.0038535804       26.3952185263  TIP3      42              0.0000000000
     49957       442  TIP3      H1            -45.5885177963      -40.6872790282       27.1750757886  TIP3      42              0.0000000000
     49958       442  TIP3      H2            -46.6124464398      -40.2532221589       26.1607281611  TIP3      42              0.0000000000
     49959       443  TIP3      OH2           -51.5082877755      -41.0284437148       36.2823087595  TIP3      43              0.0000000000
     49960       443  TIP3      H1            -51.5258195864      -41.1516375715       35.3125112634  TIP3      43              0.0000000000
     49961       443  TIP3      H2            -52.4519374563      -41.1509271913       36.5147409309  TIP3      43              0.0000000000
     49962       444  TIP3      OH2           -40.0724445663      -55.9766616474       22.7467447944  TIP3      44              0.0000000000
     49963       444  TIP3      H1            -40.9949286998      -55.8370143984       23.0646880319  TIP3      44              0.0000000000
     49964       444  TIP3      H2            -39.8438906526      -55.1198469347       22.3676567303  TIP3      44              0.0000000000
     49965       445  TIP3      OH2           -52.0057992067      -47.2077225344       24.7676074667  TIP3      45              0.0000000000
     49966       445  TIP3      H1            -52.3133272511      -46.4254577414       24.2498972425  TIP3      45              0.0000000000
     49967       445  TIP3      H2            -52.6904288917      -47.8544352867       24.5758946632  TIP3      45              0.0000000000
     49968       446  TIP3      OH2           -38.9140341434      -41.6307093238       21.1715045237  TIP3      46              0.0000000000
     49969       446  TIP3      H1            -38.8067787703      -40.6699552449       21.3156482900  TIP3      46              0.0000000000
     49970       446  TIP3      H2            -37.9878403391      -41.9296984083       21.0922494342  TIP3      46              0.0000000000
     49971       447  TIP3      OH2           -55.9021111195      -44.8013667156       33.5943517178  TIP3      47              0.0000000000
     49972       447  TIP3      H1            -56.4163956443      -44.8691109793       32.7658320991  TIP3      47              0.0000000000
     49973       447  TIP3      H2            -55.9095370683      -45.7447099360       33.8686901419  TIP3      47              0.0000000000
     49974       448  TIP3      OH2           -56.1969838385      -42.0554120741       30.4424876124  TIP3      48              0.0000000000
     49975       448  TIP3      H1            -55.2377034198      -42.1886847412       30.4322773612  TIP3      48              0.0000000000
     49976       448  TIP3      H2            -56.2879649895      -41.2570600141       30.9732278772  TIP3      48              0.0000000000
     49977       449  TIP3      OH2           -37.9538853749      -41.3662212833       36.1311008851  TIP3      49              0.0000000000
     49978       449  TIP3      H1            -38.0533627791      -42.3311261356       36.0995320069  TIP3      49              0.0000000000
     49979       449  TIP3      H2            -38.8232315785      -41.1269782955       36.5326169939  TIP3      49              0.0000000000
     49980       450  TIP3      OH2           -46.9932200542      -41.8204534046       34.9930447771  TIP3      50              0.0000000000
     49981       450  TIP3      H1            -46.9194575846      -40.9759603593       35.4937251827  TIP3      50              0.0000000000
     49982       450  TIP3      H2            -47.8713276224      -42.1582945309       35.2470521281  TIP3      50              0.0000000000
     49983       451  TIP3      OH2           -46.6056316217      -38.0624003812       24.8043920385  TIP3      51              0.0000000000
     49984       451  TIP3      H1            -46.6386762060      -38.1526152326       23.8395501808  TIP3      51              0.0000000000
     49985       451  TIP3      H2            -46.5351409454      -37.0987583769       24.9389956331  TIP3      51              0.0000000000
     49986       452  TIP3      OH2           -52.9260745560      -39.2125305714       26.5954384779  TIP3      52              0.0000000000
     49987       452  TIP3      H1            -52.7828040834      -39.6113649903       27.4833336577  TIP3      52              0.0000000000
     49988       452  TIP3      H2            -53.7786262679      -39.6135547964       26.3518105543  TIP3      52              0.0000000000
     49989       453  TIP3      OH2           -43.8206210607      -38.9419567717       24.5634019982  TIP3      53              0.0000000000
     49990       453  TIP3      H1            -44.7688705328      -38.8620352632       24.7464018773  TIP3      53              0.0000000000
     49991       453  TIP3      H2            -43.5542787143      -39.6713253352       25.1315206232  TIP3      53              0.0000000000
     49992       454  TIP3      OH2           -40.8217268032      -49.8882973380       36.6099399676  TIP3      54              0.0000000000
     49993       454  TIP3      H1            -41.2563908970      -49.4212654351       35.8811800842  TIP3      54              0.0000000000
     49994       454  TIP3      H2            -40.8013558309      -50.8054822994       36.2955647538  TIP3      54              0.0000000000
     49995       455  TIP3      OH2           -53.6779855395      -43.4826033593       34.6062863250  TIP3      55              0.0000000000
     49996       455  TIP3      H1            -53.4668620822      -43.8711535715       35.4797151399  TIP3      55              0.0000000000
     49997       455  TIP3      H2            -54.5403428643      -43.8865494690       34.3869796567  TIP3      55              0.0000000000
     49998       456  TIP3      OH2           -51.0175597235      -55.0101126699       30.5523694015  TIP3      56              0.0000000000
     49999       456  TIP3      H1            -51.9274105208      -55.1176480597       30.1852657694  TIP3      56              0.0000000000
     50000       456  TIP3      H2            -51.0987486807      -54.1723574265       31.0342640218  TIP3      56              0.0000000000
     50001       457  TIP3      OH2           -46.3737939970      -55.3109191351       33.9590323907  TIP3      57              0.0000000000
     50002       457  TIP3      H1            -45.9634863707      -55.7418524597       34.7310341975  TIP3      57              0.0000000000
     50003       457  TIP3      H2            -47.3380759358      -55.4839186108       34.0913075899  TIP3      57              0.0000000000
     50004       458  TIP3      OH2           -43.0633525881      -51.5513469048       34.8198036075  TIP3      58              0.0000000000
     50005       458  TIP3      H1            -43.6067773458      -51.6991287431       35.6289218594  TIP3      58              0.0000000000
     50006       458  TIP3      H2            -43.2291537281      -50.6244889574       34.5820408612  TIP3      58              0.0000000000
     50007       459  TIP3      OH2           -46.7568184239      -52.8029805786       21.2446247489  TIP3      59              0.0000000000
     50008       459  TIP3      H1            -46.9654760041      -52.8035566088       22.1862890749  TIP3      59              0.0000000000
     50009       459  TIP3      H2            -46.9834105587      -53.6868737873       20.9566508746  TIP3      59              0.0000000000
     50010       460  TIP3      OH2           -50.9292538869      -50.0736137157       31.7440793974  TIP3      60              0.0000000000
     50011       460  TIP3      H1            -51.6243139432      -50.0893208012       32.4277137330  TIP3      60              0.0000000000
     50012       460  TIP3      H2            -50.9362127942      -49.1346019979       31.4490345858  TIP3      60              0.0000000000
     50013       461  TIP3      OH2           -50.9527656734      -49.8723179016       26.6430381277  TIP3      61              0.0000000000
     50014       461  TIP3      H1            -51.8735367311      -50.1875754838       26.5407859686  TIP3      61              0.0000000000
     50015       461  TIP3      H2            -50.5361508849      -50.2269119393       25.8378497200  TIP3      61              0.0000000000
     50016       462  TIP3      OH2           -45.4301042339      -49.4463333412       25.4272705762  TIP3      62              0.0000000000
     50017       462  TIP3      H1            -45.8409900864      -48.6030867346       25.1221072563  TIP3      62              0.0000000000
     50018       462  TIP3      H2            -44.7212935538      -49.5541014774       24.8034976877  TIP3      62              0.0000000000
     50019       463  TIP3      OH2           -46.3376112694      -49.2285106804       36.8979259365  TIP3      63              0.0000000000
     50020       463  TIP3      H1            -46.8932903111      -49.9796170707       37.2203086750  TIP3      63              0.0000000000
     50021       463  TIP3      H2            -45.5063533215      -49.3653581735       37.3792918739  TIP3      63              0.0000000000
     50022       464  TIP3      OH2           -44.4084454590      -49.9626904282       28.2683050499  TIP3      64              0.0000000000
     50023       464  TIP3      H1            -44.6415445739      -49.3820427132       27.5253578999  TIP3      64              0.0000000000
     50024       464  TIP3      H2            -44.2641595222      -50.8105474812       27.8012598593  TIP3      64              0.0000000000
     50025       465  TIP3      OH2           -53.2367224468      -49.7597537243       33.5299469938  TIP3      65              0.0000000000
     50026       465  TIP3      H1            -53.2404786318      -49.3635127450       34.4170764266  TIP3      65              0.0000000000
     50027       465  TIP3      H2            -53.7092132705      -50.5915727789       33.6755312135  TIP3      65              0.0000000000
     50028       466  TIP3      OH2           -56.5960638848      -52.6142629885       27.4334803163  TIP3      66              0.0000000000
     50029       466  TIP3      H1            -55.9514021374      -52.6817780438       28.1639731040  TIP3      66              0.0000000000
     50030       466  TIP3      H2            -56.1627264956      -53.0608515205       26.6819243095  TIP3      66              0.0000000000
     50031       467  TIP3      OH2           -55.3322771661      -51.9464257304       22.8379821449  TIP3      67              0.0000000000
     50032       467  TIP3      H1            -54.8571463762      -51.3174420701       22.2891046548  TIP3      67              0.0000000000
     50033       467  TIP3      H2            -56.0248961394      -51.3563063743       23.2032269551  TIP3      67              0.0000000000
     50034       468  TIP3      OH2           -45.1719515183      -48.3381387142       32.8863238968  TIP3      68              0.0000000000
     50035       468  TIP3      H1            -44.8251427156      -49.0049531829       32.2642980502  TIP3      68              0.0000000000
     50036       468  TIP3      H2            -45.6205521486      -48.8837164610       33.5563451295  TIP3      68              0.0000000000
     50037       469  TIP3      OH2           -48.3818894315      -52.4027157940       27.6831302644  TIP3      69              0.0000000000
     50038       469  TIP3      H1            -49.3145189041      -52.3700414524       27.9858182550  TIP3      69              0.0000000000
     50039       469  TIP3      H2            -47.8813203255      -52.5081380420       28.5052539797  TIP3      69              0.0000000000
     50040       470  TIP3      OH2           -53.5702782262      -50.8046395674       26.5488926265  TIP3      70              0.0000000000
     50041       470  TIP3      H1            -54.4606911484      -50.6829630203       26.1662176613  TIP3      70              0.0000000000
     50042       470  TIP3      H2            -53.2706338377      -51.6460881454       26.1711383230  TIP3      70              0.0000000000
     50043       471  TIP3      OH2           -49.9206818747      -50.7929533437       24.1710470641  TIP3      71              0.0000000000
     50044       471  TIP3      H1            -48.9737412057      -50.6709103333       24.3671616067  TIP3      71              0.0000000000
     50045       471  TIP3      H2            -50.1334006006      -50.1080160241       23.5180957779  TIP3      71              0.0000000000
     50046       472  TIP3      OH2           -43.9640602558      -53.1645721676       30.9325865473  TIP3      72              0.0000000000
     50047       472  TIP3      H1            -44.6646908468      -53.0604088005       31.6168263558  TIP3      72              0.0000000000
     50048       472  TIP3      H2            -44.4738001450      -53.3647958888       30.1402469115  TIP3      72              0.0000000000
     50049       473  TIP3      OH2           -51.2427226693      -49.6107424064       21.7486006037  TIP3      73              0.0000000000
     50050       473  TIP3      H1            -51.7665661128      -49.9724417854       21.0361213450  TIP3      73              0.0000000000
     50051       473  TIP3      H2            -50.3955152527      -49.3826171950       21.3147260586  TIP3      73              0.0000000000
     50052       474  TIP3      OH2           -40.7406213106      -37.5084407229       37.2583713805  TIP3      74              0.0000000000
     50053       474  TIP3      H1            -40.4920733669      -37.0991064914       36.4065036586  TIP3      74              0.0000000000
     50054       474  TIP3      H2            -40.0368954400      -37.1718440958       37.8423304650  TIP3      74              0.0000000000
     50055       475  TIP3      OH2           -53.0902714554      -45.0356614906       36.8239033342  TIP3      75              0.0000000000
     50056       475  TIP3      H1            -52.3712252710      -44.7926777459       37.4300663981  TIP3      75              0.0000000000
     50057       475  TIP3      H2            -53.8864632182      -44.8707418193       37.3805221613  TIP3      75              0.0000000000
     50058       476  TIP3      OH2           -47.0867974923      -49.6252752902       29.5793779971  TIP3      76              0.0000000000
     50059       476  TIP3      H1            -46.5038542928      -50.1724768620       29.0354586445  TIP3      76              0.0000000000
     50060       476  TIP3      H2            -47.2249286727      -50.1621864029       30.3700870149  TIP3      76              0.0000000000
     50061       477  TIP3      OH2           -52.0895919361      -53.4855978792       25.9935820522  TIP3      77              0.0000000000
     50062       477  TIP3      H1            -52.3941494585      -54.4066415869       25.9888707508  TIP3      77              0.0000000000
     50063       477  TIP3      H2            -51.2849419521      -53.5155970925       25.4645372014  TIP3      77              0.0000000000
     50064       478  TIP3      OH2           -48.4495693734      -51.2617416720       31.9874688894  TIP3      78              0.0000000000
     50065       478  TIP3      H1            -49.2864246006      -50.7728235298       32.1009771471  TIP3      78              0.0000000000
     50066       478  TIP3      H2            -47.9081412654      -50.9580045591       32.7421036682  TIP3      78              0.0000000000
     50067       479  TIP3      OH2           -47.8723734774      -45.0480535470       23.7026726120  TIP3      79              0.0000000000
     50068       479  TIP3      H1            -48.6477705056      -45.5320222342       23.3391848761  TIP3      79              0.0000000000
     50069       479  TIP3      H2            -48.0616855540      -44.9705896439       24.6424884606  TIP3      79              0.0000000000
     50070       480  TIP3      OH2           -40.8032460689      -46.0543482753       32.4226476987  TIP3      80              0.0000000000
     50071       480  TIP3      H1            -40.1552799624      -45.4432959885       31.9648949559  TIP3      80              0.0000000000
     50072       480  TIP3      H2            -41.6095918974      -45.7768013197       31.9811228436  TIP3      80              0.0000000000
     50073       481  TIP3      OH2           -46.3789055388      -44.8330783267       34.9198366826  TIP3      81              0.0000000000
     50074       481  TIP3      H1            -46.7232822438      -45.2277763353       35.7283284674  TIP3      81              0.0000000000
     50075       481  TIP3      H2            -46.5899449228      -43.8992851590       35.0068646972  TIP3      81              0.0000000000
     50076       482  TIP3      OH2           -52.7646661578      -45.6997837636       29.4690960033  TIP3      82              0.0000000000
     50077       482  TIP3      H1            -52.0426373559      -45.7468583787       28.8198806187  TIP3      82              0.0000000000
     50078       482  TIP3      H2            -52.6967102153      -46.5557945731       29.9288398964  TIP3      82              0.0000000000
     50079       483  TIP3      OH2           -55.7598544879      -47.2619887126       34.7618151999  TIP3      83              0.0000000000
     50080       483  TIP3      H1            -55.5620312038      -47.7046494415       35.6069851827  TIP3      83              0.0000000000
     50081       483  TIP3      H2            -56.3771764680      -47.8835458075       34.3270902984  TIP3      83              0.0000000000
     50082       484  TIP3      OH2           -48.7551950614      -47.7308627982       36.9680485048  TIP3      84              0.0000000000
     50083       484  TIP3      H1            -49.0529937745      -47.9585480318       36.0764615922  TIP3      84              0.0000000000
     50084       484  TIP3      H2            -47.8148902471      -47.9995667519       36.9510735993  TIP3      84              0.0000000000
     50085       485  TIP3      OH2           -44.1136016433      -42.3850065567       34.8673311123  TIP3      85              0.0000000000
     50086       485  TIP3      H1            -45.0303163796      -42.1942911202       34.6244827003  TIP3      85              0.0000000000
     50087       485  TIP3      H2            -44.1066373409      -42.1058396214       35.8016402783  TIP3      85              0.0000000000
     50088       486  TIP3      OH2           -38.3711929372      -50.1652488232       23.2378434458  TIP3      86              0.0000000000
     50089       486  TIP3      H1            -38.9561015578      -50.5225705361       22.5645274054  TIP3      86              0.0000000000
     50090       486  TIP3      H2            -38.3068006611      -49.2216271271       22.9596000115  TIP3      86              0.0000000000
     50091       487  TIP3      OH2           -38.4192721757      -44.3447471616       36.0941152877  TIP3      87              0.0000000000
     50092       487  TIP3      H1            -39.2953495562      -44.1041787055       35.6978118407  TIP3      87              0.0000000000
     50093       487  TIP3      H2            -37.8654607350      -44.3490183005       35.2906795013  TIP3      87              0.0000000000
     50094       488  TIP3      OH2           -40.0889324139      -41.3478527717       23.6985193025  TIP3      88              0.0000000000
     50095       488  TIP3      H1            -40.4688591538      -42.1804856844       24.0137237904  TIP3      88              0.0000000000
     50096       488  TIP3      H2            -39.8306795350      -41.5445516282       22.7756346938  TIP3      88              0.0000000000
     50097       489  TIP3      OH2           -42.9417580966      -46.5414731071       30.7350262820  TIP3      89              0.0000000000
     50098       489  TIP3      H1            -43.8766178951      -46.7822902236       30.6775904156  TIP3      89              0.0000000000
     50099       489  TIP3      H2            -42.4809503614      -47.3199983539       30.3740556979  TIP3      89              0.0000000000
     50100       490  TIP3      OH2           -50.3996826316      -42.2221981957       26.8764051274  TIP3      90              0.0000000000
     50101       490  TIP3      H1            -49.8729058561      -41.4357481268       26.6542781140  TIP3      90              0.0000000000
     50102       490  TIP3      H2            -51.2765415082      -41.9854704911       26.5472134966  TIP3      90              0.0000000000
     50103       491  TIP3      OH2           -48.9567181835      -44.5597619256       26.4320579342  TIP3      91              0.0000000000
     50104       491  TIP3      H1            -49.2418192943      -43.6282201744       26.4797322803  TIP3      91              0.0000000000
     50105       491  TIP3      H2            -49.7143157700      -45.0252491562       26.8337667138  TIP3      91              0.0000000000
     50106       492  TIP3      OH2           -48.4969203751      -40.3925956960       32.7659913053  TIP3      92              0.0000000000
     50107       492  TIP3      H1            -48.0793019473      -39.5537770544       32.5122600326  TIP3      92              0.0000000000
     50108       492  TIP3      H2            -47.9123401141      -40.7011611442       33.4834887149  TIP3      92              0.0000000000
     50109       493  TIP3      OH2           -50.2826514502      -39.5486208530       25.9554500774  TIP3      93              0.0000000000
     50110       493  TIP3      H1            -51.2522490488      -39.4291576849       26.0519205981  TIP3      93              0.0000000000
     50111       493  TIP3      H2            -49.9312036699      -38.7155274345       26.3189106570  TIP3      93              0.0000000000
     50112       494  TIP3      OH2           -44.9405500278      -44.3296937532       32.4330047809  TIP3      94              0.0000000000
     50113       494  TIP3      H1            -45.3338793150      -44.5456506993       33.3004935619  TIP3      94              0.0000000000
     50114       494  TIP3      H2            -44.3276478969      -45.0611610555       32.2614714733  TIP3      94              0.0000000000
     50115       495  TIP3      OH2           -42.7005796949      -43.4289852714       21.4883769460  TIP3      95              0.0000000000
     50116       495  TIP3      H1            -42.3738324767      -43.7425667692       22.3481435900  TIP3      95              0.0000000000
     50117       495  TIP3      H2            -43.6676833283      -43.4481701860       21.6061436035  TIP3      95              0.0000000000
     50118       496  TIP3      OH2           -42.2274945166      -39.7634442377       34.9335133860  TIP3      96              0.0000000000
     50119       496  TIP3      H1            -42.8562724076      -40.3045481946       34.4151955748  TIP3      96              0.0000000000
     50120       496  TIP3      H2            -41.9841930873      -39.0856235115       34.2685605580  TIP3      96              0.0000000000
     50121       497  TIP3      OH2           -38.2080577452      -38.9085672418       21.7519377696  TIP3      97              0.0000000000
     50122       497  TIP3      H1            -37.4597389081      -38.3085897526       21.5618631904  TIP3      97              0.0000000000
     50123       497  TIP3      H2            -38.8962130714      -38.3153689067       22.0471701898  TIP3      97              0.0000000000
     50124       498  TIP3      OH2           -54.1197442788      -52.5352758023       34.2904327421  TIP3      98              0.0000000000
     50125       498  TIP3      H1            -55.0283104998      -52.1881418902       34.2664138206  TIP3      98              0.0000000000
     50126       498  TIP3      H2            -54.2306438796      -53.3873307306       34.7441819466  TIP3      98              0.0000000000
     50127       499  TIP3      OH2           -41.8549245883      -44.7126395747       23.7255058461  TIP3      99              0.0000000000
     50128       499  TIP3      H1            -42.1181155528      -45.4430786804       24.3199534628  TIP3      99              0.0000000000
     50129       499  TIP3      H2            -40.9162397665      -44.5996167930       23.9628899185  TIP3      99              0.0000000000
     50130       500  TIP3      OH2           -54.4758196968      -40.7227121054       32.7355060127  TIP3      100             0.0000000000
     50131       500  TIP3      H1            -54.2346985123      -41.6622165338       32.7326770468  TIP3      100             0.0000000000
     50132       500  TIP3      H2            -54.2293700193      -40.4511826489       33.6292202649  TIP3      100             0.0000000000
     50133       501  TIP3      OH2           -49.7391666155      -42.6862169508       22.4403777446  TIP3      101             0.0000000000
     50134       501  TIP3      H1            -49.5130616410      -43.2243893140       23.2004504437  TIP3      101             0.0000000000
     50135       501  TIP3      H2            -49.6777420575      -41.7716608752       22.7469565914  TIP3      101             0.0000000000
     50136       502  TIP3      OH2           -53.2159438775      -45.4669995878       22.9489554933  TIP3      102             0.0000000000
     50137       502  TIP3      H1            -53.9265049542      -45.0745303382       23.4905553806  TIP3      102             0.0000000000
     50138       502  TIP3      H2            -52.7100818795      -44.6740217462       22.6679100893  TIP3      102             0.0000000000
     50139       503  TIP3      OH2           -45.3965185734      -52.7708356983       33.2270919753  TIP3      103             0.0000000000
     50140       503  TIP3      H1            -44.6861857470      -52.7112231173       33.8794871106  TIP3      103             0.0000000000
     50141       503  TIP3      H2            -45.7778885101      -53.6535008875       33.4057282220  TIP3      103             0.0000000000
     50142       504  TIP3      OH2           -44.5986288211      -53.1475655242       24.3053143636  TIP3      104             0.0000000000
     50143       504  TIP3      H1            -44.4166536226      -52.6604617697       23.5149181140  TIP3      104             0.0000000000
     50144       504  TIP3      H2            -44.0608817019      -52.7431585455       25.0026645073  TIP3      104             0.0000000000
     50145       505  TIP3      OH2           -46.9484288117      -40.9988020008       23.1956722831  TIP3      105             0.0000000000
     50146       505  TIP3      H1            -47.7742378664      -40.5065550101       23.2228112021  TIP3      105             0.0000000000
     50147       505  TIP3      H2            -46.4210566724      -40.5338141271       22.5317669165  TIP3      105             0.0000000000
     50148       506  TIP3      OH2           -47.4109209221      -51.4255571679       25.1354764782  TIP3      106             0.0000000000
     50149       506  TIP3      H1            -46.6126446454      -50.8764907757       25.2009822844  TIP3      106             0.0000000000
     50150       506  TIP3      H2            -47.6718934973      -51.5592697646       26.0666413819  TIP3      106             0.0000000000
     50151       507  TIP3      OH2           -46.8699528594      -50.4224459838       34.3360466679  TIP3      107             0.0000000000
     50152       507  TIP3      H1            -46.7685133650      -49.8403970437       35.1144678778  TIP3      107             0.0000000000
     50153       507  TIP3      H2            -46.2089558631      -51.1153494777       34.4497717077  TIP3      107             0.0000000000
     50154       508  TIP3      OH2           -46.5379239099      -54.3304971187       26.0832958535  TIP3      108             0.0000000000
     50155       508  TIP3      H1            -46.8903419090      -53.6944455923       26.7230213885  TIP3      108             0.0000000000
     50156       508  TIP3      H2            -45.8681343119      -53.8031481978       25.6070891938  TIP3      108             0.0000000000
     50157       509  TIP3      OH2           -49.6077565473      -39.9510132398       23.1603803135  TIP3      109             0.0000000000
     50158       509  TIP3      H1            -49.4142858047      -39.1750255539       22.6520915158  TIP3      109             0.0000000000
     50159       509  TIP3      H2            -49.8103248434      -39.6493715591       24.0641581405  TIP3      109             0.0000000000
     50160       510  TIP3      OH2           -40.6629309069      -52.5195298055       35.1915563462  TIP3      110             0.0000000000
     50161       510  TIP3      H1            -41.6034107489      -52.2370861195       35.0702192006  TIP3      110             0.0000000000
     50162       510  TIP3      H2            -40.3517831319      -52.5271140865       34.2698462185  TIP3      110             0.0000000000
     50163       511  TIP3      OH2           -42.0724331406      -48.7479820839       29.2467539051  TIP3      111             0.0000000000
     50164       511  TIP3      H1            -42.8822479015      -49.1860580498       28.9340281638  TIP3      111             0.0000000000
     50165       511  TIP3      H2            -41.6106483744      -49.4530324481       29.7516738751  TIP3      111             0.0000000000
     50166       512  TIP3      OH2           -52.6250647250      -42.8332652709       21.8363477270  TIP3      112             0.0000000000
     50167       512  TIP3      H1            -52.0079000408      -42.1478280827       22.0976448107  TIP3      112             0.0000000000
     50168       512  TIP3      H2            -52.1450162504      -43.2705789760       21.1060439368  TIP3      112             0.0000000000
     50169       513  TIP3      OH2           -41.0062131245      -39.4998614751       30.8898975429  TIP3      113             0.0000000000
     50170       513  TIP3      H1            -41.1182512285      -38.8127129300       30.2075325895  TIP3      113             0.0000000000
     50171       513  TIP3      H2            -40.0419997263      -39.4410271918       31.0750941922  TIP3      113             0.0000000000
     50172       514  TIP3      OH2           -53.4776864016      -55.3367467895       29.6346624982  TIP3      114             0.0000000000
     50173       514  TIP3      H1            -53.7225648122      -55.3277344879       28.6867669523  TIP3      114             0.0000000000
     50174       514  TIP3      H2            -53.9270597819      -56.1686049837       29.9168005755  TIP3      114             0.0000000000
     50175       515  TIP3      OH2           -54.5579202118      -41.4581480910       25.7984497298  TIP3      115             0.0000000000
     50176       515  TIP3      H1            -55.3956391480      -40.9695454660       25.7928972667  TIP3      115             0.0000000000
     50177       515  TIP3      H2            -54.0319907246      -40.9552749318       25.1631751372  TIP3      115             0.0000000000
     50178       516  TIP3      OH2           -55.2639512038      -38.8276729862       37.0774043939  TIP3      116             0.0000000000
     50179       516  TIP3      H1            -54.7424286325      -39.0272967801       37.8745293246  TIP3      116             0.0000000000
     50180       516  TIP3      H2            -55.7588672019      -39.6401974524       36.9359131974  TIP3      116             0.0000000000
     50181       517  TIP3      OH2           -50.7016542734      -39.8888555735       38.6940934359  TIP3      117             0.0000000000
     50182       517  TIP3      H1            -49.8991177628      -40.3568662153       38.9220349944  TIP3      117             0.0000000000
     50183       517  TIP3      H2            -50.7181492417      -40.1386913844       37.7479749531  TIP3      117             0.0000000000
     50184       518  TIP3      OH2           -46.5830343489      -40.3768834004       20.1296774705  TIP3      118             0.0000000000
     50185       518  TIP3      H1            -47.2139575312      -41.0562458183       20.4171719057  TIP3      118             0.0000000000
     50186       518  TIP3      H2            -45.8309435349      -40.9479686398       19.8761986962  TIP3      118             0.0000000000
     50187       519  TIP3      OH2           -44.1306121642      -41.5115478410       37.4553388610  TIP3      119             0.0000000000
     50188       519  TIP3      H1            -44.4589804416      -42.3953249624       37.7184361590  TIP3      119             0.0000000000
     50189       519  TIP3      H2            -43.3738747180      -41.3885095622       38.0586600574  TIP3      119             0.0000000000
     50190       520  TIP3      OH2           -55.3793538146      -45.0294810775       38.0985613628  TIP3      120             0.0000000000
     50191       520  TIP3      H1            -55.2395569369      -45.9423401164       37.7797825666  TIP3      120             0.0000000000
     50192       520  TIP3      H2            -56.1449805344      -44.7376122742       37.5534131015  TIP3      120             0.0000000000
     50193       521  TIP3      OH2           -51.0614669517      -44.7061554115       20.1696329933  TIP3      121             0.0000000000
     50194       521  TIP3      H1            -50.9192435658      -45.4643853276       20.7402989655  TIP3      121             0.0000000000
     50195       521  TIP3      H2            -50.3482232421      -44.7667872293       19.5192974045  TIP3      121             0.0000000000
     50196       522  TIP3      OH2           -48.7123367002      -45.0399988279       37.4992853848  TIP3      122             0.0000000000
     50197       522  TIP3      H1            -49.0462076223      -44.7659410856       36.6247289397  TIP3      122             0.0000000000
     50198       522  TIP3      H2            -48.5882469238      -46.0104490833       37.4016561295  TIP3      122             0.0000000000
     50199       523  TIP3      OH2           -43.0219921444      -45.1789396870       34.8862410750  TIP3      123             0.0000000000
     50200       523  TIP3      H1            -42.2318605565      -44.5709413392       34.7828143705  TIP3      123             0.0000000000
     50201       523  TIP3      H2            -43.7259474744      -44.5274577935       34.9320746150  TIP3      123             0.0000000000
     50202       524  TIP3      OH2           -54.5272718994      -47.8031237595       37.4849217553  TIP3      124             0.0000000000
     50203       524  TIP3      H1            -54.1139183262      -48.6712677257       37.3819464948  TIP3      124             0.0000000000
     50204       524  TIP3      H2            -54.7701223486      -47.7907942891       38.4285374537  TIP3      124             0.0000000000
     50205       525  TIP3      OH2           -49.8961197504      -46.6926031896       22.5206135248  TIP3      125             0.0000000000
     50206       525  TIP3      H1            -50.3542615120      -47.1987970231       23.2006196341  TIP3      125             0.0000000000
     50207       525  TIP3      H2            -49.5914471707      -47.3679627582       21.8743376954  TIP3      125             0.0000000000
     50208       526  TIP3      OH2           -50.5957011818      -48.8369520463       34.8610526298  TIP3      126             0.0000000000
     50209       526  TIP3      H1            -51.2100379080      -48.1321384889       35.1285498680  TIP3      126             0.0000000000
     50210       526  TIP3      H2            -50.2350530067      -48.4859766724       34.0289800978  TIP3      126             0.0000000000
     50211       527  TIP3      OH2           -48.8269599482      -48.5038459533       20.7629339871  TIP3      127             0.0000000000
     50212       527  TIP3      H1            -48.9783179738      -48.6138760861       19.8255447174  TIP3      127             0.0000000000
     50213       527  TIP3      H2            -47.8615766094      -48.3415960428       20.8293745413  TIP3      127             0.0000000000
     50214       528  TIP3      OH2           -45.5572434820      -46.3140886705       38.1815667164  TIP3      128             0.0000000000
     50215       528  TIP3      H1            -44.5989680330      -46.2787331485       38.0854431172  TIP3      128             0.0000000000
     50216       528  TIP3      H2            -45.7229275662      -47.0655335643       38.7676227610  TIP3      128             0.0000000000
     50217       529  TIP3      OH2           -50.2255938642      -51.4631238629       35.9333091196  TIP3      129             0.0000000000
     50218       529  TIP3      H1            -50.0907409458      -52.1897248921       35.3066390991  TIP3      129             0.0000000000
     50219       529  TIP3      H2            -50.2480851234      -50.6676066064       35.3671555234  TIP3      129             0.0000000000
     50220       530  TIP3      OH2           -49.8163273820      -53.1091409442       33.4472881343  TIP3      130             0.0000000000
     50221       530  TIP3      H1            -49.2912838084      -52.6284376366       32.7641432376  TIP3      130             0.0000000000
     50222       530  TIP3      H2            -50.7006393040      -53.1856758014       33.0227695867  TIP3      130             0.0000000000
     50223       531  TIP3      OH2           -48.2579608883      -47.6403688968       33.6929410107  TIP3      131             0.0000000000
     50224       531  TIP3      H1            -47.5048197466      -47.7949642955       33.1104295075  TIP3      131             0.0000000000
     50225       531  TIP3      H2            -48.6053654716      -46.7867948729       33.3872261696  TIP3      131             0.0000000000
     50226       532  TIP3      OH2           -43.8539770685      -49.8426312010       38.6911724948  TIP3      132             0.0000000000
     50227       532  TIP3      H1            -43.6414702498      -50.7810248413       38.5911355509  TIP3      132             0.0000000000
     50228       532  TIP3      H2            -42.9813462016      -49.4193916846       38.6845383062  TIP3      132             0.0000000000
     50229       533  TIP3      OH2           -42.5307086768      -47.0547814050       36.8202745789  TIP3      133             0.0000000000
     50230       533  TIP3      H1            -42.7825352892      -46.3326449483       36.1979427451  TIP3      133             0.0000000000
     50231       533  TIP3      H2            -41.5741104198      -47.1025254355       36.6153231490  TIP3      133             0.0000000000
     50232       534  TIP3      OH2           -51.7549370443      -50.2389099439       37.8608272972  TIP3      134             0.0000000000
     50233       534  TIP3      H1            -52.5319744739      -50.7982401768       37.6372269226  TIP3      134             0.0000000000
     50234       534  TIP3      H2            -51.0937648058      -50.5819760300       37.2286178102  TIP3      134             0.0000000000
     50235       535  TIP3      OH2           -49.0149060700      -55.6579571975       33.8704754569  TIP3      135             0.0000000000
     50236       535  TIP3      H1            -49.1468570598      -54.6873818742       33.7568477811  TIP3      135             0.0000000000
     50237       535  TIP3      H2            -49.7801223553      -56.0075099700       33.3776541320  TIP3      135             0.0000000000
     50238       536  TIP3      OH2           -47.7496021260      -51.3178907085       37.4479943704  TIP3      136             0.0000000000
     50239       536  TIP3      H1            -48.0270969554      -51.5434587018       38.3550601326  TIP3      136             0.0000000000
     50240       536  TIP3      H2            -48.5475440388      -51.5242717923       36.9225789106  TIP3      136             0.0000000000
     50241       537  TIP3      OH2           -45.0409291520      -52.1845428232       36.5215687442  TIP3      137             0.0000000000
     50242       537  TIP3      H1            -46.0044010252      -52.1534765304       36.6570684024  TIP3      137             0.0000000000
     50243       537  TIP3      H2            -44.7431100493      -52.8177086868       37.1990564764  TIP3      137             0.0000000000
     50244       538  TIP3      OH2           -43.4343952751      -53.5527008245       38.4849917900  TIP3      138             0.0000000000
     50245       538  TIP3      H1            -43.5115870078      -54.5212168034       38.5056709034  TIP3      138             0.0000000000
     50246       538  TIP3      H2            -43.7282995959      -53.2718122140       39.3843843093  TIP3      138             0.0000000000
     50247       539  TIP3      OH2           -53.5892104340      -52.3189342272       37.5539887862  TIP3      139             0.0000000000
     50248       539  TIP3      H1            -53.3831466813      -53.0588809435       36.9507035288  TIP3      139             0.0000000000
     50249       539  TIP3      H2            -53.7052346874      -52.7697652877       38.4155253521  TIP3      139             0.0000000000
     50250       540  TIP3      OH2           -48.8406326054       56.5269167056       36.5461289697  TIP3      140             0.0000000000
     50251       540  TIP3      H1            -48.1053884477       55.8666131026       36.5286755294  TIP3      140             0.0000000000
     50252       540  TIP3      H2            -48.8993360998       56.7494006865       35.6062537917  TIP3      140             0.0000000000
     50253       541  TIP3      OH2           -48.4399158442      -54.6603927230       38.6174189632  TIP3      141             0.0000000000
     50254       541  TIP3      H1            -48.5983025304      -55.1539399576       37.7821481857  TIP3      141             0.0000000000
     50255       541  TIP3      H2            -49.0485278857      -53.9073398413       38.5459547426  TIP3      141             0.0000000000
     50256       542  TIP3      OH2            56.2103585935      -37.7607180754       26.2957199059  TIP3      142             0.0000000000
     50257       542  TIP3      H1             55.5005675961      -38.2302731355       25.7982278684  TIP3      142             0.0000000000
     50258       542  TIP3      H2             56.5001488799      -38.4353581509       26.9296427197  TIP3      142             0.0000000000
     50259       543  TIP3      OH2           -55.8151617890      -39.6534132102       28.1258135833  TIP3      143             0.0000000000
     50260       543  TIP3      H1            -56.1678370899      -40.5381350462       28.3215652956  TIP3      143             0.0000000000
     50261       543  TIP3      H2            -55.6019752003      -39.3188000772       29.0167270430  TIP3      143             0.0000000000
     50262       544  TIP3      OH2           -38.2837340693      -38.8427953037       31.0904345533  TIP3      144             0.0000000000
     50263       544  TIP3      H1            -38.2726600983      -38.6813690914       32.0499961323  TIP3      144             0.0000000000
     50264       544  TIP3      H2            -37.5729174418      -38.2750492855       30.7774069270  TIP3      144             0.0000000000
     50265       545  TIP3      OH2           -38.6981709276      -39.2677074811       34.0293462629  TIP3      145             0.0000000000
     50266       545  TIP3      H1            -39.1859509503      -40.0399758904       33.6566152873  TIP3      145             0.0000000000
     50267       545  TIP3      H2            -38.1767611164      -39.7082556457       34.7197634667  TIP3      145             0.0000000000
     50268       546  TIP3      OH2           -40.2548279121      -43.5358520151       38.6995172329  TIP3      146             0.0000000000
     50269       546  TIP3      H1            -41.1446971470      -43.5751125908       39.0718513003  TIP3      146             0.0000000000
     50270       546  TIP3      H2            -39.8824821692      -42.7291078388       39.1257738774  TIP3      146             0.0000000000
     50271       547  TIP3      OH2           -38.9507755618      -45.2482028746       24.1433811154  TIP3      147             0.0000000000
     50272       547  TIP3      H1            -38.1007778695      -44.8081571628       24.3198324604  TIP3      147             0.0000000000
     50273       547  TIP3      H2            -38.9561111405      -45.9635160498       24.8151796510  TIP3      147             0.0000000000
     50274       548  TIP3      OH2           -38.5462766439      -47.1762364503       25.9908498809  TIP3      148             0.0000000000
     50275       548  TIP3      H1            -39.3146070899      -47.6480657059       26.4052606971  TIP3      148             0.0000000000
     50276       548  TIP3      H2            -37.9964720879      -46.9731868717       26.7711674789  TIP3      148             0.0000000000
     50277       549  TIP3      OH2           -38.8164369020      -44.3752530006       30.2565522134  TIP3      149             0.0000000000
     50278       549  TIP3      H1            -38.0247823417      -44.7866536095       30.6431877699  TIP3      149             0.0000000000
     50279       549  TIP3      H2            -38.7228324705      -43.5372647643       30.8043560957  TIP3      149             0.0000000000
     50280       550  TIP3      OH2           -40.2930855448      -41.4842258817       33.2713850634  TIP3      150             0.0000000000
     50281       550  TIP3      H1            -40.9758603198      -41.2031461806       33.8846210120  TIP3      150             0.0000000000
     50282       550  TIP3      H2            -40.8133462876      -41.9657208137       32.5847483702  TIP3      150             0.0000000000
     50283       551  TIP3      OH2           -38.2938528382      -47.3320163233       22.4319019361  TIP3      151             0.0000000000
     50284       551  TIP3      H1            -38.7848221388      -46.9433303577       21.6921896321  TIP3      151             0.0000000000
     50285       551  TIP3      H2            -38.3429810120      -46.5999628896       23.0759374046  TIP3      151             0.0000000000
     50286       552  TIP3      OH2           -40.7546460987      -48.6606116923       26.5637068380  TIP3      152             0.0000000000
     50287       552  TIP3      H1            -40.9267088485      -49.6123493794       26.5543224696  TIP3      152             0.0000000000
     50288       552  TIP3      H2            -41.1144659235      -48.4022461462       27.4333418832  TIP3      152             0.0000000000
     50289       553  TIP3      OH2           -55.7439550000      -46.5907081029       30.6183565527  TIP3      153             0.0000000000
     50290       553  TIP3      H1            -55.5610127374      -46.6633886864       29.6562080405  TIP3      153             0.0000000000
     50291       553  TIP3      H2            -54.8645734886      -46.7319127244       31.0094457710  TIP3      153             0.0000000000
     50292       554  TIP3      OH2           -39.9220440066      -46.6905280450       36.2353712334  TIP3      154             0.0000000000
     50293       554  TIP3      H1            -39.3137834597      -47.4376098689       36.4012297482  TIP3      154             0.0000000000
     50294       554  TIP3      H2            -39.3376658460      -45.9075379085       36.2594952280  TIP3      154             0.0000000000
     50295       555  TIP3      OH2           -38.4044474589      -48.7873289216       36.8993936541  TIP3      155             0.0000000000
     50296       555  TIP3      H1            -39.2901759006      -49.1907999221       36.7471853902  TIP3      155             0.0000000000
     50297       555  TIP3      H2            -37.8279513799      -49.5641696330       36.8405866930  TIP3      155             0.0000000000
     50298       556  TIP3      OH2           -41.1078767719      -51.0871841484       25.0035736643  TIP3      156             0.0000000000
     50299       556  TIP3      H1            -40.7788865008      -51.9954563891       25.1746367862  TIP3      156             0.0000000000
     50300       556  TIP3      H2            -40.3081798785      -50.6583218564       24.6674277592  TIP3      156             0.0000000000
     50301       557  TIP3      OH2           -40.4658605839      -50.5210942185       30.4689749511  TIP3      157             0.0000000000
     50302       557  TIP3      H1            -39.5095236215      -50.2909214928       30.4476096227  TIP3      157             0.0000000000
     50303       557  TIP3      H2            -40.6705097068      -50.3945177814       31.4102440857  TIP3      157             0.0000000000
     50304       558  TIP3      OH2           -40.3967375648      -49.7923275688       33.2605935069  TIP3      158             0.0000000000
     50305       558  TIP3      H1            -41.2705540394      -49.4944285772       33.6010963985  TIP3      158             0.0000000000
     50306       558  TIP3      H2            -39.9787813823      -48.9291968630       33.0339506294  TIP3      158             0.0000000000
     50307       559  TIP3      OH2           -56.1221034479      -51.2879086247       36.7406332687  TIP3      159             0.0000000000
     50308       559  TIP3      H1            -55.1971047597      -51.4760027824       36.9708786209  TIP3      159             0.0000000000
     50309       559  TIP3      H2            -56.5760001804      -52.0912583135       37.0937550119  TIP3      159             0.0000000000
     50310       560  TIP3      OH2           -38.1184520037      -55.7648302988       38.6197303161  TIP3      160             0.0000000000
     50311       560  TIP3      H1            -37.7834313235      -56.4274245394       37.9895159129  TIP3      160             0.0000000000
     50312       560  TIP3      H2            -38.0117459797      -54.9360383366       38.1201452569  TIP3      160             0.0000000000
     50313       561  TIP3      OH2           -40.4375128969      -53.7917720776       25.0690083050  TIP3      161             0.0000000000
     50314       561  TIP3      H1            -40.2502751578      -54.2541525804       25.9165626552  TIP3      161             0.0000000000
     50315       561  TIP3      H2            -41.0574848009      -54.4231366437       24.6390207408  TIP3      161             0.0000000000
     50316       562  TIP3      OH2           -54.9322321188      -52.9879532424       29.6031839883  TIP3      162             0.0000000000
     50317       562  TIP3      H1            -54.4817946567      -53.7938723222       29.9235360052  TIP3      162             0.0000000000
     50318       562  TIP3      H2            -54.4407475503      -52.2803632903       30.0452404232  TIP3      162             0.0000000000
     50319       563  TIP3      OH2           -56.5898546938      -50.0106497861       30.7127578394  TIP3      163             0.0000000000
     50320       563  TIP3      H1            -56.0907450036      -50.2182891308       29.9019064061  TIP3      163             0.0000000000
     50321       563  TIP3      H2            -56.2235037660      -49.1545680142       30.9538298250  TIP3      163             0.0000000000
     50322       564  TIP3      OH2           -38.6032651170      -53.6694523782       36.9558718487  TIP3      164             0.0000000000
     50323       564  TIP3      H1            -39.5451193206      -53.4074746638       36.9085129850  TIP3      164             0.0000000000
     50324       564  TIP3      H2            -38.5311615345      -54.2183648361       36.1562662157  TIP3      164             0.0000000000
     50325       565  TIP3      OH2           -38.5763939858      -53.7606013416       21.6410407443  TIP3      165             0.0000000000
     50326       565  TIP3      H1            -38.1849357533      -54.4791658118       21.1174951775  TIP3      165             0.0000000000
     50327       565  TIP3      H2            -37.9207364502      -53.0811954201       21.6630183806  TIP3      165             0.0000000000
     50328       566  TIP3      OH2            56.5349021411      -53.7547394807       24.7368668128  TIP3      166             0.0000000000
     50329       566  TIP3      H1             55.5962473589      -53.5332253061       24.6183069387  TIP3      166             0.0000000000
     50330       566  TIP3      H2             56.9904082818      -53.2567095856       24.0440630953  TIP3      166             0.0000000000
     50331       567  TIP3      OH2           -41.5510521531      -38.7655442578       26.6964123199  TIP3      167             0.0000000000
     50332       567  TIP3      H1            -40.8794288772      -39.1013877201       26.0769180348  TIP3      167             0.0000000000
     50333       567  TIP3      H2            -41.0248891644      -38.2733760526       27.3402209707  TIP3      167             0.0000000000
     50334       568  TIP3      OH2            56.5380048808      -55.0236064706       33.0561038522  TIP3      168             0.0000000000
     50335       568  TIP3      H1             55.8662181899      -55.2359658807       33.7345921558  TIP3      168             0.0000000000
     50336       568  TIP3      H2             56.0563330286      -54.3852321764       32.4950992206  TIP3      168             0.0000000000
     50337       569  TIP3      OH2           -54.1279654956      -41.8269046358       37.2300001146  TIP3      169             0.0000000000
     50338       569  TIP3      H1            -54.9626516467      -41.6744169132       36.7847442240  TIP3      169             0.0000000000
     50339       569  TIP3      H2            -54.3959831220      -41.9213075258       38.1517632344  TIP3      169             0.0000000000
     50340       570  TIP3      OH2           -51.2120190201      -40.8685661342       33.4946277276  TIP3      170             0.0000000000
     50341       570  TIP3      H1            -51.5992469370      -40.0288791222       33.2042515710  TIP3      170             0.0000000000
     50342       570  TIP3      H2            -50.2857058979      -40.7653374046       33.1817424524  TIP3      170             0.0000000000
     50343       571  TIP3      OH2           -46.8951482886      -39.4473467981       36.4264725047  TIP3      171             0.0000000000
     50344       571  TIP3      H1            -46.6999998111      -39.7932758082       37.3284244202  TIP3      171             0.0000000000
     50345       571  TIP3      H2            -46.0090110648      -39.1450869065       36.1357480802  TIP3      171             0.0000000000
     50346       572  TIP3      OH2           -44.5751699465      -38.1741623907       35.6885827141  TIP3      172             0.0000000000
     50347       572  TIP3      H1            -43.8569906404      -38.7881424363       35.4588743250  TIP3      172             0.0000000000
     50348       572  TIP3      H2            -44.2093590366      -37.7604424166       36.5018180577  TIP3      172             0.0000000000
     50349       573  TIP3      OH2           -39.6195408282      -55.5442112760       34.8001644701  TIP3      173             0.0000000000
     50350       573  TIP3      H1            -40.4335858180      -55.2406013836       34.3824759278  TIP3      173             0.0000000000
     50351       573  TIP3      H2            -39.3883223346      -56.3440939824       34.2608520639  TIP3      173             0.0000000000
     50352       574  TIP3      OH2           -53.7885683506      -37.6304136634       33.5094935327  TIP3      174             0.0000000000
     50353       574  TIP3      H1            -54.5214651684      -37.1437015261       33.0871342663  TIP3      174             0.0000000000
     50354       574  TIP3      H2            -54.1466076118      -37.8314950964       34.3903983552  TIP3      174             0.0000000000
     50355       575  TIP3      OH2           -51.2961242125      -38.0257729764       32.5710660590  TIP3      175             0.0000000000
     50356       575  TIP3      H1            -52.1943372177      -37.9169248416       32.9648695010  TIP3      175             0.0000000000
     50357       575  TIP3      H2            -51.3787857828      -37.4518419515       31.7816866254  TIP3      175             0.0000000000
     50358       576  TIP3      OH2           -46.6099573115      -38.1283701029       31.7347658971  TIP3      176             0.0000000000
     50359       576  TIP3      H1            -47.0731847898      -37.5805227953       31.0822559273  TIP3      176             0.0000000000
     50360       576  TIP3      H2            -46.4590616090      -37.4984619458       32.4700649733  TIP3      176             0.0000000000
     50361       577  TIP3      OH2           -44.2907172468      -39.2782365370       32.7114991211  TIP3      177             0.0000000000
     50362       577  TIP3      H1            -45.1841985800      -39.0556761408       32.4058444544  TIP3      177             0.0000000000
     50363       577  TIP3      H2            -43.8525885478      -38.4127050042       32.6308595916  TIP3      177             0.0000000000
     50364       578  TIP3      OH2           -41.7031049569      -37.7095935613       32.9937140532  TIP3      178             0.0000000000
     50365       578  TIP3      H1            -41.8372522481      -36.7581573750       32.7581049073  TIP3      178             0.0000000000
     50366       578  TIP3      H2            -41.5113884228      -38.0883181258       32.1152231918  TIP3      178             0.0000000000
     50367       579  TIP3      OH2           -54.3281126638      -38.9554820447       30.4296004648  TIP3      179             0.0000000000
     50368       579  TIP3      H1            -54.3837245694      -39.4171048880       31.2979698799  TIP3      179             0.0000000000
     50369       579  TIP3      H2            -53.5280563487      -39.3266180216       30.0261900334  TIP3      179             0.0000000000
     50370       580  TIP3      OH2           -52.2520924263      -40.2592071322       29.0839288503  TIP3      180             0.0000000000
     50371       580  TIP3      H1            -52.4351483638      -41.1947305327       29.2868166753  TIP3      180             0.0000000000
     50372       580  TIP3      H2            -51.4045048049      -40.1240569124       29.5618239867  TIP3      180             0.0000000000
     50373       581  TIP3      OH2           -49.6776875061      -39.7811032179       29.9494968075  TIP3      181             0.0000000000
     50374       581  TIP3      H1            -49.4838764483      -40.6968744385       29.6768000714  TIP3      181             0.0000000000
     50375       581  TIP3      H2            -49.6185910656      -39.8421521947       30.9123164350  TIP3      181             0.0000000000
     50376       582  TIP3      OH2           -46.1990483752      -54.1278289294       29.0935241182  TIP3      182             0.0000000000
     50377       582  TIP3      H1            -46.8702381284      -54.7748304983       29.3433901220  TIP3      182             0.0000000000
     50378       582  TIP3      H2            -45.6237582472      -54.6282329469       28.5019078899  TIP3      182             0.0000000000
     50379       583  TIP3      OH2           -41.0595536323      -56.0511034880       29.1839038853  TIP3      183             0.0000000000
     50380       583  TIP3      H1            -40.4364975976      -55.4757787709       28.6819720359  TIP3      183             0.0000000000
     50381       583  TIP3      H2            -41.9389961325      -55.7070252623       28.9536276223  TIP3      183             0.0000000000
     50382       584  TIP3      OH2           -39.3401879850      -54.8717625695       27.4911036380  TIP3      184             0.0000000000
     50383       584  TIP3      H1            -38.6978846547      -55.4129671545       27.0107174711  TIP3      184             0.0000000000
     50384       584  TIP3      H2            -38.9083339387      -53.9928374301       27.5606107208  TIP3      184             0.0000000000
     50385       585  TIP3      OH2           -53.8733095870      -55.4617960513       26.9287031106  TIP3      185             0.0000000000
     50386       585  TIP3      H1            -54.6417686122      -55.7322702975       26.4125385545  TIP3      185             0.0000000000
     50387       585  TIP3      H2            -53.3423192265      -56.2970925178       26.9069742093  TIP3      185             0.0000000000
     50388       586  TIP3      OH2           -55.0018092914      -55.7096920878       22.7209865054  TIP3      186             0.0000000000
     50389       586  TIP3      H1            -54.5823610819      -55.0804828963       22.1181036487  TIP3      186             0.0000000000
     50390       586  TIP3      H2            -55.6493278790      -55.1587090685       23.1973468928  TIP3      186             0.0000000000
     50391       587  TIP3      OH2           -49.3117385057      -55.6023295439       26.7396295014  TIP3      187             0.0000000000
     50392       587  TIP3      H1            -48.4257307278      -55.1918135502       26.6850027916  TIP3      187             0.0000000000
     50393       587  TIP3      H2            -49.4125696460      -55.7779065784       27.6727123575  TIP3      187             0.0000000000
     50394       588  TIP3      OH2           -43.6800944199      -55.5183548729       28.3652282123  TIP3      188             0.0000000000
     50395       588  TIP3      H1            -43.6495364556      -55.4432446306       27.4084618331  TIP3      188             0.0000000000
     50396       588  TIP3      H2            -43.9982541809      -56.4371080068       28.4973051494  TIP3      188             0.0000000000
     50397       589  TIP3      OH2           -42.3425868624      -55.4870930742       24.0481231511  TIP3      189             0.0000000000
     50398       589  TIP3      H1            -43.0872758582      -54.9127860171       23.8542233256  TIP3      189             0.0000000000
     50399       589  TIP3      H2            -42.8122672166      -56.3407879656       24.2274754158  TIP3      189             0.0000000000
     50400       590  TIP3      OH2           -55.0988083641      -39.7676716819       23.6355290088  TIP3      190             0.0000000000
     50401       590  TIP3      H1            -55.7995788866      -39.7984603752       22.9593043270  TIP3      190             0.0000000000
     50402       590  TIP3      H2            -55.1347947978      -38.8343608586       23.8799272635  TIP3      190             0.0000000000
     50403       591  TIP3      OH2           -46.2651091536      -38.5229141630       22.0391163367  TIP3      191             0.0000000000
     50404       591  TIP3      H1            -45.3852092594      -38.1933060777       21.8282447561  TIP3      191             0.0000000000
     50405       591  TIP3      H2            -46.4824808390      -38.9936133142       21.1973204127  TIP3      191             0.0000000000
     50406       592  TIP3      OH2           -39.5532295966      -38.9633925899       24.7076272666  TIP3      192             0.0000000000
     50407       592  TIP3      H1            -39.7550752898      -39.7521017793       24.1411784904  TIP3      192             0.0000000000
     50408       592  TIP3      H2            -39.6084862692      -38.2314941447       24.1006027667  TIP3      192             0.0000000000
     50409       593  TIP3      OH2           -53.9319091864      -54.9566964490       36.4016468801  TIP3      193             0.0000000000
     50410       593  TIP3      H1            -54.2923964712      -55.7562275340       36.8418723243  TIP3      193             0.0000000000
     50411       593  TIP3      H2            -53.0094613267      -54.9833866021       36.7388629962  TIP3      193             0.0000000000
     50412       594  TIP3      OH2           -51.9165905570      -55.5859271544       38.0013953773  TIP3      194             0.0000000000
     50413       594  TIP3      H1            -51.0250307207      -55.9154032535       37.7866178222  TIP3      194             0.0000000000
     50414       594  TIP3      H2            -52.3137268839      -56.3776723081       38.4281307973  TIP3      194             0.0000000000
     50415       595  TIP3      OH2           -43.5137214418       56.5414683459       38.1496732534  TIP3      195             0.0000000000
     50416       595  TIP3      H1            -43.4376487543       56.0913839032       39.0160812877  TIP3      195             0.0000000000
     50417       595  TIP3      H2            -42.6079581161       56.5424438483       37.8241880772  TIP3      195             0.0000000000
     50418       596  TIP3      OH2           -40.3241823591      -40.2430574689       36.8619479651  TIP3      196             0.0000000000
     50419       596  TIP3      H1            -41.1179539117      -40.4050331722       36.3039280383  TIP3      196             0.0000000000
     50420       596  TIP3      H2            -40.4223705769      -39.2875026623       37.0490628818  TIP3      196             0.0000000000
     50421       597  TIP3      OH2           -25.8962382999      -46.3626631716       26.8441318506  TIP3      197             0.0000000000
     50422       597  TIP3      H1            -25.8594804810      -45.3868140193       26.7548233289  TIP3      197             0.0000000000
     50423       597  TIP3      H2            -26.5857811795      -46.6141357638       26.2176949651  TIP3      197             0.0000000000
     50424       598  TIP3      OH2           -27.0090144567      -47.0899323607       30.3051984934  TIP3      198             0.0000000000
     50425       598  TIP3      H1            -27.0361307130      -47.7484106354       31.0070153884  TIP3      198             0.0000000000
     50426       598  TIP3      H2            -27.3346695021      -47.5776378074       29.5296188337  TIP3      198             0.0000000000
     50427       599  TIP3      OH2           -34.6019525196      -47.4550910452       31.8083736097  TIP3      199             0.0000000000
     50428       599  TIP3      H1            -34.4813647985      -48.1351354829       32.4941957914  TIP3      199             0.0000000000
     50429       599  TIP3      H2            -33.8966699911      -46.8289279371       32.0403966382  TIP3      199             0.0000000000
     50430       600  TIP3      OH2           -23.3025547228      -44.1579761730       28.5846368125  TIP3      200             0.0000000000
     50431       600  TIP3      H1            -23.7397907158      -44.8719421133       29.0604769461  TIP3      200             0.0000000000
     50432       600  TIP3      H2            -23.3068830568      -43.4373114621       29.2436275344  TIP3      200             0.0000000000
     50433       601  TIP3      OH2           -33.7134917826      -42.9960118373       30.3954998387  TIP3      201             0.0000000000
     50434       601  TIP3      H1            -34.0662351874      -43.8348565692       30.0434667848  TIP3      201             0.0000000000
     50435       601  TIP3      H2            -32.7629744106      -43.1940708302       30.4440202241  TIP3      201             0.0000000000
     50436       602  TIP3      OH2           -37.0717712666      -49.3870407656       25.7988808973  TIP3      202             0.0000000000
     50437       602  TIP3      H1            -37.5932766694      -48.5447745038       25.8047380588  TIP3      202             0.0000000000
     50438       602  TIP3      H2            -37.6768898453      -49.9610716613       25.2983197940  TIP3      202             0.0000000000
     50439       603  TIP3      OH2           -36.3937274143      -47.2262248783       27.9304910853  TIP3      203             0.0000000000
     50440       603  TIP3      H1            -36.1515057702      -47.9948521071       28.4794484636  TIP3      203             0.0000000000
     50441       603  TIP3      H2            -35.6349220105      -47.0709974465       27.3782760861  TIP3      203             0.0000000000
     50442       604  TIP3      OH2           -26.2001512917      -39.0167359222       28.8138814867  TIP3      204             0.0000000000
     50443       604  TIP3      H1            -25.5569788669      -39.7198583850       28.5363240760  TIP3      204             0.0000000000
     50444       604  TIP3      H2            -26.3955603126      -39.2945465008       29.7080220246  TIP3      204             0.0000000000
     50445       605  TIP3      OH2           -28.6323520190      -44.6737545319       30.7270634707  TIP3      205             0.0000000000
     50446       605  TIP3      H1            -28.2975871546      -45.3398684539       30.1040027116  TIP3      205             0.0000000000
     50447       605  TIP3      H2            -27.8598715004      -44.5448304847       31.3044281410  TIP3      205             0.0000000000
     50448       606  TIP3      OH2           -19.9792707276      -53.0716943657       31.5313397965  TIP3      206             0.0000000000
     50449       606  TIP3      H1            -19.8772617982      -52.4470534642       32.2866346717  TIP3      206             0.0000000000
     50450       606  TIP3      H2            -19.4993319244      -52.5980080552       30.8370781295  TIP3      206             0.0000000000
     50451       607  TIP3      OH2           -25.4706572313      -50.2404870013       31.0627249424  TIP3      207             0.0000000000
     50452       607  TIP3      H1            -25.3184530837      -51.2058767521       31.0554482348  TIP3      207             0.0000000000
     50453       607  TIP3      H2            -25.5750568361      -50.0778990822       30.1022381220  TIP3      207             0.0000000000
     50454       608  TIP3      OH2           -32.3395816200      -52.1529266842       28.3084275323  TIP3      208             0.0000000000
     50455       608  TIP3      H1            -32.2571153160      -51.3018182146       27.8556201321  TIP3      208             0.0000000000
     50456       608  TIP3      H2            -32.7606988809      -52.7290105562       27.6355245354  TIP3      208             0.0000000000
     50457       609  TIP3      OH2           -24.6080080482      -52.0318189640       26.6961317353  TIP3      209             0.0000000000
     50458       609  TIP3      H1            -23.9422847511      -52.3719011387       27.3387510686  TIP3      209             0.0000000000
     50459       609  TIP3      H2            -24.0668335648      -51.4995845184       26.0951481193  TIP3      209             0.0000000000
     50460       610  TIP3      OH2           -35.7049554647      -49.7269540758       29.0480806921  TIP3      210             0.0000000000
     50461       610  TIP3      H1            -35.0480733014      -50.3150336138       29.4917844354  TIP3      210             0.0000000000
     50462       610  TIP3      H2            -35.6533122946      -50.0672890156       28.1467386708  TIP3      210             0.0000000000
     50463       611  TIP3      OH2           -30.5598421096      -48.1887468813       28.3106245197  TIP3      211             0.0000000000
     50464       611  TIP3      H1            -29.9128359279      -48.7534571924       28.7669885758  TIP3      211             0.0000000000
     50465       611  TIP3      H2            -31.1034477158      -48.8606196764       27.8615182529  TIP3      211             0.0000000000
     50466       612  TIP3      OH2           -19.5547580522      -51.6052782932       33.7778642720  TIP3      212             0.0000000000
     50467       612  TIP3      H1            -20.2357990818      -50.9060268555       33.6926260618  TIP3      212             0.0000000000
     50468       612  TIP3      H2            -19.5495047638      -51.7657010006       34.7312384309  TIP3      212             0.0000000000
     50469       613  TIP3      OH2           -33.4717914456      -53.2533725444       32.3612165124  TIP3      213             0.0000000000
     50470       613  TIP3      H1            -33.7300556857      -52.7036071864       31.5975642683  TIP3      213             0.0000000000
     50471       613  TIP3      H2            -34.1629127997      -53.0143809230       33.0276580329  TIP3      213             0.0000000000
     50472       614  TIP3      OH2           -26.1382301907      -43.7638463270       25.9081730945  TIP3      214             0.0000000000
     50473       614  TIP3      H1            -26.4303004880      -44.0530838848       25.0484275080  TIP3      214             0.0000000000
     50474       614  TIP3      H2            -26.4605967247      -42.8341428107       25.9572212062  TIP3      214             0.0000000000
     50475       615  TIP3      OH2           -30.9319923440      -45.6030643833       32.6302292808  TIP3      215             0.0000000000
     50476       615  TIP3      H1            -31.6547347664      -44.9553204168       32.7813103716  TIP3      215             0.0000000000
     50477       615  TIP3      H2            -30.2258545565      -45.0110247363       32.3278310828  TIP3      215             0.0000000000
     50478       616  TIP3      OH2           -22.8151967941      -52.7297012586       28.6598328724  TIP3      216             0.0000000000
     50479       616  TIP3      H1            -23.0429206853      -53.4914159788       29.2103683886  TIP3      216             0.0000000000
     50480       616  TIP3      H2            -22.1582920578      -52.2723994862       29.2081829140  TIP3      216             0.0000000000
     50481       617  TIP3      OH2           -33.9277000731      -51.3424855429       30.3269068280  TIP3      217             0.0000000000
     50482       617  TIP3      H1            -33.2643062483      -50.7117246524       30.6878261987  TIP3      217             0.0000000000
     50483       617  TIP3      H2            -33.3786307951      -51.8303735902       29.6593669294  TIP3      217             0.0000000000
     50484       618  TIP3      OH2           -32.5086211974      -43.6267387000       33.4204866344  TIP3      218             0.0000000000
     50485       618  TIP3      H1            -32.5365055249      -42.7135729628       33.0698519042  TIP3      218             0.0000000000
     50486       618  TIP3      H2            -33.3928193789      -43.6755400009       33.8660579931  TIP3      218             0.0000000000
     50487       619  TIP3      OH2           -36.4174276727      -43.9737749184       24.2394225706  TIP3      219             0.0000000000
     50488       619  TIP3      H1            -36.6630089941      -43.6827160186       23.3355653062  TIP3      219             0.0000000000
     50489       619  TIP3      H2            -36.3541173890      -43.1032757134       24.6885907040  TIP3      219             0.0000000000
     50490       620  TIP3      OH2           -22.7812080400      -42.3258817623       30.9495012649  TIP3      220             0.0000000000
     50491       620  TIP3      H1            -23.7469848482      -42.2338281004       31.0916051004  TIP3      220             0.0000000000
     50492       620  TIP3      H2            -22.5146804016      -41.3990717449       30.7842579485  TIP3      220             0.0000000000
     50493       621  TIP3      OH2           -22.4632898673      -54.0403881963       32.3738261825  TIP3      221             0.0000000000
     50494       621  TIP3      H1            -23.2055185495      -53.4237742264       32.2977137393  TIP3      221             0.0000000000
     50495       621  TIP3      H2            -21.7800056220      -53.6226088428       31.8290940585  TIP3      221             0.0000000000
     50496       622  TIP3      OH2           -29.4663054782      -55.9142224612       29.8046216879  TIP3      222             0.0000000000
     50497       622  TIP3      H1            -29.6006622108      -56.8856998635       29.7554267356  TIP3      222             0.0000000000
     50498       622  TIP3      H2            -30.3462328190      -55.6172606379       30.0984882211  TIP3      222             0.0000000000
     50499       623  TIP3      OH2           -24.5314967136      -40.5371021903       27.5791330933  TIP3      223             0.0000000000
     50500       623  TIP3      H1            -24.0995152285      -41.2464838110       27.0634130483  TIP3      223             0.0000000000
     50501       623  TIP3      H2            -24.1744848554      -39.7350107642       27.1433590592  TIP3      223             0.0000000000
     50502       624  TIP3      OH2           -23.3475536022      -42.6135479300       26.0681895545  TIP3      224             0.0000000000
     50503       624  TIP3      H1            -23.6186543958      -43.3207892845       25.4595741289  TIP3      224             0.0000000000
     50504       624  TIP3      H2            -23.2967690195      -43.0902309611       26.9154765771  TIP3      224             0.0000000000
     50505       625  TIP3      OH2           -21.6939326699      -44.0434150618       34.5615688014  TIP3      225             0.0000000000
     50506       625  TIP3      H1            -21.5494910942      -44.6645949588       33.8148088562  TIP3      225             0.0000000000
     50507       625  TIP3      H2            -21.5131731071      -43.1784572733       34.1638014330  TIP3      225             0.0000000000
     50508       626  TIP3      OH2           -27.2173011680      -47.0980056266       24.3298130372  TIP3      226             0.0000000000
     50509       626  TIP3      H1            -27.9261820724      -46.5744868901       23.9822655406  TIP3      226             0.0000000000
     50510       626  TIP3      H2            -26.4989319399      -47.0539002620       23.6616978095  TIP3      226             0.0000000000
     50511       627  TIP3      OH2           -27.1578459663      -48.5857253929       21.3559746795  TIP3      227             0.0000000000
     50512       627  TIP3      H1            -26.4381947072      -48.6311541739       22.0103280594  TIP3      227             0.0000000000
     50513       627  TIP3      H2            -26.8472067059      -49.2743528094       20.7361700338  TIP3      227             0.0000000000
     50514       628  TIP3      OH2           -19.8301325403      -47.7248525020       32.6197515141  TIP3      228             0.0000000000
     50515       628  TIP3      H1            -20.4939602221      -47.0089457660       32.6809174822  TIP3      228             0.0000000000
     50516       628  TIP3      H2            -19.3603947664      -47.4935960382       31.7981834239  TIP3      228             0.0000000000
     50517       629  TIP3      OH2           -23.7902406144      -46.8924713736       25.2432380646  TIP3      229             0.0000000000
     50518       629  TIP3      H1            -24.5291398060      -46.6678130696       25.8546111339  TIP3      229             0.0000000000
     50519       629  TIP3      H2            -23.3379311699      -47.5955437941       25.7412512993  TIP3      229             0.0000000000
     50520       630  TIP3      OH2           -23.8635215957      -48.7430224481       34.3524865539  TIP3      230             0.0000000000
     50521       630  TIP3      H1            -23.8340761503      -47.9405446580       34.9026760940  TIP3      230             0.0000000000
     50522       630  TIP3      H2            -24.4969917294      -48.4395059900       33.6636248851  TIP3      230             0.0000000000
     50523       631  TIP3      OH2           -32.1661141395      -46.2495437297       27.1644912865  TIP3      231             0.0000000000
     50524       631  TIP3      H1            -32.4727661726      -46.6413305798       26.3231118305  TIP3      231             0.0000000000
     50525       631  TIP3      H2            -31.5453545269      -46.9386729463       27.5057926759  TIP3      231             0.0000000000
     50526       632  TIP3      OH2           -30.8178481839      -42.8362603270       29.8476246846  TIP3      232             0.0000000000
     50527       632  TIP3      H1            -30.8681877832      -43.4068792272       29.0694246840  TIP3      232             0.0000000000
     50528       632  TIP3      H2            -30.0532570666      -43.2159367564       30.3168958013  TIP3      232             0.0000000000
     50529       633  TIP3      OH2           -31.8170876800      -47.5042392979       30.8080576501  TIP3      233             0.0000000000
     50530       633  TIP3      H1            -31.2394597502      -47.3833977028       30.0243754632  TIP3      233             0.0000000000
     50531       633  TIP3      H2            -31.4546953565      -46.8424364827       31.4322071467  TIP3      233             0.0000000000
     50532       634  TIP3      OH2           -25.4535156029      -41.9555679661       31.5134529146  TIP3      234             0.0000000000
     50533       634  TIP3      H1            -25.7164440690      -41.3210808706       32.1812538360  TIP3      234             0.0000000000
     50534       634  TIP3      H2            -25.6801734308      -42.8147428302       31.9540391153  TIP3      234             0.0000000000
     50535       635  TIP3      OH2           -30.8923339655      -43.1002859953       35.5287977367  TIP3      235             0.0000000000
     50536       635  TIP3      H1            -31.2490442215      -42.3061847592       35.9729501862  TIP3      235             0.0000000000
     50537       635  TIP3      H2            -31.5613275652      -43.2592912773       34.8123322479  TIP3      235             0.0000000000
     50538       636  TIP3      OH2           -24.9500410858      -47.7197786763       22.9510982883  TIP3      236             0.0000000000
     50539       636  TIP3      H1            -24.3403907283      -47.5705150853       23.7133987485  TIP3      236             0.0000000000
     50540       636  TIP3      H2            -24.4924147309      -47.2492179997       22.2190175089  TIP3      236             0.0000000000
     50541       637  TIP3      OH2           -33.9545745990      -46.9186786365       34.7238013885  TIP3      237             0.0000000000
     50542       637  TIP3      H1            -33.8958940900      -46.2315383355       35.4307922761  TIP3      237             0.0000000000
     50543       637  TIP3      H2            -34.8493147349      -46.6908465066       34.4768312619  TIP3      237             0.0000000000
     50544       638  TIP3      OH2           -27.1928404859      -40.9984175471       26.3772553449  TIP3      238             0.0000000000
     50545       638  TIP3      H1            -26.7399635197      -40.6951975477       27.1742313678  TIP3      238             0.0000000000
     50546       638  TIP3      H2            -27.7598620797      -40.2486041472       26.1610016390  TIP3      238             0.0000000000
     50547       639  TIP3      OH2           -32.6447171963      -41.0383032267       36.2803618669  TIP3      239             0.0000000000
     50548       639  TIP3      H1            -32.6754863722      -41.1535465144       35.3136399021  TIP3      239             0.0000000000
     50549       639  TIP3      H2            -33.5884768515      -41.1473077062       36.5186990159  TIP3      239             0.0000000000
     50550       640  TIP3      OH2           -21.2094728518      -55.9783772504       22.7495198283  TIP3      240             0.0000000000
     50551       640  TIP3      H1            -22.1354402527      -55.8376860541       23.0570542961  TIP3      240             0.0000000000
     50552       640  TIP3      H2            -20.9927798838      -55.1276242016       22.3616262185  TIP3      240             0.0000000000
     50553       641  TIP3      OH2           -33.2135138869      -47.1948251226       24.8108604670  TIP3      241             0.0000000000
     50554       641  TIP3      H1            -33.4474398979      -46.4229076025       24.2408234300  TIP3      241             0.0000000000
     50555       641  TIP3      H2            -33.7901753984      -47.8747354269       24.5016141539  TIP3      241             0.0000000000
     50556       642  TIP3      OH2           -20.0491472716      -41.6184921541       21.1687785141  TIP3      242             0.0000000000
     50557       642  TIP3      H1            -19.9558871353      -40.6666680580       21.3231187560  TIP3      242             0.0000000000
     50558       642  TIP3      H2            -19.1393307248      -41.9206472790       21.1034539954  TIP3      242             0.0000000000
     50559       643  TIP3      OH2           -36.4490284010      -45.0976157282       33.6685480677  TIP3      243             0.0000000000
     50560       643  TIP3      H1            -37.1279520024      -44.9123268977       32.9285890030  TIP3      243             0.0000000000
     50561       643  TIP3      H2            -37.0766682979      -45.7712626729       33.9508903955  TIP3      243             0.0000000000
     50562       644  TIP3      OH2           -37.3194331006      -42.0355932888       30.4245785814  TIP3      244             0.0000000000
     50563       644  TIP3      H1            -36.3757216215      -42.1964926790       30.4386494942  TIP3      244             0.0000000000
     50564       644  TIP3      H2            -37.4291423111      -41.2632430763       30.9849922457  TIP3      244             0.0000000000
     50565       645  TIP3      OH2           -19.1012021065      -41.3674032224       36.1133556446  TIP3      245             0.0000000000
     50566       645  TIP3      H1            -19.1960976838      -42.3313111142       36.1064109670  TIP3      245             0.0000000000
     50567       645  TIP3      H2            -19.9639466298      -41.1183039875       36.5382133432  TIP3      245             0.0000000000
     50568       646  TIP3      OH2           -28.1400254836      -41.8187439908       34.9962220222  TIP3      246             0.0000000000
     50569       646  TIP3      H1            -28.0666798640      -40.9765169370       35.5016713659  TIP3      246             0.0000000000
     50570       646  TIP3      H2            -29.0174158351      -42.1566877147       35.2553780983  TIP3      246             0.0000000000
     50571       647  TIP3      OH2           -27.7172918779      -38.0643111519       24.7994973790  TIP3      247             0.0000000000
     50572       647  TIP3      H1            -27.8034876710      -38.1462930821       23.8552483788  TIP3      247             0.0000000000
     50573       647  TIP3      H2            -27.6900742133      -37.0974588664       24.9488394707  TIP3      247             0.0000000000
     50574       648  TIP3      OH2           -34.0668498105      -39.2132842050       26.6053981370  TIP3      248             0.0000000000
     50575       648  TIP3      H1            -33.9259860601      -39.6135526113       27.4882946861  TIP3      248             0.0000000000
     50576       648  TIP3      H2            -34.9203055336      -39.6080005725       26.3582550834  TIP3      248             0.0000000000
     50577       649  TIP3      OH2           -24.9603012396      -38.9351593080       24.5677278723  TIP3      249             0.0000000000
     50578       649  TIP3      H1            -25.9103995014      -38.8671589925       24.7490763466  TIP3      249             0.0000000000
     50579       649  TIP3      H2            -24.6906587709      -39.6735296925       25.1327074102  TIP3      249             0.0000000000
     50580       650  TIP3      OH2           -21.9657971915      -49.8885026282       36.6093052418  TIP3      250             0.0000000000
     50581       650  TIP3      H1            -22.4012746826      -49.4205731731       35.8823905002  TIP3      250             0.0000000000
     50582       650  TIP3      H2            -21.9455776371      -50.8057582700       36.2955662637  TIP3      250             0.0000000000
     50583       651  TIP3      OH2           -34.7927420924      -43.4558601729       34.6301119635  TIP3      251             0.0000000000
     50584       651  TIP3      H1            -34.5997107858      -43.8601735087       35.4936639585  TIP3      251             0.0000000000
     50585       651  TIP3      H2            -35.6632042519      -43.8737924632       34.3900451334  TIP3      251             0.0000000000
     50586       652  TIP3      OH2           -32.1594087083      -55.0095727151       30.5528784127  TIP3      252             0.0000000000
     50587       652  TIP3      H1            -33.0670148003      -55.1202976965       30.1826033056  TIP3      252             0.0000000000
     50588       652  TIP3      H2            -32.2428072806      -54.1722628032       31.0343739992  TIP3      252             0.0000000000
     50589       653  TIP3      OH2           -27.5180365957      -55.3096010844       33.9604413961  TIP3      253             0.0000000000
     50590       653  TIP3      H1            -27.1072515759      -55.7424829208       34.7309106246  TIP3      253             0.0000000000
     50591       653  TIP3      H2            -28.4820616666      -55.4840683349       34.0910581426  TIP3      253             0.0000000000
     50592       654  TIP3      OH2           -24.2074898183      -51.5513115232       34.8201412384  TIP3      254             0.0000000000
     50593       654  TIP3      H1            -24.7506948391      -51.6992127489       35.6288091957  TIP3      254             0.0000000000
     50594       654  TIP3      H2            -24.3731859590      -50.6246774013       34.5820987997  TIP3      254             0.0000000000
     50595       655  TIP3      OH2           -23.4673107220      -46.7383827382       20.6435922609  TIP3      255             0.0000000000
     50596       655  TIP3      H1            -23.4097372392      -46.8933566726       19.6808866290  TIP3      255             0.0000000000
     50597       655  TIP3      H2            -22.6242785112      -46.2757950119       20.7617883084  TIP3      255             0.0000000000
     50598       656  TIP3      OH2           -32.0816670369      -50.0692633391       31.7451636922  TIP3      256             0.0000000000
     50599       656  TIP3      H1            -32.7642344832      -50.0958899342       32.4290114348  TIP3      256             0.0000000000
     50600       656  TIP3      H2            -32.0700401063      -49.1342291108       31.4423377068  TIP3      256             0.0000000000
     50601       657  TIP3      OH2           -32.1103103800      -49.8547152726       26.6360310591  TIP3      257             0.0000000000
     50602       657  TIP3      H1            -33.0091815550      -50.2107234778       26.5446500547  TIP3      257             0.0000000000
     50603       657  TIP3      H2            -31.6628208615      -50.2224728027       25.8413715346  TIP3      257             0.0000000000
     50604       658  TIP3      OH2           -26.5681144336      -49.4417121311       25.4326261028  TIP3      258             0.0000000000
     50605       658  TIP3      H1            -26.9766001696      -48.6091566651       25.1270580475  TIP3      258             0.0000000000
     50606       658  TIP3      H2            -25.8531926231      -49.5736494589       24.7885858471  TIP3      258             0.0000000000
     50607       659  TIP3      OH2           -27.4821399194      -49.2284631453       36.8978609238  TIP3      259             0.0000000000
     50608       659  TIP3      H1            -28.0370820658      -49.9797706090       37.2203392301  TIP3      259             0.0000000000
     50609       659  TIP3      H2            -26.6504963712      -49.3653570398       37.3792184506  TIP3      259             0.0000000000
     50610       660  TIP3      OH2           -25.5529938548      -49.9610882449       28.2721705116  TIP3      260             0.0000000000
     50611       660  TIP3      H1            -25.7824997070      -49.3827216382       27.5247360347  TIP3      260             0.0000000000
     50612       660  TIP3      H2            -25.4050972648      -50.8080991884       27.8007097198  TIP3      260             0.0000000000
     50613       661  TIP3      OH2           -34.4047490832      -49.7518349679       33.5369697370  TIP3      261             0.0000000000
     50614       661  TIP3      H1            -34.3320582877      -49.4176822949       34.4501706687  TIP3      261             0.0000000000
     50615       661  TIP3      H2            -34.8437744466      -50.6119661483       33.6741623143  TIP3      261             0.0000000000
     50616       662  TIP3      OH2           -30.9814826683      -52.3504404786       20.3778243646  TIP3      262             0.0000000000
     50617       662  TIP3      H1            -31.4393049183      -52.8415112793       21.0822487744  TIP3      262             0.0000000000
     50618       662  TIP3      H2            -31.7091853228      -52.0367305643       19.8361479030  TIP3      262             0.0000000000
     50619       663  TIP3      OH2           -37.7486855132      -52.6188009008       27.4330555121  TIP3      263             0.0000000000
     50620       663  TIP3      H1            -37.1056044495      -52.6910717145       28.1674880447  TIP3      263             0.0000000000
     50621       663  TIP3      H2            -37.3013738980      -53.0659425709       26.6956845827  TIP3      263             0.0000000000
     50622       664  TIP3      OH2           -26.3152931572      -48.3381780504       32.8866237935  TIP3      264             0.0000000000
     50623       664  TIP3      H1            -25.9694250474      -49.0051037053       32.2642161667  TIP3      264             0.0000000000
     50624       664  TIP3      H2            -26.7646821140      -48.8837243771       33.5562028922  TIP3      264             0.0000000000
     50625       665  TIP3      OH2           -29.5252964178      -52.4016307487       27.6880454272  TIP3      265             0.0000000000
     50626       665  TIP3      H1            -30.4595031542      -52.3708728047       27.9866282003  TIP3      265             0.0000000000
     50627       665  TIP3      H2            -29.0247465969      -52.5069693767       28.5110265004  TIP3      265             0.0000000000
     50628       666  TIP3      OH2           -34.7069477662      -50.7650449209       26.5010956870  TIP3      266             0.0000000000
     50629       666  TIP3      H1            -35.6221871377      -50.7197347604       26.1833276184  TIP3      266             0.0000000000
     50630       666  TIP3      H2            -34.4050426389      -51.6482105509       26.1935875758  TIP3      266             0.0000000000
     50631       667  TIP3      OH2           -31.0842570188      -50.7845601101       24.1894720220  TIP3      267             0.0000000000
     50632       667  TIP3      H1            -30.1225093186      -50.6800041290       24.3568903988  TIP3      267             0.0000000000
     50633       667  TIP3      H2            -31.2713564221      -50.1138040831       23.5152897632  TIP3      267             0.0000000000
     50634       668  TIP3      OH2           -25.1077900199      -53.1645573994       30.9324255421  TIP3      268             0.0000000000
     50635       668  TIP3      H1            -25.8076939652      -53.0600398818       31.6164118987  TIP3      268             0.0000000000
     50636       668  TIP3      H2            -25.6176821858      -53.3647180882       30.1401592135  TIP3      268             0.0000000000
     50637       669  TIP3      OH2           -32.3860455182      -49.5768145195       21.7668625811  TIP3      269             0.0000000000
     50638       669  TIP3      H1            -32.8939827998      -49.9466946149       21.0439599003  TIP3      269             0.0000000000
     50639       669  TIP3      H2            -31.5399927311      -49.3992041055       21.3127412281  TIP3      269             0.0000000000
     50640       670  TIP3      OH2           -21.9106811004      -37.4706592867       37.2683285855  TIP3      270             0.0000000000
     50641       670  TIP3      H1            -21.6207925797      -37.1106482098       36.4022303978  TIP3      270             0.0000000000
     50642       670  TIP3      H2            -21.1681116440      -37.1826735315       37.8374385278  TIP3      270             0.0000000000
     50643       671  TIP3      OH2           -34.2318762424      -45.0587163801       36.8188493234  TIP3      271             0.0000000000
     50644       671  TIP3      H1            -33.5207675370      -44.7765413675       37.4267444740  TIP3      271             0.0000000000
     50645       671  TIP3      H2            -35.0292004866      -44.8687866742       37.3723378159  TIP3      271             0.0000000000
     50646       672  TIP3      OH2           -28.2288314716      -49.6238233996       29.5799414297  TIP3      272             0.0000000000
     50647       672  TIP3      H1            -27.6462436826      -50.1713209138       29.0381715081  TIP3      272             0.0000000000
     50648       672  TIP3      H2            -28.3689170665      -50.1619535379       30.3699250056  TIP3      272             0.0000000000
     50649       673  TIP3      OH2           -33.2400560111      -53.4696277927       25.9819331761  TIP3      273             0.0000000000
     50650       673  TIP3      H1            -33.5263589963      -54.4009834290       25.9877734909  TIP3      273             0.0000000000
     50651       673  TIP3      H2            -32.4276339290      -53.5169739334       25.4544527862  TIP3      273             0.0000000000
     50652       674  TIP3      OH2           -29.5940931728      -51.2612968468       31.9873260518  TIP3      274             0.0000000000
     50653       674  TIP3      H1            -30.4305139010      -50.7726875727       32.1013348367  TIP3      274             0.0000000000
     50654       674  TIP3      H2            -29.0521554734      -50.9581323384       32.7419073361  TIP3      274             0.0000000000
     50655       675  TIP3      OH2           -21.8637072105      -45.8927848590       32.4880690886  TIP3      275             0.0000000000
     50656       675  TIP3      H1            -21.2589860407      -45.4185175980       31.8935275289  TIP3      275             0.0000000000
     50657       675  TIP3      H2            -22.7122377827      -45.7936336644       32.0062074155  TIP3      275             0.0000000000
     50658       676  TIP3      OH2           -27.5209157185      -44.8311176163       34.9173006108  TIP3      276             0.0000000000
     50659       676  TIP3      H1            -27.8623352052      -45.2297290097       35.7232096291  TIP3      276             0.0000000000
     50660       676  TIP3      H2            -27.7409864272      -43.8993902213       35.0070381334  TIP3      276             0.0000000000
     50661       677  TIP3      OH2           -24.4430158566      -50.3576167147       23.5489804610  TIP3      277             0.0000000000
     50662       677  TIP3      H1            -23.5357340698      -50.4833606831       23.8761039565  TIP3      277             0.0000000000
     50663       677  TIP3      H2            -24.3693321172      -49.5649674177       22.9953243394  TIP3      277             0.0000000000
     50664       678  TIP3      OH2           -33.9310471696      -45.7225093491       29.4597255462  TIP3      278             0.0000000000
     50665       678  TIP3      H1            -33.1824605764      -45.7370967095       28.8315516628  TIP3      278             0.0000000000
     50666       678  TIP3      H2            -33.8262151299      -46.5562444690       29.9386651951  TIP3      278             0.0000000000
     50667       679  TIP3      OH2           -37.0309366211      -47.2503861012       34.8608343494  TIP3      279             0.0000000000
     50668       679  TIP3      H1            -36.7408935646      -47.7079762753       35.6653386225  TIP3      279             0.0000000000
     50669       679  TIP3      H2            -37.5885960842      -47.8798105166       34.3613697984  TIP3      279             0.0000000000
     50670       680  TIP3      OH2           -29.9002856022      -47.7211801088       36.9732332763  TIP3      280             0.0000000000
     50671       680  TIP3      H1            -30.1887281306      -47.9615830719       36.0791501712  TIP3      280             0.0000000000
     50672       680  TIP3      H2            -28.9605711322      -48.0039446626       36.9474053981  TIP3      280             0.0000000000
     50673       681  TIP3      OH2           -25.2432641858      -42.3879947416       34.8604755967  TIP3      281             0.0000000000
     50674       681  TIP3      H1            -26.1654373163      -42.1901780155       34.6276992102  TIP3      281             0.0000000000
     50675       681  TIP3      H2            -25.2470669425      -42.1065657648       35.7979803181  TIP3      281             0.0000000000
     50676       682  TIP3      OH2           -19.5314754018      -50.1537150435       23.2483861660  TIP3      282             0.0000000000
     50677       682  TIP3      H1            -20.0970493712      -50.5422096132       22.5581641981  TIP3      282             0.0000000000
     50678       682  TIP3      H2            -19.4674581660      -49.2340590757       22.9751786545  TIP3      282             0.0000000000
     50679       683  TIP3      OH2           -19.5632087334      -44.3348780383       36.0891070414  TIP3      283             0.0000000000
     50680       683  TIP3      H1            -20.4439943221      -44.1059336004       35.7047622542  TIP3      283             0.0000000000
     50681       683  TIP3      H2            -18.9942208874      -44.3626201404       35.2961009449  TIP3      283             0.0000000000
     50682       684  TIP3      OH2           -21.2373487330      -41.3510291761       23.6983598301  TIP3      284             0.0000000000
     50683       684  TIP3      H1            -21.6224175650      -42.1796657337       24.0036885946  TIP3      284             0.0000000000
     50684       684  TIP3      H2            -20.9783446711      -41.5471609489       22.7820844024  TIP3      284             0.0000000000
     50685       685  TIP3      OH2           -24.0663140680      -46.5398519265       30.7478575714  TIP3      285             0.0000000000
     50686       685  TIP3      H1            -25.0088523327      -46.7753347501       30.6797367157  TIP3      285             0.0000000000
     50687       685  TIP3      H2            -23.6305538001      -47.3245119275       30.3696725506  TIP3      285             0.0000000000
     50688       686  TIP3      OH2           -31.5405809406      -42.2221933720       26.8722706036  TIP3      286             0.0000000000
     50689       686  TIP3      H1            -31.0190079436      -41.4322286996       26.6542716968  TIP3      286             0.0000000000
     50690       686  TIP3      H2            -32.4200237866      -41.9872073360       26.5474315878  TIP3      286             0.0000000000
     50691       687  TIP3      OH2           -35.7720295813      -47.4043686490       21.4963345963  TIP3      287             0.0000000000
     50692       687  TIP3      H1            -35.1631497485      -46.7073756146       21.7877911150  TIP3      287             0.0000000000
     50693       687  TIP3      H2            -36.6469156146      -47.0360244688       21.6872050152  TIP3      287             0.0000000000
     50694       688  TIP3      OH2           -30.1034424613      -44.5570991287       26.4003651160  TIP3      288             0.0000000000
     50695       688  TIP3      H1            -30.3851198451      -43.6277548948       26.4875135063  TIP3      288             0.0000000000
     50696       688  TIP3      H2            -30.8454836245      -45.0198732252       26.8361964027  TIP3      288             0.0000000000
     50697       689  TIP3      OH2           -29.6402631119      -40.3927529364       32.7658603908  TIP3      289             0.0000000000
     50698       689  TIP3      H1            -29.2243968104      -39.5535111972       32.5117449770  TIP3      289             0.0000000000
     50699       689  TIP3      H2            -29.0560347953      -40.7011399302       33.4835869463  TIP3      289             0.0000000000
     50700       690  TIP3      OH2           -31.4195175174      -39.5490606188       25.9594286312  TIP3      290             0.0000000000
     50701       690  TIP3      H1            -32.3914750134      -39.4230475386       26.0394262345  TIP3      290             0.0000000000
     50702       690  TIP3      H2            -31.0819987081      -38.7077816380       26.3124185156  TIP3      290             0.0000000000
     50703       691  TIP3      OH2           -26.0860265885      -44.3289023841       32.4335015787  TIP3      291             0.0000000000
     50704       691  TIP3      H1            -26.4785413840      -44.5451958907       33.3007083942  TIP3      291             0.0000000000
     50705       691  TIP3      H2            -25.4788614844      -45.0632581051       32.2596252679  TIP3      291             0.0000000000
     50706       692  TIP3      OH2           -23.8581719519      -43.3610520851       21.5437502642  TIP3      292             0.0000000000
     50707       692  TIP3      H1            -23.4920187548      -43.7749061065       22.3305015815  TIP3      292             0.0000000000
     50708       692  TIP3      H2            -24.7953182809      -43.4752557195       21.5942142003  TIP3      292             0.0000000000
     50709       693  TIP3      OH2           -23.3727974047      -39.7622074785       34.9325714923  TIP3      293             0.0000000000
     50710       693  TIP3      H1            -24.0030431725      -40.3036337943       34.4150604220  TIP3      293             0.0000000000
     50711       693  TIP3      H2            -23.1251064432      -39.0893254813       34.2645304446  TIP3      293             0.0000000000
     50712       694  TIP3      OH2           -19.3285902620      -38.9180636976       21.7815889941  TIP3      294             0.0000000000
     50713       694  TIP3      H1            -18.6099371054      -38.2889944038       21.5613093863  TIP3      294             0.0000000000
     50714       694  TIP3      H2            -20.0590554598      -38.3173968436       22.0527366164  TIP3      294             0.0000000000
     50715       695  TIP3      OH2           -35.2565049048      -52.5143391185       34.3118968547  TIP3      295             0.0000000000
     50716       695  TIP3      H1            -36.1752635504      -52.1965749149       34.2750369826  TIP3      295             0.0000000000
     50717       695  TIP3      H2            -35.3780970343      -53.3825844847       34.7445721765  TIP3      295             0.0000000000
     50718       696  TIP3      OH2           -23.0050856958      -44.6934327631       23.7435774592  TIP3      296             0.0000000000
     50719       696  TIP3      H1            -23.2521271179      -45.4528340746       24.2982849311  TIP3      296             0.0000000000
     50720       696  TIP3      H2            -22.0592545379      -44.6020540783       23.9490260568  TIP3      296             0.0000000000
     50721       697  TIP3      OH2           -35.6164616344      -40.7125519144       32.7389289681  TIP3      297             0.0000000000
     50722       697  TIP3      H1            -35.3903683203      -41.6610006106       32.7320046574  TIP3      297             0.0000000000
     50723       697  TIP3      H2            -35.3804809434      -40.4557623951       33.6374317429  TIP3      297             0.0000000000
     50724       698  TIP3      OH2           -29.7861172476      -42.2431968739       19.9662215583  TIP3      298             0.0000000000
     50725       698  TIP3      H1            -29.5291966428      -42.9967797180       19.3952363160  TIP3      298             0.0000000000
     50726       698  TIP3      H2            -30.0585300702      -42.6625436554       20.8047662647  TIP3      298             0.0000000000
     50727       699  TIP3      OH2           -30.8382270769      -42.7071397767       22.4290208442  TIP3      299             0.0000000000
     50728       699  TIP3      H1            -30.6862141035      -43.1980549711       23.2390650185  TIP3      299             0.0000000000
     50729       699  TIP3      H2            -30.8353883892      -41.7710271106       22.7367186269  TIP3      299             0.0000000000
     50730       700  TIP3      OH2           -34.3737296530      -45.4612015100       22.9618858303  TIP3      300             0.0000000000
     50731       700  TIP3      H1            -35.0683892600      -45.0488676870       23.4993582633  TIP3      300             0.0000000000
     50732       700  TIP3      H2            -33.8646374203      -44.6739437152       22.6784651326  TIP3      300             0.0000000000
     50733       701  TIP3      OH2           -26.5405377536      -52.7707283459       33.2271457790  TIP3      301             0.0000000000
     50734       701  TIP3      H1            -25.8301827064      -52.7112828652       33.8794918633  TIP3      301             0.0000000000
     50735       701  TIP3      H2            -26.9217931986      -53.6532605810       33.4057269658  TIP3      301             0.0000000000
     50736       702  TIP3      OH2           -25.7534312624      -53.1608000141       24.2978136968  TIP3      302             0.0000000000
     50737       702  TIP3      H1            -25.5401504618      -52.6410077351       23.5180437002  TIP3      302             0.0000000000
     50738       702  TIP3      H2            -25.2010548144      -52.7365484284       24.9703439039  TIP3      302             0.0000000000
     50739       703  TIP3      OH2           -28.0961306903      -41.0075876663       23.1745246125  TIP3      303             0.0000000000
     50740       703  TIP3      H1            -28.9197388971      -40.4975629428       23.2335618490  TIP3      303             0.0000000000
     50741       703  TIP3      H2            -27.5540443586      -40.5354709779       22.5312392313  TIP3      303             0.0000000000
     50742       704  TIP3      OH2           -28.5628227204      -51.4129590841       25.1509124458  TIP3      304             0.0000000000
     50743       704  TIP3      H1            -27.7478301214      -50.8816787327       25.1932971964  TIP3      304             0.0000000000
     50744       704  TIP3      H2            -28.8109279784      -51.5479035976       26.0803640839  TIP3      304             0.0000000000
     50745       705  TIP3      OH2           -28.0141626233      -50.4225853962       34.3360674291  TIP3      305             0.0000000000
     50746       705  TIP3      H1            -27.9138611020      -49.8422595646       35.1147474624  TIP3      305             0.0000000000
     50747       705  TIP3      H2            -27.3529468555      -51.1153864791       34.4496655671  TIP3      305             0.0000000000
     50748       706  TIP3      OH2           -27.6996379215      -54.3282944161       26.0739827661  TIP3      306             0.0000000000
     50749       706  TIP3      H1            -28.0292451603      -53.6992264105       26.7283952350  TIP3      306             0.0000000000
     50750       706  TIP3      H2            -27.0089243786      -53.8044153186       25.6072425501  TIP3      306             0.0000000000
     50751       707  TIP3      OH2           -30.7247196255      -39.9809190159       23.1652755471  TIP3      307             0.0000000000
     50752       707  TIP3      H1            -30.5779232549      -39.1516460568       22.6630479902  TIP3      307             0.0000000000
     50753       707  TIP3      H2            -30.9658584216      -39.6416390948       24.0527400708  TIP3      307             0.0000000000
     50754       708  TIP3      OH2           -32.0400471232      -53.2524473736       22.7693849984  TIP3      308             0.0000000000
     50755       708  TIP3      H1            -32.0751021174      -52.3570749025       23.1366894180  TIP3      308             0.0000000000
     50756       708  TIP3      H2            -31.1232521366      -53.5147907201       23.0119197799  TIP3      308             0.0000000000
     50757       709  TIP3      OH2           -21.8073217895      -52.5198822208       35.1903922699  TIP3      309             0.0000000000
     50758       709  TIP3      H1            -22.7460256975      -52.2345909784       35.0704135030  TIP3      309             0.0000000000
     50759       709  TIP3      H2            -21.4954580112      -52.5272816972       34.2698264531  TIP3      309             0.0000000000
     50760       710  TIP3      OH2           -23.2152437252      -48.7496060853       29.2393806095  TIP3      310             0.0000000000
     50761       710  TIP3      H1            -24.0275976442      -49.1864937020       28.9323355178  TIP3      310             0.0000000000
     50762       710  TIP3      H2            -22.7552571695      -49.4524876819       29.7509590803  TIP3      310             0.0000000000
     50763       711  TIP3      OH2           -33.7711036165      -42.8455917705       21.8373959565  TIP3      311             0.0000000000
     50764       711  TIP3      H1            -33.1556870960      -42.1526025356       22.1010603738  TIP3      311             0.0000000000
     50765       711  TIP3      H2            -33.2952300822      -43.2760674760       21.1025745111  TIP3      311             0.0000000000
     50766       712  TIP3      OH2           -22.1460015938      -39.5110196152       30.8903673003  TIP3      312             0.0000000000
     50767       712  TIP3      H1            -22.2634588129      -38.8175469206       30.2109904876  TIP3      312             0.0000000000
     50768       712  TIP3      H2            -21.1857596254      -39.4330511251       31.0725463304  TIP3      312             0.0000000000
     50769       713  TIP3      OH2           -34.6170884482      -55.3411056640       29.6358905149  TIP3      313             0.0000000000
     50770       713  TIP3      H1            -34.8651459945      -55.3254159671       28.6877673453  TIP3      313             0.0000000000
     50771       713  TIP3      H2            -35.0739710353      -56.1704869277       29.9251683356  TIP3      313             0.0000000000
     50772       714  TIP3      OH2           -35.6961152735      -41.4541935600       25.8019490301  TIP3      314             0.0000000000
     50773       714  TIP3      H1            -36.5410390613      -40.9791285931       25.7987993302  TIP3      314             0.0000000000
     50774       714  TIP3      H2            -35.1814830308      -40.9492879395       25.1572231176  TIP3      314             0.0000000000
     50775       715  TIP3      OH2           -36.4436470877      -38.8225530038       37.1116699991  TIP3      315             0.0000000000
     50776       715  TIP3      H1            -35.8760126189      -39.0372015317       37.8771008617  TIP3      315             0.0000000000
     50777       715  TIP3      H2            -36.9012800599      -39.6571589149       36.9320591116  TIP3      315             0.0000000000
     50778       716  TIP3      OH2           -31.8252766074      -39.9118943647       38.7456297295  TIP3      316             0.0000000000
     50779       716  TIP3      H1            -31.0389859423      -40.3688850917       39.0615833947  TIP3      316             0.0000000000
     50780       716  TIP3      H2            -31.8356680270      -40.1437763578       37.7915599308  TIP3      316             0.0000000000
     50781       717  TIP3      OH2           -25.2776045936      -41.5065532829       37.4559323308  TIP3      317             0.0000000000
     50782       717  TIP3      H1            -25.6022155543      -42.3927528046       37.7160445835  TIP3      317             0.0000000000
     50783       717  TIP3      H2            -24.5168845625      -41.3897585774       38.0563750819  TIP3      317             0.0000000000
     50784       718  TIP3      OH2           -36.5245655884      -45.0281845014       38.0908984273  TIP3      318             0.0000000000
     50785       718  TIP3      H1            -36.3846348643      -45.9364210589       37.7752956844  TIP3      318             0.0000000000
     50786       718  TIP3      H2            -37.2911605414      -44.7403831513       37.5568684890  TIP3      318             0.0000000000
     50787       719  TIP3      OH2           -32.1652497301      -44.6452718142       20.2574494536  TIP3      319             0.0000000000
     50788       719  TIP3      H1            -32.1240047984      -45.4914761907       20.7032008465  TIP3      319             0.0000000000
     50789       719  TIP3      H2            -31.5532683064      -44.7983081433       19.5129500606  TIP3      319             0.0000000000
     50790       720  TIP3      OH2           -29.8865843847      -45.0504494035       37.5299135962  TIP3      320             0.0000000000
     50791       720  TIP3      H1            -30.1811885389      -44.7597849682       36.6320610201  TIP3      320             0.0000000000
     50792       720  TIP3      H2            -29.7222615389      -46.0141307366       37.3868348320  TIP3      320             0.0000000000
     50793       721  TIP3      OH2           -24.1405731806      -45.1657870452       34.8850863833  TIP3      321             0.0000000000
     50794       721  TIP3      H1            -23.3740049056      -44.5583918346       34.7847208628  TIP3      321             0.0000000000
     50795       721  TIP3      H2            -24.8715502187      -44.5345934230       34.9341585143  TIP3      321             0.0000000000
     50796       722  TIP3      OH2           -35.6702688214      -47.8131745111       37.4689976526  TIP3      322             0.0000000000
     50797       722  TIP3      H1            -35.2565536407      -48.6801601808       37.3981630457  TIP3      322             0.0000000000
     50798       722  TIP3      H2            -35.9216339031      -47.8017906720       38.4191684930  TIP3      322             0.0000000000
     50799       723  TIP3      OH2           -31.7652703222      -48.8414638899       34.8458097041  TIP3      323             0.0000000000
     50800       723  TIP3      H1            -32.3367654511      -48.1192340225       35.1446463715  TIP3      323             0.0000000000
     50801       723  TIP3      H2            -31.3635095702      -48.4859214772       34.0326919263  TIP3      323             0.0000000000
     50802       724  TIP3      OH2           -29.9518987965      -48.4504233209       20.7693995291  TIP3      324             0.0000000000
     50803       724  TIP3      H1            -30.1212767943      -48.6036181063       19.8299336669  TIP3      324             0.0000000000
     50804       724  TIP3      H2            -28.9810417164      -48.3875268336       20.8101653487  TIP3      324             0.0000000000
     50805       725  TIP3      OH2           -26.7114404009      -46.3098640290       38.1887112371  TIP3      325             0.0000000000
     50806       725  TIP3      H1            -25.7459649525      -46.2767401985       38.0890851906  TIP3      325             0.0000000000
     50807       725  TIP3      H2            -26.8513760475      -47.0717502679       38.7684636371  TIP3      325             0.0000000000
     50808       726  TIP3      OH2           -31.3816603289      -51.4599192740       35.9299091944  TIP3      326             0.0000000000
     50809       726  TIP3      H1            -31.2352354548      -52.1883733777       35.3068197130  TIP3      326             0.0000000000
     50810       726  TIP3      H2            -31.3834741005      -50.6678692434       35.3661501928  TIP3      326             0.0000000000
     50811       727  TIP3      OH2           -30.9600403177      -53.1088348703       33.4471289922  TIP3      327             0.0000000000
     50812       727  TIP3      H1            -30.4352629461      -52.6289841048       32.7632301577  TIP3      327             0.0000000000
     50813       727  TIP3      H2            -31.8447298887      -53.1854047997       33.0228239539  TIP3      327             0.0000000000
     50814       728  TIP3      OH2           -29.4014030657      -47.6406873859       33.6926061486  TIP3      328             0.0000000000
     50815       728  TIP3      H1            -28.6485946146      -47.7958075447       33.1106465318  TIP3      328             0.0000000000
     50816       728  TIP3      H2            -29.7407962204      -46.7845716730       33.3871239270  TIP3      328             0.0000000000
     50817       729  TIP3      OH2           -24.9982978765      -49.8424771194       38.6908320017  TIP3      329             0.0000000000
     50818       729  TIP3      H1            -24.7853807891      -50.7809130844       38.5914087780  TIP3      329             0.0000000000
     50819       729  TIP3      H2            -24.1253573530      -49.4193602529       38.6848051779  TIP3      329             0.0000000000
     50820       730  TIP3      OH2           -23.6766925439      -47.0565164333       36.8201511318  TIP3      330             0.0000000000
     50821       730  TIP3      H1            -23.9333458223      -46.3338227356       36.2018974090  TIP3      330             0.0000000000
     50822       730  TIP3      H2            -22.7188210654      -47.1052728166       36.6196755882  TIP3      330             0.0000000000
     50823       731  TIP3      OH2           -32.9055324403      -50.2272070011       37.8470976560  TIP3      331             0.0000000000
     50824       731  TIP3      H1            -33.6720834174      -50.8066946618       37.6486811863  TIP3      331             0.0000000000
     50825       731  TIP3      H2            -32.2335924254      -50.5864487485       37.2349705406  TIP3      331             0.0000000000
     50826       732  TIP3      OH2           -30.1635639792      -55.6566051567       33.8722532665  TIP3      332             0.0000000000
     50827       732  TIP3      H1            -30.2912265793      -54.6876952794       33.7583039296  TIP3      332             0.0000000000
     50828       732  TIP3      H2            -30.9251967023      -56.0074224662       33.3770402513  TIP3      332             0.0000000000
     50829       733  TIP3      OH2           -28.8949448416      -51.3186478637       37.4481515978  TIP3      333             0.0000000000
     50830       733  TIP3      H1            -29.1711420430      -51.5439545402       38.3553649904  TIP3      333             0.0000000000
     50831       733  TIP3      H2            -29.6918863535      -51.5247608091       36.9223732549  TIP3      333             0.0000000000
     50832       734  TIP3      OH2           -26.1849331359      -52.1844360996       36.5216326177  TIP3      334             0.0000000000
     50833       734  TIP3      H1            -27.1483498312      -52.1536150449       36.6570195407  TIP3      334             0.0000000000
     50834       734  TIP3      H2            -25.8874112357      -52.8179894206       37.1993447059  TIP3      334             0.0000000000
     50835       735  TIP3      OH2           -24.5785427016      -53.5527003806       38.4850158548  TIP3      335             0.0000000000
     50836       735  TIP3      H1            -24.6555227057      -54.5204737565       38.5063091885  TIP3      335             0.0000000000
     50837       735  TIP3      H2            -24.8721267490      -53.2711301788       39.3845043807  TIP3      335             0.0000000000
     50838       736  TIP3      OH2           -34.7633937026      -52.3046912922       37.5556222053  TIP3      336             0.0000000000
     50839       736  TIP3      H1            -34.5296303325      -53.0441376641       36.9557441609  TIP3      336             0.0000000000
     50840       736  TIP3      H2            -34.8553652712      -52.7634149876       38.4184161990  TIP3      336             0.0000000000
     50841       737  TIP3      OH2           -29.9834081623       56.5256825176       36.5465649527  TIP3      337             0.0000000000
     50842       737  TIP3      H1            -29.2483997646       55.8622789156       36.5309515846  TIP3      337             0.0000000000
     50843       737  TIP3      H2            -30.0429961513       56.7489884582       35.6064872427  TIP3      337             0.0000000000
     50844       738  TIP3      OH2           -29.5840885084      -54.6604047565       38.6174254274  TIP3      338             0.0000000000
     50845       738  TIP3      H1            -29.7421753324      -55.1539806413       37.7820789350  TIP3      338             0.0000000000
     50846       738  TIP3      H2            -30.1924358334      -53.9074384220       38.5458767979  TIP3      338             0.0000000000
     50847       739  TIP3      OH2           -30.0658436081      -37.7877385329       21.7578146138  TIP3      339             0.0000000000
     50848       739  TIP3      H1            -29.1253793451      -37.6104070516       21.9010234713  TIP3      339             0.0000000000
     50849       739  TIP3      H2            -30.3121321964      -37.0944952491       21.1367397614  TIP3      339             0.0000000000
     50850       740  TIP3      OH2           -36.5131102676      -43.1410337844       21.2754814600  TIP3      340             0.0000000000
     50851       740  TIP3      H1            -35.5612752460      -43.0522558945       21.5044716870  TIP3      340             0.0000000000
     50852       740  TIP3      H2            -36.4690634804      -43.8195133641       20.5703633180  TIP3      340             0.0000000000
     50853       741  TIP3      OH2           -37.8051333149      -37.7482979638       26.2913834431  TIP3      341             0.0000000000
     50854       741  TIP3      H1            -38.4917229313      -38.2378752318       25.7939798520  TIP3      341             0.0000000000
     50855       741  TIP3      H2            -37.4850378121      -38.4228875021       26.9236086412  TIP3      341             0.0000000000
     50856       742  TIP3      OH2           -36.9598249365      -39.6535802845       28.1274359801  TIP3      342             0.0000000000
     50857       742  TIP3      H1            -37.3032365803      -40.5398885330       28.3209311910  TIP3      342             0.0000000000
     50858       742  TIP3      H2            -36.7368946323      -39.3203394919       29.0147971841  TIP3      342             0.0000000000
     50859       743  TIP3      OH2           -19.4264614994      -38.8590174861       31.0915926586  TIP3      343             0.0000000000
     50860       743  TIP3      H1            -19.4225342387      -38.6747120412       32.0457741731  TIP3      343             0.0000000000
     50861       743  TIP3      H2            -18.7262232918      -38.2789366016       30.7707661266  TIP3      343             0.0000000000
     50862       744  TIP3      OH2           -19.8332926157      -39.2571674388       34.0316892287  TIP3      344             0.0000000000
     50863       744  TIP3      H1            -20.3286044137      -40.0237601660       33.6601077049  TIP3      344             0.0000000000
     50864       744  TIP3      H2            -19.3286463235      -39.7036512158       34.7265499691  TIP3      344             0.0000000000
     50865       745  TIP3      OH2           -21.3975347659      -43.5274838563       38.6725460537  TIP3      345             0.0000000000
     50866       745  TIP3      H1            -22.2816558409      -43.5806375920       39.0759777770  TIP3      345             0.0000000000
     50867       745  TIP3      H2            -21.0270263416      -42.7307486774       39.1224408141  TIP3      345             0.0000000000
     50868       746  TIP3      OH2           -20.0946998025      -45.2336875432       24.1454933570  TIP3      346             0.0000000000
     50869       746  TIP3      H1            -19.2415884190      -44.8179823511       24.3214838165  TIP3      346             0.0000000000
     50870       746  TIP3      H2            -20.0933088421      -45.9637037415       24.7999528073  TIP3      346             0.0000000000
     50871       747  TIP3      OH2           -19.7128839529      -47.1682091618       25.9847482260  TIP3      347             0.0000000000
     50872       747  TIP3      H1            -20.4538466281      -47.6550243327       26.4085069540  TIP3      347             0.0000000000
     50873       747  TIP3      H2            -19.1256862527      -46.9824617072       26.7524062599  TIP3      347             0.0000000000
     50874       748  TIP3      OH2           -19.9643771734      -44.4218083339       30.9815992844  TIP3      348             0.0000000000
     50875       748  TIP3      H1            -19.1236004201      -44.7886004342       30.6498296182  TIP3      348             0.0000000000
     50876       748  TIP3      H2            -19.8269700991      -43.4616021507       30.8303802378  TIP3      348             0.0000000000
     50877       749  TIP3      OH2           -21.4316103485      -41.5262861348       33.2764908772  TIP3      349             0.0000000000
     50878       749  TIP3      H1            -22.1143692550      -41.1910113234       33.8820227588  TIP3      349             0.0000000000
     50879       749  TIP3      H2            -21.9774366934      -41.9523705045       32.5778324979  TIP3      349             0.0000000000
     50880       750  TIP3      OH2           -21.9078883756      -48.6597045940       26.5649412444  TIP3      350             0.0000000000
     50881       750  TIP3      H1            -22.0695194877      -49.6144612505       26.5566284669  TIP3      350             0.0000000000
     50882       750  TIP3      H2            -22.2626526183      -48.4049654679       27.4356014168  TIP3      350             0.0000000000
     50883       751  TIP3      OH2           -36.8948242010      -46.6162222276       30.6255170589  TIP3      351             0.0000000000
     50884       751  TIP3      H1            -36.7146317129      -46.6452885407       29.6610083828  TIP3      351             0.0000000000
     50885       751  TIP3      H2            -36.0079620776      -46.7019020855       30.9894122137  TIP3      351             0.0000000000
     50886       752  TIP3      OH2           -21.0692517846      -46.6900484242       36.2408858856  TIP3      352             0.0000000000
     50887       752  TIP3      H1            -20.4578730963      -47.4405220879       36.4015768663  TIP3      352             0.0000000000
     50888       752  TIP3      H2            -20.4748538011      -45.9138514249       36.2611009491  TIP3      352             0.0000000000
     50889       753  TIP3      OH2           -19.5560794564      -48.7876872366       36.9173264158  TIP3      353             0.0000000000
     50890       753  TIP3      H1            -20.4322731540      -49.1910470835       36.7387124092  TIP3      353             0.0000000000
     50891       753  TIP3      H2            -18.9668271985      -49.5539097845       36.8286632530  TIP3      353             0.0000000000
     50892       754  TIP3      OH2           -22.2253118260      -51.0711697235       25.0465257637  TIP3      354             0.0000000000
     50893       754  TIP3      H1            -21.9316795435      -52.0017037932       25.1552375518  TIP3      354             0.0000000000
     50894       754  TIP3      H2            -21.4456565289      -50.6635988583       24.6453994589  TIP3      354             0.0000000000
     50895       755  TIP3      OH2           -21.6067146826      -50.5205459187       30.4696262419  TIP3      355             0.0000000000
     50896       755  TIP3      H1            -20.6491768797      -50.2877406656       30.4531527397  TIP3      355             0.0000000000
     50897       755  TIP3      H2            -21.8128496491      -50.3948040504       31.4095357039  TIP3      355             0.0000000000
     50898       756  TIP3      OH2           -21.5491872412      -49.7931542056       33.2540131004  TIP3      356             0.0000000000
     50899       756  TIP3      H1            -22.4177068566      -49.5001207506       33.6033011375  TIP3      356             0.0000000000
     50900       756  TIP3      H2            -21.1135974930      -48.9353844145       33.0370076163  TIP3      356             0.0000000000
     50901       757  TIP3      OH2           -37.2825392384      -51.2760657758       36.7415772018  TIP3      357             0.0000000000
     50902       757  TIP3      H1            -36.3541247657      -51.4771945451       36.9755797737  TIP3      357             0.0000000000
     50903       757  TIP3      H2            -37.7376728496      -52.0792102129       37.0946958272  TIP3      357             0.0000000000
     50904       758  TIP3      OH2           -19.2619525496      -55.7658957796       38.6068001619  TIP3      358             0.0000000000
     50905       758  TIP3      H1            -18.9320836302      -56.4214125212       37.9852080630  TIP3      358             0.0000000000
     50906       758  TIP3      H2            -19.1602190464      -54.9290372973       38.1228207447  TIP3      358             0.0000000000
     50907       759  TIP3      OH2           -21.5807354050      -53.8007141841       25.0816654367  TIP3      359             0.0000000000
     50908       759  TIP3      H1            -21.3988201790      -54.2606451144       25.9234218689  TIP3      359             0.0000000000
     50909       759  TIP3      H2            -22.2071925539      -54.4121303127       24.6247166195  TIP3      359             0.0000000000
     50910       760  TIP3      OH2           -36.0863208523      -52.9956189483       29.6124791247  TIP3      360             0.0000000000
     50911       760  TIP3      H1            -35.6186012613      -53.7974770911       29.9183607791  TIP3      360             0.0000000000
     50912       760  TIP3      H2            -35.5772034376      -52.2904148195       30.0356447915  TIP3      360             0.0000000000
     50913       761  TIP3      OH2           -37.7773752215      -50.0009196815       30.6963931946  TIP3      361             0.0000000000
     50914       761  TIP3      H1            -37.2538458281      -50.2291049723       29.9027804563  TIP3      361             0.0000000000
     50915       761  TIP3      H2            -37.3830055374      -49.1575631980       30.9485168159  TIP3      361             0.0000000000
     50916       762  TIP3      OH2           -19.7483730389      -53.6684375996       36.9569074577  TIP3      362             0.0000000000
     50917       762  TIP3      H1            -20.6897779301      -53.4071751133       36.9087505613  TIP3      362             0.0000000000
     50918       762  TIP3      H2            -19.6791206970      -54.2106206738       36.1543321212  TIP3      362             0.0000000000
     50919       763  TIP3      OH2           -37.4346901900      -53.7502560640       24.7277691584  TIP3      363             0.0000000000
     50920       763  TIP3      H1            -38.3826849304      -53.5407442195       24.6314871268  TIP3      363             0.0000000000
     50921       763  TIP3      H2            -37.0082394896      -53.2628823740       24.0466468568  TIP3      363             0.0000000000
     50922       764  TIP3      OH2           -22.6979908556      -38.7677615197       26.6997326458  TIP3      364             0.0000000000
     50923       764  TIP3      H1            -22.0214776226      -39.0957582113       26.0716190586  TIP3      364             0.0000000000
     50924       764  TIP3      H2            -22.1661221099      -38.2718746189       27.3366740267  TIP3      364             0.0000000000
     50925       765  TIP3      OH2           -37.4684997096      -55.0158531067       33.0785219779  TIP3      365             0.0000000000
     50926       765  TIP3      H1            -38.1454726979      -55.2516586767       33.7325541764  TIP3      365             0.0000000000
     50927       765  TIP3      H2            -37.9349256603      -54.3833475648       32.4970090417  TIP3      365             0.0000000000
     50928       766  TIP3      OH2           -35.2717999124      -41.8427488794       37.2246740997  TIP3      366             0.0000000000
     50929       766  TIP3      H1            -36.1123105886      -41.6624245800       36.7721992443  TIP3      366             0.0000000000
     50930       766  TIP3      H2            -35.5462932926      -41.9070710428       38.1472951283  TIP3      366             0.0000000000
     50931       767  TIP3      OH2           -32.3421916824      -40.8641839280       33.4975406748  TIP3      367             0.0000000000
     50932       767  TIP3      H1            -32.7291034612      -40.0276486557       33.2052026753  TIP3      367             0.0000000000
     50933       767  TIP3      H2            -31.4234631130      -40.7656967893       33.1785066250  TIP3      367             0.0000000000
     50934       768  TIP3      OH2           -28.0359696075      -39.4394553797       36.4262321223  TIP3      368             0.0000000000
     50935       768  TIP3      H1            -27.8598259788      -39.8045537381       37.3288547997  TIP3      368             0.0000000000
     50936       768  TIP3      H2            -27.1526198829      -39.1637345323       36.1298117822  TIP3      368             0.0000000000
     50937       769  TIP3      OH2           -25.7160060379      -38.1478007315       35.6795016281  TIP3      369             0.0000000000
     50938       769  TIP3      H1            -25.0134206226      -38.7946996649       35.4508973592  TIP3      369             0.0000000000
     50939       769  TIP3      H2            -25.3425750310      -37.8113831728       36.4946883345  TIP3      369             0.0000000000
     50940       770  TIP3      OH2           -20.7573221943      -55.5528557993       34.8047349182  TIP3      370             0.0000000000
     50941       770  TIP3      H1            -21.5720248256      -55.2417031382       34.3871649023  TIP3      370             0.0000000000
     50942       770  TIP3      H2            -20.5377905103      -56.3420741118       34.2531570011  TIP3      370             0.0000000000
     50943       771  TIP3      OH2           -34.9228780397      -37.6155503525       33.5146691615  TIP3      371             0.0000000000
     50944       771  TIP3      H1            -35.6587738556      -37.1452105144       33.0879563871  TIP3      371             0.0000000000
     50945       771  TIP3      H2            -35.2788199680      -37.8398222631       34.3869871956  TIP3      371             0.0000000000
     50946       772  TIP3      OH2           -32.4515193071      -38.0289121729       32.5673206657  TIP3      372             0.0000000000
     50947       772  TIP3      H1            -33.3470952334      -37.9168756125       32.9655421399  TIP3      372             0.0000000000
     50948       772  TIP3      H2            -32.5246010118      -37.4512528850       31.7812711351  TIP3      372             0.0000000000
     50949       773  TIP3      OH2           -27.7541724888      -38.1280020071       31.7353941198  TIP3      373             0.0000000000
     50950       773  TIP3      H1            -28.2171133038      -37.5805678728       31.0821303300  TIP3      373             0.0000000000
     50951       773  TIP3      H2            -27.6027228076      -37.4983747264       32.4700681518  TIP3      373             0.0000000000
     50952       774  TIP3      OH2           -25.4353563967      -39.2789804064       32.7102322841  TIP3      374             0.0000000000
     50953       774  TIP3      H1            -26.3286753619      -39.0555964255       32.4057108431  TIP3      374             0.0000000000
     50954       774  TIP3      H2            -24.9964646696      -38.4154520261       32.6250902381  TIP3      374             0.0000000000
     50955       775  TIP3      OH2           -22.8539429077      -37.7077280519       33.0010535195  TIP3      375             0.0000000000
     50956       775  TIP3      H1            -22.9794019918      -36.7574357358       32.7528013106  TIP3      375             0.0000000000
     50957       775  TIP3      H2            -22.6590147035      -38.0878363486       32.1214741310  TIP3      375             0.0000000000
     50958       776  TIP3      OH2           -35.5085191674      -38.9699535201       30.4332962754  TIP3      376             0.0000000000
     50959       776  TIP3      H1            -35.5420872347      -39.4130331464       31.3073557994  TIP3      376             0.0000000000
     50960       776  TIP3      H2            -34.6861326536      -39.3205234885       30.0351191775  TIP3      376             0.0000000000
     50961       777  TIP3      OH2           -33.3951978345      -40.2586327682       29.0857170641  TIP3      377             0.0000000000
     50962       777  TIP3      H1            -33.5814989916      -41.1938458046       29.2886444029  TIP3      377             0.0000000000
     50963       777  TIP3      H2            -32.5427376794      -40.1263205300       29.5585140301  TIP3      377             0.0000000000
     50964       778  TIP3      OH2           -30.8229735332      -39.7810674797       29.9495572238  TIP3      378             0.0000000000
     50965       778  TIP3      H1            -30.6265424780      -40.6950821369       29.6767729886  TIP3      378             0.0000000000
     50966       778  TIP3      H2            -30.7617978975      -39.8426683988       30.9118803644  TIP3      378             0.0000000000
     50967       779  TIP3      OH2           -27.3443285856      -54.1208554611       29.0916582873  TIP3      379             0.0000000000
     50968       779  TIP3      H1            -28.0079739161      -54.7812099872       29.3485767895  TIP3      379             0.0000000000
     50969       779  TIP3      H2            -26.7705059885      -54.6337304721       28.5049109253  TIP3      379             0.0000000000
     50970       780  TIP3      OH2           -22.2025565590      -56.0506921855       29.1844771399  TIP3      380             0.0000000000
     50971       780  TIP3      H1            -21.5807035119      -55.4754869325       28.6814318704  TIP3      380             0.0000000000
     50972       780  TIP3      H2            -23.0830362131      -55.7073870864       28.9534635176  TIP3      380             0.0000000000
     50973       781  TIP3      OH2           -20.4807398246      -54.8696861897       27.4844939746  TIP3      381             0.0000000000
     50974       781  TIP3      H1            -19.8388223269      -55.4132716509       27.0081722311  TIP3      381             0.0000000000
     50975       781  TIP3      H2            -20.0488100680      -53.9917666410       27.5641427178  TIP3      381             0.0000000000
     50976       782  TIP3      OH2           -35.0070971441      -55.4494914656       26.9222383908  TIP3      382             0.0000000000
     50977       782  TIP3      H1            -35.7849135971      -55.7300267657       26.4204908144  TIP3      382             0.0000000000
     50978       782  TIP3      H2            -34.4925223232      -56.2941580342       26.9048108835  TIP3      382             0.0000000000
     50979       783  TIP3      OH2           -36.1413513860      -55.6942158255       22.7271480186  TIP3      383             0.0000000000
     50980       783  TIP3      H1            -35.7194625594      -55.1039487508       22.1048677879  TIP3      383             0.0000000000
     50981       783  TIP3      H2            -36.8112947151      -55.1813403857       23.2025631268  TIP3      383             0.0000000000
     50982       784  TIP3      OH2           -30.4670384970      -55.5776705087       26.7415168623  TIP3      384             0.0000000000
     50983       784  TIP3      H1            -29.5658844226      -55.2058216110       26.6867054978  TIP3      384             0.0000000000
     50984       784  TIP3      H2            -30.5494997791      -55.7901584726       27.6700118238  TIP3      384             0.0000000000
     50985       785  TIP3      OH2           -24.8097323029      -55.5105748715       28.3657558758  TIP3      385             0.0000000000
     50986       785  TIP3      H1            -24.7963853373      -55.4502571073       27.4100463466  TIP3      385             0.0000000000
     50987       785  TIP3      H2            -25.1492160614      -56.4334033873       28.4983884027  TIP3      385             0.0000000000
     50988       786  TIP3      OH2           -23.4823683257      -55.4926336806       24.0582091562  TIP3      386             0.0000000000
     50989       786  TIP3      H1            -24.2248148165      -54.9091235243       23.8701387204  TIP3      386             0.0000000000
     50990       786  TIP3      H2            -23.9549493001      -56.3484468949       24.2127488117  TIP3      386             0.0000000000
     50991       787  TIP3      OH2           -36.2699551199      -39.7806865310       23.6417325101  TIP3      387             0.0000000000
     50992       787  TIP3      H1            -36.9483977151      -39.7837444586       22.9409997169  TIP3      387             0.0000000000
     50993       787  TIP3      H2            -36.2592367059      -38.8441720634       23.8796620310  TIP3      387             0.0000000000
     50994       788  TIP3      OH2           -29.3138405403      -53.5278086536       23.5937667687  TIP3      388             0.0000000000
     50995       788  TIP3      H1            -29.1007082203      -54.1333891008       24.3159305892  TIP3      388             0.0000000000
     50996       788  TIP3      H2            -29.3107455064      -52.6604012095       24.0731710752  TIP3      388             0.0000000000
     50997       789  TIP3      OH2           -20.7050080652      -38.9696866081       24.7231784781  TIP3      389             0.0000000000
     50998       789  TIP3      H1            -20.8938936109      -39.7437217770       24.1324411688  TIP3      389             0.0000000000
     50999       789  TIP3      H2            -20.7540239308      -38.2292125832       24.0843828355  TIP3      389             0.0000000000
     51000       790  TIP3      OH2           -35.0632563228      -54.9454505078       36.4118151723  TIP3      390             0.0000000000
     51001       790  TIP3      H1            -35.4291905963      -55.7511796148       36.8417697891  TIP3      390             0.0000000000
     51002       790  TIP3      H2            -34.1366294440      -54.9803614979       36.7419379389  TIP3      390             0.0000000000
     51003       791  TIP3      OH2           -33.0626927499      -55.5940436125       38.0004635543  TIP3      391             0.0000000000
     51004       791  TIP3      H1            -32.1661246893      -55.9143818274       37.7879889969  TIP3      391             0.0000000000
     51005       791  TIP3      H2            -33.4483106075      -56.3863231158       38.4321575555  TIP3      391             0.0000000000
     51006       792  TIP3      OH2           -24.6576832359       56.5358100119       38.1464962465  TIP3      392             0.0000000000
     51007       792  TIP3      H1            -24.5818519680       56.0910630558       39.0158453203  TIP3      392             0.0000000000
     51008       792  TIP3      H2            -23.7516502064       56.5431700673       37.8246329538  TIP3      392             0.0000000000
     51009       793  TIP3      OH2           -21.4646156749      -40.2472974694       36.8514598279  TIP3      393             0.0000000000
     51010       793  TIP3      H1            -22.2673284769      -40.4027503354       36.3083357614  TIP3      393             0.0000000000
     51011       793  TIP3      H2            -21.5603821658      -39.2963348425       37.0477600883  TIP3      393             0.0000000000
     51012       794  TIP3      OH2            -7.0501675204      -46.3643220677       26.8535871824  TIP3      394             0.0000000000
     51013       794  TIP3      H1             -7.0020182759      -45.3892995898       26.7488269652  TIP3      394             0.0000000000
     51014       794  TIP3      H2             -7.7253265588      -46.6077065791       26.2016614293  TIP3      394             0.0000000000
     51015       795  TIP3      OH2            -8.1529622783      -47.0897719622       30.3061620237  TIP3      395             0.0000000000
     51016       795  TIP3      H1             -8.1800565719      -47.7483429266       31.0074372299  TIP3      395             0.0000000000
     51017       795  TIP3      H2             -8.4776226600      -47.5793030860       29.5318008618  TIP3      395             0.0000000000
     51018       796  TIP3      OH2           -15.7941056185      -47.4549322903       31.8656293371  TIP3      396             0.0000000000
     51019       796  TIP3      H1            -15.7228916756      -48.1114514270       32.5918586877  TIP3      396             0.0000000000
     51020       796  TIP3      H2            -15.0628064520      -46.8570420511       32.0752619184  TIP3      396             0.0000000000
     51021       797  TIP3      OH2            -4.4466213595      -44.1563602384       28.5820814193  TIP3      397             0.0000000000
     51022       797  TIP3      H1             -4.8826447027      -44.8707617348       29.0589318383  TIP3      397             0.0000000000
     51023       797  TIP3      H2             -4.4507945021      -43.4374957536       29.2428648313  TIP3      397             0.0000000000
     51024       798  TIP3      OH2           -14.8673153817      -43.0016645980       30.4032085252  TIP3      398             0.0000000000
     51025       798  TIP3      H1            -15.2063249238      -43.8432519208       30.0445749984  TIP3      398             0.0000000000
     51026       798  TIP3      H2            -13.9121318323      -43.1920250394       30.4437814685  TIP3      398             0.0000000000
     51027       799  TIP3      OH2           -18.2239274461      -49.3942940123       25.8084532602  TIP3      399             0.0000000000
     51028       799  TIP3      H1            -18.6820241279      -48.5257963457       25.8039993486  TIP3      399             0.0000000000
     51029       799  TIP3      H2            -18.8121220470      -49.9528115231       25.2944382206  TIP3      399             0.0000000000
     51030       800  TIP3      OH2           -17.5399482167      -47.1990371646       27.9532396316  TIP3      400             0.0000000000
     51031       800  TIP3      H1            -17.2919571614      -47.9964473841       28.4548417233  TIP3      400             0.0000000000
     51032       800  TIP3      H2            -16.7998740962      -47.1087386014       27.3332895224  TIP3      400             0.0000000000
     51033       801  TIP3      OH2            -7.3437381469      -39.0160534044       28.8140417207  TIP3      401             0.0000000000
     51034       801  TIP3      H1             -6.7009440671      -39.7197276512       28.5367775105  TIP3      401             0.0000000000
     51035       801  TIP3      H2             -7.5394993128      -39.2944597810       29.7080139726  TIP3      401             0.0000000000
     51036       802  TIP3      OH2            -9.7795935529      -44.6697910933       30.7304220259  TIP3      402             0.0000000000
     51037       802  TIP3      H1             -9.4429866346      -45.3384576506       30.1094680960  TIP3      402             0.0000000000
     51038       802  TIP3      H2             -9.0047342953      -44.5439662514       31.3050588043  TIP3      402             0.0000000000
     51039       803  TIP3      OH2            -1.1235936575      -53.0713873339       31.5311204425  TIP3      403             0.0000000000
     51040       803  TIP3      H1             -1.0210015117      -52.4471128340       32.2865728930  TIP3      403             0.0000000000
     51041       803  TIP3      H2             -0.6435516861      -52.5974879233       30.8375369223  TIP3      403             0.0000000000
     51042       804  TIP3      OH2            -6.6146852915      -50.2405203729       31.0627376695  TIP3      404             0.0000000000
     51043       804  TIP3      H1             -6.4624397283      -51.2058868072       31.0554453240  TIP3      404             0.0000000000
     51044       804  TIP3      H2             -6.7190761373      -50.0778465564       30.1022355279  TIP3      404             0.0000000000
     51045       805  TIP3      OH2           -13.4743501616      -52.1585483642       28.3090552605  TIP3      405             0.0000000000
     51046       805  TIP3      H1            -13.4072598390      -51.3025063944       27.8525946765  TIP3      405             0.0000000000
     51047       805  TIP3      H2            -13.9094732627      -52.7242694605       27.6344421939  TIP3      405             0.0000000000
     51048       806  TIP3      OH2            -5.7514835290      -52.0317083994       26.6965667929  TIP3      406             0.0000000000
     51049       806  TIP3      H1             -5.0859721723      -52.3708698218       27.3394801220  TIP3      406             0.0000000000
     51050       806  TIP3      H2             -5.2111383267      -51.4995199820       26.0948301892  TIP3      406             0.0000000000
     51051       807  TIP3      OH2           -16.8630261905      -49.7461308374       29.0541768424  TIP3      407             0.0000000000
     51052       807  TIP3      H1            -16.1875429048      -50.3089810148       29.4902634947  TIP3      407             0.0000000000
     51053       807  TIP3      H2            -16.7938040596      -50.0480913058       28.1358341523  TIP3      407             0.0000000000
     51054       808  TIP3      OH2           -11.6950291864      -48.1920917016       28.3163817271  TIP3      408             0.0000000000
     51055       808  TIP3      H1            -11.0557343092      -48.7606164787       28.7756836923  TIP3      408             0.0000000000
     51056       808  TIP3      H2            -12.2540801181      -48.8577899118       27.8639505286  TIP3      408             0.0000000000
     51057       809  TIP3      OH2            -0.6987927748      -51.6050761251       33.7778027032  TIP3      409             0.0000000000
     51058       809  TIP3      H1             -1.3798469771      -50.9060485466       33.6926378522  TIP3      409             0.0000000000
     51059       809  TIP3      H2             -0.6935023547      -51.7657871881       34.7312264971  TIP3      409             0.0000000000
     51060       810  TIP3      OH2           -14.6175972447      -53.2639711390       32.3583513065  TIP3      410             0.0000000000
     51061       810  TIP3      H1            -14.8740022978      -52.6974716718       31.6027352563  TIP3      410             0.0000000000
     51062       810  TIP3      H2            -15.3047250121      -53.0070454006       33.0269841411  TIP3      410             0.0000000000
     51063       811  TIP3      OH2            -7.2843020030      -43.7632832140       25.9082629021  TIP3      411             0.0000000000
     51064       811  TIP3      H1             -7.5837280442      -44.0572536378       25.0416275420  TIP3      411             0.0000000000
     51065       811  TIP3      H2             -7.6024739788      -42.8362376912       25.9566517804  TIP3      411             0.0000000000
     51066       812  TIP3      OH2           -12.0739347776      -45.5975286310       32.6303260969  TIP3      412             0.0000000000
     51067       812  TIP3      H1            -12.8061732598      -44.9610127197       32.7812104286  TIP3      412             0.0000000000
     51068       812  TIP3      H2            -11.3687744729      -45.0068314248       32.3269061223  TIP3      412             0.0000000000
     51069       813  TIP3      OH2            -3.9588582791      -52.7300601824       28.6595748001  TIP3      413             0.0000000000
     51070       813  TIP3      H1             -4.1870013134      -53.4914230350       29.2105018416  TIP3      413             0.0000000000
     51071       813  TIP3      H2             -3.3023858071      -52.2720193547       29.2078387066  TIP3      413             0.0000000000
     51072       814  TIP3      OH2           -15.0624475058      -51.3610485484       30.3392105184  TIP3      414             0.0000000000
     51073       814  TIP3      H1            -14.4147027962      -50.7090339747       30.6929078879  TIP3      414             0.0000000000
     51074       814  TIP3      H2            -14.5228894257      -51.8229970368       29.6532057318  TIP3      414             0.0000000000
     51075       815  TIP3      OH2           -13.6456256147      -43.6198943398       33.4255598459  TIP3      415             0.0000000000
     51076       815  TIP3      H1            -13.6787693921      -42.7158547334       33.0626648267  TIP3      415             0.0000000000
     51077       815  TIP3      H2            -14.5310044516      -43.6839405289       33.8671056364  TIP3      415             0.0000000000
     51078       816  TIP3      OH2           -17.5390128481      -43.9685361622       24.2056674156  TIP3      416             0.0000000000
     51079       816  TIP3      H1            -17.8342915253      -43.6786507881       23.3309122623  TIP3      416             0.0000000000
     51080       816  TIP3      H2            -17.5009142280      -43.1149649256       24.6957198946  TIP3      416             0.0000000000
     51081       817  TIP3      OH2            -3.9263578392      -42.3290415822       30.9500632886  TIP3      417             0.0000000000
     51082       817  TIP3      H1             -4.8915278986      -42.2340758130       31.0917624300  TIP3      417             0.0000000000
     51083       817  TIP3      H2             -3.6573400389      -41.4054004189       30.7866443798  TIP3      417             0.0000000000
     51084       818  TIP3      OH2            -3.6074445343      -54.0403550685       32.3736982113  TIP3      418             0.0000000000
     51085       818  TIP3      H1             -4.3495310638      -53.4237088159       32.2977188535  TIP3      418             0.0000000000
     51086       818  TIP3      H2             -2.9239658476      -53.6226629329       31.8291842939  TIP3      418             0.0000000000
     51087       819  TIP3      OH2           -10.6102513050      -55.9142651219       29.8048514436  TIP3      419             0.0000000000
     51088       819  TIP3      H1            -10.7448237296      -56.8856586414       29.7552233052  TIP3      419             0.0000000000
     51089       819  TIP3      H2            -11.4902994283      -55.6172206421       30.0983674853  TIP3      419             0.0000000000
     51090       820  TIP3      OH2            -5.6869543644      -40.5410353101       27.5661935009  TIP3      420             0.0000000000
     51091       820  TIP3      H1             -5.2406230719      -41.2494894806       27.0621093575  TIP3      420             0.0000000000
     51092       820  TIP3      H2             -5.3190854598      -39.7373652883       27.1433517222  TIP3      420             0.0000000000
     51093       821  TIP3      OH2            -4.4903168340      -42.6105498825       26.0612451649  TIP3      421             0.0000000000
     51094       821  TIP3      H1             -4.7720356700      -43.3255395528       25.4714652373  TIP3      421             0.0000000000
     51095       821  TIP3      H2             -4.4401491772      -43.0859097370       26.9144897043  TIP3      421             0.0000000000
     51096       822  TIP3      OH2            -2.8454910595      -44.0466235682       34.5626573048  TIP3      422             0.0000000000
     51097       822  TIP3      H1             -2.6929105487      -44.6644460804       33.8149059564  TIP3      422             0.0000000000
     51098       822  TIP3      H2             -2.6581562297      -43.1795407442       34.1654876010  TIP3      422             0.0000000000
     51099       823  TIP3      OH2            -8.3551473323      -47.1088055327       24.3341623203  TIP3      423             0.0000000000
     51100       823  TIP3      H1             -9.0711657221      -46.5693263628       23.9647114684  TIP3      423             0.0000000000
     51101       823  TIP3      H2             -7.6560060343      -47.0406100008       23.6576497185  TIP3      423             0.0000000000
     51102       824  TIP3      OH2            -8.3077540306      -48.6276355574       21.3544198635  TIP3      424             0.0000000000
     51103       824  TIP3      H1             -7.5855640228      -48.6227751856       22.0107569740  TIP3      424             0.0000000000
     51104       824  TIP3      H2             -7.9964786743      -49.2818188628       20.7201801810  TIP3      424             0.0000000000
     51105       825  TIP3      OH2            -0.9745486420      -47.7251412260       32.6196867297  TIP3      425             0.0000000000
     51106       825  TIP3      H1             -1.6379285777      -47.0088047889       32.6808420964  TIP3      425             0.0000000000
     51107       825  TIP3      H2             -0.5043649854      -47.4935830451       31.7980491675  TIP3      425             0.0000000000
     51108       826  TIP3      OH2            -4.9235312926      -46.8858924101       25.2529136596  TIP3      426             0.0000000000
     51109       826  TIP3      H1             -5.6766347540      -46.6666517733       25.8545897124  TIP3      426             0.0000000000
     51110       826  TIP3      H2             -4.4781985477      -47.6011600353       25.7432230759  TIP3      426             0.0000000000
     51111       827  TIP3      OH2            -5.0075862337      -48.7430019607       34.3525294586  TIP3      427             0.0000000000
     51112       827  TIP3      H1             -4.9781241556      -47.9405163759       34.9027142008  TIP3      427             0.0000000000
     51113       827  TIP3      H2             -5.6410174152      -48.4394797863       33.6636454139  TIP3      427             0.0000000000
     51114       828  TIP3      OH2           -13.3061004590      -46.2481239419       27.1702593477  TIP3      428             0.0000000000
     51115       828  TIP3      H1            -13.6296858517      -46.6435533781       26.3260451639  TIP3      428             0.0000000000
     51116       828  TIP3      H2            -12.6954570271      -46.9444348161       27.4996952014  TIP3      428             0.0000000000
     51117       829  TIP3      OH2           -11.9616708398      -42.8377449717       29.8423430876  TIP3      429             0.0000000000
     51118       829  TIP3      H1            -12.0109073629      -43.4075796677       29.0632392820  TIP3      429             0.0000000000
     51119       829  TIP3      H2            -11.1972759802      -43.2170194919       30.3147046055  TIP3      429             0.0000000000
     51120       830  TIP3      OH2           -12.9545024165      -47.5052808949       30.8028722449  TIP3      430             0.0000000000
     51121       830  TIP3      H1            -12.3825477244      -47.3814288489       30.0216840077  TIP3      430             0.0000000000
     51122       830  TIP3      H2            -12.6020768604      -46.8459585008       31.4333419431  TIP3      430             0.0000000000
     51123       831  TIP3      OH2            -6.5979775963      -41.9552629021       31.5131660356  TIP3      431             0.0000000000
     51124       831  TIP3      H1             -6.8603340671      -41.3211320626       32.1817670369  TIP3      431             0.0000000000
     51125       831  TIP3      H2             -6.8223481475      -42.8149952310       31.9538071429  TIP3      431             0.0000000000
     51126       832  TIP3      OH2           -12.0299907822      -43.0930510211       35.5141956835  TIP3      432             0.0000000000
     51127       832  TIP3      H1            -12.3875082868      -42.3182276104       35.9842789324  TIP3      432             0.0000000000
     51128       832  TIP3      H2            -12.7084755542      -43.2603931879       34.8150648169  TIP3      432             0.0000000000
     51129       833  TIP3      OH2            -6.0766094626      -47.7301292066       22.9406111020  TIP3      433             0.0000000000
     51130       833  TIP3      H1             -5.4931741542      -47.5657154629       23.7223317788  TIP3      433             0.0000000000
     51131       833  TIP3      H2             -5.6436208852      -47.2454938165       22.2288089610  TIP3      433             0.0000000000
     51132       834  TIP3      OH2           -15.1036297381      -46.9141539427       34.7078047393  TIP3      434             0.0000000000
     51133       834  TIP3      H1            -15.0597124085      -46.2444792532       35.4213355548  TIP3      434             0.0000000000
     51134       834  TIP3      H2            -16.0254857016      -46.8029927195       34.4297681592  TIP3      434             0.0000000000
     51135       835  TIP3      OH2            -8.3382151594      -40.9920769191       26.3805599631  TIP3      435             0.0000000000
     51136       835  TIP3      H1             -7.8807591767      -40.6908047596       27.1756457690  TIP3      435             0.0000000000
     51137       835  TIP3      H2             -8.9084838417      -40.2473680606       26.1642606776  TIP3      435             0.0000000000
     51138       836  TIP3      OH2           -13.8041566052      -40.9873580900       36.2651357460  TIP3      436             0.0000000000
     51139       836  TIP3      H1            -13.8159344449      -41.1744008612       35.3118215352  TIP3      436             0.0000000000
     51140       836  TIP3      H2            -14.7297057847      -41.1708093231       36.5292383518  TIP3      436             0.0000000000
     51141       837  TIP3      OH2            -2.3500902092      -55.9683012505       22.7643292261  TIP3      437             0.0000000000
     51142       837  TIP3      H1             -3.2847465789      -55.8297944554       23.0613320187  TIP3      437             0.0000000000
     51143       837  TIP3      H2             -2.1455118153      -55.1220697057       22.3655597992  TIP3      437             0.0000000000
     51144       838  TIP3      OH2           -14.3144180286      -47.2012607729       24.7605022828  TIP3      438             0.0000000000
     51145       838  TIP3      H1            -14.6066857008      -46.4279262350       24.2433651496  TIP3      438             0.0000000000
     51146       838  TIP3      H2            -14.9778529072      -47.8658864113       24.5696490344  TIP3      438             0.0000000000
     51147       839  TIP3      OH2           -18.2255121028      -44.8089987860       33.6124829216  TIP3      439             0.0000000000
     51148       839  TIP3      H1            -18.7080057848      -44.8751031176       32.7681383023  TIP3      439             0.0000000000
     51149       839  TIP3      H2            -18.1980214755      -45.7486188979       33.8709230921  TIP3      439             0.0000000000
     51150       840  TIP3      OH2           -18.4748959161      -42.0642838012       30.4492689199  TIP3      440             0.0000000000
     51151       840  TIP3      H1            -17.5186641884      -42.1877004528       30.4294935912  TIP3      440             0.0000000000
     51152       840  TIP3      H2            -18.5706959972      -41.2581954512       30.9742585354  TIP3      440             0.0000000000
     51153       841  TIP3      OH2            -0.2485023171      -41.3703112139       36.1175407149  TIP3      441             0.0000000000
     51154       841  TIP3      H1             -0.3406968931      -42.3334538737       36.1054775161  TIP3      441             0.0000000000
     51155       841  TIP3      H2             -1.1077399961      -41.1218285728       36.5384437522  TIP3      441             0.0000000000
     51156       842  TIP3      OH2            -9.2833073061      -41.8192084906       34.9954591791  TIP3      442             0.0000000000
     51157       842  TIP3      H1             -9.2115891696      -40.9761307484       35.5010728266  TIP3      442             0.0000000000
     51158       842  TIP3      H2            -10.1604508771      -42.1565058568       35.2556638041  TIP3      442             0.0000000000
     51159       843  TIP3      OH2            -8.8564266600      -38.0594275382       24.8069494473  TIP3      443             0.0000000000
     51160       843  TIP3      H1             -8.9588571513      -38.1509484871       23.8632118882  TIP3      443             0.0000000000
     51161       843  TIP3      H2             -8.8387845374      -37.0934025620       24.9489210253  TIP3      443             0.0000000000
     51162       844  TIP3      OH2           -15.2129228951      -39.2148508108       26.6059663028  TIP3      444             0.0000000000
     51163       844  TIP3      H1            -15.0688881502      -39.6145440386       27.4918713504  TIP3      444             0.0000000000
     51164       844  TIP3      H2            -16.0639231058      -39.6107177208       26.3577886906  TIP3      444             0.0000000000
     51165       845  TIP3      OH2            -6.1004858691      -38.9296066458       24.5795449525  TIP3      445             0.0000000000
     51166       845  TIP3      H1             -7.0507041103      -38.8641803416       24.7571235439  TIP3      445             0.0000000000
     51167       845  TIP3      H2             -5.8295980271      -39.6726104663       25.1380234400  TIP3      445             0.0000000000
     51168       846  TIP3      OH2            -3.1097857505      -49.8885006059       36.6092892998  TIP3      446             0.0000000000
     51169       846  TIP3      H1             -3.5452997999      -49.4205680185       35.8823715982  TIP3      446             0.0000000000
     51170       846  TIP3      H2             -3.0895803391      -50.8057767257       36.2955494313  TIP3      446             0.0000000000
     51171       847  TIP3      OH2           -15.9645111312      -43.4894112601       34.6044601716  TIP3      447             0.0000000000
     51172       847  TIP3      H1            -15.7433078463      -43.8650061057       35.4812142331  TIP3      447             0.0000000000
     51173       847  TIP3      H2            -16.8320884371      -43.8872734346       34.3930320242  TIP3      447             0.0000000000
     51174       848  TIP3      OH2           -13.3033021002      -55.0114185439       30.5549035785  TIP3      448             0.0000000000
     51175       848  TIP3      H1            -14.2105709890      -55.1202396539       30.1827103464  TIP3      448             0.0000000000
     51176       848  TIP3      H2            -13.3869214078      -54.1725117193       31.0342107981  TIP3      448             0.0000000000
     51177       849  TIP3      OH2            -8.6620970546      -55.3085811675       33.9612715390  TIP3      449             0.0000000000
     51178       849  TIP3      H1             -8.2512602440      -55.7425626727       34.7310525372  TIP3      449             0.0000000000
     51179       849  TIP3      H2             -9.6261775291      -55.4841176484       34.0910305640  TIP3      449             0.0000000000
     51180       850  TIP3      OH2            -5.3513924822      -51.5512237930       34.8191709491  TIP3      450             0.0000000000
     51181       850  TIP3      H1             -5.8946359622      -51.6991956166       35.6287035225  TIP3      450             0.0000000000
     51182       850  TIP3      H2             -5.5171964054      -50.6246347416       34.5820675178  TIP3      450             0.0000000000
     51183       851  TIP3      OH2           -13.2176251241      -50.0732087261       31.7443698920  TIP3      451             0.0000000000
     51184       851  TIP3      H1            -13.9144913941      -50.0873189666       32.4266580286  TIP3      451             0.0000000000
     51185       851  TIP3      H2            -13.2239269751      -49.1344445771       31.4489408043  TIP3      451             0.0000000000
     51186       852  TIP3      OH2           -13.2390322643      -49.8716545526       26.6440129217  TIP3      452             0.0000000000
     51187       852  TIP3      H1            -14.1604122233      -50.1885878313       26.5381554598  TIP3      452             0.0000000000
     51188       852  TIP3      H2            -12.8236382147      -50.2283191690       25.8349634899  TIP3      452             0.0000000000
     51189       853  TIP3      OH2            -7.7175672781      -49.4375215641       25.4366409263  TIP3      453             0.0000000000
     51190       853  TIP3      H1             -8.1218460126      -48.6019176800       25.1180446514  TIP3      453             0.0000000000
     51191       853  TIP3      H2             -7.0041192073      -49.5778451485       24.7967389534  TIP3      453             0.0000000000
     51192       854  TIP3      OH2            -8.6254877247      -49.2282163704       36.8979042329  TIP3      454             0.0000000000
     51193       854  TIP3      H1             -9.1811550984      -49.9794978422       37.2201794085  TIP3      454             0.0000000000
     51194       854  TIP3      H2             -7.7943236555      -49.3653785666       37.3793855819  TIP3      454             0.0000000000
     51195       855  TIP3      OH2            -6.6968074799      -49.9611434268       28.2722227725  TIP3      455             0.0000000000
     51196       855  TIP3      H1             -6.9266905117      -49.3826768691       27.5248274599  TIP3      455             0.0000000000
     51197       855  TIP3      H2             -6.5492038304      -50.8080934237       27.8006946569  TIP3      455             0.0000000000
     51198       856  TIP3      OH2           -15.5280130712      -49.7605821674       33.5303191376  TIP3      456             0.0000000000
     51199       856  TIP3      H1            -15.5231228729      -49.3606322877       34.4177017394  TIP3      456             0.0000000000
     51200       856  TIP3      H2            -16.0033980537      -50.5898280842       33.6772920518  TIP3      456             0.0000000000
     51201       857  TIP3      OH2           -18.9050116610      -52.6392916894       27.4370834902  TIP3      457             0.0000000000
     51202       857  TIP3      H1            -18.2442896348      -52.6814264755       28.1565030916  TIP3      457             0.0000000000
     51203       857  TIP3      H2            -18.4409202637      -53.0537488804       26.6870927951  TIP3      457             0.0000000000
     51204       858  TIP3      OH2           -17.6069361794      -51.9182787971       22.8734515488  TIP3      458             0.0000000000
     51205       858  TIP3      H1            -17.1458705660      -51.3112659570       22.2580173378  TIP3      458             0.0000000000
     51206       858  TIP3      H2            -18.3389697152      -51.3488106119       23.1699642024  TIP3      458             0.0000000000
     51207       859  TIP3      OH2            -7.4592301336      -48.3381958514       32.8865684556  TIP3      459             0.0000000000
     51208       859  TIP3      H1             -7.1134138644      -49.0051439352       32.2642187354  TIP3      459             0.0000000000
     51209       859  TIP3      H2             -7.9087538993      -48.8836644117       33.5562601934  TIP3      459             0.0000000000
     51210       860  TIP3      OH2           -10.6689085595      -52.4018944027       27.6880985339  TIP3      460             0.0000000000
     51211       860  TIP3      H1            -11.6037318782      -52.3708443547       27.9865282999  TIP3      460             0.0000000000
     51212       860  TIP3      H2            -10.1688648530      -52.5069534977       28.5111367579  TIP3      460             0.0000000000
     51213       861  TIP3      OH2           -15.8482882478      -50.8006910974       26.5460320972  TIP3      461             0.0000000000
     51214       861  TIP3      H1            -16.7436138795      -50.6877146266       26.1677215173  TIP3      461             0.0000000000
     51215       861  TIP3      H2            -15.5549919389      -51.6471185738       26.1674390913  TIP3      461             0.0000000000
     51216       862  TIP3      OH2           -12.2083640591      -50.7851265585       24.1799127413  TIP3      462             0.0000000000
     51217       862  TIP3      H1            -11.2557606367      -50.6697475303       24.3552308911  TIP3      462             0.0000000000
     51218       862  TIP3      H2            -12.4266595740      -50.1064365188       23.5155754459  TIP3      462             0.0000000000
     51219       863  TIP3      OH2            -6.2517823729      -53.1645809412       30.9324141356  TIP3      463             0.0000000000
     51220       863  TIP3      H1             -6.9516934323      -53.0600293758       31.6164046586  TIP3      463             0.0000000000
     51221       863  TIP3      H2             -6.7616901498      -53.3647062981       30.1401311977  TIP3      463             0.0000000000
     51222       864  TIP3      OH2           -13.5134509212      -49.6198856155       21.7631002973  TIP3      464             0.0000000000
     51223       864  TIP3      H1            -14.0701432612      -49.9571857986       21.0508146333  TIP3      464             0.0000000000
     51224       864  TIP3      H2            -12.6879316963      -49.3863010199       21.3045684579  TIP3      464             0.0000000000
     51225       865  TIP3      OH2            -3.0278902089      -37.5083320131       37.2566177193  TIP3      465             0.0000000000
     51226       865  TIP3      H1             -2.7783002484      -37.1010477582       36.4028758941  TIP3      465             0.0000000000
     51227       865  TIP3      H2             -2.3249912526      -37.1718297820       37.8425761887  TIP3      465             0.0000000000
     51228       866  TIP3      OH2           -15.3718787473      -45.0397142870       36.8240000712  TIP3      466             0.0000000000
     51229       866  TIP3      H1            -14.6594567956      -44.7819226981       37.4312989856  TIP3      466             0.0000000000
     51230       866  TIP3      H2            -16.1674453419      -44.8743775844       37.3812557556  TIP3      466             0.0000000000
     51231       867  TIP3      OH2            -9.3716226361      -49.6235337506       29.5803436238  TIP3      467             0.0000000000
     51232       867  TIP3      H1             -8.7896569169      -50.1712450368       29.0378708570  TIP3      467             0.0000000000
     51233       867  TIP3      H2             -9.5129691375      -50.1619679836       30.3698108493  TIP3      467             0.0000000000
     51234       868  TIP3      OH2           -14.3732957579      -53.4833533571       25.9940373169  TIP3      468             0.0000000000
     51235       868  TIP3      H1            -14.6732588738      -54.4056137909       25.9857932330  TIP3      468             0.0000000000
     51236       868  TIP3      H2            -13.5732588563      -53.5171738452       25.4530810255  TIP3      468             0.0000000000
     51237       869  TIP3      OH2           -10.7375625882      -51.2615974959       31.9874053823  TIP3      469             0.0000000000
     51238       869  TIP3      H1            -11.5744601577      -50.7728661607       32.1010392051  TIP3      469             0.0000000000
     51239       869  TIP3      H2            -10.1961450570      -50.9580628516       32.7421148449  TIP3      469             0.0000000000
     51240       870  TIP3      OH2           -10.1559957340      -45.0366381009       23.6861123085  TIP3      470             0.0000000000
     51241       870  TIP3      H1            -10.9422981678      -45.5447698944       23.3915171097  TIP3      470             0.0000000000
     51242       870  TIP3      H2            -10.3383892701      -44.9691925598       24.6418521021  TIP3      470             0.0000000000
     51243       871  TIP3      OH2            -3.0078294912      -45.8930663789       32.4881797441  TIP3      471             0.0000000000
     51244       871  TIP3      H1             -2.4029843707      -45.4184830367       31.8933116565  TIP3      471             0.0000000000
     51245       871  TIP3      H2             -3.8561390919      -45.7935229218       32.0061448331  TIP3      471             0.0000000000
     51246       872  TIP3      OH2            -8.6659837203      -44.8321346172       34.9204347190  TIP3      472             0.0000000000
     51247       872  TIP3      H1             -9.0109989898      -45.2280667700       35.7284492453  TIP3      472             0.0000000000
     51248       872  TIP3      H2             -8.8850526081      -43.8996896306       35.0070024256  TIP3      472             0.0000000000
     51249       873  TIP3      OH2            -5.5875591041      -50.3621632363       23.5576948086  TIP3      473             0.0000000000
     51250       873  TIP3      H1             -4.6748554058      -50.4806658140       23.8687685669  TIP3      473             0.0000000000
     51251       873  TIP3      H2             -5.5166195017      -49.5670892136       23.0047372195  TIP3      473             0.0000000000
     51252       874  TIP3      OH2           -15.0600196138      -45.7063110961       29.4719902969  TIP3      474             0.0000000000
     51253       874  TIP3      H1            -14.3295587048      -45.7487572449       28.8256434043  TIP3      474             0.0000000000
     51254       874  TIP3      H2            -14.9827641087      -46.5569162505       29.9368831393  TIP3      474             0.0000000000
     51255       875  TIP3      OH2            -8.0627911484      -43.5844765719       22.7084010157  TIP3      475             0.0000000000
     51256       875  TIP3      H1             -8.3616625242      -42.7410820317       23.0818784532  TIP3      475             0.0000000000
     51257       875  TIP3      H2             -8.7795903774      -44.2058488168       22.9289725284  TIP3      475             0.0000000000
     51258       876  TIP3      OH2           -18.0584439924      -47.2668240385       34.7621635354  TIP3      476             0.0000000000
     51259       876  TIP3      H1            -17.8477052367      -47.7056915655       35.6069200095  TIP3      476             0.0000000000
     51260       876  TIP3      H2            -18.6670213951      -47.8924284681       34.3319845679  TIP3      476             0.0000000000
     51261       877  TIP3      OH2           -11.0433171447      -47.7321074816       36.9689333933  TIP3      477             0.0000000000
     51262       877  TIP3      H1            -11.3409360148      -47.9584173734       36.0766423112  TIP3      477             0.0000000000
     51263       877  TIP3      H2            -10.1027210177      -47.9996433711       36.9508714112  TIP3      477             0.0000000000
     51264       878  TIP3      OH2            -6.3870109726      -42.3871990604       34.8598940299  TIP3      478             0.0000000000
     51265       878  TIP3      H1             -7.3107740197      -42.1965122056       34.6236865424  TIP3      478             0.0000000000
     51266       878  TIP3      H2             -6.3915144849      -42.1073536297       35.7975153072  TIP3      478             0.0000000000
     51267       879  TIP3      OH2            -0.6518926239      -50.1844933507       23.2535997621  TIP3      479             0.0000000000
     51268       879  TIP3      H1             -1.2553404779      -50.4988352311       22.5590947629  TIP3      479             0.0000000000
     51269       879  TIP3      H2             -0.5970287736      -49.2376845415       22.9755577159  TIP3      479             0.0000000000
     51270       880  TIP3      OH2            -0.7081436409      -44.3364262290       36.0893640114  TIP3      480             0.0000000000
     51271       880  TIP3      H1             -1.5877526428      -44.1052271809       35.7045997171  TIP3      480             0.0000000000
     51272       880  TIP3      H2             -0.1378231078      -44.3605708299       35.2965567454  TIP3      480             0.0000000000
     51273       881  TIP3      OH2            -2.3928875447      -41.3630354335       23.6724429961  TIP3      481             0.0000000000
     51274       881  TIP3      H1             -2.7645175539      -42.1805841542       24.0220641078  TIP3      481             0.0000000000
     51275       881  TIP3      H2             -2.0960086706      -41.5262912260       22.7846488350  TIP3      481             0.0000000000
     51276       882  TIP3      OH2            -5.2103976161      -46.5397650278       30.7479829564  TIP3      482             0.0000000000
     51277       882  TIP3      H1             -6.1533504217      -46.7750459721       30.6807156204  TIP3      482             0.0000000000
     51278       882  TIP3      H2             -4.7735320547      -47.3239765563       30.3701116594  TIP3      482             0.0000000000
     51279       883  TIP3      OH2           -12.6756281634      -42.2268816422       26.8574155524  TIP3      483             0.0000000000
     51280       883  TIP3      H1            -12.1651490637      -41.4266312401       26.6566492108  TIP3      483             0.0000000000
     51281       883  TIP3      H2            -13.5628084207      -41.9863434482       26.5520866952  TIP3      483             0.0000000000
     51282       884  TIP3      OH2           -11.2438873877      -44.5596343976       26.4066649943  TIP3      484             0.0000000000
     51283       884  TIP3      H1            -11.5300251306      -43.6279626024       26.4803840954  TIP3      484             0.0000000000
     51284       884  TIP3      H2            -11.9947426146      -45.0229854222       26.8334770852  TIP3      484             0.0000000000
     51285       885  TIP3      OH2           -10.7953465762      -40.3831903701       32.7765797694  TIP3      485             0.0000000000
     51286       885  TIP3      H1            -10.3610883412      -39.5571335078       32.5078196239  TIP3      485             0.0000000000
     51287       885  TIP3      H2            -10.1952049342      -40.7052360400       33.4785359729  TIP3      485             0.0000000000
     51288       886  TIP3      OH2           -12.5621778697      -39.5503758924       25.9629216117  TIP3      486             0.0000000000
     51289       886  TIP3      H1            -13.5336262268      -39.4327663871       26.0479669965  TIP3      486             0.0000000000
     51290       886  TIP3      H2            -12.2294150423      -38.7071425853       26.3151824542  TIP3      486             0.0000000000
     51291       887  TIP3      OH2            -7.2300783390      -44.3288804744       32.4335665360  TIP3      487             0.0000000000
     51292       887  TIP3      H1             -7.6225425493      -44.5452946144       33.3007671198  TIP3      487             0.0000000000
     51293       887  TIP3      H2             -6.6228592378      -45.0632422358       32.2596309149  TIP3      487             0.0000000000
     51294       888  TIP3      OH2            -4.5094793678      -39.7734609725       34.9316709585  TIP3      488             0.0000000000
     51295       888  TIP3      H1             -5.1518634359      -40.2991696247       34.4168492059  TIP3      488             0.0000000000
     51296       888  TIP3      H2             -4.2750826572      -39.0882693698       34.2740914072  TIP3      488             0.0000000000
     51297       889  TIP3      OH2           -16.4017831014      -52.5242495115       34.3095713855  TIP3      489             0.0000000000
     51298       889  TIP3      H1            -17.3140733870      -52.1840687292       34.2735618517  TIP3      489             0.0000000000
     51299       889  TIP3      H2            -16.5264025991      -53.3791867550       34.7473191230  TIP3      489             0.0000000000
     51300       890  TIP3      OH2            -4.1451062954      -44.6879746178       23.7407018342  TIP3      490             0.0000000000
     51301       890  TIP3      H1             -4.4130282618      -45.4468715518       24.3031428659  TIP3      490             0.0000000000
     51302       890  TIP3      H2             -3.2065595372      -44.6077494911       23.9649657005  TIP3      490             0.0000000000
     51303       891  TIP3      OH2           -16.7630426480      -40.7144150607       32.7429473013  TIP3      491             0.0000000000
     51304       891  TIP3      H1            -16.5349298954      -41.6632510525       32.7278498179  TIP3      491             0.0000000000
     51305       891  TIP3      H2            -16.5296984515      -40.4686027158       33.6374246880  TIP3      491             0.0000000000
     51306       892  TIP3      OH2           -15.5466285244      -45.4461167132       22.8838534108  TIP3      492             0.0000000000
     51307       892  TIP3      H1            -16.2012401106      -45.0787153346       23.5128314727  TIP3      492             0.0000000000
     51308       892  TIP3      H2            -14.9891363837      -44.6786253481       22.7036778769  TIP3      492             0.0000000000
     51309       893  TIP3      OH2            -7.6844464600      -52.7706853438       33.2270749920  TIP3      493             0.0000000000
     51310       893  TIP3      H1             -6.9741761491      -52.7112594123       33.8795038259  TIP3      493             0.0000000000
     51311       893  TIP3      H2             -8.0657399653      -53.6529747771       33.4057729805  TIP3      493             0.0000000000
     51312       894  TIP3      OH2            -6.8976260493      -53.1541763811       24.3177789295  TIP3      494             0.0000000000
     51313       894  TIP3      H1             -6.6909190519      -52.6570587664       23.5106599395  TIP3      494             0.0000000000
     51314       894  TIP3      H2             -6.3431553984      -52.7331401993       24.9831076779  TIP3      494             0.0000000000
     51315       895  TIP3      OH2            -9.7116654404      -51.4135289297       25.1541554351  TIP3      495             0.0000000000
     51316       895  TIP3      H1             -8.8929449487      -50.8839793426       25.1864066318  TIP3      495             0.0000000000
     51317       895  TIP3      H2             -9.9544778150      -51.5524231898       26.0819839452  TIP3      495             0.0000000000
     51318       896  TIP3      OH2            -9.1579008924      -50.4225064851       34.3357688315  TIP3      496             0.0000000000
     51319       896  TIP3      H1             -9.0581346325      -49.8422584962       35.1148176013  TIP3      496             0.0000000000
     51320       896  TIP3      H2             -8.4970210144      -51.1153943226       34.4497942279  TIP3      496             0.0000000000
     51321       897  TIP3      OH2            -8.8399926931      -54.3296793673       26.0725524363  TIP3      497             0.0000000000
     51322       897  TIP3      H1             -9.1723071600      -53.6980445524       26.7263000911  TIP3      497             0.0000000000
     51323       897  TIP3      H2             -8.1532878840      -53.8063133124       25.5950350539  TIP3      497             0.0000000000
     51324       898  TIP3      OH2           -11.8972518223      -39.9921001905       23.1456722934  TIP3      498             0.0000000000
     51325       898  TIP3      H1            -11.7351478953      -39.1540012729       22.6589827212  TIP3      498             0.0000000000
     51326       898  TIP3      H2            -12.0978286441      -39.6532672198       24.0451439232  TIP3      498             0.0000000000
     51327       899  TIP3      OH2           -13.1781998206      -53.2589362589       22.7362453472  TIP3      499             0.0000000000
     51328       899  TIP3      H1            -13.2505583514      -52.3655974712       23.1254248824  TIP3      499             0.0000000000
     51329       899  TIP3      H2            -12.2698733082      -53.5033599404       23.0112828235  TIP3      499             0.0000000000
     51330       900  TIP3      OH2            -2.9512040037      -52.5199565275       35.1903152540  TIP3      500             0.0000000000
     51331       900  TIP3      H1             -3.8899651666      -52.2346253058       35.0704106831  TIP3      500             0.0000000000
     51332       900  TIP3      H2             -2.6394114507      -52.5274503413       34.2698072661  TIP3      500             0.0000000000
     51333       901  TIP3      OH2            -4.3594273577      -48.7495334452       29.2395785904  TIP3      501             0.0000000000
     51334       901  TIP3      H1             -5.1717174379      -49.1871503440       28.9331799056  TIP3      501             0.0000000000
     51335       901  TIP3      H2             -3.8969897194      -49.4520485614       29.7494345254  TIP3      501             0.0000000000
     51336       902  TIP3      OH2           -14.9044809658      -42.8368033725       21.8107341616  TIP3      502             0.0000000000
     51337       902  TIP3      H1            -14.3233086885      -42.1214837052       22.1252656055  TIP3      502             0.0000000000
     51338       902  TIP3      H2            -14.4332520979      -43.2662602914       21.1109416524  TIP3      502             0.0000000000
     51339       903  TIP3      OH2           -16.5940035802      -50.1571326426       20.9645545080  TIP3      503             0.0000000000
     51340       903  TIP3      H1            -16.6205894253      -49.2254083610       21.1189617648  TIP3      503             0.0000000000
     51341       903  TIP3      H2            -17.4711995690      -50.4132822201       20.6339038019  TIP3      503             0.0000000000
     51342       904  TIP3      OH2            -3.2830699694      -39.4963243517       30.8944270117  TIP3      504             0.0000000000
     51343       904  TIP3      H1             -3.4199413551      -38.8306305773       30.2020991241  TIP3      504             0.0000000000
     51344       904  TIP3      H2             -2.3201323681      -39.4519110119       31.0773411844  TIP3      504             0.0000000000
     51345       905  TIP3      OH2           -15.7610625722      -55.3412789315       29.6364559970  TIP3      505             0.0000000000
     51346       905  TIP3      H1            -16.0090343711      -55.3254522340       28.6877898285  TIP3      505             0.0000000000
     51347       905  TIP3      H2            -16.2179729702      -56.1704726069       29.9252054682  TIP3      505             0.0000000000
     51348       906  TIP3      OH2           -16.8473380955      -41.4491279188       25.8040024380  TIP3      506             0.0000000000
     51349       906  TIP3      H1            -17.6894765379      -40.9779208069       25.8011023084  TIP3      506             0.0000000000
     51350       906  TIP3      H2            -16.3268526068      -40.9469883128       25.1614436499  TIP3      506             0.0000000000
     51351       907  TIP3      OH2           -17.5569349819      -38.8135432072       37.0842416851  TIP3      507             0.0000000000
     51352       907  TIP3      H1            -17.0348064822      -39.0389370722       37.8853151437  TIP3      507             0.0000000000
     51353       907  TIP3      H2            -18.0515817942      -39.6476636058       36.9380775308  TIP3      507             0.0000000000
     51354       908  TIP3      OH2           -12.9687534523      -39.8936115219       38.7398018775  TIP3      508             0.0000000000
     51355       908  TIP3      H1            -12.1936234209      -40.3771182840       39.0702151956  TIP3      508             0.0000000000
     51356       908  TIP3      H2            -12.9724385697      -40.1626083117       37.7986704992  TIP3      508             0.0000000000
     51357       909  TIP3      OH2            -6.4186312593      -41.5114377971       37.4548593635  TIP3      509             0.0000000000
     51358       909  TIP3      H1             -6.7464587006      -42.3956331555       37.7178756641  TIP3      509             0.0000000000
     51359       909  TIP3      H2             -5.6621440195      -41.3883780493       38.0591108339  TIP3      509             0.0000000000
     51360       910  TIP3      OH2           -17.6786812983      -45.0258014557       38.0884782689  TIP3      510             0.0000000000
     51361       910  TIP3      H1            -17.5219655664      -45.9370169756       37.7767577620  TIP3      510             0.0000000000
     51362       910  TIP3      H2            -18.4411661232      -44.7504577138       37.5535351105  TIP3      510             0.0000000000
     51363       911  TIP3      OH2           -10.9956837219      -45.0491085058       37.4938127793  TIP3      511             0.0000000000
     51364       911  TIP3      H1            -11.3363401532      -44.7607367296       36.6279765320  TIP3      511             0.0000000000
     51365       911  TIP3      H2            -10.8756514727      -46.0167931071       37.3971922328  TIP3      511             0.0000000000
     51366       912  TIP3      OH2            -7.9204646860      -43.6231447475       19.9265753388  TIP3      512             0.0000000000
     51367       912  TIP3      H1             -8.1987901081      -43.4528772662       20.8413726030  TIP3      512             0.0000000000
     51368       912  TIP3      H2             -8.1367168732      -44.5516881723       19.7859617349  TIP3      512             0.0000000000
     51369       913  TIP3      OH2            -5.2849641904      -45.1659559479       34.8849828051  TIP3      513             0.0000000000
     51370       913  TIP3      H1             -4.5179663401      -44.5584702990       34.7847766673  TIP3      513             0.0000000000
     51371       913  TIP3      H2             -6.0156083292      -44.5345797140       34.9341913770  TIP3      513             0.0000000000
     51372       914  TIP3      OH2           -16.8113214517      -47.8050369926       37.4872743711  TIP3      514             0.0000000000
     51373       914  TIP3      H1            -16.4050585049      -48.6744770151       37.3818133267  TIP3      514             0.0000000000
     51374       914  TIP3      H2            -17.0638187166      -47.8038215906       38.4285288856  TIP3      514             0.0000000000
     51375       915  TIP3      OH2           -12.2010921198      -46.7121630537       22.5544473088  TIP3      515             0.0000000000
     51376       915  TIP3      H1            -12.6620329514      -47.2286188799       23.2138154576  TIP3      515             0.0000000000
     51377       915  TIP3      H2            -11.9167016684      -47.3827581204       21.8800515767  TIP3      515             0.0000000000
     51378       916  TIP3      OH2           -12.8838359596      -48.8371113914       34.8612046404  TIP3      516             0.0000000000
     51379       916  TIP3      H1            -13.4983186730      -48.1321883531       35.1286088584  TIP3      516             0.0000000000
     51380       916  TIP3      H2            -12.5230709152      -48.4860151852       34.0290897553  TIP3      516             0.0000000000
     51381       917  TIP3      OH2           -11.1032032818      -48.5008123535       20.7827885301  TIP3      517             0.0000000000
     51382       917  TIP3      H1            -11.2698730869      -48.5935727400       19.8300322030  TIP3      517             0.0000000000
     51383       917  TIP3      H2            -10.1319098196      -48.3694803512       20.8236089474  TIP3      517             0.0000000000
     51384       918  TIP3      OH2            -7.8461543407      -46.3157772402       38.1794420974  TIP3      518             0.0000000000
     51385       918  TIP3      H1             -6.8862730653      -46.2763557429       38.0937707955  TIP3      518             0.0000000000
     51386       918  TIP3      H2             -8.0088016362      -47.0630398189       38.7721998476  TIP3      518             0.0000000000
     51387       919  TIP3      OH2           -12.5142407824      -51.4633724017       35.9331347091  TIP3      519             0.0000000000
     51388       919  TIP3      H1            -12.3785539884      -52.1897515004       35.3058838478  TIP3      519             0.0000000000
     51389       919  TIP3      H2            -12.5359214597      -50.6677199131       35.3670609363  TIP3      519             0.0000000000
     51390       920  TIP3      OH2           -12.1042037406      -53.1089162672       33.4474343663  TIP3      520             0.0000000000
     51391       920  TIP3      H1            -11.5793175715      -52.6290449277       32.7634675928  TIP3      520             0.0000000000
     51392       920  TIP3      H2            -12.9885559756      -53.1856887054       33.0227454285  TIP3      520             0.0000000000
     51393       921  TIP3      OH2           -10.5459348431      -47.6403749537       33.6929489915  TIP3      521             0.0000000000
     51394       921  TIP3      H1             -9.7928553703      -47.7949780093       33.1104252691  TIP3      521             0.0000000000
     51395       921  TIP3      H2            -10.8933822177      -46.7867809256       33.3872797929  TIP3      521             0.0000000000
     51396       922  TIP3      OH2            -6.1421093251      -49.8425851424       38.6907020580  TIP3      522             0.0000000000
     51397       922  TIP3      H1             -5.9293665230      -50.7809526641       38.5914060349  TIP3      522             0.0000000000
     51398       922  TIP3      H2             -5.2693315735      -49.4193127813       38.6847977097  TIP3      522             0.0000000000
     51399       923  TIP3      OH2            -4.8201119508      -47.0560094572       36.8202210427  TIP3      523             0.0000000000
     51400       923  TIP3      H1             -5.0775189980      -46.3337664367       36.2019371854  TIP3      523             0.0000000000
     51401       923  TIP3      H2             -3.8622133105      -47.1046538167       36.6188250968  TIP3      523             0.0000000000
     51402       924  TIP3      OH2           -14.0384602782      -50.2488920661       37.8774519679  TIP3      524             0.0000000000
     51403       924  TIP3      H1            -14.8191820520      -50.7962653640       37.6337990105  TIP3      524             0.0000000000
     51404       924  TIP3      H2            -13.3846483647      -50.5770279772       37.2243466417  TIP3      524             0.0000000000
     51405       925  TIP3      OH2           -11.3046291869      -55.6573987997       33.8705389033  TIP3      525             0.0000000000
     51406       925  TIP3      H1            -11.4358790023      -54.6872964578       33.7567628561  TIP3      525             0.0000000000
     51407       925  TIP3      H2            -12.0684014773      -56.0065340433       33.3775088706  TIP3      525             0.0000000000
     51408       926  TIP3      OH2           -10.0372727334      -51.3207987662       37.4388900129  TIP3      526             0.0000000000
     51409       926  TIP3      H1            -10.3080099440      -51.5441684650       38.3471933886  TIP3      526             0.0000000000
     51410       926  TIP3      H2            -10.8371074039      -51.5242515761       36.9206429203  TIP3      526             0.0000000000
     51411       927  TIP3      OH2            -7.3288462618      -52.1845631121       36.5216175231  TIP3      527             0.0000000000
     51412       927  TIP3      H1             -8.2924448542      -52.1533880223       36.6569808232  TIP3      527             0.0000000000
     51413       927  TIP3      H2             -7.0313805785      -52.8180049350       37.1993354520  TIP3      527             0.0000000000
     51414       928  TIP3      OH2            -5.7227086216      -53.5526322651       38.4849558057  TIP3      528             0.0000000000
     51415       928  TIP3      H1             -5.7994744536      -54.5205923814       38.5062605835  TIP3      528             0.0000000000
     51416       928  TIP3      H2             -6.0159525207      -53.2710959009       39.3844652269  TIP3      528             0.0000000000
     51417       929  TIP3      OH2           -15.8974380300      -52.3103076029       37.5697315880  TIP3      529             0.0000000000
     51418       929  TIP3      H1            -15.6734884905      -53.0437179571       36.9583713039  TIP3      529             0.0000000000
     51419       929  TIP3      H2            -16.0056482783      -52.7728516919       38.4201178509  TIP3      529             0.0000000000
     51420       930  TIP3      OH2           -11.1283019241       56.5272046353       36.5464954829  TIP3      530             0.0000000000
     51421       930  TIP3      H1            -10.3934075542       55.8666047906       36.5285520859  TIP3      530             0.0000000000
     51422       930  TIP3      H2            -11.1875093204       56.7492859575       35.6063274655  TIP3      530             0.0000000000
     51423       931  TIP3      OH2           -10.7289117774      -54.6606053869       38.6186413422  TIP3      531             0.0000000000
     51424       931  TIP3      H1            -10.8859526145      -55.1542213247       37.7836569582  TIP3      531             0.0000000000
     51425       931  TIP3      H2            -11.3329888140      -53.9088726180       38.5376639324  TIP3      531             0.0000000000
     51426       932  TIP3      OH2           -11.2106470014      -37.7648277623       21.8039673385  TIP3      532             0.0000000000
     51427       932  TIP3      H1            -10.2632722805      -37.6121569079       21.8801972570  TIP3      532             0.0000000000
     51428       932  TIP3      H2            -11.4618068236      -37.1039819557       21.1410675635  TIP3      532             0.0000000000
     51429       933  TIP3      OH2           -17.6317650591      -43.1648269559       21.2679014504  TIP3      533             0.0000000000
     51430       933  TIP3      H1            -16.6937558992      -43.0550572388       21.5320785982  TIP3      533             0.0000000000
     51431       933  TIP3      H2            -17.6255731070      -43.8014517616       20.5642196357  TIP3      533             0.0000000000
     51432       934  TIP3      OH2           -18.9494354122      -37.7557236453       26.3009406292  TIP3      534             0.0000000000
     51433       934  TIP3      H1            -19.6340339857      -38.2339286580       25.7831544814  TIP3      534             0.0000000000
     51434       934  TIP3      H2            -18.6346919942      -38.4287477403       26.9254741339  TIP3      534             0.0000000000
     51435       935  TIP3      OH2           -18.1030480655      -39.6573307743       28.1320676607  TIP3      535             0.0000000000
     51436       935  TIP3      H1            -18.4478649780      -40.5410174436       28.3223792984  TIP3      535             0.0000000000
     51437       935  TIP3      H2            -17.8803823205      -39.3197531877       29.0167376914  TIP3      535             0.0000000000
     51438       936  TIP3      OH2            -0.6203712905      -38.7751705110       31.0837780693  TIP3      536             0.0000000000
     51439       936  TIP3      H1             -0.5480590958      -38.6988627980       32.0588414544  TIP3      536             0.0000000000
     51440       936  TIP3      H2              0.1771380269      -38.3169631120       30.7895385880  TIP3      536             0.0000000000
     51441       937  TIP3      OH2            -1.0116132698      -39.2514818881       34.0310149869  TIP3      537             0.0000000000
     51442       937  TIP3      H1             -1.4655018703      -40.0386907151       33.6596185660  TIP3      537             0.0000000000
     51443       937  TIP3      H2             -0.4588448295      -39.6943699185       34.7077636608  TIP3      537             0.0000000000
     51444       938  TIP3      OH2            -2.5414127937      -43.5281453707       38.6727539237  TIP3      538             0.0000000000
     51445       938  TIP3      H1             -3.4255798679      -43.5801853638       39.0757261679  TIP3      538             0.0000000000
     51446       938  TIP3      H2             -2.1696606238      -42.7323524712       39.1229666981  TIP3      538             0.0000000000
     51447       939  TIP3      OH2            -1.2418765575      -45.2217597209       24.1485032054  TIP3      539             0.0000000000
     51448       939  TIP3      H1             -0.3747004552      -44.8200364328       24.3279023296  TIP3      539             0.0000000000
     51449       939  TIP3      H2             -1.2333802183      -45.9677642457       24.8015353037  TIP3      539             0.0000000000
     51450       940  TIP3      OH2            -0.8662634352      -47.1473635854       25.9975343264  TIP3      540             0.0000000000
     51451       940  TIP3      H1             -1.5970975285      -47.6636555388       26.4037598955  TIP3      540             0.0000000000
     51452       940  TIP3      H2             -0.2662485273      -46.9894616594       26.7549552707  TIP3      540             0.0000000000
     51453       941  TIP3      OH2            -1.1190898396      -44.4278647563       30.9789661387  TIP3      541             0.0000000000
     51454       941  TIP3      H1             -0.2663713508      -44.7822966495       30.6534054565  TIP3      541             0.0000000000
     51455       941  TIP3      H2             -0.9615362460      -43.4609927811       30.8334323153  TIP3      541             0.0000000000
     51456       942  TIP3      OH2            -2.5838169061      -41.5256916543       33.2751807327  TIP3      542             0.0000000000
     51457       942  TIP3      H1             -3.2608299244      -41.1925263408       33.8809066349  TIP3      542             0.0000000000
     51458       942  TIP3      H2             -3.1230451590      -41.9529110855       32.5765928425  TIP3      542             0.0000000000
     51459       943  TIP3      OH2            -0.5716969940      -47.2796916293       22.3883161054  TIP3      543             0.0000000000
     51460       943  TIP3      H1             -1.1307040678      -46.9420476490       21.6804064253  TIP3      543             0.0000000000
     51461       943  TIP3      H2             -0.6320059921      -46.6039415248       23.0896583854  TIP3      543             0.0000000000
     51462       944  TIP3      OH2            -2.2096430695      -50.0700287634       20.9504620234  TIP3      544             0.0000000000
     51463       944  TIP3      H1             -2.1533951078      -49.3836292686       20.2632100069  TIP3      544             0.0000000000
     51464       944  TIP3      H2             -2.3866714671      -50.8640096839       20.4516305442  TIP3      544             0.0000000000
     51465       945  TIP3      OH2            -3.0559933555      -48.6551754771       26.5746324514  TIP3      545             0.0000000000
     51466       945  TIP3      H1             -3.2089498280      -49.6134950853       26.5478820224  TIP3      545             0.0000000000
     51467       945  TIP3      H2             -3.4094882349      -48.4048730183       27.4420381781  TIP3      545             0.0000000000
     51468       946  TIP3      OH2           -18.0443463827      -46.5767476085       30.6144463977  TIP3      546             0.0000000000
     51469       946  TIP3      H1            -17.8455980893      -46.6624318009       29.6559151855  TIP3      546             0.0000000000
     51470       946  TIP3      H2            -17.1595151959      -46.7257283220       31.0003735402  TIP3      546             0.0000000000
     51471       947  TIP3      OH2            -2.2133386426      -46.6900212226       36.2412781219  TIP3      547             0.0000000000
     51472       947  TIP3      H1             -1.6018762424      -47.4404666182       36.4015558932  TIP3      547             0.0000000000
     51473       947  TIP3      H2             -1.6187918338      -45.9138059921       36.2610101321  TIP3      547             0.0000000000
     51474       948  TIP3      OH2            -0.7001385133      -48.7876355536       36.9171539019  TIP3      548             0.0000000000
     51475       948  TIP3      H1             -1.5762697336      -49.1910720450       36.7387315867  TIP3      548             0.0000000000
     51476       948  TIP3      H2             -0.1107493887      -49.5538897781       36.8287934616  TIP3      548             0.0000000000
     51477       949  TIP3      OH2            -3.3740474880      -51.0768020954       25.0322259623  TIP3      549             0.0000000000
     51478       949  TIP3      H1             -3.0740966699      -52.0016160796       25.1641652963  TIP3      549             0.0000000000
     51479       949  TIP3      H2             -2.5881658482      -50.6580790011       24.6558383565  TIP3      549             0.0000000000
     51480       950  TIP3      OH2            -2.7513340189      -50.5195617160       30.4690764699  TIP3      550             0.0000000000
     51481       950  TIP3      H1             -1.7932888733      -50.2876307826       30.4531721870  TIP3      550             0.0000000000
     51482       950  TIP3      H2             -2.9570159970      -50.3947738164       31.4094821254  TIP3      550             0.0000000000
     51483       951  TIP3      OH2            -2.6968049549      -49.7942656580       33.2530183786  TIP3      551             0.0000000000
     51484       951  TIP3      H1             -3.5631285835      -49.4993310894       33.6038229644  TIP3      551             0.0000000000
     51485       951  TIP3      H2             -2.2581272722      -48.9356315633       33.0371603345  TIP3      551             0.0000000000
     51486       952  TIP3      OH2           -18.4312577089      -51.2804048317       36.7503772422  TIP3      552             0.0000000000
     51487       952  TIP3      H1            -17.4970865778      -51.4705671646       36.9683886150  TIP3      552             0.0000000000
     51488       952  TIP3      H2            -18.8812564431      -52.0829168959       37.0949698628  TIP3      552             0.0000000000
     51489       953  TIP3      OH2            -0.4113460082      -55.7615656731       38.6101283407  TIP3      553             0.0000000000
     51490       953  TIP3      H1             -0.0710929683      -56.4273990331       37.9882774721  TIP3      553             0.0000000000
     51491       953  TIP3      H2             -0.2990384037      -54.9332690357       38.1176604664  TIP3      553             0.0000000000
     51492       954  TIP3      OH2            -2.7063870238      -53.8060327532       25.0739781306  TIP3      554             0.0000000000
     51493       954  TIP3      H1             -2.5466974743      -54.2607146647       25.9250719307  TIP3      554             0.0000000000
     51494       954  TIP3      H2             -3.3578889153      -54.4001698654       24.6314423418  TIP3      554             0.0000000000
     51495       955  TIP3      OH2           -17.2290999612      -52.9931538324       29.6141853097  TIP3      555             0.0000000000
     51496       955  TIP3      H1            -16.7623141157      -53.7967251766       29.9183454293  TIP3      555             0.0000000000
     51497       955  TIP3      H2            -16.7219551272      -52.2862827569       30.0416532107  TIP3      555             0.0000000000
     51498       956  TIP3      OH2           -18.9348831883      -50.0038067887       30.6891422875  TIP3      556             0.0000000000
     51499       956  TIP3      H1            -18.3926705852      -50.2223409283       29.9018343464  TIP3      556             0.0000000000
     51500       956  TIP3      H2            -18.5159644738      -49.1704752951       30.9558404193  TIP3      556             0.0000000000
     51501       957  TIP3      OH2            -0.8914181984      -53.6693206111       36.9552918980  TIP3      557             0.0000000000
     51502       957  TIP3      H1             -1.8332015184      -53.4075588377       36.9085704569  TIP3      557             0.0000000000
     51503       957  TIP3      H2             -0.8193116267      -54.2185238746       36.1561313205  TIP3      557             0.0000000000
     51504       958  TIP3      OH2           -18.5894765924      -53.7581701450       24.7361319227  TIP3      558             0.0000000000
     51505       958  TIP3      H1            -19.5239911332      -53.5298939500       24.6158589577  TIP3      558             0.0000000000
     51506       958  TIP3      H2            -18.1380973912      -53.2532690639       24.0358241773  TIP3      558             0.0000000000
     51507       959  TIP3      OH2            -3.8382969949      -38.7635516618       26.6956196593  TIP3      559             0.0000000000
     51508       959  TIP3      H1             -3.1687530509      -39.1018904737       26.0707109804  TIP3      559             0.0000000000
     51509       959  TIP3      H2             -3.3096748651      -38.2763261666       27.3288641288  TIP3      559             0.0000000000
     51510       960  TIP3      OH2           -18.6117685270      -55.0216203680       33.0841716591  TIP3      560             0.0000000000
     51511       960  TIP3      H1            -19.2965648678      -55.2446217471       33.7307870743  TIP3      560             0.0000000000
     51512       960  TIP3      H2            -19.0744688966      -54.3866970668       32.4990414234  TIP3      560             0.0000000000
     51513       961  TIP3      OH2           -16.4090918324      -41.8246599716       37.2221700316  TIP3      561             0.0000000000
     51514       961  TIP3      H1            -17.2591250155      -41.6630797720       36.7796675196  TIP3      561             0.0000000000
     51515       961  TIP3      H2            -16.6824232245      -41.9184670108       38.1475692111  TIP3      561             0.0000000000
     51516       962  TIP3      OH2           -13.4907178209      -40.8585997549       33.5075622917  TIP3      562             0.0000000000
     51517       962  TIP3      H1            -13.8701099247      -40.0381515614       33.1858072039  TIP3      562             0.0000000000
     51518       962  TIP3      H2            -12.5672183608      -40.7768009214       33.1767727349  TIP3      562             0.0000000000
     51519       963  TIP3      OH2            -9.1784570390      -39.4469783308       36.4193915210  TIP3      563             0.0000000000
     51520       963  TIP3      H1             -9.0003523123      -39.7934483207       37.3300040332  TIP3      563             0.0000000000
     51521       963  TIP3      H2             -8.2942378483      -39.1448090875       36.1400791103  TIP3      563             0.0000000000
     51522       964  TIP3      OH2            -6.8623050216      -38.1734680188       35.6880224111  TIP3      564             0.0000000000
     51523       964  TIP3      H1             -6.1452281094      -38.7883655469       35.4592518200  TIP3      564             0.0000000000
     51524       964  TIP3      H2             -6.4973704120      -37.7605472096       36.5020388477  TIP3      564             0.0000000000
     51525       965  TIP3      OH2            -1.9074354053      -55.5443519518       34.8003886427  TIP3      565             0.0000000000
     51526       965  TIP3      H1             -2.7215938428      -55.2410674137       34.3834657394  TIP3      565             0.0000000000
     51527       965  TIP3      H2             -1.6762038997      -56.3439441920       34.2608506995  TIP3      565             0.0000000000
     51528       966  TIP3      OH2           -16.1163439787      -37.6319955948       33.4624873923  TIP3      566             0.0000000000
     51529       966  TIP3      H1            -16.8408284401      -37.1281770280       33.0417140365  TIP3      566             0.0000000000
     51530       966  TIP3      H2            -16.5147824069      -37.8482265342       34.3145393744  TIP3      566             0.0000000000
     51531       967  TIP3      OH2           -13.6013589050      -38.0090104123       32.5981073270  TIP3      567             0.0000000000
     51532       967  TIP3      H1            -14.5102751821      -37.9241485829       32.9200678705  TIP3      567             0.0000000000
     51533       967  TIP3      H2            -13.6570433825      -37.4611997201       31.7761577595  TIP3      567             0.0000000000
     51534       968  TIP3      OH2            -8.8981155657      -38.1284822868       31.7347570144  TIP3      568             0.0000000000
     51535       968  TIP3      H1             -9.3610854356      -37.5805452565       31.0821932639  TIP3      568             0.0000000000
     51536       968  TIP3      H2             -8.7468438785      -37.4986514624       32.4700205404  TIP3      568             0.0000000000
     51537       969  TIP3      OH2            -6.5799469149      -39.2801616131       32.7119794711  TIP3      569             0.0000000000
     51538       969  TIP3      H1             -7.4726909987      -39.0563951469       32.4057616748  TIP3      569             0.0000000000
     51539       969  TIP3      H2             -6.1464461974      -38.4143477878       32.6351058249  TIP3      569             0.0000000000
     51540       970  TIP3      OH2            -3.9799119741      -37.7109402679       32.9852990047  TIP3      570             0.0000000000
     51541       970  TIP3      H1             -4.1388125484      -36.7591277589       32.7671692977  TIP3      570             0.0000000000
     51542       970  TIP3      H2             -3.8066434210      -38.1052772198       32.1154595964  TIP3      570             0.0000000000
     51543       971  TIP3      OH2           -16.6444070953      -38.9619377744       30.4441489954  TIP3      571             0.0000000000
     51544       971  TIP3      H1            -16.6924244690      -39.4287184539       31.3005413402  TIP3      571             0.0000000000
     51545       971  TIP3      H2            -15.8338971586      -39.3230955692       30.0278737258  TIP3      571             0.0000000000
     51546       972  TIP3      OH2           -14.5392166313      -40.2589051907       29.0853011807  TIP3      572             0.0000000000
     51547       972  TIP3      H1            -14.7265326010      -41.1934086625       29.2893135567  TIP3      572             0.0000000000
     51548       972  TIP3      H2            -13.6855568624      -40.1272546324       29.5563307608  TIP3      572             0.0000000000
     51549       973  TIP3      OH2           -11.9672642765      -39.7815706140       29.9477344886  TIP3      573             0.0000000000
     51550       973  TIP3      H1            -11.7705626413      -40.6956799018       29.6759157814  TIP3      573             0.0000000000
     51551       973  TIP3      H2            -11.9025149054      -39.8444845358       30.9082277567  TIP3      573             0.0000000000
     51552       974  TIP3      OH2            -8.4882102270      -54.1209970015       29.0918554632  TIP3      574             0.0000000000
     51553       974  TIP3      H1             -9.1520679241      -54.7811838680       29.3485237173  TIP3      574             0.0000000000
     51554       974  TIP3      H2             -7.9148485451      -54.6342222292       28.5050398202  TIP3      574             0.0000000000
     51555       975  TIP3      OH2            -3.3464532573      -56.0504814487       29.1839368569  TIP3      575             0.0000000000
     51556       975  TIP3      H1             -2.7244949473      -55.4753680899       28.6814993951  TIP3      575             0.0000000000
     51557       975  TIP3      H2             -4.2270904855      -55.7072755433       28.9535884433  TIP3      575             0.0000000000
     51558       976  TIP3      OH2            -1.6298580617      -54.8722456691       27.4805070891  TIP3      576             0.0000000000
     51559       976  TIP3      H1             -0.9805827212      -55.4120234245       27.0158768180  TIP3      576             0.0000000000
     51560       976  TIP3      H2             -1.1979746978      -53.9935989591       27.5724022215  TIP3      576             0.0000000000
     51561       977  TIP3      OH2           -16.1528034749      -55.4547902207       26.9340623468  TIP3      577             0.0000000000
     51562       977  TIP3      H1            -16.9256404415      -55.7240055362       26.4155353483  TIP3      577             0.0000000000
     51563       977  TIP3      H2            -15.6358578891      -56.2966330181       26.9053726302  TIP3      577             0.0000000000
     51564       978  TIP3      OH2           -17.2897667087      -55.7206758061       22.7176622425  TIP3      578             0.0000000000
     51565       978  TIP3      H1            -16.8976825236      -55.0788005019       22.1075406520  TIP3      578             0.0000000000
     51566       978  TIP3      H2            -17.9394420639      -55.1664765542       23.1877611738  TIP3      578             0.0000000000
     51567       979  TIP3      OH2           -11.6110162485      -55.5772359137       26.7413729670  TIP3      579             0.0000000000
     51568       979  TIP3      H1            -10.7100711117      -55.2053024982       26.6873531082  TIP3      579             0.0000000000
     51569       979  TIP3      H2            -11.6935770189      -55.7902758571       27.6698617118  TIP3      579             0.0000000000
     51570       980  TIP3      OH2            -5.9534608218      -55.5106606011       28.3657498579  TIP3      580             0.0000000000
     51571       980  TIP3      H1             -5.9404570316      -55.4502211661       27.4102119060  TIP3      580             0.0000000000
     51572       980  TIP3      H2             -6.2933133827      -56.4333911294       28.4984106351  TIP3      580             0.0000000000
     51573       981  TIP3      OH2            -4.6333934389      -55.4929978606       24.0293702026  TIP3      581             0.0000000000
     51574       981  TIP3      H1             -5.3770341557      -54.8985222347       23.8571621059  TIP3      581             0.0000000000
     51575       981  TIP3      H2             -5.1162232552      -56.3361280740       24.2111593764  TIP3      581             0.0000000000
     51576       982  TIP3      OH2           -17.3985916493      -39.7737441061       23.6414022364  TIP3      582             0.0000000000
     51577       982  TIP3      H1            -18.1017805169      -39.7868370746       22.9587567901  TIP3      582             0.0000000000
     51578       982  TIP3      H2            -17.4196653541      -38.8421673825       23.8849128079  TIP3      582             0.0000000000
     51579       983  TIP3      OH2           -10.4848904234      -53.5328802330       23.5880671326  TIP3      583             0.0000000000
     51580       983  TIP3      H1            -10.2349783225      -54.1315458175       24.3026035550  TIP3      583             0.0000000000
     51581       983  TIP3      H2            -10.4402953211      -52.6675285762       24.0650848175  TIP3      583             0.0000000000
     51582       984  TIP3      OH2            -1.8398800608      -38.9696947440       24.7245196805  TIP3      584             0.0000000000
     51583       984  TIP3      H1             -2.0388685123      -39.7364495046       24.1365532868  TIP3      584             0.0000000000
     51584       984  TIP3      H2             -1.8933813544      -38.2265857662       24.0840286173  TIP3      584             0.0000000000
     51585       985  TIP3      OH2           -16.2054873287      -54.9618225556       36.4009780897  TIP3      585             0.0000000000
     51586       985  TIP3      H1            -16.5742859722      -55.7406622056       36.8559403667  TIP3      585             0.0000000000
     51587       985  TIP3      H2            -15.2796959155      -54.9698497080       36.7419329434  TIP3      585             0.0000000000
     51588       986  TIP3      OH2           -14.2126797676      -55.6037496518       37.9862885747  TIP3      586             0.0000000000
     51589       986  TIP3      H1            -13.3062924262      -55.9100536504       37.7917891221  TIP3      586             0.0000000000
     51590       986  TIP3      H2            -14.5848449711      -56.3833178144       38.4445633242  TIP3      586             0.0000000000
     51591       987  TIP3      OH2            -5.8042310276       56.5393107761       38.1480955606  TIP3      587             0.0000000000
     51592       987  TIP3      H1             -5.7259211577       56.0914585848       39.0158137033  TIP3      587             0.0000000000
     51593       987  TIP3      H2             -4.8966292648       56.5433461817       37.8250826662  TIP3      587             0.0000000000
     51594       988  TIP3      OH2            -2.6168925775      -40.2489482727       36.8616360804  TIP3      588             0.0000000000
     51595       988  TIP3      H1             -3.4128315280      -40.3995996919       36.3077661498  TIP3      588             0.0000000000
     51596       988  TIP3      H2             -2.7088950545      -39.2913335274       37.0488736049  TIP3      588             0.0000000000
     51597       989  TIP3      OH2            11.8307312144      -46.3784083604       26.8236275054  TIP3      589             0.0000000000
     51598       989  TIP3      H1             11.8496511393      -45.3910576966       26.7583141641  TIP3      589             0.0000000000
     51599       989  TIP3      H2             11.1068889080      -46.5932931987       26.2196282689  TIP3      589             0.0000000000
     51600       990  TIP3      OH2            10.7135300753      -47.0941855489       30.2980990224  TIP3      590             0.0000000000
     51601       990  TIP3      H1             10.6771137984      -47.7468234698       31.0049896080  TIP3      590             0.0000000000
     51602       990  TIP3      H2             10.3690918332      -47.5802739465       29.5356092858  TIP3      590             0.0000000000
     51603       991  TIP3      OH2             3.0631942085      -47.4569640095       31.8650629617  TIP3      591             0.0000000000
     51604       991  TIP3      H1              3.1342595370      -48.1112651674       32.5924219929  TIP3      591             0.0000000000
     51605       991  TIP3      H2              3.7898685692      -46.8489569067       32.0724904781  TIP3      591             0.0000000000
     51606       992  TIP3      OH2            14.4094363091      -44.1574659803       28.5826067696  TIP3      592             0.0000000000
     51607       992  TIP3      H1             13.9741229099      -44.8647764435       29.0681840131  TIP3      592             0.0000000000
     51608       992  TIP3      H2             14.4058576227      -43.4364918859       29.2425171920  TIP3      592             0.0000000000
     51609       993  TIP3      OH2             4.2205174178      -43.3913637980       30.3972701408  TIP3      593             0.0000000000
     51610       993  TIP3      H1              3.6774346407      -44.0158428227       29.9526627191  TIP3      593             0.0000000000
     51611       993  TIP3      H2              5.1383322822      -43.3032444152       30.3924033358  TIP3      593             0.0000000000
     51612       994  TIP3      OH2             0.6318644927      -49.3988019637       25.8303004617  TIP3      594             0.0000000000
     51613       994  TIP3      H1              0.1727536067      -48.5302573400       25.7924029234  TIP3      594             0.0000000000
     51614       994  TIP3      H2              0.0468500653      -49.9459784933       25.2907058476  TIP3      594             0.0000000000
     51615       995  TIP3      OH2             1.3177073850      -47.1980022832       27.9575082098  TIP3      595             0.0000000000
     51616       995  TIP3      H1              1.5658938605      -47.9964508725       28.4586304093  TIP3      595             0.0000000000
     51617       995  TIP3      H2              2.0547208391      -47.1105517303       27.3323792851  TIP3      595             0.0000000000
     51618       996  TIP3      OH2            11.5121935135      -39.0165287526       28.8142744843  TIP3      596             0.0000000000
     51619       996  TIP3      H1             12.1545690042      -39.7206619511       28.5393505510  TIP3      596             0.0000000000
     51620       996  TIP3      H2             11.3158506529      -39.2939122025       29.7080820713  TIP3      596             0.0000000000
     51621       997  TIP3      OH2             9.0767837514      -44.6721494295       30.7277461758  TIP3      597             0.0000000000
     51622       997  TIP3      H1              9.4143244797      -45.3401107476       30.1080700006  TIP3      597             0.0000000000
     51623       997  TIP3      H2              9.8467772262      -44.5424319326       31.3052217703  TIP3      597             0.0000000000
     51624       998  TIP3      OH2            17.7323552577      -53.0705065779       31.5326251001  TIP3      598             0.0000000000
     51625       998  TIP3      H1             17.8351818158      -52.4463506241       32.2864976649  TIP3      598             0.0000000000
     51626       998  TIP3      H2             18.2129479319      -52.5982523402       30.8370722220  TIP3      598             0.0000000000
     51627       999  TIP3      OH2            12.2453049182      -50.2388710576       31.0562495652  TIP3      599             0.0000000000
     51628       999  TIP3      H1             12.3936092147      -51.2052339066       31.0542250248  TIP3      599             0.0000000000
     51629       999  TIP3      H2             12.1336457695      -50.0788394411       30.1037417655  TIP3      599             0.0000000000
     51630      1000  TIP3      OH2             5.3815045220      -52.1584051155       28.3086423248  TIP3      600             0.0000000000
     51631      1000  TIP3      H1              5.4487241720      -51.3025743098       27.8524665741  TIP3      600             0.0000000000
     51632      1000  TIP3      H2              4.9464953469      -52.7242261655       27.6342587137  TIP3      600             0.0000000000
     51633      1001  TIP3      OH2            13.1004758190      -51.9944935123       26.6981808553  TIP3      601             0.0000000000
     51634      1001  TIP3      H1             13.7586920112      -52.3816735966       27.3366634606  TIP3      601             0.0000000000
     51635      1001  TIP3      H2             13.6748744086      -51.5361910389       26.0914096938  TIP3      601             0.0000000000
     51636      1002  TIP3      OH2             1.9932218646      -49.7463960602       29.0551126616  TIP3      602             0.0000000000
     51637      1002  TIP3      H1              2.6686991472      -50.3089160654       29.4906164152  TIP3      602             0.0000000000
     51638      1002  TIP3      H2              2.0617253975      -50.0462539630       28.1377664793  TIP3      602             0.0000000000
     51639      1003  TIP3      OH2             7.1626492676      -48.1919856941       28.3147524310  TIP3      603             0.0000000000
     51640      1003  TIP3      H1              7.8004339716      -48.7608311937       28.7740689679  TIP3      603             0.0000000000
     51641      1003  TIP3      H2              6.6003329952      -48.8571140167       27.8646671144  TIP3      603             0.0000000000
     51642      1004  TIP3      OH2            18.1840032986      -51.5749077438       33.7916914074  TIP3      604             0.0000000000
     51643      1004  TIP3      H1             17.4639424943      -50.9163585120       33.6841859672  TIP3      604             0.0000000000
     51644      1004  TIP3      H2             18.1497924390      -51.7747616187       34.7340681328  TIP3      604             0.0000000000
     51645      1005  TIP3      OH2             4.2383427052      -53.2640226044       32.3583679373  TIP3      605             0.0000000000
     51646      1005  TIP3      H1              3.9820716646      -52.6974566937       31.6028019099  TIP3      605             0.0000000000
     51647      1005  TIP3      H2              3.5512672876      -53.0069577612       33.0270273394  TIP3      605             0.0000000000
     51648      1006  TIP3      OH2            11.5780880010      -43.7714998539       25.9032848528  TIP3      606             0.0000000000
     51649      1006  TIP3      H1             11.2661291097      -44.0477692455       25.0416568166  TIP3      606             0.0000000000
     51650      1006  TIP3      H2             11.2567378608      -42.8437081783       25.9653093785  TIP3      606             0.0000000000
     51651      1007  TIP3      OH2             6.7834555512      -45.5975734040       32.6318644474  TIP3      607             0.0000000000
     51652      1007  TIP3      H1              6.0479794514      -44.9589588191       32.7755518411  TIP3      607             0.0000000000
     51653      1007  TIP3      H2              7.4869079080      -45.0070451230       32.3264182670  TIP3      607             0.0000000000
     51654      1008  TIP3      OH2            14.8814967911      -52.7099556513       28.6508286853  TIP3      608             0.0000000000
     51655      1008  TIP3      H1             14.6685221089      -53.4834700720       29.2021269040  TIP3      608             0.0000000000
     51656      1008  TIP3      H2             15.5537013236      -52.2767697669       29.2069319291  TIP3      608             0.0000000000
     51657      1009  TIP3      OH2             3.7964509876      -51.3601462126       30.3386773187  TIP3      609             0.0000000000
     51658      1009  TIP3      H1              4.4426545715      -50.7081895760       30.6931460293  TIP3      609             0.0000000000
     51659      1009  TIP3      H2              4.3337320885      -51.8233667345       29.6528880449  TIP3      609             0.0000000000
     51660      1010  TIP3      OH2             5.2177657219      -43.6188346324       33.4400153442  TIP3      610             0.0000000000
     51661      1010  TIP3      H1              5.1649246321      -42.7150358513       33.0562999581  TIP3      610             0.0000000000
     51662      1010  TIP3      H2              4.3209333326      -43.6812084227       33.8591098651  TIP3      610             0.0000000000
     51663      1011  TIP3      OH2             1.2911365049      -43.9642235142       24.2117441888  TIP3      611             0.0000000000
     51664      1011  TIP3      H1              1.0514625030      -43.6805996237       23.3177323747  TIP3      611             0.0000000000
     51665      1011  TIP3      H2              1.3679943371      -43.1107603246       24.6962810991  TIP3      611             0.0000000000
     51666      1012  TIP3      OH2            14.9311324782      -42.3259822228       30.9491529142  TIP3      612             0.0000000000
     51667      1012  TIP3      H1             13.9650372463      -42.2338678811       31.0918104193  TIP3      612             0.0000000000
     51668      1012  TIP3      H2             15.1973636654      -41.3990540741       30.7843859122  TIP3      612             0.0000000000
     51669      1013  TIP3      OH2            15.2487239407      -54.0401919880       32.3738606111  TIP3      613             0.0000000000
     51670      1013  TIP3      H1             14.5063989304      -53.4238028531       32.2976953901  TIP3      613             0.0000000000
     51671      1013  TIP3      H2             15.9319819282      -53.6227685237       31.8290290812  TIP3      613             0.0000000000
     51672      1014  TIP3      OH2             8.2456675240      -55.9142357047       29.8047115367  TIP3      614             0.0000000000
     51673      1014  TIP3      H1              8.1113283747      -56.8857248128       29.7553601247  TIP3      614             0.0000000000
     51674      1014  TIP3      H2              7.3657194715      -55.6172173992       30.0984586009  TIP3      614             0.0000000000
     51675      1015  TIP3      OH2            13.1685869744      -40.5374676658       27.5622665877  TIP3      615             0.0000000000
     51676      1015  TIP3      H1             13.6156704318      -41.2475452499       27.0626582481  TIP3      615             0.0000000000
     51677      1015  TIP3      H2             13.5431015504      -39.7321584197       27.1481983599  TIP3      615             0.0000000000
     51678      1016  TIP3      OH2            14.3547151375      -42.6089572455       26.0724088592  TIP3      616             0.0000000000
     51679      1016  TIP3      H1             14.0941649555      -43.3159439530       25.4639693222  TIP3      616             0.0000000000
     51680      1016  TIP3      H2             14.4132031442      -43.0925522768       26.9156503583  TIP3      616             0.0000000000
     51681      1017  TIP3      OH2            16.0187969659      -44.0432947730       34.5619233625  TIP3      617             0.0000000000
     51682      1017  TIP3      H1             16.1624617519      -44.6645583180       33.8149103172  TIP3      617             0.0000000000
     51683      1017  TIP3      H2             16.1980161980      -43.1775514142       34.1636896511  TIP3      617             0.0000000000
     51684      1018  TIP3      OH2            10.5135909748      -47.1328040150       24.3178446894  TIP3      618             0.0000000000
     51685      1018  TIP3      H1              9.7858096222      -46.5592054275       23.9922291291  TIP3      618             0.0000000000
     51686      1018  TIP3      H2             11.2092486019      -47.0231695534       23.6529496960  TIP3      618             0.0000000000
     51687      1019  TIP3      OH2            17.8940544428      -47.7197798071       32.6299382803  TIP3      619             0.0000000000
     51688      1019  TIP3      H1             17.2156820518      -47.0117009321       32.6774774066  TIP3      619             0.0000000000
     51689      1019  TIP3      H2             18.3454827426      -47.4941993676       31.7939845039  TIP3      619             0.0000000000
     51690      1020  TIP3      OH2            13.8886400125      -46.9673297108       25.2379619509  TIP3      620             0.0000000000
     51691      1020  TIP3      H1             13.1954853997      -46.6282432329       25.8714743370  TIP3      620             0.0000000000
     51692      1020  TIP3      H2             14.4269856445      -47.5588323421       25.7830950122  TIP3      620             0.0000000000
     51693      1021  TIP3      OH2            13.8483405143      -48.7432092008       34.3524473213  TIP3      621             0.0000000000
     51694      1021  TIP3      H1             13.8764593677      -47.9405817619       34.9024729713  TIP3      621             0.0000000000
     51695      1021  TIP3      H2             13.2149903894      -48.4394591973       33.6637071137  TIP3      621             0.0000000000
     51696      1022  TIP3      OH2             5.5605163958      -46.2434829399       27.1618721608  TIP3      622             0.0000000000
     51697      1022  TIP3      H1              5.2268212024      -46.6383020555       26.3252330743  TIP3      622             0.0000000000
     51698      1022  TIP3      H2              6.1588024790      -46.9466070313       27.5018634415  TIP3      622             0.0000000000
     51699      1023  TIP3      OH2             6.9158436764      -42.8278776228       29.8362702873  TIP3      623             0.0000000000
     51700      1023  TIP3      H1              6.8339879789      -43.4075570288       29.0695435906  TIP3      623             0.0000000000
     51701      1023  TIP3      H2              7.6572357048      -43.2200552387       30.3198679932  TIP3      623             0.0000000000
     51702      1024  TIP3      OH2             5.9029352187      -47.5063056055       30.8035316037  TIP3      624             0.0000000000
     51703      1024  TIP3      H1              6.4753037370      -47.3784535378       30.0238392354  TIP3      624             0.0000000000
     51704      1024  TIP3      H2              6.2528914926      -46.8452752114       31.4332535964  TIP3      624             0.0000000000
     51705      1025  TIP3      OH2            12.2686832685      -41.9580334990       31.5171098732  TIP3      625             0.0000000000
     51706      1025  TIP3      H1             11.9959899455      -41.3219406266       32.1806900039  TIP3      625             0.0000000000
     51707      1025  TIP3      H2             12.0318004439      -42.8156195370       31.9544576752  TIP3      625             0.0000000000
     51708      1026  TIP3      OH2             6.8187822808      -43.0875077863       35.5096951108  TIP3      626             0.0000000000
     51709      1026  TIP3      H1              6.4608157961      -42.3144545363       35.9843165565  TIP3      626             0.0000000000
     51710      1026  TIP3      H2              6.1409613521      -43.2564079519       34.8084492277  TIP3      626             0.0000000000
     51711      1027  TIP3      OH2            12.7773748343      -47.6883611542       23.0131723352  TIP3      627             0.0000000000
     51712      1027  TIP3      H1             13.4077574519      -47.5203304806       23.7382384021  TIP3      627             0.0000000000
     51713      1027  TIP3      H2             13.2295656681      -47.2528481479       22.2594021994  TIP3      627             0.0000000000
     51714      1028  TIP3      OH2             3.7522075315      -46.9139988488       34.7090688938  TIP3      628             0.0000000000
     51715      1028  TIP3      H1              3.7962982738      -46.2453247069       35.4253000914  TIP3      628             0.0000000000
     51716      1028  TIP3      H2              2.8307660267      -46.8028213459       34.4296011300  TIP3      628             0.0000000000
     51717      1029  TIP3      OH2            10.5193602461      -41.0021064724       26.3883302694  TIP3      629             0.0000000000
     51718      1029  TIP3      H1             10.9744871112      -40.6913146113       27.1831835045  TIP3      629             0.0000000000
     51719      1029  TIP3      H2              9.9548237320      -40.2495855141       26.1632306800  TIP3      629             0.0000000000
     51720      1030  TIP3      OH2             5.0692895642      -41.0291680407       36.2817135336  TIP3      630             0.0000000000
     51721      1030  TIP3      H1              5.0338597599      -41.1527777470       35.3117244954  TIP3      630             0.0000000000
     51722      1030  TIP3      H2              4.1277581228      -41.1524170686       36.5185396702  TIP3      630             0.0000000000
     51723      1031  TIP3      OH2            16.4949366351      -55.9418061602       22.8118685040  TIP3      631             0.0000000000
     51724      1031  TIP3      H1             15.5499047424      -55.8248000056       23.0684138372  TIP3      631             0.0000000000
     51725      1031  TIP3      H2             16.7165751418      -55.1165273564       22.3859687457  TIP3      631             0.0000000000
     51726      1032  TIP3      OH2             4.5493282076      -47.2237814641       24.7533439031  TIP3      632             0.0000000000
     51727      1032  TIP3      H1              4.2447213429      -46.4251264172       24.2650586677  TIP3      632             0.0000000000
     51728      1032  TIP3      H2              3.8565387084      -47.8620388129       24.5828461152  TIP3      632             0.0000000000
     51729      1033  TIP3      OH2            17.6837145683      -41.6121235152       21.2935947377  TIP3      633             0.0000000000
     51730      1033  TIP3      H1             17.7402963956      -40.6750136160       21.2791917369  TIP3      633             0.0000000000
     51731      1033  TIP3      H2             18.5679832843      -41.9500405136       21.0706322225  TIP3      633             0.0000000000
     51732      1034  TIP3      OH2             0.6230133035      -44.8109364462       33.6213287752  TIP3      634             0.0000000000
     51733      1034  TIP3      H1              0.1544974883      -44.8654439908       32.7661428745  TIP3      634             0.0000000000
     51734      1034  TIP3      H2              0.6605614896      -45.7499131398       33.8676015125  TIP3      634             0.0000000000
     51735      1035  TIP3      OH2             0.2773509440      -42.0969158473       30.4398890220  TIP3      635             0.0000000000
     51736      1035  TIP3      H1              1.2829739706      -42.1825332082       30.4258147954  TIP3      635             0.0000000000
     51737      1035  TIP3      H2              0.2954906956      -41.2819883778       30.9657205398  TIP3      635             0.0000000000
     51738      1036  TIP3      OH2            18.6084362666      -41.3705022454       36.1135241969  TIP3      636             0.0000000000
     51739      1036  TIP3      H1             18.5149346616      -42.3337442369       36.1069925085  TIP3      636             0.0000000000
     51740      1036  TIP3      H2             17.7492347664      -41.1220399343       36.5387312521  TIP3      636             0.0000000000
     51741      1037  TIP3      OH2             9.5726859131      -41.8194978871       34.9956320662  TIP3      637             0.0000000000
     51742      1037  TIP3      H1              9.6434286949      -40.9768572321       35.5006494835  TIP3      637             0.0000000000
     51743      1037  TIP3      H2              8.6953923363      -42.1566440225       35.2555182015  TIP3      637             0.0000000000
     51744      1038  TIP3      OH2             9.9998086260      -38.0683363084       24.8049572138  TIP3      638             0.0000000000
     51745      1038  TIP3      H1              9.8957135085      -38.1578498396       23.8520334542  TIP3      638             0.0000000000
     51746      1038  TIP3      H2             10.0146843633      -37.0985383011       24.9450380119  TIP3      638             0.0000000000
     51747      1039  TIP3      OH2             3.6439600418      -39.2055083400       26.5891130340  TIP3      639             0.0000000000
     51748      1039  TIP3      H1              3.7933776796      -39.6110530915       27.4825760778  TIP3      639             0.0000000000
     51749      1039  TIP3      H2              2.7922790217      -39.6097691821       26.3666609227  TIP3      639             0.0000000000
     51750      1040  TIP3      OH2            13.0857020977      -38.8817328631       21.7898677754  TIP3      640             0.0000000000
     51751      1040  TIP3      H1             13.4683821767      -39.6377648587       21.3362797585  TIP3      640             0.0000000000
     51752      1040  TIP3      H2             13.0848793141      -39.1621098961       22.7167162785  TIP3      640             0.0000000000
     51753      1041  TIP3      OH2            12.7513126978      -38.9449834415       24.5620251285  TIP3      641             0.0000000000
     51754      1041  TIP3      H1             11.8005274315      -38.8590582164       24.7516314401  TIP3      641             0.0000000000
     51755      1041  TIP3      H2             13.0206424295      -39.6716981176       25.1390841136  TIP3      641             0.0000000000
     51756      1042  TIP3      OH2            15.7653100758      -49.8850394347       36.6027165460  TIP3      642             0.0000000000
     51757      1042  TIP3      H1             15.3032433599      -49.4226845596       35.8851495223  TIP3      642             0.0000000000
     51758      1042  TIP3      H2             15.7579943572      -50.8069306962       36.2975012798  TIP3      642             0.0000000000
     51759      1043  TIP3      OH2             2.8967712228      -43.4974906325       34.6153270418  TIP3      643             0.0000000000
     51760      1043  TIP3      H1              3.1131045969      -43.8674615062       35.4870491706  TIP3      643             0.0000000000
     51761      1043  TIP3      H2              2.0260177657      -43.8784457164       34.3852484512  TIP3      643             0.0000000000
     51762      1044  TIP3      OH2             5.5527682815      -55.0098967608       30.5527549247  TIP3      644             0.0000000000
     51763      1044  TIP3      H1              4.6450686794      -55.1201213537       30.1826601931  TIP3      644             0.0000000000
     51764      1044  TIP3      H2              5.4689338213      -54.1723121148       31.0343310216  TIP3      644             0.0000000000
     51765      1045  TIP3      OH2            10.1943834552      -55.3095765698       33.9606394746  TIP3      645             0.0000000000
     51766      1045  TIP3      H1             10.6045720305      -55.7426279453       34.7310091277  TIP3      645             0.0000000000
     51767      1045  TIP3      H2              9.2300850703      -55.4839907212       34.0912245058  TIP3      645             0.0000000000
     51768      1046  TIP3      OH2            13.5046388891      -51.5513865147       34.8220706742  TIP3      646             0.0000000000
     51769      1046  TIP3      H1             12.9610271442      -51.6992250335       35.6289351970  TIP3      646             0.0000000000
     51770      1046  TIP3      H2             13.3387263604      -50.6248146841       34.5820574849  TIP3      646             0.0000000000
     51771      1047  TIP3      OH2             5.6385830213      -50.0737674178       31.7447083329  TIP3      647             0.0000000000
     51772      1047  TIP3      H1              4.9414381191      -50.0873122610       32.4266444386  TIP3      647             0.0000000000
     51773      1047  TIP3      H2              5.6322604390      -49.1359861950       31.4491764354  TIP3      647             0.0000000000
     51774      1048  TIP3      OH2             5.6156450957      -49.8643331295       26.6383615559  TIP3      648             0.0000000000
     51775      1048  TIP3      H1              4.6960471324      -50.1895123997       26.5436795592  TIP3      648             0.0000000000
     51776      1048  TIP3      H2              6.0426252514      -50.2303299285       25.8417361875  TIP3      648             0.0000000000
     51777      1049  TIP3      OH2            10.9567567148      -49.4637838565       25.4262546221  TIP3      649             0.0000000000
     51778      1049  TIP3      H1             10.6457501551      -48.5783716856       25.1279784913  TIP3      649             0.0000000000
     51779      1049  TIP3      H2             11.6202320736      -49.6566785734       24.7670339033  TIP3      649             0.0000000000
     51780      1050  TIP3      OH2            10.2304684775      -49.2287468912       36.8977904637  TIP3      650             0.0000000000
     51781      1050  TIP3      H1              9.6746292777      -49.9795658767       37.2203460820  TIP3      650             0.0000000000
     51782      1050  TIP3      H2             11.0615610229      -49.3652812826       37.3793846420  TIP3      650             0.0000000000
     51783      1051  TIP3      OH2            12.1810390776      -49.9536306438       28.2546369665  TIP3      651             0.0000000000
     51784      1051  TIP3      H1             11.8992398563      -49.3744773859       27.5459886187  TIP3      651             0.0000000000
     51785      1051  TIP3      H2             12.2986105743      -50.8249025527       27.8205197850  TIP3      651             0.0000000000
     51786      1052  TIP3      OH2             3.3278238064      -49.7602331542       33.5302471337  TIP3      652             0.0000000000
     51787      1052  TIP3      H1              3.3329120597      -49.3614431263       34.4181309907  TIP3      652             0.0000000000
     51788      1052  TIP3      H2              2.8527765132      -50.5896093452       33.6770434598  TIP3      652             0.0000000000
     51789      1053  TIP3      OH2            -0.0464814261      -52.6401640433       27.4328835633  TIP3      653             0.0000000000
     51790      1053  TIP3      H1              0.6094272220      -52.6835447159       28.1580380821  TIP3      653             0.0000000000
     51791      1053  TIP3      H2              0.4169527966      -53.0578464718       26.6917819773  TIP3      653             0.0000000000
     51792      1054  TIP3      OH2            11.3967317062      -48.3383477865       32.8863282539  TIP3      654             0.0000000000
     51793      1054  TIP3      H1             11.7425416191      -49.0050125187       32.2640990498  TIP3      654             0.0000000000
     51794      1054  TIP3      H2             10.9472347013      -48.8836044051       33.5562889734  TIP3      654             0.0000000000
     51795      1055  TIP3      OH2             8.1889851496      -52.4023306987       27.6869280678  TIP3      655             0.0000000000
     51796      1055  TIP3      H1              7.2565258995      -52.3712395745       27.9831171187  TIP3      655             0.0000000000
     51797      1055  TIP3      H2              8.6872192365      -52.5068285445       28.5109951699  TIP3      655             0.0000000000
     51798      1056  TIP3      OH2             3.0133670926      -50.7933766478       26.5146201136  TIP3      656             0.0000000000
     51799      1056  TIP3      H1              2.1021683811      -50.6899567295       26.1752037007  TIP3      656             0.0000000000
     51800      1056  TIP3      H2              3.3039995403      -51.6553799931       26.1791145767  TIP3      656             0.0000000000
     51801      1057  TIP3      OH2             6.6191206978      -50.7691924742       24.1813918104  TIP3      657             0.0000000000
     51802      1057  TIP3      H1              7.5811317415      -50.6875196961       24.3651412478  TIP3      657             0.0000000000
     51803      1057  TIP3      H2              6.4562753191      -50.1071869861       23.5220284990  TIP3      657             0.0000000000
     51804      1058  TIP3      OH2            12.6042486558      -53.1644626954       30.9323931032  TIP3      658             0.0000000000
     51805      1058  TIP3      H1             11.9044842743      -53.0600567533       31.6161496332  TIP3      658             0.0000000000
     51806      1058  TIP3      H2             12.0942914376      -53.3647723351       30.1401491811  TIP3      658             0.0000000000
     51807      1059  TIP3      OH2            15.8417745292      -37.5178151165       37.2408567044  TIP3      659             0.0000000000
     51808      1059  TIP3      H1             16.0945444496      -37.1291217165       36.3679551279  TIP3      659             0.0000000000
     51809      1059  TIP3      H2             16.5894036612      -37.2303434181       37.8073240572  TIP3      659             0.0000000000
     51810      1060  TIP3      OH2             3.4866273575      -45.0500916086       36.8306788041  TIP3      660             0.0000000000
     51811      1060  TIP3      H1              4.1977358636      -44.7820715707       37.4326982896  TIP3      660             0.0000000000
     51812      1060  TIP3      H2              2.6883285910      -44.8722107795       37.3796288640  TIP3      660             0.0000000000
     51813      1061  TIP3      OH2             9.4883108575      -49.6224243713       29.5736863288  TIP3      661             0.0000000000
     51814      1061  TIP3      H1             10.0628053443      -50.1785433998       29.0421208613  TIP3      661             0.0000000000
     51815      1061  TIP3      H2              9.3426289321      -50.1586693939       30.3663731512  TIP3      661             0.0000000000
     51816      1062  TIP3      OH2             4.4775929332      -53.4757347802       25.9857658993  TIP3      662             0.0000000000
     51817      1062  TIP3      H1              4.1872909268      -54.4026195116       25.9836859786  TIP3      662             0.0000000000
     51818      1062  TIP3      H2              5.2854708590      -53.5192275842       25.4538352230  TIP3      662             0.0000000000
     51819      1063  TIP3      OH2             8.1185850060      -51.2614164253       31.9872621997  TIP3      663             0.0000000000
     51820      1063  TIP3      H1              7.2815201996      -50.7729259005       32.1010659930  TIP3      663             0.0000000000
     51821      1063  TIP3      H2              8.6598055753      -50.9581110492       32.7421798738  TIP3      663             0.0000000000
     51822      1064  TIP3      OH2             8.7082695818      -45.0647231992       23.6713411857  TIP3      664             0.0000000000
     51823      1064  TIP3      H1              7.9011707864      -45.5356477507       23.3618313621  TIP3      664             0.0000000000
     51824      1064  TIP3      H2              8.5054150321      -44.9683188260       24.6279154453  TIP3      664             0.0000000000
     51825      1065  TIP3      OH2            15.8486678966      -45.8936345469       32.4877179305  TIP3      665             0.0000000000
     51826      1065  TIP3      H1             16.4530385315      -45.4183698459       31.8934545091  TIP3      665             0.0000000000
     51827      1065  TIP3      H2             14.9998336752      -45.7934409696       32.0063584144  TIP3      665             0.0000000000
     51828      1066  TIP3      OH2            12.5649526759      -52.2143973088       21.8976019043  TIP3      666             0.0000000000
     51829      1066  TIP3      H1             11.6155963049      -52.1237083970       21.7103988578  TIP3      666             0.0000000000
     51830      1066  TIP3      H2             12.8643995769      -51.3564806321       22.1878527536  TIP3      666             0.0000000000
     51831      1067  TIP3      OH2            10.1900107650      -44.8321826802       34.9206797236  TIP3      667             0.0000000000
     51832      1067  TIP3      H1              9.8444332812      -45.2276875182       35.7293456002  TIP3      667             0.0000000000
     51833      1067  TIP3      H2              9.9708323259      -43.8996801181       35.0069706609  TIP3      667             0.0000000000
     51834      1068  TIP3      OH2            13.2772195127      -50.3295715527       23.5577318926  TIP3      668             0.0000000000
     51835      1068  TIP3      H1             14.2022699232      -50.5185073122       23.8315634671  TIP3      668             0.0000000000
     51836      1068  TIP3      H2             13.3578919404      -49.5706931692       22.9616755884  TIP3      668             0.0000000000
     51837      1069  TIP3      OH2             3.7725848683      -45.7515841238       29.4374570207  TIP3      669             0.0000000000
     51838      1069  TIP3      H1              4.5295086810      -45.7419005161       28.8288716123  TIP3      669             0.0000000000
     51839      1069  TIP3      H2              3.8790266837      -46.5617602174       29.9454333017  TIP3      669             0.0000000000
     51840      1070  TIP3      OH2            10.8015205580      -43.5918086076       22.7096091148  TIP3      670             0.0000000000
     51841      1070  TIP3      H1             10.4932126181      -42.7582866577       23.0949259357  TIP3      670             0.0000000000
     51842      1070  TIP3      H2             10.0640460193      -44.1986500896       22.9272343637  TIP3      670             0.0000000000
     51843      1071  TIP3      OH2             0.7959502001      -47.2637808045       34.7561505632  TIP3      671             0.0000000000
     51844      1071  TIP3      H1              1.0084968700      -47.7039725373       35.6035042286  TIP3      671             0.0000000000
     51845      1071  TIP3      H2              0.1882178074      -47.8924548715       34.3307795740  TIP3      671             0.0000000000
     51846      1072  TIP3      OH2             7.8127817946      -47.7318569936       36.9681054447  TIP3      672             0.0000000000
     51847      1072  TIP3      H1              7.5149309518      -47.9584718984       36.0763560015  TIP3      672             0.0000000000
     51848      1072  TIP3      H2              8.7532011011      -47.9995904536       36.9509727759  TIP3      672             0.0000000000
     51849      1073  TIP3      OH2            12.4701741329      -42.3804167420       34.8625259544  TIP3      673             0.0000000000
     51850      1073  TIP3      H1             11.5453939518      -42.1963427918       34.6239960307  TIP3      673             0.0000000000
     51851      1073  TIP3      H2             12.4633660248      -42.1066805951       35.7994483364  TIP3      673             0.0000000000
     51852      1074  TIP3      OH2            18.1415902743      -50.1619530304       23.2744551819  TIP3      674             0.0000000000
     51853      1074  TIP3      H1             17.6311095135      -50.5355100765       22.5466452695  TIP3      674             0.0000000000
     51854      1074  TIP3      H2             18.2779889497      -49.2332015456       22.9582678825  TIP3      674             0.0000000000
     51855      1075  TIP3      OH2            18.1526393233      -44.3501161063       36.0874744463  TIP3      675             0.0000000000
     51856      1075  TIP3      H1             17.2715293904      -44.1073983021       35.7076507239  TIP3      675             0.0000000000
     51857      1075  TIP3      H2             18.7163072712      -44.3515945950       35.2931268138  TIP3      675             0.0000000000
     51858      1076  TIP3      OH2            16.4856586717      -41.3509166061       23.6984588297  TIP3      676             0.0000000000
     51859      1076  TIP3      H1             16.0868248546      -42.1753174745       24.0074011286  TIP3      676             0.0000000000
     51860      1076  TIP3      H2             16.7290739162      -41.5645378575       22.7755974470  TIP3      676             0.0000000000
     51861      1077  TIP3      OH2            13.6460657725      -46.5376743686       30.7494211168  TIP3      677             0.0000000000
     51862      1077  TIP3      H1             12.7026877422      -46.7725012855       30.6870874133  TIP3      677             0.0000000000
     51863      1077  TIP3      H2             14.0832637009      -47.3232185163       30.3777386241  TIP3      677             0.0000000000
     51864      1078  TIP3      OH2             6.1868999306      -42.2364557386       26.8443590070  TIP3      678             0.0000000000
     51865      1078  TIP3      H1              6.6826485012      -41.4212083216       26.6640498357  TIP3      678             0.0000000000
     51866      1078  TIP3      H2              5.2905417236      -41.9848776238       26.5666344976  TIP3      678             0.0000000000
     51867      1079  TIP3      OH2             1.9601038767      -47.3992607449       21.4623584014  TIP3      679             0.0000000000
     51868      1079  TIP3      H1              2.5288407326      -46.6990714242       21.8134928576  TIP3      679             0.0000000000
     51869      1079  TIP3      H2              1.0742616619      -47.0537468422       21.7059232586  TIP3      679             0.0000000000
     51870      1080  TIP3      OH2             7.6154568486      -44.5576784011       26.4003887472  TIP3      680             0.0000000000
     51871      1080  TIP3      H1              7.3265746676      -43.6278599019       26.4809564764  TIP3      680             0.0000000000
     51872      1080  TIP3      H2              6.8637754732      -45.0228965683       26.8290882469  TIP3      680             0.0000000000
     51873      1081  TIP3      OH2             8.0756437757      -40.3911095124       32.7697339440  TIP3      681             0.0000000000
     51874      1081  TIP3      H1              8.4892663818      -39.5516634373       32.5130309858  TIP3      681             0.0000000000
     51875      1081  TIP3      H2              8.6587918193      -40.7008438257       33.4866367639  TIP3      681             0.0000000000
     51876      1082  TIP3      OH2             6.2910470420      -39.5682954191       25.9897589411  TIP3      682             0.0000000000
     51877      1082  TIP3      H1              5.3205864890      -39.4270145592       26.0400074509  TIP3      682             0.0000000000
     51878      1082  TIP3      H2              6.6323777092      -38.7132446641       26.3021984215  TIP3      682             0.0000000000
     51879      1083  TIP3      OH2            11.6256998358      -44.3290554038       32.4336248760  TIP3      683             0.0000000000
     51880      1083  TIP3      H1             11.2334233039      -44.5453225641       33.3008069777  TIP3      683             0.0000000000
     51881      1083  TIP3      H2             12.2332065250      -45.0631617216       32.2596643659  TIP3      683             0.0000000000
     51882      1084  TIP3      OH2            13.8608841213      -43.3798632101       21.5183132501  TIP3      684             0.0000000000
     51883      1084  TIP3      H1             14.2128964872      -43.7707710215       22.3333774624  TIP3      684             0.0000000000
     51884      1084  TIP3      H2             12.9114945813      -43.4517754676       21.6064276378  TIP3      684             0.0000000000
     51885      1085  TIP3      OH2            14.3457675295      -39.7588949605       34.9381224982  TIP3      685             0.0000000000
     51886      1085  TIP3      H1             13.7083188639      -40.2961476185       34.4225016307  TIP3      685             0.0000000000
     51887      1085  TIP3      H2             14.5840417812      -39.0905988571       34.2613163210  TIP3      685             0.0000000000
     51888      1086  TIP3      OH2             2.4532549020      -52.5258511544       34.3100974188  TIP3      686             0.0000000000
     51889      1086  TIP3      H1              1.5419916903      -52.1842866719       34.2736591201  TIP3      686             0.0000000000
     51890      1086  TIP3      H2              2.3291584565      -53.3831301224       34.7485552775  TIP3      686             0.0000000000
     51891      1087  TIP3      OH2            14.6950305394      -44.6850694581       23.7650345337  TIP3      687             0.0000000000
     51892      1087  TIP3      H1             14.4610560906      -45.4423132400       24.3140076084  TIP3      687             0.0000000000
     51893      1087  TIP3      H2             15.6528447955      -44.5965259032       23.9344466648  TIP3      687             0.0000000000
     51894      1088  TIP3      OH2             1.7733850672      -40.7426568192       33.1975072258  TIP3      688             0.0000000000
     51895      1088  TIP3      H1              2.2710464762      -41.5024533860       32.7391989423  TIP3      688             0.0000000000
     51896      1088  TIP3      H2              2.4438920458      -40.4096706122       33.7503319718  TIP3      688             0.0000000000
     51897      1089  TIP3      OH2             6.8696125196      -42.6848641798       22.4457087502  TIP3      689             0.0000000000
     51898      1089  TIP3      H1              7.0403645089      -43.2206933184       23.2238039015  TIP3      689             0.0000000000
     51899      1089  TIP3      H2              6.8939749811      -41.7692281900       22.7441351695  TIP3      689             0.0000000000
     51900      1090  TIP3      OH2             3.3373816528      -45.4678220201       22.9375370283  TIP3      690             0.0000000000
     51901      1090  TIP3      H1              2.6509249154      -45.0652985179       23.5048291450  TIP3      690             0.0000000000
     51902      1090  TIP3      H2              3.8577272596      -44.6789718827       22.6726392226  TIP3      690             0.0000000000
     51903      1091  TIP3      OH2            11.1715197132      -52.7706655152       33.2270635974  TIP3      691             0.0000000000
     51904      1091  TIP3      H1             11.8818219278      -52.7112945325       33.8794224783  TIP3      691             0.0000000000
     51905      1091  TIP3      H2             10.7901813380      -53.6532000824       33.4056524032  TIP3      691             0.0000000000
     51906      1092  TIP3      OH2            11.9380602856      -53.1307460912       24.3511668523  TIP3      692             0.0000000000
     51907      1092  TIP3      H1             12.1630125543      -52.6960276385       23.4979388248  TIP3      692             0.0000000000
     51908      1092  TIP3      H2             12.5260898492      -52.7374942469       24.9868847989  TIP3      692             0.0000000000
     51909      1093  TIP3      OH2             9.1402954787      -51.4137385738       25.1367233766  TIP3      693             0.0000000000
     51910      1093  TIP3      H1              9.9500769698      -50.8830271329       25.1998279949  TIP3      693             0.0000000000
     51911      1093  TIP3      H2              8.8923175970      -51.5662494518       26.0673955843  TIP3      693             0.0000000000
     51912      1094  TIP3      OH2             9.6980386349      -50.4224596085       34.3357638293  TIP3      694             0.0000000000
     51913      1094  TIP3      H1              9.7978455916      -49.8422094636       35.1148175229  TIP3      694             0.0000000000
     51914      1094  TIP3      H2             10.3589707124      -51.1152812682       34.4497052986  TIP3      694             0.0000000000
     51915      1095  TIP3      OH2            10.0236793854      -54.3293511466       26.0900944945  TIP3      695             0.0000000000
     51916      1095  TIP3      H1              9.6773737171      -53.6941197355       26.7239021915  TIP3      695             0.0000000000
     51917      1095  TIP3      H2             10.6997684093      -53.8107403848       25.5966656945  TIP3      695             0.0000000000
     51918      1096  TIP3      OH2             5.6689232844      -53.2509210262       22.7591945536  TIP3      696             0.0000000000
     51919      1096  TIP3      H1              5.6352527808      -52.3667950183       23.1370339409  TIP3      696             0.0000000000
     51920      1096  TIP3      H2              6.5910901652      -53.5136344698       22.9919220704  TIP3      696             0.0000000000
     51921      1097  TIP3      OH2            15.9073155728      -52.5181080255       35.1889964738  TIP3      697             0.0000000000
     51922      1097  TIP3      H1             14.9668075816      -52.2354989765       35.0697875129  TIP3      697             0.0000000000
     51923      1097  TIP3      H2             16.2163510549      -52.5268365356       34.2687960098  TIP3      697             0.0000000000
     51924      1098  TIP3      OH2            14.5004408515      -48.7550256036       29.2166993485  TIP3      698             0.0000000000
     51925      1098  TIP3      H1             13.6794714113      -49.1903420504       28.9485572399  TIP3      698             0.0000000000
     51926      1098  TIP3      H2             14.9590721403      -49.4460779994       29.7551989051  TIP3      698             0.0000000000
     51927      1099  TIP3      OH2             3.9237582741      -42.8421988193       21.8319189953  TIP3      699             0.0000000000
     51928      1099  TIP3      H1              4.5504622983      -42.1579709506       22.1030316361  TIP3      699             0.0000000000
     51929      1099  TIP3      H2              4.4321894410      -43.2739368478       21.1120170824  TIP3      699             0.0000000000
     51930      1100  TIP3      OH2            15.5666216607      -39.5109971257       30.8905614295  TIP3      700             0.0000000000
     51931      1100  TIP3      H1             15.4486914038      -38.8174226905       30.2111816189  TIP3      700             0.0000000000
     51932      1100  TIP3      H2             16.5274247787      -39.4323261066       31.0739448133  TIP3      700             0.0000000000
     51933      1101  TIP3      OH2             3.0944716925      -55.3413483489       29.6341189002  TIP3      701             0.0000000000
     51934      1101  TIP3      H1              2.8458341445      -55.3252464870       28.6853813966  TIP3      701             0.0000000000
     51935      1101  TIP3      H2              2.6380258820      -56.1702971285       29.9251852152  TIP3      701             0.0000000000
     51936      1102  TIP3      OH2             2.0126980824      -41.4633506065       25.7825569883  TIP3      702             0.0000000000
     51937      1102  TIP3      H1              1.1765454213      -40.9762272523       25.8069211153  TIP3      702             0.0000000000
     51938      1102  TIP3      H2              2.5375697284      -40.9440136966       25.1643966462  TIP3      702             0.0000000000
     51939      1103  TIP3      OH2             1.2644310144      -38.8134320584       37.1090446422  TIP3      703             0.0000000000
     51940      1103  TIP3      H1              1.8340949740      -39.0354400293       37.8738063453  TIP3      703             0.0000000000
     51941      1103  TIP3      H2              0.8115580646      -39.6543924160       36.9293839916  TIP3      703             0.0000000000
     51942      1104  TIP3      OH2             5.8922928596      -39.8965386142       38.7410260064  TIP3      704             0.0000000000
     51943      1104  TIP3      H1              6.6661201154      -40.3780867351       39.0648342492  TIP3      704             0.0000000000
     51944      1104  TIP3      H2              5.8770308319      -40.1519149186       37.7946344581  TIP3      704             0.0000000000
     51945      1105  TIP3      OH2            12.4365057560      -41.5121511260       37.4550049748  TIP3      705             0.0000000000
     51946      1105  TIP3      H1             12.1085874416      -42.3961613734       37.7173089656  TIP3      705             0.0000000000
     51947      1105  TIP3      H2             13.1919907871      -41.3967880701       38.0591241134  TIP3      705             0.0000000000
     51948      1106  TIP3      OH2             1.1769701047      -45.0256414742       38.0886063738  TIP3      706             0.0000000000
     51949      1106  TIP3      H1              1.3339568402      -45.9368694045       37.7766979630  TIP3      706             0.0000000000
     51950      1106  TIP3      H2              0.4153244857      -44.7488317505       37.5533665239  TIP3      706             0.0000000000
     51951      1107  TIP3      OH2             7.8604847696      -45.0489680896       37.4934594114  TIP3      707             0.0000000000
     51952      1107  TIP3      H1              7.5188139999      -44.7607017020       36.6279083405  TIP3      707             0.0000000000
     51953      1107  TIP3      H2              7.9801823937      -46.0168386236       37.3973114208  TIP3      707             0.0000000000
     51954      1108  TIP3      OH2            10.8963903513      -43.6378388851       19.9380096162  TIP3      708             0.0000000000
     51955      1108  TIP3      H1             10.6223620811      -43.4567791059       20.8433004499  TIP3      708             0.0000000000
     51956      1108  TIP3      H2             10.6820977570      -44.5426838627       19.7972773577  TIP3      708             0.0000000000
     51957      1109  TIP3      OH2            13.5711779277      -45.1656678338       34.8849229448  TIP3      709             0.0000000000
     51958      1109  TIP3      H1             14.3362141911      -44.5573340171       34.7847403457  TIP3      709             0.0000000000
     51959      1109  TIP3      H2             12.8403048641      -44.5347353566       34.9346062929  TIP3      709             0.0000000000
     51960      1110  TIP3      OH2             2.0438529744      -47.8073940474       37.4868663790  TIP3      710             0.0000000000
     51961      1110  TIP3      H1              2.4513367416      -48.6753212490       37.3820163407  TIP3      710             0.0000000000
     51962      1110  TIP3      H2              1.7922794875      -47.8040395347       38.4285605462  TIP3      710             0.0000000000
     51963      1111  TIP3      OH2             6.7060097785      -46.7006252488       22.5239456621  TIP3      711             0.0000000000
     51964      1111  TIP3      H1              6.2231870921      -47.1766472442       23.2087124459  TIP3      711             0.0000000000
     51965      1111  TIP3      H2              6.9635265765      -47.3714208323       21.8674789382  TIP3      711             0.0000000000
     51966      1112  TIP3      OH2             5.9722397889      -48.8371256495       34.8609921249  TIP3      712             0.0000000000
     51967      1112  TIP3      H1              5.3576777035      -48.1322651982       35.1287885776  TIP3      712             0.0000000000
     51968      1112  TIP3      H2              6.3329158984      -48.4859580513       34.0290488108  TIP3      712             0.0000000000
     51969      1113  TIP3      OH2             7.8132033858      -48.4730420954       20.8001935795  TIP3      713             0.0000000000
     51970      1113  TIP3      H1              7.5975097260      -48.6085316665       19.8607328249  TIP3      713             0.0000000000
     51971      1113  TIP3      H2              8.7496081396      -48.3784739684       20.8119569098  TIP3      713             0.0000000000
     51972      1114  TIP3      OH2            11.0100064219      -46.3157647188       38.1791138495  TIP3      714             0.0000000000
     51973      1114  TIP3      H1             11.9697736950      -46.2762868261       38.0938115755  TIP3      714             0.0000000000
     51974      1114  TIP3      H2             10.8470471747      -47.0628300204       38.7721206554  TIP3      714             0.0000000000
     51975      1115  TIP3      OH2             6.3423625622      -51.4632186597       35.9333121158  TIP3      715             0.0000000000
     51976      1115  TIP3      H1              6.4772660162      -52.1897311685       35.3064458780  TIP3      715             0.0000000000
     51977      1115  TIP3      H2              6.3198688190      -50.6676279228       35.3671475984  TIP3      715             0.0000000000
     51978      1116  TIP3      OH2             6.7518306156      -53.1089908462       33.4473574772  TIP3      716             0.0000000000
     51979      1116  TIP3      H1              7.2766669282      -52.6290771870       32.7634276619  TIP3      716             0.0000000000
     51980      1116  TIP3      H2              5.8674348776      -53.1856531851       33.0227355988  TIP3      716             0.0000000000
     51981      1117  TIP3      OH2             8.3095177918      -47.6390611146       33.6923777227  TIP3      717             0.0000000000
     51982      1117  TIP3      H1              9.0630215974      -47.7947998270       33.1104963851  TIP3      717             0.0000000000
     51983      1117  TIP3      H2              7.9595748233      -46.7850485829       33.3850062126  TIP3      717             0.0000000000
     51984      1118  TIP3      OH2            12.7141042320      -49.8430036852       38.6911008388  TIP3      718             0.0000000000
     51985      1118  TIP3      H1             12.9267660079      -50.7809110672       38.5910334438  TIP3      718             0.0000000000
     51986      1118  TIP3      H2             13.5865425692      -49.4191276902       38.6848899530  TIP3      718             0.0000000000
     51987      1119  TIP3      OH2            14.0427705265      -47.0532224870       36.8198501197  TIP3      719             0.0000000000
     51988      1119  TIP3      H1             13.7795834172      -46.3334609562       36.2013826462  TIP3      719             0.0000000000
     51989      1119  TIP3      H2             14.9999582034      -47.1057402934       36.6207812469  TIP3      719             0.0000000000
     51990      1120  TIP3      OH2             4.8133987893      -50.2388050295       37.8612340792  TIP3      720             0.0000000000
     51991      1120  TIP3      H1              4.0374469345      -50.7995399948       37.6412511310  TIP3      720             0.0000000000
     51992      1120  TIP3      H2              5.4738808703      -50.5817721816       37.2284127990  TIP3      720             0.0000000000
     51993      1121  TIP3      OH2             7.5521004377      -55.6581259112       33.8706893695  TIP3      721             0.0000000000
     51994      1121  TIP3      H1              7.4196679045      -54.6877843828       33.7571950228  TIP3      721             0.0000000000
     51995      1121  TIP3      H2              6.7877014717      -56.0077329528       33.3775485374  TIP3      721             0.0000000000
     51996      1122  TIP3      OH2             8.8180257473      -51.3187885858       37.4480275571  TIP3      722             0.0000000000
     51997      1122  TIP3      H1              8.5406755560      -51.5435236331       38.3552332849  TIP3      722             0.0000000000
     51998      1122  TIP3      H2              8.0201105149      -51.5243698753       36.9224591542  TIP3      722             0.0000000000
     51999      1123  TIP3      OH2            11.5273679977      -52.1845340862       36.5221401918  TIP3      723             0.0000000000
     52000      1123  TIP3      H1             10.5635637931      -52.1534387965       36.6568740955  TIP3      723             0.0000000000
     52001      1123  TIP3      H2             11.8241678885      -52.8182430591       37.1991226672  TIP3      723             0.0000000000
     52002      1124  TIP3      OH2            13.1452506460      -53.5584670493       38.4896883817  TIP3      724             0.0000000000
     52003      1124  TIP3      H1             13.0472422188      -54.5187779377       38.5017423704  TIP3      724             0.0000000000
     52004      1124  TIP3      H2             12.8311876107      -53.2621693892       39.3745576273  TIP3      724             0.0000000000
     52005      1125  TIP3      OH2             2.9509006978      -52.3119846780       37.5621610231  TIP3      725             0.0000000000
     52006      1125  TIP3      H1              3.1826395905      -53.0467009352       36.9568042184  TIP3      725             0.0000000000
     52007      1125  TIP3      H2              2.8564482187      -52.7677840908       38.4229830287  TIP3      725             0.0000000000
     52008      1126  TIP3      OH2             7.7276253883       56.5271421061       36.5463000250  TIP3      726             0.0000000000
     52009      1126  TIP3      H1              8.4625480221       55.8665057546       36.5285719022  TIP3      726             0.0000000000
     52010      1126  TIP3      H2              7.6686320530       56.7492889732       35.6063049673  TIP3      726             0.0000000000
     52011      1127  TIP3      OH2             8.1205557879      -54.6571973501       38.6150470019  TIP3      727             0.0000000000
     52012      1127  TIP3      H1              7.9684128942      -55.1534437680       37.7808220151  TIP3      727             0.0000000000
     52013      1127  TIP3      H2              7.5161019012      -53.9041867080       38.5443390016  TIP3      727             0.0000000000
     52014      1128  TIP3      OH2             1.1987727591      -43.1577653573       21.2815719421  TIP3      728             0.0000000000
     52015      1128  TIP3      H1              2.1560289051      -43.0528159084       21.5095247106  TIP3      728             0.0000000000
     52016      1128  TIP3      H2              1.2507626867      -43.8164320892       20.5780064688  TIP3      728             0.0000000000
     52017      1129  TIP3      OH2            -0.1114814999      -37.7454882229       26.3296831875  TIP3      729             0.0000000000
     52018      1129  TIP3      H1             -0.7707897741      -38.2351491828       25.7846844409  TIP3      729             0.0000000000
     52019      1129  TIP3      H2              0.2345224695      -38.4394803953       26.9190053684  TIP3      729             0.0000000000
     52020      1130  TIP3      OH2             0.7132439624      -39.6309994370       28.1304466578  TIP3      730             0.0000000000
     52021      1130  TIP3      H1              0.4292010222      -40.5436970981       28.3230816385  TIP3      730             0.0000000000
     52022      1130  TIP3      H2              0.9998811088      -39.3391115367       29.0156080263  TIP3      730             0.0000000000
     52023      1131  TIP3      OH2            18.2852525792      -38.8549701330       31.0979095950  TIP3      731             0.0000000000
     52024      1131  TIP3      H1             18.2962922518      -38.6726352389       32.0516789793  TIP3      731             0.0000000000
     52025      1131  TIP3      H2             18.9906384343      -38.2790794966       30.7779996618  TIP3      731             0.0000000000
     52026      1132  TIP3      OH2            17.8649391237      -39.2584970682       34.0327380310  TIP3      732             0.0000000000
     52027      1132  TIP3      H1             17.3809383580      -40.0290502193       33.6594488799  TIP3      732             0.0000000000
     52028      1132  TIP3      H2             18.3899039552      -39.6944208641       34.7226671054  TIP3      732             0.0000000000
     52029      1133  TIP3      OH2            16.3145398457      -43.5286821058       38.6726911681  TIP3      733             0.0000000000
     52030      1133  TIP3      H1             15.4304361348      -43.5802018186       39.0758798932  TIP3      733             0.0000000000
     52031      1133  TIP3      H2             16.6866332225      -42.7327415925       39.1230909715  TIP3      733             0.0000000000
     52032      1134  TIP3      OH2            17.6102906676      -45.2339918140       24.1561461019  TIP3      734             0.0000000000
     52033      1134  TIP3      H1             18.4730578490      -44.8215045928       24.3178142600  TIP3      734             0.0000000000
     52034      1134  TIP3      H2             17.6300660858      -45.9618043700       24.8110241725  TIP3      734             0.0000000000
     52035      1135  TIP3      OH2            17.9841652919      -47.1652358635       25.9900459059  TIP3      735             0.0000000000
     52036      1135  TIP3      H1             17.2599571335      -47.6592100215       26.4139046571  TIP3      735             0.0000000000
     52037      1135  TIP3      H2             18.5858092799      -46.9851811902       26.7480121657  TIP3      735             0.0000000000
     52038      1136  TIP3      OH2            17.7474228229      -44.4235425863       30.9812672980  TIP3      736             0.0000000000
     52039      1136  TIP3      H1             18.5886502613      -44.7885063239       30.6496680560  TIP3      736             0.0000000000
     52040      1136  TIP3      H2             17.8840201543      -43.4625096236       30.8326983517  TIP3      736             0.0000000000
     52041      1137  TIP3      OH2            16.2818042420      -41.5276617235       33.2749830860  TIP3      737             0.0000000000
     52042      1137  TIP3      H1             15.5988778487      -41.1933732757       33.8781053042  TIP3      737             0.0000000000
     52043      1137  TIP3      H2             15.7355831006      -41.9522309550       32.5768674299  TIP3      737             0.0000000000
     52044      1138  TIP3      OH2            18.2814882429      -47.3101748506       22.4000367377  TIP3      738             0.0000000000
     52045      1138  TIP3      H1             17.7540973875      -46.9333345189       21.6759537481  TIP3      738             0.0000000000
     52046      1138  TIP3      H2             18.2374460268      -46.5978392806       23.0634269850  TIP3      738             0.0000000000
     52047      1139  TIP3      OH2            15.7465909144      -48.6597957540       26.5442238957  TIP3      739             0.0000000000
     52048      1139  TIP3      H1             15.6723470403      -49.6240454825       26.5742531494  TIP3      739             0.0000000000
     52049      1139  TIP3      H2             15.4701700347      -48.4021488959       27.4463983879  TIP3      739             0.0000000000
     52050      1140  TIP3      OH2             0.8082598697      -46.5930189310       30.6166397516  TIP3      740             0.0000000000
     52051      1140  TIP3      H1              1.0135106747      -46.6542022723       29.6571135377  TIP3      740             0.0000000000
     52052      1140  TIP3      H2              1.6976895565      -46.7155217516       30.9996030380  TIP3      740             0.0000000000
     52053      1141  TIP3      OH2            16.6488591064      -46.6922395654       36.2369041286  TIP3      741             0.0000000000
     52054      1141  TIP3      H1             17.2488336818      -47.4409317102       36.4053815999  TIP3      741             0.0000000000
     52055      1141  TIP3      H2             17.2311524098      -45.9070393932       36.2628483930  TIP3      741             0.0000000000
     52056      1142  TIP3      OH2            18.1797317863      -48.7875691180       36.8965050552  TIP3      742             0.0000000000
     52057      1142  TIP3      H1             17.2800772776      -49.1795568163       36.7452405172  TIP3      742             0.0000000000
     52058      1142  TIP3      H2             18.7203632449      -49.5795976450       36.8403225657  TIP3      742             0.0000000000
     52059      1143  TIP3      OH2            15.4648187909      -51.0585932521       25.0309746829  TIP3      743             0.0000000000
     52060      1143  TIP3      H1             15.7848161479      -51.9914607942       25.1589340027  TIP3      743             0.0000000000
     52061      1143  TIP3      H2             16.2730842108      -50.6633394776       24.6540466786  TIP3      743             0.0000000000
     52062      1144  TIP3      OH2            16.1051082512      -50.5184827624       30.4696237681  TIP3      744             0.0000000000
     52063      1144  TIP3      H1             17.0640394427      -50.2877858512       30.4540844948  TIP3      744             0.0000000000
     52064      1144  TIP3      H2             15.8991856865      -50.3950315226       31.4095533875  TIP3      744             0.0000000000
     52065      1145  TIP3      OH2            16.1683171237      -49.7933709276       33.2628577640  TIP3      745             0.0000000000
     52066      1145  TIP3      H1             15.2961031859      -49.5010635643       33.6033932157  TIP3      745             0.0000000000
     52067      1145  TIP3      H2             16.5919302798      -48.9332971094       33.0314988389  TIP3      745             0.0000000000
     52068      1146  TIP3      OH2             0.4244488528      -51.2802392797       36.7502091268  TIP3      746             0.0000000000
     52069      1146  TIP3      H1              1.3589211528      -51.4706524832       36.9683488569  TIP3      746             0.0000000000
     52070      1146  TIP3      H2             -0.0251364986      -52.0829051948       37.0950102899  TIP3      746             0.0000000000
     52071      1147  TIP3      OH2            18.4188538822      -55.7694468545       38.6097189875  TIP3      747             0.0000000000
     52072      1147  TIP3      H1             18.7914969788      -56.4225114101       37.9882142164  TIP3      747             0.0000000000
     52073      1147  TIP3      H2             18.5594307495      -54.9373357163       38.1215646477  TIP3      747             0.0000000000
     52074      1148  TIP3      OH2            16.1196770336      -53.7871912104       25.0725892937  TIP3      748             0.0000000000
     52075      1148  TIP3      H1             16.3113501356      -54.2510483183       25.9149783683  TIP3      748             0.0000000000
     52076      1148  TIP3      H2             15.5074200262      -54.4255380722       24.6356899735  TIP3      748             0.0000000000
     52077      1149  TIP3      OH2             1.6269059912      -52.9931280808       29.6139383450  TIP3      749             0.0000000000
     52078      1149  TIP3      H1              2.0936704321      -53.7966403457       29.9184618312  TIP3      749             0.0000000000
     52079      1149  TIP3      H2              2.1334825376      -52.2855234147       30.0408325760  TIP3      749             0.0000000000
     52080      1150  TIP3      OH2            -0.0788465540      -50.0043444499       30.6891771535  TIP3      750             0.0000000000
     52081      1150  TIP3      H1              0.4633515996      -50.2221263107       29.9017371546  TIP3      750             0.0000000000
     52082      1150  TIP3      H2              0.3398469470      -49.1704150218       30.9556254605  TIP3      750             0.0000000000
     52083      1151  TIP3      OH2            17.9736126120      -53.6533650568       36.9493871855  TIP3      751             0.0000000000
     52084      1151  TIP3      H1             17.0255093967      -53.4076964512       36.9095898396  TIP3      751             0.0000000000
     52085      1151  TIP3      H2             18.0378705728      -54.2171586277       36.1583067976  TIP3      751             0.0000000000
     52086      1152  TIP3      OH2             0.2710088707      -53.7384190851       24.7386470360  TIP3      752             0.0000000000
     52087      1152  TIP3      H1             -0.6764067343      -53.5374682583       24.6270160143  TIP3      752             0.0000000000
     52088      1152  TIP3      H2              0.7147248393      -53.2707077166       24.0515475093  TIP3      752             0.0000000000
     52089      1153  TIP3      OH2            15.0174514676      -38.7695715445       26.6917951745  TIP3      753             0.0000000000
     52090      1153  TIP3      H1             15.6942876796      -39.0965484160       26.0743591028  TIP3      753             0.0000000000
     52091      1153  TIP3      H2             15.5482679625      -38.2738258143       27.3333067484  TIP3      753             0.0000000000
     52092      1154  TIP3      OH2             0.2433895268      -55.0160188946       33.0782800698  TIP3      754             0.0000000000
     52093      1154  TIP3      H1             -0.4334573653      -55.2515458120       33.7326010563  TIP3      754             0.0000000000
     52094      1154  TIP3      H2             -0.2228694758      -54.3833769706       32.4971674011  TIP3      754             0.0000000000
     52095      1155  TIP3      OH2             2.4434903873      -41.8461770962       37.2266172170  TIP3      755             0.0000000000
     52096      1155  TIP3      H1              1.6026259597      -41.6511281313       36.7767068832  TIP3      755             0.0000000000
     52097      1155  TIP3      H2              2.1718366579      -41.9108579497       38.1500730997  TIP3      755             0.0000000000
     52098      1156  TIP3      OH2             5.3716328359      -40.8646547183       33.5154407970  TIP3      756             0.0000000000
     52099      1156  TIP3      H1              4.9722271667      -40.0429862127       33.1932118126  TIP3      756             0.0000000000
     52100      1156  TIP3      H2              6.2808066876      -40.7682373039       33.1711214377  TIP3      756             0.0000000000
     52101      1157  TIP3      OH2             9.6775825485      -39.4472635766       36.4183249632  TIP3      757             0.0000000000
     52102      1157  TIP3      H1              9.8537905928      -39.7940936843       37.3288541874  TIP3      757             0.0000000000
     52103      1157  TIP3      H2             10.5615146018      -39.1446710124       36.1398854239  TIP3      757             0.0000000000
     52104      1158  TIP3      OH2            12.0012490711      -38.1672784254       35.6902656844  TIP3      758             0.0000000000
     52105      1158  TIP3      H1             12.7057692877      -38.7946612982       35.4529921103  TIP3      758             0.0000000000
     52106      1158  TIP3      H2             12.3525673235      -37.7645198292       36.5032537723  TIP3      758             0.0000000000
     52107      1159  TIP3      OH2            16.9489473003      -55.5451751396       34.8000779522  TIP3      759             0.0000000000
     52108      1159  TIP3      H1             16.1344333914      -55.2413291591       34.3840029898  TIP3      759             0.0000000000
     52109      1159  TIP3      H2             17.1796892338      -56.3442525653       34.2604366201  TIP3      759             0.0000000000
     52110      1160  TIP3      OH2             2.7905631034      -37.5994262961       33.5200035776  TIP3      760             0.0000000000
     52111      1160  TIP3      H1              2.0528306213      -37.1541717848       33.0854802785  TIP3      760             0.0000000000
     52112      1160  TIP3      H2              2.4294023906      -37.8488942808       34.3824970965  TIP3      760             0.0000000000
     52113      1161  TIP3      OH2             5.2699558196      -38.0104063876       32.5781164855  TIP3      761             0.0000000000
     52114      1161  TIP3      H1              4.3630745703      -37.9235498735       32.9603384147  TIP3      761             0.0000000000
     52115      1161  TIP3      H2              5.1828991656      -37.4537919870       31.7797324227  TIP3      761             0.0000000000
     52116      1162  TIP3      OH2             9.9583485195      -38.1282463945       31.7346978452  TIP3      762             0.0000000000
     52117      1162  TIP3      H1              9.4947091135      -37.5806250178       31.0822860310  TIP3      762             0.0000000000
     52118      1162  TIP3      H2             10.1088754771      -37.4984457479       32.4701458910  TIP3      762             0.0000000000
     52119      1163  TIP3      OH2            12.2776728453      -39.2781834682       32.7114861281  TIP3      763             0.0000000000
     52120      1163  TIP3      H1             11.3838205020      -39.0557580458       32.4059745835  TIP3      763             0.0000000000
     52121      1163  TIP3      H2             12.7155665943      -38.4126438850       32.6306554214  TIP3      763             0.0000000000
     52122      1164  TIP3      OH2            14.8656331583      -37.7078202832       33.0023250771  TIP3      764             0.0000000000
     52123      1164  TIP3      H1             14.7291766598      -36.7592300513       32.7521078651  TIP3      764             0.0000000000
     52124      1164  TIP3      H2             15.0556823037      -38.0878148318       32.1217987913  TIP3      764             0.0000000000
     52125      1165  TIP3      OH2             2.1735564852      -38.7402580468       30.4334968265  TIP3      765             0.0000000000
     52126      1165  TIP3      H1              2.1549243534      -39.3820413540       31.2227861063  TIP3      765             0.0000000000
     52127      1165  TIP3      H2              2.9420625398      -39.2938015908       30.0584979735  TIP3      765             0.0000000000
     52128      1166  TIP3      OH2             4.4648878537      -40.2310713609       28.8919567374  TIP3      766             0.0000000000
     52129      1166  TIP3      H1              4.1159011589      -41.1012144623       29.2799988233  TIP3      766             0.0000000000
     52130      1166  TIP3      H2              5.1685846037      -40.1181892955       29.5614640950  TIP3      766             0.0000000000
     52131      1167  TIP3      OH2             6.9037844261      -39.7739291554       29.9549985931  TIP3      767             0.0000000000
     52132      1167  TIP3      H1              7.0740272856      -40.6921272695       29.6720250413  TIP3      767             0.0000000000
     52133      1167  TIP3      H2              6.9338948776      -39.8522221083       30.9158014910  TIP3      767             0.0000000000
     52134      1168  TIP3      OH2            10.3685049661      -54.1210469631       29.0938981036  TIP3      768             0.0000000000
     52135      1168  TIP3      H1              9.7040454697      -54.7817869492       29.3482064517  TIP3      768             0.0000000000
     52136      1168  TIP3      H2             10.9405984905      -54.6305439916       28.5023135418  TIP3      768             0.0000000000
     52137      1169  TIP3      OH2            15.5094919146      -56.0503408956       29.1845534447  TIP3      769             0.0000000000
     52138      1169  TIP3      H1             16.1314826562      -55.4756756632       28.6813223700  TIP3      769             0.0000000000
     52139      1169  TIP3      H2             14.6288285435      -55.7075993897       28.9535077487  TIP3      769             0.0000000000
     52140      1170  TIP3      OH2            17.2288421917      -54.8700616986       27.4828557990  TIP3      770             0.0000000000
     52141      1170  TIP3      H1             17.8713144228      -55.4151389709       27.0089976785  TIP3      770             0.0000000000
     52142      1170  TIP3      H2             17.6633342839      -53.9921067231       27.5639512514  TIP3      770             0.0000000000
     52143      1171  TIP3      OH2             2.7058517368      -55.4485437719       26.9167167664  TIP3      771             0.0000000000
     52144      1171  TIP3      H1              1.9254826012      -55.7310501851       26.4234589070  TIP3      771             0.0000000000
     52145      1171  TIP3      H2              3.2195990006      -56.2935458362       26.9066856482  TIP3      771             0.0000000000
     52146      1172  TIP3      OH2             7.2448760281      -55.5773987348       26.7414401863  TIP3      772             0.0000000000
     52147      1172  TIP3      H1              8.1460809830      -55.2059808182       26.6869279015  TIP3      772             0.0000000000
     52148      1172  TIP3      H2              7.1624851290      -55.7902395968       27.6699108292  TIP3      772             0.0000000000
     52149      1173  TIP3      OH2            12.9027241247      -55.5104950280       28.3655769836  TIP3      773             0.0000000000
     52150      1173  TIP3      H1             12.9154059891      -55.4505228061       27.4099036739  TIP3      773             0.0000000000
     52151      1173  TIP3      H2             12.5626913261      -56.4333039442       28.4984140120  TIP3      773             0.0000000000
     52152      1174  TIP3      OH2            14.2323559893      -55.4969269793       24.0418645749  TIP3      774             0.0000000000
     52153      1174  TIP3      H1             13.4798562103      -54.9151359788       23.8607316193  TIP3      774             0.0000000000
     52154      1174  TIP3      H2             13.7468191408      -56.3457087245       24.2088142621  TIP3      774             0.0000000000
     52155      1175  TIP3      OH2             1.4398236354      -39.7797301081       23.6352972830  TIP3      775             0.0000000000
     52156      1175  TIP3      H1              0.7633723987      -39.7851661216       22.9438456863  TIP3      775             0.0000000000
     52157      1175  TIP3      H2              1.4430162666      -38.8394716069       23.8711488700  TIP3      775             0.0000000000
     52158      1176  TIP3      OH2             8.3456086665      -53.5414678911       23.6209474384  TIP3      776             0.0000000000
     52159      1176  TIP3      H1              8.6185529200      -54.1376719058       24.3139840734  TIP3      776             0.0000000000
     52160      1176  TIP3      H2              8.4090850854      -52.6685861458       24.0630423399  TIP3      776             0.0000000000
     52161      1177  TIP3      OH2            17.0402671466      -38.9737902584       24.7055989963  TIP3      777             0.0000000000
     52162      1177  TIP3      H1             16.7952958008      -39.7483268645       24.1438919994  TIP3      777             0.0000000000
     52163      1177  TIP3      H2             16.9415715196      -38.2216595467       24.0867795738  TIP3      777             0.0000000000
     52164      1178  TIP3      OH2             2.6486640928      -54.9462835112       36.4118907982  TIP3      778             0.0000000000
     52165      1178  TIP3      H1              2.2826547099      -55.7518615332       36.8422310587  TIP3      778             0.0000000000
     52166      1178  TIP3      H2              3.5752738947      -54.9806467263       36.7421689468  TIP3      778             0.0000000000
     52167      1179  TIP3      OH2             4.6493636916      -55.5941922232       37.9998907446  TIP3      779             0.0000000000
     52168      1179  TIP3      H1              5.5458969682      -55.9148017483       37.7881225036  TIP3      779             0.0000000000
     52169      1179  TIP3      H2              4.2634418191      -56.3862940453       38.4323617300  TIP3      779             0.0000000000
     52170      1180  TIP3      OH2            13.0621959675       56.5299552779       38.1510479528  TIP3      780             0.0000000000
     52171      1180  TIP3      H1             13.1111722421       56.0958380698       39.0116471528  TIP3      780             0.0000000000
     52172      1180  TIP3      H2             13.9589005313       56.5503619966       37.8069565721  TIP3      780             0.0000000000
     52173      1181  TIP3      OH2            16.2440967292      -40.2450061824       36.8572984236  TIP3      781             0.0000000000
     52174      1181  TIP3      H1             15.4470399542      -40.4083066695       36.3046013442  TIP3      781             0.0000000000
     52175      1181  TIP3      H2             16.1497375670      -39.2954811865       37.0421767867  TIP3      781             0.0000000000
     52176      1182  TIP3      OH2            30.6656109471      -46.3632167213       26.8520956123  TIP3      782             0.0000000000
     52177      1182  TIP3      H1             30.7086289247      -45.3885032938       26.7513514424  TIP3      782             0.0000000000
     52178      1182  TIP3      H2             29.9849997760      -46.6080401962       26.2077588398  TIP3      782             0.0000000000
     52179      1183  TIP3      OH2            29.5588332513      -47.0898104772       30.3066234612  TIP3      783             0.0000000000
     52180      1183  TIP3      H1             29.5318883175      -47.7484237769       31.0074635631  TIP3      783             0.0000000000
     52181      1183  TIP3      H2             29.2344451259      -47.5787944093       29.5314331504  TIP3      783             0.0000000000
     52182      1184  TIP3      OH2            21.9119808558      -47.4516526478       31.8799507577  TIP3      784             0.0000000000
     52183      1184  TIP3      H1             21.9958883784      -48.1152410878       32.5862435023  TIP3      784             0.0000000000
     52184      1184  TIP3      H2             22.6520712064      -46.8540720302       32.0638882465  TIP3      784             0.0000000000
     52185      1185  TIP3      OH2            33.2659661439      -44.1565114144       28.5823367511  TIP3      785             0.0000000000
     52186      1185  TIP3      H1             32.8292564921      -44.8706839091       29.0589252390  TIP3      785             0.0000000000
     52187      1185  TIP3      H2             33.2614121235      -43.4372728074       29.2428519631  TIP3      785             0.0000000000
     52188      1186  TIP3      OH2            22.8445632144      -43.0019072443       30.4032189303  TIP3      786             0.0000000000
     52189      1186  TIP3      H1             22.5056918091      -43.8432907731       30.0445308932  TIP3      786             0.0000000000
     52190      1186  TIP3      H2             23.7999283147      -43.1917526673       30.4437436013  TIP3      786             0.0000000000
     52191      1187  TIP3      OH2            19.4828935930      -49.3972788827       25.8261686949  TIP3      787             0.0000000000
     52192      1187  TIP3      H1             19.0279594283      -48.5286890166       25.7939684779  TIP3      787             0.0000000000
     52193      1187  TIP3      H2             18.9082556128      -49.9504653133       25.2880025388  TIP3      787             0.0000000000
     52194      1188  TIP3      OH2            20.1754245516      -47.1977168773       27.9571074453  TIP3      788             0.0000000000
     52195      1188  TIP3      H1             20.4218246855      -47.9968308596       28.4579878991  TIP3      788             0.0000000000
     52196      1188  TIP3      H2             20.9117514246      -47.1102764606       27.3292784873  TIP3      788             0.0000000000
     52197      1189  TIP3      OH2            30.3684199586      -39.0163952249       28.8138656260  TIP3      789             0.0000000000
     52198      1189  TIP3      H1             31.0106859714      -39.7200680038       28.5360516900  TIP3      789             0.0000000000
     52199      1189  TIP3      H2             30.1722300426      -39.2941668582       29.7077632228  TIP3      789             0.0000000000
     52200      1190  TIP3      OH2            27.9358083917      -44.6732730127       30.7277450241  TIP3      790             0.0000000000
     52201      1190  TIP3      H1             28.2711125619      -45.3409434553       30.1076380886  TIP3      790             0.0000000000
     52202      1190  TIP3      H2             28.7081571887      -44.5445502396       31.3047763192  TIP3      790             0.0000000000
     52203      1191  TIP3      OH2            36.5884989083      -53.0714262706       31.5311507253  TIP3      791             0.0000000000
     52204      1191  TIP3      H1             36.6909703597      -52.4471070409       32.2865733994  TIP3      791             0.0000000000
     52205      1191  TIP3      H2             37.0684325070      -52.5975288296       30.8374346786  TIP3      791             0.0000000000
     52206      1192  TIP3      OH2            31.0975202234      -50.2405114280       31.0627167881  TIP3      792             0.0000000000
     52207      1192  TIP3      H1             31.2495198047      -51.2059135038       31.0555024272  TIP3      792             0.0000000000
     52208      1192  TIP3      H2             30.9928468710      -50.0778696232       30.1022566008  TIP3      792             0.0000000000
     52209      1193  TIP3      OH2            24.2370327141      -52.1590158480       28.3123230802  TIP3      793             0.0000000000
     52210      1193  TIP3      H1             24.3067178287      -51.3034905976       27.8561284962  TIP3      793             0.0000000000
     52211      1193  TIP3      H2             23.8036454983      -52.7237192955       27.6366274084  TIP3      793             0.0000000000
     52212      1194  TIP3      OH2            31.9558163999      -52.0229988274       26.7019352868  TIP3      794             0.0000000000
     52213      1194  TIP3      H1             32.6258646721      -52.3746444806       27.3333448278  TIP3      794             0.0000000000
     52214      1194  TIP3      H2             32.5023188571      -51.5046180174       26.0931105705  TIP3      794             0.0000000000
     52215      1195  TIP3      OH2            20.8488943849      -49.7460441959       29.0538698788  TIP3      795             0.0000000000
     52216      1195  TIP3      H1             21.5243063654      -50.3090173646       29.4903104859  TIP3      795             0.0000000000
     52217      1195  TIP3      H2             20.9180047767      -50.0481868309       28.1358874656  TIP3      795             0.0000000000
     52218      1196  TIP3      OH2            26.0174096145      -48.1916939678       28.3111148383  TIP3      796             0.0000000000
     52219      1196  TIP3      H1             26.6553781871      -48.7593348822       28.7732650985  TIP3      796             0.0000000000
     52220      1196  TIP3      H2             25.4570685862      -48.8605525908       27.8635222252  TIP3      796             0.0000000000
     52221      1197  TIP3      OH2            37.0132731344      -51.6049258525       33.7778227691  TIP3      797             0.0000000000
     52222      1197  TIP3      H1             36.3321289276      -50.9059849682       33.6926687344  TIP3      797             0.0000000000
     52223      1197  TIP3      H2             37.0184834871      -51.7657754529       34.7312157922  TIP3      797             0.0000000000
     52224      1198  TIP3      OH2            23.0823261357      -53.2615295142       32.3525336166  TIP3      798             0.0000000000
     52225      1198  TIP3      H1             22.8398046217      -52.6960562379       31.5988936201  TIP3      798             0.0000000000
     52226      1198  TIP3      H2             22.4114425866      -53.0138618144       33.0304723201  TIP3      798             0.0000000000
     52227      1199  TIP3      OH2            30.4226701286      -43.7588103894       25.9132088984  TIP3      799             0.0000000000
     52228      1199  TIP3      H1             30.1279357449      -44.0492073244       25.0436809735  TIP3      799             0.0000000000
     52229      1199  TIP3      H2             30.1090403456      -42.8307663151       25.9547321050  TIP3      799             0.0000000000
     52230      1200  TIP3      OH2            25.6378101463      -45.5975473205       32.6305872306  TIP3      800             0.0000000000
     52231      1200  TIP3      H1             24.9059405183      -44.9606082632       32.7806544072  TIP3      800             0.0000000000
     52232      1200  TIP3      H2             26.3431656426      -45.0068682071       32.3269176373  TIP3      800             0.0000000000
     52233      1201  TIP3      OH2            33.7532427012      -52.7303054790       28.6597454949  TIP3      801             0.0000000000
     52234      1201  TIP3      H1             33.5249619271      -53.4914940002       29.2106231349  TIP3      801             0.0000000000
     52235      1201  TIP3      H2             34.4096660362      -52.2720983351       29.2078072780  TIP3      801             0.0000000000
     52236      1202  TIP3      OH2            22.6481614251      -51.3600645507       30.3349268294  TIP3      802             0.0000000000
     52237      1202  TIP3      H1             23.2994534421      -50.7105937909       30.6867813841  TIP3      802             0.0000000000
     52238      1202  TIP3      H2             23.1892510654      -51.8237518599       29.6525121055  TIP3      802             0.0000000000
     52239      1203  TIP3      OH2            24.0638429306      -43.6194294505       33.4225424506  TIP3      803             0.0000000000
     52240      1203  TIP3      H1             24.0316911945      -42.7089694611       33.0676531589  TIP3      803             0.0000000000
     52241      1203  TIP3      H2             23.1809242765      -43.6836659040       33.8671339127  TIP3      803             0.0000000000
     52242      1204  TIP3      OH2            20.1559152073      -43.9550051750       24.2022000187  TIP3      804             0.0000000000
     52243      1204  TIP3      H1             19.8872885764      -43.6901441557       23.3079705469  TIP3      804             0.0000000000
     52244      1204  TIP3      H2             20.2115300206      -43.1167484883       24.6996534431  TIP3      804             0.0000000000
     52245      1205  TIP3      OH2            33.7867100083      -42.3259334371       30.9492521830  TIP3      805             0.0000000000
     52246      1205  TIP3      H1             32.8210018510      -42.2338020894       31.0916900695  TIP3      805             0.0000000000
     52247      1205  TIP3      H2             34.0533593667      -41.3990600129       30.7844070034  TIP3      805             0.0000000000
     52248      1206  TIP3      OH2            34.1047362704      -54.0402755628       32.3737476365  TIP3      806             0.0000000000
     52249      1206  TIP3      H1             33.3624349741      -53.4238258835       32.2976125635  TIP3      806             0.0000000000
     52250      1206  TIP3      H2             34.7880487532      -53.6226295128       31.8291154165  TIP3      806             0.0000000000
     52251      1207  TIP3      OH2            27.1002564439      -55.9132415207       29.7987111319  TIP3      807             0.0000000000
     52252      1207  TIP3      H1             26.9656196108      -56.8848910438       29.7592022367  TIP3      807             0.0000000000
     52253      1207  TIP3      H2             26.2242822028      -55.6159166199       30.1092381336  TIP3      807             0.0000000000
     52254      1208  TIP3      OH2            32.0267478231      -40.5395474537       27.5677047603  TIP3      808             0.0000000000
     52255      1208  TIP3      H1             32.4705783591      -41.2489146650       27.0619587560  TIP3      808             0.0000000000
     52256      1208  TIP3      H2             32.3980878742      -39.7336930843       27.1484250817  TIP3      808             0.0000000000
     52257      1209  TIP3      OH2            33.2183246663      -42.6111511718       26.0617324514  TIP3      809             0.0000000000
     52258      1209  TIP3      H1             32.9435060474      -43.3243078416       25.4660414602  TIP3      809             0.0000000000
     52259      1209  TIP3      H2             33.2688885764      -43.0881909482       26.9117472159  TIP3      809             0.0000000000
     52260      1210  TIP3      OH2            34.8741020101      -44.0433658582       34.5614831208  TIP3      810             0.0000000000
     52261      1210  TIP3      H1             35.0185290811      -44.6645663981       33.8147616830  TIP3      810             0.0000000000
     52262      1210  TIP3      H2             35.0542021354      -43.1778103519       34.1636994336  TIP3      810             0.0000000000
     52263      1211  TIP3      OH2            29.3700077378      -47.1023678672       24.3534567216  TIP3      811             0.0000000000
     52264      1211  TIP3      H1             28.6488926744      -46.5726701077       23.9631459810  TIP3      811             0.0000000000
     52265      1211  TIP3      H2             30.0453810703      -47.0495782386       23.6517933904  TIP3      811             0.0000000000
     52266      1212  TIP3      OH2            29.4157451532      -48.6370765556       21.4000612772  TIP3      812             0.0000000000
     52267      1212  TIP3      H1             30.1367474177      -48.6208012243       22.0198881600  TIP3      812             0.0000000000
     52268      1212  TIP3      H2             29.7080500621      -49.2727306448       20.7156659972  TIP3      812             0.0000000000
     52269      1213  TIP3      OH2            36.7376769254      -47.7249410291       32.6195918252  TIP3      813             0.0000000000
     52270      1213  TIP3      H1             36.0740338180      -47.0089307134       32.6809589050  TIP3      813             0.0000000000
     52271      1213  TIP3      H2             37.2073483590      -47.4933549462       31.7981695551  TIP3      813             0.0000000000
     52272      1214  TIP3      OH2            32.7844135126      -46.8898602321       25.2572094495  TIP3      814             0.0000000000
     52273      1214  TIP3      H1             32.0371998537      -46.6644964307       25.8611104860  TIP3      814             0.0000000000
     52274      1214  TIP3      H2             33.2361073076      -47.5995781881       25.7484524168  TIP3      814             0.0000000000
     52275      1215  TIP3      OH2            32.7045562784      -48.7429686666       34.3524946346  TIP3      815             0.0000000000
     52276      1215  TIP3      H1             32.7338141034      -47.9405358627       34.9027195612  TIP3      815             0.0000000000
     52277      1215  TIP3      H2             32.0708953842      -48.4395545003       33.6636843812  TIP3      815             0.0000000000
     52278      1216  TIP3      OH2            24.4098265265      -46.2456943091       27.1683321379  TIP3      816             0.0000000000
     52279      1216  TIP3      H1             24.0864749332      -46.6410805077       26.3206473827  TIP3      816             0.0000000000
     52280      1216  TIP3      H2             25.0161629069      -46.9453949714       27.4990770908  TIP3      816             0.0000000000
     52281      1217  TIP3      OH2            25.7492472224      -42.8378279896       29.8431687757  TIP3      817             0.0000000000
     52282      1217  TIP3      H1             25.7010368908      -43.4072284307       29.0632824151  TIP3      817             0.0000000000
     52283      1217  TIP3      H2             26.5138474886      -43.2161955190       30.3158011733  TIP3      817             0.0000000000
     52284      1218  TIP3      OH2            24.7574346042      -47.5050192994       30.8028233955  TIP3      818             0.0000000000
     52285      1218  TIP3      H1             25.3311037753      -47.3798833877       30.0231565173  TIP3      818             0.0000000000
     52286      1218  TIP3      H2             25.1098940335      -46.8460917839       31.4335362350  TIP3      818             0.0000000000
     52287      1219  TIP3      OH2            31.1144611572      -41.9555347981       31.5134606179  TIP3      819             0.0000000000
     52288      1219  TIP3      H1             30.8516732125      -41.3211193958       32.1816647416  TIP3      819             0.0000000000
     52289      1219  TIP3      H2             30.8878502559      -42.8147278022       31.9540572954  TIP3      819             0.0000000000
     52290      1220  TIP3      OH2            25.6816004545      -43.0914885098       35.5144371271  TIP3      820             0.0000000000
     52291      1220  TIP3      H1             25.3189169937      -42.3159235515       35.9838693271  TIP3      820             0.0000000000
     52292      1220  TIP3      H2             25.0037337611      -43.2603846688       34.8152201081  TIP3      820             0.0000000000
     52293      1221  TIP3      OH2            31.6327560557      -47.7155019908       22.9496000297  TIP3      821             0.0000000000
     52294      1221  TIP3      H1             32.2213222008      -47.5692212970       23.7263296387  TIP3      821             0.0000000000
     52295      1221  TIP3      H2             32.0688664768      -47.2637152698       22.2317185971  TIP3      821             0.0000000000
     52296      1222  TIP3      OH2            22.5736265281      -46.9648691702       34.7549156489  TIP3      822             0.0000000000
     52297      1222  TIP3      H1             22.6638492929      -46.2277922997       35.4072969243  TIP3      822             0.0000000000
     52298      1222  TIP3      H2             21.6916256047      -46.7710650936       34.4047287807  TIP3      822             0.0000000000
     52299      1223  TIP3      OH2            29.3723624945      -40.9954546813       26.3894767623  TIP3      823             0.0000000000
     52300      1223  TIP3      H1             29.8329201709      -40.6864544334       27.1794322517  TIP3      823             0.0000000000
     52301      1223  TIP3      H2             28.8038005799      -40.2490729622       26.1500200019  TIP3      823             0.0000000000
     52302      1224  TIP3      OH2            23.9199045961      -41.0267366290       36.2737699378  TIP3      824             0.0000000000
     52303      1224  TIP3      H1             23.8920336397      -41.1539421555       35.3109996086  TIP3      824             0.0000000000
     52304      1224  TIP3      H2             22.9818782378      -41.1512252617       36.5234838131  TIP3      824             0.0000000000
     52305      1225  TIP3      OH2            23.3841316149      -47.1951695966       24.7813501158  TIP3      825             0.0000000000
     52306      1225  TIP3      H1             23.1039895374      -46.4316255399       24.2364234827  TIP3      825             0.0000000000
     52307      1225  TIP3      H2             22.7260320208      -47.8579612974       24.5658342527  TIP3      825             0.0000000000
     52308      1226  TIP3      OH2            19.4937362413      -44.8115867397       33.6162665606  TIP3      826             0.0000000000
     52309      1226  TIP3      H1             19.0042540156      -44.8671286806       32.7692709632  TIP3      826             0.0000000000
     52310      1226  TIP3      H2             19.5072592955      -45.7497074160       33.8643804352  TIP3      826             0.0000000000
     52311      1227  TIP3      OH2            19.2365449333      -42.0624549142       30.4465887473  TIP3      827             0.0000000000
     52312      1227  TIP3      H1             20.1929884869      -42.1876421810       30.4296198374  TIP3      827             0.0000000000
     52313      1227  TIP3      H2             19.1413704095      -41.2582922661       30.9742876008  TIP3      827             0.0000000000
     52314      1228  TIP3      OH2            37.4645678854      -41.3701850403       36.1137117637  TIP3      828             0.0000000000
     52315      1228  TIP3      H1             37.3707517867      -42.3338509988       36.1069107489  TIP3      828             0.0000000000
     52316      1228  TIP3      H2             36.6047034320      -41.1214964802       36.5379829008  TIP3      828             0.0000000000
     52317      1229  TIP3      OH2            28.4287223042      -41.8190204695       34.9955029756  TIP3      829             0.0000000000
     52318      1229  TIP3      H1             28.5006201301      -40.9761894002       35.5011988514  TIP3      829             0.0000000000
     52319      1229  TIP3      H2             27.5517424179      -42.1567133623       35.2557229576  TIP3      829             0.0000000000
     52320      1230  TIP3      OH2            28.8605241632      -38.0608114120       24.8093862566  TIP3      830             0.0000000000
     52321      1230  TIP3      H1             28.7459727850      -38.1655475448       23.8480711061  TIP3      830             0.0000000000
     52322      1230  TIP3      H2             28.8658908693      -37.0956328870       24.9395082586  TIP3      830             0.0000000000
     52323      1231  TIP3      OH2            22.4965962053      -39.2145656195       26.6054754499  TIP3      831             0.0000000000
     52324      1231  TIP3      H1             22.6457184817      -39.6116886587       27.4908100939  TIP3      831             0.0000000000
     52325      1231  TIP3      H2             21.6466646206      -39.6076363820       26.3704288573  TIP3      831             0.0000000000
     52326      1232  TIP3      OH2            31.6192853320      -38.9247536886       24.5691214214  TIP3      832             0.0000000000
     52327      1232  TIP3      H1             30.6566453585      -38.8616444205       24.7386037987  TIP3      832             0.0000000000
     52328      1232  TIP3      H2             31.8777970892      -39.6696933493       25.1361229778  TIP3      832             0.0000000000
     52329      1233  TIP3      OH2            34.6022470167      -49.8884983074       36.6092830200  TIP3      833             0.0000000000
     52330      1233  TIP3      H1             34.1666777261      -49.4205773427       35.8823648528  TIP3      833             0.0000000000
     52331      1233  TIP3      H2             34.6223927573      -50.8057729793       36.2955503138  TIP3      833             0.0000000000
     52332      1234  TIP3      OH2            21.7509216765      -43.5057536165       34.6034116672  TIP3      834             0.0000000000
     52333      1234  TIP3      H1             21.9689208974      -43.8572588288       35.4868328165  TIP3      834             0.0000000000
     52334      1234  TIP3      H2             20.8761425121      -43.8806171570       34.3924067498  TIP3      834             0.0000000000
     52335      1235  TIP3      OH2            24.4060457530      -55.0078283463       30.5398301519  TIP3      835             0.0000000000
     52336      1235  TIP3      H1             23.4964746844      -55.1195066734       30.1806160119  TIP3      835             0.0000000000
     52337      1235  TIP3      H2             24.3298876224      -54.1778368973       31.0422830363  TIP3      835             0.0000000000
     52338      1236  TIP3      OH2            29.0654427040      -55.3212575104       33.9508213845  TIP3      836             0.0000000000
     52339      1236  TIP3      H1             29.4489041575      -55.7340491009       34.7395502404  TIP3      836             0.0000000000
     52340      1236  TIP3      H2             28.0856200624      -55.4686644095       34.0904313154  TIP3      836             0.0000000000
     52341      1237  TIP3      OH2            32.3605483118      -51.5512758307       34.8202989032  TIP3      837             0.0000000000
     52342      1237  TIP3      H1             31.8175029546      -51.6990676049       35.6288383149  TIP3      837             0.0000000000
     52343      1237  TIP3      H2             32.1947511642      -50.6246431963       34.5819962539  TIP3      837             0.0000000000
     52344      1238  TIP3      OH2            24.4921059453      -50.0711194836       31.7504252269  TIP3      838             0.0000000000
     52345      1238  TIP3      H1             23.8002637164      -50.0934924470       32.4269813566  TIP3      838             0.0000000000
     52346      1238  TIP3      H2             24.4920503578      -49.1351663860       31.4428997904  TIP3      838             0.0000000000
     52347      1239  TIP3      OH2            24.4736845566      -49.8775498033       26.6551558217  TIP3      839             0.0000000000
     52348      1239  TIP3      H1             23.5525466689      -50.1848646326       26.5352433452  TIP3      839             0.0000000000
     52349      1239  TIP3      H2             24.8894835527      -50.2238272644       25.8368266848  TIP3      839             0.0000000000
     52350      1240  TIP3      OH2            29.9918238433      -49.4406551259       25.4300964508  TIP3      840             0.0000000000
     52351      1240  TIP3      H1             29.5900077279      -48.6032746152       25.1161721736  TIP3      840             0.0000000000
     52352      1240  TIP3      H2             30.7109837526      -49.5794291965       24.7963812886  TIP3      840             0.0000000000
     52353      1241  TIP3      OH2            29.0885032749      -49.2212297316       36.9009765625  TIP3      841             0.0000000000
     52354      1241  TIP3      H1             28.5299942760      -49.9821839518       37.2149426388  TIP3      841             0.0000000000
     52355      1241  TIP3      H2             29.9187873728      -49.3651947880       37.3801152980  TIP3      841             0.0000000000
     52356      1242  TIP3      OH2            31.0149029750      -49.9603474663       28.2742172350  TIP3      842             0.0000000000
     52357      1242  TIP3      H1             30.7846926724      -49.3811474325       27.5280284435  TIP3      842             0.0000000000
     52358      1242  TIP3      H2             31.1626419190      -50.8080813454       27.8041833307  TIP3      842             0.0000000000
     52359      1243  TIP3      OH2            22.1601253724      -49.7552935819       33.5367597033  TIP3      843             0.0000000000
     52360      1243  TIP3      H1             22.2306298599      -49.3662597283       34.3942341685  TIP3      843             0.0000000000
     52361      1243  TIP3      H2             21.7141794826      -50.6072818682       33.6574361983  TIP3      843             0.0000000000
     52362      1244  TIP3      OH2            18.8067528230      -52.6391353890       27.4376516701  TIP3      844             0.0000000000
     52363      1244  TIP3      H1             19.4678696317      -52.6814617698       28.1566025518  TIP3      844             0.0000000000
     52364      1244  TIP3      H2             19.2709571152      -53.0534518332       26.6873879520  TIP3      844             0.0000000000
     52365      1245  TIP3      OH2            20.0885153330      -51.9151840531       22.8768782657  TIP3      845             0.0000000000
     52366      1245  TIP3      H1             20.5743221623      -51.3150813644       22.2589545781  TIP3      845             0.0000000000
     52367      1245  TIP3      H2             19.3677413295      -51.3326127431       23.1726233136  TIP3      845             0.0000000000
     52368      1246  TIP3      OH2            30.2531028535      -48.3378110877       32.8864057644  TIP3      846             0.0000000000
     52369      1246  TIP3      H1             30.5984660205      -49.0051737769       32.2642486045  TIP3      846             0.0000000000
     52370      1246  TIP3      H2             29.8030544487      -48.8837334638       33.5560724104  TIP3      846             0.0000000000
     52371      1247  TIP3      OH2            27.0431599264      -52.4021295596       27.6879518833  TIP3      847             0.0000000000
     52372      1247  TIP3      H1             26.1095254286      -52.3703895183       27.9853260136  TIP3      847             0.0000000000
     52373      1247  TIP3      H2             27.5426798336      -52.5077696422       28.5096999561  TIP3      847             0.0000000000
     52374      1248  TIP3      OH2            21.8624584331      -50.8045500808       26.5356697219  TIP3      848             0.0000000000
     52375      1248  TIP3      H1             20.9604307987      -50.6848332644       26.1728072816  TIP3      848             0.0000000000
     52376      1248  TIP3      H2             22.1536263938      -51.6533110415       26.1642768694  TIP3      848             0.0000000000
     52377      1249  TIP3      OH2            25.5052945503      -50.7659964024       24.1894411951  TIP3      849             0.0000000000
     52378      1249  TIP3      H1             26.4598753572      -50.6758815751       24.3566224273  TIP3      849             0.0000000000
     52379      1249  TIP3      H2             25.2978636338      -50.1055023916       23.5148289704  TIP3      849             0.0000000000
     52380      1250  TIP3      OH2            31.4604225651      -53.1644317457       30.9319114198  TIP3      850             0.0000000000
     52381      1250  TIP3      H1             30.7603052690      -53.0605113758       31.6163093027  TIP3      850             0.0000000000
     52382      1250  TIP3      H2             30.9502863995      -53.3648283737       30.1400212080  TIP3      850             0.0000000000
     52383      1251  TIP3      OH2            34.6837404610      -37.5089354962       37.2587457289  TIP3      851             0.0000000000
     52384      1251  TIP3      H1             34.9319783595      -37.0990044310       36.4067228922  TIP3      851             0.0000000000
     52385      1251  TIP3      H2             35.3887596649      -37.1743665834       37.8431683028  TIP3      851             0.0000000000
     52386      1252  TIP3      OH2            22.3404363719      -45.0586503806       36.8284201280  TIP3      852             0.0000000000
     52387      1252  TIP3      H1             23.0527558412      -44.7731982528       37.4292087210  TIP3      852             0.0000000000
     52388      1252  TIP3      H2             21.5469386546      -44.8624117783       37.3829622495  TIP3      852             0.0000000000
     52389      1253  TIP3      OH2            28.3396964559      -49.6241716403       29.5806483032  TIP3      853             0.0000000000
     52390      1253  TIP3      H1             28.9224329265      -50.1710496941       29.0379980428  TIP3      853             0.0000000000
     52391      1253  TIP3      H2             28.1978849182      -50.1636164159       30.3709059345  TIP3      853             0.0000000000
     52392      1254  TIP3      OH2            23.3427856549      -53.4762880674       26.0009887458  TIP3      854             0.0000000000
     52393      1254  TIP3      H1             23.0402611496      -54.3998665438       25.9731056432  TIP3      854             0.0000000000
     52394      1254  TIP3      H2             24.1370695622      -53.5155436286       25.4445829114  TIP3      854             0.0000000000
     52395      1255  TIP3      OH2            26.9843798807      -51.2422783136       31.9680933967  TIP3      855             0.0000000000
     52396      1255  TIP3      H1             26.1360069321      -50.7806902975       32.1087747117  TIP3      855             0.0000000000
     52397      1255  TIP3      H2             27.5103071783      -50.9724998949       32.7487834128  TIP3      855             0.0000000000
     52398      1256  TIP3      OH2            27.5527823537      -45.0554287855       23.6748233731  TIP3      856             0.0000000000
     52399      1256  TIP3      H1             26.7677610358      -45.5364140052       23.3540960409  TIP3      856             0.0000000000
     52400      1256  TIP3      H2             27.3654252620      -44.9598769193       24.6293914073  TIP3      856             0.0000000000
     52401      1257  TIP3      OH2            34.7042994808      -45.8927505882       32.4880475317  TIP3      857             0.0000000000
     52402      1257  TIP3      H1             35.3090310627      -45.4185881489       31.8934297158  TIP3      857             0.0000000000
     52403      1257  TIP3      H2             33.8557672514      -45.7936480873       32.0062086151  TIP3      857             0.0000000000
     52404      1258  TIP3      OH2            31.4141314560      -52.2150907674       21.8553677725  TIP3      858             0.0000000000
     52405      1258  TIP3      H1             30.4714604934      -52.1058301623       21.7235594252  TIP3      858             0.0000000000
     52406      1258  TIP3      H2             31.7137772073      -51.3527848323       22.1867373890  TIP3      858             0.0000000000
     52407      1259  TIP3      OH2            29.0459446442      -44.8321806122       34.9204674488  TIP3      859             0.0000000000
     52408      1259  TIP3      H1             28.7010526449      -45.2280228421       35.7285007798  TIP3      859             0.0000000000
     52409      1259  TIP3      H2             28.8269044529      -43.8996938675       35.0069647366  TIP3      859             0.0000000000
     52410      1260  TIP3      OH2            32.1365109727      -50.3385489132       23.5511443791  TIP3      860             0.0000000000
     52411      1260  TIP3      H1             33.0411757029      -50.4873101742       23.8867333068  TIP3      860             0.0000000000
     52412      1260  TIP3      H2             32.1974581957      -49.5442975066       22.9974714955  TIP3      860             0.0000000000
     52413      1261  TIP3      OH2            22.6514217897      -45.7068340060       29.4726184927  TIP3      861             0.0000000000
     52414      1261  TIP3      H1             23.3818932638      -45.7487998067       28.8256506108  TIP3      861             0.0000000000
     52415      1261  TIP3      H2             22.7293242415      -46.5572688525       29.9366691023  TIP3      861             0.0000000000
     52416      1262  TIP3      OH2            29.6881407678      -43.5843335385       22.7382902877  TIP3      862             0.0000000000
     52417      1262  TIP3      H1             29.3339350752      -42.7467811722       23.0733434970  TIP3      862             0.0000000000
     52418      1262  TIP3      H2             28.9293260306      -44.1880827193       22.8966191923  TIP3      862             0.0000000000
     52419      1263  TIP3      OH2            19.6844707853      -47.2979049787       34.7517297969  TIP3      863             0.0000000000
     52420      1263  TIP3      H1             19.8053342896      -47.6715589104       35.6230065796  TIP3      863             0.0000000000
     52421      1263  TIP3      H2             19.0244130200      -47.8767285214       34.3191860458  TIP3      863             0.0000000000
     52422      1264  TIP3      OH2            26.6580989231      -47.7376932217       36.9672392041  TIP3      864             0.0000000000
     52423      1264  TIP3      H1             26.3795487503      -47.9565124865       36.0717971497  TIP3      864             0.0000000000
     52424      1264  TIP3      H2             27.6035231024      -47.9977435727       36.9530803197  TIP3      864             0.0000000000
     52425      1265  TIP3      OH2            31.3249681268      -42.3872452489       34.8599978772  TIP3      865             0.0000000000
     52426      1265  TIP3      H1             30.4012396186      -42.1965157933       34.6236085791  TIP3      865             0.0000000000
     52427      1265  TIP3      H2             31.3198688150      -42.1073644106       35.7975486462  TIP3      865             0.0000000000
     52428      1266  TIP3      OH2            37.0387753399      -50.1529517575       23.2412555572  TIP3      866             0.0000000000
     52429      1266  TIP3      H1             36.4455109448      -50.5219007760       22.5665650631  TIP3      866             0.0000000000
     52430      1266  TIP3      H2             37.1014064965      -49.2283199849       22.9861942208  TIP3      866             0.0000000000
     52431      1267  TIP3      OH2            37.0046833376      -44.3350646389       36.0890912270  TIP3      867             0.0000000000
     52432      1267  TIP3      H1             36.1239936860      -44.1058380267       35.7047472685  TIP3      867             0.0000000000
     52433      1267  TIP3      H2             37.5741251295      -44.3612896839       35.2965204255  TIP3      867             0.0000000000
     52434      1268  TIP3      OH2            35.3159181760      -41.3468654891       23.6757525076  TIP3      868             0.0000000000
     52435      1268  TIP3      H1             34.9503017084      -42.1765452757       24.0085655568  TIP3      868             0.0000000000
     52436      1268  TIP3      H2             35.6107993763      -41.5538294022       22.7890276446  TIP3      868             0.0000000000
     52437      1269  TIP3      OH2            32.5016815046      -46.5399400136       30.7478600409  TIP3      869             0.0000000000
     52438      1269  TIP3      H1             31.5586351818      -46.7750030178       30.6807888304  TIP3      869             0.0000000000
     52439      1269  TIP3      H2             32.9373253036      -47.3247114619       30.3693710256  TIP3      869             0.0000000000
     52440      1270  TIP3      OH2            25.0359642986      -42.2263262363       26.8731326721  TIP3      870             0.0000000000
     52441      1270  TIP3      H1             25.5441834600      -41.4271680868       26.6487251286  TIP3      870             0.0000000000
     52442      1270  TIP3      H2             24.1559640052      -41.9871325261       26.5468194282  TIP3      870             0.0000000000
     52443      1271  TIP3      OH2            26.4680742014      -44.5556626052       26.4051370044  TIP3      871             0.0000000000
     52444      1271  TIP3      H1             26.1809384687      -43.6260700351       26.4808750040  TIP3      871             0.0000000000
     52445      1271  TIP3      H2             25.7171169653      -45.0220386775       26.8298259031  TIP3      871             0.0000000000
     52446      1272  TIP3      OH2            26.9264233130      -40.3925232564       32.7662050473  TIP3      872             0.0000000000
     52447      1272  TIP3      H1             27.3429823162      -39.5536476231       32.5122426600  TIP3      872             0.0000000000
     52448      1272  TIP3      H2             27.5114249536      -40.7012693415       33.4834343391  TIP3      872             0.0000000000
     52449      1273  TIP3      OH2            25.1356416294      -39.5655838499       25.9981321662  TIP3      873             0.0000000000
     52450      1273  TIP3      H1             24.1738101371      -39.4254222889       26.0394378807  TIP3      873             0.0000000000
     52451      1273  TIP3      H2             25.4923368972      -38.7089417564       26.2894019430  TIP3      873             0.0000000000
     52452      1274  TIP3      OH2            30.4818790211      -44.3289745780       32.4338548742  TIP3      874             0.0000000000
     52453      1274  TIP3      H1             30.0893813153      -44.5458527735       33.3010301532  TIP3      874             0.0000000000
     52454      1274  TIP3      H2             31.0891191894      -45.0632476288       32.2595954169  TIP3      874             0.0000000000
     52455      1275  TIP3      OH2            33.2036271777      -39.7713333320       34.9293071015  TIP3      875             0.0000000000
     52456      1275  TIP3      H1             32.5603992143      -40.2987341366       34.4167814944  TIP3      875             0.0000000000
     52457      1275  TIP3      H2             33.4398908098      -39.0858525077       34.2690425787  TIP3      875             0.0000000000
     52458      1276  TIP3      OH2            21.3038686488      -52.5042360962       34.3267892462  TIP3      876             0.0000000000
     52459      1276  TIP3      H1             20.3843943164      -52.1995703264       34.2629322779  TIP3      876             0.0000000000
     52460      1276  TIP3      H2             21.1976883981      -53.3859057508       34.7397698208  TIP3      876             0.0000000000
     52461      1277  TIP3      OH2            33.5601186729      -44.7016397446       23.7280967989  TIP3      877             0.0000000000
     52462      1277  TIP3      H1             33.3029339275      -45.4467218240       24.3089267338  TIP3      877             0.0000000000
     52463      1277  TIP3      H2             34.5040682949      -44.6041233248       23.9531318388  TIP3      877             0.0000000000
     52464      1278  TIP3      OH2            20.9401838512      -40.7227398674       32.7391674232  TIP3      878             0.0000000000
     52465      1278  TIP3      H1             21.1835909644      -41.6625036406       32.7340320429  TIP3      878             0.0000000000
     52466      1278  TIP3      H2             21.1890530439      -40.4533407355       33.6323654031  TIP3      878             0.0000000000
     52467      1279  TIP3      OH2            22.1964592217      -45.4509867408       22.9309868706  TIP3      879             0.0000000000
     52468      1279  TIP3      H1             21.4982623701      -45.0790432345       23.4975572275  TIP3      879             0.0000000000
     52469      1279  TIP3      H2             22.7233172965      -44.6814789238       22.6731405681  TIP3      879             0.0000000000
     52470      1280  TIP3      OH2            30.0334317509      -52.7765487272       33.2221332330  TIP3      880             0.0000000000
     52471      1280  TIP3      H1             30.7300123131      -52.7147668102       33.8856787104  TIP3      880             0.0000000000
     52472      1280  TIP3      H2             29.6354717255      -53.6521280919       33.4116733285  TIP3      880             0.0000000000
     52473      1281  TIP3      OH2            30.8032674758      -53.1499369100       24.3268181303  TIP3      881             0.0000000000
     52474      1281  TIP3      H1             31.0227354888      -52.6670217242       23.5001490187  TIP3      881             0.0000000000
     52475      1281  TIP3      H2             31.3729697774      -52.7360613045       24.9822713901  TIP3      881             0.0000000000
     52476      1282  TIP3      OH2            27.9986796072      -51.4028889077       25.1444054175  TIP3      882             0.0000000000
     52477      1282  TIP3      H1             28.8220609420      -50.8850160970       25.1937049212  TIP3      882             0.0000000000
     52478      1282  TIP3      H2             27.7559377444      -51.5532198877       26.0731401525  TIP3      882             0.0000000000
     52479      1283  TIP3      OH2            28.5690536845      -50.4062885800       34.3247205392  TIP3      883             0.0000000000
     52480      1283  TIP3      H1             28.6488173166      -49.8494964029       35.1199653725  TIP3      883             0.0000000000
     52481      1283  TIP3      H2             29.2037464273      -51.1225047254       34.4517730882  TIP3      883             0.0000000000
     52482      1284  TIP3      OH2            28.8783288799      -54.3293367884       26.0845141355  TIP3      884             0.0000000000
     52483      1284  TIP3      H1             28.5397710243      -53.6920854548       26.7277917044  TIP3      884             0.0000000000
     52484      1284  TIP3      H2             29.5582504764      -53.8058136184       25.5977477866  TIP3      884             0.0000000000
     52485      1285  TIP3      OH2            34.7608007046      -52.5199905782       35.1903143165  TIP3      885             0.0000000000
     52486      1285  TIP3      H1             33.8220136112      -52.2346741617       35.0702811670  TIP3      885             0.0000000000
     52487      1285  TIP3      H2             35.0725675166      -52.5274717530       34.2698090162  TIP3      885             0.0000000000
     52488      1286  TIP3      OH2            33.3526797240      -48.7496246731       29.2394905000  TIP3      886             0.0000000000
     52489      1286  TIP3      H1             32.5402415277      -49.1871479534       28.9331924680  TIP3      886             0.0000000000
     52490      1286  TIP3      H2             33.8130602310      -49.4524778894       29.7507165594  TIP3      886             0.0000000000
     52491      1287  TIP3      OH2            22.7705472088      -42.8296827079       21.8467883720  TIP3      887             0.0000000000
     52492      1287  TIP3      H1             23.4136635577      -42.1386747829       22.0988637481  TIP3      887             0.0000000000
     52493      1287  TIP3      H2             23.2700989519      -43.2688608048       21.1278120830  TIP3      887             0.0000000000
     52494      1288  TIP3      OH2            21.0984217448      -50.1813245121       20.9792657688  TIP3      888             0.0000000000
     52495      1288  TIP3      H1             21.0886400861      -49.2304496670       21.1136128382  TIP3      888             0.0000000000
     52496      1288  TIP3      H2             20.2215979907      -50.3962175518       20.6375635279  TIP3      888             0.0000000000
     52497      1289  TIP3      OH2            34.4227130954      -39.5114079895       30.8898680060  TIP3      889             0.0000000000
     52498      1289  TIP3      H1             34.3047380460      -38.8174261311       30.2111257931  TIP3      889             0.0000000000
     52499      1289  TIP3      H2             35.3834180966      -39.4323372803       31.0739434119  TIP3      889             0.0000000000
     52500      1290  TIP3      OH2            21.9498504131      -55.3411513559       29.6363881459  TIP3      890             0.0000000000
     52501      1290  TIP3      H1             21.7029676791      -55.3254264190       28.6876828675  TIP3      890             0.0000000000
     52502      1290  TIP3      H2             21.4939673722      -56.1708336410       29.9250678635  TIP3      890             0.0000000000
     52503      1291  TIP3      OH2            20.8564468624      -41.4455237679       25.7684489813  TIP3      891             0.0000000000
     52504      1291  TIP3      H1             20.0191101610      -40.9732469982       25.8155430462  TIP3      891             0.0000000000
     52505      1291  TIP3      H2             21.4129943864      -40.9456039378       25.1737304713  TIP3      891             0.0000000000
     52506      1292  TIP3      OH2            20.1055569729      -38.8093853361       37.1162358369  TIP3      892             0.0000000000
     52507      1292  TIP3      H1             20.6886599443      -39.0334376014       37.8721227851  TIP3      892             0.0000000000
     52508      1292  TIP3      H2             19.6713585893      -39.6573573091       36.9289574488  TIP3      892             0.0000000000
     52509      1293  TIP3      OH2            24.7434757365      -39.9039333838       38.7400017592  TIP3      893             0.0000000000
     52510      1293  TIP3      H1             25.5221139940      -40.3782473411       39.0645182338  TIP3      893             0.0000000000
     52511      1293  TIP3      H2             24.7332917371      -40.1524838835       37.7929903369  TIP3      893             0.0000000000
     52512      1294  TIP3      OH2            31.2934068896      -41.5114296145       37.4548140566  TIP3      894             0.0000000000
     52513      1294  TIP3      H1             30.9655437061      -42.3956218381       37.7179022307  TIP3      894             0.0000000000
     52514      1294  TIP3      H2             32.0498186537      -41.3884050540       38.0591844012  TIP3      894             0.0000000000
     52515      1295  TIP3      OH2            20.0354752375      -45.0262525185       38.0828685963  TIP3      895             0.0000000000
     52516      1295  TIP3      H1             20.1853750717      -45.9352906655       37.7821619787  TIP3      895             0.0000000000
     52517      1295  TIP3      H2             19.2685906857      -44.7398058068       37.5577417063  TIP3      895             0.0000000000
     52518      1296  TIP3      OH2            26.7165930863      -45.0492357129       37.4932067633  TIP3      896             0.0000000000
     52519      1296  TIP3      H1             26.3740375328      -44.7605766770       36.6277942051  TIP3      896             0.0000000000
     52520      1296  TIP3      H2             26.8357218405      -46.0169220987       37.3974312147  TIP3      896             0.0000000000
     52521      1297  TIP3      OH2            32.4274276600      -45.1657682034       34.8849026977  TIP3      897             0.0000000000
     52522      1297  TIP3      H1             33.1940005989      -44.5583405025       34.7847907169  TIP3      897             0.0000000000
     52523      1297  TIP3      H2             31.6964166244      -44.5346413438       34.9341905313  TIP3      897             0.0000000000
     52524      1298  TIP3      OH2            20.8836592654      -47.7400913916       37.5808860781  TIP3      898             0.0000000000
     52525      1298  TIP3      H1             21.2981593134      -48.5983585117       37.5368463274  TIP3      898             0.0000000000
     52526      1298  TIP3      H2             20.6164534927      -47.7732963197       38.5203029210  TIP3      898             0.0000000000
     52527      1299  TIP3      OH2            24.7997914996      -48.8313418709       34.8540507191  TIP3      899             0.0000000000
     52528      1299  TIP3      H1             24.2298299153      -48.1066567623       35.1284877948  TIP3      899             0.0000000000
     52529      1299  TIP3      H2             25.1988309172      -48.4870479251       34.0308610078  TIP3      899             0.0000000000
     52530      1300  TIP3      OH2            29.8659293977      -46.3157328461       38.1793459055  TIP3      900             0.0000000000
     52531      1300  TIP3      H1             30.8257635039      -46.2764091098       38.0937814774  TIP3      900             0.0000000000
     52532      1300  TIP3      H2             29.7030882572      -47.0632239906       38.7720155434  TIP3      900             0.0000000000
     52533      1301  TIP3      OH2            25.1472242964      -51.4168213667       35.9290771039  TIP3      901             0.0000000000
     52534      1301  TIP3      H1             25.3517289839      -52.2047939756       35.3496381770  TIP3      901             0.0000000000
     52535      1301  TIP3      H2             25.1952525364      -50.6619175090       35.3439738767  TIP3      901             0.0000000000
     52536      1302  TIP3      OH2            25.5905913013      -53.0719484678       33.3856262546  TIP3      902             0.0000000000
     52537      1302  TIP3      H1             26.1427115683      -52.6206480017       32.7406729666  TIP3      902             0.0000000000
     52538      1302  TIP3      H2             24.7095854871      -53.1889975663       33.0116721626  TIP3      902             0.0000000000
     52539      1303  TIP3      OH2            27.1651669996      -47.6407186590       33.6933707784  TIP3      903             0.0000000000
     52540      1303  TIP3      H1             27.9189256913      -47.7952214510       33.1106540659  TIP3      903             0.0000000000
     52541      1303  TIP3      H2             26.8187574260      -46.7868018523       33.3872523190  TIP3      903             0.0000000000
     52542      1304  TIP3      OH2            31.5699952184      -49.8424951707       38.6907797869  TIP3      904             0.0000000000
     52543      1304  TIP3      H1             31.7829304564      -50.7807980278       38.5924112845  TIP3      904             0.0000000000
     52544      1304  TIP3      H2             32.4426727809      -49.4192393162       38.6847743460  TIP3      904             0.0000000000
     52545      1305  TIP3      OH2            32.8914025735      -47.0560525451       36.8203645695  TIP3      905             0.0000000000
     52546      1305  TIP3      H1             32.6344995886      -46.3337823798       36.2019375547  TIP3      905             0.0000000000
     52547      1305  TIP3      H2             33.8491743812      -47.1052386726       36.6196409855  TIP3      905             0.0000000000
     52548      1306  TIP3      OH2            23.6381203799      -50.2029052030       37.8243752289  TIP3      906             0.0000000000
     52549      1306  TIP3      H1             22.9114094665      -50.8329229447       37.6546018878  TIP3      906             0.0000000000
     52550      1306  TIP3      H2             24.3401534347      -50.5937010644       37.2431647967  TIP3      906             0.0000000000
     52551      1307  TIP3      OH2            26.4925844988      -55.7281774303       33.5558930235  TIP3      907             0.0000000000
     52552      1307  TIP3      H1             26.2985168356      -54.7692128543       33.7931291217  TIP3      907             0.0000000000
     52553      1307  TIP3      H2             25.5932321020      -56.0195201070       33.3711722151  TIP3      907             0.0000000000
     52554      1308  TIP3      OH2            27.6691665605      -51.2981895266       37.4528556592  TIP3      908             0.0000000000
     52555      1308  TIP3      H1             27.3935400647      -51.5609485215       38.3466720488  TIP3      908             0.0000000000
     52556      1308  TIP3      H2             26.8836020403      -51.5477955382       36.9179126177  TIP3      908             0.0000000000
     52557      1309  TIP3      OH2            30.3802987051      -52.1874603549       36.5204514665  TIP3      909             0.0000000000
     52558      1309  TIP3      H1             29.4131990201      -52.1622297711       36.6509968406  TIP3      909             0.0000000000
     52559      1309  TIP3      H2             30.6717514858      -52.8224408213       37.1967243109  TIP3      909             0.0000000000
     52560      1310  TIP3      OH2            31.9893229962      -53.5519351320       38.4849201597  TIP3      910             0.0000000000
     52561      1310  TIP3      H1             31.9190287561      -54.5199585697       38.5082911259  TIP3      910             0.0000000000
     52562      1310  TIP3      H2             31.6958600010      -53.2709713259       39.3846550930  TIP3      910             0.0000000000
     52563      1311  TIP3      OH2            21.7858853920      -52.2954479077       37.5567314531  TIP3      911             0.0000000000
     52564      1311  TIP3      H1             22.0449592066      -53.0445699541       36.9663373681  TIP3      911             0.0000000000
     52565      1311  TIP3      H2             21.7212971288      -52.7700611824       38.4177088874  TIP3      911             0.0000000000
     52566      1312  TIP3      OH2            26.5157009039       56.0066669195       36.6201680868  TIP3      912             0.0000000000
     52567      1312  TIP3      H1             27.4524704582       55.7856307887       36.5370327265  TIP3      912             0.0000000000
     52568      1312  TIP3      H2             26.5057165225       56.5985607828       35.8256665105  TIP3      912             0.0000000000
     52569      1313  TIP3      OH2            26.9808744403      -54.6825211981       38.6696534450  TIP3      913             0.0000000000
     52570      1313  TIP3      H1             26.8268214683      -55.1201764206       37.7874549914  TIP3      913             0.0000000000
     52571      1313  TIP3      H2             26.3884763986      -53.9210901894       38.5256261304  TIP3      913             0.0000000000
     52572      1314  TIP3      OH2            26.4944849108      -37.7416396771       21.7859170690  TIP3      914             0.0000000000
     52573      1314  TIP3      H1             27.4466213162      -37.6361366345       21.9142903215  TIP3      914             0.0000000000
     52574      1314  TIP3      H2             26.2630862285      -37.0938102379       21.1425503594  TIP3      914             0.0000000000
     52575      1315  TIP3      OH2            20.0744566380      -43.1102740998       21.2744793297  TIP3      915             0.0000000000
     52576      1315  TIP3      H1             21.0237114541      -43.0675081199       21.5179783279  TIP3      915             0.0000000000
     52577      1315  TIP3      H2             20.0699588083      -43.8044342394       20.5838250090  TIP3      915             0.0000000000
     52578      1316  TIP3      OH2            18.7742568167      -37.7621144198       26.2884968285  TIP3      916             0.0000000000
     52579      1316  TIP3      H1             18.0694299108      -38.2337593283       25.8012417065  TIP3      916             0.0000000000
     52580      1316  TIP3      H2             19.0771253039      -38.4253423791       26.9288022705  TIP3      916             0.0000000000
     52581      1317  TIP3      OH2            19.6109866098      -39.6592695566       28.1320519722  TIP3      917             0.0000000000
     52582      1317  TIP3      H1             19.2627982178      -40.5408132651       28.3238993229  TIP3      917             0.0000000000
     52583      1317  TIP3      H2             19.8306295008      -39.3193895763       29.0186971345  TIP3      917             0.0000000000
     52584      1318  TIP3      OH2            37.1434906474      -38.8570494274       31.0945003464  TIP3      918             0.0000000000
     52585      1318  TIP3      H1             37.1517913618      -38.6730369909       32.0495585964  TIP3      918             0.0000000000
     52586      1318  TIP3      H2             37.8472247738      -38.2785858152       30.7772792194  TIP3      918             0.0000000000
     52587      1319  TIP3      OH2            36.7215287110      -39.2595620395       34.0342969785  TIP3      919             0.0000000000
     52588      1319  TIP3      H1             36.2370002707      -40.0291635670       33.6594598103  TIP3      919             0.0000000000
     52589      1319  TIP3      H2             37.2481687998      -39.6981461714       34.7234999924  TIP3      919             0.0000000000
     52590      1320  TIP3      OH2            35.1705744521      -43.5281359657       38.6726814672  TIP3      920             0.0000000000
     52591      1320  TIP3      H1             34.2864213273      -43.5801629937       39.0758042038  TIP3      920             0.0000000000
     52592      1320  TIP3      H2             35.5423956346      -42.7324495726       39.1230747309  TIP3      920             0.0000000000
     52593      1321  TIP3      OH2            36.4639088488      -45.2310935465       24.1471754011  TIP3      921             0.0000000000
     52594      1321  TIP3      H1             37.3285231200      -44.8208279334       24.3177188595  TIP3      921             0.0000000000
     52595      1321  TIP3      H2             36.4835906130      -45.9646113165       24.8033340767  TIP3      921             0.0000000000
     52596      1322  TIP3      OH2            36.8540498502      -47.1635790935       25.9942276214  TIP3      922             0.0000000000
     52597      1322  TIP3      H1             36.1123633548      -47.6579765579       26.4052992746  TIP3      922             0.0000000000
     52598      1322  TIP3      H2             37.4442413727      -46.9824237580       26.7572337853  TIP3      922             0.0000000000
     52599      1323  TIP3      OH2            36.6035223977      -44.4230035350       30.9806778394  TIP3      923             0.0000000000
     52600      1323  TIP3      H1             37.4445284219      -44.7886633601       30.6497818370  TIP3      923             0.0000000000
     52601      1323  TIP3      H2             36.7409796101      -43.4618064957       30.8304251891  TIP3      923             0.0000000000
     52602      1324  TIP3      OH2            35.1380272405      -41.5277644814       33.2747331857  TIP3      924             0.0000000000
     52603      1324  TIP3      H1             34.4551943113      -41.1938016169       33.8784071064  TIP3      924             0.0000000000
     52604      1324  TIP3      H2             34.5914118258      -41.9522989110       32.5769466319  TIP3      924             0.0000000000
     52605      1325  TIP3      OH2            35.4615697497      -49.9881569989       20.9568066686  TIP3      925             0.0000000000
     52606      1325  TIP3      H1             35.5083695118      -49.3512150144       20.2615684419  TIP3      925             0.0000000000
     52607      1325  TIP3      H2             35.3168913717      -50.8446345117       20.5076992101  TIP3      925             0.0000000000
     52608      1326  TIP3      OH2            34.6565807392      -48.6596550308       26.5702659943  TIP3      926             0.0000000000
     52609      1326  TIP3      H1             34.5008321424      -49.6147308412       26.5541499596  TIP3      926             0.0000000000
     52610      1326  TIP3      H2             34.3033119476      -48.4053988390       27.4397025902  TIP3      926             0.0000000000
     52611      1327  TIP3      OH2            19.6652550627      -46.5771686486       30.6110478896  TIP3      927             0.0000000000
     52612      1327  TIP3      H1             19.8675314893      -46.6611219876       29.6550797934  TIP3      927             0.0000000000
     52613      1327  TIP3      H2             20.5514902750      -46.7214551174       30.9925741124  TIP3      927             0.0000000000
     52614      1328  TIP3      OH2            35.4986920490      -46.6899524891       36.2411709625  TIP3      928             0.0000000000
     52615      1328  TIP3      H1             36.1100837566      -47.4404785233       36.4015878891  TIP3      928             0.0000000000
     52616      1328  TIP3      H2             36.0931990178      -45.9137935922       36.2610989796  TIP3      928             0.0000000000
     52617      1329  TIP3      OH2            37.0118691438      -48.7876113148       36.9171259641  TIP3      929             0.0000000000
     52618      1329  TIP3      H1             36.1357373350      -49.1910811591       36.7387347326  TIP3      929             0.0000000000
     52619      1329  TIP3      H2             37.6012401921      -49.5538932309       36.8287980033  TIP3      929             0.0000000000
     52620      1330  TIP3      OH2            34.3348818418      -51.0737736245       25.0346593102  TIP3      930             0.0000000000
     52621      1330  TIP3      H1             34.6370657944      -52.0013942478       25.1606211525  TIP3      930             0.0000000000
     52622      1330  TIP3      H2             35.1201623841      -50.6581718602       24.6570571216  TIP3      930             0.0000000000
     52623      1331  TIP3      OH2            34.9604791049      -50.5191299442       30.4688797731  TIP3      931             0.0000000000
     52624      1331  TIP3      H1             35.9187327253      -50.2877129514       30.4531313123  TIP3      931             0.0000000000
     52625      1331  TIP3      H2             34.7550922036      -50.3947805758       31.4094329716  TIP3      931             0.0000000000
     52626      1332  TIP3      OH2            35.0175336476      -49.7910337016       33.2537987543  TIP3      932             0.0000000000
     52627      1332  TIP3      H1             34.1491269440      -49.4992780382       33.6037854053  TIP3      932             0.0000000000
     52628      1332  TIP3      H2             35.4543582824      -48.9341854385       33.0369578761  TIP3      932             0.0000000000
     52629      1333  TIP3      OH2            19.2999616339      -51.2618589629       36.7492502913  TIP3      933             0.0000000000
     52630      1333  TIP3      H1             20.2152042919      -51.5010463514       36.9808588784  TIP3      933             0.0000000000
     52631      1333  TIP3      H2             18.8278919617      -52.0726711905       37.0870729533  TIP3      933             0.0000000000
     52632      1334  TIP3      OH2            37.3006470966      -55.7615453355       38.6100830882  TIP3      934             0.0000000000
     52633      1334  TIP3      H1             37.6409005050      -56.4274033799       37.9883010050  TIP3      934             0.0000000000
     52634      1334  TIP3      H2             37.4129566469      -54.9332684007       38.1176590335  TIP3      934             0.0000000000
     52635      1335  TIP3      OH2            34.9808153023      -53.7960374241       25.0913289736  TIP3      935             0.0000000000
     52636      1335  TIP3      H1             35.1655572548      -54.2654196108       25.9217411430  TIP3      935             0.0000000000
     52637      1335  TIP3      H2             34.3616764479      -54.4134855168       24.6238454469  TIP3      935             0.0000000000
     52638      1336  TIP3      OH2            20.4827218988      -52.9931834393       29.6142687065  TIP3      936             0.0000000000
     52639      1336  TIP3      H1             20.9498295637      -53.7966489068       29.9182984841  TIP3      936             0.0000000000
     52640      1336  TIP3      H2             20.9897018221      -52.2855141162       30.0407838374  TIP3      936             0.0000000000
     52641      1337  TIP3      OH2            18.7820009521      -50.0072241341       30.6964417692  TIP3      937             0.0000000000
     52642      1337  TIP3      H1             19.3185668411      -50.2228542220       29.9032795269  TIP3      937             0.0000000000
     52643      1337  TIP3      H2             19.1931375920      -49.1679858855       30.9476333162  TIP3      937             0.0000000000
     52644      1338  TIP3      OH2            36.8205895168      -53.6693170490       36.9552909560  TIP3      938             0.0000000000
     52645      1338  TIP3      H1             35.8787924501      -53.4075574605       36.9085682465  TIP3      938             0.0000000000
     52646      1338  TIP3      H2             36.8926869227      -54.2185276188       36.1561288388  TIP3      938             0.0000000000
     52647      1339  TIP3      OH2            19.1207217131      -53.7514068595       24.7496774854  TIP3      939             0.0000000000
     52648      1339  TIP3      H1             18.1914084668      -53.5294203042       24.6066036552  TIP3      939             0.0000000000
     52649      1339  TIP3      H2             19.5764440826      -53.2507027908       24.0476797979  TIP3      939             0.0000000000
     52650      1340  TIP3      OH2            33.8726483580      -38.7684145708       26.6932074716  TIP3      940             0.0000000000
     52651      1340  TIP3      H1             34.5496450049      -39.0979661465       26.0777370257  TIP3      940             0.0000000000
     52652      1340  TIP3      H2             34.4010783459      -38.2726376234       27.3332537730  TIP3      940             0.0000000000
     52653      1341  TIP3      OH2            19.0994854408      -55.0158100549       33.0785024083  TIP3      941             0.0000000000
     52654      1341  TIP3      H1             18.4225489315      -55.2514607482       33.7325639635  TIP3      941             0.0000000000
     52655      1341  TIP3      H2             18.6331752880      -54.3834258695       32.4967646922  TIP3      941             0.0000000000
     52656      1342  TIP3      OH2            21.2993370193      -41.8432003094       37.2249845496  TIP3      942             0.0000000000
     52657      1342  TIP3      H1             20.4582560824      -41.6531567115       36.7792067329  TIP3      942             0.0000000000
     52658      1342  TIP3      H2             21.0287796813      -41.9111895295       38.1500112065  TIP3      942             0.0000000000
     52659      1343  TIP3      OH2            24.2175037882      -40.8712188447       33.4936177182  TIP3      943             0.0000000000
     52660      1343  TIP3      H1             23.8383834728      -40.0291505463       33.2061441793  TIP3      943             0.0000000000
     52661      1343  TIP3      H2             25.1409233994      -40.7673676780       33.1806813546  TIP3      943             0.0000000000
     52662      1344  TIP3      OH2            28.5333335013      -39.4477895135       36.4189322920  TIP3      944             0.0000000000
     52663      1344  TIP3      H1             28.7124976921      -39.7931351513       37.3306370261  TIP3      944             0.0000000000
     52664      1344  TIP3      H2             29.4176746722      -39.1447100642       36.1401843115  TIP3      944             0.0000000000
     52665      1345  TIP3      OH2            30.8493408753      -38.1738556369       35.6881511929  TIP3      945             0.0000000000
     52666      1345  TIP3      H1             31.5667938996      -38.7882513521       35.4591436937  TIP3      945             0.0000000000
     52667      1345  TIP3      H2             31.2146452053      -37.7603543477       36.5017827093  TIP3      945             0.0000000000
     52668      1346  TIP3      OH2            35.8046103143      -55.5443612265       34.8003512186  TIP3      946             0.0000000000
     52669      1346  TIP3      H1             34.9903591470      -55.2410976970       34.3834805361  TIP3      946             0.0000000000
     52670      1346  TIP3      H2             36.0357489090      -56.3439418289       34.2608661304  TIP3      946             0.0000000000
     52671      1347  TIP3      OH2            21.6450347579      -37.6158032396       33.5145961015  TIP3      947             0.0000000000
     52672      1347  TIP3      H1             20.9093539833      -37.1452664039       33.0878444347  TIP3      947             0.0000000000
     52673      1347  TIP3      H2             21.2893245021      -37.8397737278       34.3869608500  TIP3      947             0.0000000000
     52674      1348  TIP3      OH2            24.1163354227      -38.0293066768       32.5670085950  TIP3      948             0.0000000000
     52675      1348  TIP3      H1             23.2215500577      -37.9140238823       32.9649104659  TIP3      948             0.0000000000
     52676      1348  TIP3      H2             24.0436260011      -37.4511373982       31.7813407405  TIP3      948             0.0000000000
     52677      1349  TIP3      OH2            28.8142060606      -38.1277780393       31.7354392419  TIP3      949             0.0000000000
     52678      1349  TIP3      H1             28.3507290565      -37.5806341734       31.0821932077  TIP3      949             0.0000000000
     52679      1349  TIP3      H2             28.9649520251      -37.4983432523       32.4698861836  TIP3      949             0.0000000000
     52680      1350  TIP3      OH2            31.1335119941      -39.2780193227       32.7114042793  TIP3      950             0.0000000000
     52681      1350  TIP3      H1             30.2398010037      -39.0559082689       32.4058735454  TIP3      950             0.0000000000
     52682      1350  TIP3      H2             31.5717930492      -38.4128073762       32.6305640200  TIP3      950             0.0000000000
     52683      1351  TIP3      OH2            33.7210451108      -37.7097016841       32.9932119142  TIP3      951             0.0000000000
     52684      1351  TIP3      H1             33.5874197654      -36.7585174345       32.7576441105  TIP3      951             0.0000000000
     52685      1351  TIP3      H2             33.9129469613      -38.0886163730       32.1156579640  TIP3      951             0.0000000000
     52686      1352  TIP3      OH2            21.0594200236      -38.9707054144       30.4337510331  TIP3      952             0.0000000000
     52687      1352  TIP3      H1             21.0247255433      -39.4217906648       31.3037147312  TIP3      952             0.0000000000
     52688      1352  TIP3      H2             21.8820643140      -39.3203196488       30.0349013104  TIP3      952             0.0000000000
     52689      1353  TIP3      OH2            23.1685587683      -40.2581578455       29.0924132045  TIP3      953             0.0000000000
     52690      1353  TIP3      H1             22.9860009666      -41.1945000190       29.2897715775  TIP3      953             0.0000000000
     52691      1353  TIP3      H2             24.0266375699      -40.1261532823       29.5550611027  TIP3      953             0.0000000000
     52692      1354  TIP3      OH2            25.7446812001      -39.7810079755       29.9537488420  TIP3      954             0.0000000000
     52693      1354  TIP3      H1             25.9411719010      -40.6935287217       29.6737338813  TIP3      954             0.0000000000
     52694      1354  TIP3      H2             25.8065845403      -39.8437967697       30.9145889801  TIP3      954             0.0000000000
     52695      1355  TIP3      OH2            29.2239159517      -54.1204511798       29.0916165047  TIP3      955             0.0000000000
     52696      1355  TIP3      H1             28.5601098199      -54.7812563043       29.3489924191  TIP3      955             0.0000000000
     52697      1355  TIP3      H2             29.7975428201      -54.6334658302       28.5046050778  TIP3      955             0.0000000000
     52698      1356  TIP3      OH2            34.3649727771      -56.0506421601       29.1844173620  TIP3      956             0.0000000000
     52699      1356  TIP3      H1             34.9872199106      -55.4744457749       28.6844655026  TIP3      956             0.0000000000
     52700      1356  TIP3      H2             33.4854135897      -55.7075639639       28.9497451748  TIP3      956             0.0000000000
     52701      1357  TIP3      OH2            36.0883889093      -54.8708459889       27.4853593474  TIP3      957             0.0000000000
     52702      1357  TIP3      H1             36.7298477003      -55.4122432920       27.0084040190  TIP3      957             0.0000000000
     52703      1357  TIP3      H2             36.5181534601      -53.9913718908       27.5638991305  TIP3      957             0.0000000000
     52704      1358  TIP3      OH2            21.5599119596      -55.4536253359       26.9304181197  TIP3      958             0.0000000000
     52705      1358  TIP3      H1             20.7863877508      -55.7250269925       26.4117837543  TIP3      958             0.0000000000
     52706      1358  TIP3      H2             22.0752289013      -56.2975611927       26.9055387691  TIP3      958             0.0000000000
     52707      1359  TIP3      OH2            20.4239978858      -55.7147101337       22.7355480827  TIP3      959             0.0000000000
     52708      1359  TIP3      H1             20.8503873638      -55.0761630524       22.1202443321  TIP3      959             0.0000000000
     52709      1359  TIP3      H2             19.7819372797      -55.1589306488       23.2047315339  TIP3      959             0.0000000000
     52710      1360  TIP3      OH2            26.1007608531      -55.5795033411       26.7414356790  TIP3      960             0.0000000000
     52711      1360  TIP3      H1             27.0015532331      -55.2049370880       26.6873319380  TIP3      960             0.0000000000
     52712      1360  TIP3      H2             26.0192656940      -55.7895825872       27.6729236513  TIP3      960             0.0000000000
     52713      1361  TIP3      OH2            31.7553586800      -55.5100006134       28.3700512619  TIP3      961             0.0000000000
     52714      1361  TIP3      H1             31.7690077244      -55.4497247147       27.4129660672  TIP3      961             0.0000000000
     52715      1361  TIP3      H2             31.4182998227      -56.4338232238       28.4992078957  TIP3      961             0.0000000000
     52716      1362  TIP3      OH2            33.0883632406      -55.4873619293       24.0721100560  TIP3      962             0.0000000000
     52717      1362  TIP3      H1             32.3517081403      -54.9115798090       23.8451483425  TIP3      962             0.0000000000
     52718      1362  TIP3      H2             32.6192359327      -56.3440451189       24.2027801090  TIP3      962             0.0000000000
     52719      1363  TIP3      OH2            22.2355656960      -53.8185083806       21.1859010384  TIP3      963             0.0000000000
     52720      1363  TIP3      H1             22.7542245051      -54.4097317872       20.6356033237  TIP3      963             0.0000000000
     52721      1363  TIP3      H2             22.8888099398      -53.4894097224       21.8096215988  TIP3      963             0.0000000000
     52722      1364  TIP3      OH2            27.2652861394      -53.5226107717       23.6174524669  TIP3      964             0.0000000000
     52723      1364  TIP3      H1             27.4668464626      -54.1326339362       24.3261120830  TIP3      964             0.0000000000
     52724      1364  TIP3      H2             27.2446540104      -52.6535581014       24.0722808075  TIP3      964             0.0000000000
     52725      1365  TIP3      OH2            29.1788751058      -38.5174649714       22.0104491814  TIP3      965             0.0000000000
     52726      1365  TIP3      H1             30.0392285205      -38.1835738351       21.8293191157  TIP3      965             0.0000000000
     52727      1365  TIP3      H2             28.8995509035      -39.0176791680       21.2203155548  TIP3      965             0.0000000000
     52728      1366  TIP3      OH2            35.8707390620      -38.9713021604       24.7209473964  TIP3      966             0.0000000000
     52729      1366  TIP3      H1             35.6742654953      -39.7468603384       24.1430945294  TIP3      966             0.0000000000
     52730      1366  TIP3      H2             35.8233984153      -38.2310858452       24.0826256980  TIP3      966             0.0000000000
     52731      1367  TIP3      OH2            21.4988029642      -54.9420062407       36.4144315534  TIP3      967             0.0000000000
     52732      1367  TIP3      H1             21.1469845647      -55.7529821819       36.8423727501  TIP3      967             0.0000000000
     52733      1367  TIP3      H2             22.4364040425      -54.9769985684       36.7333047483  TIP3      967             0.0000000000
     52734      1368  TIP3      OH2            23.4976217827      -55.5939726422       38.0120900566  TIP3      968             0.0000000000
     52735      1368  TIP3      H1             24.4028733940      -55.9006628257       37.7777397885  TIP3      968             0.0000000000
     52736      1368  TIP3      H2             23.1263812317      -56.3935953058       38.4307254549  TIP3      968             0.0000000000
     52737      1369  TIP3      OH2            22.0991955731      -38.8738391479       20.6418014350  TIP3      969             0.0000000000
     52738      1369  TIP3      H1             21.8825577418      -38.5315268602       21.5112043064  TIP3      969             0.0000000000
     52739      1369  TIP3      H2             22.9139025265      -39.3754174521       20.8029425716  TIP3      969             0.0000000000
     52740      1370  TIP3      OH2            31.9071869018       56.5405978954       38.1484677346  TIP3      970             0.0000000000
     52741      1370  TIP3      H1             31.9860152872       56.0910161318       39.0155615387  TIP3      970             0.0000000000
     52742      1370  TIP3      H2             32.8150290487       56.5430700629       37.8247511683  TIP3      970             0.0000000000
     52743      1371  TIP3      OH2            35.1037264261      -40.2483830567       36.8521369098  TIP3      971             0.0000000000
     52744      1371  TIP3      H1             34.3004890977      -40.3999191080       36.3080597515  TIP3      971             0.0000000000
     52745      1371  TIP3      H2             35.0039903628      -39.2925272510       37.0485612681  TIP3      971             0.0000000000
     52746      1372  TIP3      OH2            49.5269373999      -46.3582912734       26.8436859397  TIP3      972             0.0000000000
     52747      1372  TIP3      H1             49.5655366463      -45.3851104810       26.7563701164  TIP3      972             0.0000000000
     52748      1372  TIP3      H2             48.8333968717      -46.6113354532       26.2231695070  TIP3      972             0.0000000000
     52749      1373  TIP3      OH2            48.4144889652      -47.0899339778       30.3058242581  TIP3      973             0.0000000000
     52750      1373  TIP3      H1             48.3878303839      -47.7484362884       31.0070123336  TIP3      973             0.0000000000
     52751      1373  TIP3      H2             48.0893058210      -47.5771553046       29.5293227443  TIP3      973             0.0000000000
     52752      1374  TIP3      OH2            40.7739124871      -47.4549388917       31.8656044736  TIP3      974             0.0000000000
     52753      1374  TIP3      H1             40.8451096181      -48.1114508813       32.5918732764  TIP3      974             0.0000000000
     52754      1374  TIP3      H2             41.5051850651      -46.8570369274       32.0752567107  TIP3      974             0.0000000000
     52755      1375  TIP3      OH2            52.1239193550      -44.1531361826       28.5871326776  TIP3      975             0.0000000000
     52756      1375  TIP3      H1             51.6958341521      -44.8706622675       29.0638351108  TIP3      975             0.0000000000
     52757      1375  TIP3      H2             52.1133876801      -43.4347870778       29.2447919099  TIP3      975             0.0000000000
     52758      1376  TIP3      OH2            41.7006979701      -43.0015634741       30.4034013975  TIP3      976             0.0000000000
     52759      1376  TIP3      H1             41.3621330754      -43.8430692637       30.0449155249  TIP3      976             0.0000000000
     52760      1376  TIP3      H2             42.6559617715      -43.1917324974       30.4438554285  TIP3      976             0.0000000000
     52761      1377  TIP3      OH2            38.3444046795      -49.3952923322       25.8223796274  TIP3      977             0.0000000000
     52762      1377  TIP3      H1             37.8811799050      -48.5288348555       25.7986269570  TIP3      977             0.0000000000
     52763      1377  TIP3      H2             37.7589823093      -49.9524613991       25.3010404038  TIP3      977             0.0000000000
     52764      1378  TIP3      OH2            39.0282291360      -47.1988991233       27.9535062135  TIP3      978             0.0000000000
     52765      1378  TIP3      H1             39.2760142867      -47.9965000577       28.4547855300  TIP3      978             0.0000000000
     52766      1378  TIP3      H2             39.7682099969      -47.1087249184       27.3331983532  TIP3      978             0.0000000000
     52767      1379  TIP3      OH2            49.2238638966      -39.0168077573       28.8142497940  TIP3      979             0.0000000000
     52768      1379  TIP3      H1             49.8670406499      -39.7205454184       28.5397655926  TIP3      979             0.0000000000
     52769      1379  TIP3      H2             49.0282009160      -39.2945350245       29.7083372518  TIP3      979             0.0000000000
     52770      1380  TIP3      OH2            46.7918724613      -44.6736244816       30.7270665854  TIP3      980             0.0000000000
     52771      1380  TIP3      H1             47.1262495011      -45.3398894751       30.1039693595  TIP3      980             0.0000000000
     52772      1380  TIP3      H2             47.5641728370      -44.5448723141       31.3044924923  TIP3      980             0.0000000000
     52773      1381  TIP3      OH2            55.4431555393      -53.0610293472       31.5337689290  TIP3      981             0.0000000000
     52774      1381  TIP3      H1             55.5475156863      -52.4425832280       32.2947617055  TIP3      981             0.0000000000
     52775      1381  TIP3      H2             55.9213945377      -52.5941194004       30.8365566721  TIP3      981             0.0000000000
     52776      1382  TIP3      OH2            49.9525978929      -50.2407764298       31.0627106638  TIP3      982             0.0000000000
     52777      1382  TIP3      H1             50.1057854393      -51.2058911918       31.0554991500  TIP3      982             0.0000000000
     52778      1382  TIP3      H2             49.8492331165      -50.0776840410       30.1024600337  TIP3      982             0.0000000000
     52779      1383  TIP3      OH2            43.0916106697      -52.1568318305       28.3140405443  TIP3      983             0.0000000000
     52780      1383  TIP3      H1             43.1624187534      -51.3020954538       27.8542274426  TIP3      983             0.0000000000
     52781      1383  TIP3      H2             42.6588671014      -52.7218726756       27.6419543034  TIP3      983             0.0000000000
     52782      1384  TIP3      OH2            50.8241920674      -52.0338136688       26.6852241963  TIP3      984             0.0000000000
     52783      1384  TIP3      H1             51.4818725564      -52.3734047303       27.3403087202  TIP3      984             0.0000000000
     52784      1384  TIP3      H2             51.3625153247      -51.4977695644       26.0948605692  TIP3      984             0.0000000000
     52785      1385  TIP3      OH2            39.7050477495      -49.7463015938       29.0540855396  TIP3      985             0.0000000000
     52786      1385  TIP3      H1             40.3805621991      -50.3089258424       29.4902788546  TIP3      985             0.0000000000
     52787      1385  TIP3      H2             39.7740249039      -50.0479399802       28.1358656669  TIP3      985             0.0000000000
     52788      1386  TIP3      OH2            44.8716140656      -48.1926566409       28.3159100062  TIP3      986             0.0000000000
     52789      1386  TIP3      H1             45.5131811639      -48.7589592189       28.7714420773  TIP3      986             0.0000000000
     52790      1386  TIP3      H2             44.3182336543      -48.8569027575       27.8525978106  TIP3      986             0.0000000000
     52791      1387  TIP3      OH2            55.8911240065      -51.5920165391       33.7807295199  TIP3      987             0.0000000000
     52792      1387  TIP3      H1             55.1958558659      -50.9074125768       33.6847706748  TIP3      987             0.0000000000
     52793      1387  TIP3      H2             55.8722660141      -51.7646849791       34.7365466380  TIP3      987             0.0000000000
     52794      1388  TIP3      OH2            41.9504514078      -53.2646020130       32.3580644557  TIP3      988             0.0000000000
     52795      1388  TIP3      H1             41.6941313778      -52.6974152662       31.6028298508  TIP3      988             0.0000000000
     52796      1388  TIP3      H2             41.2634421558      -53.0070113061       33.0269255672  TIP3      988             0.0000000000
     52797      1389  TIP3      OH2            49.2925434833      -43.7559954308       25.9014325732  TIP3      989             0.0000000000
     52798      1389  TIP3      H1             48.9730288397      -44.0500003114       25.0559365063  TIP3      989             0.0000000000
     52799      1389  TIP3      H2             48.9604848825      -42.8280275821       25.9575764431  TIP3      989             0.0000000000
     52800      1390  TIP3      OH2            44.4940541809      -45.5975009975       32.6303803095  TIP3      990             0.0000000000
     52801      1390  TIP3      H1             43.7618318357      -44.9608552337       32.7806583990  TIP3      990             0.0000000000
     52802      1390  TIP3      H2             45.1991684324      -45.0067901538       32.3269166963  TIP3      990             0.0000000000
     52803      1391  TIP3      OH2            52.6217389568      -52.7317101202       28.6621656937  TIP3      991             0.0000000000
     52804      1391  TIP3      H1             52.3863328717      -53.4911168538       29.2117800824  TIP3      991             0.0000000000
     52805      1391  TIP3      H2             53.2683929303      -52.2700358732       29.2123310093  TIP3      991             0.0000000000
     52806      1392  TIP3      OH2            41.5056724668      -51.3603781626       30.3396715817  TIP3      992             0.0000000000
     52807      1392  TIP3      H1             42.1529235224      -50.7080422786       30.6954708353  TIP3      992             0.0000000000
     52808      1392  TIP3      H2             42.0451148725      -51.8225913208       29.6534447115  TIP3      992             0.0000000000
     52809      1393  TIP3      OH2            42.9220452806      -43.6177902994       33.4245497266  TIP3      993             0.0000000000
     52810      1393  TIP3      H1             42.8875416067      -42.7088984186       33.0677365724  TIP3      993             0.0000000000
     52811      1393  TIP3      H2             42.0372088861      -43.6841556566       33.8671327611  TIP3      993             0.0000000000
     52812      1394  TIP3      OH2            39.0077398083      -43.9593748222       24.2172340297  TIP3      994             0.0000000000
     52813      1394  TIP3      H1             38.7411980601      -43.6816608183       23.3205813480  TIP3      994             0.0000000000
     52814      1394  TIP3      H2             39.0746743523      -43.1079977903       24.6889487245  TIP3      994             0.0000000000
     52815      1395  TIP3      OH2            52.6370203124      -42.3291543329       30.9536300230  TIP3      995             0.0000000000
     52816      1395  TIP3      H1             51.6704525582      -42.2337146037       31.0934547821  TIP3      995             0.0000000000
     52817      1395  TIP3      H2             52.9150889900      -41.4047612086       30.7896243004  TIP3      995             0.0000000000
     52818      1396  TIP3      OH2            52.9646324247      -54.0376211950       32.3727061322  TIP3      996             0.0000000000
     52819      1396  TIP3      H1             52.2193947506      -53.4234469171       32.2971097758  TIP3      996             0.0000000000
     52820      1396  TIP3      H2             53.6459819961      -53.6192113644       31.8289206021  TIP3      996             0.0000000000
     52821      1397  TIP3      OH2            45.9548597341      -55.9158789405       29.8093388355  TIP3      997             0.0000000000
     52822      1397  TIP3      H1             45.8305220152      -56.8822475945       29.7586303206  TIP3      997             0.0000000000
     52823      1397  TIP3      H2             45.0792105653      -55.6073998167       30.1019764457  TIP3      997             0.0000000000
     52824      1398  TIP3      OH2            50.9014972846      -40.5366315731       27.5863766573  TIP3      998             0.0000000000
     52825      1398  TIP3      H1             51.3242466696      -41.2480217563       27.0648891473  TIP3      998             0.0000000000
     52826      1398  TIP3      H2             51.2580062214      -39.7354827173       27.1482635618  TIP3      998             0.0000000000
     52827      1399  TIP3      OH2            52.0665331871      -42.6071688744       26.0773030602  TIP3      999             0.0000000000
     52828      1399  TIP3      H1             51.8064722281      -43.3161331521       25.4663540529  TIP3      999             0.0000000000
     52829      1399  TIP3      H2             52.1252574801      -43.0931871827       26.9214782884  TIP3      999             0.0000000000
     52830      1400  TIP3      OH2            53.7314715181      -44.0482322747       34.5619647942  TIP3      1000            0.0000000000
     52831      1400  TIP3      H1             53.8671682381      -44.6654267621       33.8135729434  TIP3      1000            0.0000000000
     52832      1400  TIP3      H2             53.9193962754      -43.1815906142       34.1653305170  TIP3      1000            0.0000000000
     52833      1401  TIP3      OH2            48.2233370001      -47.0914938272       24.3157641073  TIP3      1001            0.0000000000
     52834      1401  TIP3      H1             47.4725914674      -46.5798458684       23.9904665108  TIP3      1001            0.0000000000
     52835      1401  TIP3      H2             48.9245058303      -47.0473342923       23.6731781654  TIP3      1001            0.0000000000
     52836      1402  TIP3      OH2            55.5554316826      -47.7459241881       32.5990532944  TIP3      1002            0.0000000000
     52837      1402  TIP3      H1             54.9281706922      -47.0037295979       32.6900403773  TIP3      1002            0.0000000000
     52838      1402  TIP3      H2             56.0526825634      -47.4851721405       31.7990647548  TIP3      1002            0.0000000000
     52839      1403  TIP3      OH2            51.6079567732      -46.8924079947       25.2419905817  TIP3      1003            0.0000000000
     52840      1403  TIP3      H1             50.8904401307      -46.6642551323       25.8712368927  TIP3      1003            0.0000000000
     52841      1403  TIP3      H2             52.0903825990      -47.5830485773       25.7411457298  TIP3      1003            0.0000000000
     52842      1404  TIP3      OH2            51.5536101855      -48.7456650522       34.3544093374  TIP3      1004            0.0000000000
     52843      1404  TIP3      H1             51.5837324336      -47.9439292676       34.9062299086  TIP3      1004            0.0000000000
     52844      1404  TIP3      H2             50.9256069213      -48.4394076476       33.6625287404  TIP3      1004            0.0000000000
     52845      1405  TIP3      OH2            43.2677353426      -46.2430051599       27.1674016383  TIP3      1005            0.0000000000
     52846      1405  TIP3      H1             42.9424600020      -46.6374680554       26.3205266202  TIP3      1005            0.0000000000
     52847      1405  TIP3      H2             43.8717543374      -46.9445420158       27.5002105409  TIP3      1005            0.0000000000
     52848      1406  TIP3      OH2            44.6052799912      -42.8360778438       29.8480893268  TIP3      1006            0.0000000000
     52849      1406  TIP3      H1             44.5557397644      -43.4067943984       29.0695476530  TIP3      1006            0.0000000000
     52850      1406  TIP3      H2             45.3703915051      -43.2158785220       30.3166219796  TIP3      1006            0.0000000000
     52851      1407  TIP3      OH2            43.6136235533      -47.5050969603       30.8029314297  TIP3      1007            0.0000000000
     52852      1407  TIP3      H1             44.1864022701      -47.3806213534       30.0225151614  TIP3      1007            0.0000000000
     52853      1407  TIP3      H2             43.9658302849      -46.8459475639       31.4335240224  TIP3      1007            0.0000000000
     52854      1408  TIP3      OH2            49.9700958895      -41.9555150349       31.5134205967  TIP3      1008            0.0000000000
     52855      1408  TIP3      H1             49.7075774130      -41.3210675017       32.1814136095  TIP3      1008            0.0000000000
     52856      1408  TIP3      H2             49.7438239858      -42.8147512948       31.9541123128  TIP3      1008            0.0000000000
     52857      1409  TIP3      OH2            44.5378403648      -43.0914259179       35.5144840474  TIP3      1009            0.0000000000
     52858      1409  TIP3      H1             44.1751327442      -42.3159265815       35.9838141610  TIP3      1009            0.0000000000
     52859      1409  TIP3      H2             43.8596520897      -43.2604765014       34.8152766782  TIP3      1009            0.0000000000
     52860      1410  TIP3      OH2            41.4643445888      -46.9141105288       34.7077926678  TIP3      1010            0.0000000000
     52861      1410  TIP3      H1             41.5083053981      -46.2444247451       35.4213634278  TIP3      1010            0.0000000000
     52862      1410  TIP3      H2             40.5425106936      -46.8029563883       34.4297264860  TIP3      1010            0.0000000000
     52863      1411  TIP3      OH2            48.2299394285      -41.0064893288       26.3881864569  TIP3      1011            0.0000000000
     52864      1411  TIP3      H1             48.6834681786      -40.6950171472       27.1783273857  TIP3      1011            0.0000000000
     52865      1411  TIP3      H2             47.6676943725      -40.2535529717       26.1611776321  TIP3      1011            0.0000000000
     52866      1412  TIP3      OH2            42.7759984618      -41.0265582164       36.2739710109  TIP3      1012            0.0000000000
     52867      1412  TIP3      H1             42.7477685282      -41.1541415722       35.3111408247  TIP3      1012            0.0000000000
     52868      1412  TIP3      H2             41.8378338061      -41.1513345205       36.5234067896  TIP3      1012            0.0000000000
     52869      1413  TIP3      OH2            54.4275930730      -55.7918964266       22.9098896774  TIP3      1013            0.0000000000
     52870      1413  TIP3      H1             53.5101885567      -55.7051126797       23.1932064648  TIP3      1013            0.0000000000
     52871      1413  TIP3      H2             54.5263146555      -55.0301860028       22.3279019422  TIP3      1013            0.0000000000
     52872      1414  TIP3      OH2            42.2411038504      -47.2044165154       24.7902237843  TIP3      1014            0.0000000000
     52873      1414  TIP3      H1             41.9642690761      -46.4294192069       24.2482191138  TIP3      1014            0.0000000000
     52874      1414  TIP3      H2             41.5834180309      -47.8636444910       24.5674544694  TIP3      1014            0.0000000000
     52875      1415  TIP3      OH2            55.3828319104      -41.6071887267       21.2809866723  TIP3      1015            0.0000000000
     52876      1415  TIP3      H1             55.4551130447      -40.6593088154       21.2701006755  TIP3      1015            0.0000000000
     52877      1415  TIP3      H2             56.2668919345      -41.9212404428       21.0527781440  TIP3      1015            0.0000000000
     52878      1416  TIP3      OH2            38.3424431886      -44.8088981691       33.6123740379  TIP3      1016            0.0000000000
     52879      1416  TIP3      H1             37.8599778953      -44.8750994145       32.7681200305  TIP3      1016            0.0000000000
     52880      1416  TIP3      H2             38.3700602172      -45.7487953984       33.8708796723  TIP3      1016            0.0000000000
     52881      1417  TIP3      OH2            38.0929231373      -42.0614611064       30.4451085769  TIP3      1017            0.0000000000
     52882      1417  TIP3      H1             39.0505763186      -42.1875372545       30.4278422048  TIP3      1017            0.0000000000
     52883      1417  TIP3      H2             37.9973890669      -41.2582077719       30.9743158431  TIP3      1017            0.0000000000
     52884      1418  TIP3      OH2            47.2844937175      -41.8191235121       34.9954481492  TIP3      1018            0.0000000000
     52885      1418  TIP3      H1             47.3566348292      -40.9761375226       35.5008858721  TIP3      1018            0.0000000000
     52886      1418  TIP3      H2             46.4075148084      -42.1567410162       35.2557465769  TIP3      1018            0.0000000000
     52887      1419  TIP3      OH2            47.6928589239      -38.0685669793       24.8100813208  TIP3      1019            0.0000000000
     52888      1419  TIP3      H1             47.6155128739      -38.1514361042       23.8480896684  TIP3      1019            0.0000000000
     52889      1419  TIP3      H2             47.7300043119      -37.1022640759       24.9482287101  TIP3      1019            0.0000000000
     52890      1420  TIP3      OH2            41.3570347094      -39.2127379514       26.6064894554  TIP3      1020            0.0000000000
     52891      1420  TIP3      H1             41.4978343100      -39.6129289623       27.4892744601  TIP3      1020            0.0000000000
     52892      1420  TIP3      H2             40.5040391724      -39.6073708642       26.3588519561  TIP3      1020            0.0000000000
     52893      1421  TIP3      OH2            50.7346390741      -38.8897968517       21.8205544666  TIP3      1021            0.0000000000
     52894      1421  TIP3      H1             51.1923421213      -39.6266978403       21.3548068848  TIP3      1021            0.0000000000
     52895      1421  TIP3      H2             50.8152289680      -39.1649211529       22.7495393341  TIP3      1021            0.0000000000
     52896      1422  TIP3      OH2            50.4552555041      -38.9381119456       24.5704827563  TIP3      1022            0.0000000000
     52897      1422  TIP3      H1             49.5024764019      -38.8606614285       24.7524538363  TIP3      1022            0.0000000000
     52898      1422  TIP3      H2             50.7340065963      -39.6693426816       25.1418284950  TIP3      1022            0.0000000000
     52899      1423  TIP3      OH2            53.4556523853      -49.8824521716       36.6065490117  TIP3      1023            0.0000000000
     52900      1423  TIP3      H1             53.0158171791      -49.4179813525       35.8804905552  TIP3      1023            0.0000000000
     52901      1423  TIP3      H2             53.4849393767      -50.8037448832       36.2963958328  TIP3      1023            0.0000000000
     52902      1424  TIP3      OH2            40.6037959055      -43.4903765823       34.6047990106  TIP3      1024            0.0000000000
     52903      1424  TIP3      H1             40.8253446791      -43.8654599322       35.4824910071  TIP3      1024            0.0000000000
     52904      1424  TIP3      H2             39.7357846990      -43.8876067163       34.3932434951  TIP3      1024            0.0000000000
     52905      1425  TIP3      OH2            43.2652426310      -55.0237467094       30.5539477720  TIP3      1025            0.0000000000
     52906      1425  TIP3      H1             42.3556857638      -55.1123752792       30.1835087551  TIP3      1025            0.0000000000
     52907      1425  TIP3      H2             43.1846715044      -54.1796278788       31.0311027343  TIP3      1025            0.0000000000
     52908      1426  TIP3      OH2            47.9088873691      -55.3055294794       33.9644157433  TIP3      1026            0.0000000000
     52909      1426  TIP3      H1             48.3172969478      -55.7426105185       34.7323057634  TIP3      1026            0.0000000000
     52910      1426  TIP3      H2             46.9435540905      -55.4835936641       34.0910794907  TIP3      1026            0.0000000000
     52911      1427  TIP3      OH2            51.2028884055      -51.5532522935       34.8117272786  TIP3      1027            0.0000000000
     52912      1427  TIP3      H1             50.6686917551      -51.6985816373       35.6277010370  TIP3      1027            0.0000000000
     52913      1427  TIP3      H2             51.0469744562      -50.6231682237       34.5803951831  TIP3      1027            0.0000000000
     52914      1428  TIP3      OH2            43.3503422063      -50.0732162484       31.7444367418  TIP3      1028            0.0000000000
     52915      1428  TIP3      H1             42.6535087035      -50.0872469334       32.4267199957  TIP3      1028            0.0000000000
     52916      1428  TIP3      H2             43.3441095648      -49.1344614500       31.4489061665  TIP3      1028            0.0000000000
     52917      1429  TIP3      OH2            43.3281770415      -49.8756309211       26.6484217299  TIP3      1029            0.0000000000
     52918      1429  TIP3      H1             42.4067763722      -50.1871300150       26.5410037911  TIP3      1029            0.0000000000
     52919      1429  TIP3      H2             43.7506072262      -50.2165536663       25.8349705279  TIP3      1029            0.0000000000
     52920      1430  TIP3      OH2            48.8478644053      -49.4406680153       25.4282771746  TIP3      1030            0.0000000000
     52921      1430  TIP3      H1             48.4381446809      -48.6072864907       25.1334591999  TIP3      1030            0.0000000000
     52922      1430  TIP3      H2             49.5661914214      -49.5788502075       24.8054681454  TIP3      1030            0.0000000000
     52923      1431  TIP3      OH2            47.9426520092      -49.2287540034       36.8979793236  TIP3      1031            0.0000000000
     52924      1431  TIP3      H1             47.3867105347      -49.9796066153       37.2203689569  TIP3      1031            0.0000000000
     52925      1431  TIP3      H2             48.7750243145      -49.3664379711       37.3797647862  TIP3      1031            0.0000000000
     52926      1432  TIP3      OH2            49.8705884209      -49.9602637606       28.2659279855  TIP3      1032            0.0000000000
     52927      1432  TIP3      H1             49.6396781512      -49.3836742748       27.5180839614  TIP3      1032            0.0000000000
     52928      1432  TIP3      H2             50.0160079513      -50.8106019492       27.8008449420  TIP3      1032            0.0000000000
     52929      1433  TIP3      OH2            41.0397216131      -49.7601923687       33.5301402059  TIP3      1033            0.0000000000
     52930      1433  TIP3      H1             41.0449448054      -49.3614687429       34.4180988559  TIP3      1033            0.0000000000
     52931      1433  TIP3      H2             40.5647989828      -50.5896324155       33.6770550232  TIP3      1033            0.0000000000
     52932      1434  TIP3      OH2            37.6628352521      -52.6390489977       27.4374673378  TIP3      1034            0.0000000000
     52933      1434  TIP3      H1             38.3237379015      -52.6813914634       28.1564755181  TIP3      1034            0.0000000000
     52934      1434  TIP3      H2             38.1265334985      -53.0530124523       26.6866266399  TIP3      1034            0.0000000000
     52935      1435  TIP3      OH2            38.9490484895      -51.9208813887       22.8601675265  TIP3      1035            0.0000000000
     52936      1435  TIP3      H1             39.4288027425      -51.3127110301       22.2683499076  TIP3      1035            0.0000000000
     52937      1435  TIP3      H2             38.2345507273      -51.3469459632       23.1930969223  TIP3      1035            0.0000000000
     52938      1436  TIP3      OH2            49.1085489351      -48.3381333100       32.8865367916  TIP3      1036            0.0000000000
     52939      1436  TIP3      H1             49.4546463421      -49.0050926813       32.2641775447  TIP3      1036            0.0000000000
     52940      1436  TIP3      H2             48.6592857657      -48.8837029908       33.5562671208  TIP3      1036            0.0000000000
     52941      1437  TIP3      OH2            45.8969871310      -52.4022841531       27.6872385322  TIP3      1037            0.0000000000
     52942      1437  TIP3      H1             44.9643317787      -52.3701749862       27.9870671521  TIP3      1037            0.0000000000
     52943      1437  TIP3      H2             46.3987760639      -52.5081721477       28.5074970889  TIP3      1037            0.0000000000
     52944      1438  TIP3      OH2            40.7216993177      -50.8045332495       26.5367010308  TIP3      1038            0.0000000000
     52945      1438  TIP3      H1             39.8210928487      -50.6850247273       26.1724156266  TIP3      1038            0.0000000000
     52946      1438  TIP3      H2             41.0141446525      -51.6493459755       26.1594547088  TIP3      1038            0.0000000000
     52947      1439  TIP3      OH2            44.3569538676      -50.7930188777       24.1830681003  TIP3      1039            0.0000000000
     52948      1439  TIP3      H1             45.3118009653      -50.6765127679       24.3650033536  TIP3      1039            0.0000000000
     52949      1439  TIP3      H2             44.1389020797      -50.1134324678       23.5192984328  TIP3      1039            0.0000000000
     52950      1440  TIP3      OH2            50.3164027987      -53.1648959097       30.9322559762  TIP3      1040            0.0000000000
     52951      1440  TIP3      H1             49.6172320198      -53.0596709889       31.6163513952  TIP3      1040            0.0000000000
     52952      1440  TIP3      H2             49.8062316620      -53.3646978896       30.1402050222  TIP3      1040            0.0000000000
     52953      1441  TIP3      OH2            43.0675162385      -49.6327020833       21.7658239375  TIP3      1041            0.0000000000
     52954      1441  TIP3      H1             42.4998651283      -49.9509544272       21.0490200201  TIP3      1041            0.0000000000
     52955      1441  TIP3      H2             43.8760536729      -49.3725907238       21.2977940494  TIP3      1041            0.0000000000
     52956      1442  TIP3      OH2            53.5429218279      -37.5171169563       37.2593694290  TIP3      1042            0.0000000000
     52957      1442  TIP3      H1             53.7874558363      -37.1104551845       36.4028774278  TIP3      1042            0.0000000000
     52958      1442  TIP3      H2             54.2330643162      -37.1706216255       37.8368235461  TIP3      1042            0.0000000000
     52959      1443  TIP3      OH2            41.1961149082      -45.0401622771       36.8240798207  TIP3      1043            0.0000000000
     52960      1443  TIP3      H1             41.9085238323      -44.7817830846       37.4312281492  TIP3      1043            0.0000000000
     52961      1443  TIP3      H2             40.4005703677      -44.8741210920       37.3812455182  TIP3      1043            0.0000000000
     52962      1444  TIP3      OH2            47.1963578535      -49.6241096305       29.5793599386  TIP3      1044            0.0000000000
     52963      1444  TIP3      H1             47.7768531661      -50.1723380940       29.0349893586  TIP3      1044            0.0000000000
     52964      1444  TIP3      H2             47.0551966416      -50.1619909769       30.3695777810  TIP3      1044            0.0000000000
     52965      1445  TIP3      OH2            42.1921253573      -53.4864264737       25.9839888816  TIP3      1045            0.0000000000
     52966      1445  TIP3      H1             41.8912268191      -54.4078543324       25.9924614974  TIP3      1045            0.0000000000
     52967      1445  TIP3      H2             43.0026455984      -53.5120207643       25.4666811383  TIP3      1045            0.0000000000
     52968      1446  TIP3      OH2            45.8304166470      -51.2616774478       31.9874485896  TIP3      1046            0.0000000000
     52969      1446  TIP3      H1             44.9935613252      -50.7728226345       32.1010144482  TIP3      1046            0.0000000000
     52970      1446  TIP3      H2             46.3718657016      -50.9580493500       32.7421079125  TIP3      1046            0.0000000000
     52971      1447  TIP3      OH2            53.5680833978      -45.8991616316       32.4823073895  TIP3      1047            0.0000000000
     52972      1447  TIP3      H1             54.1679960082      -45.4137865636       31.8944067698  TIP3      1047            0.0000000000
     52973      1447  TIP3      H2             52.7151609169      -45.7939502091       32.0072774317  TIP3      1047            0.0000000000
     52974      1448  TIP3      OH2            47.9019261213      -44.8321584901       34.9204738347  TIP3      1048            0.0000000000
     52975      1448  TIP3      H1             47.5569873237      -45.2280435659       35.7285636986  TIP3      1048            0.0000000000
     52976      1448  TIP3      H2             47.6829399867      -43.8996756500       35.0069976916  TIP3      1048            0.0000000000
     52977      1449  TIP3      OH2            51.0051578404      -50.3649495860       23.5052676396  TIP3      1049            0.0000000000
     52978      1449  TIP3      H1             51.8903106956      -50.4825973780       23.9117132173  TIP3      1049            0.0000000000
     52979      1449  TIP3      H2             51.0485939432      -49.5480162671       23.0093337992  TIP3      1049            0.0000000000
     52980      1450  TIP3      OH2            41.5090242683      -45.7063538612       29.4710219506  TIP3      1050            0.0000000000
     52981      1450  TIP3      H1             42.2396314381      -45.7485180991       28.8230125076  TIP3      1050            0.0000000000
     52982      1450  TIP3      H2             41.5854361240      -46.5568107251       29.9366422393  TIP3      1050            0.0000000000
     52983      1451  TIP3      OH2            38.5076861952      -47.2633744199       34.7564275882  TIP3      1051            0.0000000000
     52984      1451  TIP3      H1             38.7204121818      -47.7038726248       35.6035174119  TIP3      1051            0.0000000000
     52985      1451  TIP3      H2             37.9003469055      -47.8924081937       34.3308403460  TIP3      1051            0.0000000000
     52986      1452  TIP3      OH2            45.5247513711      -47.7318632430       36.9680999259  TIP3      1052            0.0000000000
     52987      1452  TIP3      H1             45.2269563683      -47.9585186073       36.0763630870  TIP3      1052            0.0000000000
     52988      1452  TIP3      H2             46.4652136000      -47.9995693735       36.9509836528  TIP3      1052            0.0000000000
     52989      1453  TIP3      OH2            50.1766176095      -42.3897178632       34.8592343537  TIP3      1053            0.0000000000
     52990      1453  TIP3      H1             49.2545631814      -42.1957951307       34.6237228820  TIP3      1053            0.0000000000
     52991      1453  TIP3      H2             50.1789387708      -42.1067692915       35.7966247091  TIP3      1053            0.0000000000
     52992      1454  TIP3      OH2            55.8069164705      -50.1152745496       23.2726839036  TIP3      1054            0.0000000000
     52993      1454  TIP3      H1             55.3243898977      -50.5213785084       22.5586469521  TIP3      1054            0.0000000000
     52994      1454  TIP3      H2             55.9816104011      -49.1986922450       22.9715137114  TIP3      1054            0.0000000000
     52995      1455  TIP3      OH2            55.8513327763      -44.3555038908       36.0867927353  TIP3      1055            0.0000000000
     52996      1455  TIP3      H1             54.9793726209      -44.1003228519       35.7023738450  TIP3      1055            0.0000000000
     52997      1455  TIP3      H2             56.4204219679      -44.3489993309       35.2957488277  TIP3      1055            0.0000000000
     52998      1456  TIP3      OH2            54.1925901062      -41.3529661064       23.7056543093  TIP3      1056            0.0000000000
     52999      1456  TIP3      H1             53.8030608056      -42.1829766260       24.0019347517  TIP3      1056            0.0000000000
     53000      1456  TIP3      H2             54.4505162427      -41.5450144098       22.7750816598  TIP3      1056            0.0000000000
     53001      1457  TIP3      OH2            51.3491968040      -46.5388443872       30.7488891597  TIP3      1057            0.0000000000
     53002      1457  TIP3      H1             50.4089110561      -46.7784130621       30.6796607011  TIP3      1057            0.0000000000
     53003      1457  TIP3      H2             51.7891925006      -47.3219303605       30.3707577663  TIP3      1057            0.0000000000
     53004      1458  TIP3      OH2            43.8786615422      -42.2193710089       26.8790308917  TIP3      1058            0.0000000000
     53005      1458  TIP3      H1             44.4057703393      -41.4345135942       26.6531171564  TIP3      1058            0.0000000000
     53006      1458  TIP3      H2             43.0028577039      -41.9863704062       26.5470546933  TIP3      1058            0.0000000000
     53007      1459  TIP3      OH2            45.3240799893      -44.5575609324       26.4280893465  TIP3      1059            0.0000000000
     53008      1459  TIP3      H1             45.0361166291      -43.6289843351       26.4808255685  TIP3      1059            0.0000000000
     53009      1459  TIP3      H2             44.5678522195      -45.0256520249       26.8304259777  TIP3      1059            0.0000000000
     53010      1460  TIP3      OH2            45.7826003006      -40.3925556736       32.7660851816  TIP3      1060            0.0000000000
     53011      1460  TIP3      H1             46.1991597338      -39.5535918295       32.5121844958  TIP3      1060            0.0000000000
     53012      1460  TIP3      H2             46.3675158398      -40.7012121249       33.4834727862  TIP3      1060            0.0000000000
     53013      1461  TIP3      OH2            43.9989492804      -39.5512845297       25.9656755311  TIP3      1061            0.0000000000
     53014      1461  TIP3      H1             43.0279014587      -39.4274433700       26.0465844226  TIP3      1061            0.0000000000
     53015      1461  TIP3      H2             44.3452989993      -38.7083757230       26.3099060994  TIP3      1061            0.0000000000
     53016      1462  TIP3      OH2            49.3379706316      -44.3288891694       32.4336066983  TIP3      1062            0.0000000000
     53017      1462  TIP3      H1             48.9454489975      -44.5452929145       33.3007643324  TIP3      1062            0.0000000000
     53018      1462  TIP3      H2             49.9450980927      -45.0633558331       32.2595252284  TIP3      1062            0.0000000000
     53019      1463  TIP3      OH2            51.5430247825      -43.3721407681       21.5388989792  TIP3      1063            0.0000000000
     53020      1463  TIP3      H1             51.9355590956      -43.7716222030       22.3348415890  TIP3      1063            0.0000000000
     53021      1463  TIP3      H2             50.6148074567      -43.4758660235       21.6136923512  TIP3      1063            0.0000000000
     53022      1464  TIP3      OH2            52.0505541045      -39.7722780254       34.9264297661  TIP3      1064            0.0000000000
     53023      1464  TIP3      H1             51.4125184608      -40.3019678443       34.4149800345  TIP3      1064            0.0000000000
     53024      1464  TIP3      H2             52.3008483025      -39.0837961769       34.2757983513  TIP3      1064            0.0000000000
     53025      1465  TIP3      OH2            40.1653142042      -52.5259979107       34.3098491241  TIP3      1065            0.0000000000
     53026      1465  TIP3      H1             39.2525963549      -52.1817094043       34.2749824271  TIP3      1065            0.0000000000
     53027      1465  TIP3      H2             40.0410572369      -53.3827252268       34.7490219389  TIP3      1065            0.0000000000
     53028      1466  TIP3      OH2            52.4000152759      -44.6891927457       23.7611814984  TIP3      1066            0.0000000000
     53029      1466  TIP3      H1             52.1744107981      -45.4564982576       24.3160707965  TIP3      1066            0.0000000000
     53030      1466  TIP3      H2             53.3622609901      -44.6074127064       23.9365579234  TIP3      1066            0.0000000000
     53031      1467  TIP3      OH2            39.7939274066      -40.7225542821       32.7401261409  TIP3      1067            0.0000000000
     53032      1467  TIP3      H1             40.0394979647      -41.6622921771       32.7342982206  TIP3      1067            0.0000000000
     53033      1467  TIP3      H2             40.0450203908      -40.4534010638       33.6326414953  TIP3      1067            0.0000000000
     53034      1468  TIP3      OH2            44.6033037796      -42.6913228649       22.4127797961  TIP3      1068            0.0000000000
     53035      1468  TIP3      H1             44.7338051345      -43.2194072555       23.2087218893  TIP3      1068            0.0000000000
     53036      1468  TIP3      H2             44.5806039153      -41.7742136715       22.7452712644  TIP3      1068            0.0000000000
     53037      1469  TIP3      OH2            41.0520962913      -45.4613714969       22.9535375903  TIP3      1069            0.0000000000
     53038      1469  TIP3      H1             40.3607204310      -45.0662566973       23.5037204039  TIP3      1069            0.0000000000
     53039      1469  TIP3      H2             41.5681545406      -44.6844931319       22.6657316949  TIP3      1069            0.0000000000
     53040      1470  TIP3      OH2            48.8834243290      -52.7707614548       33.2268842666  TIP3      1070            0.0000000000
     53041      1470  TIP3      H1             49.5939200363      -52.7110127818       33.8794268645  TIP3      1070            0.0000000000
     53042      1470  TIP3      H2             48.5022824441      -53.6530258420       33.4058847430  TIP3      1070            0.0000000000
     53043      1471  TIP3      OH2            49.7194595586      -53.1774973857       24.2908557998  TIP3      1071            0.0000000000
     53044      1471  TIP3      H1             49.8536546352      -52.6338948189       23.5165002522  TIP3      1071            0.0000000000
     53045      1471  TIP3      H2             50.2082865529      -52.7300810958       24.9971149202  TIP3      1071            0.0000000000
     53046      1472  TIP3      OH2            47.3321860105      -41.0250210542       23.1440106125  TIP3      1072            0.0000000000
     53047      1472  TIP3      H1             46.5145575381      -40.5034489440       23.2508697545  TIP3      1072            0.0000000000
     53048      1472  TIP3      H2             47.8761115806      -40.5068489164       22.5484812269  TIP3      1072            0.0000000000
     53049      1473  TIP3      OH2            46.8645868987      -51.4134860055       25.1408097330  TIP3      1073            0.0000000000
     53050      1473  TIP3      H1             47.6743646467      -50.8845905888       25.2004010130  TIP3      1073            0.0000000000
     53051      1473  TIP3      H2             46.6102104813      -51.5625485031       26.0684990416  TIP3      1073            0.0000000000
     53052      1474  TIP3      OH2            47.4100209015      -50.4225688381       34.3358491837  TIP3      1074            0.0000000000
     53053      1474  TIP3      H1             47.5098938245      -49.8422248012       35.1147898241  TIP3      1074            0.0000000000
     53054      1474  TIP3      H2             48.0710838055      -51.1153859669       34.4497172640  TIP3      1074            0.0000000000
     53055      1475  TIP3      OH2            47.7350434293      -54.3287261342       26.0837245812  TIP3      1075            0.0000000000
     53056      1475  TIP3      H1             47.3944202708      -53.6944097763       26.7270458729  TIP3      1075            0.0000000000
     53057      1475  TIP3      H2             48.4105983272      -53.8027799891       25.6048111752  TIP3      1075            0.0000000000
     53058      1476  TIP3      OH2            44.6972631398      -39.9683049135       23.2053172998  TIP3      1076            0.0000000000
     53059      1476  TIP3      H1             44.8215916243      -39.1662377695       22.6741994738  TIP3      1076            0.0000000000
     53060      1476  TIP3      H2             44.4542828637      -39.6344516602       24.0841686005  TIP3      1076            0.0000000000
     53061      1477  TIP3      OH2            53.6090902429      -52.5211273109       35.1893476047  TIP3      1077            0.0000000000
     53062      1477  TIP3      H1             52.6727527800      -52.2376137891       35.0721362109  TIP3      1077            0.0000000000
     53063      1477  TIP3      H2             53.9331356763      -52.5293741561       34.2726136726  TIP3      1077            0.0000000000
     53064      1478  TIP3      OH2            52.1879984876      -48.7418785257       29.2582394284  TIP3      1078            0.0000000000
     53065      1478  TIP3      H1             51.3907523593      -49.1881654546       28.9307607167  TIP3      1078            0.0000000000
     53066      1478  TIP3      H2             52.6696290404      -49.4502226408       29.7479916763  TIP3      1078            0.0000000000
     53067      1479  TIP3      OH2            41.6627121034      -42.8426020376       21.8575896852  TIP3      1079            0.0000000000
     53068      1479  TIP3      H1             42.2732365445      -42.1399936029       22.1015543976  TIP3      1079            0.0000000000
     53069      1479  TIP3      H2             42.1066163315      -43.2680563685       21.0997829878  TIP3      1079            0.0000000000
     53070      1480  TIP3      OH2            39.9496888352      -50.1737627123       20.9436619540  TIP3      1080            0.0000000000
     53071      1480  TIP3      H1             39.9823301044      -49.2261961398       21.1303154174  TIP3      1080            0.0000000000
     53072      1480  TIP3      H2             39.0867058458      -50.4231112953       20.6582572741  TIP3      1080            0.0000000000
     53073      1481  TIP3      OH2            53.2793462477      -39.5101401723       30.8920366436  TIP3      1081            0.0000000000
     53074      1481  TIP3      H1             53.1576728093      -38.8185133602       30.2116099969  TIP3      1081            0.0000000000
     53075      1481  TIP3      H2             54.2393984418      -39.4294804043       31.0700796449  TIP3      1081            0.0000000000
     53076      1482  TIP3      OH2            40.8186043292      -55.3533586979       29.6321575659  TIP3      1082            0.0000000000
     53077      1482  TIP3      H1             40.5539304874      -55.3183283132       28.6882882953  TIP3      1082            0.0000000000
     53078      1482  TIP3      H2             40.3405467208      -56.1660288261       29.9267912203  TIP3      1082            0.0000000000
     53079      1483  TIP3      OH2            39.7266487289      -41.4566892910       25.8035523921  TIP3      1083            0.0000000000
     53080      1483  TIP3      H1             38.8838636032      -40.9782262940       25.7998759053  TIP3      1083            0.0000000000
     53081      1483  TIP3      H2             40.2428390067      -40.9505493502       25.1608499837  TIP3      1083            0.0000000000
     53082      1484  TIP3      OH2            38.9767019937      -38.8148393147       37.1076365973  TIP3      1084            0.0000000000
     53083      1484  TIP3      H1             39.5461068611      -39.0347835205       37.8738752776  TIP3      1084            0.0000000000
     53084      1484  TIP3      H2             38.5229817450      -39.6546571321       36.9311876431  TIP3      1084            0.0000000000
     53085      1485  TIP3      OH2            43.6039258287      -39.8964743329       38.7412207437  TIP3      1085            0.0000000000
     53086      1485  TIP3      H1             44.3780626789      -40.3783230286       39.0644198207  TIP3      1085            0.0000000000
     53087      1485  TIP3      H2             43.5889800954      -40.1516840640       37.7945764881  TIP3      1085            0.0000000000
     53088      1486  TIP3      OH2            50.1433483857      -41.5102095734       37.4573099354  TIP3      1086            0.0000000000
     53089      1486  TIP3      H1             49.8239975663      -42.3969046730       37.7175249799  TIP3      1086            0.0000000000
     53090      1486  TIP3      H2             50.9053182644      -41.3885588524       38.0574707864  TIP3      1086            0.0000000000
     53091      1487  TIP3      OH2            38.8891359863      -45.0257064132       38.0885689048  TIP3      1087            0.0000000000
     53092      1487  TIP3      H1             39.0458325496      -45.9369186205       37.7767111437  TIP3      1087            0.0000000000
     53093      1487  TIP3      H2             38.1274394376      -44.7484605288       37.5534054950  TIP3      1087            0.0000000000
     53094      1488  TIP3      OH2            45.5723912051      -45.0491179290       37.4937501223  TIP3      1088            0.0000000000
     53095      1488  TIP3      H1             45.2315186324      -44.7606721274       36.6280109925  TIP3      1088            0.0000000000
     53096      1488  TIP3      H2             45.6922607786      -46.0168738556       37.3973412993  TIP3      1088            0.0000000000
     53097      1489  TIP3      OH2            51.2799752002      -45.1705857004       34.8835048248  TIP3      1089            0.0000000000
     53098      1489  TIP3      H1             52.0482443744      -44.5612365700       34.7861691500  TIP3      1089            0.0000000000
     53099      1489  TIP3      H2             50.5518580869      -44.5357458654       34.9342150001  TIP3      1089            0.0000000000
     53100      1490  TIP3      OH2            39.7559617107      -47.8072587636       37.4868488363  TIP3      1090            0.0000000000
     53101      1490  TIP3      H1             40.1633079216      -48.6753284836       37.3820231480  TIP3      1090            0.0000000000
     53102      1490  TIP3      H2             39.5042578572      -47.8040790008       38.4285555095  TIP3      1090            0.0000000000
     53103      1491  TIP3      OH2            44.4418081911      -46.6857014647       22.5391481540  TIP3      1091            0.0000000000
     53104      1491  TIP3      H1             43.9167854552      -47.1868326679       23.1853636710  TIP3      1091            0.0000000000
     53105      1491  TIP3      H2             44.6314825384      -47.3760777223       21.8674421674  TIP3      1091            0.0000000000
     53106      1492  TIP3      OH2            43.6842576111      -48.8370925387       34.8609926366  TIP3      1092            0.0000000000
     53107      1492  TIP3      H1             43.0696667290      -48.1323005156       35.1287569303  TIP3      1092            0.0000000000
     53108      1492  TIP3      H2             44.0449317050      -48.4859492363       34.0290204976  TIP3      1092            0.0000000000
     53109      1493  TIP3      OH2            45.4932503808      -48.4790436108       20.7798707360  TIP3      1093            0.0000000000
     53110      1493  TIP3      H1             45.2871811478      -48.6028485038       19.8326950951  TIP3      1093            0.0000000000
     53111      1493  TIP3      H2             46.4412341359      -48.3811914416       20.7823792169  TIP3      1093            0.0000000000
     53112      1494  TIP3      OH2            48.7205901124      -46.3162701731       38.1751904724  TIP3      1094            0.0000000000
     53113      1494  TIP3      H1             49.6811920241      -46.2760745216       38.0935836571  TIP3      1094            0.0000000000
     53114      1494  TIP3      H2             48.5588876358      -47.0618817807       38.7714188078  TIP3      1094            0.0000000000
     53115      1495  TIP3      OH2            54.7877729814      -46.1635420428       20.2423021218  TIP3      1095            0.0000000000
     53116      1495  TIP3      H1             54.5707060976      -46.5008983154       19.3749850252  TIP3      1095            0.0000000000
     53117      1495  TIP3      H2             54.9031525290      -45.1950539849       20.0219254475  TIP3      1095            0.0000000000
     53118      1496  TIP3      OH2            44.0543538731      -51.4632160939       35.9333324414  TIP3      1096            0.0000000000
     53119      1496  TIP3      H1             44.1892973484      -52.1896886552       35.3064748338  TIP3      1096            0.0000000000
     53120      1496  TIP3      H2             44.0318718512      -50.6676297924       35.3671601452  TIP3      1096            0.0000000000
     53121      1497  TIP3      OH2            44.4637265780      -53.1092503434       33.4472672709  TIP3      1097            0.0000000000
     53122      1497  TIP3      H1             44.9887523085      -52.6286271639       32.7639241962  TIP3      1097            0.0000000000
     53123      1497  TIP3      H2             43.5793715491      -53.1854314886       33.0226801368  TIP3      1097            0.0000000000
     53124      1498  TIP3      OH2            46.0220602311      -47.6403868207       33.6929338486  TIP3      1098            0.0000000000
     53125      1498  TIP3      H1             46.7751614042      -47.7949663752       33.1104148984  TIP3      1098            0.0000000000
     53126      1498  TIP3      H2             45.6746241496      -46.7867903047       33.3872854127  TIP3      1098            0.0000000000
     53127      1499  TIP3      OH2            50.4243583300      -49.8411506473       38.6906450965  TIP3      1099            0.0000000000
     53128      1499  TIP3      H1             50.6389516471      -50.7777229513       38.5902769427  TIP3      1099            0.0000000000
     53129      1499  TIP3      H2             51.2960803393      -49.4170854147       38.6861980113  TIP3      1099            0.0000000000
     53130      1500  TIP3      OH2            51.7500862133      -47.0548562765       36.8218327363  TIP3      1100            0.0000000000
     53131      1500  TIP3      H1             51.4904001542      -46.3349283546       36.2018483807  TIP3      1100            0.0000000000
     53132      1500  TIP3      H2             52.7110758073      -47.1042790346       36.6226162085  TIP3      1100            0.0000000000
     53133      1501  TIP3      OH2            42.5253932322      -50.2388009263       37.8612349475  TIP3      1101            0.0000000000
     53134      1501  TIP3      H1             41.7494483755      -50.7995382467       37.6412515840  TIP3      1101            0.0000000000
     53135      1501  TIP3      H2             43.1858827969      -50.5817704079       37.2284100299  TIP3      1101            0.0000000000
     53136      1502  TIP3      OH2            45.2643621876      -55.6566177736       33.8720897736  TIP3      1102            0.0000000000
     53137      1502  TIP3      H1             45.1325553512      -54.6871581068       33.7576022463  TIP3      1102            0.0000000000
     53138      1502  TIP3      H2             44.4995174190      -56.0026679721       33.3827533426  TIP3      1102            0.0000000000
     53139      1503  TIP3      OH2            46.5299031499      -51.3187524754       37.4480287152  TIP3      1103            0.0000000000
     53140      1503  TIP3      H1             46.2527552716      -51.5435115492       38.3552744498  TIP3      1103            0.0000000000
     53141      1503  TIP3      H2             45.7320998138      -51.5243785831       36.9224454405  TIP3      1103            0.0000000000
     53142      1504  TIP3      OH2            49.2389460424      -52.1846100999       36.5221534156  TIP3      1104            0.0000000000
     53143      1504  TIP3      H1             48.2754621329      -52.1535105603       36.6570808558  TIP3      1104            0.0000000000
     53144      1504  TIP3      H2             49.5366275327      -52.8179078779       37.1992241144  TIP3      1104            0.0000000000
     53145      1505  TIP3      OH2            50.8590731124      -53.5543865175       38.4862593920  TIP3      1105            0.0000000000
     53146      1505  TIP3      H1             50.7645184974      -54.5202941478       38.5048835233  TIP3      1105            0.0000000000
     53147      1505  TIP3      H2             50.5532767877      -53.2708755714       39.3823406017  TIP3      1105            0.0000000000
     53148      1506  TIP3      OH2            40.6628489803      -52.3120069154       37.5621915300  TIP3      1106            0.0000000000
     53149      1506  TIP3      H1             40.8943091086      -53.0460785498       36.9575462581  TIP3      1106            0.0000000000
     53150      1506  TIP3      H2             40.5684490469      -52.7677691966       38.4230024452  TIP3      1106            0.0000000000
     53151      1507  TIP3      OH2            45.4389792524       56.5265609663       36.5459404600  TIP3      1107            0.0000000000
     53152      1507  TIP3      H1             46.1746338125       55.8665699687       36.5286716103  TIP3      1107            0.0000000000
     53153      1507  TIP3      H2             45.3808416743       56.7493959221       35.6061272810  TIP3      1107            0.0000000000
     53154      1508  TIP3      OH2            45.8399768060      -54.6604036242       38.6173984902  TIP3      1108            0.0000000000
     53155      1508  TIP3      H1             45.6817494653      -55.1539722427       37.7821143694  TIP3      1108            0.0000000000
     53156      1508  TIP3      H2             45.2315253430      -53.9073211285       38.5459357681  TIP3      1108            0.0000000000
     53157      1509  TIP3      OH2            38.9209512096      -43.1800487140       21.3141505751  TIP3      1109            0.0000000000
     53158      1509  TIP3      H1             39.8808367532      -43.0644871598       21.5067526508  TIP3      1109            0.0000000000
     53159      1509  TIP3      H2             38.9589873760      -43.7928945663       20.5694700889  TIP3      1109            0.0000000000
     53160      1510  TIP3      OH2            37.6211548849      -37.7468558608       26.3015015889  TIP3      1110            0.0000000000
     53161      1510  TIP3      H1             36.9351504799      -38.2317654609       25.7932684372  TIP3      1110            0.0000000000
     53162      1510  TIP3      H2             37.9349685235      -38.4257145747       26.9235262153  TIP3      1110            0.0000000000
     53163      1511  TIP3      OH2            38.4643249115      -39.6546641913       28.1277917243  TIP3      1111            0.0000000000
     53164      1511  TIP3      H1             38.1207805695      -40.5393642950       28.3211103002  TIP3      1111            0.0000000000
     53165      1511  TIP3      H2             38.6872676828      -39.3196129798       29.0147192062  TIP3      1111            0.0000000000
     53166      1512  TIP3      OH2            55.9664534372      -38.8565562987       31.1111939174  TIP3      1112            0.0000000000
     53167      1512  TIP3      H1             55.9973364457      -38.6717638986       32.0615887502  TIP3      1112            0.0000000000
     53168      1512  TIP3      H2             56.6965638388      -38.3018444258       30.7819803243  TIP3      1112            0.0000000000
     53169      1513  TIP3      OH2            55.5911768380      -39.2653821841       34.0256940050  TIP3      1113            0.0000000000
     53170      1513  TIP3      H1             55.0846427880      -40.0294331197       33.6583869924  TIP3      1113            0.0000000000
     53171      1513  TIP3      H2             56.1092719564      -39.6840919903       34.7231289833  TIP3      1113            0.0000000000
     53172      1514  TIP3      OH2            54.0187976440      -43.5274680808       38.6807707573  TIP3      1114            0.0000000000
     53173      1514  TIP3      H1             53.1340487691      -43.5797478867       39.0762214083  TIP3      1114            0.0000000000
     53174      1514  TIP3      H2             54.3977948574      -42.7276733137       39.1199669915  TIP3      1114            0.0000000000
     53175      1515  TIP3      OH2            55.2885643389      -45.2342061910       24.1581477323  TIP3      1115            0.0000000000
     53176      1515  TIP3      H1             56.1636730764      -44.8218689393       24.3185200414  TIP3      1115            0.0000000000
     53177      1515  TIP3      H2             55.3333981110      -45.9668184109       24.8035333722  TIP3      1115            0.0000000000
     53178      1516  TIP3      OH2            55.7032122543      -47.1370857842       26.0021496436  TIP3      1116            0.0000000000
     53179      1516  TIP3      H1             54.9702215788      -47.6493416391       26.4130988046  TIP3      1116            0.0000000000
     53180      1516  TIP3      H2             56.3062845843      -46.9794918497       26.7637548281  TIP3      1116            0.0000000000
     53181      1517  TIP3      OH2            55.4696534932      -44.4269810096       30.9954416785  TIP3      1117            0.0000000000
     53182      1517  TIP3      H1             56.3096910565      -44.7940419743       30.6624534938  TIP3      1117            0.0000000000
     53183      1517  TIP3      H2             55.5912778859      -43.4631081587       30.8247721851  TIP3      1117            0.0000000000
     53184      1518  TIP3      OH2            53.9807314692      -41.5451802992       33.2756022002  TIP3      1118            0.0000000000
     53185      1518  TIP3      H1             53.3111428545      -41.1920606939       33.8836967898  TIP3      1118            0.0000000000
     53186      1518  TIP3      H2             53.4339153694      -41.9578861024       32.5772159343  TIP3      1118            0.0000000000
     53187      1519  TIP3      OH2            55.9861163915      -47.3434165877       22.3958925472  TIP3      1119            0.0000000000
     53188      1519  TIP3      H1             55.4632387471      -46.9040512544       21.6797920245  TIP3      1119            0.0000000000
     53189      1519  TIP3      H2             55.9544790242      -46.6044276905       23.0587027253  TIP3      1119            0.0000000000
     53190      1520  TIP3      OH2            53.5152014859      -48.6640980449       26.5622669827  TIP3      1120            0.0000000000
     53191      1520  TIP3      H1             53.3511535249      -49.6161428496       26.5617776010  TIP3      1120            0.0000000000
     53192      1520  TIP3      H2             53.1589184794      -48.3990700227       27.4318661414  TIP3      1120            0.0000000000
     53193      1521  TIP3      OH2            38.5235634006      -46.5767984262       30.6143900286  TIP3      1121            0.0000000000
     53194      1521  TIP3      H1             38.7223597547      -46.6624391294       29.6559084070  TIP3      1121            0.0000000000
     53195      1521  TIP3      H2             39.4084821862      -46.7257387393       31.0003746271  TIP3      1121            0.0000000000
     53196      1522  TIP3      OH2            54.3485703960      -46.6931733463       36.2513723992  TIP3      1122            0.0000000000
     53197      1522  TIP3      H1             54.9644029505      -47.4366748864       36.4052462336  TIP3      1122            0.0000000000
     53198      1522  TIP3      H2             54.9411113200      -45.9137700126       36.2554752774  TIP3      1122            0.0000000000
     53199      1523  TIP3      OH2            55.8527890688      -48.7813359301       36.8968262978  TIP3      1123            0.0000000000
     53200      1523  TIP3      H1             54.9806810588      -49.1909561430       36.7372891454  TIP3      1123            0.0000000000
     53201      1523  TIP3      H2             56.4440331380      -49.5571337658       36.8295156635  TIP3      1123            0.0000000000
     53202      1524  TIP3      OH2            53.1908632539      -51.0826701986       24.9889346959  TIP3      1124            0.0000000000
     53203      1524  TIP3      H1             53.5005461824      -51.9961107338       25.1800357546  TIP3      1124            0.0000000000
     53204      1524  TIP3      H2             53.9946104270      -50.6488142665       24.6797873016  TIP3      1124            0.0000000000
     53205      1525  TIP3      OH2            53.7737900444      -50.5179365354       30.4621346846  TIP3      1125            0.0000000000
     53206      1525  TIP3      H1             54.7488517421      -50.2989698795       30.4538181221  TIP3      1125            0.0000000000
     53207      1525  TIP3      H2             53.5989008447      -50.3959146893       31.4086236933  TIP3      1125            0.0000000000
     53208      1526  TIP3      OH2            53.8699121452      -49.7939288372       33.2510330829  TIP3      1126            0.0000000000
     53209      1526  TIP3      H1             53.0062532609      -49.4921713000       33.6008005433  TIP3      1126            0.0000000000
     53210      1526  TIP3      H2             54.3121976868      -48.9376327298       33.0394844851  TIP3      1126            0.0000000000
     53211      1527  TIP3      OH2            38.1364589216      -51.2802543070       36.7501984302  TIP3      1127            0.0000000000
     53212      1527  TIP3      H1             39.0709205996      -51.4706395665       36.9683574170  TIP3      1127            0.0000000000
     53213      1527  TIP3      H2             37.6868543725      -52.0829001308       37.0950137527  TIP3      1127            0.0000000000
     53214      1528  TIP3      OH2            53.8289811828      -53.7950471673       25.0607459183  TIP3      1128            0.0000000000
     53215      1528  TIP3      H1             54.0255936163      -54.2462703316       25.9162536320  TIP3      1128            0.0000000000
     53216      1528  TIP3      H2             53.2101623485      -54.4241975875       24.6517691753  TIP3      1128            0.0000000000
     53217      1529  TIP3      OH2            39.3394876321      -52.9939218997       29.6139853329  TIP3      1129            0.0000000000
     53218      1529  TIP3      H1             39.8056860800      -53.7966256196       29.9188600236  TIP3      1129            0.0000000000
     53219      1529  TIP3      H2             39.8456650543      -52.2858452499       30.0410954531  TIP3      1129            0.0000000000
     53220      1530  TIP3      OH2            37.6331467991      -50.0038445837       30.6891804463  TIP3      1130            0.0000000000
     53221      1530  TIP3      H1             38.1752921839      -50.2222865413       29.9018122124  TIP3      1130            0.0000000000
     53222      1530  TIP3      H2             38.0520059031      -49.1704394168       30.9558258083  TIP3      1130            0.0000000000
     53223      1531  TIP3      OH2            55.6665377508      -53.6735382410       36.9657269406  TIP3      1131            0.0000000000
     53224      1531  TIP3      H1             54.7326830532      -53.4113616200       36.9052787966  TIP3      1131            0.0000000000
     53225      1531  TIP3      H2             55.7600452645      -54.2312091632       36.1757586858  TIP3      1131            0.0000000000
     53226      1532  TIP3      OH2            55.6692896421      -53.7573606946       21.6506397006  TIP3      1132            0.0000000000
     53227      1532  TIP3      H1             56.1078878691      -54.4394151831       21.1073188553  TIP3      1132            0.0000000000
     53228      1532  TIP3      H2             56.3829618956      -53.0945437019       21.6636524665  TIP3      1132            0.0000000000
     53229      1533  TIP3      OH2            37.9787971483      -53.7579946559       24.7495385741  TIP3      1133            0.0000000000
     53230      1533  TIP3      H1             37.0459980669      -53.5299306376       24.6081952142  TIP3      1133            0.0000000000
     53231      1533  TIP3      H2             38.4213258076      -53.2560835434       24.0390413022  TIP3      1133            0.0000000000
     53232      1534  TIP3      OH2            52.7313948969      -38.7635321699       26.6955925096  TIP3      1134            0.0000000000
     53233      1534  TIP3      H1             53.4001399395      -39.0964370741       26.0708022473  TIP3      1134            0.0000000000
     53234      1534  TIP3      H2             53.2716012469      -38.2766737442       27.3373021767  TIP3      1134            0.0000000000
     53235      1535  TIP3      OH2            37.9553046293      -55.0163972308       33.0785155752  TIP3      1135            0.0000000000
     53236      1535  TIP3      H1             37.2775975532      -55.2512283833       33.7327863885  TIP3      1135            0.0000000000
     53237      1535  TIP3      H2             37.4891991995      -54.3833446715       32.4968931996  TIP3      1135            0.0000000000
     53238      1536  TIP3      OH2            40.1547614273      -41.8460136732       37.2260706171  TIP3      1136            0.0000000000
     53239      1536  TIP3      H1             39.3137812720      -41.6520241962       36.7795267572  TIP3      1136            0.0000000000
     53240      1536  TIP3      H2             39.8846241138      -41.9110268613       38.1503474814  TIP3      1136            0.0000000000
     53241      1537  TIP3      OH2            43.0738970287      -40.8710827372       33.4933629543  TIP3      1137            0.0000000000
     53242      1537  TIP3      H1             42.6943409532      -40.0291542724       33.2062135753  TIP3      1137            0.0000000000
     53243      1537  TIP3      H2             43.9979794678      -40.7662524449       33.1812264165  TIP3      1137            0.0000000000
     53244      1538  TIP3      OH2            47.3892174314      -39.4475795524       36.4189405397  TIP3      1138            0.0000000000
     53245      1538  TIP3      H1             47.5685754895      -39.7932525149       37.3305298610  TIP3      1138            0.0000000000
     53246      1538  TIP3      H2             48.2734498590      -39.1445839884       36.1398098913  TIP3      1138            0.0000000000
     53247      1539  TIP3      OH2            49.7067204651      -38.1746475574       35.6880714077  TIP3      1139            0.0000000000
     53248      1539  TIP3      H1             50.4257520619      -38.7892239985       35.4601325509  TIP3      1139            0.0000000000
     53249      1539  TIP3      H2             50.0705708444      -37.7604296211       36.5018657280  TIP3      1139            0.0000000000
     53250      1540  TIP3      OH2            54.6412867346      -55.5570602581       34.8172877134  TIP3      1140            0.0000000000
     53251      1540  TIP3      H1             53.8390227506      -55.2405437824       34.3826901869  TIP3      1140            0.0000000000
     53252      1540  TIP3      H2             54.8872368892      -56.3472543651       34.2703048880  TIP3      1140            0.0000000000
     53253      1541  TIP3      OH2            40.5009978952      -37.6158925135       33.5145779183  TIP3      1141            0.0000000000
     53254      1541  TIP3      H1             39.7652634541      -37.1451740327       33.0880137513  TIP3      1141            0.0000000000
     53255      1541  TIP3      H2             40.1452487225      -37.8397027179       34.3871014013  TIP3      1141            0.0000000000
     53256      1542  TIP3      OH2            42.9722254473      -38.0294066657       32.5670690831  TIP3      1142            0.0000000000
     53257      1542  TIP3      H1             42.0769489652      -37.9166833172       32.9656058550  TIP3      1142            0.0000000000
     53258      1542  TIP3      H2             42.8995456184      -37.4510931276       31.7813882690  TIP3      1142            0.0000000000
     53259      1543  TIP3      OH2            47.6701146885      -38.1283514124       31.7347668524  TIP3      1143            0.0000000000
     53260      1543  TIP3      H1             47.2067865315      -37.5805220203       31.0822472338  TIP3      1143            0.0000000000
     53261      1543  TIP3      H2             47.8209296329      -37.4984976136       32.4701175879  TIP3      1143            0.0000000000
     53262      1544  TIP3      OH2            49.9889726947      -39.2787495867       32.7111894145  TIP3      1144            0.0000000000
     53263      1544  TIP3      H1             49.0954442821      -39.0561285156       32.4059675302  TIP3      1144            0.0000000000
     53264      1544  TIP3      H2             50.4246720251      -38.4132321662       32.6297866452  TIP3      1144            0.0000000000
     53265      1545  TIP3      OH2            52.5816931496      -37.7059050863       32.9918626233  TIP3      1145            0.0000000000
     53266      1545  TIP3      H1             52.4381378255      -36.7564025015       32.7560703862  TIP3      1145            0.0000000000
     53267      1545  TIP3      H2             52.7675402803      -38.0928255484       32.1166508845  TIP3      1145            0.0000000000
     53268      1546  TIP3      OH2            39.9153030215      -38.9708487131       30.4339827851  TIP3      1146            0.0000000000
     53269      1546  TIP3      H1             39.8774278177      -39.4190413898       31.3061680082  TIP3      1146            0.0000000000
     53270      1546  TIP3      H2             40.7379755250      -39.3204413129       30.0352707473  TIP3      1146            0.0000000000
     53271      1547  TIP3      OH2            42.0286122842      -40.2586246848       29.0858698964  TIP3      1147            0.0000000000
     53272      1547  TIP3      H1             41.8421461119      -41.1936379355       29.2888215788  TIP3      1147            0.0000000000
     53273      1547  TIP3      H2             42.8813249810      -40.1263428276       29.5584436045  TIP3      1147            0.0000000000
     53274      1548  TIP3      OH2            44.6010037444      -39.7810806224       29.9495865568  TIP3      1148            0.0000000000
     53275      1548  TIP3      H1             44.7972312070      -40.6954538158       29.6767576904  TIP3      1148            0.0000000000
     53276      1548  TIP3      H2             44.6622303032      -39.8426594704       30.9119231231  TIP3      1148            0.0000000000
     53277      1549  TIP3      OH2            48.0816497439      -54.1208792880       29.0937126414  TIP3      1149            0.0000000000
     53278      1549  TIP3      H1             47.4135113047      -54.7794837832       29.3400310311  TIP3      1149            0.0000000000
     53279      1549  TIP3      H2             48.6531333098      -54.6322460925       28.5032923272  TIP3      1149            0.0000000000
     53280      1550  TIP3      OH2            53.2269173146      -56.0457355453       29.1877737331  TIP3      1150            0.0000000000
     53281      1550  TIP3      H1             53.8413867812      -55.4700373512       28.6779689273  TIP3      1150            0.0000000000
     53282      1550  TIP3      H2             52.3433932445      -55.7083733748       28.9587720798  TIP3      1150            0.0000000000
     53283      1551  TIP3      OH2            54.9311032075      -54.8810184117       27.4758365962  TIP3      1151            0.0000000000
     53284      1551  TIP3      H1             55.5951638721      -55.4075399516       27.0120490811  TIP3      1151            0.0000000000
     53285      1551  TIP3      H2             55.3567427654      -53.9956108286       27.5585074306  TIP3      1151            0.0000000000
     53286      1552  TIP3      OH2            40.4286486828      -55.4566805115       26.9202958077  TIP3      1152            0.0000000000
     53287      1552  TIP3      H1             39.6427510056      -55.7244954185       26.4199263612  TIP3      1152            0.0000000000
     53288      1552  TIP3      H2             40.9297534826      -56.3003324354       26.9067444765  TIP3      1152            0.0000000000
     53289      1553  TIP3      OH2            39.2886188251      -55.7126943508       22.7282832916  TIP3      1153            0.0000000000
     53290      1553  TIP3      H1             39.6740222643      -55.0723333753       22.1003986703  TIP3      1153            0.0000000000
     53291      1553  TIP3      H2             38.6224164527      -55.1639807875       23.1828521909  TIP3      1153            0.0000000000
     53292      1554  TIP3      OH2            44.9579212109      -55.5979284593       26.7357684757  TIP3      1154            0.0000000000
     53293      1554  TIP3      H1             45.8538772037      -55.1965911533       26.6838247554  TIP3      1154            0.0000000000
     53294      1554  TIP3      H2             44.8806781995      -55.7812189115       27.6695595086  TIP3      1154            0.0000000000
     53295      1555  TIP3      OH2            50.6146429440      -55.5106937240       28.3673512608  TIP3      1155            0.0000000000
     53296      1555  TIP3      H1             50.6189961661      -55.4470596227       27.4126682285  TIP3      1155            0.0000000000
     53297      1555  TIP3      H2             50.2747032098      -56.4334691633       28.4986114631  TIP3      1155            0.0000000000
     53298      1556  TIP3      OH2            51.9549489009      -55.5044901587       23.9995969276  TIP3      1156            0.0000000000
     53299      1556  TIP3      H1             51.1893944853      -54.9092274163       23.8803174473  TIP3      1156            0.0000000000
     53300      1556  TIP3      H2             51.4478423132      -56.3229817677       24.2658527256  TIP3      1156            0.0000000000
     53301      1557  TIP3      OH2            39.1483291683      -39.7831728194       23.6724443739  TIP3      1157            0.0000000000
     53302      1557  TIP3      H1             38.4971347800      -39.7935647088       22.9513141424  TIP3      1157            0.0000000000
     53303      1557  TIP3      H2             39.1612919231      -38.8377149820       23.8622162654  TIP3      1157            0.0000000000
     53304      1558  TIP3      OH2            41.1136618355      -53.8224739755       21.1873556928  TIP3      1158            0.0000000000
     53305      1558  TIP3      H1             41.5718500636      -54.4175525403       20.5916918099  TIP3      1158            0.0000000000
     53306      1558  TIP3      H2             41.7174017259      -53.4639981559       21.8231211032  TIP3      1158            0.0000000000
     53307      1559  TIP3      OH2            48.0272920547      -38.5371216118       22.0653160424  TIP3      1159            0.0000000000
     53308      1559  TIP3      H1             48.9113591899      -38.1924106574       21.8568019227  TIP3      1159            0.0000000000
     53309      1559  TIP3      H2             47.8172593642      -38.9647060349       21.2386886823  TIP3      1159            0.0000000000
     53310      1560  TIP3      OH2            54.6932753483      -38.9839985989       24.7069958928  TIP3      1160            0.0000000000
     53311      1560  TIP3      H1             54.5225681146      -39.7555805098       24.1229139247  TIP3      1160            0.0000000000
     53312      1560  TIP3      H2             54.6773525310      -38.2328834377       24.0765162417  TIP3      1160            0.0000000000
     53313      1561  TIP3      OH2            40.3634017017      -54.9509514405       36.4079045563  TIP3      1161            0.0000000000
     53314      1561  TIP3      H1             39.9946629421      -55.7522523705       36.8424411821  TIP3      1161            0.0000000000
     53315      1561  TIP3      H2             41.2877152777      -54.9808436494       36.7424398311  TIP3      1161            0.0000000000
     53316      1562  TIP3      OH2            42.3616631102      -55.5938293826       38.0003960542  TIP3      1162            0.0000000000
     53317      1562  TIP3      H1             43.2578356702      -55.9149337045       37.7893821672  TIP3      1162            0.0000000000
     53318      1562  TIP3      H2             41.9754201559      -56.3862536557       38.4323799457  TIP3      1162            0.0000000000
     53319      1563  TIP3      OH2            50.7612069292       56.5378474196       38.1482140053  TIP3      1163            0.0000000000
     53320      1563  TIP3      H1             50.8410241265       56.0909988990       39.0157636823  TIP3      1163            0.0000000000
     53321      1563  TIP3      H2             51.6675493688       56.5401574280       37.8243485694  TIP3      1163            0.0000000000
     53322      1564  TIP3      OH2            53.9695618786      -40.2394397644       36.8438560616  TIP3      1164            0.0000000000
     53323      1564  TIP3      H1             53.1656796162      -40.4048108676       36.3087132270  TIP3      1164            0.0000000000
     53324      1564  TIP3      H2             53.8578638916      -39.2913843389       37.0491216593  TIP3      1164            0.0000000000
     53325      1565  TIP3      OH2           -44.7627417866      -27.5070064921       26.8623193388  TIP3      1165            0.0000000000
     53326      1565  TIP3      H1            -44.7124979472      -26.5355481468       26.7440046182  TIP3      1165            0.0000000000
     53327      1565  TIP3      H2            -45.4337460688      -27.7497552390       26.2081253448  TIP3      1165            0.0000000000
     53328      1566  TIP3      OH2           -45.8723726396      -28.2218554115       30.3087119483  TIP3      1166            0.0000000000
     53329      1566  TIP3      H1            -45.8907956490      -28.8873247958       31.0059690683  TIP3      1166            0.0000000000
     53330      1566  TIP3      H2            -46.1880617117      -28.7188882360       29.5326421020  TIP3      1166            0.0000000000
     53331      1567  TIP3      OH2           -53.5080572390      -28.5979501669       31.8623508226  TIP3      1167            0.0000000000
     53332      1567  TIP3      H1            -53.4321662804      -29.2535442797       32.5903660324  TIP3      1167            0.0000000000
     53333      1567  TIP3      H2            -52.7759292216      -28.0016819804       32.0739045526  TIP3      1167            0.0000000000
     53334      1568  TIP3      OH2           -42.1576375598      -25.3046894079       28.5842968236  TIP3      1168            0.0000000000
     53335      1568  TIP3      H1            -42.5893991437      -26.0214288424       29.0589802427  TIP3      1168            0.0000000000
     53336      1568  TIP3      H2            -42.1541490000      -24.5847204342       29.2421980065  TIP3      1168            0.0000000000
     53337      1569  TIP3      OH2           -52.5764598927      -24.1368916334       30.4019288134  TIP3      1169            0.0000000000
     53338      1569  TIP3      H1            -52.9160991098      -24.9811891808       30.0478047906  TIP3      1169            0.0000000000
     53339      1569  TIP3      H2            -51.6325158646      -24.3426669973       30.4457563021  TIP3      1169            0.0000000000
     53340      1570  TIP3      OH2           -55.9141280192      -30.5656306755       25.7821095955  TIP3      1170            0.0000000000
     53341      1570  TIP3      H1            -56.3641696233      -29.6800768178       25.8018896852  TIP3      1170            0.0000000000
     53342      1570  TIP3      H2            -56.5250000656      -31.1052626872       25.3132122656  TIP3      1170            0.0000000000
     53343      1571  TIP3      OH2           -55.2458029438      -28.3447941428       27.9433692492  TIP3      1171            0.0000000000
     53344      1571  TIP3      H1            -55.0067209393      -29.1409845902       28.4499171071  TIP3      1171            0.0000000000
     53345      1571  TIP3      H2            -54.5009415637      -28.2507467005       27.3360765882  TIP3      1171            0.0000000000
     53346      1572  TIP3      OH2           -45.0790201068      -20.1826259308       28.8153998858  TIP3      1172            0.0000000000
     53347      1572  TIP3      H1            -44.4037100615      -20.8563063958       28.5324841881  TIP3      1172            0.0000000000
     53348      1572  TIP3      H2            -45.2285504623      -20.4208750851       29.7167907028  TIP3      1172            0.0000000000
     53349      1573  TIP3      OH2           -47.4733655514      -25.7794201575       30.7148224842  TIP3      1173            0.0000000000
     53350      1573  TIP3      H1            -47.1614600634      -26.4897986400       30.1138345758  TIP3      1173            0.0000000000
     53351      1573  TIP3      H2            -46.7113453485      -25.7138730426       31.3131262686  TIP3      1173            0.0000000000
     53352      1574  TIP3      OH2           -38.8463030116      -34.2086218237       31.5339548602  TIP3      1174            0.0000000000
     53353      1574  TIP3      H1            -38.7334515093      -33.5881435210       32.2858757724  TIP3      1174            0.0000000000
     53354      1574  TIP3      H2            -38.3529288387      -33.7477332392       30.8388707783  TIP3      1174            0.0000000000
     53355      1575  TIP3      OH2           -44.3267635893      -31.3843046837       31.0625015226  TIP3      1175            0.0000000000
     53356      1575  TIP3      H1            -44.1771152578      -32.3502862192       31.0552996444  TIP3      1175            0.0000000000
     53357      1575  TIP3      H2            -44.4310631365      -31.2219109950       30.1021961610  TIP3      1175            0.0000000000
     53358      1576  TIP3      OH2           -51.1865639758      -33.3009184954       28.3124276264  TIP3      1176            0.0000000000
     53359      1576  TIP3      H1            -51.1196265464      -32.4476488123       27.8525627262  TIP3      1176            0.0000000000
     53360      1576  TIP3      H2            -51.6217831866      -33.8625352428       27.6383677353  TIP3      1176            0.0000000000
     53361      1577  TIP3      OH2           -43.4719864597      -33.1856091473       26.6830931549  TIP3      1177            0.0000000000
     53362      1577  TIP3      H1            -42.8001043431      -33.5133923980       27.3304072306  TIP3      1177            0.0000000000
     53363      1577  TIP3      H2            -42.9191315185      -32.6504530306       26.0901961736  TIP3      1177            0.0000000000
     53364      1578  TIP3      OH2           -54.5726815225      -30.8901894106       29.0522527483  TIP3      1178            0.0000000000
     53365      1578  TIP3      H1            -53.8977361752      -31.4528294782       29.4896828276  TIP3      1178            0.0000000000
     53366      1578  TIP3      H2            -54.4998376690      -31.1975298678       28.1361668218  TIP3      1178            0.0000000000
     53367      1579  TIP3      OH2           -49.4062063130      -29.3356682945       28.3106812804  TIP3      1179            0.0000000000
     53368      1579  TIP3      H1            -48.7684870153      -29.9033819361       28.7731039933  TIP3      1179            0.0000000000
     53369      1579  TIP3      H2            -49.9667026913      -30.0044154152       27.8633344244  TIP3      1179            0.0000000000
     53370      1580  TIP3      OH2           -38.4188914364      -32.7497962667       33.7801740511  TIP3      1180            0.0000000000
     53371      1580  TIP3      H1            -39.0903283427      -32.0417064364       33.6923637782  TIP3      1180            0.0000000000
     53372      1580  TIP3      H2            -38.4034281012      -32.9031394703       34.7340410082  TIP3      1180            0.0000000000
     53373      1581  TIP3      OH2           -52.3320412101      -34.3977493551       32.3608491336  TIP3      1181            0.0000000000
     53374      1581  TIP3      H1            -52.5849273644      -33.8406788542       31.5998341796  TIP3      1181            0.0000000000
     53375      1581  TIP3      H2            -53.0192251923      -34.1540194848       33.0288985455  TIP3      1181            0.0000000000
     53376      1582  TIP3      OH2           -44.9997966658      -24.8972456651       25.9240979522  TIP3      1182            0.0000000000
     53377      1582  TIP3      H1            -45.2812417477      -25.1963367945       25.0512460132  TIP3      1182            0.0000000000
     53378      1582  TIP3      H2            -45.3173848422      -23.9726924365       25.9414854585  TIP3      1182            0.0000000000
     53379      1583  TIP3      OH2           -49.7837908228      -26.7372670948       32.6268163220  TIP3      1183            0.0000000000
     53380      1583  TIP3      H1            -50.5229938761      -26.1097059679       32.7835143689  TIP3      1183            0.0000000000
     53381      1583  TIP3      H2            -49.0805225169      -26.1531279915       32.3293400345  TIP3      1183            0.0000000000
     53382      1584  TIP3      OH2           -41.6876986523      -33.8741141694       28.6670675878  TIP3      1184            0.0000000000
     53383      1584  TIP3      H1            -41.8923805342      -34.6436420419       29.2106174444  TIP3      1184            0.0000000000
     53384      1584  TIP3      H2            -41.0154060729      -33.4195521397       29.2022928781  TIP3      1184            0.0000000000
     53385      1585  TIP3      OH2           -52.7745762605      -32.5170267067       30.3475196861  TIP3      1185            0.0000000000
     53386      1585  TIP3      H1            -52.1349932966      -31.8574986621       30.7011803337  TIP3      1185            0.0000000000
     53387      1585  TIP3      H2            -52.2324799085      -32.9633644615       29.6514558162  TIP3      1185            0.0000000000
     53388      1586  TIP3      OH2           -51.3523614541      -24.7579673905       33.4179130846  TIP3      1186            0.0000000000
     53389      1586  TIP3      H1            -51.4013229319      -23.8501496503       33.0699336644  TIP3      1186            0.0000000000
     53390      1586  TIP3      H2            -52.2363956567      -24.8320686433       33.8620398002  TIP3      1186            0.0000000000
     53391      1587  TIP3      OH2           -55.2629206382      -25.1003388741       24.2380120861  TIP3      1187            0.0000000000
     53392      1587  TIP3      H1            -55.5039415376      -24.8374337787       23.3382357868  TIP3      1187            0.0000000000
     53393      1587  TIP3      H2            -55.1903260890      -24.2437481235       24.6947253868  TIP3      1187            0.0000000000
     53394      1588  TIP3      OH2           -41.6444788921      -23.4683035868       30.9477122228  TIP3      1188            0.0000000000
     53395      1588  TIP3      H1            -42.6003727723      -23.3775313344       31.0930380045  TIP3      1188            0.0000000000
     53396      1588  TIP3      H2            -41.3631663663      -22.5440493885       30.7845941939  TIP3      1188            0.0000000000
     53397      1589  TIP3      OH2           -41.3346016820      -35.1730884589       32.3561124990  TIP3      1189            0.0000000000
     53398      1589  TIP3      H1            -42.0688083324      -34.5511189607       32.2953345323  TIP3      1189            0.0000000000
     53399      1589  TIP3      H2            -40.6368210404      -34.7530039649       31.8231462634  TIP3      1189            0.0000000000
     53400      1590  TIP3      OH2           -48.3393094377      -37.0704556368       29.8118746154  TIP3      1190            0.0000000000
     53401      1590  TIP3      H1            -48.4699632917      -38.0371371577       29.7584013751  TIP3      1190            0.0000000000
     53402      1590  TIP3      H2            -49.2145208499      -36.7539282905       30.1068715111  TIP3      1190            0.0000000000
     53403      1591  TIP3      OH2           -43.3984745903      -21.6833575720       27.5827061642  TIP3      1191            0.0000000000
     53404      1591  TIP3      H1            -42.9553451900      -22.3895978224       27.0601226710  TIP3      1191            0.0000000000
     53405      1591  TIP3      H2            -43.0267431220      -20.8811177846       27.1467804093  TIP3      1191            0.0000000000
     53406      1592  TIP3      OH2           -42.2078767800      -23.7563538913       26.0632165623  TIP3      1192            0.0000000000
     53407      1592  TIP3      H1            -42.4742286876      -24.4701332970       25.4543266470  TIP3      1192            0.0000000000
     53408      1592  TIP3      H2            -42.1548288599      -24.2351152537       26.9118849626  TIP3      1192            0.0000000000
     53409      1593  TIP3      OH2           -40.5502032382      -25.1873008215       34.5613700282  TIP3      1193            0.0000000000
     53410      1593  TIP3      H1            -40.4053214418      -25.8086609321       33.8148207864  TIP3      1193            0.0000000000
     53411      1593  TIP3      H2            -40.3696440007      -24.3217782144       34.1637558642  TIP3      1193            0.0000000000
     53412      1594  TIP3      OH2           -46.0875275380      -28.2555584648       24.3365126287  TIP3      1194            0.0000000000
     53413      1594  TIP3      H1            -46.7790293543      -27.6963988861       23.9596486198  TIP3      1194            0.0000000000
     53414      1594  TIP3      H2            -45.3631578812      -28.2004170827       23.6604081114  TIP3      1194            0.0000000000
     53415      1595  TIP3      OH2           -38.6862501681      -28.8690069262       32.6196217232  TIP3      1195            0.0000000000
     53416      1595  TIP3      H1            -39.3499569058      -28.1529498062       32.6809474703  TIP3      1195            0.0000000000
     53417      1595  TIP3      H2            -38.2165259316      -28.6377201311       31.7982412714  TIP3      1195            0.0000000000
     53418      1596  TIP3      OH2           -42.6375907864      -28.0400164407       25.2609395720  TIP3      1196            0.0000000000
     53419      1596  TIP3      H1            -43.3838337620      -27.8074041973       25.8572900905  TIP3      1196            0.0000000000
     53420      1596  TIP3      H2            -42.1857520387      -28.7435759388       25.7513378666  TIP3      1196            0.0000000000
     53421      1597  TIP3      OH2           -42.7192832941      -29.8865405514       34.3521796071  TIP3      1197            0.0000000000
     53422      1597  TIP3      H1            -42.6900911381      -29.0844882060       34.9028530916  TIP3      1197            0.0000000000
     53423      1597  TIP3      H2            -43.3530606423      -29.5834908525       33.6636034893  TIP3      1197            0.0000000000
     53424      1598  TIP3      OH2           -51.0157299298      -27.3891596917       27.1606723095  TIP3      1198            0.0000000000
     53425      1598  TIP3      H1            -51.3462307061      -27.7868768639       26.3196662174  TIP3      1198            0.0000000000
     53426      1598  TIP3      H2            -50.4108792069      -28.0892794153       27.5010593763  TIP3      1198            0.0000000000
     53427      1599  TIP3      OH2           -49.6380350829      -23.9554786997       29.8387386603  TIP3      1199            0.0000000000
     53428      1599  TIP3      H1            -49.7377521776      -24.5509413453       29.0709752988  TIP3      1199            0.0000000000
     53429      1599  TIP3      H2            -48.9232110447      -24.3927869494       30.3191890729  TIP3      1199            0.0000000000
     53430      1600  TIP3      OH2           -50.6662473211      -28.6488521489       30.8028201806  TIP3      1200            0.0000000000
     53431      1600  TIP3      H1            -50.0937869738      -28.5247156224       30.0223112096  TIP3      1200            0.0000000000
     53432      1600  TIP3      H2            -50.3141625149      -27.9898866839       31.4334391718  TIP3      1200            0.0000000000
     53433      1601  TIP3      OH2           -44.3704615352      -23.0938179138       31.4970225124  TIP3      1201            0.0000000000
     53434      1601  TIP3      H1            -44.5381654777      -22.4648927739       32.2013189825  TIP3      1201            0.0000000000
     53435      1601  TIP3      H2            -44.5150455788      -23.9647546099       31.9612203107  TIP3      1201            0.0000000000
     53436      1602  TIP3      OH2           -49.7333254159      -24.2266038662       35.5009752719  TIP3      1202            0.0000000000
     53437      1602  TIP3      H1            -50.1035397256      -23.4614576387       35.9827922839  TIP3      1202            0.0000000000
     53438      1602  TIP3      H2            -50.4265702203      -24.4083907267       34.8208173142  TIP3      1202            0.0000000000
     53439      1603  TIP3      OH2           -43.8264659708      -28.8339775469       22.9684809346  TIP3      1203            0.0000000000
     53440      1603  TIP3      H1            -43.1887663720      -28.7220001897       23.7006133897  TIP3      1203            0.0000000000
     53441      1603  TIP3      H2            -43.3433946703      -28.4214245933       22.2343775391  TIP3      1203            0.0000000000
     53442      1604  TIP3      OH2           -52.8192842998      -28.0518258831       34.7035269958  TIP3      1204            0.0000000000
     53443      1604  TIP3      H1            -52.7788943522      -27.3875494169       35.4237798593  TIP3      1204            0.0000000000
     53444      1604  TIP3      H2            -53.7414303786      -27.9404167499       34.4260248639  TIP3      1204            0.0000000000
     53445      1605  TIP3      OH2           -46.0698409437      -22.1457269842       26.4135197681  TIP3      1205            0.0000000000
     53446      1605  TIP3      H1            -45.5828454791      -21.8254143005       27.1732085149  TIP3      1205            0.0000000000
     53447      1605  TIP3      H2            -46.6124819699      -21.3914660169       26.1460877971  TIP3      1205            0.0000000000
     53448      1606  TIP3      OH2           -51.5109312201      -22.1725589681       36.2727190236  TIP3      1206            0.0000000000
     53449      1606  TIP3      H1            -51.5258044988      -22.2971632567       35.3097182139  TIP3      1206            0.0000000000
     53450      1606  TIP3      H2            -52.4444017605      -22.3020415137       36.5221933923  TIP3      1206            0.0000000000
     53451      1607  TIP3      OH2           -52.0147919870      -28.3468785028       24.7485198332  TIP3      1207            0.0000000000
     53452      1607  TIP3      H1            -52.3261880502      -27.5670406100       24.2726832280  TIP3      1207            0.0000000000
     53453      1607  TIP3      H2            -52.6956465998      -29.0070007261       24.5849828632  TIP3      1207            0.0000000000
     53454      1608  TIP3      OH2           -38.9170171526      -22.7533067796       21.1797044791  TIP3      1208            0.0000000000
     53455      1608  TIP3      H1            -38.8079905480      -21.8003640759       21.2943274295  TIP3      1208            0.0000000000
     53456      1608  TIP3      H2            -37.9939322091      -23.0764098780       21.0958750052  TIP3      1208            0.0000000000
     53457      1609  TIP3      OH2           -55.9020331103      -25.9452232898       33.5942681408  TIP3      1209            0.0000000000
     53458      1609  TIP3      H1            -56.4164063403      -26.0131614381       32.7658568736  TIP3      1209            0.0000000000
     53459      1609  TIP3      H2            -55.9095644077      -26.8886521130       33.8687309414  TIP3      1209            0.0000000000
     53460      1610  TIP3      OH2           -56.1970916203      -23.1994041896       30.4426312318  TIP3      1210            0.0000000000
     53461      1610  TIP3      H1            -55.2377928854      -23.3326587523       30.4322164485  TIP3      1210            0.0000000000
     53462      1610  TIP3      H2            -56.2878438049      -22.4011323994       30.9731239194  TIP3      1210            0.0000000000
     53463      1611  TIP3      OH2           -37.9594456184      -22.5141933926       36.1137155302  TIP3      1211            0.0000000000
     53464      1611  TIP3      H1            -38.0532490149      -23.4778524999       36.1069142786  TIP3      1211            0.0000000000
     53465      1611  TIP3      H2            -38.8193118071      -22.2654477902       36.5379216784  TIP3      1211            0.0000000000
     53466      1612  TIP3      OH2           -47.0044658223      -22.9521410328       34.9706232284  TIP3      1212            0.0000000000
     53467      1612  TIP3      H1            -46.9214421180      -22.1254556218       35.5086420935  TIP3      1212            0.0000000000
     53468      1612  TIP3      H2            -47.8704231315      -23.3028270815       35.2624154707  TIP3      1212            0.0000000000
     53469      1613  TIP3      OH2           -46.5758807258      -19.2031091717       24.8136349082  TIP3      1213            0.0000000000
     53470      1613  TIP3      H1            -46.6572689023      -19.3052465489       23.8479771722  TIP3      1213            0.0000000000
     53471      1613  TIP3      H2            -46.5492316579      -18.2355761598       24.9380904512  TIP3      1213            0.0000000000
     53472      1614  TIP3      OH2           -52.9296533378      -20.3530758212       26.6003213324  TIP3      1214            0.0000000000
     53473      1614  TIP3      H1            -52.7818558273      -20.7575146414       27.4820051155  TIP3      1214            0.0000000000
     53474      1614  TIP3      H2            -53.7787730932      -20.7608563075       26.3491111474  TIP3      1214            0.0000000000
     53475      1615  TIP3      OH2           -43.4933362376      -20.0153651756       21.8323943263  TIP3      1215            0.0000000000
     53476      1615  TIP3      H1            -43.0944002547      -20.7520926429       21.3715869354  TIP3      1215            0.0000000000
     53477      1615  TIP3      H2            -43.4691998337      -20.2881154904       22.7612695272  TIP3      1215            0.0000000000
     53478      1616  TIP3      OH2           -43.8166757328      -20.0939927128       24.5523322107  TIP3      1216            0.0000000000
     53479      1616  TIP3      H1            -44.7704378120      -20.0059506875       24.7474453422  TIP3      1216            0.0000000000
     53480      1616  TIP3      H2            -43.5472372913      -20.8130920234       25.1449176874  TIP3      1216            0.0000000000
     53481      1617  TIP3      OH2           -40.8217821761      -31.0321334562       36.6094465352  TIP3      1217            0.0000000000
     53482      1617  TIP3      H1            -41.2575033048      -30.5644281176       35.8825235540  TIP3      1217            0.0000000000
     53483      1617  TIP3      H2            -40.8023826540      -31.9490014334       36.2955008687  TIP3      1217            0.0000000000
     53484      1618  TIP3      OH2           -53.6770791123      -24.6270784435       34.6059765989  TIP3      1218            0.0000000000
     53485      1618  TIP3      H1            -53.4669118500      -25.0154143819       35.4796533242  TIP3      1218            0.0000000000
     53486      1618  TIP3      H2            -54.5401042179      -25.0304675795       34.3869172835  TIP3      1218            0.0000000000
     53487      1619  TIP3      OH2           -51.0214273099      -36.1776584070       30.5854662251  TIP3      1219            0.0000000000
     53488      1619  TIP3      H1            -51.9221674649      -36.2657894493       30.1955492069  TIP3      1219            0.0000000000
     53489      1619  TIP3      H2            -51.0992499219      -35.3213258924       31.0340928625  TIP3      1219            0.0000000000
     53490      1620  TIP3      OH2           -46.3709271991      -36.4653107160       33.9506030935  TIP3      1220            0.0000000000
     53491      1620  TIP3      H1            -45.9687996511      -36.8909065264       34.7285316041  TIP3      1220            0.0000000000
     53492      1620  TIP3      H2            -47.3375834382      -36.6286222285       34.0865922509  TIP3      1220            0.0000000000
     53493      1621  TIP3      OH2           -43.0607951027      -32.6796808811       34.8227770055  TIP3      1221            0.0000000000
     53494      1621  TIP3      H1            -43.6040907581      -32.8462881349       35.6282928100  TIP3      1221            0.0000000000
     53495      1621  TIP3      H2            -43.2328780660      -31.7574366228       34.5839351815  TIP3      1221            0.0000000000
     53496      1622  TIP3      OH2           -46.7002826275      -33.9644656886       21.2832808747  TIP3      1222            0.0000000000
     53497      1622  TIP3      H1            -47.0161911359      -33.9589945449       22.1959012555  TIP3      1222            0.0000000000
     53498      1622  TIP3      H2            -46.9963565894      -34.8166908118       20.9447708259  TIP3      1222            0.0000000000
     53499      1623  TIP3      OH2           -50.9278907365      -31.2135650971       31.7440048417  TIP3      1223            0.0000000000
     53500      1623  TIP3      H1            -51.6239275781      -31.2365323798       32.4269980785  TIP3      1223            0.0000000000
     53501      1623  TIP3      H2            -50.9368988800      -30.2759401707       31.4491140586  TIP3      1223            0.0000000000
     53502      1624  TIP3      OH2           -50.9536591409      -31.0152724650       26.6483017901  TIP3      1224            0.0000000000
     53503      1624  TIP3      H1            -51.8727871811      -31.3326863449       26.5322129743  TIP3      1224            0.0000000000
     53504      1624  TIP3      H2            -50.5371253347      -31.3706638318       25.8388731516  TIP3      1224            0.0000000000
     53505      1625  TIP3      OH2           -45.4373666673      -30.5856686090       25.4323163939  TIP3      1225            0.0000000000
     53506      1625  TIP3      H1            -45.8273735488      -29.7463842705       25.1097237232  TIP3      1225            0.0000000000
     53507      1625  TIP3      H2            -44.7211957290      -30.7110686291       24.7966788988  TIP3      1225            0.0000000000
     53508      1626  TIP3      OH2           -46.3378314660      -30.3729269244       36.8976489307  TIP3      1226            0.0000000000
     53509      1626  TIP3      H1            -46.8934047143      -31.1235612838       37.2204799285  TIP3      1226            0.0000000000
     53510      1626  TIP3      H2            -45.5064720194      -30.5091714343       37.3792417187  TIP3      1226            0.0000000000
     53511      1627  TIP3      OH2           -44.4097853651      -31.1059340093       28.2711116923  TIP3      1227            0.0000000000
     53512      1627  TIP3      H1            -44.6391051756      -30.5242410830       27.5258064096  TIP3      1227            0.0000000000
     53513      1627  TIP3      H2            -44.2602740142      -31.9542202892       27.8031692622  TIP3      1227            0.0000000000
     53514      1628  TIP3      OH2           -53.2373986797      -30.9044937198       33.5300010058  TIP3      1228            0.0000000000
     53515      1628  TIP3      H1            -53.2404900457      -30.5078282640       34.4170358392  TIP3      1228            0.0000000000
     53516      1628  TIP3      H2            -53.7078076537      -31.7384064629       33.6760398717  TIP3      1228            0.0000000000
     53517      1629  TIP3      OH2           -49.8929613848      -33.5521426853       20.3687933366  TIP3      1229            0.0000000000
     53518      1629  TIP3      H1            -50.3039688924      -33.9428625456       21.1136515665  TIP3      1229            0.0000000000
     53519      1629  TIP3      H2            -50.5706232672      -33.1276341313       19.8365583391  TIP3      1229            0.0000000000
     53520      1630  TIP3      OH2           -56.6005154539      -33.7702222444       27.4269740867  TIP3      1230            0.0000000000
     53521      1630  TIP3      H1            -55.9567272604      -33.8307962193       28.1634265966  TIP3      1230            0.0000000000
     53522      1630  TIP3      H2            -56.1566177680      -34.2098200504       26.6807494000  TIP3      1230            0.0000000000
     53523      1631  TIP3      OH2           -55.3578986751      -33.0582677689       22.8270455824  TIP3      1231            0.0000000000
     53524      1631  TIP3      H1            -54.8355540577      -32.4413613448       22.2614510390  TIP3      1231            0.0000000000
     53525      1631  TIP3      H2            -56.0366526655      -32.5001394143       23.2018986156  TIP3      1231            0.0000000000
     53526      1632  TIP3      OH2           -45.1714125985      -29.4821057824       32.8864715346  TIP3      1232            0.0000000000
     53527      1632  TIP3      H1            -44.8253715086      -30.1492268589       32.2643695826  TIP3      1232            0.0000000000
     53528      1632  TIP3      H2            -45.6207658614      -30.0277850442       33.5563256253  TIP3      1232            0.0000000000
     53529      1633  TIP3      OH2           -48.3792992618      -33.5466512655       27.6830956686  TIP3      1233            0.0000000000
     53530      1633  TIP3      H1            -49.3110460964      -33.5096835422       27.9832579849  TIP3      1233            0.0000000000
     53531      1633  TIP3      H2            -47.8868732260      -33.6464870563       28.5096895880  TIP3      1233            0.0000000000
     53532      1634  TIP3      OH2           -53.5732488850      -31.9537374349       26.5614545439  TIP3      1234            0.0000000000
     53533      1634  TIP3      H1            -54.4564769909      -31.8298698007       26.1737014133  TIP3      1234            0.0000000000
     53534      1634  TIP3      H2            -53.2723794701      -32.7861458466       26.1674830605  TIP3      1234            0.0000000000
     53535      1635  TIP3      OH2           -49.9195247195      -31.9252244741       24.1881145926  TIP3      1235            0.0000000000
     53536      1635  TIP3      H1            -48.9688354696      -31.8167998888       24.3518379055  TIP3      1235            0.0000000000
     53537      1635  TIP3      H2            -50.1409574910      -31.2681486787       23.5154268442  TIP3      1235            0.0000000000
     53538      1636  TIP3      OH2           -43.9719100853      -34.3091307573       30.9432898663  TIP3      1236            0.0000000000
     53539      1636  TIP3      H1            -44.6671206435      -34.2110988306       31.6271913521  TIP3      1236            0.0000000000
     53540      1636  TIP3      H2            -44.4772247263      -34.5038023573       30.1425440986  TIP3      1236            0.0000000000
     53541      1637  TIP3      OH2           -51.2355244804      -30.7167664648       21.7559697877  TIP3      1237            0.0000000000
     53542      1637  TIP3      H1            -51.7813711990      -31.1241521791       21.0646642407  TIP3      1237            0.0000000000
     53543      1637  TIP3      H2            -50.4032940280      -30.5689998389       21.3091739220  TIP3      1237            0.0000000000
     53544      1638  TIP3      OH2           -40.7405002123      -18.6529430445       37.2583140325  TIP3      1238            0.0000000000
     53545      1638  TIP3      H1            -40.4920479276      -18.2431158095       36.4065724050  TIP3      1238            0.0000000000
     53546      1638  TIP3      H2            -40.0369812826      -18.3158056593       37.8423513284  TIP3      1238            0.0000000000
     53547      1639  TIP3      OH2           -53.0885869053      -26.1756305561       36.8256626574  TIP3      1239            0.0000000000
     53548      1639  TIP3      H1            -52.3663749086      -25.9302219574       37.4325070348  TIP3      1239            0.0000000000
     53549      1639  TIP3      H2            -53.8862510225      -26.0150419601       37.3808062361  TIP3      1239            0.0000000000
     53550      1640  TIP3      OH2           -47.0865067391      -30.7685887496       29.5800629048  TIP3      1240            0.0000000000
     53551      1640  TIP3      H1            -46.5017646907      -31.3145477427       29.0380629942  TIP3      1240            0.0000000000
     53552      1640  TIP3      H2            -47.2249376741      -31.3063585348       30.3702068628  TIP3      1240            0.0000000000
     53553      1641  TIP3      OH2           -52.0844366945      -34.6264726953       25.9949076273  TIP3      1241            0.0000000000
     53554      1641  TIP3      H1            -52.3969817453      -35.5480166659       25.9923823691  TIP3      1241            0.0000000000
     53555      1641  TIP3      H2            -51.2812877613      -34.6508714936       25.4614851293  TIP3      1241            0.0000000000
     53556      1642  TIP3      OH2           -48.4462443756      -32.4156469697       31.9890357460  TIP3      1242            0.0000000000
     53557      1642  TIP3      H1            -49.2832401366      -31.9237972112       32.0989702849  TIP3      1242            0.0000000000
     53558      1642  TIP3      H2            -47.9092601111      -32.0968582471       32.7417149984  TIP3      1242            0.0000000000
     53559      1643  TIP3      OH2           -47.8869718125      -26.2068789177       23.6643159816  TIP3      1243            0.0000000000
     53560      1643  TIP3      H1            -48.6689797778      -26.6751975613       23.3816505808  TIP3      1243            0.0000000000
     53561      1643  TIP3      H2            -48.0400867828      -26.1067079562       24.6345898517  TIP3      1243            0.0000000000
     53562      1644  TIP3      OH2           -40.7197936171      -27.0365157182       32.4881292853  TIP3      1244            0.0000000000
     53563      1644  TIP3      H1            -40.1148935723      -26.5627121020       31.8934065010  TIP3      1244            0.0000000000
     53564      1644  TIP3      H2            -41.5682148780      -26.9378097360       32.0060675491  TIP3      1244            0.0000000000
     53565      1645  TIP3      OH2           -44.0218098663      -33.3578273248       21.9291288160  TIP3      1245            0.0000000000
     53566      1645  TIP3      H1            -44.9626377353      -33.2441322382       21.6969300242  TIP3      1245            0.0000000000
     53567      1645  TIP3      H2            -43.6869552874      -32.4801531639       22.1494442042  TIP3      1245            0.0000000000
     53568      1646  TIP3      OH2           -46.3819605863      -25.9703941168       34.9109239948  TIP3      1246            0.0000000000
     53569      1646  TIP3      H1            -46.7211468386      -26.3708169001       35.7231899120  TIP3      1246            0.0000000000
     53570      1646  TIP3      H2            -46.5968725721      -25.0433605632       35.0165171106  TIP3      1246            0.0000000000
     53571      1647  TIP3      OH2           -52.7633024189      -26.8423260348       29.4691870735  TIP3      1247            0.0000000000
     53572      1647  TIP3      H1            -52.0440474334      -26.8904768719       28.8165616941  TIP3      1247            0.0000000000
     53573      1647  TIP3      H2            -52.6965630907      -27.6991539139       29.9284293027  TIP3      1247            0.0000000000
     53574      1648  TIP3      OH2           -45.7524151275      -24.7297469496       22.7093602036  TIP3      1248            0.0000000000
     53575      1648  TIP3      H1            -46.0926864863      -23.8880408335       23.0802398183  TIP3      1248            0.0000000000
     53576      1648  TIP3      H2            -46.4886624725      -25.3365174342       22.9187117639  TIP3      1248            0.0000000000
     53577      1649  TIP3      OH2           -55.7601919207      -28.4037926007       34.7627769630  TIP3      1249            0.0000000000
     53578      1649  TIP3      H1            -55.5618943551      -28.8482423657       35.6069016365  TIP3      1249            0.0000000000
     53579      1649  TIP3      H2            -56.3765190965      -29.0265794453       34.3273912674  TIP3      1249            0.0000000000
     53580      1650  TIP3      OH2           -48.7552958117      -28.8758185038       36.9680962361  TIP3      1250            0.0000000000
     53581      1650  TIP3      H1            -49.0530150443      -29.1025600369       36.0763301411  TIP3      1250            0.0000000000
     53582      1650  TIP3      H2            -47.8148396140      -29.1436012971       36.9510437771  TIP3      1250            0.0000000000
     53583      1651  TIP3      OH2           -44.1026825028      -23.5254190630       34.8523364792  TIP3      1251            0.0000000000
     53584      1651  TIP3      H1            -45.0261870237      -23.3416607452       34.6340472568  TIP3      1251            0.0000000000
     53585      1651  TIP3      H2            -44.0993459200      -23.2549169104       35.7973542127  TIP3      1251            0.0000000000
     53586      1652  TIP3      OH2           -38.4193347998      -25.4790884149       36.0890678450  TIP3      1252            0.0000000000
     53587      1652  TIP3      H1            -39.2999832958      -25.2498416377       35.7047478439  TIP3      1252            0.0000000000
     53588      1652  TIP3      H2            -37.8498829900      -25.5052811356       35.2965175134  TIP3      1252            0.0000000000
     53589      1653  TIP3      OH2           -40.1220467898      -22.5001933362       23.6836505353  TIP3      1253            0.0000000000
     53590      1653  TIP3      H1            -40.4728626550      -23.3356832635       24.0123208844  TIP3      1253            0.0000000000
     53591      1653  TIP3      H2            -39.8126529926      -22.7080667426       22.7886245207  TIP3      1253            0.0000000000
     53592      1654  TIP3      OH2           -42.9221373436      -27.6840438933       30.7482983399  TIP3      1254            0.0000000000
     53593      1654  TIP3      H1            -43.8647962330      -27.9189629902       30.6795183068  TIP3      1254            0.0000000000
     53594      1654  TIP3      H2            -42.4867544153      -28.4691386327       30.3688804415  TIP3      1254            0.0000000000
     53595      1655  TIP3      OH2           -50.3854729841      -23.3665490017       26.8778230559  TIP3      1255            0.0000000000
     53596      1655  TIP3      H1            -49.8828297487      -22.5717522138       26.6454800701  TIP3      1255            0.0000000000
     53597      1655  TIP3      H2            -51.2694059181      -23.1348637582       26.5476850766  TIP3      1255            0.0000000000
     53598      1656  TIP3      OH2           -54.5420529435      -28.4893749202       21.7156372441  TIP3      1256            0.0000000000
     53599      1656  TIP3      H1            -53.9792170906      -27.7458577747       21.8542618034  TIP3      1256            0.0000000000
     53600      1656  TIP3      H2            -55.4569825536      -28.1431522717       21.7071710207  TIP3      1256            0.0000000000
     53601      1657  TIP3      OH2           -48.9485479238      -25.7029481829       26.4247441455  TIP3      1257            0.0000000000
     53602      1657  TIP3      H1            -49.2410285271      -24.7744312356       26.4794012314  TIP3      1257            0.0000000000
     53603      1657  TIP3      H2            -49.7097313816      -26.1660584507       26.8316438742  TIP3      1257            0.0000000000
     53604      1658  TIP3      OH2           -48.4472924530      -21.5663264236       32.7113317084  TIP3      1258            0.0000000000
     53605      1658  TIP3      H1            -48.0971339293      -20.6725518097       32.5397043751  TIP3      1258            0.0000000000
     53606      1658  TIP3      H2            -47.9306682426      -21.8350203898       33.5064214906  TIP3      1258            0.0000000000
     53607      1659  TIP3      OH2           -50.2843255991      -20.7064664828       25.9746997182  TIP3      1259            0.0000000000
     53608      1659  TIP3      H1            -51.2531746752      -20.5702866576       26.0375128805  TIP3      1259            0.0000000000
     53609      1659  TIP3      H2            -49.9384505764      -19.8547454051       26.2971153899  TIP3      1259            0.0000000000
     53610      1660  TIP3      OH2           -44.9540391542      -25.4654102341       32.4235111280  TIP3      1260            0.0000000000
     53611      1660  TIP3      H1            -45.3283535578      -25.6942088120       33.3014918684  TIP3      1260            0.0000000000
     53612      1660  TIP3      H2            -44.3356753579      -26.2036961836       32.2613398963  TIP3      1260            0.0000000000
     53613      1661  TIP3      OH2           -42.2181136751      -20.9134211150       34.9312806708  TIP3      1261            0.0000000000
     53614      1661  TIP3      H1            -42.8582630010      -21.4431286376       34.4219117792  TIP3      1261            0.0000000000
     53615      1661  TIP3      H2            -41.9838485796      -20.2295405181       34.2689200778  TIP3      1261            0.0000000000
     53616      1662  TIP3      OH2           -54.1177074899      -33.6675238194       34.2988065729  TIP3      1262            0.0000000000
     53617      1662  TIP3      H1            -55.0280299707      -33.3278364310       34.2563726625  TIP3      1262            0.0000000000
     53618      1662  TIP3      H2            -54.2208687671      -34.5244849668       34.7448640529  TIP3      1262            0.0000000000
     53619      1663  TIP3      OH2           -41.8739268778      -25.7887654172       23.7773877643  TIP3      1263            0.0000000000
     53620      1663  TIP3      H1            -42.1091983811      -26.5963947942       24.2825516303  TIP3      1263            0.0000000000
     53621      1663  TIP3      H2            -40.9132452601      -25.7696084473       23.9302120255  TIP3      1263            0.0000000000
     53622      1664  TIP3      OH2           -54.4629710719      -21.8677870770       32.7300567243  TIP3      1264            0.0000000000
     53623      1664  TIP3      H1            -54.2329168190      -22.8084513583       32.7324860350  TIP3      1264            0.0000000000
     53624      1664  TIP3      H2            -54.2251222072      -21.6006151930       33.6247391715  TIP3      1264            0.0000000000
     53625      1665  TIP3      OH2           -49.7376536665      -23.8721302283       22.4336402659  TIP3      1265            0.0000000000
     53626      1665  TIP3      H1            -49.5259665113      -24.3431564636       23.2309997317  TIP3      1265            0.0000000000
     53627      1665  TIP3      H2            -49.6860603654      -22.9231437852       22.7125311479  TIP3      1265            0.0000000000
     53628      1666  TIP3      OH2           -45.3952587428      -33.9097941699       33.2241134634  TIP3      1266            0.0000000000
     53629      1666  TIP3      H1            -44.6889725692      -33.8524184383       33.8795230477  TIP3      1266            0.0000000000
     53630      1666  TIP3      H2            -45.7763016434      -34.7930663690       33.4040319057  TIP3      1266            0.0000000000
     53631      1667  TIP3      OH2           -44.6417816499      -34.2788698956       24.3465805984  TIP3      1267            0.0000000000
     53632      1667  TIP3      H1            -44.3964827365      -33.8289644686       23.5038128436  TIP3      1267            0.0000000000
     53633      1667  TIP3      H2            -44.0413730191      -33.8836697565       24.9830831807  TIP3      1267            0.0000000000
     53634      1668  TIP3      OH2           -46.9232275566      -22.1562475458       23.1888956461  TIP3      1268            0.0000000000
     53635      1668  TIP3      H1            -47.7620090955      -21.6534499597       23.2161254721  TIP3      1268            0.0000000000
     53636      1668  TIP3      H2            -46.4303090854      -21.6581218366       22.5295068842  TIP3      1268            0.0000000000
     53637      1669  TIP3      OH2           -47.4246760570      -32.5488859978       25.1488291136  TIP3      1269            0.0000000000
     53638      1669  TIP3      H1            -46.6014768716      -32.0260361525       25.1976665267  TIP3      1269            0.0000000000
     53639      1669  TIP3      H2            -47.6679562770      -32.6930837160       26.0801511969  TIP3      1269            0.0000000000
     53640      1670  TIP3      OH2           -46.8701124078      -31.5609993222       34.3365852019  TIP3      1270            0.0000000000
     53641      1670  TIP3      H1            -46.7698283329      -30.9846132173       35.1166611002  TIP3      1270            0.0000000000
     53642      1670  TIP3      H2            -46.2101075473      -32.2551841894       34.4479642954  TIP3      1270            0.0000000000
     53643      1671  TIP3      OH2           -46.5408001058      -35.4930216356       26.0755857308  TIP3      1271            0.0000000000
     53644      1671  TIP3      H1            -46.8813496846      -34.8522496120       26.7194062586  TIP3      1271            0.0000000000
     53645      1671  TIP3      H2            -45.8627875058      -34.9568402194       25.5989257914  TIP3      1271            0.0000000000
     53646      1672  TIP3      OH2           -49.5779052579      -21.1135233744       23.1874738874  TIP3      1272            0.0000000000
     53647      1672  TIP3      H1            -49.4427277554      -20.3056873457       22.6343621442  TIP3      1272            0.0000000000
     53648      1672  TIP3      H2            -49.8217822157      -20.7812497217       24.0638916933  TIP3      1272            0.0000000000
     53649      1673  TIP3      OH2           -40.6613869906      -33.6714023340       35.1894934364  TIP3      1273            0.0000000000
     53650      1673  TIP3      H1            -41.6013453832      -33.3828034433       35.0704754498  TIP3      1273            0.0000000000
     53651      1673  TIP3      H2            -40.3573385702      -33.6725384345       34.2678759553  TIP3      1273            0.0000000000
     53652      1674  TIP3      OH2           -42.0721640288      -29.8910651576       29.2472567608  TIP3      1274            0.0000000000
     53653      1674  TIP3      H1            -42.8815573106      -30.3287855071       28.9320258269  TIP3      1274            0.0000000000
     53654      1674  TIP3      H2            -41.6108575675      -30.5972940262       29.7516774906  TIP3      1274            0.0000000000
     53655      1675  TIP3      OH2           -54.2309693862      -31.3697519235       21.0740448719  TIP3      1275            0.0000000000
     53656      1675  TIP3      H1            -54.3017991953      -30.3877401317       21.1138254143  TIP3      1275            0.0000000000
     53657      1675  TIP3      H2            -55.0988668813      -31.5284903509       20.6105870516  TIP3      1275            0.0000000000
     53658      1676  TIP3      OH2           -41.0011155965      -20.6555392873       30.8900251770  TIP3      1276            0.0000000000
     53659      1676  TIP3      H1            -41.1192937453      -19.9615265051       30.2111711402  TIP3      1276            0.0000000000
     53660      1676  TIP3      H2            -40.0404574407      -20.5761778996       31.0739026127  TIP3      1276            0.0000000000
     53661      1677  TIP3      OH2           -53.4926527011      -36.5151820513       29.6508471660  TIP3      1277            0.0000000000
     53662      1677  TIP3      H1            -53.7200257883      -36.4853267830       28.6960952245  TIP3      1277            0.0000000000
     53663      1677  TIP3      H2            -53.9328034084      -37.3431923833       29.9246487871  TIP3      1277            0.0000000000
     53664      1678  TIP3      OH2           -54.5595537293      -22.6011329635       25.8023815586  TIP3      1278            0.0000000000
     53665      1678  TIP3      H1            -55.3973211987      -22.1131151343       25.7941974996  TIP3      1278            0.0000000000
     53666      1678  TIP3      H2            -54.0314976871      -22.1007619344       25.1629246088  TIP3      1278            0.0000000000
     53667      1679  TIP3      OH2           -55.2740416254      -19.9767650090       37.0928409246  TIP3      1279            0.0000000000
     53668      1679  TIP3      H1            -54.7149499021      -20.2102179230       37.8709782043  TIP3      1279            0.0000000000
     53669      1679  TIP3      H2            -55.7456400885      -20.8115589269       36.9268791505  TIP3      1279            0.0000000000
     53670      1680  TIP3      OH2           -50.6779861610      -21.0423710154       38.7414631374  TIP3      1280            0.0000000000
     53671      1680  TIP3      H1            -49.9021003237      -21.5221452447       39.0655075918  TIP3      1280            0.0000000000
     53672      1680  TIP3      H2            -50.6928849020      -21.2960058612       37.7954333974  TIP3      1280            0.0000000000
     53673      1681  TIP3      OH2           -44.1298437960      -22.6557901490       37.4545429950  TIP3      1281            0.0000000000
     53674      1681  TIP3      H1            -44.4585513478      -23.5394642261       37.7179825650  TIP3      1281            0.0000000000
     53675      1681  TIP3      H2            -43.3742515680      -22.5324079798       38.0609541883  TIP3      1281            0.0000000000
     53676      1682  TIP3      OH2           -55.3796166173      -26.1734804759       38.0987627938  TIP3      1282            0.0000000000
     53677      1682  TIP3      H1            -55.2393719660      -27.0862821015       37.7796754784  TIP3      1282            0.0000000000
     53678      1682  TIP3      H2            -56.1449539795      -25.8815706695       37.5532876320  TIP3      1282            0.0000000000
     53679      1683  TIP3      OH2           -48.7075755311      -26.1929600675       37.4936168351  TIP3      1283            0.0000000000
     53680      1683  TIP3      H1            -49.0479703149      -25.9049713586       36.6278364339  TIP3      1283            0.0000000000
     53681      1683  TIP3      H2            -48.5879336993      -27.1608775700       37.3973211557  TIP3      1283            0.0000000000
     53682      1684  TIP3      OH2           -42.9967781226      -26.3095175246       34.8846758224  TIP3      1284            0.0000000000
     53683      1684  TIP3      H1            -42.2298493081      -25.7024730606       34.7848833325  TIP3      1284            0.0000000000
     53684      1684  TIP3      H2            -43.7276364301      -25.6786158521       34.9339048695  TIP3      1284            0.0000000000
     53685      1685  TIP3      OH2           -54.5262944456      -28.9422761528       37.4850429656  TIP3      1285            0.0000000000
     53686      1685  TIP3      H1            -54.1144757897      -29.8132826412       37.3816557348  TIP3      1285            0.0000000000
     53687      1685  TIP3      H2            -54.7701510701      -28.9342134514       38.4283497974  TIP3      1285            0.0000000000
     53688      1686  TIP3      OH2           -50.5956768530      -29.9808844767       34.8611166737  TIP3      1286            0.0000000000
     53689      1686  TIP3      H1            -51.2100524486      -29.2761723083       35.1285938428  TIP3      1286            0.0000000000
     53690      1686  TIP3      H2            -50.2350979298      -29.6301184106       34.0289727937  TIP3      1286            0.0000000000
     53691      1687  TIP3      OH2           -45.5560444497      -27.4596314259       38.1832708727  TIP3      1287            0.0000000000
     53692      1687  TIP3      H1            -44.5969220848      -27.4226005629       38.1005016230  TIP3      1287            0.0000000000
     53693      1687  TIP3      H2            -45.7214595295      -28.2079039702       38.7726592995  TIP3      1287            0.0000000000
     53694      1688  TIP3      OH2           -50.2252003190      -32.6086034046       35.9324758631  TIP3      1288            0.0000000000
     53695      1688  TIP3      H1            -50.0961727950      -33.3375034403       35.3046155085  TIP3      1288            0.0000000000
     53696      1688  TIP3      H2            -50.2481065501      -31.8122124970       35.3669565675  TIP3      1288            0.0000000000
     53697      1689  TIP3      OH2           -49.8187734553      -34.2382326921       33.4545100078  TIP3      1289            0.0000000000
     53698      1689  TIP3      H1            -49.2941276538      -33.7764839602       32.7610150460  TIP3      1289            0.0000000000
     53699      1689  TIP3      H2            -50.6995471192      -34.3323030279       33.0234033508  TIP3      1289            0.0000000000
     53700      1690  TIP3      OH2           -48.2581230619      -28.7842074339       33.6927204208  TIP3      1290            0.0000000000
     53701      1690  TIP3      H1            -47.5048318821      -28.9390349290       33.1105335999  TIP3      1290            0.0000000000
     53702      1690  TIP3      H2            -48.6051844122      -27.9305738366       33.3873794438  TIP3      1290            0.0000000000
     53703      1691  TIP3      OH2           -43.8539455002      -30.9883413982       38.6912011369  TIP3      1291            0.0000000000
     53704      1691  TIP3      H1            -43.6418560378      -31.9272880370       38.5892019312  TIP3      1291            0.0000000000
     53705      1691  TIP3      H2            -42.9814509542      -30.5635562950       38.6846324532  TIP3      1291            0.0000000000
     53706      1692  TIP3      OH2           -42.5318519122      -28.2044587660       36.8180975692  TIP3      1292            0.0000000000
     53707      1692  TIP3      H1            -42.7891765409      -27.4788675954       36.2026507385  TIP3      1292            0.0000000000
     53708      1692  TIP3      H2            -41.5739891064      -28.2495516042       36.6194853876  TIP3      1292            0.0000000000
     53709      1693  TIP3      OH2           -51.7547702122      -31.3829198693       37.8608570722  TIP3      1293            0.0000000000
     53710      1693  TIP3      H1            -52.5319332894      -31.9422936829       37.6372173848  TIP3      1293            0.0000000000
     53711      1693  TIP3      H2            -51.0938009193      -31.7259862400       37.2285600945  TIP3      1293            0.0000000000
     53712      1694  TIP3      OH2           -49.0158099700      -36.7946163902       33.8682605244  TIP3      1294            0.0000000000
     53713      1694  TIP3      H1            -49.1560913351      -35.8267103101       33.7576340452  TIP3      1294            0.0000000000
     53714      1694  TIP3      H2            -49.7758187702      -37.1525263961       33.3726238412  TIP3      1294            0.0000000000
     53715      1695  TIP3      OH2           -47.7490384759      -32.4682211097       37.4494151460  TIP3      1295            0.0000000000
     53716      1695  TIP3      H1            -48.0288556199      -32.6856799132       38.3567481775  TIP3      1295            0.0000000000
     53717      1695  TIP3      H2            -48.5475908177      -32.6645245014       36.9205584283  TIP3      1295            0.0000000000
     53718      1696  TIP3      OH2           -45.0354350987      -33.3336582826       36.5145621838  TIP3      1296            0.0000000000
     53719      1696  TIP3      H1            -45.9985084108      -33.2903493021       36.6543376814  TIP3      1296            0.0000000000
     53720      1696  TIP3      H2            -44.7461169637      -33.9624323625       37.1956874584  TIP3      1296            0.0000000000
     53721      1697  TIP3      OH2           -43.4341812629      -34.6963972139       38.4870021737  TIP3      1297            0.0000000000
     53722      1697  TIP3      H1            -43.5042935636      -35.6689725338       38.5015578900  TIP3      1297            0.0000000000
     53723      1697  TIP3      H2            -43.7269577457      -34.4180415386       39.3831110682  TIP3      1297            0.0000000000
     53724      1698  TIP3      OH2           -53.5889923824      -33.4582024660       37.5536306934  TIP3      1298            0.0000000000
     53725      1698  TIP3      H1            -53.3881836438      -34.1999366304       36.9541747467  TIP3      1298            0.0000000000
     53726      1698  TIP3      H2            -53.7060720645      -33.9078748605       38.4165372590  TIP3      1298            0.0000000000
     53727      1699  TIP3      OH2           -48.8171884441      -37.4630688080       36.5583714720  TIP3      1299            0.0000000000
     53728      1699  TIP3      H1            -48.0930782093      -38.1221015755       36.5108703839  TIP3      1299            0.0000000000
     53729      1699  TIP3      H2            -48.9070040937      -37.2326557037       35.6099321433  TIP3      1299            0.0000000000
     53730      1700  TIP3      OH2           -48.4591177601      -35.8163595845       38.6294524083  TIP3      1300            0.0000000000
     53731      1700  TIP3      H1            -48.5933013184      -36.2888390747       37.7726008734  TIP3      1300            0.0000000000
     53732      1700  TIP3      H2            -49.0429246412      -35.0374530768       38.5336131951  TIP3      1300            0.0000000000
     53733      1701  TIP3      OH2           -48.9372896345      -18.8810026190       21.8304683109  TIP3      1301            0.0000000000
     53734      1701  TIP3      H1            -47.9706428903      -18.7815371355       21.8948769952  TIP3      1301            0.0000000000
     53735      1701  TIP3      H2            -49.1519775278      -18.2658050035       21.1217592814  TIP3      1301            0.0000000000
     53736      1702  TIP3      OH2            56.2107388536      -18.8961734058       26.2936876208  TIP3      1302            0.0000000000
     53737      1702  TIP3      H1             55.5003665048      -19.3765539113       25.7992219093  TIP3      1302            0.0000000000
     53738      1702  TIP3      H2             56.4985876586      -19.5803237324       26.9262310627  TIP3      1302            0.0000000000
     53739      1703  TIP3      OH2           -55.8165438663      -20.7972177027       28.1251805757  TIP3      1303            0.0000000000
     53740      1703  TIP3      H1            -56.1678653514      -21.6823801390       28.3213147879  TIP3      1303            0.0000000000
     53741      1703  TIP3      H2            -55.6049525775      -20.4622929240       29.0162754266  TIP3      1303            0.0000000000
     53742      1704  TIP3      OH2           -38.2804512115      -20.0011450078       31.0945095398  TIP3      1304            0.0000000000
     53743      1704  TIP3      H1            -38.2722396935      -19.8169914489       32.0495413920  TIP3      1304            0.0000000000
     53744      1704  TIP3      H2            -37.5768260898      -19.4225822600       30.7772713945  TIP3      1304            0.0000000000
     53745      1705  TIP3      OH2           -38.7034187615      -20.4026028501       34.0331267851  TIP3      1305            0.0000000000
     53746      1705  TIP3      H1            -39.1869488516      -21.1732075984       33.6594341421  TIP3      1305            0.0000000000
     53747      1705  TIP3      H2            -38.1778578024      -20.8386743461       34.7225084222  TIP3      1305            0.0000000000
     53748      1706  TIP3      OH2           -40.2534750485      -24.6721151344       38.6726973365  TIP3      1306            0.0000000000
     53749      1706  TIP3      H1            -41.1375592222      -24.7241401863       39.0758045712  TIP3      1306            0.0000000000
     53750      1706  TIP3      H2            -39.8816635244      -23.8763752041       39.1230599928  TIP3      1306            0.0000000000
     53751      1707  TIP3      OH2           -38.9643758204      -26.3527223213       24.1840160005  TIP3      1307            0.0000000000
     53752      1707  TIP3      H1            -38.0865734221      -25.9677923730       24.3111605687  TIP3      1307            0.0000000000
     53753      1707  TIP3      H2            -38.9467626434      -27.1218438308       24.7895684429  TIP3      1307            0.0000000000
     53754      1708  TIP3      OH2           -38.5690481689      -28.3163046802       25.9871821222  TIP3      1308            0.0000000000
     53755      1708  TIP3      H1            -39.3134820538      -28.7990622960       26.4060819475  TIP3      1308            0.0000000000
     53756      1708  TIP3      H2            -37.9794576274      -28.1281434552       26.7495801888  TIP3      1308            0.0000000000
     53757      1709  TIP3      OH2           -38.8215257237      -25.5667291795       30.9807192657  TIP3      1309            0.0000000000
     53758      1709  TIP3      H1            -37.9795652371      -25.9326513825       30.6498806864  TIP3      1309            0.0000000000
     53759      1709  TIP3      H2            -38.6828021036      -24.6058170238       30.8304283372  TIP3      1309            0.0000000000
     53760      1710  TIP3      OH2           -40.2862120114      -22.6718530656       33.2745085834  TIP3      1310            0.0000000000
     53761      1710  TIP3      H1            -40.9686198469      -22.3377393407       33.8784954129  TIP3      1310            0.0000000000
     53762      1710  TIP3      H2            -40.8325676075      -23.0963248475       32.5770344755  TIP3      1310            0.0000000000
     53763      1711  TIP3      OH2           -40.7651842470      -29.8034599438       26.5709854983  TIP3      1311            0.0000000000
     53764      1711  TIP3      H1            -40.9230092160      -30.7577517539       26.5521668305  TIP3      1311            0.0000000000
     53765      1711  TIP3      H2            -41.1208350143      -29.5487401023       27.4387391998  TIP3      1311            0.0000000000
     53766      1712  TIP3      OH2           -55.7430138792      -27.7337547134       30.6183314434  TIP3      1312            0.0000000000
     53767      1712  TIP3      H1            -55.5607696060      -27.8074437657       29.6569071882  TIP3      1312            0.0000000000
     53768      1712  TIP3      H2            -54.8639528391      -27.8759951507       31.0097965575  TIP3      1312            0.0000000000
     53769      1713  TIP3      OH2           -39.9239529265      -27.8356324618       36.2414475948  TIP3      1313            0.0000000000
     53770      1713  TIP3      H1            -39.3133812149      -28.5850125647       36.4017228369  TIP3      1313            0.0000000000
     53771      1713  TIP3      H2            -39.3308135537      -27.0580146102       36.2611275248  TIP3      1313            0.0000000000
     53772      1714  TIP3      OH2           -38.4118576074      -29.9319517703       36.9172263003  TIP3      1314            0.0000000000
     53773      1714  TIP3      H1            -39.2883042912      -30.3350354616       36.7387038132  TIP3      1314            0.0000000000
     53774      1714  TIP3      H2            -37.8229993144      -30.6980063079       36.8286741934  TIP3      1314            0.0000000000
     53775      1715  TIP3      OH2           -40.6836963109      -33.9047586577       20.0186089292  TIP3      1315            0.0000000000
     53776      1715  TIP3      H1            -40.0848725198      -34.1679925337       20.7331234290  TIP3      1315            0.0000000000
     53777      1715  TIP3      H2            -41.5606588450      -34.1968011642       20.2927347439  TIP3      1315            0.0000000000
     53778      1716  TIP3      OH2           -41.0768269253      -32.2180615516       25.0832393290  TIP3      1316            0.0000000000
     53779      1716  TIP3      H1            -40.7854712790      -33.1515810655       25.1520031100  TIP3      1316            0.0000000000
     53780      1716  TIP3      H2            -40.3264061046      -31.8000807594       24.6331599077  TIP3      1316            0.0000000000
     53781      1717  TIP3      OH2           -40.4639102363      -31.6696697036       30.4710558890  TIP3      1317            0.0000000000
     53782      1717  TIP3      H1            -39.5068692266      -31.4324977782       30.4527411318  TIP3      1317            0.0000000000
     53783      1717  TIP3      H2            -40.6686136255      -31.5345680805       31.4096264079  TIP3      1317            0.0000000000
     53784      1718  TIP3      OH2           -40.4029781447      -30.9405505206       33.2540797160  TIP3      1318            0.0000000000
     53785      1718  TIP3      H1            -41.2727274182      -30.6451901638       33.6029222648  TIP3      1318            0.0000000000
     53786      1718  TIP3      H2            -39.9697127981      -30.0804037279       33.0370691838  TIP3      1318            0.0000000000
     53787      1719  TIP3      OH2           -56.1263102620      -32.4362911978       36.7413030075  TIP3      1319            0.0000000000
     53788      1719  TIP3      H1            -55.1953266065      -32.6032512356       36.9722904705  TIP3      1319            0.0000000000
     53789      1719  TIP3      H2            -56.5753216228      -33.2365328901       37.1020372861  TIP3      1319            0.0000000000
     53790      1720  TIP3      OH2           -38.1333412880      -36.9178433687       38.6029808585  TIP3      1320            0.0000000000
     53791      1720  TIP3      H1            -37.7804156953      -37.5782181581       37.9892030593  TIP3      1320            0.0000000000
     53792      1720  TIP3      H2            -37.9984861470      -36.0829796003       38.1246689144  TIP3      1320            0.0000000000
     53793      1721  TIP3      OH2           -40.4463248769      -34.9664091071       25.0912320762  TIP3      1321            0.0000000000
     53794      1721  TIP3      H1            -40.2547385503      -35.4138250568       25.9356142944  TIP3      1321            0.0000000000
     53795      1721  TIP3      H2            -41.0545163457      -35.5550808762       24.6192687168  TIP3      1321            0.0000000000
     53796      1722  TIP3      OH2           -54.9292313761      -34.1313487139       29.6109996361  TIP3      1322            0.0000000000
     53797      1722  TIP3      H1            -54.4825574766      -34.9442066743       29.9225278943  TIP3      1322            0.0000000000
     53798      1722  TIP3      H2            -54.4383449649      -33.4234878931       30.0483239860  TIP3      1322            0.0000000000
     53799      1723  TIP3      OH2           -56.5901543690      -31.1545090569       30.7123783661  TIP3      1323            0.0000000000
     53800      1723  TIP3      H1            -56.0922224778      -31.3628809649       29.9005545610  TIP3      1323            0.0000000000
     53801      1723  TIP3      H2            -56.2233467590      -30.2986450398       30.9532753989  TIP3      1323            0.0000000000
     53802      1724  TIP3      OH2           -38.6012965630      -34.8051004017       36.9658712208  TIP3      1324            0.0000000000
     53803      1724  TIP3      H1            -39.5446322571      -34.5420530272       36.9119488241  TIP3      1324            0.0000000000
     53804      1724  TIP3      H2            -38.5290111297      -35.3470229092       36.1630275709  TIP3      1324            0.0000000000
     53805      1725  TIP3      OH2           -38.5619149155      -34.9153707907       21.6427162210  TIP3      1325            0.0000000000
     53806      1725  TIP3      H1            -38.1566705589      -35.6102260103       21.1131336732  TIP3      1325            0.0000000000
     53807      1725  TIP3      H2            -37.8985284681      -34.2065726847       21.6447863171  TIP3      1325            0.0000000000
     53808      1726  TIP3      OH2            56.5409452232      -34.8618637297       24.7512580350  TIP3      1326            0.0000000000
     53809      1726  TIP3      H1             55.5924859817      -34.6940453902       24.6175634942  TIP3      1326            0.0000000000
     53810      1726  TIP3      H2             56.9840537208      -34.3987912919       24.0347279938  TIP3      1326            0.0000000000
     53811      1727  TIP3      OH2           -41.5508362847      -19.9149899911       26.6938981679  TIP3      1327            0.0000000000
     53812      1727  TIP3      H1            -40.8737221922      -20.2419468597       26.0741886724  TIP3      1327            0.0000000000
     53813      1727  TIP3      H2            -41.0218580426      -19.4173160145       27.3353238166  TIP3      1327            0.0000000000
     53814      1728  TIP3      OH2            56.5276969564      -36.1884715547       33.0526508811  TIP3      1328            0.0000000000
     53815      1728  TIP3      H1             55.8553045432      -36.3853336152       33.7342843943  TIP3      1328            0.0000000000
     53816      1728  TIP3      H2             56.0526533879      -35.5272417879       32.5026174483  TIP3      1328            0.0000000000
     53817      1729  TIP3      OH2           -54.1410647323      -22.9601569088       37.2246343151  TIP3      1329            0.0000000000
     53818      1729  TIP3      H1            -54.9753282225      -22.8318690028       36.7798264080  TIP3      1329            0.0000000000
     53819      1729  TIP3      H2            -54.3856439222      -23.0727767127       38.1534721476  TIP3      1329            0.0000000000
     53820      1730  TIP3      OH2           -51.2079431694      -22.0129942021       33.4872270782  TIP3      1330            0.0000000000
     53821      1730  TIP3      H1            -51.6060979037      -21.1725413022       33.2102526683  TIP3      1330            0.0000000000
     53822      1730  TIP3      H2            -50.2883359718      -21.9047304798       33.1869152380  TIP3      1330            0.0000000000
     53823      1731  TIP3      OH2           -46.8894174446      -20.5997349787       36.4082414745  TIP3      1331            0.0000000000
     53824      1731  TIP3      H1            -46.7137810944      -20.9362023054       37.3262809926  TIP3      1331            0.0000000000
     53825      1731  TIP3      H2            -46.0045863156      -20.2843107231       36.1464800871  TIP3      1331            0.0000000000
     53826      1732  TIP3      OH2           -44.5742943690      -19.3175426741       35.6884437001  TIP3      1332            0.0000000000
     53827      1732  TIP3      H1            -43.8573070446      -19.9323159859       35.4591672624  TIP3      1332            0.0000000000
     53828      1732  TIP3      H2            -44.2091690168      -18.9043835579       36.5020211605  TIP3      1332            0.0000000000
     53829      1733  TIP3      OH2           -39.5971971431      -36.7085749245       34.7950868170  TIP3      1333            0.0000000000
     53830      1733  TIP3      H1            -40.4273708867      -36.4066164005       34.3814649256  TIP3      1333            0.0000000000
     53831      1733  TIP3      H2            -39.4005354532      -37.5044348434       34.2501681251  TIP3      1333            0.0000000000
     53832      1734  TIP3      OH2           -53.7900229766      -18.7673836381       33.5177800707  TIP3      1334            0.0000000000
     53833      1734  TIP3      H1            -54.5193483101      -18.2884041445       33.0784203008  TIP3      1334            0.0000000000
     53834      1734  TIP3      H2            -54.1467186713      -18.9818429836       34.3869303083  TIP3      1334            0.0000000000
     53835      1735  TIP3      OH2           -51.2912016238      -19.1769640199       32.5641448956  TIP3      1335            0.0000000000
     53836      1735  TIP3      H1            -52.1883641784      -19.0631612705       32.9642756423  TIP3      1335            0.0000000000
     53837      1735  TIP3      H2            -51.3831287927      -18.5912965305       31.7840093293  TIP3      1335            0.0000000000
     53838      1736  TIP3      OH2           -46.6208431623      -19.2956245651       31.7324201822  TIP3      1336            0.0000000000
     53839      1736  TIP3      H1            -47.0700117749      -18.7166177505       31.0864350402  TIP3      1336            0.0000000000
     53840      1736  TIP3      H2            -46.4576275860      -18.6466619788       32.4644474491  TIP3      1336            0.0000000000
     53841      1737  TIP3      OH2           -44.2978487045      -20.4316647700       32.6942570196  TIP3      1337            0.0000000000
     53842      1737  TIP3      H1            -45.1844167193      -20.1798731347       32.4154859168  TIP3      1337            0.0000000000
     53843      1737  TIP3      H2            -43.8474336848      -19.5618191790       32.6376902172  TIP3      1337            0.0000000000
     53844      1738  TIP3      OH2           -41.7057038180      -18.8561255446       32.9930470708  TIP3      1338            0.0000000000
     53845      1738  TIP3      H1            -41.8370865633      -17.9026585303       32.7583520901  TIP3      1338            0.0000000000
     53846      1738  TIP3      H2            -41.5109425947      -19.2326044319       32.1153856650  TIP3      1338            0.0000000000
     53847      1739  TIP3      OH2           -54.3281643332      -20.0987605721       30.4298334410  TIP3      1339            0.0000000000
     53848      1739  TIP3      H1            -54.3837213960      -20.5612532226       31.2979298997  TIP3      1339            0.0000000000
     53849      1739  TIP3      H2            -53.5288278496      -20.4704743977       30.0261533027  TIP3      1339            0.0000000000
     53850      1740  TIP3      OH2           -52.2439614410      -21.4058664793       29.0828053692  TIP3      1340            0.0000000000
     53851      1740  TIP3      H1            -52.4429068945      -22.3385106456       29.2853987174  TIP3      1340            0.0000000000
     53852      1740  TIP3      H2            -51.4073485794      -21.2668424681       29.5626531055  TIP3      1340            0.0000000000
     53853      1741  TIP3      OH2           -49.6373641920      -20.9301759564       29.9556332686  TIP3      1341            0.0000000000
     53854      1741  TIP3      H1            -49.5186187989      -21.8486796920       29.6666058200  TIP3      1341            0.0000000000
     53855      1741  TIP3      H2            -49.6479073368      -20.9826179611       30.9194893581  TIP3      1341            0.0000000000
     53856      1742  TIP3      OH2           -46.1888429431      -35.2728109021       29.0994184694  TIP3      1342            0.0000000000
     53857      1742  TIP3      H1            -46.8661084799      -35.9176442111       29.3575192517  TIP3      1342            0.0000000000
     53858      1742  TIP3      H2            -45.6316961238      -35.7832929372       28.4976506106  TIP3      1342            0.0000000000
     53859      1743  TIP3      OH2           -41.0543031341      -37.1989954126       29.1979988885  TIP3      1343            0.0000000000
     53860      1743  TIP3      H1            -40.4351343239      -36.6207469362       28.6857763808  TIP3      1343            0.0000000000
     53861      1743  TIP3      H2            -41.9305521724      -36.8548025790       28.9462461849  TIP3      1343            0.0000000000
     53862      1744  TIP3      OH2           -39.3651256340      -36.0144479459       27.5006245704  TIP3      1344            0.0000000000
     53863      1744  TIP3      H1            -38.6999971029      -36.5581937586       27.0136594808  TIP3      1344            0.0000000000
     53864      1744  TIP3      H2            -38.9103381958      -35.1476465527       27.5670048653  TIP3      1344            0.0000000000
     53865      1745  TIP3      OH2           -53.8423099140      -36.6381220730       26.9341859867  TIP3      1345            0.0000000000
     53866      1745  TIP3      H1            -54.6385912430      -36.8794486351       26.4171313012  TIP3      1345            0.0000000000
     53867      1745  TIP3      H2            -53.3373914963      -37.4729843443       26.9025687604  TIP3      1345            0.0000000000
     53868      1746  TIP3      OH2           -54.9958988581      -36.8493864313       22.7388171064  TIP3      1346            0.0000000000
     53869      1746  TIP3      H1            -54.6086070003      -36.2344593191       22.1233884226  TIP3      1346            0.0000000000
     53870      1746  TIP3      H2            -55.6757086750      -36.3310996329       23.2008196833  TIP3      1346            0.0000000000
     53871      1747  TIP3      OH2           -49.3153479220      -36.7257038831       26.7194882345  TIP3      1347            0.0000000000
     53872      1747  TIP3      H1            -48.4177996398      -36.3402405321       26.6923275472  TIP3      1347            0.0000000000
     53873      1747  TIP3      H2            -49.4002804384      -36.9307706488       27.6559285965  TIP3      1347            0.0000000000
     53874      1748  TIP3      OH2           -43.6883589176      -36.6875175002       28.3764696460  TIP3      1348            0.0000000000
     53875      1748  TIP3      H1            -43.6671911049      -36.5984026581       27.4167610412  TIP3      1348            0.0000000000
     53876      1748  TIP3      H2            -44.0153871527      -37.6098875262       28.4981320619  TIP3      1348            0.0000000000
     53877      1749  TIP3      OH2           -55.1138558659      -20.9155988360       23.6596279277  TIP3      1349            0.0000000000
     53878      1749  TIP3      H1            -55.7975319174      -20.9330312422       22.9512328480  TIP3      1349            0.0000000000
     53879      1749  TIP3      H2            -55.1284870390      -19.9728505818       23.8735666617  TIP3      1349            0.0000000000
     53880      1750  TIP3      OH2           -48.1760295094      -34.6734422036       23.5939938141  TIP3      1350            0.0000000000
     53881      1750  TIP3      H1            -47.9460971651      -35.2713792964       24.3186954323  TIP3      1350            0.0000000000
     53882      1750  TIP3      H2            -48.1665199590      -33.8067318151       24.0668078680  TIP3      1350            0.0000000000
     53883      1751  TIP3      OH2           -46.2509429845      -19.7069729301       22.0317534100  TIP3      1351            0.0000000000
     53884      1751  TIP3      H1            -45.3846656658      -19.3291920024       21.8161600055  TIP3      1351            0.0000000000
     53885      1751  TIP3      H2            -46.5229381640      -20.1037383388       21.1731295967  TIP3      1351            0.0000000000
     53886      1752  TIP3      OH2           -39.5546252321      -20.1196115880       24.7288419512  TIP3      1352            0.0000000000
     53887      1752  TIP3      H1            -39.7559617521      -20.8890928256       24.1422402695  TIP3      1352            0.0000000000
     53888      1752  TIP3      H2            -39.6089675452      -19.3723916606       24.0887718658  TIP3      1352            0.0000000000
     53889      1753  TIP3      OH2           -53.9257201211      -36.1053095999       36.4007146677  TIP3      1353            0.0000000000
     53890      1753  TIP3      H1            -54.2865464829      -36.8945547074       36.8508769562  TIP3      1353            0.0000000000
     53891      1753  TIP3      H2            -53.0015489388      -36.1213038036       36.7379558090  TIP3      1353            0.0000000000
     53892      1754  TIP3      OH2           -51.9205070797      -36.7340615698       38.0096967619  TIP3      1354            0.0000000000
     53893      1754  TIP3      H1            -51.0326498659      -37.0633186093       37.7776278886  TIP3      1354            0.0000000000
     53894      1754  TIP3      H2            -52.3266568371      -37.5177475424       38.4303642145  TIP3      1354            0.0000000000
     53895      1755  TIP3      OH2           -43.5234706023      -37.4328169424       38.1642957345  TIP3      1355            0.0000000000
     53896      1755  TIP3      H1            -43.4256658160      -37.8933497481       39.0195977699  TIP3      1355            0.0000000000
     53897      1755  TIP3      H2            -42.6076303727      -37.4479591434       37.8177385797  TIP3      1355            0.0000000000
     53898      1756  TIP3      OH2           -40.3199506086      -21.3923448376       36.8524161180  TIP3      1356            0.0000000000
     53899      1756  TIP3      H1            -41.1226078259      -21.5433677517       36.3096428207  TIP3      1356            0.0000000000
     53900      1756  TIP3      H2            -40.4199656711      -20.4365109493       37.0486143369  TIP3      1356            0.0000000000
     53901      1757  TIP3      OH2           -25.8973883647      -27.5034018495       26.8520802969  TIP3      1357            0.0000000000
     53902      1757  TIP3      H1            -25.8600236638      -26.5314802353       26.7497439580  TIP3      1357            0.0000000000
     53903      1757  TIP3      H2            -26.5803214381      -27.7518470848       26.2138720599  TIP3      1357            0.0000000000
     53904      1758  TIP3      OH2           -27.0079603664      -28.2340039863       30.3050838667  TIP3      1358            0.0000000000
     53905      1758  TIP3      H1            -27.0362468677      -28.8923166517       31.0073710815  TIP3      1358            0.0000000000
     53906      1758  TIP3      H2            -27.3337273215      -28.7235767223       29.5319575242  TIP3      1358            0.0000000000
     53907      1759  TIP3      OH2           -34.6500316825      -28.5994567923       31.8660168330  TIP3      1359            0.0000000000
     53908      1759  TIP3      H1            -34.5786321068      -29.2554715122       32.5919959295  TIP3      1359            0.0000000000
     53909      1759  TIP3      H2            -33.9188292258      -28.0009720883       32.0750862419  TIP3      1359            0.0000000000
     53910      1760  TIP3      OH2           -23.3020919307      -25.3011414451       28.5831498424  TIP3      1360            0.0000000000
     53911      1760  TIP3      H1            -23.7391660841      -26.0150583510       29.0595568773  TIP3      1360            0.0000000000
     53912      1760  TIP3      H2            -23.3066943826      -24.5812705212       29.2430842740  TIP3      1360            0.0000000000
     53913      1761  TIP3      OH2           -33.7234119682      -24.1458786846       30.4032750821  TIP3      1361            0.0000000000
     53914      1761  TIP3      H1            -34.0623254305      -24.9872397652       30.0445254746  TIP3      1361            0.0000000000
     53915      1761  TIP3      H2            -32.7681356331      -24.3358045555       30.4437901723  TIP3      1361            0.0000000000
     53916      1762  TIP3      OH2           -37.0803541254      -30.5424845917       25.8110564940  TIP3      1362            0.0000000000
     53917      1762  TIP3      H1            -37.5456093469      -29.6723275632       25.7838701832  TIP3      1362            0.0000000000
     53918      1762  TIP3      H2            -37.6649670813      -31.0931376422       25.2891774275  TIP3      1362            0.0000000000
     53919      1763  TIP3      OH2           -36.3975124816      -28.3473866929       27.9473649500  TIP3      1363            0.0000000000
     53920      1763  TIP3      H1            -36.1478943660      -29.1405578294       28.4545293003  TIP3      1363            0.0000000000
     53921      1763  TIP3      H2            -35.6520253857      -28.2504278070       27.3336328663  TIP3      1363            0.0000000000
     53922      1764  TIP3      OH2           -26.2001371612      -20.1607287835       28.8143022996  TIP3      1364            0.0000000000
     53923      1764  TIP3      H1            -25.5572217525      -20.8645776157       28.5397120927  TIP3      1364            0.0000000000
     53924      1764  TIP3      H2            -26.3959779813      -20.4381538087       29.7082324848  TIP3      1364            0.0000000000
     53925      1765  TIP3      OH2           -28.6322654508      -25.8173469298       30.7277312223  TIP3      1365            0.0000000000
     53926      1765  TIP3      H1            -28.2968461595      -26.4849739009       30.1076739074  TIP3      1365            0.0000000000
     53927      1765  TIP3      H2            -27.8598458713      -25.6885096166       31.3047786536  TIP3      1365            0.0000000000
     53928      1766  TIP3      OH2           -19.9899833038      -34.2092223829       31.5344402997  TIP3      1366            0.0000000000
     53929      1766  TIP3      H1            -19.8797265923      -33.5884977953       32.2868373871  TIP3      1366            0.0000000000
     53930      1766  TIP3      H2            -19.4969838530      -33.7479258672       30.8389174989  TIP3      1366            0.0000000000
     53931      1767  TIP3      OH2           -25.4707923918      -31.3842268856       31.0629246965  TIP3      1367            0.0000000000
     53932      1767  TIP3      H1            -25.3209857147      -32.3501779550       31.0550208534  TIP3      1367            0.0000000000
     53933      1767  TIP3      H2            -25.5750425932      -31.2217851772       30.1022805265  TIP3      1367            0.0000000000
     53934      1768  TIP3      OH2           -32.3301087837      -33.3015566384       28.3109888742  TIP3      1368            0.0000000000
     53935      1768  TIP3      H1            -32.2645410850      -32.4475372428       27.8525350814  TIP3      1368            0.0000000000
     53936      1768  TIP3      H2            -32.7682068648      -33.8639443689       27.6365408384  TIP3      1368            0.0000000000
     53937      1769  TIP3      OH2           -24.6133237893      -33.1929484319       26.6836265681  TIP3      1369            0.0000000000
     53938      1769  TIP3      H1            -23.9430743376      -33.5125724146       27.3340804132  TIP3      1369            0.0000000000
     53939      1769  TIP3      H2            -24.0686336973      -32.6474485904       26.0964390540  TIP3      1369            0.0000000000
     53940      1770  TIP3      OH2           -35.7179734770      -30.8898544226       29.0569615386  TIP3      1370            0.0000000000
     53941      1770  TIP3      H1            -35.0434096816      -31.4532543686       29.4910338717  TIP3      1370            0.0000000000
     53942      1770  TIP3      H2            -35.6478985473      -31.1900927645       28.1404526292  TIP3      1370            0.0000000000
     53943      1771  TIP3      OH2           -30.5500058285      -29.3348880210       28.3117317415  TIP3      1371            0.0000000000
     53944      1771  TIP3      H1            -29.9124469664      -29.9032091099       28.7732886076  TIP3      1371            0.0000000000
     53945      1771  TIP3      H2            -31.1110681263      -30.0029487385       27.8659344906  TIP3      1371            0.0000000000
     53946      1772  TIP3      OH2           -19.5632745658      -32.7524018053       33.7815216816  TIP3      1372            0.0000000000
     53947      1772  TIP3      H1            -20.2330472062      -32.0425290631       33.6923240215  TIP3      1372            0.0000000000
     53948      1772  TIP3      H2            -19.5470771734      -32.9033791812       34.7347703461  TIP3      1372            0.0000000000
     53949      1773  TIP3      OH2           -33.4724177223      -34.3982859485       32.3601308938  TIP3      1373            0.0000000000
     53950      1773  TIP3      H1            -33.7308963934      -33.8403426709       31.6015426014  TIP3      1373            0.0000000000
     53951      1773  TIP3      H2            -34.1648940932      -34.1598670133       33.0263823724  TIP3      1373            0.0000000000
     53952      1774  TIP3      OH2           -26.1213978821      -24.8992672509       25.9049000416  TIP3      1374            0.0000000000
     53953      1774  TIP3      H1            -26.4477322617      -25.1985202865       25.0594882877  TIP3      1374            0.0000000000
     53954      1774  TIP3      H2            -26.4664128639      -23.9806545638       25.9589429094  TIP3      1374            0.0000000000
     53955      1775  TIP3      OH2           -30.9276996048      -26.7474883897       32.6382305596  TIP3      1375            0.0000000000
     53956      1775  TIP3      H1            -31.6609433134      -26.1072735275       32.7815237540  TIP3      1375            0.0000000000
     53957      1775  TIP3      H2            -30.2259290118      -26.1530017778       32.3276600774  TIP3      1375            0.0000000000
     53958      1776  TIP3      OH2           -22.8331903878      -33.8732933040       28.6744663577  TIP3      1376            0.0000000000
     53959      1776  TIP3      H1            -23.0356014545      -34.6464836577       29.2099118706  TIP3      1376            0.0000000000
     53960      1776  TIP3      H2            -22.1577649727      -33.4205060497       29.2054723738  TIP3      1376            0.0000000000
     53961      1777  TIP3      OH2           -33.9142133051      -32.5164296771       30.3476367755  TIP3      1377            0.0000000000
     53962      1777  TIP3      H1            -33.2714514892      -31.8552020750       30.6925156800  TIP3      1377            0.0000000000
     53963      1777  TIP3      H2            -33.3779629531      -32.9652668083       29.6511653311  TIP3      1377            0.0000000000
     53964      1778  TIP3      OH2           -32.5017839881      -24.7620216172       33.4243753063  TIP3      1378            0.0000000000
     53965      1778  TIP3      H1            -32.5364340528      -23.8529638297       33.0677800154  TIP3      1378            0.0000000000
     53966      1778  TIP3      H2            -33.3866979091      -24.8280511223       33.8671322718  TIP3      1378            0.0000000000
     53967      1779  TIP3      OH2           -36.4169686947      -25.0948281632       24.2256360440  TIP3      1379            0.0000000000
     53968      1779  TIP3      H1            -36.6915908699      -24.8480727235       23.3234245098  TIP3      1379            0.0000000000
     53969      1779  TIP3      H2            -36.3521571499      -24.2431177036       24.6939355860  TIP3      1379            0.0000000000
     53970      1780  TIP3      OH2           -22.7812954082      -23.4699394102       30.9493211405  TIP3      1380            0.0000000000
     53971      1780  TIP3      H1            -23.7469892963      -23.3777767645       31.0916383801  TIP3      1380            0.0000000000
     53972      1780  TIP3      H2            -22.5146536874      -22.5430564430       30.7843421611  TIP3      1380            0.0000000000
     53973      1781  TIP3      OH2           -22.4773149775      -35.1746300199       32.3561718981  TIP3      1381            0.0000000000
     53974      1781  TIP3      H1            -23.2121223907      -34.5523034157       32.2962428332  TIP3      1381            0.0000000000
     53975      1781  TIP3      H2            -21.7807402479      -34.7530617270       31.8231671415  TIP3      1381            0.0000000000
     53976      1782  TIP3      OH2           -29.4816621103      -37.0696352368       29.8138186469  TIP3      1382            0.0000000000
     53977      1782  TIP3      H1            -29.6106233349      -38.0362847461       29.7576142391  TIP3      1382            0.0000000000
     53978      1782  TIP3      H2            -30.3582396860      -36.7540288749       30.1065217643  TIP3      1382            0.0000000000
     53979      1783  TIP3      OH2           -24.5326318720      -21.6801807074       27.5763599426  TIP3      1383            0.0000000000
     53980      1783  TIP3      H1            -24.0992808643      -22.3905655089       27.0646963447  TIP3      1383            0.0000000000
     53981      1783  TIP3      H2            -24.1759793813      -20.8782822806       27.1445640117  TIP3      1383            0.0000000000
     53982      1784  TIP3      OH2           -23.3476574487      -23.7563465709       26.0700091403  TIP3      1384            0.0000000000
     53983      1784  TIP3      H1            -23.6195847196      -24.4630082052       25.4628268471  TIP3      1384            0.0000000000
     53984      1784  TIP3      H2            -23.2957042210      -24.2345564362       26.9189106117  TIP3      1384            0.0000000000
     53985      1785  TIP3      OH2           -21.6941748173      -25.1873422267       34.5613769435  TIP3      1385            0.0000000000
     53986      1785  TIP3      H1            -21.5494497405      -25.8086010825       33.8147513503  TIP3      1385            0.0000000000
     53987      1785  TIP3      H2            -21.5139439104      -24.3216733269       34.1636202442  TIP3      1385            0.0000000000
     53988      1786  TIP3      OH2           -27.2036384673      -28.2534082178       24.3276447806  TIP3      1386            0.0000000000
     53989      1786  TIP3      H1            -27.9247833011      -27.7016381160       23.9752007516  TIP3      1386            0.0000000000
     53990      1786  TIP3      H2            -26.5091500561      -28.1972577103       23.6528939335  TIP3      1386            0.0000000000
     53991      1787  TIP3      OH2           -19.8309234630      -28.8694150219       32.6190976650  TIP3      1387            0.0000000000
     53992      1787  TIP3      H1            -20.4936574419      -28.1527753995       32.6815355972  TIP3      1387            0.0000000000
     53993      1787  TIP3      H2            -19.3618251882      -28.6364918341       31.7982095300  TIP3      1387            0.0000000000
     53994      1788  TIP3      OH2           -23.7883223672      -28.0440355374       25.2428132896  TIP3      1388            0.0000000000
     53995      1788  TIP3      H1            -24.5236901538      -27.8094118907       25.8609869299  TIP3      1388            0.0000000000
     53996      1788  TIP3      H2            -23.3310958984      -28.7378261008       25.7540136997  TIP3      1388            0.0000000000
     53997      1789  TIP3      OH2           -23.8664902604      -29.8882153694       34.3524152876  TIP3      1389            0.0000000000
     53998      1789  TIP3      H1            -23.8322678525      -29.0863848825       34.9058413379  TIP3      1389            0.0000000000
     53999      1789  TIP3      H2            -24.4970204362      -29.5829797960       33.6636999522  TIP3      1389            0.0000000000
     54000      1790  TIP3      OH2           -32.1571429767      -27.3873633532       27.1645032445  TIP3      1390            0.0000000000
     54001      1790  TIP3      H1            -32.4827902350      -27.7840799039       26.3214977005  TIP3      1390            0.0000000000
     54002      1790  TIP3      H2            -31.5542763219      -28.0899889691       27.5007395662  TIP3      1390            0.0000000000
     54003      1791  TIP3      OH2           -30.8178172683      -23.9812769576       29.8434765335  TIP3      1391            0.0000000000
     54004      1791  TIP3      H1            -30.8674651932      -24.5522964589       29.0663263515  TIP3      1391            0.0000000000
     54005      1791  TIP3      H2            -30.0540119252      -24.3599694501       30.3160477398  TIP3      1391            0.0000000000
     54006      1792  TIP3      OH2           -31.8105557692      -28.6488476917       30.8023908069  TIP3      1392            0.0000000000
     54007      1792  TIP3      H1            -31.2352641284      -28.5223796512       30.0246020508  TIP3      1392            0.0000000000
     54008      1792  TIP3      H2            -31.4583992554      -27.9901475985       31.4334314226  TIP3      1392            0.0000000000
     54009      1793  TIP3      OH2           -25.4536266491      -23.0995334510       31.5134656484  TIP3      1393            0.0000000000
     54010      1793  TIP3      H1            -25.7163298876      -22.4650818413       32.1816633799  TIP3      1393            0.0000000000
     54011      1793  TIP3      H2            -25.6801400321      -23.9587232928       31.9540678890  TIP3      1393            0.0000000000
     54012      1794  TIP3      OH2           -30.8861185347      -24.2356560206       35.5148084872  TIP3      1394            0.0000000000
     54013      1794  TIP3      H1            -31.2492566479      -23.4599216114       35.9837152967  TIP3      1394            0.0000000000
     54014      1794  TIP3      H2            -31.5642818617      -24.4044271531       34.8153017201  TIP3      1394            0.0000000000
     54015      1795  TIP3      OH2           -24.9239405058      -28.8497617780       22.9280361999  TIP3      1395            0.0000000000
     54016      1795  TIP3      H1            -24.3480383348      -28.7156478677       23.7256980318  TIP3      1395            0.0000000000
     54017      1795  TIP3      H2            -24.4798004679      -28.3962568947       22.2164673772  TIP3      1395            0.0000000000
     54018      1796  TIP3      OH2           -33.9499969515      -28.0679275598       34.7156047137  TIP3      1396            0.0000000000
     54019      1796  TIP3      H1            -33.9203393101      -27.3836696895       35.4183507995  TIP3      1396            0.0000000000
     54020      1796  TIP3      H2            -34.8723385658      -27.9538938888       34.4312841849  TIP3      1396            0.0000000000
     54021      1797  TIP3      OH2           -27.1943352399      -22.1426400268       26.3973514102  TIP3      1397            0.0000000000
     54022      1797  TIP3      H1            -26.7373457606      -21.8342818750       27.1858432702  TIP3      1397            0.0000000000
     54023      1797  TIP3      H2            -27.7570479658      -21.3964660999       26.1594904225  TIP3      1397            0.0000000000
     54024      1798  TIP3      OH2           -32.6479609381      -22.1706066266       36.2739182953  TIP3      1398            0.0000000000
     54025      1798  TIP3      H1            -32.6761895785      -22.2981601103       35.3110697847  TIP3      1398            0.0000000000
     54026      1798  TIP3      H2            -33.5861551019      -22.2953309365       36.5233974647  TIP3      1398            0.0000000000
     54027      1799  TIP3      OH2           -21.1937070995      -37.1303775199       22.7834243955  TIP3      1399            0.0000000000
     54028      1799  TIP3      H1            -22.1295668290      -36.9934890070       23.0586928051  TIP3      1399            0.0000000000
     54029      1799  TIP3      H2            -20.9834789005      -36.2780810447       22.3776358513  TIP3      1399            0.0000000000
     54030      1800  TIP3      OH2           -33.1720956252      -28.3466716128       24.7674822558  TIP3      1400            0.0000000000
     54031      1800  TIP3      H1            -33.4743098758      -27.5765376641       24.2411341424  TIP3      1400            0.0000000000
     54032      1800  TIP3      H2            -33.8445224661      -29.0045275722       24.5726434967  TIP3      1400            0.0000000000
     54033      1801  TIP3      OH2           -20.0357771992      -22.7679049469       21.1910637369  TIP3      1401            0.0000000000
     54034      1801  TIP3      H1            -19.9661696162      -21.8184539781       21.3040286379  TIP3      1401            0.0000000000
     54035      1801  TIP3      H2            -19.1260034661      -23.0615458121       21.0813350329  TIP3      1401            0.0000000000
     54036      1802  TIP3      OH2           -37.0814932669      -25.9529652464       33.6123679276  TIP3      1402            0.0000000000
     54037      1802  TIP3      H1            -37.5640304398      -26.0190661381       32.7681394037  TIP3      1402            0.0000000000
     54038      1802  TIP3      H2            -37.0539865224      -26.8927856826       33.8708975051  TIP3      1402            0.0000000000
     54039      1803  TIP3      OH2           -37.3309357127      -23.2077934874       30.4483471258  TIP3      1403            0.0000000000
     54040      1803  TIP3      H1            -36.3733769870      -23.3316038613       30.4283932412  TIP3      1403            0.0000000000
     54041      1803  TIP3      H2            -37.4265143419      -22.4022871881       30.9743053048  TIP3      1403            0.0000000000
     54042      1804  TIP3      OH2           -19.1026009217      -22.5145913925       36.1123017700  TIP3      1404            0.0000000000
     54043      1804  TIP3      H1            -19.1957016695      -23.4782550685       36.1067592975  TIP3      1404            0.0000000000
     54044      1804  TIP3      H2            -19.9600426613      -22.2692644974       36.5386033281  TIP3      1404            0.0000000000
     54045      1805  TIP3      OH2           -28.1393636190      -22.9631730321       34.9956836556  TIP3      1405            0.0000000000
     54046      1805  TIP3      H1            -28.0673914121      -22.1201509450       35.5011287068  TIP3      1405            0.0000000000
     54047      1805  TIP3      H2            -29.0165008805      -23.3005776251       35.2556101166  TIP3      1405            0.0000000000
     54048      1806  TIP3      OH2           -27.7262923426      -19.2104914860       24.7984939478  TIP3      1406            0.0000000000
     54049      1806  TIP3      H1            -27.8065751306      -19.2831883526       23.8436376616  TIP3      1406            0.0000000000
     54050      1806  TIP3      H2            -27.6871429793      -18.2423742158       24.9418283361  TIP3      1406            0.0000000000
     54051      1807  TIP3      OH2           -34.0672528783      -20.3567128075       26.6070086666  TIP3      1407            0.0000000000
     54052      1807  TIP3      H1            -33.9260700905      -20.7578250714       27.4884258343  TIP3      1407            0.0000000000
     54053      1807  TIP3      H2            -34.9196028970      -20.7515041849       26.3584587787  TIP3      1407            0.0000000000
     54054      1808  TIP3      OH2           -24.6375868560      -20.0459345938       21.7997367768  TIP3      1408            0.0000000000
     54055      1808  TIP3      H1            -24.2492698542      -20.7778389704       21.3293865020  TIP3      1408            0.0000000000
     54056      1808  TIP3      H2            -24.6202516719      -20.2987925614       22.7289939507  TIP3      1408            0.0000000000
     54057      1809  TIP3      OH2           -24.9669713681      -20.0955303743       24.5623426118  TIP3      1409            0.0000000000
     54058      1809  TIP3      H1            -25.9208707901      -20.0027051512       24.7406874332  TIP3      1409            0.0000000000
     54059      1809  TIP3      H2            -24.6967034250      -20.8163996926       25.1420951249  TIP3      1409            0.0000000000
     54060      1810  TIP3      OH2           -21.9646558152      -31.0284012893       36.6083105898  TIP3      1410            0.0000000000
     54061      1810  TIP3      H1            -22.3959100863      -30.5590722631       35.8801315695  TIP3      1410            0.0000000000
     54062      1810  TIP3      H2            -21.9396196855      -31.9451560386       36.2991331777  TIP3      1410            0.0000000000
     54063      1811  TIP3      OH2           -34.8203506613      -24.6343398221       34.6042006465  TIP3      1411            0.0000000000
     54064      1811  TIP3      H1            -34.5993034253      -25.0089583257       35.4818167101  TIP3      1411            0.0000000000
     54065      1811  TIP3      H2            -35.6884319921      -25.0314790958       34.3931419687  TIP3      1411            0.0000000000
     54066      1812  TIP3      OH2           -32.1639962272      -36.1778949583       30.5857469715  TIP3      1412            0.0000000000
     54067      1812  TIP3      H1            -33.0635938955      -36.2699871491       30.1948405924  TIP3      1412            0.0000000000
     54068      1812  TIP3      H2            -32.2472550933      -35.3225143133       31.0343874538  TIP3      1412            0.0000000000
     54069      1813  TIP3      OH2           -27.5113391188      -36.4571929402       33.9621828005  TIP3      1413            0.0000000000
     54070      1813  TIP3      H1            -27.1164147486      -36.9011706219       34.7233287754  TIP3      1413            0.0000000000
     54071      1813  TIP3      H2            -28.4806424967      -36.6332383139       34.0804802916  TIP3      1413            0.0000000000
     54072      1814  TIP3      OH2           -24.2057609539      -32.6940253137       34.8297983773  TIP3      1414            0.0000000000
     54073      1814  TIP3      H1            -24.7447139906      -32.8359920649       35.6306593123  TIP3      1414            0.0000000000
     54074      1814  TIP3      H2            -24.3632197382      -31.7645147949       34.5786164213  TIP3      1414            0.0000000000
     54075      1815  TIP3      OH2           -27.8567629456      -33.9470503768       21.2786013156  TIP3      1415            0.0000000000
     54076      1815  TIP3      H1            -28.1566989043      -33.9589890028       22.1947957094  TIP3      1415            0.0000000000
     54077      1815  TIP3      H2            -28.1363529145      -34.8083741500       20.9467073625  TIP3      1415            0.0000000000
     54078      1816  TIP3      OH2           -32.0604553464      -31.2094667270       31.7615470172  TIP3      1416            0.0000000000
     54079      1816  TIP3      H1            -32.7808010114      -31.2348303649       32.4175775549  TIP3      1416            0.0000000000
     54080      1816  TIP3      H2            -32.0847482740      -30.2778074514       31.4407837261  TIP3      1416            0.0000000000
     54081      1817  TIP3      OH2           -32.0975717322      -31.0188716195       26.6533264615  TIP3      1417            0.0000000000
     54082      1817  TIP3      H1            -33.0179718572      -31.3322401309       26.5387140575  TIP3      1417            0.0000000000
     54083      1817  TIP3      H2            -31.6793913250      -31.3699527023       25.8437938993  TIP3      1417            0.0000000000
     54084      1818  TIP3      OH2           -26.5745976866      -30.5841249267       25.4377998353  TIP3      1418            0.0000000000
     54085      1818  TIP3      H1            -26.9792431570      -29.7515487375       25.1169386220  TIP3      1418            0.0000000000
     54086      1818  TIP3      H2            -25.8609079068      -30.7209553691       24.7945802942  TIP3      1418            0.0000000000
     54087      1819  TIP3      OH2           -27.5109162355      -30.3901569595       36.8904452159  TIP3      1419            0.0000000000
     54088      1819  TIP3      H1            -28.0033680386      -31.1373949577       37.2580430586  TIP3      1419            0.0000000000
     54089      1819  TIP3      H2            -26.6536685075      -30.4877092742       37.3691389255  TIP3      1419            0.0000000000
     54090      1820  TIP3      OH2           -25.5525000064      -31.1045054537       28.2724651676  TIP3      1420            0.0000000000
     54091      1820  TIP3      H1            -25.7833152397      -30.5254075562       27.5252008544  TIP3      1420            0.0000000000
     54092      1820  TIP3      H2            -25.4059679540      -31.9522848379       27.8042967659  TIP3      1420            0.0000000000
     54093      1821  TIP3      OH2           -34.3672678332      -30.9118704203       33.5369878578  TIP3      1421            0.0000000000
     54094      1821  TIP3      H1            -34.3920561270      -30.4995428634       34.4164208707  TIP3      1421            0.0000000000
     54095      1821  TIP3      H2            -34.8646254284      -31.7334889263       33.6726598747  TIP3      1421            0.0000000000
     54096      1822  TIP3      OH2           -37.7610715715      -33.7879066168       27.4383481897  TIP3      1422            0.0000000000
     54097      1822  TIP3      H1            -37.1023725948      -33.8312978991       28.1623563259  TIP3      1422            0.0000000000
     54098      1822  TIP3      H2            -37.3028061428      -34.2046375530       26.6850828515  TIP3      1422            0.0000000000
     54099      1823  TIP3      OH2           -26.3236105753      -29.4853205132       32.8894869834  TIP3      1423            0.0000000000
     54100      1823  TIP3      H1            -25.9650772476      -30.1445404782       32.2614247888  TIP3      1423            0.0000000000
     54101      1823  TIP3      H2            -26.7593311441      -30.0317993183       33.5563079916  TIP3      1423            0.0000000000
     54102      1824  TIP3      OH2           -29.5252947894      -33.5460650731       27.6835777478  TIP3      1424            0.0000000000
     54103      1824  TIP3      H1            -30.4581666926      -33.5098702909       27.9860800480  TIP3      1424            0.0000000000
     54104      1824  TIP3      H2            -29.0307074407      -33.6456627170       28.5109013197  TIP3      1424            0.0000000000
     54105      1825  TIP3      OH2           -34.7074777807      -31.9454800924       26.5277439603  TIP3      1425            0.0000000000
     54106      1825  TIP3      H1            -35.6072039758      -31.8314420987       26.1708787765  TIP3      1425            0.0000000000
     54107      1825  TIP3      H2            -34.4138753684      -32.7935436428       26.1652783891  TIP3      1425            0.0000000000
     54108      1826  TIP3      OH2           -31.0753772089      -31.9214736237       24.1763659192  TIP3      1426            0.0000000000
     54109      1826  TIP3      H1            -30.1178592378      -31.8159397793       24.3476495856  TIP3      1426            0.0000000000
     54110      1826  TIP3      H2            -31.2635617107      -31.2451172753       23.5152205748  TIP3      1426            0.0000000000
     54111      1827  TIP3      OH2           -25.1150805538      -34.3093489382       30.9434805108  TIP3      1427            0.0000000000
     54112      1827  TIP3      H1            -25.8111656875      -34.2112961870       31.6265090361  TIP3      1427            0.0000000000
     54113      1827  TIP3      H2            -25.6207566760      -34.5038253370       30.1426256928  TIP3      1427            0.0000000000
     54114      1828  TIP3      OH2           -21.8845270165      -18.6529297475       37.2583293660  TIP3      1428            0.0000000000
     54115      1828  TIP3      H1            -21.6360726900      -18.2431532644       36.4065717561  TIP3      1428            0.0000000000
     54116      1828  TIP3      H2            -21.1809646395      -18.3158085192       37.8423406180  TIP3      1428            0.0000000000
     54117      1829  TIP3      OH2           -34.2280000122      -26.1839594482       36.8237252681  TIP3      1429            0.0000000000
     54118      1829  TIP3      H1            -33.5156059696      -25.9259829683       37.4312041519  TIP3      1429            0.0000000000
     54119      1829  TIP3      H2            -35.0234155439      -26.0181927134       37.3812802045  TIP3      1429            0.0000000000
     54120      1830  TIP3      OH2           -28.2281199044      -30.7679171627       29.5803578173  TIP3      1430            0.0000000000
     54121      1830  TIP3      H1            -27.6458321969      -31.3153773196       29.0380565221  TIP3      1430            0.0000000000
     54122      1830  TIP3      H2            -28.3688228877      -31.3058056294       30.3699961931  TIP3      1430            0.0000000000
     54123      1831  TIP3      OH2           -33.2241760002      -34.6169562962       26.0060494116  TIP3      1431            0.0000000000
     54124      1831  TIP3      H1            -33.5258681750      -35.5445831612       25.9714593367  TIP3      1431            0.0000000000
     54125      1831  TIP3      H2            -32.4338546508      -34.6577442187       25.4505181034  TIP3      1431            0.0000000000
     54126      1832  TIP3      OH2           -29.5940304888      -32.4187124237       32.0009742254  TIP3      1432            0.0000000000
     54127      1832  TIP3      H1            -30.4305534163      -31.9224885337       32.0871183003  TIP3      1432            0.0000000000
     54128      1832  TIP3      H2            -29.0453320333      -32.0945499690       32.7333052459  TIP3      1432            0.0000000000
     54129      1833  TIP3      OH2           -29.0158902215      -26.2092356972       23.6666347786  TIP3      1433            0.0000000000
     54130      1833  TIP3      H1            -29.8067976629      -26.6736828562       23.3710068845  TIP3      1433            0.0000000000
     54131      1833  TIP3      H2            -29.1904959860      -26.1078765201       24.6262885664  TIP3      1433            0.0000000000
     54132      1834  TIP3      OH2           -21.8637867012      -27.0368263221       32.4879991536  TIP3      1434            0.0000000000
     54133      1834  TIP3      H1            -21.2589685575      -26.5625750478       31.8934914147  TIP3      1434            0.0000000000
     54134      1834  TIP3      H2            -22.7122418455      -26.9375838805       32.0061784043  TIP3      1434            0.0000000000
     54135      1835  TIP3      OH2           -25.1617051317      -33.3823637442       21.8801801371  TIP3      1435            0.0000000000
     54136      1835  TIP3      H1            -26.1014167830      -33.2431482906       21.7073431255  TIP3      1435            0.0000000000
     54137      1835  TIP3      H2            -24.8491300759      -32.5161458937       22.1841471146  TIP3      1435            0.0000000000
     54138      1836  TIP3      OH2           -27.5236263564      -25.9781924513       34.9198029193  TIP3      1436            0.0000000000
     54139      1836  TIP3      H1            -27.8631522037      -26.3639399155       35.7297738813  TIP3      1436            0.0000000000
     54140      1836  TIP3      H2            -27.7405742158      -25.0434536768       35.0058881395  TIP3      1436            0.0000000000
     54141      1837  TIP3      OH2           -24.4376551218      -31.4853495879       23.5566699840  TIP3      1437            0.0000000000
     54142      1837  TIP3      H1            -23.5256701766      -31.6303092173       23.8751253555  TIP3      1437            0.0000000000
     54143      1837  TIP3      H2            -24.3726099358      -30.6929018494       23.0026783137  TIP3      1437            0.0000000000
     54144      1838  TIP3      OH2           -33.9161466466      -26.8505148481       29.4721602691  TIP3      1438            0.0000000000
     54145      1838  TIP3      H1            -33.1868962761      -26.8932946509       28.8243695283  TIP3      1438            0.0000000000
     54146      1838  TIP3      H2            -33.8386962784      -27.7009618058       29.9369855578  TIP3      1438            0.0000000000
     54147      1839  TIP3      OH2           -36.9155777160      -28.4081402788       34.7569810532  TIP3      1439            0.0000000000
     54148      1839  TIP3      H1            -36.7036294749      -28.8478901012       35.6038668286  TIP3      1439            0.0000000000
     54149      1839  TIP3      H2            -37.5237894454      -29.0362825689       34.3309815384  TIP3      1439            0.0000000000
     54150      1840  TIP3      OH2           -29.9065118481      -28.9523354454       36.9698595285  TIP3      1440            0.0000000000
     54151      1840  TIP3      H1            -30.1969224145      -29.0441930702       36.0546744353  TIP3      1440            0.0000000000
     54152      1840  TIP3      H2            -28.9386605700      -29.1026651917       36.9546563475  TIP3      1440            0.0000000000
     54153      1841  TIP3      OH2           -25.2430558683      -23.5313057062       34.8600355991  TIP3      1441            0.0000000000
     54154      1841  TIP3      H1            -26.1667459936      -23.3404702906       34.6235565647  TIP3      1441            0.0000000000
     54155      1841  TIP3      H2            -25.2480946496      -23.2512534267       35.7974973785  TIP3      1441            0.0000000000
     54156      1842  TIP3      OH2           -19.5657414443      -31.3017417630       23.3393370140  TIP3      1442            0.0000000000
     54157      1842  TIP3      H1            -20.0947942573      -31.6846746527       22.6042258176  TIP3      1442            0.0000000000
     54158      1842  TIP3      H2            -19.4545399064      -30.3923591676       23.0088534989  TIP3      1442            0.0000000000
     54159      1843  TIP3      OH2           -19.5641233378      -25.4794928815       36.0884461198  TIP3      1443            0.0000000000
     54160      1843  TIP3      H1            -20.4454034957      -25.2495646995       35.7029190803  TIP3      1443            0.0000000000
     54161      1843  TIP3      H2            -18.9879875329      -25.5058572040       35.3000206863  TIP3      1443            0.0000000000
     54162      1844  TIP3      OH2           -21.2354042193      -22.4918011114       23.6908580670  TIP3      1444            0.0000000000
     54163      1844  TIP3      H1            -21.6183436700      -23.3196296297       24.0116387913  TIP3      1444            0.0000000000
     54164      1844  TIP3      H2            -20.9666408255      -22.7002325889       22.7758125715  TIP3      1444            0.0000000000
     54165      1845  TIP3      OH2           -24.0659657805      -27.6838235883       30.7480085698  TIP3      1445            0.0000000000
     54166      1845  TIP3      H1            -25.0083413385      -27.9171592118       30.6789659974  TIP3      1445            0.0000000000
     54167      1845  TIP3      H2            -23.6306354545      -28.4685736307       30.3695630086  TIP3      1445            0.0000000000
     54168      1846  TIP3      OH2           -31.5440250999      -23.3651947207       26.8772893817  TIP3      1446            0.0000000000
     54169      1846  TIP3      H1            -31.0181090733      -22.5781906727       26.6523056000  TIP3      1446            0.0000000000
     54170      1846  TIP3      H2            -32.4206376977      -23.1297497857       26.5473592927  TIP3      1446            0.0000000000
     54171      1847  TIP3      OH2           -30.1052699897      -25.7064917768       26.4000538316  TIP3      1447            0.0000000000
     54172      1847  TIP3      H1            -30.3835392975      -24.7742286431       26.4836935203  TIP3      1447            0.0000000000
     54173      1847  TIP3      H2            -30.8539770199      -26.1666461817       26.8332148137  TIP3      1447            0.0000000000
     54174      1848  TIP3      OH2           -29.6414184472      -21.5366077237       32.7661088683  TIP3      1448            0.0000000000
     54175      1848  TIP3      H1            -29.2249869451      -20.6975075790       32.5124851521  TIP3      1448            0.0000000000
     54176      1848  TIP3      H2            -29.0564846306      -21.8452198651       33.4834655694  TIP3      1448            0.0000000000
     54177      1849  TIP3      OH2           -31.4189814418      -20.6922685492       25.9600941733  TIP3      1449            0.0000000000
     54178      1849  TIP3      H1            -32.3912729106      -20.5665476579       26.0383485375  TIP3      1449            0.0000000000
     54179      1849  TIP3      H2            -31.0798839665      -19.8527139478       26.3182452017  TIP3      1449            0.0000000000
     54180      1850  TIP3      OH2           -26.0859649563      -25.4728057658       32.4332787000  TIP3      1450            0.0000000000
     54181      1850  TIP3      H1            -26.4782516333      -25.6877297308       33.2996882242  TIP3      1450            0.0000000000
     54182      1850  TIP3      H2            -25.4788417157      -26.2072446688       32.2596571807  TIP3      1450            0.0000000000
     54183      1851  TIP3      OH2           -23.3643639960      -20.9153292147       34.9293155668  TIP3      1451            0.0000000000
     54184      1851  TIP3      H1            -24.0076150923      -21.4427094167       34.4167702060  TIP3      1451            0.0000000000
     54185      1851  TIP3      H2            -23.1281204212      -20.2298250937       34.2690178933  TIP3      1451            0.0000000000
     54186      1852  TIP3      OH2           -35.2635335458      -33.6681282287       34.3098107370  TIP3      1452            0.0000000000
     54187      1852  TIP3      H1            -36.1739292825      -33.3265393778       34.2655547370  TIP3      1452            0.0000000000
     54188      1852  TIP3      H2            -35.3764746204      -34.5242309645       34.7512282409  TIP3      1452            0.0000000000
     54189      1853  TIP3      OH2           -23.0188087230      -25.8354352267       23.7262406282  TIP3      1453            0.0000000000
     54190      1853  TIP3      H1            -23.2546424620      -26.5837047807       24.3102788057  TIP3      1453            0.0000000000
     54191      1853  TIP3      H2            -22.0697822488      -25.7407389460       23.9484376285  TIP3      1453            0.0000000000
     54192      1854  TIP3      OH2           -35.6284005047      -21.8667332857       32.7393081408  TIP3      1454            0.0000000000
     54193      1854  TIP3      H1            -35.3843827906      -22.8067157385       32.7343028406  TIP3      1454            0.0000000000
     54194      1854  TIP3      H2            -35.3790201398      -21.5975300270       33.6323861414  TIP3      1454            0.0000000000
     54195      1855  TIP3      OH2           -29.7436855520      -23.4225850844       19.9698058561  TIP3      1455            0.0000000000
     54196      1855  TIP3      H1            -29.5287042147      -24.1697778881       19.4179705357  TIP3      1455            0.0000000000
     54197      1855  TIP3      H2            -30.0547383720      -23.7943364854       20.8139957525  TIP3      1455            0.0000000000
     54198      1856  TIP3      OH2           -30.8369004954      -23.8495913926       22.4388910805  TIP3      1456            0.0000000000
     54199      1856  TIP3      H1            -30.6683815963      -24.3641101827       23.2300109175  TIP3      1456            0.0000000000
     54200      1856  TIP3      H2            -30.8280819413      -22.9108943209       22.7383674398  TIP3      1456            0.0000000000
     54201      1857  TIP3      OH2           -34.3545204865      -26.5933350149       22.9498618217  TIP3      1457            0.0000000000
     54202      1857  TIP3      H1            -35.0730476654      -26.2169159156       23.4965345841  TIP3      1457            0.0000000000
     54203      1857  TIP3      H2            -33.8608330865      -25.8061888275       22.6822018625  TIP3      1457            0.0000000000
     54204      1858  TIP3      OH2           -26.5562753207      -33.8983416312       33.2399948542  TIP3      1458            0.0000000000
     54205      1858  TIP3      H1            -25.8215478140      -33.8496874460       33.8593501498  TIP3      1458            0.0000000000
     54206      1858  TIP3      H2            -26.9200620955      -34.7950763453       33.3850159206  TIP3      1458            0.0000000000
     54207      1859  TIP3      OH2           -25.7774234633      -34.2973541440       24.3294849596  TIP3      1459            0.0000000000
     54208      1859  TIP3      H1            -25.5369207842      -33.8160468314       23.5112584300  TIP3      1459            0.0000000000
     54209      1859  TIP3      H2            -25.1979766336      -33.8829993341       24.9835536643  TIP3      1459            0.0000000000
     54210      1860  TIP3      OH2           -28.0779106641      -22.1330145234       23.1792843044  TIP3      1460            0.0000000000
     54211      1860  TIP3      H1            -28.9204943212      -21.6497198412       23.2179795121  TIP3      1460            0.0000000000
     54212      1860  TIP3      H2            -27.5667019822      -21.6586137810       22.5160817625  TIP3      1460            0.0000000000
     54213      1861  TIP3      OH2           -28.5712811594      -32.5475647407       25.1390851170  TIP3      1461            0.0000000000
     54214      1861  TIP3      H1            -27.7460794785      -32.0263485750       25.1965735893  TIP3      1461            0.0000000000
     54215      1861  TIP3      H2            -28.8125340022      -32.6955722122       26.0719954212  TIP3      1461            0.0000000000
     54216      1862  TIP3      OH2           -28.0501398542      -31.5755851629       34.3746454681  TIP3      1462            0.0000000000
     54217      1862  TIP3      H1            -27.8602225279      -30.9694398100       35.1065378486  TIP3      1462            0.0000000000
     54218      1862  TIP3      H2            -27.3467476655      -32.2475480325       34.4242814935  TIP3      1462            0.0000000000
     54219      1863  TIP3      OH2           -27.6899070272      -35.4979669057       26.0778766053  TIP3      1463            0.0000000000
     54220      1863  TIP3      H1            -28.0197535840      -34.8493092709       26.7234226418  TIP3      1463            0.0000000000
     54221      1863  TIP3      H2            -27.0091149717      -34.9579888703       25.6040381212  TIP3      1463            0.0000000000
     54222      1864  TIP3      OH2           -30.7276067447      -21.1093257320       23.1741504930  TIP3      1464            0.0000000000
     54223      1864  TIP3      H1            -30.5910730006      -20.3053436555       22.6377354026  TIP3      1464            0.0000000000
     54224      1864  TIP3      H2            -30.9631493734      -20.7803077504       24.0599861520  TIP3      1464            0.0000000000
     54225      1865  TIP3      OH2           -32.0340659761      -34.4144184570       22.7876590697  TIP3      1465            0.0000000000
     54226      1865  TIP3      H1            -32.0990023769      -33.5078030615       23.1216545303  TIP3      1465            0.0000000000
     54227      1865  TIP3      H2            -31.1208697883      -34.6586696889       23.0017501323  TIP3      1465            0.0000000000
     54228      1866  TIP3      OH2           -21.8140234517      -33.6849502787       35.1951252047  TIP3      1466            0.0000000000
     54229      1866  TIP3      H1            -22.7438486860      -33.3752205471       35.0668245221  TIP3      1466            0.0000000000
     54230      1866  TIP3      H2            -21.4977060108      -33.6690680055       34.2720777494  TIP3      1466            0.0000000000
     54231      1867  TIP3      OH2           -23.2151738413      -29.8934050920       29.2390355692  TIP3      1467            0.0000000000
     54232      1867  TIP3      H1            -24.0277449547      -30.3309897158       28.9331025252  TIP3      1467            0.0000000000
     54233      1867  TIP3      H2            -22.7550836014      -30.5960603226       29.7492451858  TIP3      1467            0.0000000000
     54234      1868  TIP3      OH2           -33.7684624226      -23.9876416876       21.8512780637  TIP3      1468            0.0000000000
     54235      1868  TIP3      H1            -33.1508741431      -23.2854221487       22.0967658720  TIP3      1468            0.0000000000
     54236      1868  TIP3      H2            -33.2959744014      -24.3941741669       21.1092170497  TIP3      1468            0.0000000000
     54237      1869  TIP3      OH2           -22.1452810205      -20.6553828858       30.8899836471  TIP3      1469            0.0000000000
     54238      1869  TIP3      H1            -22.2633334290      -19.9614725377       30.2111437101  TIP3      1469            0.0000000000
     54239      1869  TIP3      H2            -21.1845745533      -20.5763387216       31.0739117227  TIP3      1469            0.0000000000
     54240      1870  TIP3      OH2           -34.6362720296      -36.5175877361       29.6523678203  TIP3      1470            0.0000000000
     54241      1870  TIP3      H1            -34.8629357082      -36.4827400220       28.6966398268  TIP3      1470            0.0000000000
     54242      1870  TIP3      H2            -35.0790600359      -37.3442558886       29.9298412597  TIP3      1470            0.0000000000
     54243      1871  TIP3      OH2           -35.6964311300      -22.5976879940       25.7962005327  TIP3      1471            0.0000000000
     54244      1871  TIP3      H1            -36.5420984806      -22.1235732335       25.8033896516  TIP3      1471            0.0000000000
     54245      1871  TIP3      H2            -35.1785923717      -22.0917253058       25.1589401199  TIP3      1471            0.0000000000
     54246      1872  TIP3      OH2           -36.4472729368      -19.9588439844       37.1075808690  TIP3      1472            0.0000000000
     54247      1872  TIP3      H1            -35.8779068380      -20.1787650038       37.8738753111  TIP3      1472            0.0000000000
     54248      1872  TIP3      H2            -36.9010229041      -20.7986527178       36.9311961981  TIP3      1472            0.0000000000
     54249      1873  TIP3      OH2           -31.8199258615      -21.0407472523       38.7408003145  TIP3      1473            0.0000000000
     54250      1873  TIP3      H1            -31.0458794238      -21.5220153622       39.0648818750  TIP3      1473            0.0000000000
     54251      1873  TIP3      H2            -31.8349627219      -21.2957108716       37.7945237178  TIP3      1473            0.0000000000
     54252      1874  TIP3      OH2           -25.2746159292      -22.6554282305       37.4548284156  TIP3      1474            0.0000000000
     54253      1874  TIP3      H1            -25.6024455060      -23.5395522215       37.7178440849  TIP3      1474            0.0000000000
     54254      1874  TIP3      H2            -24.5181670611      -22.5323777511       38.0591749597  TIP3      1474            0.0000000000
     54255      1875  TIP3      OH2           -36.5348711591      -26.1696536750       38.0885509849  TIP3      1475            0.0000000000
     54256      1875  TIP3      H1            -36.3781272051      -27.0808992812       37.7767281289  TIP3      1475            0.0000000000
     54257      1875  TIP3      H2            -37.2965724136      -25.8924632876       37.5534146661  TIP3      1475            0.0000000000
     54258      1876  TIP3      OH2           -29.8543948607      -26.1995446633       37.4918774600  TIP3      1476            0.0000000000
     54259      1876  TIP3      H1            -30.1923090541      -25.8961598555       36.6286850745  TIP3      1476            0.0000000000
     54260      1876  TIP3      H2            -29.7270407396      -27.1533643793       37.3999856379  TIP3      1476            0.0000000000
     54261      1877  TIP3      OH2           -24.1422269570      -26.3118723138       34.8850885895  TIP3      1477            0.0000000000
     54262      1877  TIP3      H1            -23.3747502645      -25.7032778703       34.7848754417  TIP3      1477            0.0000000000
     54263      1877  TIP3      H2            -24.8716802113      -25.6788543581       34.9341335760  TIP3      1477            0.0000000000
     54264      1878  TIP3      OH2           -35.6694413731      -28.9491124325       37.4874067928  TIP3      1478            0.0000000000
     54265      1878  TIP3      H1            -35.2697186733      -29.8188397511       37.3830530890  TIP3      1478            0.0000000000
     54266      1878  TIP3      H2            -35.9199686818      -28.9473192420       38.4290110948  TIP3      1478            0.0000000000
     54267      1879  TIP3      OH2           -31.6993625816      -29.9855462059       34.8908527115  TIP3      1479            0.0000000000
     54268      1879  TIP3      H1            -32.3580151870      -29.2848225158       35.1196355234  TIP3      1479            0.0000000000
     54269      1879  TIP3      H2            -31.3941420742      -29.6300438469       34.0248746125  TIP3      1479            0.0000000000
     54270      1880  TIP3      OH2           -26.7071820978      -27.4723537863       38.1695620648  TIP3      1480            0.0000000000
     54271      1880  TIP3      H1            -25.7440628232      -27.4140171029       38.0945155289  TIP3      1480            0.0000000000
     54272      1880  TIP3      H2            -26.8581909708      -28.2018398994       38.7821708390  TIP3      1480            0.0000000000
     54273      1881  TIP3      OH2           -31.5129984130      -32.6764425230       35.8789347674  TIP3      1481            0.0000000000
     54274      1881  TIP3      H1            -31.2601159774      -33.3952195515       35.2657347671  TIP3      1481            0.0000000000
     54275      1881  TIP3      H2            -31.4815925990      -31.8733716333       35.3252217535  TIP3      1481            0.0000000000
     54276      1882  TIP3      OH2           -30.9635496954      -34.2160277774       33.4681395788  TIP3      1482            0.0000000000
     54277      1882  TIP3      H1            -30.4392190520      -33.7853323562       32.7523026553  TIP3      1482            0.0000000000
     54278      1882  TIP3      H2            -31.8401722973      -34.3396388604       33.0224982171  TIP3      1482            0.0000000000
     54279      1883  TIP3      OH2           -29.4025314999      -28.7951188064       33.7014890427  TIP3      1483            0.0000000000
     54280      1883  TIP3      H1            -28.6504653524      -28.9325563699       33.1059688379  TIP3      1483            0.0000000000
     54281      1883  TIP3      H2            -29.7472431425      -27.9349305357       33.3868825271  TIP3      1483            0.0000000000
     54282      1884  TIP3      OH2           -25.0086980189      -30.9936449987       38.6802899381  TIP3      1484            0.0000000000
     54283      1884  TIP3      H1            -24.7698663767      -31.9209817247       38.5916628109  TIP3      1484            0.0000000000
     54284      1884  TIP3      H2            -24.1342810583      -30.5587237390       38.6859807077  TIP3      1484            0.0000000000
     54285      1885  TIP3      OH2           -23.6737965824      -28.2052355487       36.8175866569  TIP3      1485            0.0000000000
     54286      1885  TIP3      H1            -23.9326612802      -27.4791910143       36.2027531642  TIP3      1485            0.0000000000
     54287      1885  TIP3      H2            -22.7133446260      -28.2500520086       36.6210580323  TIP3      1485            0.0000000000
     54288      1886  TIP3      OH2           -32.8898925314      -31.3786566570       37.8579478110  TIP3      1486            0.0000000000
     54289      1886  TIP3      H1            -33.6816411124      -31.9372205352       37.6526071408  TIP3      1486            0.0000000000
     54290      1886  TIP3      H2            -32.2687127646      -31.7477590577       37.2262848133  TIP3      1486            0.0000000000
     54291      1887  TIP3      OH2           -30.1649204619      -36.7995466220       33.8783501541  TIP3      1487            0.0000000000
     54292      1887  TIP3      H1            -30.3001468241      -35.8330756690       33.7530876824  TIP3      1487            0.0000000000
     54293      1887  TIP3      H2            -30.9188459841      -37.1530149868       33.3739050627  TIP3      1487            0.0000000000
     54294      1888  TIP3      OH2           -28.8337492461      -32.5566574867       37.4940179894  TIP3      1488            0.0000000000
     54295      1888  TIP3      H1            -29.1535613006      -32.7040707014       38.4103244498  TIP3      1488            0.0000000000
     54296      1888  TIP3      H2            -29.6275821838      -32.7827118550       36.9889976440  TIP3      1488            0.0000000000
     54297      1889  TIP3      OH2           -26.1895521517      -33.3490589996       36.5074785829  TIP3      1489            0.0000000000
     54298      1889  TIP3      H1            -27.1450386775      -33.2877924611       36.6535074976  TIP3      1489            0.0000000000
     54299      1889  TIP3      H2            -25.8911227894      -33.9310572394       37.2001593815  TIP3      1489            0.0000000000
     54300      1890  TIP3      OH2           -24.4636935307      -34.3013455168       38.5705858256  TIP3      1490            0.0000000000
     54301      1890  TIP3      H1            -24.3842282455      -35.2036378492       38.7544644976  TIP3      1490            0.0000000000
     54302      1890  TIP3      H2            -24.8864127849      -34.2301418004       39.4600002738  TIP3      1490            0.0000000000
     54303      1891  TIP3      OH2           -34.7454133732      -33.4511296018       37.5646999822  TIP3      1491            0.0000000000
     54304      1891  TIP3      H1            -34.5424058966      -34.1924864502       36.9605721232  TIP3      1491            0.0000000000
     54305      1891  TIP3      H2            -34.8665301814      -33.9105227888       38.4234687701  TIP3      1491            0.0000000000
     54306      1892  TIP3      OH2           -29.9450180345      -37.4424247924       36.5546832339  TIP3      1492            0.0000000000
     54307      1892  TIP3      H1            -29.2513534369      -38.1341781882       36.5191523148  TIP3      1492            0.0000000000
     54308      1892  TIP3      H2            -30.0658461735      -37.2449070408       35.6031681776  TIP3      1492            0.0000000000
     54309      1893  TIP3      OH2           -29.5645470266      -35.7857619368       38.6081463025  TIP3      1493            0.0000000000
     54310      1893  TIP3      H1            -29.7526776334      -36.3062857879       37.7843272481  TIP3      1493            0.0000000000
     54311      1893  TIP3      H2            -30.2037192162      -35.0534331037       38.5445610246  TIP3      1493            0.0000000000
     54312      1894  TIP3      OH2           -36.4954347647      -24.2742932659       21.2703832960  TIP3      1494            0.0000000000
     54313      1894  TIP3      H1            -35.5501958858      -24.2001621001       21.5164891166  TIP3      1494            0.0000000000
     54314      1894  TIP3      H2            -36.4763808834      -24.9806025719       20.5922160390  TIP3      1494            0.0000000000
     54315      1895  TIP3      OH2           -37.8048931966      -18.8977295568       26.3007919550  TIP3      1495            0.0000000000
     54316      1895  TIP3      H1            -38.4884482610      -19.3787208851       25.7864655081  TIP3      1495            0.0000000000
     54317      1895  TIP3      H2            -37.4896132536      -19.5723672180       26.9243599711  TIP3      1495            0.0000000000
     54318      1896  TIP3      OH2           -36.9594282810      -20.7988552711       28.1278141493  TIP3      1496            0.0000000000
     54319      1896  TIP3      H1            -37.3033128576      -21.6833410281       28.3211533277  TIP3      1496            0.0000000000
     54320      1896  TIP3      H2            -36.7367541521      -20.4635967966       29.0147547983  TIP3      1496            0.0000000000
     54321      1897  TIP3      OH2           -19.4245972098      -20.0009455161       31.0945009370  TIP3      1497            0.0000000000
     54322      1897  TIP3      H1            -19.4162116543      -19.8170568753       32.0495707792  TIP3      1497            0.0000000000
     54323      1897  TIP3      H2            -18.7207098641      -19.4227005337       30.7772990460  TIP3      1497            0.0000000000
     54324      1898  TIP3      OH2           -19.8486998697      -20.4022493297       34.0325187342  TIP3      1498            0.0000000000
     54325      1898  TIP3      H1            -20.3310644588      -21.1733004431       33.6593746717  TIP3      1498            0.0000000000
     54326      1898  TIP3      H2            -19.3219498678      -20.8385307236       34.7223865845  TIP3      1498            0.0000000000
     54327      1899  TIP3      OH2           -21.3977571183      -24.6715452993       38.6721228427  TIP3      1499            0.0000000000
     54328      1899  TIP3      H1            -22.2813782228      -24.7243798425       39.0759947505  TIP3      1499            0.0000000000
     54329      1899  TIP3      H2            -21.0255724434      -23.8766253048       39.1232712300  TIP3      1499            0.0000000000
     54330      1900  TIP3      OH2           -20.1036091073      -26.3705296612       24.1478156685  TIP3      1500            0.0000000000
     54331      1900  TIP3      H1            -19.2396959975      -25.9649467352       24.3213222922  TIP3      1500            0.0000000000
     54332      1900  TIP3      H2            -20.0852745823      -27.1052329742       24.8018508547  TIP3      1500            0.0000000000
     54333      1901  TIP3      OH2           -19.7123630999      -28.3155168261       25.9850981794  TIP3      1501            0.0000000000
     54334      1901  TIP3      H1            -20.4546937666      -28.7995451562       26.4074766651  TIP3      1501            0.0000000000
     54335      1901  TIP3      H2            -19.1248345354      -28.1266653050       26.7495544335  TIP3      1501            0.0000000000
     54336      1902  TIP3      OH2           -19.9645230817      -25.5669413522       30.9806440553  TIP3      1502            0.0000000000
     54337      1902  TIP3      H1            -19.1235393414      -25.9325872652       30.6497304099  TIP3      1502            0.0000000000
     54338      1902  TIP3      H2            -19.8270092412      -24.6057744776       30.8304716055  TIP3      1502            0.0000000000
     54339      1903  TIP3      OH2           -21.4299645259      -22.6717599342       33.2747049435  TIP3      1503            0.0000000000
     54340      1903  TIP3      H1            -22.1127273757      -22.3379449293       33.8784705827  TIP3      1503            0.0000000000
     54341      1903  TIP3      H2            -21.9765765759      -23.0963171050       32.5769377536  TIP3      1503            0.0000000000
     54342      1904  TIP3      OH2           -21.9123841086      -29.8052765049       26.5614802619  TIP3      1504            0.0000000000
     54343      1904  TIP3      H1            -22.0676021609      -30.7595211861       26.5605200031  TIP3      1504            0.0000000000
     54344      1904  TIP3      H2            -22.2620996614      -29.5491829975       27.4342698209  TIP3      1504            0.0000000000
     54345      1905  TIP3      OH2           -36.9004134549      -27.7209931126       30.6141377941  TIP3      1505            0.0000000000
     54346      1905  TIP3      H1            -36.7017221749      -27.8064117992       29.6558884675  TIP3      1505            0.0000000000
     54347      1905  TIP3      H2            -36.0155292962      -27.8696436119       31.0003616779  TIP3      1505            0.0000000000
     54348      1906  TIP3      OH2           -21.0709387160      -27.8389140062       36.2428528472  TIP3      1506            0.0000000000
     54349      1906  TIP3      H1            -20.4565057130      -28.5856526033       36.4040634420  TIP3      1506            0.0000000000
     54350      1906  TIP3      H2            -20.4788214462      -27.0590173978       36.2607269680  TIP3      1506            0.0000000000
     54351      1907  TIP3      OH2           -19.5578718163      -29.9333830697       36.9154167808  TIP3      1507            0.0000000000
     54352      1907  TIP3      H1            -20.4354303936      -30.3390703342       36.7422585425  TIP3      1507            0.0000000000
     54353      1907  TIP3      H2            -18.9672599861      -30.6978733181       36.8294834025  TIP3      1507            0.0000000000
     54354      1908  TIP3      OH2           -22.2257276805      -32.2162545544       25.0448895003  TIP3      1508            0.0000000000
     54355      1908  TIP3      H1            -21.9255725613      -33.1502267957       25.1572094859  TIP3      1508            0.0000000000
     54356      1908  TIP3      H2            -21.4403283877      -31.8095898248       24.6535834020  TIP3      1508            0.0000000000
     54357      1909  TIP3      OH2           -21.6071726877      -31.6710543917       30.4722597634  TIP3      1509            0.0000000000
     54358      1909  TIP3      H1            -20.6508263959      -31.4324885353       30.4530235618  TIP3      1509            0.0000000000
     54359      1909  TIP3      H2            -21.8144985380      -31.5347561109       31.4104876341  TIP3      1509            0.0000000000
     54360      1910  TIP3      OH2           -21.5475178460      -30.9415284107       33.2542197860  TIP3      1510            0.0000000000
     54361      1910  TIP3      H1            -22.4166094423      -30.6449849581       33.6028857764  TIP3      1510            0.0000000000
     54362      1910  TIP3      H2            -21.1137390824      -30.0807487904       33.0370657451  TIP3      1510            0.0000000000
     54363      1911  TIP3      OH2           -37.2938028045      -32.4317831640       36.7491140678  TIP3      1511            0.0000000000
     54364      1911  TIP3      H1            -36.3554528949      -32.5988615445       36.9688532294  TIP3      1511            0.0000000000
     54365      1911  TIP3      H2            -37.7383404964      -33.2306812811       37.1039302838  TIP3      1511            0.0000000000
     54366      1912  TIP3      OH2           -19.2837300126      -36.9152333000       38.5991219901  TIP3      1512            0.0000000000
     54367      1912  TIP3      H1            -18.9344147060      -37.5787812970       37.9917823808  TIP3      1512            0.0000000000
     54368      1912  TIP3      H2            -19.1459267033      -36.0740159737       38.1319565794  TIP3      1512            0.0000000000
     54369      1913  TIP3      OH2           -21.5855102965      -34.9366868607       25.0851758389  TIP3      1513            0.0000000000
     54370      1913  TIP3      H1            -21.3911544613      -35.4015707487       25.9197153841  TIP3      1513            0.0000000000
     54371      1913  TIP3      H2            -22.1934824459      -35.5641261698       24.6250393820  TIP3      1513            0.0000000000
     54372      1914  TIP3      OH2           -36.0821802494      -34.1362099057       29.6221722758  TIP3      1514            0.0000000000
     54373      1914  TIP3      H1            -35.6174999805      -34.9465065134       29.9148717708  TIP3      1514            0.0000000000
     54374      1914  TIP3      H2            -35.5759881713      -33.4283725697       30.0435477048  TIP3      1514            0.0000000000
     54375      1915  TIP3      OH2           -37.7908015581      -31.1477781959       30.6892963789  TIP3      1515            0.0000000000
     54376      1915  TIP3      H1            -37.2489082619      -31.3663105853       29.9018157567  TIP3      1515            0.0000000000
     54377      1915  TIP3      H2            -37.3720850441      -30.3143942554       30.9557796694  TIP3      1515            0.0000000000
     54378      1916  TIP3      OH2           -19.7429930402      -34.8214708616       36.9615860203  TIP3      1516            0.0000000000
     54379      1916  TIP3      H1            -20.6755293980      -34.5336931069       36.9104755852  TIP3      1516            0.0000000000
     54380      1916  TIP3      H2            -19.6752793734      -35.3461337469       36.1533887388  TIP3      1516            0.0000000000
     54381      1917  TIP3      OH2           -19.7386195469      -34.9096999186       21.6347489100  TIP3      1517            0.0000000000
     54382      1917  TIP3      H1            -19.2994630316      -35.6097338499       21.1290868867  TIP3      1517            0.0000000000
     54383      1917  TIP3      H2            -19.0426265172      -34.2422347121       21.6687240356  TIP3      1517            0.0000000000
     54384      1918  TIP3      OH2           -37.4374162407      -34.8615999521       24.7553215486  TIP3      1518            0.0000000000
     54385      1918  TIP3      H1            -38.3805241927      -34.6850482542       24.6079999194  TIP3      1518            0.0000000000
     54386      1918  TIP3      H2            -37.0020976935      -34.4065921831       24.0363215930  TIP3      1518            0.0000000000
     54387      1919  TIP3      OH2           -22.6919588251      -19.9141852207       26.6910371605  TIP3      1519            0.0000000000
     54388      1919  TIP3      H1            -22.0161980538      -20.2384012620       26.0693991978  TIP3      1519            0.0000000000
     54389      1919  TIP3      H2            -22.1667095859      -19.4166956877       27.3357639401  TIP3      1519            0.0000000000
     54390      1920  TIP3      OH2           -37.4762798069      -36.1757518545       33.0714173168  TIP3      1520            0.0000000000
     54391      1920  TIP3      H1            -38.1566350512      -36.3974229941       33.7303843688  TIP3      1520            0.0000000000
     54392      1920  TIP3      H2            -37.9393653646      -35.5236759090       32.5033267929  TIP3      1520            0.0000000000
     54393      1921  TIP3      OH2           -35.2692332644      -22.9900178980       37.2260445254  TIP3      1521            0.0000000000
     54394      1921  TIP3      H1            -36.1102244625      -22.7960262519       36.7795300374  TIP3      1521            0.0000000000
     54395      1921  TIP3      H2            -35.5393609531      -23.0550353926       38.1503423512  TIP3      1521            0.0000000000
     54396      1922  TIP3      OH2           -32.3500806626      -22.0151193835       33.4933574514  TIP3      1522            0.0000000000
     54397      1922  TIP3      H1            -32.7296699363      -21.1731832240       33.2062297584  TIP3      1522            0.0000000000
     54398      1922  TIP3      H2            -31.4260160429      -21.9102339568       33.1812326776  TIP3      1522            0.0000000000
     54399      1923  TIP3      OH2           -28.0346712017      -20.5918198734       36.4190032883  TIP3      1523            0.0000000000
     54400      1923  TIP3      H1            -27.8554750069      -20.9371216165       37.3306625479  TIP3      1523            0.0000000000
     54401      1923  TIP3      H2            -27.1503653993      -20.2886495068       36.1400983546  TIP3      1523            0.0000000000
     54402      1924  TIP3      OH2           -25.7184466199      -19.3177751900       35.6882791727  TIP3      1524            0.0000000000
     54403      1924  TIP3      H1            -25.0011394988      -19.9322123254       35.4590754109  TIP3      1524            0.0000000000
     54404      1924  TIP3      H2            -25.3533462152      -18.9044155065       36.5019257967  TIP3      1524            0.0000000000
     54405      1925  TIP3      OH2           -20.7435316137      -36.7106534464       34.8061633755  TIP3      1525            0.0000000000
     54406      1925  TIP3      H1            -21.5627304549      -36.4060460639       34.3752816633  TIP3      1525            0.0000000000
     54407      1925  TIP3      H2            -20.5508214367      -37.5033343655       34.2528604407  TIP3      1525            0.0000000000
     54408      1926  TIP3      OH2           -34.9229488981      -18.7595987646       33.5145781877  TIP3      1526            0.0000000000
     54409      1926  TIP3      H1            -35.6588712232      -18.2893319114       33.0880081321  TIP3      1526            0.0000000000
     54410      1926  TIP3      H2            -35.2787260907      -18.9837733253       34.3870899279  TIP3      1526            0.0000000000
     54411      1927  TIP3      OH2           -32.4517656422      -19.1732632104       32.5671160038  TIP3      1527            0.0000000000
     54412      1927  TIP3      H1            -33.3470641734      -19.0608025068       32.9656322054  TIP3      1527            0.0000000000
     54413      1927  TIP3      H2            -32.5244399144      -18.5952258862       31.7813266991  TIP3      1527            0.0000000000
     54414      1928  TIP3      OH2           -27.7539915605      -19.2723546285       31.7348378225  TIP3      1528            0.0000000000
     54415      1928  TIP3      H1            -28.2171406339      -18.7245539930       31.0821646625  TIP3      1528            0.0000000000
     54416      1928  TIP3      H2            -27.6029772317      -18.6425050480       32.4701002892  TIP3      1528            0.0000000000
     54417      1929  TIP3      OH2           -25.4344245512      -20.4221536379       32.7114037892  TIP3      1529            0.0000000000
     54418      1929  TIP3      H1            -26.3281900190      -20.1997513597       32.4059540150  TIP3      1529            0.0000000000
     54419      1929  TIP3      H2            -24.9965847666      -19.5566258120       32.6305702676  TIP3      1529            0.0000000000
     54420      1930  TIP3      OH2           -22.8467853818      -18.8536788658       32.9938214957  TIP3      1530            0.0000000000
     54421      1930  TIP3      H1            -22.9812507500      -17.9020176501       32.7580270067  TIP3      1530            0.0000000000
     54422      1930  TIP3      H2            -22.6544533710      -19.2331619136       32.1166022707  TIP3      1530            0.0000000000
     54423      1931  TIP3      OH2           -35.5086728663      -20.1147532822       30.4340056132  TIP3      1531            0.0000000000
     54424      1931  TIP3      H1            -35.5465656098      -20.5630895185       31.3061581186  TIP3      1531            0.0000000000
     54425      1931  TIP3      H2            -34.6860455847      -20.4644930120       30.0352789752  TIP3      1531            0.0000000000
     54426      1932  TIP3      OH2           -33.3953903897      -21.4026254163       29.0859031754  TIP3      1532            0.0000000000
     54427      1932  TIP3      H1            -33.5818666387      -22.3376306921       29.2888446439  TIP3      1532            0.0000000000
     54428      1932  TIP3      H2            -32.5426776759      -21.2703323208       29.5584568830  TIP3      1532            0.0000000000
     54429      1933  TIP3      OH2           -30.8230784205      -20.9251149196       29.9496022014  TIP3      1533            0.0000000000
     54430      1933  TIP3      H1            -30.6267125272      -21.8394160561       29.6767019207  TIP3      1533            0.0000000000
     54431      1933  TIP3      H2            -30.7617371566      -20.9866658220       30.9119249625  TIP3      1533            0.0000000000
     54432      1934  TIP3      OH2           -27.3336945435      -35.2735365754       29.0967742944  TIP3      1534            0.0000000000
     54433      1934  TIP3      H1            -28.0101656322      -35.9179657048       29.3572962878  TIP3      1534            0.0000000000
     54434      1934  TIP3      H2            -26.7750381700      -35.7839230941       28.4982068844  TIP3      1534            0.0000000000
     54435      1935  TIP3      OH2           -22.1976059289      -37.1986075755       29.1989829684  TIP3      1535            0.0000000000
     54436      1935  TIP3      H1            -21.5790959952      -36.6219646440       28.6816870402  TIP3      1535            0.0000000000
     54437      1935  TIP3      H2            -23.0742162778      -36.8542437538       28.9491367997  TIP3      1535            0.0000000000
     54438      1936  TIP3      OH2           -20.5063538311      -36.0095077357       27.4978906812  TIP3      1536            0.0000000000
     54439      1936  TIP3      H1            -19.8403395147      -36.5557582153       27.0128650984  TIP3      1536            0.0000000000
     54440      1936  TIP3      H2            -20.0528652546      -35.1412259865       27.5574053595  TIP3      1536            0.0000000000
     54441      1937  TIP3      OH2           -34.9853483960      -36.6317664999       26.9358108337  TIP3      1537            0.0000000000
     54442      1937  TIP3      H1            -35.7741708168      -36.8745340531       26.4164558539  TIP3      1537            0.0000000000
     54443      1937  TIP3      H2            -34.4848239376      -37.4693835286       26.8988496825  TIP3      1537            0.0000000000
     54444      1938  TIP3      OH2           -36.1862998077      -36.8713690358       22.7200980552  TIP3      1538            0.0000000000
     54445      1938  TIP3      H1            -35.7240977957      -36.2575231542       22.1028517351  TIP3      1538            0.0000000000
     54446      1938  TIP3      H2            -36.7899309965      -36.3045182095       23.2027387574  TIP3      1538            0.0000000000
     54447      1939  TIP3      OH2           -30.4506484352      -36.7286394929       26.7178663540  TIP3      1539            0.0000000000
     54448      1939  TIP3      H1            -29.5617016538      -36.3360788487       26.6952114589  TIP3      1539            0.0000000000
     54449      1939  TIP3      H2            -30.5465859888      -36.9331249280       27.6499274768  TIP3      1539            0.0000000000
     54450      1940  TIP3      OH2           -24.8324967012      -36.6875485652       28.3717424487  TIP3      1540            0.0000000000
     54451      1940  TIP3      H1            -24.8059334258      -36.5980798818       27.4130278617  TIP3      1540            0.0000000000
     54452      1940  TIP3      H2            -25.1568880125      -37.6097111616       28.4965803980  TIP3      1540            0.0000000000
     54453      1941  TIP3      OH2           -23.5108415143      -36.6562714968       24.0555811955  TIP3      1541            0.0000000000
     54454      1941  TIP3      H1            -24.2410433038      -36.0539990166       23.8535423440  TIP3      1541            0.0000000000
     54455      1941  TIP3      H2            -23.9604469909      -37.5204286863       24.2123285722  TIP3      1541            0.0000000000
     54456      1942  TIP3      OH2           -36.2691921833      -20.9230597851       23.6369669156  TIP3      1542            0.0000000000
     54457      1942  TIP3      H1            -36.9490337564      -20.9268384517       22.9511286488  TIP3      1542            0.0000000000
     54458      1942  TIP3      H2            -36.2668068177      -19.9822223714       23.8776336137  TIP3      1542            0.0000000000
     54459      1943  TIP3      OH2           -29.3145200136      -34.6700962231       23.5902425677  TIP3      1543            0.0000000000
     54460      1943  TIP3      H1            -29.0989825890      -35.2796908417       24.3149229982  TIP3      1543            0.0000000000
     54461      1943  TIP3      H2            -29.3105379754      -33.8105728605       24.0787431315  TIP3      1543            0.0000000000
     54462      1944  TIP3      OH2           -20.6936525718      -20.1082923712       24.7055396196  TIP3      1544            0.0000000000
     54463      1944  TIP3      H1            -20.9039270594      -20.8897202913       24.1397496317  TIP3      1544            0.0000000000
     54464      1944  TIP3      H2            -20.7560152437      -19.3692807905       24.0945045820  TIP3      1544            0.0000000000
     54465      1945  TIP3      OH2           -35.0718989711      -36.1106423111       36.4097379129  TIP3      1545            0.0000000000
     54466      1945  TIP3      H1            -35.4289076422      -36.9036772933       36.8564127015  TIP3      1545            0.0000000000
     54467      1945  TIP3      H2            -34.1423142742      -36.1224917956       36.7453742669  TIP3      1545            0.0000000000
     54468      1946  TIP3      OH2           -33.0728805293      -36.7402442644       38.0011466405  TIP3      1546            0.0000000000
     54469      1946  TIP3      H1            -32.1759262167      -37.0692485941       37.7875317177  TIP3      1546            0.0000000000
     54470      1946  TIP3      H2            -33.4546069999      -37.5294455716       38.4385155624  TIP3      1546            0.0000000000
     54471      1947  TIP3      OH2           -24.5166997825      -38.0656660240       38.0920117626  TIP3      1547            0.0000000000
     54472      1947  TIP3      H1            -24.5434105909      -37.9733291374       39.0698391212  TIP3      1547            0.0000000000
     54473      1947  TIP3      H2            -23.7180350871      -37.5536171273       37.8226262586  TIP3      1547            0.0000000000
     54474      1948  TIP3      OH2           -21.4643764272      -21.3924204788       36.8521825973  TIP3      1548            0.0000000000
     54475      1948  TIP3      H1            -22.2675186412      -21.5439104695       36.3080402929  TIP3      1548            0.0000000000
     54476      1948  TIP3      H2            -21.5639507579      -20.4365318715       37.0485803518  TIP3      1548            0.0000000000
     54477      1949  TIP3      OH2            -7.0445122214      -27.5114346846       26.8534492370  TIP3      1549            0.0000000000
     54478      1949  TIP3      H1             -7.0045269018      -26.5356359628       26.7475732141  TIP3      1549            0.0000000000
     54479      1949  TIP3      H2             -7.7308822971      -27.7547606946       26.2145506909  TIP3      1549            0.0000000000
     54480      1950  TIP3      OH2            -8.1712984061      -28.2354721998       30.3041542569  TIP3      1550            0.0000000000
     54481      1950  TIP3      H1             -8.1657866181      -28.8875907420       31.0125432236  TIP3      1550            0.0000000000
     54482      1950  TIP3      H2             -8.4636072067      -28.7234867576       29.5243299281  TIP3      1550            0.0000000000
     54483      1951  TIP3      OH2           -15.7685479050      -28.6194369175       31.8394542333  TIP3      1551            0.0000000000
     54484      1951  TIP3      H1            -15.7357593364      -29.2416716052       32.6050986439  TIP3      1551            0.0000000000
     54485      1951  TIP3      H2            -15.0743828427      -27.9907571174       32.0924864945  TIP3      1551            0.0000000000
     54486      1952  TIP3      OH2            -4.4477968772      -25.3052085090       28.5881932010  TIP3      1552            0.0000000000
     54487      1952  TIP3      H1             -4.8848102682      -26.0169556267       29.0614856135  TIP3      1552            0.0000000000
     54488      1952  TIP3      H2             -4.4505019650      -24.5808451316       29.2423460428  TIP3      1552            0.0000000000
     54489      1953  TIP3      OH2           -14.8675745336      -24.1458429948       30.4028322635  TIP3      1553            0.0000000000
     54490      1953  TIP3      H1            -15.2061783719      -24.9870523734       30.0443630708  TIP3      1553            0.0000000000
     54491      1953  TIP3      H2            -13.9120566759      -24.3356799314       30.4438707655  TIP3      1553            0.0000000000
     54492      1954  TIP3      OH2           -18.2245576020      -30.5461776586       25.8037912756  TIP3      1554            0.0000000000
     54493      1954  TIP3      H1            -18.6796605233      -29.6722945752       25.8004772481  TIP3      1554            0.0000000000
     54494      1954  TIP3      H2            -18.8167550655      -31.1023463478       25.2884270841  TIP3      1554            0.0000000000
     54495      1955  TIP3      OH2           -17.5360051724      -28.3400652296       27.9544403128  TIP3      1555            0.0000000000
     54496      1955  TIP3      H1            -17.2989301029      -29.1407233823       28.4532536724  TIP3      1555            0.0000000000
     54497      1955  TIP3      H2            -16.8044500708      -28.2504070262       27.3273796563  TIP3      1555            0.0000000000
     54498      1956  TIP3      OH2            -7.3546671219      -20.1620432302       28.8111056383  TIP3      1556            0.0000000000
     54499      1956  TIP3      H1             -6.6970433495      -20.8580658035       28.5355344555  TIP3      1556            0.0000000000
     54500      1956  TIP3      H2             -7.5358270823      -20.4363509703       29.7091828545  TIP3      1556            0.0000000000
     54501      1957  TIP3      OH2            -9.7827614178      -25.8314607424       30.7324146820  TIP3      1557            0.0000000000
     54502      1957  TIP3      H1             -9.4311021118      -26.4780557186       30.1042682068  TIP3      1557            0.0000000000
     54503      1957  TIP3      H2             -9.0048343592      -25.6815746400       31.3031323486  TIP3      1557            0.0000000000
     54504      1958  TIP3      OH2            -1.1382263076      -34.2308129378       31.5089833323  TIP3      1558            0.0000000000
     54505      1958  TIP3      H1             -1.0240278764      -33.6000273782       32.2785618522  TIP3      1558            0.0000000000
     54506      1958  TIP3      H2             -0.6318250540      -33.7247375527       30.8488967007  TIP3      1558            0.0000000000
     54507      1959  TIP3      OH2            -6.6325253242      -31.3841782883       31.0603772079  TIP3      1559            0.0000000000
     54508      1959  TIP3      H1             -6.4661177110      -32.3483361631       31.0556834668  TIP3      1559            0.0000000000
     54509      1959  TIP3      H2             -6.7088093206      -31.2226624669       30.0993675249  TIP3      1559            0.0000000000
     54510      1960  TIP3      OH2           -13.4663927119      -33.2861099012       28.3178448532  TIP3      1560            0.0000000000
     54511      1960  TIP3      H1            -13.4207399101      -32.4556639142       27.8269226180  TIP3      1560            0.0000000000
     54512      1960  TIP3      H2            -13.9086554025      -33.8671646152       27.6461164955  TIP3      1560            0.0000000000
     54513      1961  TIP3      OH2            -5.7570858111      -33.1947676705       26.6804159164  TIP3      1561            0.0000000000
     54514      1961  TIP3      H1             -5.0912422590      -33.5078663632       27.3336988859  TIP3      1561            0.0000000000
     54515      1961  TIP3      H2             -5.2110974859      -32.6455563239       26.1006914476  TIP3      1561            0.0000000000
     54516      1962  TIP3      OH2           -16.8455827462      -30.8811181920       29.0524838603  TIP3      1562            0.0000000000
     54517      1962  TIP3      H1            -16.1972645469      -31.4635870940       29.4918089681  TIP3      1562            0.0000000000
     54518      1962  TIP3      H2            -16.8022461260      -31.1934803041       28.1339474441  TIP3      1562            0.0000000000
     54519      1963  TIP3      OH2           -11.6115482524      -29.2665261767       28.1218572331  TIP3      1563            0.0000000000
     54520      1963  TIP3      H1            -10.9900459333      -29.7911498826       28.6446141697  TIP3      1563            0.0000000000
     54521      1963  TIP3      H2            -12.2375566977      -29.9370836987       27.7690043708  TIP3      1563            0.0000000000
     54522      1964  TIP3      OH2            -0.7141371235      -32.7584879903       33.7724788160  TIP3      1564            0.0000000000
     54523      1964  TIP3      H1             -1.3746286106      -32.0366413476       33.6971115119  TIP3      1564            0.0000000000
     54524      1964  TIP3      H2             -0.6880800299      -32.8985129319       34.7330134421  TIP3      1564            0.0000000000
     54525      1965  TIP3      OH2           -14.6157665443      -34.3992386724       32.3652874293  TIP3      1565            0.0000000000
     54526      1965  TIP3      H1            -14.8777353104      -33.8455217532       31.6008229660  TIP3      1565            0.0000000000
     54527      1965  TIP3      H2            -15.3116858834      -34.1488030045       33.0236048121  TIP3      1565            0.0000000000
     54528      1966  TIP3      OH2            -7.2869502983      -24.9083358348       25.9060463208  TIP3      1566            0.0000000000
     54529      1966  TIP3      H1             -7.5881780958      -25.1982777002       25.0420016678  TIP3      1566            0.0000000000
     54530      1966  TIP3      H2             -7.6079848456      -23.9769704710       25.9520365102  TIP3      1566            0.0000000000
     54531      1967  TIP3      OH2           -12.0804915398      -26.7514590392       32.5878792714  TIP3      1567            0.0000000000
     54532      1967  TIP3      H1            -12.8016863147      -26.1082281582       32.7993711593  TIP3      1567            0.0000000000
     54533      1967  TIP3      H2            -11.3688724889      -26.1427193334       32.3430742896  TIP3      1567            0.0000000000
     54534      1968  TIP3      OH2            -3.9459843448      -33.8963582627       28.6682029099  TIP3      1568            0.0000000000
     54535      1968  TIP3      H1             -4.2068059146      -34.6368051036       29.2152419391  TIP3      1568            0.0000000000
     54536      1968  TIP3      H2             -3.3123500515      -33.4001585761       29.2107300458  TIP3      1568            0.0000000000
     54537      1969  TIP3      OH2           -15.0558126880      -32.5099612383       30.3337341925  TIP3      1569            0.0000000000
     54538      1969  TIP3      H1            -14.4273250395      -31.8643494570       30.7060897846  TIP3      1569            0.0000000000
     54539      1969  TIP3      H2            -14.5271117859      -32.9795252833       29.6478809537  TIP3      1569            0.0000000000
     54540      1970  TIP3      OH2           -13.6460437729      -24.7596130384       33.4074743810  TIP3      1570            0.0000000000
     54541      1970  TIP3      H1            -13.6821531398      -23.8484377723       33.0736152994  TIP3      1570            0.0000000000
     54542      1970  TIP3      H2            -14.5216127049      -24.8349443542       33.8765748358  TIP3      1570            0.0000000000
     54543      1971  TIP3      OH2           -17.5570561669      -25.1059519758       24.2139398095  TIP3      1571            0.0000000000
     54544      1971  TIP3      H1            -17.8220063833      -24.8293774727       23.3307869922  TIP3      1571            0.0000000000
     54545      1971  TIP3      H2            -17.4941946139      -24.2542494862       24.6930096173  TIP3      1571            0.0000000000
     54546      1972  TIP3      OH2            -3.9263814726      -23.4759706371       30.9424476918  TIP3      1572            0.0000000000
     54547      1972  TIP3      H1             -4.8892328045      -23.3729438350       31.0963547820  TIP3      1572            0.0000000000
     54548      1972  TIP3      H2             -3.6594634061      -22.5408839623       30.7883514237  TIP3      1572            0.0000000000
     54549      1973  TIP3      OH2            -3.6213400388      -35.1899962687       32.3253725905  TIP3      1573            0.0000000000
     54550      1973  TIP3      H1             -4.3583410603      -34.5554464008       32.3091381252  TIP3      1573            0.0000000000
     54551      1973  TIP3      H2             -2.9300700011      -34.7221273047       31.8429793824  TIP3      1573            0.0000000000
     54552      1974  TIP3      OH2           -10.6263729912      -37.0696932047       29.8129402491  TIP3      1574            0.0000000000
     54553      1974  TIP3      H1            -10.7546820908      -38.0363751431       29.7576612192  TIP3      1574            0.0000000000
     54554      1974  TIP3      H2            -11.5022277679      -36.7539722489       30.1069084413  TIP3      1574            0.0000000000
     54555      1975  TIP3      OH2            -5.7470632231      -21.7174318046       27.5605222994  TIP3      1575            0.0000000000
     54556      1975  TIP3      H1             -5.2385812628      -22.3862558301       27.0635119073  TIP3      1575            0.0000000000
     54557      1975  TIP3      H2             -5.3168605601      -20.9005424475       27.1815829011  TIP3      1575            0.0000000000
     54558      1976  TIP3      OH2            -4.4840016566      -23.7667437780       26.0626707816  TIP3      1576            0.0000000000
     54559      1976  TIP3      H1             -4.7822261435      -24.4647554009       25.4676053650  TIP3      1576            0.0000000000
     54560      1976  TIP3      H2             -4.4383920418      -24.2286855368       26.9166520551  TIP3      1576            0.0000000000
     54561      1977  TIP3      OH2            -2.8365853963      -25.1871610330       34.5611589634  TIP3      1577            0.0000000000
     54562      1977  TIP3      H1             -2.6934994392      -25.8080081638       33.8144240184  TIP3      1577            0.0000000000
     54563      1977  TIP3      H2             -2.6574328381      -24.3193710638       34.1650484483  TIP3      1577            0.0000000000
     54564      1978  TIP3      OH2            -8.3607925723      -28.2679935424       24.3214658045  TIP3      1578            0.0000000000
     54565      1978  TIP3      H1             -9.0626142399      -27.6872454471       23.9818446454  TIP3      1578            0.0000000000
     54566      1978  TIP3      H2             -7.6435794991      -28.1831935396       23.6694093083  TIP3      1578            0.0000000000
     54567      1979  TIP3      OH2            -0.9746953863      -28.8693083899       32.6193156688  TIP3      1579            0.0000000000
     54568      1979  TIP3      H1             -1.6373880924      -28.1526250315       32.6816554420  TIP3      1579            0.0000000000
     54569      1979  TIP3      H2             -0.5044271891      -28.6372249939       31.7983125825  TIP3      1579            0.0000000000
     54570      1980  TIP3      OH2            -4.9243126594      -28.0311590798       25.2508741840  TIP3      1580            0.0000000000
     54571      1980  TIP3      H1             -5.6733161966      -27.8120269196       25.8550198681  TIP3      1580            0.0000000000
     54572      1980  TIP3      H2             -4.4770935793      -28.7401237260       25.7439544783  TIP3      1580            0.0000000000
     54573      1981  TIP3      OH2            -5.0138328786      -29.8870681605       34.3630365739  TIP3      1581            0.0000000000
     54574      1981  TIP3      H1             -4.9725177415      -29.0811531787       34.8992701901  TIP3      1581            0.0000000000
     54575      1981  TIP3      H2             -5.6394484922      -29.5840865338       33.6660033175  TIP3      1581            0.0000000000
     54576      1982  TIP3      OH2           -13.3187378999      -27.3981338505       27.1832190943  TIP3      1582            0.0000000000
     54577      1982  TIP3      H1            -13.6332316089      -27.7744512661       26.3258449411  TIP3      1582            0.0000000000
     54578      1982  TIP3      H2            -12.6843565964      -28.0782783994       27.4793958255  TIP3      1582            0.0000000000
     54579      1983  TIP3      OH2           -11.9617771691      -23.9801312224       29.8439085299  TIP3      1583            0.0000000000
     54580      1983  TIP3      H1            -12.0106051378      -24.5443200260       29.0608942587  TIP3      1583            0.0000000000
     54581      1983  TIP3      H2            -11.1980449680      -24.3608993567       30.3154452908  TIP3      1583            0.0000000000
     54582      1984  TIP3      OH2           -12.9182712994      -28.6770845756       30.7943187179  TIP3      1584            0.0000000000
     54583      1984  TIP3      H1            -12.3827565951      -28.4364239214       30.0275583330  TIP3      1584            0.0000000000
     54584      1984  TIP3      H2            -12.6226822145      -27.9838874554       31.4473070864  TIP3      1584            0.0000000000
     54585      1985  TIP3      OH2            -6.6075815960      -23.1105766801       31.5144406014  TIP3      1585            0.0000000000
     54586      1985  TIP3      H1             -6.8535490681      -22.4626771441       32.1800991641  TIP3      1585            0.0000000000
     54587      1985  TIP3      H2             -6.8273210624      -23.9649604359       31.9581670686  TIP3      1585            0.0000000000
     54588      1986  TIP3      OH2           -12.0024806242      -24.1941739609       35.4830793318  TIP3      1586            0.0000000000
     54589      1986  TIP3      H1            -12.4010551820      -23.4705072368       35.9929389739  TIP3      1586            0.0000000000
     54590      1986  TIP3      H2            -12.7116385496      -24.4220986938       34.8321809179  TIP3      1586            0.0000000000
     54591      1987  TIP3      OH2            -6.1004160636      -28.8634406040       22.9336683119  TIP3      1587            0.0000000000
     54592      1987  TIP3      H1             -5.4992129795      -28.7142707968       23.7085951653  TIP3      1587            0.0000000000
     54593      1987  TIP3      H2             -5.6296667711      -28.3842438530       22.2296655659  TIP3      1587            0.0000000000
     54594      1988  TIP3      OH2           -15.1351180842      -28.0748827589       34.6749445533  TIP3      1588            0.0000000000
     54595      1988  TIP3      H1            -15.0240207790      -27.4091620435       35.4131429610  TIP3      1588            0.0000000000
     54596      1988  TIP3      H2            -16.0444559826      -27.9333567953       34.4347005892  TIP3      1588            0.0000000000
     54597      1989  TIP3      OH2            -8.3483299116      -22.1508270757       26.3976565718  TIP3      1589            0.0000000000
     54598      1989  TIP3      H1             -7.8717539671      -21.8299257948       27.1729569617  TIP3      1589            0.0000000000
     54599      1989  TIP3      H2             -8.9079239196      -21.4023906740       26.1600939576  TIP3      1589            0.0000000000
     54600      1990  TIP3      OH2           -13.7954931082      -22.1475661199       36.2719236805  TIP3      1590            0.0000000000
     54601      1990  TIP3      H1            -13.8190030465      -22.3097479591       35.3144697607  TIP3      1590            0.0000000000
     54602      1990  TIP3      H2            -14.7260349254      -22.3076879057       36.5251954258  TIP3      1590            0.0000000000
     54603      1991  TIP3      OH2            -2.3542338251      -37.1260724540       22.8023985730  TIP3      1591            0.0000000000
     54604      1991  TIP3      H1             -3.2834916303      -36.9889688119       23.0614029898  TIP3      1591            0.0000000000
     54605      1991  TIP3      H2             -2.1188455034      -36.2978086285       22.3661124730  TIP3      1591            0.0000000000
     54606      1992  TIP3      OH2           -14.3042246016      -28.3644400361       24.7537435772  TIP3      1592            0.0000000000
     54607      1992  TIP3      H1            -14.6056235331      -27.5657236537       24.2570195077  TIP3      1592            0.0000000000
     54608      1992  TIP3      H2            -14.9982417108      -29.0013572661       24.5871460678  TIP3      1592            0.0000000000
     54609      1993  TIP3      OH2           -18.2364646299      -25.9496519005       33.6070946879  TIP3      1593            0.0000000000
     54610      1993  TIP3      H1            -18.7129871570      -26.0209791631       32.7623959872  TIP3      1593            0.0000000000
     54611      1993  TIP3      H2            -18.1907945771      -26.8884609255       33.8749087207  TIP3      1593            0.0000000000
     54612      1994  TIP3      OH2           -18.4744468573      -23.2072912125       30.4472980810  TIP3      1594            0.0000000000
     54613      1994  TIP3      H1            -17.5170590591      -23.3314671150       30.4272524790  TIP3      1594            0.0000000000
     54614      1994  TIP3      H2            -18.5705760042      -22.4025895773       30.9740503504  TIP3      1594            0.0000000000
     54615      1995  TIP3      OH2            -0.2390724346      -22.5219965227       36.1232914736  TIP3      1595            0.0000000000
     54616      1995  TIP3      H1             -0.3453977172      -23.4823578802       36.1061779371  TIP3      1595            0.0000000000
     54617      1995  TIP3      H2             -1.1049206430      -22.2645937822       36.5366213494  TIP3      1595            0.0000000000
     54618      1996  TIP3      OH2            -9.2819552438      -22.9586434186       34.9918505546  TIP3      1596            0.0000000000
     54619      1996  TIP3      H1             -9.2106631971      -22.1190535895       35.5022903784  TIP3      1596            0.0000000000
     54620      1996  TIP3      H2            -10.1564167108      -23.3050858184       35.2579899500  TIP3      1596            0.0000000000
     54621      1997  TIP3      OH2            -8.9174246992      -19.1980139006       24.8230632277  TIP3      1597            0.0000000000
     54622      1997  TIP3      H1             -8.9289334622      -19.2966326748       23.8513698155  TIP3      1597            0.0000000000
     54623      1997  TIP3      H2             -8.8157321580      -18.2369056813       24.9461182141  TIP3      1597            0.0000000000
     54624      1998  TIP3      OH2           -15.2128946121      -20.3571692947       26.6028918660  TIP3      1598            0.0000000000
     54625      1998  TIP3      H1            -15.0681590839      -20.7595424613       27.4872906459  TIP3      1598            0.0000000000
     54626      1998  TIP3      H2            -16.0628757204      -20.7574479140       26.3547519646  TIP3      1598            0.0000000000
     54627      1999  TIP3      OH2            -6.1546327791      -20.1105411741       24.5456470955  TIP3      1599            0.0000000000
     54628      1999  TIP3      H1             -7.0774790521      -20.0067120962       24.7535427507  TIP3      1599            0.0000000000
     54629      1999  TIP3      H2             -5.8311319146      -20.8105770138       25.1242568816  TIP3      1599            0.0000000000
     54630      2000  TIP3      OH2            -3.1251890944      -31.0276820881       36.6177319962  TIP3      1600            0.0000000000
     54631      2000  TIP3      H1             -3.5410679744      -30.5666071793       35.8740847822  TIP3      1600            0.0000000000
     54632      2000  TIP3      H2             -3.0907979430      -31.9451901502       36.2974266031  TIP3      1600            0.0000000000
     54633      2001  TIP3      OH2           -15.9662393200      -24.6106517425       34.5766026660  TIP3      1601            0.0000000000
     54634      2001  TIP3      H1            -15.7419294875      -25.0070209779       35.4685347042  TIP3      1601            0.0000000000
     54635      2001  TIP3      H2            -16.8273978489      -25.0334005927       34.3942391548  TIP3      1601            0.0000000000
     54636      2002  TIP3      OH2           -13.3131232209      -36.1804803927       30.6007159851  TIP3      1602            0.0000000000
     54637      2002  TIP3      H1            -14.2042804889      -36.2663106862       30.1856973219  TIP3      1602            0.0000000000
     54638      2002  TIP3      H2            -13.3908754809      -35.3209314847       31.0303168048  TIP3      1602            0.0000000000
     54639      2003  TIP3      OH2            -8.6568817530      -36.4646287806       33.9497826262  TIP3      1603            0.0000000000
     54640      2003  TIP3      H1             -8.2564767162      -36.8909617577       34.7284383847  TIP3      1603            0.0000000000
     54641      2003  TIP3      H2             -9.6196986985      -36.6278450962       34.0858050604  TIP3      1603            0.0000000000
     54642      2004  TIP3      OH2            -5.3487198612      -32.6795843939       34.8181592457  TIP3      1604            0.0000000000
     54643      2004  TIP3      H1             -5.8918415901      -32.8451233644       35.6284881724  TIP3      1604            0.0000000000
     54644      2004  TIP3      H2             -5.5209057099      -31.7569730032       34.5839396141  TIP3      1604            0.0000000000
     54645      2005  TIP3      OH2            -4.6264426275      -27.8334647003       20.6130286425  TIP3      1605            0.0000000000
     54646      2005  TIP3      H1             -4.5332212032      -28.0587682087       19.6698617166  TIP3      1605            0.0000000000
     54647      2005  TIP3      H2             -3.7531194639      -27.4525771719       20.7683386351  TIP3      1605            0.0000000000
     54648      2006  TIP3      OH2            -8.9791601771      -33.9450726664       21.2597210355  TIP3      1606            0.0000000000
     54649      2006  TIP3      H1             -9.2990230898      -33.9629834383       22.1851899495  TIP3      1606            0.0000000000
     54650      2006  TIP3      H2             -9.2866016726      -34.8162070252       20.9534958098  TIP3      1606            0.0000000000
     54651      2007  TIP3      OH2           -13.2109950577      -31.1998173670       31.7110821777  TIP3      1607            0.0000000000
     54652      2007  TIP3      H1            -13.9009711916      -31.2477193177       32.4229531366  TIP3      1607            0.0000000000
     54653      2007  TIP3      H2            -13.2570561113      -30.2512171208       31.4987924350  TIP3      1607            0.0000000000
     54654      2008  TIP3      OH2           -13.2329761213      -31.0215612643       26.6725064013  TIP3      1608            0.0000000000
     54655      2008  TIP3      H1            -14.1606756346      -31.3303007197       26.5317225381  TIP3      1608            0.0000000000
     54656      2008  TIP3      H2            -12.8292036769      -31.3690390110       25.8438257773  TIP3      1608            0.0000000000
     54657      2009  TIP3      OH2            -7.7223935464      -30.5899857712       25.4305812519  TIP3      1609            0.0000000000
     54658      2009  TIP3      H1             -8.1206922665      -29.7483757202       25.1274497380  TIP3      1609            0.0000000000
     54659      2009  TIP3      H2             -7.0017083352      -30.7117014175       24.7995500605  TIP3      1609            0.0000000000
     54660      2010  TIP3      OH2            -8.6146579277      -30.3697897954       36.9144032433  TIP3      1610            0.0000000000
     54661      2010  TIP3      H1             -9.1886549516      -31.1217941384       37.2118942194  TIP3      1610            0.0000000000
     54662      2010  TIP3      H2             -7.7880890168      -30.5289402450       37.3732786519  TIP3      1610            0.0000000000
     54663      2011  TIP3      OH2            -6.7157747411      -31.1054086961       28.2737308709  TIP3      1611            0.0000000000
     54664      2011  TIP3      H1             -6.9181308430      -30.5261893291       27.5176866201  TIP3      1611            0.0000000000
     54665      2011  TIP3      H2             -6.5511632567      -31.9502712967       27.8027697723  TIP3      1611            0.0000000000
     54666      2012  TIP3      OH2           -15.5170852649      -30.9140488858       33.5239361854  TIP3      1612            0.0000000000
     54667      2012  TIP3      H1            -15.5203421715      -30.4953699354       34.4132353262  TIP3      1612            0.0000000000
     54668      2012  TIP3      H2            -16.0071112386      -31.7364952766       33.6824315124  TIP3      1612            0.0000000000
     54669      2013  TIP3      OH2           -18.9064617056      -33.7905780483       27.4363251707  TIP3      1613            0.0000000000
     54670      2013  TIP3      H1            -18.2437304102      -33.8293285030       28.1512721863  TIP3      1613            0.0000000000
     54671      2013  TIP3      H2            -18.4467311352      -34.2071846239       26.6839607832  TIP3      1613            0.0000000000
     54672      2014  TIP3      OH2           -17.6394199387      -33.0543840545       22.8108647661  TIP3      1614            0.0000000000
     54673      2014  TIP3      H1            -17.1351974981      -32.4543654599       22.2714365873  TIP3      1614            0.0000000000
     54674      2014  TIP3      H2            -18.3353360691      -32.5001037753       23.2037089601  TIP3      1614            0.0000000000
     54675      2015  TIP3      OH2            -7.4748620408      -29.4829521683       32.8766103488  TIP3      1615            0.0000000000
     54676      2015  TIP3      H1             -7.1052717684      -30.1500761816       32.2686462776  TIP3      1615            0.0000000000
     54677      2015  TIP3      H2             -7.9017692107      -30.0276661693       33.5620452133  TIP3      1615            0.0000000000
     54678      2016  TIP3      OH2           -10.6729928718      -33.5157873987       27.6944153648  TIP3      1616            0.0000000000
     54679      2016  TIP3      H1            -11.6087293320      -33.5302301327       27.9826108352  TIP3      1616            0.0000000000
     54680      2016  TIP3      H2            -10.1673276935      -33.6623356228       28.5080022839  TIP3      1616            0.0000000000
     54681      2017  TIP3      OH2           -15.8368041333      -31.9369417925       26.5371141625  TIP3      1617            0.0000000000
     54682      2017  TIP3      H1            -16.7437473987      -31.8376542658       26.1755250361  TIP3      1617            0.0000000000
     54683      2017  TIP3      H2            -15.5629857567      -32.7910273364       26.1631216875  TIP3      1617            0.0000000000
     54684      2018  TIP3      OH2           -12.2198851642      -31.9063975251       24.2038822026  TIP3      1618            0.0000000000
     54685      2018  TIP3      H1            -11.2593676578      -31.8270369104       24.3541286104  TIP3      1618            0.0000000000
     54686      2018  TIP3      H2            -12.4175961685      -31.2545687221       23.5352951238  TIP3      1618            0.0000000000
     54687      2019  TIP3      OH2            -6.2527963040      -34.3171744033       30.9424030488  TIP3      1619            0.0000000000
     54688      2019  TIP3      H1             -6.9559603123      -34.2089920329       31.6250730401  TIP3      1619            0.0000000000
     54689      2019  TIP3      H2             -6.7714097992      -34.4999416635       30.1449969767  TIP3      1619            0.0000000000
     54690      2020  TIP3      OH2            -3.0113018105      -18.6406515489       37.3265196631  TIP3      1620            0.0000000000
     54691      2020  TIP3      H1             -2.8140678215      -18.2744938840       36.4185109694  TIP3      1620            0.0000000000
     54692      2020  TIP3      H2             -2.2948757744      -18.2977896906       37.8560975789  TIP3      1620            0.0000000000
     54693      2021  TIP3      OH2           -15.7782546149      -25.8592429850       36.7740906916  TIP3      1621            0.0000000000
     54694      2021  TIP3      H1            -14.9019074041      -25.8918899332       37.2795047201  TIP3      1621            0.0000000000
     54695      2021  TIP3      H2            -16.3326774335      -26.0111296449       37.5225686221  TIP3      1621            0.0000000000
     54696      2022  TIP3      OH2            -9.4295087440      -30.7818577395       29.5711256219  TIP3      1622            0.0000000000
     54697      2022  TIP3      H1             -8.7862464168      -31.3028499298       29.0439340266  TIP3      1622            0.0000000000
     54698      2022  TIP3      H2             -9.4794750212      -31.3114678556       30.3794235677  TIP3      1622            0.0000000000
     54699      2023  TIP3      OH2           -14.3628958829      -34.6157443698       26.0134143394  TIP3      1623            0.0000000000
     54700      2023  TIP3      H1            -14.6710622694      -35.5421591209       25.9703241454  TIP3      1623            0.0000000000
     54701      2023  TIP3      H2            -13.5796482118      -34.6578319852       25.4480562496  TIP3      1623            0.0000000000
     54702      2024  TIP3      OH2           -10.7355266826      -32.3855843068       31.9619759387  TIP3      1624            0.0000000000
     54703      2024  TIP3      H1            -11.5768627515      -31.9361329539       32.1313042497  TIP3      1624            0.0000000000
     54704      2024  TIP3      H2            -10.1953509532      -32.1100148331       32.7424579675  TIP3      1624            0.0000000000
     54705      2025  TIP3      OH2           -10.1404234143      -26.2340001403       23.6671221340  TIP3      1625            0.0000000000
     54706      2025  TIP3      H1            -10.9687228931      -26.6640708053       23.3725308235  TIP3      1625            0.0000000000
     54707      2025  TIP3      H2            -10.3442223346      -26.0937985898       24.6214891146  TIP3      1625            0.0000000000
     54708      2026  TIP3      OH2            -3.0079086833      -27.0370754173       32.4881403278  TIP3      1626            0.0000000000
     54709      2026  TIP3      H1             -2.4030254458      -26.5624502893       31.8936352220  TIP3      1626            0.0000000000
     54710      2026  TIP3      H2             -3.8561789931      -26.9374123584       32.0060577334  TIP3      1626            0.0000000000
     54711      2027  TIP3      OH2            -8.6421155689      -25.9743471008       34.9295955164  TIP3      1627            0.0000000000
     54712      2027  TIP3      H1             -9.0384079535      -26.3679005441       35.7174304309  TIP3      1627            0.0000000000
     54713      2027  TIP3      H2             -8.8867548739      -25.0452858276       35.0092046241  TIP3      1627            0.0000000000
     54714      2028  TIP3      OH2            -5.5769255978      -31.5193105793       23.5229452149  TIP3      1628            0.0000000000
     54715      2028  TIP3      H1             -4.6752374512      -31.6234531597       23.8849811941  TIP3      1628            0.0000000000
     54716      2028  TIP3      H2             -5.5220619120      -30.6886867860       23.0253723283  TIP3      1628            0.0000000000
     54717      2029  TIP3      OH2           -15.0530617366      -26.8556508723       29.4735325998  TIP3      1629            0.0000000000
     54718      2029  TIP3      H1            -14.3324547397      -26.8835237707       28.8188510360  TIP3      1629            0.0000000000
     54719      2029  TIP3      H2            -14.9932361021      -27.6994457781       29.9406317115  TIP3      1629            0.0000000000
     54720      2030  TIP3      OH2           -18.0689928754      -28.4082810948       34.7524475910  TIP3      1630            0.0000000000
     54721      2030  TIP3      H1            -17.8399252167      -28.8414604046       35.6022290936  TIP3      1630            0.0000000000
     54722      2030  TIP3      H2            -18.6716435153      -29.0405588323       34.3293702626  TIP3      1630            0.0000000000
     54723      2031  TIP3      OH2           -11.0113229599      -28.9197478811       36.9844942651  TIP3      1631            0.0000000000
     54724      2031  TIP3      H1            -11.3543534348      -29.0795374404       36.0898598355  TIP3      1631            0.0000000000
     54725      2031  TIP3      H2            -10.0881002610      -29.1464103420       36.9346105379  TIP3      1631            0.0000000000
     54726      2032  TIP3      OH2            -6.3969478432      -23.5466182613       34.8604818571  TIP3      1632            0.0000000000
     54727      2032  TIP3      H1             -7.3133746147      -23.3378993091       34.6260418044  TIP3      1632            0.0000000000
     54728      2032  TIP3      H2             -6.3874968175      -23.2485026822       35.7942492830  TIP3      1632            0.0000000000
     54729      2033  TIP3      OH2            -0.6859987538      -31.3136688886       23.2574044444  TIP3      1633            0.0000000000
     54730      2033  TIP3      H1             -1.2397421576      -31.6648124323       22.5537661315  TIP3      1633            0.0000000000
     54731      2033  TIP3      H2             -0.5914462540      -30.3778826746       22.9672949692  TIP3      1633            0.0000000000
     54732      2034  TIP3      OH2            -0.7017172327      -25.4884870083       36.0884146306  TIP3      1634            0.0000000000
     54733      2034  TIP3      H1             -1.5852173883      -25.2533670983       35.7109000007  TIP3      1634            0.0000000000
     54734      2034  TIP3      H2             -0.1347276573      -25.5038947190       35.2939504817  TIP3      1634            0.0000000000
     54735      2035  TIP3      OH2            -2.3671334236      -22.5470653687       23.6881713041  TIP3      1635            0.0000000000
     54736      2035  TIP3      H1             -2.7892709278      -23.3364591434       24.0110029677  TIP3      1635            0.0000000000
     54737      2035  TIP3      H2             -2.1357025563      -22.6614653477       22.7774650100  TIP3      1635            0.0000000000
     54738      2036  TIP3      OH2            -5.2107342831      -27.6841745032       30.7482288469  TIP3      1636            0.0000000000
     54739      2036  TIP3      H1             -6.1534884517      -27.9186471187       30.6814275791  TIP3      1636            0.0000000000
     54740      2036  TIP3      H2             -4.7746238619      -28.4681799721       30.3695573618  TIP3      1636            0.0000000000
     54741      2037  TIP3      OH2           -12.6959609723      -23.3712054581       26.8807015726  TIP3      1637            0.0000000000
     54742      2037  TIP3      H1            -12.1625179404      -22.5830033015       26.6533317792  TIP3      1637            0.0000000000
     54743      2037  TIP3      H2            -13.5643064816      -23.1298603522       26.5370318602  TIP3      1637            0.0000000000
     54744      2038  TIP3      OH2           -11.2410987687      -25.7138465461       26.4295926581  TIP3      1638            0.0000000000
     54745      2038  TIP3      H1            -11.5229546631      -24.7780934386       26.4812008259  TIP3      1638            0.0000000000
     54746      2038  TIP3      H2            -12.0058383122      -26.1615551869       26.8267747937  TIP3      1638            0.0000000000
     54747      2039  TIP3      OH2           -10.7851080329      -21.5366409594       32.7658639193  TIP3      1639            0.0000000000
     54748      2039  TIP3      H1            -10.3679878183      -20.6980903114       32.5102153165  TIP3      1639            0.0000000000
     54749      2039  TIP3      H2            -10.2003869595      -21.8454761482       33.4838053641  TIP3      1639            0.0000000000
     54750      2040  TIP3      OH2           -12.5698719797      -20.6977137175       25.9568858926  TIP3      1640            0.0000000000
     54751      2040  TIP3      H1            -13.5365902409      -20.5747093486       26.0562564525  TIP3      1640            0.0000000000
     54752      2040  TIP3      H2            -12.2203718375      -19.8615258690       26.3144853446  TIP3      1640            0.0000000000
     54753      2041  TIP3      OH2            -7.2314766733      -25.4744334485       32.4328761084  TIP3      1641            0.0000000000
     54754      2041  TIP3      H1             -7.6217518180      -25.6875202135       33.3010294713  TIP3      1641            0.0000000000
     54755      2041  TIP3      H2             -6.6205118737      -26.2040006896       32.2618344622  TIP3      1641            0.0000000000
     54756      2042  TIP3      OH2            -4.9821976913      -24.5356132313       21.5102403516  TIP3      1642            0.0000000000
     54757      2042  TIP3      H1             -4.6626398180      -24.9165739663       22.3416881867  TIP3      1642            0.0000000000
     54758      2042  TIP3      H2             -5.9307434484      -24.5811207295       21.6158549635  TIP3      1642            0.0000000000
     54759      2043  TIP3      OH2            -4.6621601775      -21.3253359137       34.9917657438  TIP3      1643            0.0000000000
     54760      2043  TIP3      H1             -5.2801440364      -21.5470778509       34.3368727956  TIP3      1643            0.0000000000
     54761      2043  TIP3      H2             -4.3833156936      -20.5233656343       34.4138052620  TIP3      1643            0.0000000000
     54762      2044  TIP3      OH2            -0.4864706976      -20.0511149286       21.7125392574  TIP3      1644            0.0000000000
     54763      2044  TIP3      H1              0.2474885478      -19.4391579024       21.5732938949  TIP3      1644            0.0000000000
     54764      2044  TIP3      H2             -1.2011087227      -19.4663056894       22.0687321458  TIP3      1644            0.0000000000
     54765      2045  TIP3      OH2           -16.4052778058      -33.6785933127       34.3094097004  TIP3      1645            0.0000000000
     54766      2045  TIP3      H1            -17.3145881143      -33.3189951079       34.2624044554  TIP3      1645            0.0000000000
     54767      2045  TIP3      H2            -16.5355967057      -34.5183260709       34.7553062997  TIP3      1645            0.0000000000
     54768      2046  TIP3      OH2            -4.1394131102      -25.8432706237       23.7395449076  TIP3      1646            0.0000000000
     54769      2046  TIP3      H1             -4.4128080043      -26.5932821772       24.3103033823  TIP3      1646            0.0000000000
     54770      2046  TIP3      H2             -3.2088826192      -25.7493412460       23.9750572082  TIP3      1646            0.0000000000
     54771      2047  TIP3      OH2           -16.7730210578      -21.8598674253       32.7318237313  TIP3      1647            0.0000000000
     54772      2047  TIP3      H1            -16.5301257726      -22.8028553113       32.7337776829  TIP3      1647            0.0000000000
     54773      2047  TIP3      H2            -16.5254359706      -21.5944581416       33.6279684121  TIP3      1647            0.0000000000
     54774      2048  TIP3      OH2           -10.8705367691      -23.4167415689       19.9883630121  TIP3      1648            0.0000000000
     54775      2048  TIP3      H1            -10.6915873072      -24.1418346437       19.4089215344  TIP3      1648            0.0000000000
     54776      2048  TIP3      H2            -11.2293095211      -23.7887539882       20.8002556249  TIP3      1648            0.0000000000
     54777      2049  TIP3      OH2           -15.5144465168      -26.6019315035       22.9199884096  TIP3      1649            0.0000000000
     54778      2049  TIP3      H1            -16.2036358602      -26.2142682064       23.4972272494  TIP3      1649            0.0000000000
     54779      2049  TIP3      H2            -14.9898319386      -25.8171348329       22.6808566458  TIP3      1649            0.0000000000
     54780      2050  TIP3      OH2            -7.6831523540      -33.9094782572       33.2243562910  TIP3      1650            0.0000000000
     54781      2050  TIP3      H1             -6.9767077416      -33.8524859591       33.8797526390  TIP3      1650            0.0000000000
     54782      2050  TIP3      H2             -8.0639647780      -34.7930017136       33.4040163673  TIP3      1650            0.0000000000
     54783      2051  TIP3      OH2            -6.9008916051      -34.3041763444       24.2991000644  TIP3      1651            0.0000000000
     54784      2051  TIP3      H1             -6.6883756233      -33.7870195088       23.5252468810  TIP3      1651            0.0000000000
     54785      2051  TIP3      H2             -6.3514457199      -33.8844703367       24.9847409734  TIP3      1651            0.0000000000
     54786      2052  TIP3      OH2            -9.2228935273      -22.1552517896       23.1758117804  TIP3      1652            0.0000000000
     54787      2052  TIP3      H1            -10.0596915073      -21.6607934534       23.2244984493  TIP3      1652            0.0000000000
     54788      2052  TIP3      H2             -8.7013612951      -21.6629111782       22.5319406770  TIP3      1652            0.0000000000
     54789      2053  TIP3      OH2            -9.7204624486      -32.5409650623       25.1502717943  TIP3      1653            0.0000000000
     54790      2053  TIP3      H1             -8.8860651358      -32.0295592043       25.1935076336  TIP3      1653            0.0000000000
     54791      2053  TIP3      H2             -9.9465840164      -32.7066963653       26.0789820526  TIP3      1653            0.0000000000
     54792      2054  TIP3      OH2            -9.1635960327      -31.5586935170       34.3269341986  TIP3      1654            0.0000000000
     54793      2054  TIP3      H1             -9.0609534475      -30.9863830037       35.1100945578  TIP3      1654            0.0000000000
     54794      2054  TIP3      H2             -8.5019005193      -32.2530252943       34.4454981882  TIP3      1654            0.0000000000
     54795      2055  TIP3      OH2            -8.8320821774      -35.4963064653       26.0781953467  TIP3      1655            0.0000000000
     54796      2055  TIP3      H1             -9.1663041083      -34.8497688056       26.7276880153  TIP3      1655            0.0000000000
     54797      2055  TIP3      H2             -8.1549496982      -34.9522309138       25.6100495171  TIP3      1655            0.0000000000
     54798      2056  TIP3      OH2           -11.8981878515      -21.0892033918       23.1708415454  TIP3      1656            0.0000000000
     54799      2056  TIP3      H1            -11.7237838357      -20.3084481482       22.6630049181  TIP3      1656            0.0000000000
     54800      2056  TIP3      H2            -12.1037730983      -20.8036741151       24.0747904230  TIP3      1656            0.0000000000
     54801      2057  TIP3      OH2           -13.1679004496      -34.4124291045       22.7775695765  TIP3      1657            0.0000000000
     54802      2057  TIP3      H1            -13.2413526416      -33.5178999140       23.1215912990  TIP3      1657            0.0000000000
     54803      2057  TIP3      H2            -12.2663148715      -34.6687819545       23.0055236422  TIP3      1657            0.0000000000
     54804      2058  TIP3      OH2            -2.9494154028      -33.6759743890       35.1840944941  TIP3      1658            0.0000000000
     54805      2058  TIP3      H1             -3.8889384888      -33.3825038285       35.0722167917  TIP3      1658            0.0000000000
     54806      2058  TIP3      H2             -2.6441351394      -33.6675481138       34.2694091757  TIP3      1658            0.0000000000
     54807      2059  TIP3      OH2            -4.3591674731      -29.8948944302       29.2399986782  TIP3      1659            0.0000000000
     54808      2059  TIP3      H1             -5.1716042137      -30.3308269079       28.9334242411  TIP3      1659            0.0000000000
     54809      2059  TIP3      H2             -3.8991890614      -30.5970728563       29.7509523284  TIP3      1659            0.0000000000
     54810      2060  TIP3      OH2            -3.2697238084      -20.6995640697       30.8567402423  TIP3      1660            0.0000000000
     54811      2060  TIP3      H1             -3.4208287054      -19.9548794756       30.2293888688  TIP3      1660            0.0000000000
     54812      2060  TIP3      H2             -2.3289000528      -20.5673186053       31.0786230258  TIP3      1660            0.0000000000
     54813      2061  TIP3      OH2           -15.7794453934      -36.5189875108       29.6598066246  TIP3      1661            0.0000000000
     54814      2061  TIP3      H1            -16.0057622447      -36.4816132107       28.7002102904  TIP3      1661            0.0000000000
     54815      2061  TIP3      H2            -16.2264778735      -37.3462970859       29.9230233274  TIP3      1661            0.0000000000
     54816      2062  TIP3      OH2           -16.8520017592      -22.5942454971       25.8129289844  TIP3      1662            0.0000000000
     54817      2062  TIP3      H1            -17.6913500742      -22.1194237863       25.8011161584  TIP3      1662            0.0000000000
     54818      2062  TIP3      H2            -16.3240134674      -22.0995455298       25.1676379390  TIP3      1662            0.0000000000
     54819      2063  TIP3      OH2           -17.5923758638      -19.9634179019       37.1079911940  TIP3      1663            0.0000000000
     54820      2063  TIP3      H1            -17.0207609143      -20.1830646510       37.8727277213  TIP3      1663            0.0000000000
     54821      2063  TIP3      H2            -18.0419246222      -20.8043427101       36.9307315468  TIP3      1663            0.0000000000
     54822      2064  TIP3      OH2           -12.9632286321      -21.0465693598       38.7396502863  TIP3      1664            0.0000000000
     54823      2064  TIP3      H1            -12.1900286176      -21.5259995833       39.0643301309  TIP3      1664            0.0000000000
     54824      2064  TIP3      H2            -12.9801617749      -21.3049404389       37.7929420731  TIP3      1664            0.0000000000
     54825      2065  TIP3      OH2            -6.4310582440      -22.6581997341       37.4651167746  TIP3      1665            0.0000000000
     54826      2065  TIP3      H1             -6.7482660242      -23.5416589092       37.7181184912  TIP3      1665            0.0000000000
     54827      2065  TIP3      H2             -5.6591719522      -22.5282286208       38.0509821039  TIP3      1665            0.0000000000
     54828      2066  TIP3      OH2           -17.7927515773      -26.2091634148       38.1830734783  TIP3      1666            0.0000000000
     54829      2066  TIP3      H1            -17.5162013481      -27.0616084674       37.7769266631  TIP3      1666            0.0000000000
     54830      2066  TIP3      H2            -18.4402288575      -25.8841659236       37.5401389336  TIP3      1666            0.0000000000
     54831      2067  TIP3      OH2           -10.7931614646      -26.1568969497       37.4827267761  TIP3      1667            0.0000000000
     54832      2067  TIP3      H1            -11.3535319294      -25.9219156770       36.6874360324  TIP3      1667            0.0000000000
     54833      2067  TIP3      H2            -10.9128947081      -27.1373640882       37.4098148766  TIP3      1667            0.0000000000
     54834      2068  TIP3      OH2            -5.2856656195      -26.3099790790       34.9026622290  TIP3      1668            0.0000000000
     54835      2068  TIP3      H1             -4.5188123980      -25.7025532704       34.7830261193  TIP3      1668            0.0000000000
     54836      2068  TIP3      H2             -6.0152401283      -25.6739251475       34.9266390902  TIP3      1668            0.0000000000
     54837      2069  TIP3      OH2           -16.8448922304      -28.9547955455       37.4849335887  TIP3      1669            0.0000000000
     54838      2069  TIP3      H1            -16.3962078081      -29.8060106173       37.3806180826  TIP3      1669            0.0000000000
     54839      2069  TIP3      H2            -17.0581774468      -28.9447706994       38.4357459017  TIP3      1669            0.0000000000
     54840      2070  TIP3      OH2           -12.1552974103      -27.8138163919       22.5806116273  TIP3      1670            0.0000000000
     54841      2070  TIP3      H1            -12.6636089763      -28.3216250768       23.2243155990  TIP3      1670            0.0000000000
     54842      2070  TIP3      H2            -11.9437174783      -28.4796764842       21.9250581821  TIP3      1670            0.0000000000
     54843      2071  TIP3      OH2           -12.8967978925      -29.9968776439       34.8462432510  TIP3      1671            0.0000000000
     54844      2071  TIP3      H1            -13.4778752846      -29.2643453221       35.1559229257  TIP3      1671            0.0000000000
     54845      2071  TIP3      H2            -12.5211726866      -29.6098310365       34.0489097371  TIP3      1671            0.0000000000
     54846      2072  TIP3      OH2            -7.8267048732      -27.4562934417       38.2125363896  TIP3      1672            0.0000000000
     54847      2072  TIP3      H1             -6.8840549852      -27.4047964530       38.0371712611  TIP3      1672            0.0000000000
     54848      2072  TIP3      H2             -8.0666233964      -28.2235070529       38.7394974116  TIP3      1672            0.0000000000
     54849      2073  TIP3      OH2           -12.5216154722      -32.6267246550       35.9313209063  TIP3      1673            0.0000000000
     54850      2073  TIP3      H1            -12.3755152556      -33.3357759624       35.2957029612  TIP3      1673            0.0000000000
     54851      2073  TIP3      H2            -12.5390504369      -31.8112867679       35.3830988779  TIP3      1673            0.0000000000
     54852      2074  TIP3      OH2           -12.1118901619      -34.2385385683       33.4515220070  TIP3      1674            0.0000000000
     54853      2074  TIP3      H1            -11.5774543580      -33.7794301486       32.7652066800  TIP3      1674            0.0000000000
     54854      2074  TIP3      H2            -12.9885204050      -34.3304817931       33.0187256067  TIP3      1674            0.0000000000
     54855      2075  TIP3      OH2           -10.5568922628      -28.8039962993       33.6590092014  TIP3      1675            0.0000000000
     54856      2075  TIP3      H1             -9.7780057312      -28.9292456173       33.1185608264  TIP3      1675            0.0000000000
     54857      2075  TIP3      H2            -10.8878643487      -27.9251581973       33.4054064324  TIP3      1675            0.0000000000
     54858      2076  TIP3      OH2            -6.1339286521      -30.9582013878       38.7164427992  TIP3      1676            0.0000000000
     54859      2076  TIP3      H1             -5.9388313115      -31.9145687060       38.5850449438  TIP3      1676            0.0000000000
     54860      2076  TIP3      H2             -5.2449594570      -30.5859644388       38.6673163609  TIP3      1676            0.0000000000
     54861      2077  TIP3      OH2            -4.8353656935      -28.1985841876       36.8332160876  TIP3      1677            0.0000000000
     54862      2077  TIP3      H1             -5.0739478859      -27.4811141688       36.1925751463  TIP3      1677            0.0000000000
     54863      2077  TIP3      H2             -3.8701122611      -28.2514928770       36.6154906795  TIP3      1677            0.0000000000
     54864      2078  TIP3      OH2           -14.0384329872      -31.3977518965       37.8629037662  TIP3      1678            0.0000000000
     54865      2078  TIP3      H1            -14.8184644347      -31.9449795847       37.6413679948  TIP3      1678            0.0000000000
     54866      2078  TIP3      H2            -13.3789999123      -31.7205424107       37.2231764755  TIP3      1678            0.0000000000
     54867      2079  TIP3      OH2           -11.3242000789      -36.7990809069       33.8873568707  TIP3      1679            0.0000000000
     54868      2079  TIP3      H1            -11.4308309082      -35.8263519074       33.7530000721  TIP3      1679            0.0000000000
     54869      2079  TIP3      H2            -12.0518390585      -37.1518965066       33.3529291488  TIP3      1679            0.0000000000
     54870      2080  TIP3      OH2           -10.0373646525      -32.4667226500       37.4510900125  TIP3      1680            0.0000000000
     54871      2080  TIP3      H1            -10.3172113968      -32.6861700717       38.3569343966  TIP3      1680            0.0000000000
     54872      2080  TIP3      H2            -10.8353870847      -32.6651006976       36.9209251332  TIP3      1680            0.0000000000
     54873      2081  TIP3      OH2            -7.3228048696      -33.3341671361       36.5138059745  TIP3      1681            0.0000000000
     54874      2081  TIP3      H1             -8.2864792428      -33.2904552809       36.6546438329  TIP3      1681            0.0000000000
     54875      2081  TIP3      H2             -7.0340623272      -33.9623390925       37.1957974113  TIP3      1681            0.0000000000
     54876      2082  TIP3      OH2            -5.7183829415      -34.6961020869       38.4896087708  TIP3      1682            0.0000000000
     54877      2082  TIP3      H1             -5.7922511351      -35.6675360650       38.5032673529  TIP3      1682            0.0000000000
     54878      2082  TIP3      H2             -6.0159151313      -34.4167800910       39.3849371082  TIP3      1682            0.0000000000
     54879      2083  TIP3      OH2           -15.8995998055      -33.4660377442       37.5547653533  TIP3      1683            0.0000000000
     54880      2083  TIP3      H1            -15.6757384342      -34.1873781876       36.9583090726  TIP3      1683            0.0000000000
     54881      2083  TIP3      H2            -16.0044509046      -33.9013906531       38.4282141981  TIP3      1683            0.0000000000
     54882      2084  TIP3      OH2           -11.1248359741      -37.4664342519       36.5443156361  TIP3      1684            0.0000000000
     54883      2084  TIP3      H1            -10.3861649768      -38.1225027595       36.5292236818  TIP3      1684            0.0000000000
     54884      2084  TIP3      H2            -11.1763265732      -37.2324607084       35.6021242596  TIP3      1684            0.0000000000
     54885      2085  TIP3      OH2           -10.7467002341      -35.8097983370       38.6232385194  TIP3      1685            0.0000000000
     54886      2085  TIP3      H1            -10.8775998162      -36.2946398365       37.7779583359  TIP3      1685            0.0000000000
     54887      2085  TIP3      H2            -11.3309210100      -35.0356154609       38.5387649023  TIP3      1685            0.0000000000
     54888      2086  TIP3      OH2           -18.9484484603      -18.9011872205       26.2948367557  TIP3      1686            0.0000000000
     54889      2086  TIP3      H1            -19.6357521766      -19.3796286691       25.7910870753  TIP3      1686            0.0000000000
     54890      2086  TIP3      H2            -18.6330175861      -19.5694815677       26.9233365218  TIP3      1686            0.0000000000
     54891      2087  TIP3      OH2           -18.1037140960      -20.8011002264       28.1316206377  TIP3      1687            0.0000000000
     54892      2087  TIP3      H1            -18.4477070765      -21.6850391982       28.3223530383  TIP3      1687            0.0000000000
     54893      2087  TIP3      H2            -17.8788941323      -20.4641040101       29.0168157030  TIP3      1687            0.0000000000
     54894      2088  TIP3      OH2            -0.5561653904      -20.0110466347       31.0911797344  TIP3      1688            0.0000000000
     54895      2088  TIP3      H1             -0.5724004769      -19.8151264980       32.0459876629  TIP3      1688            0.0000000000
     54896      2088  TIP3      H2              0.1316567642      -19.4162029186       30.7807956931  TIP3      1688            0.0000000000
     54897      2089  TIP3      OH2            -0.9492800848      -20.4174034663       34.0139712571  TIP3      1689            0.0000000000
     54898      2089  TIP3      H1             -1.4841723755      -21.1636844524       33.6652799479  TIP3      1689            0.0000000000
     54899      2089  TIP3      H2             -0.4673459064      -20.8452638320       34.7328136829  TIP3      1689            0.0000000000
     54900      2090  TIP3      OH2            -2.5443394952      -24.6689811770       38.6735614679  TIP3      1690            0.0000000000
     54901      2090  TIP3      H1             -3.4249822126      -24.7176808037       39.0761242896  TIP3      1690            0.0000000000
     54902      2090  TIP3      H2             -2.1695788929      -23.8781194273       39.1228137761  TIP3      1690            0.0000000000
     54903      2091  TIP3      OH2            -1.2285867341      -26.3697547040       24.1347020051  TIP3      1691            0.0000000000
     54904      2091  TIP3      H1             -0.3766976088      -25.9582022225       24.3496296611  TIP3      1691            0.0000000000
     54905      2091  TIP3      H2             -1.2437332401      -27.1070720751       24.8024942894  TIP3      1691            0.0000000000
     54906      2092  TIP3      OH2            -0.8625819714      -28.3000988075       25.9873493180  TIP3      1692            0.0000000000
     54907      2092  TIP3      H1             -1.5971259046      -28.8012892011       26.4101858369  TIP3      1692            0.0000000000
     54908      2092  TIP3      H2             -0.2683782091      -28.1322931927       26.7545104713  TIP3      1692            0.0000000000
     54909      2093  TIP3      OH2            -1.1085189537      -25.5672692550       30.9806602569  TIP3      1693            0.0000000000
     54910      2093  TIP3      H1             -0.2674479237      -25.9326545060       30.6497920159  TIP3      1693            0.0000000000
     54911      2093  TIP3      H2             -0.9710957676      -24.6057660062       30.8304983316  TIP3      1693            0.0000000000
     54912      2094  TIP3      OH2            -2.5725735819      -22.6794715593       33.2711094918  TIP3      1694            0.0000000000
     54913      2094  TIP3      H1             -3.2550555207      -22.3302475014       33.8781069765  TIP3      1694            0.0000000000
     54914      2094  TIP3      H2             -3.1258829801      -23.0946642125       32.5753252673  TIP3      1694            0.0000000000
     54915      2095  TIP3      OH2            -0.5597022311      -28.4111010477       22.3978449004  TIP3      1695            0.0000000000
     54916      2095  TIP3      H1             -1.1296415355      -28.1164322737       21.6724918942  TIP3      1695            0.0000000000
     54917      2095  TIP3      H2             -0.6377507450      -27.7481713127       23.1001215182  TIP3      1695            0.0000000000
     54918      2096  TIP3      OH2            -3.0533762473      -29.8038593674       26.5637596876  TIP3      1696            0.0000000000
     54919      2096  TIP3      H1             -3.2124134675      -30.7589268256       26.5582443868  TIP3      1696            0.0000000000
     54920      2096  TIP3      H2             -3.4056249242      -29.5481895658       27.4339507259  TIP3      1696            0.0000000000
     54921      2097  TIP3      OH2           -18.0487299946      -27.7226615085       30.6133157875  TIP3      1697            0.0000000000
     54922      2097  TIP3      H1            -17.8452033338      -27.8067851916       29.6554794957  TIP3      1697            0.0000000000
     54923      2097  TIP3      H2            -17.1663465565      -27.8660049400       31.0020179292  TIP3      1697            0.0000000000
     54924      2098  TIP3      OH2            -2.2200699693      -27.8405711194       36.2448250074  TIP3      1698            0.0000000000
     54925      2098  TIP3      H1             -1.5969192342      -28.5834108568       36.3962184049  TIP3      1698            0.0000000000
     54926      2098  TIP3      H2             -1.6237374884      -27.0603741093       36.2624827958  TIP3      1698            0.0000000000
     54927      2099  TIP3      OH2            -0.7015481384      -29.9323035885       36.8992232936  TIP3      1699            0.0000000000
     54928      2099  TIP3      H1             -1.5784968514      -30.3363459395       36.7371350306  TIP3      1699            0.0000000000
     54929      2099  TIP3      H2             -0.1095185789      -30.6972158394       36.8368032870  TIP3      1699            0.0000000000
     54930      2100  TIP3      OH2            -3.3742960526      -32.2155127796       25.0285376202  TIP3      1700            0.0000000000
     54931      2100  TIP3      H1             -3.0719376250      -33.1451004554       25.1609446675  TIP3      1700            0.0000000000
     54932      2100  TIP3      H2             -2.5840056289      -31.8038608892       24.6542643270  TIP3      1700            0.0000000000
     54933      2101  TIP3      OH2            -2.7496516505      -31.6846799420       30.4697207160  TIP3      1701            0.0000000000
     54934      2101  TIP3      H1             -1.7978211946      -31.4208864931       30.4525871081  TIP3      1701            0.0000000000
     54935      2101  TIP3      H2             -2.9599886721      -31.5263149075       31.4062945509  TIP3      1701            0.0000000000
     54936      2102  TIP3      OH2            -2.6907533610      -30.9380989544       33.2600198559  TIP3      1702            0.0000000000
     54937      2102  TIP3      H1             -3.5612601767      -30.6448083252       33.6041664424  TIP3      1702            0.0000000000
     54938      2102  TIP3      H2             -2.2574842554      -30.0795994225       33.0372234224  TIP3      1702            0.0000000000
     54939      2103  TIP3      OH2           -18.4410646932      -32.4334372236       36.7473462442  TIP3      1703            0.0000000000
     54940      2103  TIP3      H1            -17.5033804560      -32.5913679891       36.9734191248  TIP3      1703            0.0000000000
     54941      2103  TIP3      H2            -18.8878811543      -33.2305884203       37.1061534079  TIP3      1703            0.0000000000
     54942      2104  TIP3      OH2            -0.4214258093      -36.9155103645       38.6043552106  TIP3      1704            0.0000000000
     54943      2104  TIP3      H1             -0.0690629012      -37.5766333509       37.9896071698  TIP3      1704            0.0000000000
     54944      2104  TIP3      H2             -0.2861154000      -36.0782197344       38.1291112755  TIP3      1704            0.0000000000
     54945      2105  TIP3      OH2            -2.7338656339      -34.9397553331       25.0853628964  TIP3      1705            0.0000000000
     54946      2105  TIP3      H1             -2.5377347851      -35.4056102153       25.9102305636  TIP3      1705            0.0000000000
     54947      2105  TIP3      H2             -3.3390608056      -35.5648561871       24.6213807002  TIP3      1705            0.0000000000
     54948      2106  TIP3      OH2           -17.2274368039      -34.1384583077       29.6205342820  TIP3      1706            0.0000000000
     54949      2106  TIP3      H1            -16.7616375344      -34.9471365517       29.9151083295  TIP3      1706            0.0000000000
     54950      2106  TIP3      H2            -16.7275164036      -33.4322086091       30.0463919838  TIP3      1706            0.0000000000
     54951      2107  TIP3      OH2           -18.9340172567      -31.1482380758       30.6882155629  TIP3      1707            0.0000000000
     54952      2107  TIP3      H1            -18.3925607947      -31.3664248689       29.9015246206  TIP3      1707            0.0000000000
     54953      2107  TIP3      H2            -18.5159350849      -30.3146932068       30.9556803503  TIP3      1707            0.0000000000
     54954      2108  TIP3      OH2            -0.8890706938      -34.8085610971       36.9603406443  TIP3      1708            0.0000000000
     54955      2108  TIP3      H1             -1.8315177706      -34.5401034988       36.9159985865  TIP3      1708            0.0000000000
     54956      2108  TIP3      H2             -0.8179957842      -35.3488831022       36.1596124608  TIP3      1708            0.0000000000
     54957      2109  TIP3      OH2            -0.8803439190      -34.8904551723       21.6271058308  TIP3      1709            0.0000000000
     54958      2109  TIP3      H1             -0.4731268466      -35.6167856711       21.1235138234  TIP3      1709            0.0000000000
     54959      2109  TIP3      H2             -0.1920045700      -34.2200712708       21.6705601180  TIP3      1709            0.0000000000
     54960      2110  TIP3      OH2           -18.5905807167      -34.8453593590       24.7745428540  TIP3      1710            0.0000000000
     54961      2110  TIP3      H1            -19.5262844356      -34.6861398110       24.5994641038  TIP3      1710            0.0000000000
     54962      2110  TIP3      H2            -18.1470054911      -34.4100499568       24.0347672794  TIP3      1710            0.0000000000
     54963      2111  TIP3      OH2            -3.7649487767      -20.2394210903       27.2704079143  TIP3      1711            0.0000000000
     54964      2111  TIP3      H1             -3.3436451898      -20.2986301766       26.3344457309  TIP3      1711            0.0000000000
     54965      2111  TIP3      H2             -3.3320882351      -19.3835763209       27.3736411111  TIP3      1711            0.0000000000
     54966      2112  TIP3      OH2           -18.6110940606      -36.1737528257       33.0810518359  TIP3      1712            0.0000000000
     54967      2112  TIP3      H1            -19.3085273892      -36.3952328489       33.7251498189  TIP3      1712            0.0000000000
     54968      2112  TIP3      H2            -19.0822215671      -35.5272672335       32.5026450784  TIP3      1712            0.0000000000
     54969      2113  TIP3      OH2           -16.4163853533      -22.9728264993       37.2280601285  TIP3      1713            0.0000000000
     54970      2113  TIP3      H1            -17.2550497467      -22.8042894246       36.7774239550  TIP3      1713            0.0000000000
     54971      2113  TIP3      H2            -16.6802576831      -23.0644959812       38.1495219923  TIP3      1713            0.0000000000
     54972      2114  TIP3      OH2           -13.4942386661      -22.0077935344       33.4858799641  TIP3      1714            0.0000000000
     54973      2114  TIP3      H1            -13.8741356213      -21.1677398954       33.2038302439  TIP3      1714            0.0000000000
     54974      2114  TIP3      H2            -12.5683936778      -21.9082366517       33.1798570407  TIP3      1714            0.0000000000
     54975      2115  TIP3      OH2            -9.1811750176      -20.5914176561       36.4198855915  TIP3      1715            0.0000000000
     54976      2115  TIP3      H1             -8.9990806937      -20.9376152081       37.3302991197  TIP3      1715            0.0000000000
     54977      2115  TIP3      H2             -8.2898092616      -20.2879934701       36.1383410758  TIP3      1715            0.0000000000
     54978      2116  TIP3      OH2            -6.8791524883      -19.3273991945       35.7011000611  TIP3      1716            0.0000000000
     54979      2116  TIP3      H1             -6.1384540217      -19.9158593459       35.4520895173  TIP3      1716            0.0000000000
     54980      2116  TIP3      H2             -6.4847530872      -18.9011365883       36.4916916042  TIP3      1716            0.0000000000
     54981      2117  TIP3      OH2            -1.8873796948      -36.6940132814       34.7848714314  TIP3      1717            0.0000000000
     54982      2117  TIP3      H1             -2.7260787534      -36.4069324071       34.3902635131  TIP3      1717            0.0000000000
     54983      2117  TIP3      H2             -1.6905112439      -37.5085684505       34.2633143323  TIP3      1717            0.0000000000
     54984      2118  TIP3      OH2           -16.0680268376      -18.7578778509       33.5147884955  TIP3      1718            0.0000000000
     54985      2118  TIP3      H1            -16.8031489735      -18.2889609954       33.0878919147  TIP3      1718            0.0000000000
     54986      2118  TIP3      H2            -16.4227616025      -18.9837452965       34.3871106316  TIP3      1718            0.0000000000
     54987      2119  TIP3      OH2           -13.5958433960      -19.1731350365       32.5670282675  TIP3      1719            0.0000000000
     54988      2119  TIP3      H1            -14.4910480783      -19.0607759359       32.9656130154  TIP3      1719            0.0000000000
     54989      2119  TIP3      H2            -13.6685164976      -18.5950641867       31.7812866360  TIP3      1719            0.0000000000
     54990      2120  TIP3      OH2            -8.9150335122      -19.2750030008       31.7352761208  TIP3      1720            0.0000000000
     54991      2120  TIP3      H1             -9.3626659157      -18.7205008260       31.0784798673  TIP3      1720            0.0000000000
     54992      2120  TIP3      H2             -8.7371483036      -18.6448218209       32.4677411120  TIP3      1720            0.0000000000
     54993      2121  TIP3      OH2            -6.5808980116      -20.4268620329       32.7174341161  TIP3      1721            0.0000000000
     54994      2121  TIP3      H1             -7.4656781298      -20.1912982757       32.4061949396  TIP3      1721            0.0000000000
     54995      2121  TIP3      H2             -6.1222203441      -19.5577488278       32.6227107035  TIP3      1721            0.0000000000
     54996      2122  TIP3      OH2            -4.4167784564      -18.5809080636       31.9787811790  TIP3      1722            0.0000000000
     54997      2122  TIP3      H1             -4.1271010892      -17.9497801479       32.7176222081  TIP3      1722            0.0000000000
     54998      2122  TIP3      H2             -3.7367810532      -19.2737441584       32.1282816922  TIP3      1722            0.0000000000
     54999      2123  TIP3      OH2           -16.6526278844      -20.1145116481       30.4340257391  TIP3      1723            0.0000000000
     55000      2123  TIP3      H1            -16.6905414340      -20.5632591383       31.3062200827  TIP3      1723            0.0000000000
     55001      2123  TIP3      H2            -15.8301053181      -20.4644704669       30.0352636239  TIP3      1723            0.0000000000
     55002      2124  TIP3      OH2           -14.5392659736      -21.4026737189       29.0853611964  TIP3      1724            0.0000000000
     55003      2124  TIP3      H1            -14.7259459468      -22.3375849282       29.2889679715  TIP3      1724            0.0000000000
     55004      2124  TIP3      H2            -13.6867846347      -21.2702985065       29.5585993261  TIP3      1724            0.0000000000
     55005      2125  TIP3      OH2           -11.9710414532      -20.9247346398       29.9489596892  TIP3      1725            0.0000000000
     55006      2125  TIP3      H1            -11.7708881336      -21.8388871393       29.6768748659  TIP3      1725            0.0000000000
     55007      2125  TIP3      H2            -11.9058827689      -20.9864099913       30.9115773436  TIP3      1725            0.0000000000
     55008      2126  TIP3      OH2            -8.4749688608      -35.2777610136       29.0976390348  TIP3      1726            0.0000000000
     55009      2126  TIP3      H1             -9.1543098388      -35.9189362886       29.3575007485  TIP3      1726            0.0000000000
     55010      2126  TIP3      H2             -7.9184386216      -35.7854116460       28.4972753233  TIP3      1726            0.0000000000
     55011      2127  TIP3      OH2            -3.3764107122      -37.2193550828       29.1697053202  TIP3      1727            0.0000000000
     55012      2127  TIP3      H1             -2.7923723357      -36.6546279157       28.6065868642  TIP3      1727            0.0000000000
     55013      2127  TIP3      H2             -4.2650933707      -36.8630898530       28.9359168872  TIP3      1727            0.0000000000
     55014      2128  TIP3      OH2            -1.6293470664      -36.0238472440       27.5703128689  TIP3      1728            0.0000000000
     55015      2128  TIP3      H1             -0.9939749860      -36.5478660874       27.0011592119  TIP3      1728            0.0000000000
     55016      2128  TIP3      H2             -1.1976297985      -35.1342020731       27.5234982270  TIP3      1728            0.0000000000
     55017      2129  TIP3      OH2           -16.1343055088      -36.6364993470       26.9393601411  TIP3      1729            0.0000000000
     55018      2129  TIP3      H1            -16.9198956253      -36.8695598342       26.4057164801  TIP3      1729            0.0000000000
     55019      2129  TIP3      H2            -15.6294226323      -37.4703737317       26.9002195910  TIP3      1729            0.0000000000
     55020      2130  TIP3      OH2           -11.5974028055      -36.7218200300       26.7203237621  TIP3      1730            0.0000000000
     55021      2130  TIP3      H1            -10.7050664169      -36.3388067708       26.6939076383  TIP3      1730            0.0000000000
     55022      2130  TIP3      H2            -11.6892154531      -36.9355587115       27.6499031974  TIP3      1730            0.0000000000
     55023      2131  TIP3      OH2            -5.9544943250      -36.6916259890       28.3744384216  TIP3      1731            0.0000000000
     55024      2131  TIP3      H1             -5.9605972776      -36.5974091105       27.4125438874  TIP3      1731            0.0000000000
     55025      2131  TIP3      H2             -6.3112450928      -37.6071797315       28.4957344500  TIP3      1731            0.0000000000
     55026      2132  TIP3      OH2            -4.6606032940      -36.6535448174       24.0514385305  TIP3      1732            0.0000000000
     55027      2132  TIP3      H1             -5.3889010006      -36.0552339431       23.8666805430  TIP3      1732            0.0000000000
     55028      2132  TIP3      H2             -5.1013268732      -37.5252256642       24.2061879580  TIP3      1732            0.0000000000
     55029      2133  TIP3      OH2           -17.4288073137      -20.9077555098       23.6538724240  TIP3      1733            0.0000000000
     55030      2133  TIP3      H1            -18.0815552757      -20.9418197102       22.9461696511  TIP3      1733            0.0000000000
     55031      2133  TIP3      H2            -17.4239410927      -19.9743213247       23.8934889325  TIP3      1733            0.0000000000
     55032      2134  TIP3      OH2           -10.4392310251      -34.6612586706       23.5916207154  TIP3      1734            0.0000000000
     55033      2134  TIP3      H1            -10.2498614797      -35.2794313562       24.3114708253  TIP3      1734            0.0000000000
     55034      2134  TIP3      H2            -10.4571171525      -33.8104505995       24.0834474114  TIP3      1734            0.0000000000
     55035      2135  TIP3      OH2            -8.5691659060      -19.6967267727       22.0262328183  TIP3      1735            0.0000000000
     55036      2135  TIP3      H1             -7.6873225080      -19.3388176320       21.8257183786  TIP3      1735            0.0000000000
     55037      2135  TIP3      H2             -8.7626691737      -20.1190990187       21.1719122886  TIP3      1735            0.0000000000
     55038      2136  TIP3      OH2            -1.1649747092      -20.3812987768       24.4057015479  TIP3      1736            0.0000000000
     55039      2136  TIP3      H1             -1.9884316793      -20.9057298815       24.1709552804  TIP3      1736            0.0000000000
     55040      2136  TIP3      H2             -1.7354510257      -19.5474944124       24.2049035437  TIP3      1736            0.0000000000
     55041      2137  TIP3      OH2           -16.1924747992      -36.1474680440       36.3746757351  TIP3      1737            0.0000000000
     55042      2137  TIP3      H1            -16.5989240620      -36.8815109908       36.8902555101  TIP3      1737            0.0000000000
     55043      2137  TIP3      H2            -15.2964906206      -36.0867607812       36.7912520237  TIP3      1737            0.0000000000
     55044      2138  TIP3      OH2           -14.2274199824      -36.7634154154       37.9429626602  TIP3      1738            0.0000000000
     55045      2138  TIP3      H1            -13.3040500581      -37.0640336510       37.8134791085  TIP3      1738            0.0000000000
     55046      2138  TIP3      H2            -14.5913171167      -37.5222360384       38.4607171488  TIP3      1738            0.0000000000
     55047      2139  TIP3      OH2            -5.8119430598      -37.4338180188       38.1638057534  TIP3      1739            0.0000000000
     55048      2139  TIP3      H1             -5.7136579249      -37.8935625970       39.0195187759  TIP3      1739            0.0000000000
     55049      2139  TIP3      H2             -4.8954798828      -37.4469367754       37.8194631381  TIP3      1739            0.0000000000
     55050      2140  TIP3      OH2            -2.6102604772      -21.3988901198       36.8649264911  TIP3      1740            0.0000000000
     55051      2140  TIP3      H1             -3.4106856788      -21.5375114937       36.3012988583  TIP3      1740            0.0000000000
     55052      2140  TIP3      H2             -2.7109365112      -20.4346274229       37.0337840205  TIP3      1740            0.0000000000
     55053      2141  TIP3      OH2            11.8071098379      -27.5134350626       26.8486501999  TIP3      1741            0.0000000000
     55054      2141  TIP3      H1             11.8542114336      -26.5376595140       26.7470648710  TIP3      1741            0.0000000000
     55055      2141  TIP3      H2             11.1295224578      -27.7510358970       26.1984389544  TIP3      1741            0.0000000000
     55056      2142  TIP3      OH2            10.7027599228      -28.2338893256       30.3066493763  TIP3      1742            0.0000000000
     55057      2142  TIP3      H1             10.6759550361      -28.8923735401       31.0074546204  TIP3      1742            0.0000000000
     55058      2142  TIP3      H2             10.3784216717      -28.7229163649       29.5315253325  TIP3      1742            0.0000000000
     55059      2143  TIP3      OH2             3.0618986964      -28.5990087309       31.8655670911  TIP3      1743            0.0000000000
     55060      2143  TIP3      H1              3.1331183161      -29.2554462642       32.5918997868  TIP3      1743            0.0000000000
     55061      2143  TIP3      H2              3.7931630154      -28.0010525347       32.0752865957  TIP3      1743            0.0000000000
     55062      2144  TIP3      OH2            14.4098519846      -25.2998859186       28.5839143611  TIP3      1744            0.0000000000
     55063      2144  TIP3      H1             13.9729350679      -26.0147352397       29.0598306768  TIP3      1744            0.0000000000
     55064      2144  TIP3      H2             14.4087529825      -24.5781929727       29.2441456787  TIP3      1744            0.0000000000
     55065      2145  TIP3      OH2             3.9886213879      -24.1458557753       30.4032234792  TIP3      1745            0.0000000000
     55066      2145  TIP3      H1              3.6496801674      -24.9872556154       30.0445459752  TIP3      1745            0.0000000000
     55067      2145  TIP3      H2              4.9438519760      -24.3358509043       30.4438015826  TIP3      1745            0.0000000000
     55068      2146  TIP3      OH2             0.6317722733      -30.5443316997       25.8157905076  TIP3      1746            0.0000000000
     55069      2146  TIP3      H1              0.1731072985      -29.6761180353       25.7957305962  TIP3      1746            0.0000000000
     55070      2146  TIP3      H2              0.0444767600      -31.0963812198       25.2881583594  TIP3      1746            0.0000000000
     55071      2147  TIP3      OH2             1.3182659721      -28.3421120628       27.9583476935  TIP3      1747            0.0000000000
     55072      2147  TIP3      H1              1.5657302543      -29.1409265818       28.4583666097  TIP3      1747            0.0000000000
     55073      2147  TIP3      H2              2.0541004481      -28.2544874130       27.3316632513  TIP3      1747            0.0000000000
     55074      2148  TIP3      OH2            11.5115361209      -20.1610558482       28.8141230221  TIP3      1748            0.0000000000
     55075      2148  TIP3      H1             12.1548677035      -20.8645522704       28.5397854690  TIP3      1748            0.0000000000
     55076      2148  TIP3      H2             11.3161038305      -20.4380799093       29.7082599438  TIP3      1748            0.0000000000
     55077      2149  TIP3      OH2             9.0798446111      -25.8172361005       30.7277147496  TIP3      1749            0.0000000000
     55078      2149  TIP3      H1              9.4150874085      -26.4849817467       30.1076721097  TIP3      1749            0.0000000000
     55079      2149  TIP3      H2              9.8521512832      -25.6885649006       31.3047922145  TIP3      1749            0.0000000000
     55080      2150  TIP3      OH2            17.7217720043      -34.2087336634       31.5341667683  TIP3      1750            0.0000000000
     55081      2150  TIP3      H1             17.8345697286      -33.5880146320       32.2857300402  TIP3      1750            0.0000000000
     55082      2150  TIP3      H2             18.2149011065      -33.7476129392       30.8390641240  TIP3      1750            0.0000000000
     55083      2151  TIP3      OH2            12.2412910492      -31.3843692452       31.0626905576  TIP3      1751            0.0000000000
     55084      2151  TIP3      H1             12.3908704991      -32.3503085179       31.0551891224  TIP3      1751            0.0000000000
     55085      2151  TIP3      H2             12.1368930688      -31.2218566684       30.1022584967  TIP3      1751            0.0000000000
     55086      2152  TIP3      OH2             5.3816823838      -33.3019606432       28.3086708283  TIP3      1752            0.0000000000
     55087      2152  TIP3      H1              5.4482735091      -32.4463902904       27.8548772169  TIP3      1752            0.0000000000
     55088      2152  TIP3      H2              4.9432631309      -33.8637202796       27.6383741874  TIP3      1752            0.0000000000
     55089      2153  TIP3      OH2            13.0939823946      -33.1891770381       26.6931022281  TIP3      1753            0.0000000000
     55090      2153  TIP3      H1             13.7706516154      -33.5112604548       27.3362921473  TIP3      1753            0.0000000000
     55091      2153  TIP3      H2             13.6477942694      -32.6517776726       26.0984237173  TIP3      1753            0.0000000000
     55092      2154  TIP3      OH2             1.9932882501      -30.8908719064       29.0542596438  TIP3      1754            0.0000000000
     55093      2154  TIP3      H1              2.6684365045      -31.4529604635       29.4906417551  TIP3      1754            0.0000000000
     55094      2154  TIP3      H2              2.0619978983      -31.1916202624       28.1359708533  TIP3      1754            0.0000000000
     55095      2155  TIP3      OH2             7.1595829508      -29.3368688682       28.3156394270  TIP3      1755            0.0000000000
     55096      2155  TIP3      H1              7.7999220194      -29.9042107319       28.7737411682  TIP3      1755            0.0000000000
     55097      2155  TIP3      H2              6.6020349208      -30.0032073759       27.8611858607  TIP3      1755            0.0000000000
     55098      2156  TIP3      OH2            18.1506043325      -32.7466614106       33.7783233189  TIP3      1756            0.0000000000
     55099      2156  TIP3      H1             17.4775901105      -32.0409970442       33.6920809900  TIP3      1756            0.0000000000
     55100      2156  TIP3      H2             18.1704473505      -32.8977278461       34.7302135887  TIP3      1756            0.0000000000
     55101      2157  TIP3      OH2             4.2396090771      -34.3975161490       32.3606459635  TIP3      1757            0.0000000000
     55102      2157  TIP3      H1              3.9805109416      -33.8408365760       31.6011206713  TIP3      1757            0.0000000000
     55103      2157  TIP3      H2              3.5484663330      -34.1587214275       33.0274089891  TIP3      1757            0.0000000000
     55104      2158  TIP3      OH2            11.5857964879      -24.8990723376       25.9005630785  TIP3      1758            0.0000000000
     55105      2158  TIP3      H1             11.2586506032      -25.2058938266       25.0500058520  TIP3      1758            0.0000000000
     55106      2158  TIP3      H2             11.2460799854      -23.9773454440       25.9514668889  TIP3      1758            0.0000000000
     55107      2159  TIP3      OH2             6.7820181047      -26.7414958751       32.6303641689  TIP3      1759            0.0000000000
     55108      2159  TIP3      H1              6.0498132028      -26.1048694267       32.7810103606  TIP3      1759            0.0000000000
     55109      2159  TIP3      H2              7.4871670799      -26.1507972864       32.3269321344  TIP3      1759            0.0000000000
     55110      2160  TIP3      OH2            14.8779590815      -33.8729208706       28.6671185591  TIP3      1760            0.0000000000
     55111      2160  TIP3      H1             14.6764346369      -34.6444407461       29.2086916201  TIP3      1760            0.0000000000
     55112      2160  TIP3      H2             15.5531515060      -33.4188868029       29.1979981683  TIP3      1760            0.0000000000
     55113      2161  TIP3      OH2             3.7967592639      -32.5167134520       30.3463065224  TIP3      1761            0.0000000000
     55114      2161  TIP3      H1              4.4395424407      -31.8541983781       30.6949640974  TIP3      1761            0.0000000000
     55115      2161  TIP3      H2              4.3345260562      -32.9652378977       29.6512933875  TIP3      1761            0.0000000000
     55116      2162  TIP3      OH2             5.2100271071      -24.7618196607       33.4245197169  TIP3      1762            0.0000000000
     55117      2162  TIP3      H1              5.1755016793      -23.8528837398       33.0677698709  TIP3      1762            0.0000000000
     55118      2162  TIP3      H2              4.3251817739      -24.8281472236       33.8672204587  TIP3      1762            0.0000000000
     55119      2163  TIP3      OH2             1.2765075045      -25.1162520162       24.2244705317  TIP3      1763            0.0000000000
     55120      2163  TIP3      H1              1.0773215001      -24.8272479424       23.3499947333  TIP3      1763            0.0000000000
     55121      2163  TIP3      H2              1.3690315375      -24.2584648428       24.7051853948  TIP3      1763            0.0000000000
     55122      2164  TIP3      OH2            14.9309982731      -23.4707472800       30.9488868450  TIP3      1764            0.0000000000
     55123      2164  TIP3      H1             13.9654563842      -23.3769089875       31.0915966980  TIP3      1764            0.0000000000
     55124      2164  TIP3      H2             15.1990055590      -22.5422172416       30.7850603493  TIP3      1764            0.0000000000
     55125      2165  TIP3      OH2            15.2353768061      -35.1754234781       32.3570121922  TIP3      1765            0.0000000000
     55126      2165  TIP3      H1             14.5001445025      -34.5524602569       32.2957893315  TIP3      1765            0.0000000000
     55127      2165  TIP3      H2             15.9312346815      -34.7532277565       31.8231685704  TIP3      1765            0.0000000000
     55128      2166  TIP3      OH2             8.2285298968      -37.0701300797       29.8116110151  TIP3      1766            0.0000000000
     55129      2166  TIP3      H1              8.1012265556      -38.0371985406       29.7578620749  TIP3      1766            0.0000000000
     55130      2166  TIP3      H2              7.3533725532      -36.7538132291       30.1065516206  TIP3      1766            0.0000000000
     55131      2167  TIP3      OH2            13.1794030000      -21.6801040961       27.5745275545  TIP3      1767            0.0000000000
     55132      2167  TIP3      H1             13.6124221910      -22.3909506848       27.0626546528  TIP3      1767            0.0000000000
     55133      2167  TIP3      H2             13.5414346822      -20.8770810009       27.1489792746  TIP3      1767            0.0000000000
     55134      2168  TIP3      OH2            14.3666455983      -23.7572730478       26.0586687815  TIP3      1768            0.0000000000
     55135      2168  TIP3      H1             14.0844063013      -24.4649942443       25.4618385906  TIP3      1768            0.0000000000
     55136      2168  TIP3      H2             14.4152896619      -24.2336436262       26.9112185850  TIP3      1768            0.0000000000
     55137      2169  TIP3      OH2            16.0183986925      -25.1876500220       34.5616230386  TIP3      1769            0.0000000000
     55138      2169  TIP3      H1             16.1624594634      -25.8084836711       33.8146751293  TIP3      1769            0.0000000000
     55139      2169  TIP3      H2             16.1978411509      -24.3214499469       34.1633129035  TIP3      1769            0.0000000000
     55140      2170  TIP3      OH2            10.5029996870      -28.2475434763       24.3378006028  TIP3      1770            0.0000000000
     55141      2170  TIP3      H1              9.7877909914      -27.6980105400       23.9568445311  TIP3      1770            0.0000000000
     55142      2170  TIP3      H2             11.1979012755      -28.1866704860       23.6568014727  TIP3      1770            0.0000000000
     55143      2171  TIP3      OH2            10.5592088777      -29.7563854052       21.3700352002  TIP3      1771            0.0000000000
     55144      2171  TIP3      H1             11.2747780904      -29.7570100999       22.0153111425  TIP3      1771            0.0000000000
     55145      2171  TIP3      H2             10.8469218578      -30.4093564453       20.7176479866  TIP3      1771            0.0000000000
     55146      2172  TIP3      OH2            17.8815452721      -28.8691129527       32.6195423156  TIP3      1772            0.0000000000
     55147      2172  TIP3      H1             17.2180819118      -28.1528627021       32.6809298648  TIP3      1772            0.0000000000
     55148      2172  TIP3      H2             18.3514827592      -28.6375941870       31.7982830002  TIP3      1772            0.0000000000
     55149      2173  TIP3      OH2            13.9305876937      -28.0265452219       25.2578052016  TIP3      1773            0.0000000000
     55150      2173  TIP3      H1             13.1782160691      -27.8132323758       25.8598500536  TIP3      1773            0.0000000000
     55151      2173  TIP3      H2             14.3783362667      -28.7471945793       25.7411390930  TIP3      1773            0.0000000000
     55152      2174  TIP3      OH2            13.8487551270      -29.8867467022       34.3521653702  TIP3      1774            0.0000000000
     55153      2174  TIP3      H1             13.8779299216      -29.0846141911       34.9029653114  TIP3      1774            0.0000000000
     55154      2174  TIP3      H2             13.2149494321      -29.5834061886       33.6636355710  TIP3      1774            0.0000000000
     55155      2175  TIP3      OH2             5.5540694763      -27.3881370495       27.1639082713  TIP3      1775            0.0000000000
     55156      2175  TIP3      H1              5.2266845667      -27.7797022460       26.3197716554  TIP3      1775            0.0000000000
     55157      2175  TIP3      H2              6.1582820820      -28.0894019485       27.5010474087  TIP3      1775            0.0000000000
     55158      2176  TIP3      OH2             6.8955278305      -23.9812924529       29.8424798494  TIP3      1776            0.0000000000
     55159      2176  TIP3      H1              6.8447974878      -24.5527579293       29.0658403837  TIP3      1776            0.0000000000
     55160      2176  TIP3      H2              7.6580999636      -24.3600395460       30.3154981023  TIP3      1776            0.0000000000
     55161      2177  TIP3      OH2             5.9015543403      -28.6489263235       30.8027198100  TIP3      1777            0.0000000000
     55162      2177  TIP3      H1              6.4743353154      -28.5246635497       30.0223459112  TIP3      1777            0.0000000000
     55163      2177  TIP3      H2              6.2538539223      -27.9899453531       31.4335149957  TIP3      1777            0.0000000000
     55164      2178  TIP3      OH2            12.2577943939      -23.0994267035       31.5132768518  TIP3      1778            0.0000000000
     55165      2178  TIP3      H1             11.9957013069      -22.4650118664       32.1816811678  TIP3      1778            0.0000000000
     55166      2178  TIP3      H2             12.0318974382      -23.9586902291       31.9540753759  TIP3      1778            0.0000000000
     55167      2179  TIP3      OH2             6.8258613626      -24.2354623201       35.5144070248  TIP3      1779            0.0000000000
     55168      2179  TIP3      H1              6.4627870915      -23.4600282806       35.9837990944  TIP3      1779            0.0000000000
     55169      2179  TIP3      H2              6.1476215369      -24.4044476310       34.8152885913  TIP3      1779            0.0000000000
     55170      2180  TIP3      OH2            12.7618379692      -28.8336105725       22.9475760791  TIP3      1780            0.0000000000
     55171      2180  TIP3      H1             13.3676806149      -28.7317205101       23.7231046269  TIP3      1780            0.0000000000
     55172      2180  TIP3      H2             13.2243266391      -28.4087142896       22.2325863091  TIP3      1780            0.0000000000
     55173      2181  TIP3      OH2             3.7526367676      -28.0580178018       34.7075228476  TIP3      1781            0.0000000000
     55174      2181  TIP3      H1              3.7961649859      -27.3885699258       35.4215628259  TIP3      1781            0.0000000000
     55175      2181  TIP3      H2              2.8316047860      -27.9452080663       34.4300884270  TIP3      1781            0.0000000000
     55176      2182  TIP3      OH2            10.5162853296      -22.1389005175       26.3951145514  TIP3      1782            0.0000000000
     55177      2182  TIP3      H1             10.9784291717      -21.8310418699       27.1825329310  TIP3      1782            0.0000000000
     55178      2182  TIP3      H2              9.9527690104      -21.3931709160       26.1563753831  TIP3      1782            0.0000000000
     55179      2183  TIP3      OH2             5.0617756451      -22.1723226346       36.2663082965  TIP3      1783            0.0000000000
     55180      2183  TIP3      H1              5.0343362207      -22.2989637555       35.3064648522  TIP3      1783            0.0000000000
     55181      2183  TIP3      H2              4.1257526835      -22.2952323415       36.5237037373  TIP3      1783            0.0000000000
     55182      2184  TIP3      OH2            16.5164569832      -37.1457911352       22.7710710119  TIP3      1784            0.0000000000
     55183      2184  TIP3      H1             15.5797618187      -36.9962019782       23.0572893193  TIP3      1784            0.0000000000
     55184      2184  TIP3      H2             16.7258870980      -36.2783192445       22.3715940305  TIP3      1784            0.0000000000
     55185      2185  TIP3      OH2             4.5462656714      -28.3593595953       24.7612830744  TIP3      1785            0.0000000000
     55186      2185  TIP3      H1              4.2510433258      -27.5725066558       24.2553164714  TIP3      1785            0.0000000000
     55187      2185  TIP3      H2              3.8620724997      -29.0033599360       24.5757397865  TIP3      1785            0.0000000000
     55188      2186  TIP3      OH2            17.6510246177      -22.7582854388       21.2139072474  TIP3      1786            0.0000000000
     55189      2186  TIP3      H1             17.7633934922      -21.8158428396       21.2927580593  TIP3      1786            0.0000000000
     55190      2186  TIP3      H2             18.5708545546      -23.0912769390       21.0802227616  TIP3      1786            0.0000000000
     55191      2187  TIP3      OH2             0.6305452918      -25.9525040392       33.6117175981  TIP3      1787            0.0000000000
     55192      2187  TIP3      H1              0.1480110976      -26.0191055948       32.7676781511  TIP3      1787            0.0000000000
     55193      2187  TIP3      H2              0.6578896936      -26.8919481026       33.8712365397  TIP3      1787            0.0000000000
     55194      2188  TIP3      OH2             0.3779276609      -23.2076310760       30.4492763898  TIP3      1788            0.0000000000
     55195      2188  TIP3      H1              1.3353248605      -23.3317399349       30.4291077072  TIP3      1788            0.0000000000
     55196      2188  TIP3      H2              0.2874862536      -22.4020178291       30.9716925387  TIP3      1788            0.0000000000
     55197      2189  TIP3      OH2            18.6090431244      -22.5212959515       36.1273294815  TIP3      1789            0.0000000000
     55198      2189  TIP3      H1             18.5129221053      -23.4821211521       36.1073066296  TIP3      1789            0.0000000000
     55199      2189  TIP3      H2             17.7462982367      -22.2670808922       36.5396392246  TIP3      1789            0.0000000000
     55200      2190  TIP3      OH2             9.5725717261      -22.9630377053       34.9956247556  TIP3      1790            0.0000000000
     55201      2190  TIP3      H1              9.6445973375      -22.1203544214       35.5018144556  TIP3      1790            0.0000000000
     55202      2190  TIP3      H2              8.6955426959      -23.3007151975       35.2557727892  TIP3      1790            0.0000000000
     55203      2191  TIP3      OH2             9.9883179096      -19.2045128512       24.8068378067  TIP3      1791            0.0000000000
     55204      2191  TIP3      H1              9.9126762099      -19.2911084912       23.8512047050  TIP3      1791            0.0000000000
     55205      2191  TIP3      H2             10.0262138496      -18.2356675103       24.9398072281  TIP3      1791            0.0000000000
     55206      2192  TIP3      OH2             3.6415465728      -20.3573992199       26.6034958935  TIP3      1792            0.0000000000
     55207      2192  TIP3      H1              3.7801231574      -20.7568277432       27.4869428753  TIP3      1792            0.0000000000
     55208      2192  TIP3      H2              2.7886082960      -20.7526901405       26.3553104607  TIP3      1792            0.0000000000
     55209      2193  TIP3      OH2            12.9977619668      -20.0504426525       21.7895474962  TIP3      1793            0.0000000000
     55210      2193  TIP3      H1             13.5017032736      -20.7559966531       21.3378165638  TIP3      1793            0.0000000000
     55211      2193  TIP3      H2             13.0994624811      -20.2813967061       22.7334724595  TIP3      1793            0.0000000000
     55212      2194  TIP3      OH2            12.7467684237      -20.0964765984       24.5506583742  TIP3      1794            0.0000000000
     55213      2194  TIP3      H1             11.7974037931      -20.0060446183       24.7494976600  TIP3      1794            0.0000000000
     55214      2194  TIP3      H2             13.0222745588      -20.8111215462       25.1423757423  TIP3      1794            0.0000000000
     55215      2195  TIP3      OH2            15.7413346742      -31.0418129739       36.6154002226  TIP3      1795            0.0000000000
     55216      2195  TIP3      H1             15.3141638953      -30.5618160595       35.8855326347  TIP3      1795            0.0000000000
     55217      2195  TIP3      H2             15.7668315535      -31.9479409801       36.2867421474  TIP3      1795            0.0000000000
     55218      2196  TIP3      OH2             2.8921774545      -24.6353239661       34.6061604675  TIP3      1796            0.0000000000
     55219      2196  TIP3      H1              3.1121168294      -25.0118951494       35.4855477341  TIP3      1796            0.0000000000
     55220      2196  TIP3      H2              2.0238800180      -25.0314608172       34.3933378354  TIP3      1796            0.0000000000
     55221      2197  TIP3      OH2             5.5521847308      -36.1653792934       30.5772592581  TIP3      1797            0.0000000000
     55222      2197  TIP3      H1              4.6490174373      -36.2742628914       30.1963434303  TIP3      1797            0.0000000000
     55223      2197  TIP3      H2              5.4633595591      -35.3182903896       31.0360327461  TIP3      1797            0.0000000000
     55224      2198  TIP3      OH2            10.1969412720      -36.4654125291       33.9504947364  TIP3      1798            0.0000000000
     55225      2198  TIP3      H1             10.5992073926      -36.8907045971       34.7285042594  TIP3      1798            0.0000000000
     55226      2198  TIP3      H2              9.2303651927      -36.6285748709       34.0871066724  TIP3      1798            0.0000000000
     55227      2199  TIP3      OH2            13.5149549937      -32.6844395400       34.8271172453  TIP3      1799            0.0000000000
     55228      2199  TIP3      H1             12.9566937306      -32.8403149767       35.6232395569  TIP3      1799            0.0000000000
     55229      2199  TIP3      H2             13.3375149247      -31.7627250148       34.5834468436  TIP3      1799            0.0000000000
     55230      2200  TIP3      OH2             9.8168535755      -33.9552603972       21.2620757224  TIP3      1800            0.0000000000
     55231      2200  TIP3      H1              9.5697390056      -33.9649598059       22.2001742680  TIP3      1800            0.0000000000
     55232      2200  TIP3      H2              9.5824586896      -34.8416558654       20.9580471442  TIP3      1800            0.0000000000
     55233      2201  TIP3      OH2             5.6398969632      -31.2131961049       31.7438114824  TIP3      1801            0.0000000000
     55234      2201  TIP3      H1              4.9440104542      -31.2338960940       32.4257410520  TIP3      1801            0.0000000000
     55235      2201  TIP3      H2              5.6314958124      -30.2756954762       31.4490555370  TIP3      1801            0.0000000000
     55236      2202  TIP3      OH2             5.6141029285      -31.0146781207       26.6392919844  TIP3      1802            0.0000000000
     55237      2202  TIP3      H1              4.6933446018      -31.3315849266       26.5444728014  TIP3      1802            0.0000000000
     55238      2202  TIP3      H2              6.0367040879      -31.3703544739       25.8406754443  TIP3      1802            0.0000000000
     55239      2203  TIP3      OH2            11.1387845386      -30.5920624516       25.4281198353  TIP3      1803            0.0000000000
     55240      2203  TIP3      H1             10.7323996960      -29.7509850371       25.1185479601  TIP3      1803            0.0000000000
     55241      2203  TIP3      H2             11.8557765433      -30.7112832674       24.7963223870  TIP3      1803            0.0000000000
     55242      2204  TIP3      OH2            10.2300882236      -30.3738231789       36.8980344138  TIP3      1804            0.0000000000
     55243      2204  TIP3      H1              9.6743145527      -31.1238211631       37.2207920440  TIP3      1804            0.0000000000
     55244      2204  TIP3      H2             11.0616443986      -30.5091738577       37.3794075548  TIP3      1804            0.0000000000
     55245      2205  TIP3      OH2            12.1560737457      -31.1061073728       28.2727976883  TIP3      1805            0.0000000000
     55246      2205  TIP3      H1             11.9317715836      -30.5262993786       27.5247729033  TIP3      1805            0.0000000000
     55247      2205  TIP3      H2             12.3087837465      -31.9517677920       27.8003961761  TIP3      1805            0.0000000000
     55248      2206  TIP3      OH2             3.3284014294      -30.9050616216       33.5309949515  TIP3      1806            0.0000000000
     55249      2206  TIP3      H1              3.3329227385      -30.5041935985       34.4176358229  TIP3      1806            0.0000000000
     55250      2206  TIP3      H2              2.8541050630      -31.7363410933       33.6777091152  TIP3      1806            0.0000000000
     55251      2207  TIP3      OH2            -0.0642348146      -33.8192081696       27.4544397843  TIP3      1807            0.0000000000
     55252      2207  TIP3      H1              0.6230424843      -33.8148145238       28.1472247020  TIP3      1807            0.0000000000
     55253      2207  TIP3      H2              0.4116834908      -34.1951196688       26.6833103228  TIP3      1807            0.0000000000
     55254      2208  TIP3      OH2             1.2570422622      -33.0688865908       22.8662080150  TIP3      1808            0.0000000000
     55255      2208  TIP3      H1              1.7001549715      -32.4351180191       22.2652201744  TIP3      1808            0.0000000000
     55256      2208  TIP3      H2              0.5262031663      -32.4854292389       23.1805364668  TIP3      1808            0.0000000000
     55257      2209  TIP3      OH2            11.3967088237      -29.4822534551       32.8866654894  TIP3      1809            0.0000000000
     55258      2209  TIP3      H1             11.7425007226      -30.1491011567       32.2641727383  TIP3      1809            0.0000000000
     55259      2209  TIP3      H2             10.9471507482      -30.0277548354       33.5563165360  TIP3      1809            0.0000000000
     55260      2210  TIP3      OH2             8.1853329640      -33.5463419743       27.6809052892  TIP3      1810            0.0000000000
     55261      2210  TIP3      H1              7.2548363089      -33.5090906701       27.9888301615  TIP3      1810            0.0000000000
     55262      2210  TIP3      H2              8.6806338790      -33.6463371483       28.5072584480  TIP3      1810            0.0000000000
     55263      2211  TIP3      OH2             3.0136922706      -31.9387378044       26.5272983501  TIP3      1811            0.0000000000
     55264      2211  TIP3      H1              2.1047158860      -31.8264946727       26.1784008673  TIP3      1811            0.0000000000
     55265      2211  TIP3      H2              3.2958120921      -32.7958440199       26.1773962746  TIP3      1811            0.0000000000
     55266      2212  TIP3      OH2             6.6352356186      -31.9305286675       24.1667040760  TIP3      1812            0.0000000000
     55267      2212  TIP3      H1              7.5904535824      -31.8160768672       24.3593064611  TIP3      1812            0.0000000000
     55268      2212  TIP3      H2              6.4479826612      -31.2372367523       23.5258168301  TIP3      1812            0.0000000000
     55269      2213  TIP3      OH2            12.5961037655      -34.3092385203       30.9433724282  TIP3      1813            0.0000000000
     55270      2213  TIP3      H1             11.9008829015      -34.2111119259       31.6271824416  TIP3      1813            0.0000000000
     55271      2213  TIP3      H2             12.0908276895      -34.5036903770       30.1425278500  TIP3      1813            0.0000000000
     55272      2214  TIP3      OH2            15.8255548913      -18.6551439325       37.2622945519  TIP3      1814            0.0000000000
     55273      2214  TIP3      H1             16.0702322289      -18.2475403870       36.4096642475  TIP3      1814            0.0000000000
     55274      2214  TIP3      H2             16.5313765689      -18.3156967765       37.8419889468  TIP3      1814            0.0000000000
     55275      2215  TIP3      OH2             3.4860516893      -26.1838108370       36.8228938614  TIP3      1815            0.0000000000
     55276      2215  TIP3      H1              4.1964588192      -25.9258030002       37.4316896183  TIP3      1815            0.0000000000
     55277      2215  TIP3      H2              2.6881847342      -26.0185352952       37.3809245519  TIP3      1815            0.0000000000
     55278      2216  TIP3      OH2             9.4832817225      -30.7680241754       29.5800912785  TIP3      1816            0.0000000000
     55279      2216  TIP3      H1             10.0665783313      -31.3150139162       29.0380860415  TIP3      1816            0.0000000000
     55280      2216  TIP3      H2              9.3431879561      -31.3060389851       30.3699723020  TIP3      1816            0.0000000000
     55281      2217  TIP3      OH2             4.4776163559      -34.6110132783       25.9735371864  TIP3      1817            0.0000000000
     55282      2217  TIP3      H1              4.1809403648      -35.5433920635       25.9920148762  TIP3      1817            0.0000000000
     55283      2217  TIP3      H2              5.2942768588      -34.6683210708       25.4675666609  TIP3      1817            0.0000000000
     55284      2218  TIP3      OH2             8.1217801486      -32.4155925641       31.9890252747  TIP3      1818            0.0000000000
     55285      2218  TIP3      H1              7.2847405175      -31.9238359378       32.0990197153  TIP3      1818            0.0000000000
     55286      2218  TIP3      H2              8.6587122637      -32.0968512280       32.7417036742  TIP3      1818            0.0000000000
     55287      2219  TIP3      OH2             8.7054639015      -26.1979664652       23.6800319669  TIP3      1819            0.0000000000
     55288      2219  TIP3      H1              7.9157896869      -26.6780070919       23.3474784155  TIP3      1819            0.0000000000
     55289      2219  TIP3      H2              8.5139932274      -26.1114782146       24.6261956558  TIP3      1819            0.0000000000
     55290      2220  TIP3      OH2            15.8482769090      -27.0369503955       32.4880354190  TIP3      1820            0.0000000000
     55291      2220  TIP3      H1             16.4530393009      -26.5624913564       31.8935180326  TIP3      1820            0.0000000000
     55292      2220  TIP3      H2             14.9997682996      -26.9375999680       32.0062288212  TIP3      1820            0.0000000000
     55293      2221  TIP3      OH2            10.1900424923      -25.9761293840       34.9204727808  TIP3      1821            0.0000000000
     55294      2221  TIP3      H1              9.8449777282      -26.3720515424       35.7284661299  TIP3      1821            0.0000000000
     55295      2221  TIP3      H2              9.9708764734      -25.0436620995       35.0069910688  TIP3      1821            0.0000000000
     55296      2222  TIP3      OH2             3.7959740638      -26.8504488106       29.4718382977  TIP3      1822            0.0000000000
     55297      2222  TIP3      H1              4.5262613871      -26.8927735360       28.8255607599  TIP3      1822            0.0000000000
     55298      2222  TIP3      H2              3.8732556937      -27.7008768770       29.9369668083  TIP3      1822            0.0000000000
     55299      2223  TIP3      OH2             0.7914908045      -28.4060796445       34.7572595418  TIP3      1823            0.0000000000
     55300      2223  TIP3      H1              1.0130122395      -28.8465840222       35.6020851232  TIP3      1823            0.0000000000
     55301      2223  TIP3      H2              0.1879052705      -29.0370055666       34.3308722621  TIP3      1823            0.0000000000
     55302      2224  TIP3      OH2             7.8121086806      -28.8763040129       36.9677171082  TIP3      1824            0.0000000000
     55303      2224  TIP3      H1              7.5148580304      -29.1025754640       36.0761113981  TIP3      1824            0.0000000000
     55304      2224  TIP3      H2              8.7529914740      -29.1434996562       36.9510112384  TIP3      1824            0.0000000000
     55305      2225  TIP3      OH2            12.4689317576      -23.5313509715       34.8600578726  TIP3      1825            0.0000000000
     55306      2225  TIP3      H1             11.5452230432      -23.3404512523       34.6236436778  TIP3      1825            0.0000000000
     55307      2225  TIP3      H2             12.4638460321      -23.2513589163       35.7976033128  TIP3      1825            0.0000000000
     55308      2226  TIP3      OH2            18.1715890964      -31.3050585159       23.2856702317  TIP3      1826            0.0000000000
     55309      2226  TIP3      H1             17.6260556422      -31.6484045761       22.5435833946  TIP3      1826            0.0000000000
     55310      2226  TIP3      H2             18.2620318552      -30.3799555000       22.9654571687  TIP3      1826            0.0000000000
     55311      2227  TIP3      OH2            18.1487319991      -25.4797565013       36.0891636099  TIP3      1827            0.0000000000
     55312      2227  TIP3      H1             17.2681861920      -25.2495988324       35.7046453385  TIP3      1827            0.0000000000
     55313      2227  TIP3      H2             18.7176270987      -25.5070625195       35.2958074596  TIP3      1827            0.0000000000
     55314      2228  TIP3      OH2            16.4711009788      -22.4985365927       23.6884830548  TIP3      1828            0.0000000000
     55315      2228  TIP3      H1             16.0959237224      -23.3249980054       24.0218665421  TIP3      1828            0.0000000000
     55316      2228  TIP3      H2             16.7454375732      -22.7048822498       22.7830217081  TIP3      1828            0.0000000000
     55317      2229  TIP3      OH2            13.6455777139      -27.6837213328       30.7480200197  TIP3      1829            0.0000000000
     55318      2229  TIP3      H1             12.7026520244      -27.9190046853       30.6807665715  TIP3      1829            0.0000000000
     55319      2229  TIP3      H2             14.0815133914      -28.4685439458       30.3695831127  TIP3      1829            0.0000000000
     55320      2230  TIP3      OH2             6.1689112316      -23.3655256567       26.8760493614  TIP3      1830            0.0000000000
     55321      2230  TIP3      H1              6.6937862273      -22.5781491531       26.6523413519  TIP3      1830            0.0000000000
     55322      2230  TIP3      H2              5.2915521202      -23.1295730040       26.5474241996  TIP3      1830            0.0000000000
     55323      2231  TIP3      OH2             1.9361004734      -28.5146447302       21.4317321913  TIP3      1831            0.0000000000
     55324      2231  TIP3      H1              2.5443599989      -27.8697303154       21.8227300138  TIP3      1831            0.0000000000
     55325      2231  TIP3      H2              1.0608294938      -28.2132721606       21.7086594667  TIP3      1831            0.0000000000
     55326      2232  TIP3      OH2             7.6106476645      -25.7052185595       26.4180752302  TIP3      1832            0.0000000000
     55327      2232  TIP3      H1              7.3274726168      -24.7732066396       26.4788366101  TIP3      1832            0.0000000000
     55328      2232  TIP3      H2              6.8566010985      -26.1688724780       26.8325458585  TIP3      1832            0.0000000000
     55329      2233  TIP3      OH2             8.0711219183      -21.5367058310       32.7659437173  TIP3      1833            0.0000000000
     55330      2233  TIP3      H1              8.4872179734      -20.6973815815       32.5124142275  TIP3      1833            0.0000000000
     55331      2233  TIP3      H2              8.6557148660      -21.8451813295       33.4836645371  TIP3      1833            0.0000000000
     55332      2234  TIP3      OH2             6.2823876919      -20.6991259466       25.9609733177  TIP3      1834            0.0000000000
     55333      2234  TIP3      H1              5.3145908404      -20.5680997718       26.0425889849  TIP3      1834            0.0000000000
     55334      2234  TIP3      H2              6.6340610172      -19.8582691979       26.3075637263  TIP3      1834            0.0000000000
     55335      2235  TIP3      OH2            11.6259657897      -25.4728731091       32.4334901085  TIP3      1835            0.0000000000
     55336      2235  TIP3      H1             11.2334866862      -25.6889770106       33.3005969417  TIP3      1835            0.0000000000
     55337      2235  TIP3      H2             12.2331486824      -26.2072635429       32.2596370112  TIP3      1835            0.0000000000
     55338      2236  TIP3      OH2            14.3473009717      -20.9149864350       34.9297753816  TIP3      1836            0.0000000000
     55339      2236  TIP3      H1             13.7047419366      -21.4426817682       34.4165096355  TIP3      1836            0.0000000000
     55340      2236  TIP3      H2             14.5836713032      -20.2298191662       34.2692210547  TIP3      1836            0.0000000000
     55341      2237  TIP3      OH2             2.4495058220      -33.6680384792       34.3100602775  TIP3      1837            0.0000000000
     55342      2237  TIP3      H1              1.5392193049      -33.3270685359       34.2646449438  TIP3      1837            0.0000000000
     55343      2237  TIP3      H2              2.3350282358      -34.5241790321       34.7507665238  TIP3      1837            0.0000000000
     55344      2238  TIP3      OH2            14.6921418157      -25.8345802652       23.7279653704  TIP3      1838            0.0000000000
     55345      2238  TIP3      H1             14.4487786448      -26.5871782409       24.3121097220  TIP3      1838            0.0000000000
     55346      2238  TIP3      H2             15.6419768299      -25.7473927176       23.9472250004  TIP3      1838            0.0000000000
     55347      2239  TIP3      OH2             2.0888054026      -21.8709915279       32.7367465417  TIP3      1839            0.0000000000
     55348      2239  TIP3      H1              2.3269211199      -22.8088805899       32.7354097523  TIP3      1839            0.0000000000
     55349      2239  TIP3      H2              2.3326740748      -21.5977647056       33.6310914848  TIP3      1839            0.0000000000
     55350      2240  TIP3      OH2             6.8379147118      -23.8305807765       22.4388581184  TIP3      1840            0.0000000000
     55351      2240  TIP3      H1              7.0533141057      -24.3667819535       23.2091945878  TIP3      1840            0.0000000000
     55352      2240  TIP3      H2              6.8808429997      -22.9140975757       22.7556685183  TIP3      1840            0.0000000000
     55353      2241  TIP3      OH2             3.3274673732      -26.6050581098       22.9389094444  TIP3      1841            0.0000000000
     55354      2241  TIP3      H1              2.6560674649      -26.2137014613       23.5196429415  TIP3      1841            0.0000000000
     55355      2241  TIP3      H2              3.8714501338      -25.8279833198       22.6807983087  TIP3      1841            0.0000000000
     55356      2242  TIP3      OH2            11.1727066075      -33.9095674795       33.2244136246  TIP3      1842            0.0000000000
     55357      2242  TIP3      H1             11.8792523693      -33.8528013054       33.8795305991  TIP3      1842            0.0000000000
     55358      2242  TIP3      H2             10.7917946837      -34.7930636735       33.4039946563  TIP3      1842            0.0000000000
     55359      2243  TIP3      OH2            11.9469988792      -34.2864992465       24.3161889519  TIP3      1843            0.0000000000
     55360      2243  TIP3      H1             12.1817469666      -33.8040980184       23.5083257800  TIP3      1843            0.0000000000
     55361      2243  TIP3      H2             12.5216041004      -33.8827094883       24.9803572255  TIP3      1843            0.0000000000
     55362      2244  TIP3      OH2             9.6024857631      -22.1464736909       23.1957024126  TIP3      1844            0.0000000000
     55363      2244  TIP3      H1              8.7798174797      -21.6468473698       23.2508403071  TIP3      1844            0.0000000000
     55364      2244  TIP3      H2             10.1437865434      -21.6533316513       22.5804173425  TIP3      1844            0.0000000000
     55365      2245  TIP3      OH2             9.1390628655      -32.5543179383       25.1429484620  TIP3      1845            0.0000000000
     55366      2245  TIP3      H1              9.9628241699      -32.0258578731       25.1919042859  TIP3      1845            0.0000000000
     55367      2245  TIP3      H2              8.9048589661      -32.6980168221       26.0765572008  TIP3      1845            0.0000000000
     55368      2246  TIP3      OH2             9.6979475411      -31.5610577116       34.3366930199  TIP3      1846            0.0000000000
     55369      2246  TIP3      H1              9.7981239401      -30.9845037416       35.1166345262  TIP3      1846            0.0000000000
     55370      2246  TIP3      H2             10.3578075579      -32.2552352499       34.4477887176  TIP3      1846            0.0000000000
     55371      2247  TIP3      OH2            10.0366617644      -35.4881102404       26.0767626311  TIP3      1847            0.0000000000
     55372      2247  TIP3      H1              9.6868569897      -34.8517343926       26.7245919750  TIP3      1847            0.0000000000
     55373      2247  TIP3      H2             10.7095876041      -34.9479239873       25.5996129924  TIP3      1847            0.0000000000
     55374      2248  TIP3      OH2             6.9762080349      -21.1106162677       23.1660438135  TIP3      1848            0.0000000000
     55375      2248  TIP3      H1              7.1337015541      -20.2902875111       22.6591456199  TIP3      1848            0.0000000000
     55376      2248  TIP3      H2              6.7510955399      -20.7907495276       24.0628333093  TIP3      1848            0.0000000000
     55377      2249  TIP3      OH2            15.9014940113      -33.6885415437       35.2025465503  TIP3      1849            0.0000000000
     55378      2249  TIP3      H1             14.9681979261      -33.3760887172       35.0662341418  TIP3      1849            0.0000000000
     55379      2249  TIP3      H2             16.2112389383      -33.6682449228       34.2739893189  TIP3      1849            0.0000000000
     55380      2250  TIP3      OH2            14.4953891906      -29.8908022543       29.2467641315  TIP3      1850            0.0000000000
     55381      2250  TIP3      H1             13.6860442158      -30.3301051807       28.9339517489  TIP3      1850            0.0000000000
     55382      2250  TIP3      H2             14.9601863545      -30.5966268646       29.7478203099  TIP3      1850            0.0000000000
     55383      2251  TIP3      OH2             3.9650474223      -24.0182867558       21.8597348248  TIP3      1851            0.0000000000
     55384      2251  TIP3      H1              4.5565779441      -23.2938275342       22.1073414866  TIP3      1851            0.0000000000
     55385      2251  TIP3      H2              4.4372848120      -24.3984992062       21.1035396369  TIP3      1851            0.0000000000
     55386      2252  TIP3      OH2             2.2438348340      -31.3427206099       20.9998210272  TIP3      1852            0.0000000000
     55387      2252  TIP3      H1              2.2394412962      -30.3610389120       21.1009333703  TIP3      1852            0.0000000000
     55388      2252  TIP3      H2              1.3701624442      -31.5113173318       20.6307560159  TIP3      1852            0.0000000000
     55389      2253  TIP3      OH2            15.5062686085      -20.6674479370       30.8866148684  TIP3      1853            0.0000000000
     55390      2253  TIP3      H1             15.4527702719      -19.9619834166       30.2137731711  TIP3      1853            0.0000000000
     55391      2253  TIP3      H2             16.4951638184      -20.5839113617       31.0668846430  TIP3      1853            0.0000000000
     55392      2254  TIP3      OH2             3.0600927386      -36.4831244680       29.6499178951  TIP3      1854            0.0000000000
     55393      2254  TIP3      H1              2.8614495971      -36.4878262827       28.6892588248  TIP3      1854            0.0000000000
     55394      2254  TIP3      H2              2.6506275646      -37.3420773835       29.9311902779  TIP3      1854            0.0000000000
     55395      2255  TIP3      OH2             2.0029930181      -22.6089672619       25.7886366371  TIP3      1855            0.0000000000
     55396      2255  TIP3      H1              1.1673656996      -22.1110264874       25.8032058595  TIP3      1855            0.0000000000
     55397      2255  TIP3      H2              2.5321621154      -22.0913309282       25.1653354140  TIP3      1855            0.0000000000
     55398      2256  TIP3      OH2             1.2755245201      -19.9622477433       37.1100290223  TIP3      1856            0.0000000000
     55399      2256  TIP3      H1              1.8373914455      -20.1818593403       37.8785393651  TIP3      1856            0.0000000000
     55400      2256  TIP3      H2              0.8057200566      -20.7936268991       36.9287474430  TIP3      1856            0.0000000000
     55401      2257  TIP3      OH2             5.8870415486      -21.0401719014       38.7300712842  TIP3      1857            0.0000000000
     55402      2257  TIP3      H1              6.6602443145      -21.5176652434       39.0756684999  TIP3      1857            0.0000000000
     55403      2257  TIP3      H2              5.8778467292      -21.2991634107       37.7884573467  TIP3      1857            0.0000000000
     55404      2258  TIP3      OH2            12.4379284028      -22.6556904128       37.4548772777  TIP3      1858            0.0000000000
     55405      2258  TIP3      H1             12.1074554233      -23.5372092540       37.7230440515  TIP3      1858            0.0000000000
     55406      2258  TIP3      H2             13.1937829159      -22.5320903352       38.0594593858  TIP3      1858            0.0000000000
     55407      2259  TIP3      OH2            14.5686323601      -21.7457204728       20.3350390640  TIP3      1859            0.0000000000
     55408      2259  TIP3      H1             14.8960608500      -22.5096259229       20.8069986639  TIP3      1859            0.0000000000
     55409      2259  TIP3      H2             15.3303913731      -21.4872404825       19.7839489511  TIP3      1859            0.0000000000
     55410      2260  TIP3      OH2             1.1870508000      -26.1538018758       38.0705505084  TIP3      1860            0.0000000000
     55411      2260  TIP3      H1              1.3323666931      -27.0812407554       37.7893994462  TIP3      1860            0.0000000000
     55412      2260  TIP3      H2              0.4109415047      -25.8927480068       37.5525111636  TIP3      1860            0.0000000000
     55413      2261  TIP3      OH2             7.8604844667      -26.1932081877       37.4937747836  TIP3      1861            0.0000000000
     55414      2261  TIP3      H1              7.5194674060      -25.9046413321       36.6280556228  TIP3      1861            0.0000000000
     55415      2261  TIP3      H2              7.9799931878      -27.1609094710       37.3977941466  TIP3      1861            0.0000000000
     55416      2262  TIP3      OH2            13.5714469028      -26.3098254802       34.8850931256  TIP3      1862            0.0000000000
     55417      2262  TIP3      H1             14.3379943702      -25.7023139129       34.7847563115  TIP3      1862            0.0000000000
     55418      2262  TIP3      H2             12.8404557268      -25.6786346634       34.9341633083  TIP3      1862            0.0000000000
     55419      2263  TIP3      OH2             2.0449529838      -28.9526314640       37.4770335816  TIP3      1863            0.0000000000
     55420      2263  TIP3      H1              2.4497167110      -29.8206705904       37.3898931527  TIP3      1863            0.0000000000
     55421      2263  TIP3      H2              1.7918015644      -28.9432616331       38.4296250442  TIP3      1863            0.0000000000
     55422      2264  TIP3      OH2             6.7121864142      -27.8233075096       22.5469439568  TIP3      1864            0.0000000000
     55423      2264  TIP3      H1              6.2113576951      -28.3373235373       23.1803128329  TIP3      1864            0.0000000000
     55424      2264  TIP3      H2              6.9615847824      -28.5020265076       21.8656048220  TIP3      1864            0.0000000000
     55425      2265  TIP3      OH2             5.9723190679      -29.9809949990       34.8610901012  TIP3      1865            0.0000000000
     55426      2265  TIP3      H1              5.3575972525      -29.2763342925       35.1287563886  TIP3      1865            0.0000000000
     55427      2265  TIP3      H2              6.3328771116      -29.6300239609       34.0289968538  TIP3      1865            0.0000000000
     55428      2266  TIP3      OH2             7.7559937617      -29.6130815133       20.7844732410  TIP3      1866            0.0000000000
     55429      2266  TIP3      H1              7.5809988088      -29.7463464007       19.8348155058  TIP3      1866            0.0000000000
     55430      2266  TIP3      H2              8.7241371389      -29.4979903227       20.8144223528  TIP3      1866            0.0000000000
     55431      2267  TIP3      OH2            11.0102194717      -27.4599202617       38.1795176429  TIP3      1867            0.0000000000
     55432      2267  TIP3      H1             11.9698086341      -27.4202799454       38.0938532195  TIP3      1867            0.0000000000
     55433      2267  TIP3      H2             10.8470507857      -28.2070192673       38.7722203756  TIP3      1867            0.0000000000
     55434      2268  TIP3      OH2             6.3425727499      -32.6080890678       35.9330396324  TIP3      1868            0.0000000000
     55435      2268  TIP3      H1              6.4715270315      -33.3372346712       35.3059301925  TIP3      1868            0.0000000000
     55436      2268  TIP3      H2              6.3199010678      -31.8122020652       35.3668923633  TIP3      1868            0.0000000000
     55437      2269  TIP3      OH2             6.7495326563      -34.2383262054       33.4544693836  TIP3      1869            0.0000000000
     55438      2269  TIP3      H1              7.2737955103      -33.7764842507       32.7609215539  TIP3      1869            0.0000000000
     55439      2269  TIP3      H2              5.8685531010      -34.3328568414       33.0232919669  TIP3      1869            0.0000000000
     55440      2270  TIP3      OH2             8.3100680089      -28.7843436804       33.6929211868  TIP3      1870            0.0000000000
     55441      2270  TIP3      H1              9.0631625173      -28.9389664825       33.1104468950  TIP3      1870            0.0000000000
     55442      2270  TIP3      H2              7.9626195102      -27.9307746334       33.3872868351  TIP3      1870            0.0000000000
     55443      2271  TIP3      OH2            12.7171964847      -30.9929979864       38.6916683811  TIP3      1871            0.0000000000
     55444      2271  TIP3      H1             12.9243166283      -31.9267410342       38.5886630368  TIP3      1871            0.0000000000
     55445      2271  TIP3      H2             13.5843003541      -30.5564172404       38.6846437672  TIP3      1871            0.0000000000
     55446      2272  TIP3      OH2            14.0383755793      -28.2049763663       36.8174419662  TIP3      1872            0.0000000000
     55447      2272  TIP3      H1             13.7795561859      -27.4788466860       36.2025193949  TIP3      1872            0.0000000000
     55448      2272  TIP3      H2             14.9985239229      -28.2498652980       36.6207255915  TIP3      1872            0.0000000000
     55449      2273  TIP3      OH2             4.8135765941      -31.3829693036       37.8611065359  TIP3      1873            0.0000000000
     55450      2273  TIP3      H1              4.0373349574      -31.9433481670       37.6413422179  TIP3      1873            0.0000000000
     55451      2273  TIP3      H2              5.4738634710      -31.7257709382       37.2282737928  TIP3      1873            0.0000000000
     55452      2274  TIP3      OH2             7.5503476931      -36.7968429038       33.8765444904  TIP3      1874            0.0000000000
     55453      2274  TIP3      H1              7.4122668508      -35.8281147415       33.7585548654  TIP3      1874            0.0000000000
     55454      2274  TIP3      H2              6.7956917479      -37.1495100021       33.3724828533  TIP3      1874            0.0000000000
     55455      2275  TIP3      OH2             8.8183906219      -32.4696135894       37.4494163627  TIP3      1875            0.0000000000
     55456      2275  TIP3      H1              8.5388137874      -32.6859146684       38.3569230634  TIP3      1875            0.0000000000
     55457      2275  TIP3      H2              8.0199005255      -32.6647971375       36.9204352515  TIP3      1875            0.0000000000
     55458      2276  TIP3      OH2            11.5390100636      -33.3387214913       36.5182528024  TIP3      1876            0.0000000000
     55459      2276  TIP3      H1             10.5698623138      -33.2856320865       36.6493635278  TIP3      1876            0.0000000000
     55460      2276  TIP3      H2             11.8107115539      -33.9621639587       37.1976216126  TIP3      1876            0.0000000000
     55461      2277  TIP3      OH2            13.2023716801      -34.7210441581       38.5104648495  TIP3      1877            0.0000000000
     55462      2277  TIP3      H1             13.0014801763      -35.6713115041       38.5023871882  TIP3      1877            0.0000000000
     55463      2277  TIP3      H2             12.8217543803      -34.4049190849       39.3760989189  TIP3      1877            0.0000000000
     55464      2278  TIP3      OH2             2.9474684133      -33.4559370028       37.5635291777  TIP3      1878            0.0000000000
     55465      2278  TIP3      H1              3.1780971690      -34.1883975042       36.9599979724  TIP3      1878            0.0000000000
     55466      2278  TIP3      H2              2.8530225416      -33.9108393660       38.4245790214  TIP3      1878            0.0000000000
     55467      2279  TIP3      OH2             7.7566620029      -37.4513580917       36.5541388439  TIP3      1879            0.0000000000
     55468      2279  TIP3      H1              8.4671863700      -38.1275658965       36.5222570563  TIP3      1879            0.0000000000
     55469      2279  TIP3      H2              7.6608428395      -37.2367486421       35.6071169125  TIP3      1879            0.0000000000
     55470      2280  TIP3      OH2             8.1197278740      -35.8035377301       38.6232562785  TIP3      1880            0.0000000000
     55471      2280  TIP3      H1              7.9716477852      -36.2961584827       37.7791058420  TIP3      1880            0.0000000000
     55472      2280  TIP3      H2              7.5196917271      -35.0411810151       38.5351818686  TIP3      1880            0.0000000000
     55473      2281  TIP3      OH2             7.6384385186      -18.9536626265       21.7428035220  TIP3      1881            0.0000000000
     55474      2281  TIP3      H1              8.5817344449      -18.7689259627       21.9335006940  TIP3      1881            0.0000000000
     55475      2281  TIP3      H2              7.4322791750      -18.2223880778       21.1827049335  TIP3      1881            0.0000000000
     55476      2282  TIP3      OH2            -0.0852334782      -18.8856742019       26.3149943969  TIP3      1882            0.0000000000
     55477      2282  TIP3      H1             -0.7685249786      -19.3734705298       25.7891014805  TIP3      1882            0.0000000000
     55478      2282  TIP3      H2              0.2214836601      -19.5777070498       26.9213645569  TIP3      1882            0.0000000000
     55479      2283  TIP3      OH2             0.7683706430      -20.8028910021       28.1342024300  TIP3      1883            0.0000000000
     55480      2283  TIP3      H1              0.4007909452      -21.6795766166       28.3184666678  TIP3      1883            0.0000000000
     55481      2283  TIP3      H2              0.9772913477      -20.4643824033       29.0205089723  TIP3      1883            0.0000000000
     55482      2284  TIP3      OH2            17.9359969939      -20.1253424375       30.9563492524  TIP3      1884            0.0000000000
     55483      2284  TIP3      H1             18.2332370165      -19.8999409157       31.8998289555  TIP3      1884            0.0000000000
     55484      2284  TIP3      H2             18.7596391118      -19.5868142912       30.7124179835  TIP3      1884            0.0000000000
     55485      2285  TIP3      OH2            17.8204433864      -20.4003545816       34.0690091869  TIP3      1885            0.0000000000
     55486      2285  TIP3      H1             17.3958039102      -21.1709042883       33.6447041299  TIP3      1885            0.0000000000
     55487      2285  TIP3      H2             18.4078456758      -20.8425400902       34.7053021175  TIP3      1885            0.0000000000
     55488      2286  TIP3      OH2            16.3145892407      -24.6722431457       38.6727912758  TIP3      1886            0.0000000000
     55489      2286  TIP3      H1             15.4303921490      -24.7241273662       39.0757933510  TIP3      1886            0.0000000000
     55490      2286  TIP3      H2             16.6863481395      -23.8764396949       39.1229649175  TIP3      1886            0.0000000000
     55491      2287  TIP3      OH2            17.6121413761      -26.3665983575       24.1455626868  TIP3      1887            0.0000000000
     55492      2287  TIP3      H1             18.4768874451      -25.9612250138       24.3271155453  TIP3      1887            0.0000000000
     55493      2287  TIP3      H2             17.6182684810      -27.1122045641       24.7950519044  TIP3      1887            0.0000000000
     55494      2288  TIP3      OH2            17.9972906818      -28.2942237723       25.9982675634  TIP3      1888            0.0000000000
     55495      2288  TIP3      H1             17.2586430300      -28.8036473941       26.4035450716  TIP3      1888            0.0000000000
     55496      2288  TIP3      H2             18.5910596782      -28.1291517432       26.7592503615  TIP3      1888            0.0000000000
     55497      2289  TIP3      OH2            17.7459610298      -25.5653307958       30.9848157274  TIP3      1889            0.0000000000
     55498      2289  TIP3      H1             18.5869516071      -25.9313653193       30.6505640057  TIP3      1889            0.0000000000
     55499      2289  TIP3      H2             17.8844870740      -24.6053727702       30.8323113108  TIP3      1889            0.0000000000
     55500      2290  TIP3      OH2            16.2763244378      -22.6812666813       33.2768127226  TIP3      1890            0.0000000000
     55501      2290  TIP3      H1             15.6015233627      -22.3310724168       33.8765152656  TIP3      1890            0.0000000000
     55502      2290  TIP3      H2             15.7342313985      -23.0941377478       32.5730051627  TIP3      1890            0.0000000000
     55503      2291  TIP3      OH2            18.2655035915      -28.4603151621       22.4150836385  TIP3      1891            0.0000000000
     55504      2291  TIP3      H1             17.7676799880      -28.0822986018       21.6678366269  TIP3      1891            0.0000000000
     55505      2291  TIP3      H2             18.2263792416      -27.7465763570       23.0659658564  TIP3      1891            0.0000000000
     55506      2292  TIP3      OH2            16.6658270141      -31.1791024435       20.9485548080  TIP3      1892            0.0000000000
     55507      2292  TIP3      H1             16.7512607415      -30.5247975868       20.2482047922  TIP3      1892            0.0000000000
     55508      2292  TIP3      H2             16.5086942513      -32.0009028829       20.4625798286  TIP3      1892            0.0000000000
     55509      2293  TIP3      OH2            15.8079301408      -29.7999502059       26.5767773268  TIP3      1893            0.0000000000
     55510      2293  TIP3      H1             15.6431873595      -30.7569973052       26.5434359136  TIP3      1893            0.0000000000
     55511      2293  TIP3      H2             15.4436300710      -29.5506391562       27.4374168769  TIP3      1893            0.0000000000
     55512      2294  TIP3      OH2             0.8114399075      -27.7209781137       30.6145216696  TIP3      1894            0.0000000000
     55513      2294  TIP3      H1              1.0104467814      -27.8063146327       29.6559181621  TIP3      1894            0.0000000000
     55514      2294  TIP3      H2              1.6964840681      -27.8696597755       31.0004053506  TIP3      1894            0.0000000000
     55515      2295  TIP3      OH2            16.6440868751      -27.8357727070       36.2414657188  TIP3      1895            0.0000000000
     55516      2295  TIP3      H1             17.2548793272      -28.5849359705       36.4016850690  TIP3      1895            0.0000000000
     55517      2295  TIP3      H2             17.2371678236      -27.0580149576       36.2610692637  TIP3      1895            0.0000000000
     55518      2296  TIP3      OH2            18.1550678102      -29.9323331393       36.9170956394  TIP3      1896            0.0000000000
     55519      2296  TIP3      H1             17.2795189889      -30.3355664589       36.7387787301  TIP3      1896            0.0000000000
     55520      2296  TIP3      H2             18.7450199312      -30.6977343413       36.8288017982  TIP3      1896            0.0000000000
     55521      2297  TIP3      OH2            15.4871273528      -32.2159226141       25.0638428669  TIP3      1897            0.0000000000
     55522      2297  TIP3      H1             15.7866186521      -33.1457994906       25.1498682962  TIP3      1897            0.0000000000
     55523      2297  TIP3      H2             16.2570914930      -31.8068076463       24.6440288604  TIP3      1897            0.0000000000
     55524      2298  TIP3      OH2            16.1041180476      -31.6696370710       30.4709730063  TIP3      1898            0.0000000000
     55525      2298  TIP3      H1             17.0612095326      -31.4324615167       30.4525356232  TIP3      1898            0.0000000000
     55526      2298  TIP3      H2             15.8994114137      -31.5345470106       31.4095163363  TIP3      1898            0.0000000000
     55527      2299  TIP3      OH2            16.1650635836      -30.9407168975       33.2545390326  TIP3      1899            0.0000000000
     55528      2299  TIP3      H1             15.2948757886      -30.6453675503       33.6031369927  TIP3      1899            0.0000000000
     55529      2299  TIP3      H2             16.5982900647      -30.0804693551       33.0369835144  TIP3      1899            0.0000000000
     55530      2300  TIP3      OH2             0.4188722196      -32.4355734046       36.7445907273  TIP3      1900            0.0000000000
     55531      2300  TIP3      H1              1.3567968569      -32.5994499478       36.9692762436  TIP3      1900            0.0000000000
     55532      2300  TIP3      H2             -0.0254244456      -33.2327665737       37.1034681392  TIP3      1900            0.0000000000
     55533      2301  TIP3      OH2            18.3892775315      -36.9180087445       38.5867991476  TIP3      1901            0.0000000000
     55534      2301  TIP3      H1             18.7994656830      -37.5788941452       37.9973220890  TIP3      1901            0.0000000000
     55535      2301  TIP3      H2             18.5915329134      -36.0847642553       38.1247777550  TIP3      1901            0.0000000000
     55536      2302  TIP3      OH2            16.1267592547      -34.9445759629       25.0866557267  TIP3      1902            0.0000000000
     55537      2302  TIP3      H1             16.3235475174      -35.4025524326       25.9210553349  TIP3      1902            0.0000000000
     55538      2302  TIP3      H2             15.5151580337      -35.5581829091       24.6238323783  TIP3      1902            0.0000000000
     55539      2303  TIP3      OH2             1.6166756372      -34.1437014218       29.6307583663  TIP3      1903            0.0000000000
     55540      2303  TIP3      H1              2.1102371002      -34.9431218229       29.9118660211  TIP3      1903            0.0000000000
     55541      2303  TIP3      H2              2.1371139761      -33.4301493418       30.0375181454  TIP3      1903            0.0000000000
     55542      2304  TIP3      OH2            -0.0782007498      -31.1536772534       30.6917874362  TIP3      1904            0.0000000000
     55543      2304  TIP3      H1              0.4666321876      -31.3579120870       29.9019506382  TIP3      1904            0.0000000000
     55544      2304  TIP3      H2              0.3373984342      -30.3172999146       30.9568250634  TIP3      1904            0.0000000000
     55545      2305  TIP3      OH2            17.9443705123      -34.8294219164       36.9831715470  TIP3      1905            0.0000000000
     55546      2305  TIP3      H1             17.0299874571      -34.5174696938       36.8859321736  TIP3      1905            0.0000000000
     55547      2305  TIP3      H2             18.0524372229      -35.3383889360       36.1571909686  TIP3      1905            0.0000000000
     55548      2306  TIP3      OH2            17.9778242462      -34.9205755969       21.6595408648  TIP3      1906            0.0000000000
     55549      2306  TIP3      H1             18.4107251525      -35.5804764808       21.1194593841  TIP3      1906            0.0000000000
     55550      2306  TIP3      H2             18.6681164899      -34.2252576252       21.6660717023  TIP3      1906            0.0000000000
     55551      2307  TIP3      OH2             0.2702539879      -34.8718608819       24.7579042616  TIP3      1907            0.0000000000
     55552      2307  TIP3      H1             -0.6692226132      -34.6824189024       24.6074009179  TIP3      1907            0.0000000000
     55553      2307  TIP3      H2              0.7069851360      -34.3959490164       24.0427219066  TIP3      1907            0.0000000000
     55554      2308  TIP3      OH2            15.0203274884      -19.9107874361       26.6864475045  TIP3      1908            0.0000000000
     55555      2308  TIP3      H1             15.6980792202      -20.2407345765       26.0763534007  TIP3      1908            0.0000000000
     55556      2308  TIP3      H2             15.5419931420      -19.4136257804       27.3339980529  TIP3      1908            0.0000000000
     55557      2309  TIP3      OH2             0.2220662778      -36.1965606980       33.0492460692  TIP3      1909            0.0000000000
     55558      2309  TIP3      H1             -0.4370237467      -36.3937523574       33.7442996485  TIP3      1909            0.0000000000
     55559      2309  TIP3      H2             -0.2187233504      -35.5075397604       32.5233923860  TIP3      1909            0.0000000000
     55560      2310  TIP3      OH2             2.4424270985      -22.9866865909       37.2245648593  TIP3      1910            0.0000000000
     55561      2310  TIP3      H1              1.5988565947      -22.7984959701       36.7799821483  TIP3      1910            0.0000000000
     55562      2310  TIP3      H2              2.1730360357      -23.0553357162       38.1498620911  TIP3      1910            0.0000000000
     55563      2311  TIP3      OH2             5.3619654175      -22.0151428869       33.4929478692  TIP3      1911            0.0000000000
     55564      2311  TIP3      H1              4.9822952585      -21.1731489294       33.2062237438  TIP3      1911            0.0000000000
     55565      2311  TIP3      H2              6.2860353405      -21.9102064781       33.1812143937  TIP3      1911            0.0000000000
     55566      2312  TIP3      OH2             9.6769942735      -20.5912802806       36.4182616325  TIP3      1912            0.0000000000
     55567      2312  TIP3      H1              9.8561134774      -20.9372156444       37.3305100637  TIP3      1912            0.0000000000
     55568      2312  TIP3      H2             10.5616472273      -20.2887537509       36.1402527042  TIP3      1912            0.0000000000
     55569      2313  TIP3      OH2            11.9937273052      -19.3175661784       35.6883171606  TIP3      1913            0.0000000000
     55570      2313  TIP3      H1             12.7108281453      -19.9322926254       35.4590283670  TIP3      1913            0.0000000000
     55571      2313  TIP3      H2             12.3585958046      -18.9045039291       36.5019980351  TIP3      1913            0.0000000000
     55572      2314  TIP3      OH2            16.9540906500      -36.7129375215       34.8160031299  TIP3      1914            0.0000000000
     55573      2314  TIP3      H1             16.1441008284      -36.4065307040       34.3674629883  TIP3      1914            0.0000000000
     55574      2314  TIP3      H2             17.1716962001      -37.4980902248       34.2493185344  TIP3      1914            0.0000000000
     55575      2315  TIP3      OH2             2.7872140606      -18.7581438197       33.5144438220  TIP3      1915            0.0000000000
     55576      2315  TIP3      H1              2.0499112454      -18.2891075101       33.0900519701  TIP3      1915            0.0000000000
     55577      2315  TIP3      H2              2.4331267681      -18.9829240921       34.3870612468  TIP3      1915            0.0000000000
     55578      2316  TIP3      OH2             5.2601903989      -19.1733213635       32.5670281356  TIP3      1916            0.0000000000
     55579      2316  TIP3      H1              4.3648253598      -19.0606724723       32.9654736747  TIP3      1916            0.0000000000
     55580      2316  TIP3      H2              5.1881014825      -18.5949800170       31.7805032634  TIP3      1916            0.0000000000
     55581      2317  TIP3      OH2             9.9578153591      -19.2725908730       31.7344026895  TIP3      1917            0.0000000000
     55582      2317  TIP3      H1              9.4947241964      -18.7243835746       31.0822531250  TIP3      1917            0.0000000000
     55583      2317  TIP3      H2             10.1125238078      -18.6439397204       32.4689700924  TIP3      1917            0.0000000000
     55584      2318  TIP3      OH2            12.2693921789      -20.4220277656       32.7165842300  TIP3      1918            0.0000000000
     55585      2318  TIP3      H1             11.3805528240      -20.1987313933       32.4048386532  TIP3      1918            0.0000000000
     55586      2318  TIP3      H2             12.7146183843      -19.5589171329       32.6302115937  TIP3      1918            0.0000000000
     55587      2319  TIP3      OH2            14.8629736963      -18.8478869821       32.9958456668  TIP3      1919            0.0000000000
     55588      2319  TIP3      H1             14.7314067726      -17.9028343285       32.7524514114  TIP3      1919            0.0000000000
     55589      2319  TIP3      H2             15.0695582887      -19.2303888691       32.1198803168  TIP3      1919            0.0000000000
     55590      2320  TIP3      OH2             2.2045189848      -20.1142347265       30.4343690002  TIP3      1920            0.0000000000
     55591      2320  TIP3      H1              2.1650622643      -20.5627198849       31.3064098177  TIP3      1920            0.0000000000
     55592      2320  TIP3      H2              3.0261374192      -20.4646691781       30.0352475815  TIP3      1920            0.0000000000
     55593      2321  TIP3      OH2             4.3167188930      -21.4026737664       29.0857270188  TIP3      1921            0.0000000000
     55594      2321  TIP3      H1              4.1296573981      -22.3373735191       29.2891313352  TIP3      1921            0.0000000000
     55595      2321  TIP3      H2              5.1693137344      -21.2703311389       29.5584567323  TIP3      1921            0.0000000000
     55596      2322  TIP3      OH2             6.8881969498      -20.9252178497       29.9495815434  TIP3      1922            0.0000000000
     55597      2322  TIP3      H1              7.0852737886      -21.8394512430       29.6767041172  TIP3      1922            0.0000000000
     55598      2322  TIP3      H2              6.9498004235      -20.9864125255       30.9121078074  TIP3      1922            0.0000000000
     55599      2323  TIP3      OH2            10.3803013579      -35.2701934560       29.0972830641  TIP3      1923            0.0000000000
     55600      2323  TIP3      H1              9.7029634164      -35.9163179738       29.3572775651  TIP3      1923            0.0000000000
     55601      2323  TIP3      H2             10.9370046871      -35.7833783560       28.4982869470  TIP3      1923            0.0000000000
     55602      2324  TIP3      OH2            15.5140351675      -37.1992373755       29.1989268328  TIP3      1924            0.0000000000
     55603      2324  TIP3      H1             16.1329066430      -36.6219443815       28.6820893697  TIP3      1924            0.0000000000
     55604      2324  TIP3      H2             14.6376737108      -36.8541291539       28.9491956999  TIP3      1924            0.0000000000
     55605      2325  TIP3      OH2            17.2059609436      -36.0101452053       27.5099410064  TIP3      1925            0.0000000000
     55606      2325  TIP3      H1             17.8685232930      -36.5525671712       27.0171800259  TIP3      1925            0.0000000000
     55607      2325  TIP3      H2             17.6603212355      -35.1421945051       27.5561703783  TIP3      1925            0.0000000000
     55608      2326  TIP3      OH2             2.7148575043      -36.6359441335       26.9483132860  TIP3      1926            0.0000000000
     55609      2326  TIP3      H1              1.9381688990      -36.8747309241       26.4075415733  TIP3      1926            0.0000000000
     55610      2326  TIP3      H2              3.2273062693      -37.4721869724       26.9080696577  TIP3      1926            0.0000000000
     55611      2327  TIP3      OH2             1.5563179708      -36.8534279027       22.7143364027  TIP3      1927            0.0000000000
     55612      2327  TIP3      H1              1.9693646191      -36.2326116185       22.1238102440  TIP3      1927            0.0000000000
     55613      2327  TIP3      H2              0.9020681172      -36.3244976614       23.2032217224  TIP3      1927            0.0000000000
     55614      2328  TIP3      OH2             7.2549401074      -36.7125453770       26.7174639076  TIP3      1928            0.0000000000
     55615      2328  TIP3      H1              8.1539771632      -36.3416021188       26.6957265153  TIP3      1928            0.0000000000
     55616      2328  TIP3      H2              7.1657064256      -36.9350582927       27.6485119978  TIP3      1928            0.0000000000
     55617      2329  TIP3      OH2            12.8834100665      -36.6892795494       28.3717923922  TIP3      1929            0.0000000000
     55618      2329  TIP3      H1             12.9053226690      -36.5956144720       27.4145090655  TIP3      1929            0.0000000000
     55619      2329  TIP3      H2             12.5537995510      -37.6101662840       28.4971683331  TIP3      1929            0.0000000000
     55620      2330  TIP3      OH2            14.2042576801      -36.6572978698       24.0551222825  TIP3      1930            0.0000000000
     55621      2330  TIP3      H1             13.4777048377      -36.0502904395       23.8550717889  TIP3      1930            0.0000000000
     55622      2330  TIP3      H2             13.7382005746      -37.5069828753       24.2155114196  TIP3      1930            0.0000000000
     55623      2331  TIP3      OH2             1.4799808124      -20.9306784345       23.6313279764  TIP3      1931            0.0000000000
     55624      2331  TIP3      H1              0.7497817371      -20.9236496994       22.9669925829  TIP3      1931            0.0000000000
     55625      2331  TIP3      H2              1.4340576871      -19.9927175525       23.8734551470  TIP3      1931            0.0000000000
     55626      2332  TIP3      OH2             8.3906934450      -34.6528511756       23.5929135333  TIP3      1932            0.0000000000
     55627      2332  TIP3      H1              8.6160901623      -35.2780302746       24.3046970458  TIP3      1932            0.0000000000
     55628      2332  TIP3      H2              8.4049183214      -33.8085298396       24.0933827370  TIP3      1932            0.0000000000
     55629      2333  TIP3      OH2            10.2983347330      -19.6808806658       22.0136853794  TIP3      1933            0.0000000000
     55630      2333  TIP3      H1             11.1982460096      -19.3150872311       21.8462363661  TIP3      1933            0.0000000000
     55631      2333  TIP3      H2             10.0548546822      -20.1077920868       21.2163961425  TIP3      1933            0.0000000000
     55632      2334  TIP3      OH2            17.0343824285      -20.1072005231       24.6962524228  TIP3      1934            0.0000000000
     55633      2334  TIP3      H1             16.7985716840      -20.8947540593       24.1462416468  TIP3      1934            0.0000000000
     55634      2334  TIP3      H2             16.9338822314      -19.3658362402       24.0973228824  TIP3      1934            0.0000000000
     55635      2335  TIP3      OH2             2.6398489055      -36.1117932530       36.4089375980  TIP3      1935            0.0000000000
     55636      2335  TIP3      H1              2.2829901707      -36.9038382755       36.8559795571  TIP3      1935            0.0000000000
     55637      2335  TIP3      H2              3.5694695637      -36.1228110662       36.7454703393  TIP3      1935            0.0000000000
     55638      2336  TIP3      OH2             4.6412835667      -36.7377261308       38.0009022363  TIP3      1936            0.0000000000
     55639      2336  TIP3      H1              5.5371998112      -37.0693438651       37.7876339567  TIP3      1936            0.0000000000
     55640      2336  TIP3      H2              4.2584801315      -37.5276174773       38.4378309707  TIP3      1936            0.0000000000
     55641      2337  TIP3      OH2             3.3052945268      -19.9239506344       20.6490565759  TIP3      1937            0.0000000000
     55642      2337  TIP3      H1              2.9765068336      -19.7061251493       21.5274473047  TIP3      1937            0.0000000000
     55643      2337  TIP3      H2              4.0142932026      -20.5496696040       20.7937212005  TIP3      1937            0.0000000000
     55644      2338  TIP3      OH2            13.0683744346      -37.3978719973       38.1803546717  TIP3      1938            0.0000000000
     55645      2338  TIP3      H1             13.1202565781      -37.9116827024       39.0166936512  TIP3      1938            0.0000000000
     55646      2338  TIP3      H2             13.9449515109      -37.5008223442       37.7895984012  TIP3      1938            0.0000000000
     55647      2339  TIP3      OH2            16.2473063909      -21.3925600732       36.8527117328  TIP3      1939            0.0000000000
     55648      2339  TIP3      H1             15.4446138398      -21.5438174338       36.3079119213  TIP3      1939            0.0000000000
     55649      2339  TIP3      H2             16.1481225695      -20.4363703591       37.0485239470  TIP3      1939            0.0000000000
     55650      2340  TIP3      OH2            30.6671452617      -27.5047244111       26.8596863946  TIP3      1940            0.0000000000
     55651      2340  TIP3      H1             30.7084753817      -26.5329262382       26.7476796613  TIP3      1940            0.0000000000
     55652      2340  TIP3      H2             29.9846095888      -27.7542931571       26.2131809487  TIP3      1940            0.0000000000
     55653      2341  TIP3      OH2            29.5588471118      -28.2317937995       30.3041934452  TIP3      1941            0.0000000000
     55654      2341  TIP3      H1             29.5284047235      -28.8890955076       31.0005829852  TIP3      1941            0.0000000000
     55655      2341  TIP3      H2             29.2343749974      -28.7227229709       29.5306533495  TIP3      1941            0.0000000000
     55656      2342  TIP3      OH2            21.9180366566      -28.5991011550       31.8655141486  TIP3      1942            0.0000000000
     55657      2342  TIP3      H1             21.9890932139      -29.2553950497       32.5919130824  TIP3      1942            0.0000000000
     55658      2342  TIP3      H2             22.6491279656      -28.0010049173       32.0752949832  TIP3      1942            0.0000000000
     55659      2343  TIP3      OH2            33.2659321985      -25.3003994204       28.5826686219  TIP3      1943            0.0000000000
     55660      2343  TIP3      H1             32.8292188615      -26.0145232512       29.0589297029  TIP3      1943            0.0000000000
     55661      2343  TIP3      H2             33.2613890345      -24.5811080343       29.2429470525  TIP3      1943            0.0000000000
     55662      2344  TIP3      OH2            22.8471098079      -24.1520017985       30.4045574574  TIP3      1944            0.0000000000
     55663      2344  TIP3      H1             22.5052499058      -24.9848495242       30.0446687023  TIP3      1944            0.0000000000
     55664      2344  TIP3      H2             23.8016613993      -24.3332567467       30.4450534858  TIP3      1944            0.0000000000
     55665      2345  TIP3      OH2            19.4842568459      -30.5444075940       25.8389250374  TIP3      1945            0.0000000000
     55666      2345  TIP3      H1             19.0238099848      -29.6783374824       25.7874093329  TIP3      1945            0.0000000000
     55667      2345  TIP3      H2             18.9139626007      -31.0965032867       25.2804200514  TIP3      1945            0.0000000000
     55668      2346  TIP3      OH2            20.1749542488      -28.3414644396       27.9589205582  TIP3      1946            0.0000000000
     55669      2346  TIP3      H1             20.4214736192      -29.1411653395       28.4581886074  TIP3      1946            0.0000000000
     55670      2346  TIP3      H2             20.9100291855      -28.2547605883       27.3316428798  TIP3      1946            0.0000000000
     55671      2347  TIP3      OH2            30.3680937928      -20.1606453094       28.8144176320  TIP3      1947            0.0000000000
     55672      2347  TIP3      H1             31.0107597296      -20.8645682325       28.5396878802  TIP3      1947            0.0000000000
     55673      2347  TIP3      H2             30.1719614195      -20.4382665134       29.7083784299  TIP3      1947            0.0000000000
     55674      2348  TIP3      OH2            27.9363168823      -25.8181013071       30.7273986080  TIP3      1948            0.0000000000
     55675      2348  TIP3      H1             28.2717266071      -26.4854519192       30.1071130265  TIP3      1948            0.0000000000
     55676      2348  TIP3      H2             28.7084590109      -25.6886172401       31.3046272254  TIP3      1948            0.0000000000
     55677      2349  TIP3      OH2            36.5776054769      -34.2087726421       31.5337367414  TIP3      1949            0.0000000000
     55678      2349  TIP3      H1             36.6899937311      -33.5884315920       32.2858207149  TIP3      1949            0.0000000000
     55679      2349  TIP3      H2             37.0711627936      -33.7477619081       30.8387966933  TIP3      1949            0.0000000000
     55680      2350  TIP3      OH2            31.0943038576      -31.3867220993       31.0749361331  TIP3      1950            0.0000000000
     55681      2350  TIP3      H1             31.2476743209      -32.3521437558       31.0405746105  TIP3      1950            0.0000000000
     55682      2350  TIP3      H2             30.9941492429      -31.2203001296       30.1069393657  TIP3      1950            0.0000000000
     55683      2351  TIP3      OH2            24.2385418960      -33.3006392418       28.3124783748  TIP3      1951            0.0000000000
     55684      2351  TIP3      H1             24.3035340489      -32.4475664526       27.8529317107  TIP3      1951            0.0000000000
     55685      2351  TIP3      H2             23.8000721065      -33.8640684674       27.6396311702  TIP3      1951            0.0000000000
     55686      2352  TIP3      OH2            31.9586695861      -33.1940385872       26.6870622012  TIP3      1952            0.0000000000
     55687      2352  TIP3      H1             32.6280246311      -33.5116470581       27.3384319302  TIP3      1952            0.0000000000
     55688      2352  TIP3      H2             32.4968845748      -32.6469643611       26.0942518946  TIP3      1952            0.0000000000
     55689      2353  TIP3      OH2            20.8497839259      -30.8906180090       29.0543473007  TIP3      1953            0.0000000000
     55690      2353  TIP3      H1             21.5244429414      -31.4531716357       29.4903854932  TIP3      1953            0.0000000000
     55691      2353  TIP3      H2             20.9178120878      -31.1918518848       28.1357158270  TIP3      1953            0.0000000000
     55692      2354  TIP3      OH2            26.0181029220      -29.3340555896       28.3067113908  TIP3      1954            0.0000000000
     55693      2354  TIP3      H1             26.6546433455      -29.9025104443       28.7723373828  TIP3      1954            0.0000000000
     55694      2354  TIP3      H2             25.4571239532      -30.0023866831       27.8628974539  TIP3      1954            0.0000000000
     55695      2355  TIP3      OH2            37.0070867279      -32.7513153553       33.7799149463  TIP3      1955            0.0000000000
     55696      2355  TIP3      H1             36.3415195664      -32.0413117465       33.6895016748  TIP3      1955            0.0000000000
     55697      2355  TIP3      H2             37.0203419935      -32.9034227831       34.7340727794  TIP3      1955            0.0000000000
     55698      2356  TIP3      OH2            23.0949880033      -34.3981643764       32.3602618001  TIP3      1956            0.0000000000
     55699      2356  TIP3      H1             22.8368250438      -33.8403640373       31.6011447854  TIP3      1956            0.0000000000
     55700      2356  TIP3      H2             22.4046311485      -34.1583708065       33.0275745159  TIP3      1956            0.0000000000
     55701      2357  TIP3      OH2            30.4378366454      -24.9033286440       25.9132867637  TIP3      1957            0.0000000000
     55702      2357  TIP3      H1             30.1257387398      -25.2039527437       25.0459005428  TIP3      1957            0.0000000000
     55703      2357  TIP3      H2             30.1024678772      -23.9811760939       25.9547022125  TIP3      1957            0.0000000000
     55704      2358  TIP3      OH2            25.6384169570      -26.7423809675       32.6303788581  TIP3      1958            0.0000000000
     55705      2358  TIP3      H1             24.9061339410      -26.1053510013       32.7816155803  TIP3      1958            0.0000000000
     55706      2358  TIP3      H2             26.3431360146      -26.1507846517       32.3271567869  TIP3      1958            0.0000000000
     55707      2359  TIP3      OH2            33.7363108279      -33.8739246690       28.6755593874  TIP3      1959            0.0000000000
     55708      2359  TIP3      H1             33.5310560924      -34.6441052342       29.2145312758  TIP3      1959            0.0000000000
     55709      2359  TIP3      H2             34.4083904309      -33.4205518066       29.2120784016  TIP3      1959            0.0000000000
     55710      2360  TIP3      OH2            22.6530613330      -32.5168314391       30.3468582689  TIP3      1960            0.0000000000
     55711      2360  TIP3      H1             23.2962629566      -31.8547994543       30.6929177212  TIP3      1960            0.0000000000
     55712      2360  TIP3      H2             23.1902025402      -32.9652287953       29.6509828061  TIP3      1960            0.0000000000
     55713      2361  TIP3      OH2            24.0670793152      -24.7633386247       33.4244190046  TIP3      1961            0.0000000000
     55714      2361  TIP3      H1             24.0299882445      -23.8473439328       33.0683733986  TIP3      1961            0.0000000000
     55715      2361  TIP3      H2             23.1803041907      -24.8251033270       33.8644421942  TIP3      1961            0.0000000000
     55716      2362  TIP3      OH2            20.1699756579      -25.0971801998       24.2139712730  TIP3      1962            0.0000000000
     55717      2362  TIP3      H1             19.8878485021      -24.8308972157       23.3223948185  TIP3      1962            0.0000000000
     55718      2362  TIP3      H2             20.2212795661      -24.2491495422       24.6996690445  TIP3      1962            0.0000000000
     55719      2363  TIP3      OH2            33.7871876530      -23.4700427319       30.9491488009  TIP3      1963            0.0000000000
     55720      2363  TIP3      H1             32.8210548419      -23.3778435496       31.0917843990  TIP3      1963            0.0000000000
     55721      2363  TIP3      H2             34.0531617830      -22.5430546003       30.7843531763  TIP3      1963            0.0000000000
     55722      2364  TIP3      OH2            34.0861246511      -35.1650599699       32.3653978356  TIP3      1964            0.0000000000
     55723      2364  TIP3      H1             33.3509155091      -34.5508132327       32.2897328663  TIP3      1964            0.0000000000
     55724      2364  TIP3      H2             34.7852291295      -34.7539506238       31.8245889534  TIP3      1964            0.0000000000
     55725      2365  TIP3      OH2            27.0856950577      -37.0700337840       29.8129124088  TIP3      1965            0.0000000000
     55726      2365  TIP3      H1             26.9571877513      -38.0365973603       29.7578105231  TIP3      1965            0.0000000000
     55727      2365  TIP3      H2             26.2095417982      -36.7539921469       30.1065731353  TIP3      1965            0.0000000000
     55728      2366  TIP3      OH2            32.0358821937      -21.6797954714       27.5754175738  TIP3      1966            0.0000000000
     55729      2366  TIP3      H1             32.4687190785      -22.3903756428       27.0633678101  TIP3      1966            0.0000000000
     55730      2366  TIP3      H2             32.3937824548      -20.8778197531       27.1430345525  TIP3      1966            0.0000000000
     55731      2367  TIP3      OH2            33.2260037421      -23.7572673376       26.0579996551  TIP3      1967            0.0000000000
     55732      2367  TIP3      H1             32.9406043796      -24.4671762900       25.4599028614  TIP3      1967            0.0000000000
     55733      2367  TIP3      H2             33.2720523070      -24.2323568270       26.9122885452  TIP3      1967            0.0000000000
     55734      2368  TIP3      OH2            34.8735303793      -25.1880049027       34.5616952030  TIP3      1968            0.0000000000
     55735      2368  TIP3      H1             35.0185010181      -25.8084319286       33.8146626215  TIP3      1968            0.0000000000
     55736      2368  TIP3      H2             35.0539062641      -24.3219121041       34.1638168479  TIP3      1968            0.0000000000
     55737      2369  TIP3      OH2            29.3561510610      -28.2387050927       24.3614692611  TIP3      1969            0.0000000000
     55738      2369  TIP3      H1             28.6513185861      -27.7027074840       23.9622254380  TIP3      1969            0.0000000000
     55739      2369  TIP3      H2             30.0504407024      -28.1939902235       23.6612888077  TIP3      1969            0.0000000000
     55740      2370  TIP3      OH2            36.7368669732      -28.8698501102       32.6195370848  TIP3      1970            0.0000000000
     55741      2370  TIP3      H1             36.0742192017      -28.1527567393       32.6808884832  TIP3      1970            0.0000000000
     55742      2370  TIP3      H2             37.2075773814      -28.6378128450       31.7984507469  TIP3      1970            0.0000000000
     55743      2371  TIP3      OH2            32.7910177378      -28.0329788977       25.2534441425  TIP3      1971            0.0000000000
     55744      2371  TIP3      H1             32.0393278879      -27.8115265802       25.8527067136  TIP3      1971            0.0000000000
     55745      2371  TIP3      H2             33.2343338561      -28.7427789135       25.7463723428  TIP3      1971            0.0000000000
     55746      2372  TIP3      OH2            32.6415162214      -29.9187283016       34.3905545145  TIP3      1972            0.0000000000
     55747      2372  TIP3      H1             32.7529279277      -29.0772675824       34.8906659838  TIP3      1972            0.0000000000
     55748      2372  TIP3      H2             32.0898873390      -29.5642343829       33.6466114169  TIP3      1972            0.0000000000
     55749      2373  TIP3      OH2            24.4131658235      -27.3869997097       27.1632991649  TIP3      1973            0.0000000000
     55750      2373  TIP3      H1             24.0828950810      -27.7853079960       26.3229349767  TIP3      1973            0.0000000000
     55751      2373  TIP3      H2             25.0148546966      -28.0894620607       27.5015342296  TIP3      1973            0.0000000000
     55752      2374  TIP3      OH2            25.7583659127      -23.9826288139       29.8449488335  TIP3      1974            0.0000000000
     55753      2374  TIP3      H1             25.6979699259      -24.5496711596       29.0678254080  TIP3      1974            0.0000000000
     55754      2374  TIP3      H2             26.5162147717      -24.3592907098       30.3202119537  TIP3      1974            0.0000000000
     55755      2375  TIP3      OH2            24.7577373968      -28.6492145306       30.8026570665  TIP3      1975            0.0000000000
     55756      2375  TIP3      H1             25.3299929101      -28.5247095418       30.0221354864  TIP3      1975            0.0000000000
     55757      2375  TIP3      H2             25.1096667669      -27.9899314775       31.4335036034  TIP3      1975            0.0000000000
     55758      2376  TIP3      OH2            31.1253011632      -23.1020418594       31.5173371837  TIP3      1976            0.0000000000
     55759      2376  TIP3      H1             30.8521200430      -22.4658077283       32.1805866817  TIP3      1976            0.0000000000
     55760      2376  TIP3      H2             30.8861193102      -23.9589630330       31.9542683607  TIP3      1976            0.0000000000
     55761      2377  TIP3      OH2            25.6783737888      -24.2432096512       35.5212302225  TIP3      1977            0.0000000000
     55762      2377  TIP3      H1             25.3170377968      -23.4566108018       35.9759633446  TIP3      1977            0.0000000000
     55763      2377  TIP3      H2             25.0042031597      -24.4033093605       34.8144904686  TIP3      1977            0.0000000000
     55764      2378  TIP3      OH2            31.6414168071      -28.8661410099       22.9484416731  TIP3      1978            0.0000000000
     55765      2378  TIP3      H1             32.2242104735      -28.7014765888       23.7168418785  TIP3      1978            0.0000000000
     55766      2378  TIP3      H2             32.0672009918      -28.3857938214       22.2143798678  TIP3      1978            0.0000000000
     55767      2379  TIP3      OH2            22.6082874343      -28.0582315592       34.7079792797  TIP3      1979            0.0000000000
     55768      2379  TIP3      H1             22.6523305570      -27.3881736008       35.4212026265  TIP3      1979            0.0000000000
     55769      2379  TIP3      H2             21.6860671593      -27.9470005732       34.4294387478  TIP3      1979            0.0000000000
     55770      2380  TIP3      OH2            29.3751599418      -22.1399015444       26.3896517314  TIP3      1980            0.0000000000
     55771      2380  TIP3      H1             29.8289148816      -21.8361287583       27.1838860404  TIP3      1980            0.0000000000
     55772      2380  TIP3      H2             28.8091356384      -21.3949788257       26.1551588189  TIP3      1980            0.0000000000
     55773      2381  TIP3      OH2            23.9249743860      -22.1843188599       36.2877438568  TIP3      1981            0.0000000000
     55774      2381  TIP3      H1             23.8941891544      -22.2879497284       35.3113173201  TIP3      1981            0.0000000000
     55775      2381  TIP3      H2             22.9828274138      -22.2916575398       36.5169966984  TIP3      1981            0.0000000000
     55776      2382  TIP3      OH2            35.3449262235      -37.1131568269       22.7868939250  TIP3      1982            0.0000000000
     55777      2382  TIP3      H1             34.4250576042      -36.9750597189       23.0863074558  TIP3      1982            0.0000000000
     55778      2382  TIP3      H2             35.6038880971      -36.2592501795       22.3980003345  TIP3      1982            0.0000000000
     55779      2383  TIP3      OH2            23.3995117167      -28.3571036789       24.7527676404  TIP3      1983            0.0000000000
     55780      2383  TIP3      H1             23.0950457730      -27.5720123115       24.2582801980  TIP3      1983            0.0000000000
     55781      2383  TIP3      H2             22.7207479145      -29.0121907029       24.5662176021  TIP3      1983            0.0000000000
     55782      2384  TIP3      OH2            19.4866528954      -25.9531960711       33.6124168947  TIP3      1984            0.0000000000
     55783      2384  TIP3      H1             19.0050302124      -26.0155679331       32.7672425325  TIP3      1984            0.0000000000
     55784      2384  TIP3      H2             19.5136154084      -26.8928711587       33.8705945913  TIP3      1984            0.0000000000
     55785      2385  TIP3      OH2            19.2372632578      -23.2153270525       30.4560972140  TIP3      1985            0.0000000000
     55786      2385  TIP3      H1             20.1985061353      -23.3095161705       30.4337812137  TIP3      1985            0.0000000000
     55787      2385  TIP3      H2             19.1557017348      -22.3921651708       30.9707336765  TIP3      1985            0.0000000000
     55788      2386  TIP3      OH2            37.4646146860      -22.5143955508       36.1133614710  TIP3      1986            0.0000000000
     55789      2386  TIP3      H1             37.3700888874      -23.4784271441       36.1083395621  TIP3      1986            0.0000000000
     55790      2386  TIP3      H2             36.6047322193      -22.2653506750       36.5377718126  TIP3      1986            0.0000000000
     55791      2387  TIP3      OH2            28.4288180475      -22.9629044649       34.9959514772  TIP3      1987            0.0000000000
     55792      2387  TIP3      H1             28.4983079309      -22.1181347252       35.4989600572  TIP3      1987            0.0000000000
     55793      2387  TIP3      H2             27.5517548620      -23.3004885758       35.2556846256  TIP3      1987            0.0000000000
     55794      2388  TIP3      OH2            28.8507015592      -19.2158989304       24.8016723388  TIP3      1988            0.0000000000
     55795      2388  TIP3      H1             28.7570952786      -19.2933237824       23.8538708943  TIP3      1988            0.0000000000
     55796      2388  TIP3      H2             28.8729396972      -18.2468558063       24.9499497939  TIP3      1988            0.0000000000
     55797      2389  TIP3      OH2            22.5039957030      -20.3603117501       26.5940047007  TIP3      1989            0.0000000000
     55798      2389  TIP3      H1             22.6395241779      -20.7515081163       27.4974839220  TIP3      1989            0.0000000000
     55799      2389  TIP3      H2             21.6463667712      -20.7543048433       26.3764808516  TIP3      1989            0.0000000000
     55800      2390  TIP3      OH2            31.9236264867      -19.9991133145       21.8168037187  TIP3      1990            0.0000000000
     55801      2390  TIP3      H1             32.3180439056      -20.7659480710       21.3240817687  TIP3      1990            0.0000000000
     55802      2390  TIP3      H2             31.9421728059      -20.3057318363       22.7350200486  TIP3      1990            0.0000000000
     55803      2391  TIP3      OH2            31.6043400565      -20.0904315875       24.5596355055  TIP3      1991            0.0000000000
     55804      2391  TIP3      H1             30.6545175593      -20.0048849416       24.7482610455  TIP3      1991            0.0000000000
     55805      2391  TIP3      H2             31.8779400287      -20.8161840478       25.1396807128  TIP3      1991            0.0000000000
     55806      2392  TIP3      OH2            34.5718221275      -31.0363472429       36.6126033952  TIP3      1992            0.0000000000
     55807      2392  TIP3      H1             34.1895772558      -30.5502990246       35.8768489238  TIP3      1992            0.0000000000
     55808      2392  TIP3      H2             34.6375963436      -31.9494642937       36.2940000615  TIP3      1992            0.0000000000
     55809      2393  TIP3      OH2            21.7469674819      -24.6387714559       34.6073359469  TIP3      1993            0.0000000000
     55810      2393  TIP3      H1             21.9684057637      -25.0059624847       35.4815613600  TIP3      1993            0.0000000000
     55811      2393  TIP3      H2             20.8795912710      -25.0262277515       34.3903814289  TIP3      1993            0.0000000000
     55812      2394  TIP3      OH2            24.4037918676      -36.1780396181       30.5856182998  TIP3      1994            0.0000000000
     55813      2394  TIP3      H1             23.5043732647      -36.2699317517       30.1947027472  TIP3      1994            0.0000000000
     55814      2394  TIP3      H2             24.3210897760      -35.3226268810       31.0343217479  TIP3      1994            0.0000000000
     55815      2395  TIP3      OH2            29.0545663539      -36.4443900213       33.9620295213  TIP3      1995            0.0000000000
     55816      2395  TIP3      H1             29.4541333395      -36.8985877064       34.7265263589  TIP3      1995            0.0000000000
     55817      2395  TIP3      H2             28.0886560841      -36.6288119305       34.0853706909  TIP3      1995            0.0000000000
     55818      2396  TIP3      OH2            32.4246207221      -32.7518858406       34.7917852109  TIP3      1996            0.0000000000
     55819      2396  TIP3      H1             31.9038990458      -32.9311880934       35.6142543295  TIP3      1996            0.0000000000
     55820      2396  TIP3      H2             32.3246416259      -31.8273177183       34.5302189840  TIP3      1996            0.0000000000
     55821      2397  TIP3      OH2            33.1027082664      -27.8446640192       20.6122188485  TIP3      1997            0.0000000000
     55822      2397  TIP3      H1             33.1351782229      -28.0568854072       19.6801790736  TIP3      1997            0.0000000000
     55823      2397  TIP3      H2             33.9573425292      -27.4371616720       20.7848408104  TIP3      1997            0.0000000000
     55824      2398  TIP3      OH2            24.4958827256      -31.2132026666       31.7445647976  TIP3      1998            0.0000000000
     55825      2398  TIP3      H1             23.7978220870      -31.2348591038       32.4259555758  TIP3      1998            0.0000000000
     55826      2398  TIP3      H2             24.4807804130      -30.2765920310       31.4469996766  TIP3      1998            0.0000000000
     55827      2399  TIP3      OH2            24.4725007031      -31.0136313109       26.6477902811  TIP3      1999            0.0000000000
     55828      2399  TIP3      H1             23.5517002352      -31.3307536695       26.5407959145  TIP3      1999            0.0000000000
     55829      2399  TIP3      H2             24.8910714592      -31.3690979445       25.8416113607  TIP3      1999            0.0000000000
     55830      2400  TIP3      OH2            29.9973123384      -30.5751744811       25.4550953083  TIP3      2000            0.0000000000
     55831      2400  TIP3      H1             29.5902217952      -29.7543332790       25.1076603447  TIP3      2000            0.0000000000
     55832      2400  TIP3      H2             30.7014134051      -30.7163089659       24.7924381857  TIP3      2000            0.0000000000
     55833      2401  TIP3      OH2            29.1204038432      -30.4064687690       36.8660596853  TIP3      2001            0.0000000000
     55834      2401  TIP3      H1             28.5193878371      -31.1167296553       37.2262218707  TIP3      2001            0.0000000000
     55835      2401  TIP3      H2             29.9098620616      -30.4966051219       37.4188897690  TIP3      2001            0.0000000000
     55836      2402  TIP3      OH2            31.0153892677      -31.1049960377       28.2712165476  TIP3      2002            0.0000000000
     55837      2402  TIP3      H1             30.7849958857      -30.5269998149       27.5215863148  TIP3      2002            0.0000000000
     55838      2402  TIP3      H2             31.1625248251      -31.9520896426       27.8009666135  TIP3      2002            0.0000000000
     55839      2403  TIP3      OH2            22.1862334230      -30.9049741855       33.5320046983  TIP3      2003            0.0000000000
     55840      2403  TIP3      H1             22.1888306447      -30.5038693689       34.4181134299  TIP3      2003            0.0000000000
     55841      2403  TIP3      H2             21.7102525157      -31.7358300572       33.6775517780  TIP3      2003            0.0000000000
     55842      2404  TIP3      OH2            18.8059585033      -33.7919722608       27.4345247489  TIP3      2004            0.0000000000
     55843      2404  TIP3      H1             19.4681550700      -33.8290591671       28.1508468583  TIP3      2004            0.0000000000
     55844      2404  TIP3      H2             19.2663267117      -34.2104609852       26.6828040381  TIP3      2004            0.0000000000
     55845      2405  TIP3      OH2            20.1047030216      -33.0504847719       22.8609934350  TIP3      2005            0.0000000000
     55846      2405  TIP3      H1             20.5454936170      -32.4454640190       22.2479062562  TIP3      2005            0.0000000000
     55847      2405  TIP3      H2             19.3762430640      -32.4749901658       23.1619500759  TIP3      2005            0.0000000000
     55848      2406  TIP3      OH2            30.2869328138      -29.4952090961       32.9119185319  TIP3      2006            0.0000000000
     55849      2406  TIP3      H1             30.5949761243      -30.1390459996       32.2415680850  TIP3      2006            0.0000000000
     55850      2406  TIP3      H2             29.7720414614      -30.0184199591       33.5345111251  TIP3      2006            0.0000000000
     55851      2407  TIP3      OH2            27.0410763134      -33.5454543023       27.6886260710  TIP3      2007            0.0000000000
     55852      2407  TIP3      H1             26.1060774890      -33.5097075668       27.9892562343  TIP3      2007            0.0000000000
     55853      2407  TIP3      H2             27.5374602115      -33.6458576956       28.5134697941  TIP3      2007            0.0000000000
     55854      2408  TIP3      OH2            21.8660944428      -31.9420988154       26.5339558787  TIP3      2008            0.0000000000
     55855      2408  TIP3      H1             20.9651407062      -31.8319815231       26.1668518520  TIP3      2008            0.0000000000
     55856      2408  TIP3      H2             22.1550618228      -32.7895414468       26.1590845876  TIP3      2008            0.0000000000
     55857      2409  TIP3      OH2            25.4947249844      -31.9221370442       24.1892804584  TIP3      2009            0.0000000000
     55858      2409  TIP3      H1             26.4550432956      -31.8174367594       24.3558175585  TIP3      2009            0.0000000000
     55859      2409  TIP3      H2             25.2864451863      -31.2550850314       23.5196687891  TIP3      2009            0.0000000000
     55860      2410  TIP3      OH2            31.4508957157      -34.2994572396       30.9501746725  TIP3      2010            0.0000000000
     55861      2410  TIP3      H1             30.7506123117      -34.2181015193       31.6216128014  TIP3      2010            0.0000000000
     55862      2410  TIP3      H2             30.9517818159      -34.5046562076       30.1444586138  TIP3      2010            0.0000000000
     55863      2411  TIP3      OH2            24.1995710175      -30.7444238978       21.7539623888  TIP3      2011            0.0000000000
     55864      2411  TIP3      H1             23.6079341794      -31.1030764243       21.0756238671  TIP3      2011            0.0000000000
     55865      2411  TIP3      H2             25.0317042553      -30.5236021638       21.3185323153  TIP3      2011            0.0000000000
     55866      2412  TIP3      OH2            34.6835040806      -18.6529383281       37.2582900337  TIP3      2012            0.0000000000
     55867      2412  TIP3      H1             34.9319074646      -18.2431195234       36.4065498694  TIP3      2012            0.0000000000
     55868      2412  TIP3      H2             35.3869786150      -18.3157921535       37.8423279444  TIP3      2012            0.0000000000
     55869      2413  TIP3      OH2            22.3400582748      -26.1848928465       36.8249279367  TIP3      2013            0.0000000000
     55870      2413  TIP3      H1             23.0524595125      -25.9260395890       37.4313069312  TIP3      2013            0.0000000000
     55871      2413  TIP3      H2             21.5446501629      -26.0182513730       37.3815346063  TIP3      2013            0.0000000000
     55872      2414  TIP3      OH2            28.3396707498      -30.7665249824       29.5782214447  TIP3      2014            0.0000000000
     55873      2414  TIP3      H1             28.9225794900      -31.3148871575       29.0376033925  TIP3      2014            0.0000000000
     55874      2414  TIP3      H2             28.1935416904      -31.3071997026       30.3631391658  TIP3      2014            0.0000000000
     55875      2415  TIP3      OH2            23.3531956183      -34.6161260447       26.0219058417  TIP3      2015            0.0000000000
     55876      2415  TIP3      H1             23.0424058235      -35.5387901469       25.9772123618  TIP3      2015            0.0000000000
     55877      2415  TIP3      H2             24.1341206543      -34.6632826689       25.4513439883  TIP3      2015            0.0000000000
     55878      2416  TIP3      OH2            26.9823842541      -32.4136933724       31.9927681258  TIP3      2016            0.0000000000
     55879      2416  TIP3      H1             26.1377585597      -31.9270370665       32.0934022284  TIP3      2016            0.0000000000
     55880      2416  TIP3      H2             27.5083506950      -32.0943760452       32.7419762704  TIP3      2016            0.0000000000
     55881      2417  TIP3      OH2            27.5407334195      -26.1939500871       23.6755648439  TIP3      2017            0.0000000000
     55882      2417  TIP3      H1             26.7647698074      -26.6906197481       23.3700992882  TIP3      2017            0.0000000000
     55883      2417  TIP3      H2             27.3792239461      -26.1082258747       24.6321798004  TIP3      2017            0.0000000000
     55884      2418  TIP3      OH2            34.7043554133      -27.0372049487       32.4880447495  TIP3      2018            0.0000000000
     55885      2418  TIP3      H1             35.3089556313      -26.5625445002       31.8934589780  TIP3      2018            0.0000000000
     55886      2418  TIP3      H2             33.8557306436      -26.9374408061       32.0061987608  TIP3      2018            0.0000000000
     55887      2419  TIP3      OH2            29.0501506173      -25.9850039485       34.9219416007  TIP3      2019            0.0000000000
     55888      2419  TIP3      H1             28.6969050875      -26.3660640832       35.7307889272  TIP3      2019            0.0000000000
     55889      2419  TIP3      H2             28.8292097051      -25.0494384769       35.0044562814  TIP3      2019            0.0000000000
     55890      2420  TIP3      OH2            32.1410188705      -31.5091133624       23.5473471218  TIP3      2020            0.0000000000
     55891      2420  TIP3      H1             33.0438349127      -31.6246938509       23.8761865190  TIP3      2020            0.0000000000
     55892      2420  TIP3      H2             32.1803238439      -30.7080991432       22.9891896804  TIP3      2020            0.0000000000
     55893      2421  TIP3      OH2            22.6526516130      -26.8496597439       29.4720495781  TIP3      2021            0.0000000000
     55894      2421  TIP3      H1             23.3814454620      -26.8932209077       28.8246441408  TIP3      2021            0.0000000000
     55895      2421  TIP3      H2             22.7291860749      -27.7008019798       29.9369086827  TIP3      2021            0.0000000000
     55896      2422  TIP3      OH2            19.6516921398      -28.4073270999       34.7561997930  TIP3      2022            0.0000000000
     55897      2422  TIP3      H1             19.8644351598      -28.8477474575       35.6036458566  TIP3      2022            0.0000000000
     55898      2422  TIP3      H2             19.0446837046      -29.0360366422       34.3307642064  TIP3      2022            0.0000000000
     55899      2423  TIP3      OH2            26.6745626621      -28.8857112494       36.9772980858  TIP3      2023            0.0000000000
     55900      2423  TIP3      H1             26.3619620088      -29.0959987659       36.0796802651  TIP3      2023            0.0000000000
     55901      2423  TIP3      H2             27.6094560041      -29.1397806805       36.9415805255  TIP3      2023            0.0000000000
     55902      2424  TIP3      OH2            31.3249283339      -23.5317674193       34.8602565361  TIP3      2024            0.0000000000
     55903      2424  TIP3      H1             30.4013683196      -23.3403838309       34.6235062992  TIP3      2024            0.0000000000
     55904      2424  TIP3      H2             31.3197086916      -23.2511942670       35.7975042943  TIP3      2024            0.0000000000
     55905      2425  TIP3      OH2            37.0059824491      -31.3216492592       23.2926256801  TIP3      2025            0.0000000000
     55906      2425  TIP3      H1             36.5035564954      -31.6683275767       22.5449949056  TIP3      2025            0.0000000000
     55907      2425  TIP3      H2             37.1353951139      -30.4088808058       22.9690370118  TIP3      2025            0.0000000000
     55908      2426  TIP3      OH2            37.0043712798      -25.4796581487       36.0890913009  TIP3      2026            0.0000000000
     55909      2426  TIP3      H1             36.1239876673      -25.2496763329       35.7047324036  TIP3      2026            0.0000000000
     55910      2426  TIP3      H2             37.5741446221      -25.5050627358       35.2967287920  TIP3      2026            0.0000000000
     55911      2427  TIP3      OH2            35.3206529467      -22.4964222617       23.6827677870  TIP3      2027            0.0000000000
     55912      2427  TIP3      H1             34.9495752991      -23.3283817481       24.0052003932  TIP3      2027            0.0000000000
     55913      2427  TIP3      H2             35.5983501280      -22.6932679990       22.7909774252  TIP3      2027            0.0000000000
     55914      2428  TIP3      OH2            32.5022061136      -27.6837115498       30.7480797154  TIP3      2028            0.0000000000
     55915      2428  TIP3      H1             31.5583649395      -27.9136733149       30.6733642836  TIP3      2028            0.0000000000
     55916      2428  TIP3      H2             32.9371332341      -28.4686435046       30.3693444967  TIP3      2028            0.0000000000
     55917      2429  TIP3      OH2            25.0326636354      -23.3721287657       26.8657416067  TIP3      2029            0.0000000000
     55918      2429  TIP3      H1             25.5506143956      -22.5780947732       26.6525254405  TIP3      2029            0.0000000000
     55919      2429  TIP3      H2             24.1490555270      -23.1294220973       26.5515261945  TIP3      2029            0.0000000000
     55920      2430  TIP3      OH2            20.8112293762      -28.4967281619       21.4577480692  TIP3      2030            0.0000000000
     55921      2430  TIP3      H1             21.3909250849      -27.8493277863       21.8424128867  TIP3      2030            0.0000000000
     55922      2430  TIP3      H2             19.9123095102      -28.2040483387       21.6913602660  TIP3      2030            0.0000000000
     55923      2431  TIP3      OH2            26.4662226069      -25.7098945988       26.4006752008  TIP3      2031            0.0000000000
     55924      2431  TIP3      H1             26.1860170089      -24.7752831514       26.4848795157  TIP3      2031            0.0000000000
     55925      2431  TIP3      H2             25.7164465391      -26.1686488026       26.8334291445  TIP3      2031            0.0000000000
     55926      2432  TIP3      OH2            26.9366468553      -21.5444252280       32.7608686433  TIP3      2032            0.0000000000
     55927      2432  TIP3      H1             27.3350305156      -20.6949438685       32.5138776702  TIP3      2032            0.0000000000
     55928      2432  TIP3      H2             27.5083506980      -21.8423583692       33.4877213733  TIP3      2032            0.0000000000
     55929      2433  TIP3      OH2            25.1566237379      -20.6910646345       25.9479548627  TIP3      2033            0.0000000000
     55930      2433  TIP3      H1             24.1849269693      -20.5808406920       26.0572939799  TIP3      2033            0.0000000000
     55931      2433  TIP3      H2             25.4822041445      -19.8532398639       26.3187033200  TIP3      2033            0.0000000000
     55932      2434  TIP3      OH2            30.4816587731      -25.4730085850       32.4334041587  TIP3      2034            0.0000000000
     55933      2434  TIP3      H1             30.0896504504      -25.6892820874       33.3007225414  TIP3      2034            0.0000000000
     55934      2434  TIP3      H2             31.0891451672      -26.2072462210       32.2598208598  TIP3      2034            0.0000000000
     55935      2435  TIP3      OH2            32.7419777651      -24.5138603885       21.5287509002  TIP3      2035            0.0000000000
     55936      2435  TIP3      H1             33.0562945236      -24.9332946586       22.3394581707  TIP3      2035            0.0000000000
     55937      2435  TIP3      H2             31.7763280837      -24.6131032414       21.5912105618  TIP3      2035            0.0000000000
     55938      2436  TIP3      OH2            33.2036545894      -20.9153204192       34.9293257722  TIP3      2036            0.0000000000
     55939      2436  TIP3      H1             32.5603686448      -21.4427184660       34.4167542634  TIP3      2036            0.0000000000
     55940      2436  TIP3      H2             33.4398032870      -20.2298226505       34.2690054313  TIP3      2036            0.0000000000
     55941      2437  TIP3      OH2            21.3052153512      -33.6682391099       34.3104653038  TIP3      2037            0.0000000000
     55942      2437  TIP3      H1             20.3948066757      -33.3268206376       34.2648599991  TIP3      2037            0.0000000000
     55943      2437  TIP3      H2             21.1909357958      -34.5249025593       34.7510199458  TIP3      2037            0.0000000000
     55944      2438  TIP3      OH2            33.5660091647      -25.8207176287       23.7573759503  TIP3      2038            0.0000000000
     55945      2438  TIP3      H1             33.3089092820      -26.5933851357       24.3045443363  TIP3      2038            0.0000000000
     55946      2438  TIP3      H2             34.5171320453      -25.7512128121       23.9464083106  TIP3      2038            0.0000000000
     55947      2439  TIP3      OH2            20.7900124776      -21.9911305248       32.8266649197  TIP3      2039            0.0000000000
     55948      2439  TIP3      H1             21.2213832356      -22.8292121235       32.7293892177  TIP3      2039            0.0000000000
     55949      2439  TIP3      H2             21.2070091681      -21.5773780628       33.5949184729  TIP3      2039            0.0000000000
     55950      2440  TIP3      OH2            26.7445900251      -23.3976348027       19.9961604115  TIP3      2040            0.0000000000
     55951      2440  TIP3      H1             27.0725545572      -24.1303674079       19.4313926174  TIP3      2040            0.0000000000
     55952      2440  TIP3      H2             26.5587638202      -23.7980347686       20.8512775255  TIP3      2040            0.0000000000
     55953      2441  TIP3      OH2            25.6936448271      -23.8632523619       22.4239585579  TIP3      2041            0.0000000000
     55954      2441  TIP3      H1             25.9187469799      -24.3542831437       23.2268628324  TIP3      2041            0.0000000000
     55955      2441  TIP3      H2             25.7437328209      -22.9194399870       22.7291103347  TIP3      2041            0.0000000000
     55956      2442  TIP3      OH2            22.1996062412      -26.5861797806       22.9147345589  TIP3      2042            0.0000000000
     55957      2442  TIP3      H1             21.5013286671      -26.2198478653       23.5034189195  TIP3      2042            0.0000000000
     55958      2442  TIP3      H2             22.7030679766      -25.8002574135       22.6856566158  TIP3      2042            0.0000000000
     55959      2443  TIP3      OH2            30.0219780034      -33.8874552364       33.2528283949  TIP3      2043            0.0000000000
     55960      2443  TIP3      H1             30.7509298708      -33.8863043659       33.8687418953  TIP3      2043            0.0000000000
     55961      2443  TIP3      H2             29.6471707072      -34.7913402793       33.3913719928  TIP3      2043            0.0000000000
     55962      2444  TIP3      OH2            30.8271187543      -34.3170608220       24.3055520466  TIP3      2044            0.0000000000
     55963      2444  TIP3      H1             31.0053380631      -33.7819014280       23.5175873294  TIP3      2044            0.0000000000
     55964      2444  TIP3      H2             31.3635651051      -33.8820694504       24.9848039865  TIP3      2044            0.0000000000
     55965      2445  TIP3      OH2            28.4855959919      -22.1244741392       23.1806248600  TIP3      2045            0.0000000000
     55966      2445  TIP3      H1             27.6414077793      -21.6580139258       23.2153291027  TIP3      2045            0.0000000000
     55967      2445  TIP3      H2             29.0146572205      -21.6770043777       22.5186768954  TIP3      2045            0.0000000000
     55968      2446  TIP3      OH2            27.9946898086      -32.5536170424       25.1576406584  TIP3      2046            0.0000000000
     55969      2446  TIP3      H1             28.8157273075      -32.0253121010       25.1931884934  TIP3      2046            0.0000000000
     55970      2446  TIP3      H2             27.7565385185      -32.7018326553       26.0819715177  TIP3      2046            0.0000000000
     55971      2447  TIP3      OH2            28.5958833173      -31.5450041228       34.3316164469  TIP3      2047            0.0000000000
     55972      2447  TIP3      H1             28.6109260851      -30.9789212685       35.1248003850  TIP3      2047            0.0000000000
     55973      2447  TIP3      H2             29.1737543499      -32.2985695654       34.4344903454  TIP3      2047            0.0000000000
     55974      2448  TIP3      OH2            28.8898884378      -35.4852560220       26.0916279202  TIP3      2048            0.0000000000
     55975      2448  TIP3      H1             28.5449226822      -34.8425495900       26.7291892447  TIP3      2048            0.0000000000
     55976      2448  TIP3      H2             29.5546924408      -34.9501283021       25.5958982151  TIP3      2048            0.0000000000
     55977      2449  TIP3      OH2            25.8196235000      -21.1259265054       23.1611182539  TIP3      2049            0.0000000000
     55978      2449  TIP3      H1             25.9786729350      -20.2947701368       22.6505416636  TIP3      2049            0.0000000000
     55979      2449  TIP3      H2             25.6085531497      -20.7903293577       24.0592345285  TIP3      2049            0.0000000000
     55980      2450  TIP3      OH2            24.5404218001      -34.3968626855       22.7344971987  TIP3      2050            0.0000000000
     55981      2450  TIP3      H1             24.4746823377      -33.5138292642       23.1396953387  TIP3      2050            0.0000000000
     55982      2450  TIP3      H2             25.4452767468      -34.6628821327       23.0098918050  TIP3      2050            0.0000000000
     55983      2451  TIP3      OH2            34.7748992199      -33.6755767135       35.1906178619  TIP3      2051            0.0000000000
     55984      2451  TIP3      H1             33.8390821553      -33.3968365641       35.0696964691  TIP3      2051            0.0000000000
     55985      2451  TIP3      H2             35.0777265153      -33.6795393167       34.2676819658  TIP3      2051            0.0000000000
     55986      2452  TIP3      OH2            33.3529680301      -29.8938195784       29.2398074301  TIP3      2052            0.0000000000
     55987      2452  TIP3      H1             32.5403774781      -30.3310944054       28.9331374362  TIP3      2052            0.0000000000
     55988      2452  TIP3      H2             33.8159878422      -30.5968655653       29.7480210069  TIP3      2052            0.0000000000
     55989      2453  TIP3      OH2            22.8002822104      -23.9848952584       21.8430122437  TIP3      2053            0.0000000000
     55990      2453  TIP3      H1             23.4111730793      -23.2801156735       22.1114225560  TIP3      2053            0.0000000000
     55991      2453  TIP3      H2             23.2672450789      -24.3774854894       21.1119898180  TIP3      2053            0.0000000000
     55992      2454  TIP3      OH2            34.4194468271      -20.6561506900       30.8894272069  TIP3      2054            0.0000000000
     55993      2454  TIP3      H1             34.3049861538      -19.9612081270       30.2112337641  TIP3      2054            0.0000000000
     55994      2454  TIP3      H2             35.3775255348      -20.5771486135       31.0781426436  TIP3      2054            0.0000000000
     55995      2455  TIP3      OH2            21.9308661473      -36.5176069596       29.6494779506  TIP3      2055            0.0000000000
     55996      2455  TIP3      H1             21.7031931912      -36.4847709338       28.6917184206  TIP3      2055            0.0000000000
     55997      2455  TIP3      H2             21.4890824970      -37.3440172017       29.9296968893  TIP3      2055            0.0000000000
     55998      2456  TIP3      OH2            20.8669124337      -22.6000149276       25.7909903894  TIP3      2056            0.0000000000
     55999      2456  TIP3      H1             20.0259596410      -22.1235455523       25.8078401785  TIP3      2056            0.0000000000
     56000      2456  TIP3      H2             21.3946219298      -22.0944500913       25.1688228536  TIP3      2056            0.0000000000
     56001      2457  TIP3      OH2            20.1116861478      -19.9565163051       37.1326212110  TIP3      2057            0.0000000000
     56002      2457  TIP3      H1             20.6935654560      -20.1830509969       37.8820133139  TIP3      2057            0.0000000000
     56003      2457  TIP3      H2             19.6698492855      -20.7959248151       36.9216311750  TIP3      2057            0.0000000000
     56004      2458  TIP3      OH2            24.7473772575      -21.0468478923       38.7391004577  TIP3      2058            0.0000000000
     56005      2458  TIP3      H1             25.5231559600      -21.5230965867       39.0647166976  TIP3      2058            0.0000000000
     56006      2458  TIP3      H2             24.7341978797      -21.2959515639       37.7930253677  TIP3      2058            0.0000000000
     56007      2459  TIP3      OH2            31.2931658796      -22.6558282716       37.4551938813  TIP3      2059            0.0000000000
     56008      2459  TIP3      H1             30.9657512460      -23.5397865397       37.7178400007  TIP3      2059            0.0000000000
     56009      2459  TIP3      H2             32.0498782270      -22.5322807224       38.0590333277  TIP3      2059            0.0000000000
     56010      2460  TIP3      OH2            33.5014730451      -21.7306248030       20.3938353866  TIP3      2060            0.0000000000
     56011      2460  TIP3      H1             33.7131326592      -22.5755273953       20.7969241296  TIP3      2060            0.0000000000
     56012      2460  TIP3      H2             34.1778405154      -21.5092546110       19.7719323656  TIP3      2060            0.0000000000
     56013      2461  TIP3      OH2            20.0323209208      -26.1682199828       38.0960283165  TIP3      2061            0.0000000000
     56014      2461  TIP3      H1             20.1895982112      -27.0790993531       37.7775773942  TIP3      2061            0.0000000000
     56015      2461  TIP3      H2             19.2728361050      -25.8912096272       37.5545533641  TIP3      2061            0.0000000000
     56016      2462  TIP3      OH2            26.7150423361      -26.2007875712       37.5047163908  TIP3      2062            0.0000000000
     56017      2462  TIP3      H1             26.3764705118      -25.9007667559       36.6322615295  TIP3      2062            0.0000000000
     56018      2462  TIP3      H2             26.8367022290      -27.1621737200       37.3818294335  TIP3      2062            0.0000000000
     56019      2463  TIP3      OH2            32.4232383244      -26.3188476972       34.8861133241  TIP3      2063            0.0000000000
     56020      2463  TIP3      H1             33.1910192745      -25.7084907386       34.7852069662  TIP3      2063            0.0000000000
     56021      2463  TIP3      H2             31.6996225895      -25.6747102860       34.9334343210  TIP3      2063            0.0000000000
     56022      2464  TIP3      OH2            20.8810522816      -28.9561506200       37.4793607319  TIP3      2064            0.0000000000
     56023      2464  TIP3      H1             21.3121426335      -29.8149753544       37.3860465272  TIP3      2064            0.0000000000
     56024      2464  TIP3      H2             20.6482779230      -28.9468385861       38.4266382501  TIP3      2064            0.0000000000
     56025      2465  TIP3      OH2            25.5432291924      -27.8204418642       22.4998605156  TIP3      2065            0.0000000000
     56026      2465  TIP3      H1             25.0828936459      -28.3287641201       23.1963378319  TIP3      2065            0.0000000000
     56027      2465  TIP3      H2             25.8361745137      -28.5309792471       21.8829349631  TIP3      2065            0.0000000000
     56028      2466  TIP3      OH2            24.8285960295      -29.9807319184       34.8614545011  TIP3      2066            0.0000000000
     56029      2466  TIP3      H1             24.2134479214      -29.2762538886       35.1285184180  TIP3      2066            0.0000000000
     56030      2466  TIP3      H2             25.1886571816      -29.6302153007       34.0289620194  TIP3      2066            0.0000000000
     56031      2467  TIP3      OH2            26.6058319150      -29.6009534260       20.7718434880  TIP3      2067            0.0000000000
     56032      2467  TIP3      H1             26.4743489643      -29.7588892606       19.8334754851  TIP3      2067            0.0000000000
     56033      2467  TIP3      H2             27.5859996253      -29.5189058872       20.8172804860  TIP3      2067            0.0000000000
     56034      2468  TIP3      OH2            29.8624196486      -27.4721938294       38.1799579320  TIP3      2068            0.0000000000
     56035      2468  TIP3      H1             30.8253315955      -27.4088667581       38.0932042053  TIP3      2068            0.0000000000
     56036      2468  TIP3      H2             29.7156515512      -28.2131666913       38.7714161142  TIP3      2068            0.0000000000
     56037      2469  TIP3      OH2            25.2145784164      -32.6060029479       35.9327305198  TIP3      2069            0.0000000000
     56038      2469  TIP3      H1             25.3189035187      -33.3399278050       35.3040281684  TIP3      2069            0.0000000000
     56039      2469  TIP3      H2             25.1658724020      -31.8123192396       35.3656964041  TIP3      2069            0.0000000000
     56040      2470  TIP3      OH2            25.6042544924      -34.2385834203       33.4541965867  TIP3      2070            0.0000000000
     56041      2470  TIP3      H1             26.1236082713      -33.7796375684       32.7566895871  TIP3      2070            0.0000000000
     56042      2470  TIP3      H2             24.7235696534      -34.3328882642       33.0239352484  TIP3      2070            0.0000000000
     56043      2471  TIP3      OH2            27.1759840839      -28.7852637584       33.6995555733  TIP3      2071            0.0000000000
     56044      2471  TIP3      H1             27.9131269898      -28.9322330043       33.0998992058  TIP3      2071            0.0000000000
     56045      2471  TIP3      H2             26.8139381121      -27.9338540359       33.3885515399  TIP3      2071            0.0000000000
     56046      2472  TIP3      OH2            31.5603163708      -30.9852800514       38.6471567867  TIP3      2072            0.0000000000
     56047      2472  TIP3      H1             31.7861881688      -31.9298391572       38.6142926914  TIP3      2072            0.0000000000
     56048      2472  TIP3      H2             32.4401271920      -30.5620814369       38.7031718069  TIP3      2072            0.0000000000
     56049      2473  TIP3      OH2            32.8905075957      -28.2137152711       36.8077605660  TIP3      2073            0.0000000000
     56050      2473  TIP3      H1             32.6397647696      -27.4688682235       36.2084160150  TIP3      2073            0.0000000000
     56051      2473  TIP3      H2             33.8571821404      -28.2405965612       36.6272019271  TIP3      2073            0.0000000000
     56052      2474  TIP3      OH2            23.6729302277      -31.3815642540       37.8625447897  TIP3      2074            0.0000000000
     56053      2474  TIP3      H1             22.8963157610      -31.9379485198       37.6447547513  TIP3      2074            0.0000000000
     56054      2474  TIP3      H2             24.3302380722      -31.7255990453       37.2281844458  TIP3      2074            0.0000000000
     56055      2475  TIP3      OH2            26.4050392460      -36.7981117149       33.8750269402  TIP3      2075            0.0000000000
     56056      2475  TIP3      H1             26.2682573275      -35.8284937543       33.7585729835  TIP3      2075            0.0000000000
     56057      2475  TIP3      H2             25.6481913048      -37.1527612482       33.3730198717  TIP3      2075            0.0000000000
     56058      2476  TIP3      OH2            27.6826081918      -32.4716899310       37.4403048630  TIP3      2076            0.0000000000
     56059      2476  TIP3      H1             27.3968014721      -32.7058968054       38.3454908827  TIP3      2076            0.0000000000
     56060      2476  TIP3      H2             26.8716463576      -32.6659436302       36.9252752069  TIP3      2076            0.0000000000
     56061      2477  TIP3      OH2            30.3925814981      -33.3066661049       36.5095917712  TIP3      2077            0.0000000000
     56062      2477  TIP3      H1             29.4210600305      -33.3123648207       36.6645141635  TIP3      2077            0.0000000000
     56063      2477  TIP3      H2             30.6759097394      -33.9647892803       37.1904100430  TIP3      2077            0.0000000000
     56064      2478  TIP3      OH2            31.9781766237      -34.6896991582       38.4769218409  TIP3      2078            0.0000000000
     56065      2478  TIP3      H1             31.9238082391      -35.6671365114       38.5057226250  TIP3      2078            0.0000000000
     56066      2478  TIP3      H2             31.7004637913      -34.4220781505       39.3871003611  TIP3      2078            0.0000000000
     56067      2479  TIP3      OH2            21.8036076949      -33.4554232755       37.5637272163  TIP3      2079            0.0000000000
     56068      2479  TIP3      H1             22.0340027568      -34.1882980087       36.9602744617  TIP3      2079            0.0000000000
     56069      2479  TIP3      H2             21.7083843921      -33.9098307981       38.4250037790  TIP3      2079            0.0000000000
     56070      2480  TIP3      OH2            26.6124070043      -37.4515532844       36.5540392978  TIP3      2080            0.0000000000
     56071      2480  TIP3      H1             27.3233508376      -38.1274854152       36.5223750198  TIP3      2080            0.0000000000
     56072      2480  TIP3      H2             26.5169604908      -37.2366369824       35.6071746104  TIP3      2080            0.0000000000
     56073      2481  TIP3      OH2            26.9754365650      -35.8038228957       38.6233426847  TIP3      2081            0.0000000000
     56074      2481  TIP3      H1             26.8277890325      -36.2961295661       37.7790254668  TIP3      2081            0.0000000000
     56075      2481  TIP3      H2             26.3758510431      -35.0413255782       38.5351925298  TIP3      2081            0.0000000000
     56076      2482  TIP3      OH2            26.5074814180      -18.9188662781       21.7842180388  TIP3      2082            0.0000000000
     56077      2482  TIP3      H1             27.4428923279      -18.7499021628       21.8947235068  TIP3      2082            0.0000000000
     56078      2482  TIP3      H2             26.2555248365      -18.2452991447       21.1375270131  TIP3      2082            0.0000000000
     56079      2483  TIP3      OH2            20.0654868600      -24.2612263615       21.2706645294  TIP3      2083            0.0000000000
     56080      2483  TIP3      H1             21.0092420215      -24.2114998489       21.5197135902  TIP3      2083            0.0000000000
     56081      2483  TIP3      H2             20.0843610270      -24.9522217487       20.5728330730  TIP3      2083            0.0000000000
     56082      2484  TIP3      OH2            18.7702259523      -18.9062954723       26.2852674883  TIP3      2084            0.0000000000
     56083      2484  TIP3      H1             18.0696777198      -19.3869879120       25.8018017656  TIP3      2084            0.0000000000
     56084      2484  TIP3      H2             19.0770232382      -19.5669042507       26.9410255834  TIP3      2084            0.0000000000
     56085      2485  TIP3      OH2            19.5458759288      -20.8011548843       28.0764445591  TIP3      2085            0.0000000000
     56086      2485  TIP3      H1             19.2725402252      -21.6847734877       28.3368630567  TIP3      2085            0.0000000000
     56087      2485  TIP3      H2             19.8438284462      -20.4735699019       28.9875317550  TIP3      2085            0.0000000000
     56088      2486  TIP3      OH2            37.1386062309      -20.0000370761       31.0900188434  TIP3      2086            0.0000000000
     56089      2486  TIP3      H1             37.1424651369      -19.8203008757       32.0498614979  TIP3      2086            0.0000000000
     56090      2486  TIP3      H2             37.8383905240      -19.4182611825       30.7899044345  TIP3      2086            0.0000000000
     56091      2487  TIP3      OH2            36.7199208155      -20.4027927814       34.0335831910  TIP3      2087            0.0000000000
     56092      2487  TIP3      H1             36.2371439031      -21.1731643044       33.6592774493  TIP3      2087            0.0000000000
     56093      2487  TIP3      H2             37.2462951334      -20.8385961399       34.7223414657  TIP3      2087            0.0000000000
     56094      2488  TIP3      OH2            35.1705050865      -24.6721981915       38.6726143784  TIP3      2088            0.0000000000
     56095      2488  TIP3      H1             34.2864736747      -24.7240365056       39.0759450746  TIP3      2088            0.0000000000
     56096      2488  TIP3      H2             35.5423636001      -23.8764081008       39.1230385834  TIP3      2088            0.0000000000
     56097      2489  TIP3      OH2            36.4416752140      -26.3524920410       24.1890304575  TIP3      2089            0.0000000000
     56098      2489  TIP3      H1             37.3251533873      -25.9744596225       24.2955756523  TIP3      2089            0.0000000000
     56099      2489  TIP3      H2             36.4848171674      -27.1207685763       24.7884548711  TIP3      2089            0.0000000000
     56100      2490  TIP3      OH2            36.8491862365      -28.3093703241       25.9983146478  TIP3      2090            0.0000000000
     56101      2490  TIP3      H1             36.1112612134      -28.8029847598       26.4086400082  TIP3      2090            0.0000000000
     56102      2490  TIP3      H2             37.4467597096      -28.1277452520       26.7510325467  TIP3      2090            0.0000000000
     56103      2491  TIP3      OH2            36.6040706601      -25.5662824522       30.9809949114  TIP3      2091            0.0000000000
     56104      2491  TIP3      H1             37.4445094099      -25.9328456768       30.6495411581  TIP3      2091            0.0000000000
     56105      2491  TIP3      H2             36.7406004965      -24.6056224181       30.8302467528  TIP3      2091            0.0000000000
     56106      2492  TIP3      OH2            35.1308079612      -22.6783458535       33.2797360392  TIP3      2092            0.0000000000
     56107      2492  TIP3      H1             34.4515088594      -22.3370597954       33.8802445852  TIP3      2092            0.0000000000
     56108      2492  TIP3      H2             34.5863000948      -23.0972846869       32.5782531643  TIP3      2092            0.0000000000
     56109      2493  TIP3      OH2            34.6550927005      -29.8023022608       26.5677587526  TIP3      2093            0.0000000000
     56110      2493  TIP3      H1             34.5015200806      -30.7591391271       26.5546841386  TIP3      2093            0.0000000000
     56111      2493  TIP3      H2             34.3039447885      -29.5489430592       27.4385738223  TIP3      2093            0.0000000000
     56112      2494  TIP3      OH2            19.6678533822      -27.7205337173       30.6147827187  TIP3      2094            0.0000000000
     56113      2494  TIP3      H1             19.8663504739      -27.8063556496       29.6559639890  TIP3      2094            0.0000000000
     56114      2494  TIP3      H2             20.5526252651      -27.8696720050       31.0004214886  TIP3      2094            0.0000000000
     56115      2495  TIP3      OH2            35.4921347927      -27.8421645018       36.2391878293  TIP3      2095            0.0000000000
     56116      2495  TIP3      H1             36.1095145010      -28.5855661659       36.4017344799  TIP3      2095            0.0000000000
     56117      2495  TIP3      H2             36.0877547199      -27.0621637228       36.2604949678  TIP3      2095            0.0000000000
     56118      2496  TIP3      OH2            37.0132733739      -29.9315134441       36.9173393487  TIP3      2096            0.0000000000
     56119      2496  TIP3      H1             36.1415171537      -30.3344190194       36.7409367359  TIP3      2096            0.0000000000
     56120      2496  TIP3      H2             37.6018695922      -30.6978772472       36.8289530041  TIP3      2096            0.0000000000
     56121      2497  TIP3      OH2            34.3448147777      -32.2166595336       25.0404272224  TIP3      2097            0.0000000000
     56122      2497  TIP3      H1             34.6400023366      -33.1484675297       25.1615408964  TIP3      2097            0.0000000000
     56123      2497  TIP3      H2             35.1322556293      -31.8092641492       24.6512828730  TIP3      2097            0.0000000000
     56124      2498  TIP3      OH2            34.9613312714      -31.6697383218       30.4689052475  TIP3      2098            0.0000000000
     56125      2498  TIP3      H1             35.9178962725      -31.4326843721       30.4518491050  TIP3      2098            0.0000000000
     56126      2498  TIP3      H2             34.7594017484      -31.5351560399       31.4060290046  TIP3      2098            0.0000000000
     56127      2499  TIP3      OH2            35.0131964948      -30.9398348956       33.2600428621  TIP3      2099            0.0000000000
     56128      2499  TIP3      H1             34.1558009852      -30.6365772047       33.6011657700  TIP3      2099            0.0000000000
     56129      2499  TIP3      H2             35.4609872557      -30.0842706874       33.0336659023  TIP3      2099            0.0000000000
     56130      2500  TIP3      OH2            19.2691958680      -32.4372780955       36.7501487680  TIP3      2100            0.0000000000
     56131      2500  TIP3      H1             20.2091811623      -32.5984378966       36.9687005773  TIP3      2100            0.0000000000
     56132      2500  TIP3      H2             18.8334441790      -33.2322553363       37.1062007249  TIP3      2100            0.0000000000
     56133      2501  TIP3      OH2            37.2905557147      -36.9203750170       38.6025140871  TIP3      2101            0.0000000000
     56134      2501  TIP3      H1             37.6437779221      -37.5789230897       37.9884295117  TIP3      2101            0.0000000000
     56135      2501  TIP3      H2             37.4281732615      -36.0852826721       38.1254413163  TIP3      2101            0.0000000000
     56136      2502  TIP3      OH2            34.9837221799      -34.9452833112       25.0780964867  TIP3      2102            0.0000000000
     56137      2502  TIP3      H1             35.1740299935      -35.4023818321       25.9197668659  TIP3      2102            0.0000000000
     56138      2502  TIP3      H2             34.3718832930      -35.5661190102       24.6331510457  TIP3      2102            0.0000000000
     56139      2503  TIP3      OH2            20.4859465011      -34.1362650660       29.6221492364  TIP3      2103            0.0000000000
     56140      2503  TIP3      H1             20.9507442126      -34.9463324928       29.9151477560  TIP3      2103            0.0000000000
     56141      2503  TIP3      H2             20.9919786720      -33.4282817867       30.0435043248  TIP3      2103            0.0000000000
     56142      2504  TIP3      OH2            18.7771458307      -31.1477651599       30.6892091126  TIP3      2104            0.0000000000
     56143      2504  TIP3      H1             19.3191580333      -31.3663071216       29.9018339865  TIP3      2104            0.0000000000
     56144      2504  TIP3      H2             19.1959786806      -30.3144172241       30.9558198524  TIP3      2104            0.0000000000
     56145      2505  TIP3      OH2            36.8207007880      -34.8024403161       36.9640771550  TIP3      2105            0.0000000000
     56146      2505  TIP3      H1             35.8779255535      -34.5423687074       36.9118320298  TIP3      2105            0.0000000000
     56147      2505  TIP3      H2             36.8945729711      -35.3468703612       36.1628985194  TIP3      2105            0.0000000000
     56148      2506  TIP3      OH2            36.8313516844      -34.9071191243       21.6355771006  TIP3      2106            0.0000000000
     56149      2506  TIP3      H1             37.2672846160      -35.6038719525       21.1319072909  TIP3      2106            0.0000000000
     56150      2506  TIP3      H2             37.5105973811      -34.2132073899       21.6520865336  TIP3      2106            0.0000000000
     56151      2507  TIP3      OH2            19.1312704714      -34.8739566635       24.7627291977  TIP3      2107            0.0000000000
     56152      2507  TIP3      H1             18.1946115102      -34.6824462681       24.6012170086  TIP3      2107            0.0000000000
     56153      2507  TIP3      H2             19.5645556959      -34.4006764659       24.0334921556  TIP3      2107            0.0000000000
     56154      2508  TIP3      OH2            33.8712252213      -19.9104721855       26.6930732117  TIP3      2108            0.0000000000
     56155      2508  TIP3      H1             34.5492201576      -20.2399468750       26.0762325951  TIP3      2108            0.0000000000
     56156      2508  TIP3      H2             34.4014001246      -19.4170499157       27.3362852759  TIP3      2108            0.0000000000
     56157      2509  TIP3      OH2            19.0932638211      -36.1751785314       33.0694451035  TIP3      2109            0.0000000000
     56158      2509  TIP3      H1             18.4148717143      -36.3992022401       33.7246794014  TIP3      2109            0.0000000000
     56159      2509  TIP3      H2             18.6288597168      -35.5232519634       32.5024715888  TIP3      2109            0.0000000000
     56160      2510  TIP3      OH2            21.2980768960      -22.9894317561       37.2245806114  TIP3      2110            0.0000000000
     56161      2510  TIP3      H1             20.4582084182      -22.7928434121       36.7739849080  TIP3      2110            0.0000000000
     56162      2510  TIP3      H2             21.0278594283      -23.0548533824       38.1491152756  TIP3      2110            0.0000000000
     56163      2511  TIP3      OH2            24.2948341892      -22.0715130407       33.6060041671  TIP3      2111            0.0000000000
     56164      2511  TIP3      H1             23.8356635691      -21.2537481212       33.2254038081  TIP3      2111            0.0000000000
     56165      2511  TIP3      H2             25.1485907221      -21.9117009071       33.1710789326  TIP3      2111            0.0000000000
     56166      2512  TIP3      OH2            28.5387113440      -20.5957597069       36.4221909205  TIP3      2112            0.0000000000
     56167      2512  TIP3      H1             28.7104371508      -20.9403319947       37.3316872871  TIP3      2112            0.0000000000
     56168      2512  TIP3      H2             29.4188924436      -20.2888810350       36.1404205791  TIP3      2112            0.0000000000
     56169      2513  TIP3      OH2            30.8496821047      -19.3178768489       35.6883950603  TIP3      2113            0.0000000000
     56170      2513  TIP3      H1             31.5668641726      -19.9321950502       35.4590203746  TIP3      2113            0.0000000000
     56171      2513  TIP3      H2             31.2146042671      -18.9043398624       36.5018590227  TIP3      2113            0.0000000000
     56172      2514  TIP3      OH2            35.8260062473      -36.7070100267       34.7959510964  TIP3      2114            0.0000000000
     56173      2514  TIP3      H1             34.9962935391      -36.4059492314       34.3823486263  TIP3      2114            0.0000000000
     56174      2514  TIP3      H2             36.0200609461      -37.5007150864       34.2499563307  TIP3      2114            0.0000000000
     56175      2515  TIP3      OH2            21.8065212188      -18.4907926810       33.8382118380  TIP3      2115            0.0000000000
     56176      2515  TIP3      H1             21.0676271101      -18.3352250493       33.1625263952  TIP3      2115            0.0000000000
     56177      2515  TIP3      H2             21.2791309776      -19.0385634297       34.4121855018  TIP3      2115            0.0000000000
     56178      2516  TIP3      OH2            24.4088982224      -18.5360269394       32.8280967785  TIP3      2116            0.0000000000
     56179      2516  TIP3      H1             23.5091211911      -18.9420675973       33.0224236646  TIP3      2116            0.0000000000
     56180      2516  TIP3      H2             24.1385946796      -18.5995323635       31.8743168872  TIP3      2116            0.0000000000
     56181      2517  TIP3      OH2            28.8299336754      -19.2684691967       31.7301021153  TIP3      2117            0.0000000000
     56182      2517  TIP3      H1             28.3427809481      -18.7281321302       31.0865530842  TIP3      2117            0.0000000000
     56183      2517  TIP3      H2             28.9647029259      -18.6413183736       32.4713566242  TIP3      2117            0.0000000000
     56184      2518  TIP3      OH2            31.1328257933      -20.4222811661       32.7111873489  TIP3      2118            0.0000000000
     56185      2518  TIP3      H1             30.2385505359      -20.1988722226       32.4064219711  TIP3      2118            0.0000000000
     56186      2518  TIP3      H2             31.5706966104      -19.5566007406       32.6307029721  TIP3      2118            0.0000000000
     56187      2519  TIP3      OH2            33.7205028463      -18.8546821645       32.9933866961  TIP3      2119            0.0000000000
     56188      2519  TIP3      H1             33.5867657054      -17.9021992013       32.7582017726  TIP3      2119            0.0000000000
     56189      2519  TIP3      H2             33.9125992771      -19.2325497050       32.1156767819  TIP3      2119            0.0000000000
     56190      2520  TIP3      OH2            21.0220288350      -20.5037822543       30.0131861386  TIP3      2120            0.0000000000
     56191      2520  TIP3      H1             21.0267651941      -20.4851966203       31.0639809352  TIP3      2120            0.0000000000
     56192      2520  TIP3      H2             22.0060974666      -20.4751386555       30.0259957093  TIP3      2120            0.0000000000
     56193      2521  TIP3      OH2            23.2419573349      -21.4519110831       28.9703261253  TIP3      2121            0.0000000000
     56194      2521  TIP3      H1             22.9739257093      -22.3233986994       29.3108186359  TIP3      2121            0.0000000000
     56195      2521  TIP3      H2             23.9940696911      -21.2585400091       29.5816180237  TIP3      2121            0.0000000000
     56196      2522  TIP3      OH2            25.7712477896      -20.9177565032       29.9422914760  TIP3      2122            0.0000000000
     56197      2522  TIP3      H1             25.9295975203      -21.8413586152       29.6801968019  TIP3      2122            0.0000000000
     56198      2522  TIP3      H2             25.7799897987      -20.9869417078       30.9094932461  TIP3      2122            0.0000000000
     56199      2523  TIP3      OH2            29.2355048241      -35.2724813522       29.1013096444  TIP3      2123            0.0000000000
     56200      2523  TIP3      H1             28.5576861703      -35.9175037176       29.3573676288  TIP3      2123            0.0000000000
     56201      2523  TIP3      H2             29.7912344363      -35.7831109571       28.4993825733  TIP3      2123            0.0000000000
     56202      2524  TIP3      OH2            34.3697308704      -37.1991109424       29.1991318889  TIP3      2124            0.0000000000
     56203      2524  TIP3      H1             34.9889640782      -36.6221495719       28.6820466392  TIP3      2124            0.0000000000
     56204      2524  TIP3      H2             33.4936775678      -36.8541150473       28.9491503317  TIP3      2124            0.0000000000
     56205      2525  TIP3      OH2            36.0600771474      -36.0102287196       27.5105875766  TIP3      2125            0.0000000000
     56206      2525  TIP3      H1             36.7256297374      -36.5530815314       27.0211210250  TIP3      2125            0.0000000000
     56207      2525  TIP3      H2             36.5137860826      -35.1422137319       27.5600747020  TIP3      2125            0.0000000000
     56208      2526  TIP3      OH2            21.5786480472      -36.6373662405       26.9406780229  TIP3      2126            0.0000000000
     56209      2526  TIP3      H1             20.7896289144      -36.8665387173       26.4119993690  TIP3      2126            0.0000000000
     56210      2526  TIP3      H2             22.0815548655      -37.4709649538       26.9113667932  TIP3      2126            0.0000000000
     56211      2527  TIP3      OH2            26.1063412806      -36.7143425033       26.7330684097  TIP3      2127            0.0000000000
     56212      2527  TIP3      H1             27.0067022178      -36.3440185930       26.6829090881  TIP3      2127            0.0000000000
     56213      2527  TIP3      H2             26.0240119146      -36.9370783938       27.6572413972  TIP3      2127            0.0000000000
     56214      2528  TIP3      OH2            31.7361068799      -36.6876945543       28.3717278839  TIP3      2128            0.0000000000
     56215      2528  TIP3      H1             31.7614035446      -36.5980619937       27.4127941495  TIP3      2128            0.0000000000
     56216      2528  TIP3      H2             31.4093850055      -37.6091624050       28.4978260052  TIP3      2128            0.0000000000
     56217      2529  TIP3      OH2            33.0576828235      -36.6625807192       24.0118500381  TIP3      2129            0.0000000000
     56218      2529  TIP3      H1             32.3239644800      -36.0457733969       23.8799328010  TIP3      2129            0.0000000000
     56219      2529  TIP3      H2             32.6032583472      -37.5127398538       24.2336859198  TIP3      2129            0.0000000000
     56220      2530  TIP3      OH2            20.3119899946      -20.8935635906       23.6133982110  TIP3      2130            0.0000000000
     56221      2530  TIP3      H1             19.5860260774      -20.9627810311       22.9870761810  TIP3      2130            0.0000000000
     56222      2530  TIP3      H2             20.2921951090      -19.9839763087       23.9187434542  TIP3      2130            0.0000000000
     56223      2531  TIP3      OH2            22.2271364510      -35.0115081354       21.2348543573  TIP3      2131            0.0000000000
     56224      2531  TIP3      H1             22.7422585865      -35.5644503458       20.6549741342  TIP3      2131            0.0000000000
     56225      2531  TIP3      H2             22.8790655850      -34.6383657042       21.8413401850  TIP3      2131            0.0000000000
     56226      2532  TIP3      OH2            27.2411890080      -34.6628945798       23.5859305099  TIP3      2132            0.0000000000
     56227      2532  TIP3      H1             27.4790090784      -35.2748796109       24.3000195310  TIP3      2132            0.0000000000
     56228      2532  TIP3      H2             27.2657121352      -33.8177433659       24.0831029319  TIP3      2132            0.0000000000
     56229      2533  TIP3      OH2            35.8734699851      -20.1165445488       24.7236200995  TIP3      2133            0.0000000000
     56230      2533  TIP3      H1             35.6671396517      -20.8854313183       24.1403494529  TIP3      2133            0.0000000000
     56231      2533  TIP3      H2             35.8237203995      -19.3756875266       24.0888896065  TIP3      2133            0.0000000000
     56232      2534  TIP3      OH2            21.4955457768      -36.1122133818       36.4088502501  TIP3      2134            0.0000000000
     56233      2534  TIP3      H1             21.1391906093      -36.9036353271       36.8563153311  TIP3      2134            0.0000000000
     56234      2534  TIP3      H2             22.4253412210      -36.1229749590       36.7454135583  TIP3      2134            0.0000000000
     56235      2535  TIP3      OH2            23.4990875007      -36.7356696158       38.0006900124  TIP3      2135            0.0000000000
     56236      2535  TIP3      H1             24.3933662773      -37.0692744846       37.7876561966  TIP3      2135            0.0000000000
     56237      2535  TIP3      H2             23.1146918299      -37.5273447240       38.4375833159  TIP3      2135            0.0000000000
     56238      2536  TIP3      OH2            31.9007053153      -37.4323815984       38.1647512466  TIP3      2136            0.0000000000
     56239      2536  TIP3      H1             31.9984145010      -37.8936611647       39.0196089004  TIP3      2136            0.0000000000
     56240      2536  TIP3      H2             32.8167636474      -37.4467378829       37.8192511400  TIP3      2136            0.0000000000
     56241      2537  TIP3      OH2            35.1037320382      -21.3923748578       36.8521267014  TIP3      2137            0.0000000000
     56242      2537  TIP3      H1             34.3004910080      -21.5439422260       36.3080564945  TIP3      2137            0.0000000000
     56243      2537  TIP3      H2             35.0039856902      -20.4365257672       37.0485958538  TIP3      2137            0.0000000000
     56244      2538  TIP3      OH2            49.5171816140      -27.5077057490       26.8566952409  TIP3      2138            0.0000000000
     56245      2538  TIP3      H1             49.5661410394      -26.5344403387       26.7464592374  TIP3      2138            0.0000000000
     56246      2538  TIP3      H2             48.8424938786      -27.7492206775       26.2060993068  TIP3      2138            0.0000000000
     56247      2539  TIP3      OH2            48.4142398581      -28.2339264846       30.3070868324  TIP3      2139            0.0000000000
     56248      2539  TIP3      H1             48.3878128797      -28.8931774127       31.0071789992  TIP3      2139            0.0000000000
     56249      2539  TIP3      H2             48.0905233012      -28.7224480319       29.5312651570  TIP3      2139            0.0000000000
     56250      2540  TIP3      OH2            40.7738818832      -28.5989331207       31.8655949450  TIP3      2140            0.0000000000
     56251      2540  TIP3      H1             40.8451154335      -29.2554762556       32.5918560575  TIP3      2140            0.0000000000
     56252      2540  TIP3      H2             41.5051723974      -28.0011330899       32.0753181954  TIP3      2140            0.0000000000
     56253      2541  TIP3      OH2            52.1245477272      -25.2981918378       28.5840201464  TIP3      2141            0.0000000000
     56254      2541  TIP3      H1             51.6955419219      -26.0149598192       29.0635504313  TIP3      2141            0.0000000000
     56255      2541  TIP3      H2             52.1209382280      -24.5847165070       29.2433107593  TIP3      2141            0.0000000000
     56256      2542  TIP3      OH2            41.7006327500      -24.1328596955       30.3895838718  TIP3      2142            0.0000000000
     56257      2542  TIP3      H1             41.3629883730      -24.9886266066       30.0501230634  TIP3      2142            0.0000000000
     56258      2542  TIP3      H2             42.6541363246      -24.3420936186       30.4481531732  TIP3      2142            0.0000000000
     56259      2543  TIP3      OH2            38.3325478612      -30.5448842540       25.8344853109  TIP3      2143            0.0000000000
     56260      2543  TIP3      H1             37.8848352148      -29.6717098503       25.7830483292  TIP3      2143            0.0000000000
     56261      2543  TIP3      H2             37.7643555442      -31.0959462280       25.2752059263  TIP3      2143            0.0000000000
     56262      2544  TIP3      OH2            39.0286597551      -28.3428094190       27.9535522672  TIP3      2144            0.0000000000
     56263      2544  TIP3      H1             39.2756755352      -29.1405452824       28.4548704873  TIP3      2144            0.0000000000
     56264      2544  TIP3      H2             39.7685268422      -28.2534036535       27.3339747614  TIP3      2144            0.0000000000
     56265      2545  TIP3      OH2            49.2517429749      -20.1355190804       28.6830056503  TIP3      2145            0.0000000000
     56266      2545  TIP3      H1             49.8947896112      -20.8638886203       28.4686567057  TIP3      2145            0.0000000000
     56267      2545  TIP3      H2             49.0737904905      -20.3632504871       29.5302869602  TIP3      2145            0.0000000000
     56268      2546  TIP3      OH2            46.7979005995      -25.8038190079       30.7229794501  TIP3      2146            0.0000000000
     56269      2546  TIP3      H1             47.1237229674      -26.4858174388       30.1092016780  TIP3      2146            0.0000000000
     56270      2546  TIP3      H2             47.5641577605      -25.6989517519       31.3089705279  TIP3      2146            0.0000000000
     56271      2547  TIP3      OH2            55.4374928885      -34.2049621898       31.5364232213  TIP3      2147            0.0000000000
     56272      2547  TIP3      H1             55.5470768618      -33.5859710312       32.2925051092  TIP3      2147            0.0000000000
     56273      2547  TIP3      H2             55.9255852965      -33.7480953988       30.8380931377  TIP3      2147            0.0000000000
     56274      2548  TIP3      OH2            49.9526623118      -31.3845621346       31.0626777336  TIP3      2148            0.0000000000
     56275      2548  TIP3      H1             50.1030749686      -32.3502996515       31.0553238458  TIP3      2148            0.0000000000
     56276      2548  TIP3      H2             49.8491380719      -31.2217209214       30.1024438022  TIP3      2148            0.0000000000
     56277      2549  TIP3      OH2            43.0941158814      -33.3015583411       28.3107045106  TIP3      2149            0.0000000000
     56278      2549  TIP3      H1             43.1595248381      -32.4475450867       27.8532023071  TIP3      2149            0.0000000000
     56279      2549  TIP3      H2             42.6557230059      -33.8640461328       27.6366565135  TIP3      2149            0.0000000000
     56280      2550  TIP3      OH2            50.8196915884      -33.1943042818       26.6801650926  TIP3      2150            0.0000000000
     56281      2550  TIP3      H1             51.4856456011      -33.5150587277       27.3353340387  TIP3      2150            0.0000000000
     56282      2550  TIP3      H2             51.3640717560      -32.6496775399       26.0978315981  TIP3      2150            0.0000000000
     56283      2551  TIP3      OH2            39.7058537785      -30.8902378777       29.0552747245  TIP3      2151            0.0000000000
     56284      2551  TIP3      H1             40.3804633856      -31.4531834780       29.4906304095  TIP3      2151            0.0000000000
     56285      2551  TIP3      H2             39.7758527508      -31.1903012129       28.1368865602  TIP3      2151            0.0000000000
     56286      2552  TIP3      OH2            44.8722901265      -29.3358237186       28.3166248061  TIP3      2152            0.0000000000
     56287      2552  TIP3      H1             45.5120562965      -29.9042520655       28.7737720969  TIP3      2152            0.0000000000
     56288      2552  TIP3      H2             44.3140335559      -30.0016794007       27.8637128218  TIP3      2152            0.0000000000
     56289      2553  TIP3      OH2            55.8837623344      -32.7417995872       33.7829479958  TIP3      2153            0.0000000000
     56290      2553  TIP3      H1             55.1995520378      -32.0450965867       33.6844647714  TIP3      2153            0.0000000000
     56291      2553  TIP3      H2             55.8748472866      -32.9025286022       34.7399755914  TIP3      2153            0.0000000000
     56292      2554  TIP3      OH2            41.9509445349      -34.3982364865       32.3602564032  TIP3      2154            0.0000000000
     56293      2554  TIP3      H1             41.6928471149      -33.8403429078       31.6012023263  TIP3      2154            0.0000000000
     56294      2554  TIP3      H2             41.2606566283      -34.1583180735       33.0276445936  TIP3      2154            0.0000000000
     56295      2555  TIP3      OH2            49.2836482481      -24.9022494949       25.9060851912  TIP3      2155            0.0000000000
     56296      2555  TIP3      H1             48.9840359614      -25.2053906561       25.0431696088  TIP3      2155            0.0000000000
     56297      2555  TIP3      H2             48.9589937215      -23.9786505559       25.9448511209  TIP3      2155            0.0000000000
     56298      2556  TIP3      OH2            44.4941162807      -26.7414074687       32.6300667383  TIP3      2156            0.0000000000
     56299      2556  TIP3      H1             43.7618613081      -26.1049538444       32.7808461580  TIP3      2156            0.0000000000
     56300      2556  TIP3      H2             45.1992066757      -26.1505772754       32.3271330289  TIP3      2156            0.0000000000
     56301      2557  TIP3      OH2            52.6089102640      -33.8787103350       28.6703668023  TIP3      2157            0.0000000000
     56302      2557  TIP3      H1             52.3916398022      -34.6437498614       29.2134219619  TIP3      2157            0.0000000000
     56303      2557  TIP3      H2             53.2730465895      -33.4237033032       29.2072715835  TIP3      2157            0.0000000000
     56304      2558  TIP3      OH2            41.5090313663      -32.5168855329       30.3466891344  TIP3      2158            0.0000000000
     56305      2558  TIP3      H1             42.1522294781      -31.8548154859       30.6928259408  TIP3      2158            0.0000000000
     56306      2558  TIP3      H2             42.0461925821      -32.9652773655       29.6510242168  TIP3      2158            0.0000000000
     56307      2559  TIP3      OH2            42.9212334938      -24.7621583351       33.4245697266  TIP3      2159            0.0000000000
     56308      2559  TIP3      H1             42.8875117163      -23.8528079335       33.0679116480  TIP3      2159            0.0000000000
     56309      2559  TIP3      H2             42.0371462908      -24.8283679228       33.8672885614  TIP3      2159            0.0000000000
     56310      2560  TIP3      OH2            39.0396190291      -25.0944168306       24.2112990749  TIP3      2160            0.0000000000
     56311      2560  TIP3      H1             38.7268148124      -24.8464188954       23.3294218432  TIP3      2160            0.0000000000
     56312      2560  TIP3      H2             39.0669296583      -24.2496173864       24.7017926839  TIP3      2160            0.0000000000
     56313      2561  TIP3      OH2            52.6305438002      -23.4682923600       30.9515101502  TIP3      2161            0.0000000000
     56314      2561  TIP3      H1             51.6725656865      -23.3847953088       31.0960745232  TIP3      2161            0.0000000000
     56315      2561  TIP3      H2             52.9248922505      -22.5500049650       30.7895083395  TIP3      2161            0.0000000000
     56316      2562  TIP3      OH2            52.9555349775      -35.1733219769       32.3579748520  TIP3      2162            0.0000000000
     56317      2562  TIP3      H1             52.2146602551      -34.5538645987       32.2957024800  TIP3      2162            0.0000000000
     56318      2562  TIP3      H2             53.6460869436      -34.7495207004       31.8228344746  TIP3      2162            0.0000000000
     56319      2563  TIP3      OH2            45.9423585971      -37.0696651608       29.8136088503  TIP3      2163            0.0000000000
     56320      2563  TIP3      H1             45.8133829227      -38.0363147966       29.7577676421  TIP3      2163            0.0000000000
     56321      2563  TIP3      H2             45.0658277294      -36.7539841902       30.1066507922  TIP3      2163            0.0000000000
     56322      2564  TIP3      OH2            50.8977483778      -21.6857182674       27.5835323606  TIP3      2164            0.0000000000
     56323      2564  TIP3      H1             51.3270399974      -22.3953956532       27.0583635157  TIP3      2164            0.0000000000
     56324      2564  TIP3      H2             51.2651098682      -20.8831732088       27.1420794650  TIP3      2164            0.0000000000
     56325      2565  TIP3      OH2            52.0656016139      -23.7520788001       26.0752167828  TIP3      2165            0.0000000000
     56326      2565  TIP3      H1             51.8016630902      -24.4626512653       25.4666722594  TIP3      2165            0.0000000000
     56327      2565  TIP3      H2             52.1245201008      -24.2353349203       26.9213866632  TIP3      2165            0.0000000000
     56328      2566  TIP3      OH2            53.7310956360      -25.1920833793       34.5619169598  TIP3      2166            0.0000000000
     56329      2566  TIP3      H1             53.8672981355      -25.8095676203       33.8137057780  TIP3      2166            0.0000000000
     56330      2566  TIP3      H2             53.9196444768      -24.3257696266       34.1653444037  TIP3      2166            0.0000000000
     56331      2567  TIP3      OH2            48.2007816463      -28.2832056359       24.3137817688  TIP3      2167            0.0000000000
     56332      2567  TIP3      H1             47.5016927248      -27.6902994983       23.9737603597  TIP3      2167            0.0000000000
     56333      2567  TIP3      H2             48.9196332441      -28.1735081232       23.6572469134  TIP3      2167            0.0000000000
     56334      2568  TIP3      OH2            55.5555045944      -28.8899370285       32.5990567699  TIP3      2168            0.0000000000
     56335      2568  TIP3      H1             54.9281967680      -28.1477418235       32.6900962708  TIP3      2168            0.0000000000
     56336      2568  TIP3      H2             56.0526810788      -28.6291589497       31.7991036119  TIP3      2168            0.0000000000
     56337      2569  TIP3      OH2            51.6328331539      -28.0483676761       25.2472876716  TIP3      2169            0.0000000000
     56338      2569  TIP3      H1             50.8952018781      -27.8059427460       25.8565914401  TIP3      2169            0.0000000000
     56339      2569  TIP3      H2             52.0967306885      -28.7356762213       25.7590724428  TIP3      2169            0.0000000000
     56340      2570  TIP3      OH2            51.5536542369      -29.8891898608       34.3542586507  TIP3      2170            0.0000000000
     56341      2570  TIP3      H1             51.5837536088      -29.0878261604       34.9063126264  TIP3      2170            0.0000000000
     56342      2570  TIP3      H2             50.9255675518      -29.5833726267       33.6624725345  TIP3      2170            0.0000000000
     56343      2571  TIP3      OH2            43.2622144028      -27.3925294635       27.1683155884  TIP3      2171            0.0000000000
     56344      2571  TIP3      H1             42.9389930336      -27.7859969344       26.3226238520  TIP3      2171            0.0000000000
     56345      2571  TIP3      H2             43.8728026994      -28.0886565797       27.4993803415  TIP3      2171            0.0000000000
     56346      2572  TIP3      OH2            44.6154706832      -23.9628574016       29.8357179847  TIP3      2172            0.0000000000
     56347      2572  TIP3      H1             44.5491477707      -24.5508558769       29.0658148754  TIP3      2172            0.0000000000
     56348      2572  TIP3      H2             45.3628432143      -24.3671220675       30.3155638256  TIP3      2172            0.0000000000
     56349      2573  TIP3      OH2            43.6135141667      -28.6487699574       30.8027378003  TIP3      2173            0.0000000000
     56350      2573  TIP3      H1             44.1863055017      -28.5247844244       30.0222654083  TIP3      2173            0.0000000000
     56351      2573  TIP3      H2             43.9658727877      -27.9900365664       31.4335808545  TIP3      2173            0.0000000000
     56352      2574  TIP3      OH2            49.9419178351      -23.0732568025       31.5008865785  TIP3      2174            0.0000000000
     56353      2574  TIP3      H1             49.7262548928      -22.4954912043       32.2209469935  TIP3      2174            0.0000000000
     56354      2574  TIP3      H2             49.7557993043      -23.9586571187       31.9443275610  TIP3      2174            0.0000000000
     56355      2575  TIP3      OH2            44.5377172524      -24.2340702774       35.5147746157  TIP3      2175            0.0000000000
     56356      2575  TIP3      H1             44.1766062324      -23.4549315839       35.9809736003  TIP3      2175            0.0000000000
     56357      2575  TIP3      H2             43.8596923164      -24.4045862800       34.8154854123  TIP3      2175            0.0000000000
     56358      2576  TIP3      OH2            50.5019090756      -28.8962521463       22.9433708838  TIP3      2176            0.0000000000
     56359      2576  TIP3      H1             51.0680761313      -28.6891450772       23.7224767621  TIP3      2176            0.0000000000
     56360      2576  TIP3      H2             50.9066475340      -28.3763979430       22.2326972340  TIP3      2176            0.0000000000
     56361      2577  TIP3      OH2            41.4643100165      -28.0581658513       34.7077777294  TIP3      2177            0.0000000000
     56362      2577  TIP3      H1             41.5083170826      -27.3883332558       35.4211395426  TIP3      2177            0.0000000000
     56363      2577  TIP3      H2             40.5424808547      -27.9469677406       34.4297090831  TIP3      2177            0.0000000000
     56364      2578  TIP3      OH2            48.2249406933      -22.1368067844       26.3971913812  TIP3      2178            0.0000000000
     56365      2578  TIP3      H1             48.6921143696      -21.8294952636       27.1718151732  TIP3      2178            0.0000000000
     56366      2578  TIP3      H2             47.6610318761      -21.3940584620       26.1502888713  TIP3      2178            0.0000000000
     56367      2579  TIP3      OH2            42.7758780880      -22.1702269401       36.2711779241  TIP3      2179            0.0000000000
     56368      2579  TIP3      H1             42.7435541695      -22.2953281927       35.3071535467  TIP3      2179            0.0000000000
     56369      2579  TIP3      H2             41.8381426631      -22.2954764039       36.5236317882  TIP3      2179            0.0000000000
     56370      2580  TIP3      OH2            54.2103633656      -37.1306777208       22.8000915260  TIP3      2180            0.0000000000
     56371      2580  TIP3      H1             53.2802121750      -36.9933658896       23.0652469270  TIP3      2180            0.0000000000
     56372      2580  TIP3      H2             54.4503957564      -36.2993289954       22.3788730174  TIP3      2180            0.0000000000
     56373      2581  TIP3      OH2            42.2527295019      -28.3487788060       24.7545759393  TIP3      2181            0.0000000000
     56374      2581  TIP3      H1             41.9542973348      -27.5671870404       24.2455122977  TIP3      2181            0.0000000000
     56375      2581  TIP3      H2             41.5711861593      -29.0049080478       24.5677560649  TIP3      2181            0.0000000000
     56376      2582  TIP3      OH2            55.3186100127      -22.7658352128       21.2598269975  TIP3      2182            0.0000000000
     56377      2582  TIP3      H1             55.4666347616      -21.8113595619       21.3115518166  TIP3      2182            0.0000000000
     56378      2582  TIP3      H2             56.2332091892      -23.0517465887       21.0727562061  TIP3      2182            0.0000000000
     56379      2583  TIP3      OH2            38.3437072305      -25.9500090007       33.6104357238  TIP3      2183            0.0000000000
     56380      2583  TIP3      H1             37.8598208055      -26.0190279539       32.7674955321  TIP3      2183            0.0000000000
     56381      2583  TIP3      H2             38.3702196015      -26.8909683300       33.8706171537  TIP3      2183            0.0000000000
     56382      2584  TIP3      OH2            38.0988837425      -23.1921538132       30.4323400616  TIP3      2184            0.0000000000
     56383      2584  TIP3      H1             39.0482205304      -23.3444827596       30.4381899078  TIP3      2184            0.0000000000
     56384      2584  TIP3      H2             37.9904387690      -22.4080429340       30.9844435624  TIP3      2184            0.0000000000
     56385      2585  TIP3      OH2            47.2862137973      -22.9417703884       34.9763542353  TIP3      2185            0.0000000000
     56386      2585  TIP3      H1             47.3527638406      -22.1268550103       35.5158273024  TIP3      2185            0.0000000000
     56387      2585  TIP3      H2             46.4189077995      -23.2964754924       35.2578650633  TIP3      2185            0.0000000000
     56388      2586  TIP3      OH2            47.7136280852      -19.1999646591       24.8044291105  TIP3      2186            0.0000000000
     56389      2586  TIP3      H1             47.6124188863      -19.2931684091       23.8460542093  TIP3      2186            0.0000000000
     56390      2586  TIP3      H2             47.7296261750      -18.2359256470       24.9447014067  TIP3      2186            0.0000000000
     56391      2587  TIP3      OH2            41.3243593402      -20.3234448707       26.6474111982  TIP3      2187            0.0000000000
     56392      2587  TIP3      H1             41.5289427358      -20.8212404069       27.4474588433  TIP3      2187            0.0000000000
     56393      2587  TIP3      H2             40.5096369410      -20.7652619989       26.3277096086  TIP3      2187            0.0000000000
     56394      2588  TIP3      OH2            50.4643494589      -20.0871339399       24.5387592200  TIP3      2188            0.0000000000
     56395      2588  TIP3      H1             49.5143307869      -19.9992665950       24.7545710011  TIP3      2188            0.0000000000
     56396      2588  TIP3      H2             50.7410957614      -20.8057166864       25.1314544145  TIP3      2188            0.0000000000
     56397      2589  TIP3      OH2            53.4560188219      -31.0261893067       36.6068562452  TIP3      2189            0.0000000000
     56398      2589  TIP3      H1             53.0157366452      -30.5619523226       35.8805027628  TIP3      2189            0.0000000000
     56399      2589  TIP3      H2             53.4841013521      -31.9470702712       36.2962955019  TIP3      2189            0.0000000000
     56400      2590  TIP3      OH2            40.6004514068      -24.6333861182       34.6040606687  TIP3      2190            0.0000000000
     56401      2590  TIP3      H1             40.8255681706      -25.0095379911       35.4825366307  TIP3      2190            0.0000000000
     56402      2590  TIP3      H2             39.7344175758      -25.0327473354       34.3933278790  TIP3      2190            0.0000000000
     56403      2591  TIP3      OH2            43.2599329316      -36.1780374631       30.5855134990  TIP3      2191            0.0000000000
     56404      2591  TIP3      H1             42.3603710900      -36.2699215330       30.1948015551  TIP3      2191            0.0000000000
     56405      2591  TIP3      H2             43.1771072520      -35.3226416131       31.0343805341  TIP3      2191            0.0000000000
     56406      2592  TIP3      OH2            47.9089568722      -36.4653322193       33.9504243098  TIP3      2192            0.0000000000
     56407      2592  TIP3      H1             48.3110314640      -36.8909320417       34.7285336095  TIP3      2192            0.0000000000
     56408      2592  TIP3      H2             46.9424157108      -36.6287691618       34.0865639709  TIP3      2192            0.0000000000
     56409      2593  TIP3      OH2            51.2055647720      -32.6813968577       34.8163888104  TIP3      2193            0.0000000000
     56410      2593  TIP3      H1             50.6708980602      -32.8457006383       35.6277327820  TIP3      2193            0.0000000000
     56411      2593  TIP3      H2             51.0432850336      -31.7560650795       34.5823489827  TIP3      2193            0.0000000000
     56412      2594  TIP3      OH2            43.3517285096      -31.2131912593       31.7442360663  TIP3      2194            0.0000000000
     56413      2594  TIP3      H1             42.6542715710      -31.2344059282       32.4258592881  TIP3      2194            0.0000000000
     56414      2594  TIP3      H2             43.3434350111      -30.2757462470       31.4490367354  TIP3      2194            0.0000000000
     56415      2595  TIP3      OH2            43.3320904374      -31.0147420670       26.6407788411  TIP3      2195            0.0000000000
     56416      2595  TIP3      H1             42.4094268194      -31.3308747213       26.5378575938  TIP3      2195            0.0000000000
     56417      2595  TIP3      H2             43.7449782505      -31.3759679245       25.8386416076  TIP3      2195            0.0000000000
     56418      2596  TIP3      OH2            48.8272447954      -30.5985222293       25.4076075863  TIP3      2196            0.0000000000
     56419      2596  TIP3      H1             48.4554953021      -29.7339773756       25.1302641479  TIP3      2196            0.0000000000
     56420      2596  TIP3      H2             49.5798965383      -30.7162547823       24.8103261488  TIP3      2196            0.0000000000
     56421      2597  TIP3      OH2            47.9420855351      -30.3732536381       36.8981949304  TIP3      2197            0.0000000000
     56422      2597  TIP3      H1             47.3864480953      -31.1238803745       37.2204409006  TIP3      2197            0.0000000000
     56423      2597  TIP3      H2             48.7735066450      -30.5092295491       37.3791915768  TIP3      2197            0.0000000000
     56424      2598  TIP3      OH2            49.8715092488      -31.1054788424       28.2714031839  TIP3      2198            0.0000000000
     56425      2598  TIP3      H1             49.6424870942      -30.5257983427       27.5252966741  TIP3      2198            0.0000000000
     56426      2598  TIP3      H2             50.0199159124      -31.9532153941       27.8040832554  TIP3      2198            0.0000000000
     56427      2599  TIP3      OH2            41.0404669516      -30.9050682724       33.5310186795  TIP3      2199            0.0000000000
     56428      2599  TIP3      H1             41.0449329294      -30.5041837802       34.4175927872  TIP3      2199            0.0000000000
     56429      2599  TIP3      H2             40.5660373536      -31.7363261190       33.6777051151  TIP3      2199            0.0000000000
     56430      2600  TIP3      OH2            44.4290203800      -33.4826189822       20.3745970293  TIP3      2200            0.0000000000
     56431      2600  TIP3      H1             43.9846304866      -33.9772942310       21.0932421018  TIP3      2200            0.0000000000
     56432      2600  TIP3      H2             43.7128453353      -33.1546250540       19.8543263406  TIP3      2200            0.0000000000
     56433      2601  TIP3      OH2            37.6594396549      -33.7925691358       27.4363454415  TIP3      2201            0.0000000000
     56434      2601  TIP3      H1             38.3207350288      -33.8271303014       28.1568616672  TIP3      2201            0.0000000000
     56435      2601  TIP3      H2             38.1220877334      -34.2059434544       26.6862182526  TIP3      2201            0.0000000000
     56436      2602  TIP3      OH2            49.1084072485      -29.4820762503       32.8865406384  TIP3      2202            0.0000000000
     56437      2602  TIP3      H1             49.4546757286      -30.1491453501       32.2643014760  TIP3      2202            0.0000000000
     56438      2602  TIP3      H2             48.6592353259      -30.0278302932       33.5563414001  TIP3      2202            0.0000000000
     56439      2603  TIP3      OH2            45.8987493215      -33.5411734149       27.6816220527  TIP3      2203            0.0000000000
     56440      2603  TIP3      H1             44.9638712415      -33.5095130279       27.9870525356  TIP3      2203            0.0000000000
     56441      2603  TIP3      H2             46.3929255194      -33.6454619632       28.5096542296  TIP3      2203            0.0000000000
     56442      2604  TIP3      OH2            40.7185872393      -31.9437962204       26.5382569795  TIP3      2204            0.0000000000
     56443      2604  TIP3      H1             39.8219922334      -31.8277660104       26.1632678105  TIP3      2204            0.0000000000
     56444      2604  TIP3      H2             41.0120598934      -32.7883698135       26.1657639421  TIP3      2204            0.0000000000
     56445      2605  TIP3      OH2            44.3604436210      -31.9293870325       24.1635398125  TIP3      2205            0.0000000000
     56446      2605  TIP3      H1             45.3042763235      -31.8166040372       24.3691997953  TIP3      2205            0.0000000000
     56447      2605  TIP3      H2             44.1324922325      -31.2441596491       23.5235377693  TIP3      2205            0.0000000000
     56448      2606  TIP3      OH2            50.3075526053      -34.3091677858       30.9437321360  TIP3      2206            0.0000000000
     56449      2606  TIP3      H1             49.6128988743      -34.2104887893       31.6291266527  TIP3      2206            0.0000000000
     56450      2606  TIP3      H2             49.8026000923      -34.5036439820       30.1428353896  TIP3      2206            0.0000000000
     56451      2607  TIP3      OH2            43.0602771422      -30.7437770302       21.7525854581  TIP3      2207            0.0000000000
     56452      2607  TIP3      H1             42.4964763629      -31.1016268643       21.0562620144  TIP3      2207            0.0000000000
     56453      2607  TIP3      H2             43.8719943735      -30.5455312686       21.2968376059  TIP3      2207            0.0000000000
     56454      2608  TIP3      OH2            53.5704082246      -18.6766727707       37.2535674478  TIP3      2208            0.0000000000
     56455      2608  TIP3      H1             53.7762570587      -18.2536253302       36.3949950124  TIP3      2208            0.0000000000
     56456      2608  TIP3      H2             54.2097888926      -18.3070189666       37.8539358741  TIP3      2208            0.0000000000
     56457      2609  TIP3      OH2            41.1961141314      -26.1842354593       36.8240757754  TIP3      2209            0.0000000000
     56458      2609  TIP3      H1             41.9085304138      -25.9257426154       37.4312454498  TIP3      2209            0.0000000000
     56459      2609  TIP3      H2             40.4005541188      -26.0180786599       37.3812397816  TIP3      2209            0.0000000000
     56460      2610  TIP3      OH2            47.1955482902      -30.7679629794       29.5801405666  TIP3      2210            0.0000000000
     56461      2610  TIP3      H1             47.7783693809      -31.3150599606       29.0381016292  TIP3      2210            0.0000000000
     56462      2610  TIP3      H2             47.0551194666      -31.3060241028       30.3699731898  TIP3      2210            0.0000000000
     56463      2611  TIP3      OH2            42.2013847012      -34.6218720454       26.0092375833  TIP3      2211            0.0000000000
     56464      2611  TIP3      H1             41.8922778033      -35.5462969418       25.9790281525  TIP3      2211            0.0000000000
     56465      2611  TIP3      H2             42.9910025286      -34.6587247751       25.4509295645  TIP3      2211            0.0000000000
     56466      2612  TIP3      OH2            45.8337697055      -32.4156250069       31.9890178579  TIP3      2212            0.0000000000
     56467      2612  TIP3      H1             44.9967517596      -31.9238100018       32.0990182050  TIP3      2212            0.0000000000
     56468      2612  TIP3      H2             46.3707555955      -32.0968659140       32.7417224225  TIP3      2212            0.0000000000
     56469      2613  TIP3      OH2            46.4258053530      -26.2012277524       23.6757242341  TIP3      2213            0.0000000000
     56470      2613  TIP3      H1             45.6184599176      -26.6659318276       23.3584814835  TIP3      2213            0.0000000000
     56471      2613  TIP3      H2             46.2198732071      -26.0990312299       24.6290928699  TIP3      2213            0.0000000000
     56472      2614  TIP3      OH2            53.5679748689      -27.0430019626       32.4823398346  TIP3      2214            0.0000000000
     56473      2614  TIP3      H1             54.1680673037      -26.5578792496       31.8944267310  TIP3      2214            0.0000000000
     56474      2614  TIP3      H2             52.7151831830      -26.9380536953       32.0071806233  TIP3      2214            0.0000000000
     56475      2615  TIP3      OH2            47.9024736519      -25.9758811947       34.9204962501  TIP3      2215            0.0000000000
     56476      2615  TIP3      H1             47.5556502495      -26.3717851993       35.7274755284  TIP3      2215            0.0000000000
     56477      2615  TIP3      H2             47.6826930835      -25.0440099443       35.0065039007  TIP3      2215            0.0000000000
     56478      2616  TIP3      OH2            51.0161209847      -31.5171287088       23.5205197863  TIP3      2216            0.0000000000
     56479      2616  TIP3      H1             51.9031430018      -31.6255743603       23.9023400409  TIP3      2216            0.0000000000
     56480      2616  TIP3      H2             51.0414175277      -30.6861609760       23.0103614752  TIP3      2216            0.0000000000
     56481      2617  TIP3      OH2            41.5093243509      -26.8486045627       29.4730515774  TIP3      2217            0.0000000000
     56482      2617  TIP3      H1             42.2378296610      -26.8930435259       28.8249784985  TIP3      2217            0.0000000000
     56483      2617  TIP3      H2             41.5851237867      -27.7007636296       29.9367244796  TIP3      2217            0.0000000000
     56484      2618  TIP3      OH2            48.5279487716      -24.7093582193       22.7085243010  TIP3      2218            0.0000000000
     56485      2618  TIP3      H1             48.1699140081      -23.8966766419       23.1031698077  TIP3      2218            0.0000000000
     56486      2618  TIP3      H2             47.7915030106      -25.3336800222       22.9127099208  TIP3      2218            0.0000000000
     56487      2619  TIP3      OH2            38.5075444157      -28.4072220741       34.7563643365  TIP3      2219            0.0000000000
     56488      2619  TIP3      H1             38.7204838566      -28.8477664759       35.6036007533  TIP3      2219            0.0000000000
     56489      2619  TIP3      H2             37.9005328164      -29.0364176457       34.3308290308  TIP3      2219            0.0000000000
     56490      2620  TIP3      OH2            45.5241219677      -28.8763332496       36.9677629462  TIP3      2220            0.0000000000
     56491      2620  TIP3      H1             45.2268810748      -29.1025457111       36.0761045100  TIP3      2220            0.0000000000
     56492      2620  TIP3      H2             46.4650383061      -29.1434107033       36.9509138772  TIP3      2220            0.0000000000
     56493      2621  TIP3      OH2            50.1773364849      -23.5204812020       34.8490761592  TIP3      2221            0.0000000000
     56494      2621  TIP3      H1             49.2489434932      -23.3534437168       34.6330142598  TIP3      2221            0.0000000000
     56495      2621  TIP3      H2             50.1819618944      -23.2601745686       35.7975151630  TIP3      2221            0.0000000000
     56496      2622  TIP3      OH2            55.8516281686      -25.4994247674       36.0867088581  TIP3      2222            0.0000000000
     56497      2622  TIP3      H1             54.9795277233      -25.2444035039       35.7023196715  TIP3      2222            0.0000000000
     56498      2622  TIP3      H2             56.4228015315      -25.4912108632       35.2964662726  TIP3      2222            0.0000000000
     56499      2623  TIP3      OH2            54.1675607822      -22.4887033544       23.6919701764  TIP3      2223            0.0000000000
     56500      2623  TIP3      H1             53.8040607625      -23.3290844057       24.0021480951  TIP3      2223            0.0000000000
     56501      2623  TIP3      H2             54.4670109683      -22.6974520164       22.7805811295  TIP3      2223            0.0000000000
     56502      2624  TIP3      OH2            51.3494254512      -27.6830157419       30.7491627487  TIP3      2224            0.0000000000
     56503      2624  TIP3      H1             50.4090041475      -27.9220823866       30.6795469406  TIP3      2224            0.0000000000
     56504      2624  TIP3      H2             51.7890621841      -28.4659959721       30.3704438241  TIP3      2224            0.0000000000
     56505      2625  TIP3      OH2            43.8788179035      -23.3607543191       26.8771775174  TIP3      2225            0.0000000000
     56506      2625  TIP3      H1             44.4106076270      -22.5791099214       26.6518828340  TIP3      2225            0.0000000000
     56507      2625  TIP3      H2             43.0113368375      -23.1390935883       26.5244947912  TIP3      2225            0.0000000000
     56508      2626  TIP3      OH2            39.6460915179      -28.5125863757       21.4594209825  TIP3      2226            0.0000000000
     56509      2626  TIP3      H1             40.2463977013      -27.8563395349       21.8296976382  TIP3      2226            0.0000000000
     56510      2626  TIP3      H2             38.7736065241      -28.1841388692       21.6994679084  TIP3      2226            0.0000000000
     56511      2627  TIP3      OH2            45.3276862570      -25.7077687600       26.4248291705  TIP3      2227            0.0000000000
     56512      2627  TIP3      H1             45.0426799104      -24.7743482313       26.4796931117  TIP3      2227            0.0000000000
     56513      2627  TIP3      H2             44.5667225459      -26.1668504862       26.8300624720  TIP3      2227            0.0000000000
     56514      2628  TIP3      OH2            45.8054599479      -21.5383385707       32.7502896003  TIP3      2228            0.0000000000
     56515      2628  TIP3      H1             46.1800645909      -20.6857159712       32.5217030105  TIP3      2228            0.0000000000
     56516      2628  TIP3      H2             46.3532055610      -21.8546954575       33.4950332958  TIP3      2228            0.0000000000
     56517      2629  TIP3      OH2            43.9887615280      -20.6998444028       25.9940793845  TIP3      2229            0.0000000000
     56518      2629  TIP3      H1             43.0296186675      -20.5612594082       26.0250362796  TIP3      2229            0.0000000000
     56519      2629  TIP3      H2             44.3550255785      -19.8504715321       26.2949530335  TIP3      2229            0.0000000000
     56520      2630  TIP3      OH2            49.3400998934      -25.4603291183       32.4287929439  TIP3      2230            0.0000000000
     56521      2630  TIP3      H1             48.9469363290      -25.6929569722       33.2973622759  TIP3      2230            0.0000000000
     56522      2630  TIP3      H2             49.9419801304      -26.2074497679       32.2599889733  TIP3      2230            0.0000000000
     56523      2631  TIP3      OH2            52.0257818946      -20.8938582175       34.9283253110  TIP3      2231            0.0000000000
     56524      2631  TIP3      H1             51.4246134807      -21.4630842621       34.4184197144  TIP3      2231            0.0000000000
     56525      2631  TIP3      H2             52.3120338381      -20.2355277684       34.2677994489  TIP3      2231            0.0000000000
     56526      2632  TIP3      OH2            56.0736273753      -20.0704592010       21.7403443159  TIP3      2232            0.0000000000
     56527      2632  TIP3      H1             56.8025869557      -19.4439876959       21.5687339307  TIP3      2232            0.0000000000
     56528      2632  TIP3      H2             55.3686281283      -19.4475164908       22.0347775517  TIP3      2232            0.0000000000
     56529      2633  TIP3      OH2            40.1617345821      -33.6682890816       34.3104119372  TIP3      2233            0.0000000000
     56530      2633  TIP3      H1             39.2519317040      -33.3277713585       34.2641683447  TIP3      2233            0.0000000000
     56531      2633  TIP3      H2             40.0468203595      -34.5247551009       34.7511009428  TIP3      2233            0.0000000000
     56532      2634  TIP3      OH2            52.4190530931      -25.8268163745       23.7579425621  TIP3      2234            0.0000000000
     56533      2634  TIP3      H1             52.1638266612      -26.5943364583       24.2980926349  TIP3      2234            0.0000000000
     56534      2634  TIP3      H2             53.3671939368      -25.7520963563       23.9460951711  TIP3      2234            0.0000000000
     56535      2635  TIP3      OH2            39.8141985052      -21.8640835633       32.7341172057  TIP3      2235            0.0000000000
     56536      2635  TIP3      H1             40.0358125388      -22.8120741216       32.7437519009  TIP3      2235            0.0000000000
     56537      2635  TIP3      H2             40.0407050936      -21.6022059281       33.6391443411  TIP3      2235            0.0000000000
     56538      2636  TIP3      OH2            41.0582089204      -26.5857929979       22.9150584431  TIP3      2236            0.0000000000
     56539      2636  TIP3      H1             40.3636392759      -26.2172152235       23.5007313870  TIP3      2236            0.0000000000
     56540      2636  TIP3      H2             41.5879365378      -25.8146796104       22.6933280757  TIP3      2236            0.0000000000
     56541      2637  TIP3      OH2            48.8845673679      -33.9100161469       33.2237870622  TIP3      2237            0.0000000000
     56542      2637  TIP3      H1             49.5910499515      -33.8521542588       33.8793353223  TIP3      2237            0.0000000000
     56543      2637  TIP3      H2             48.5036373440      -34.7931459354       33.4041172426  TIP3      2237            0.0000000000
     56544      2638  TIP3      OH2            49.6727516724      -34.2913824437       24.3049840779  TIP3      2238            0.0000000000
     56545      2638  TIP3      H1             49.8851752956      -33.7978898535       23.5165921556  TIP3      2238            0.0000000000
     56546      2638  TIP3      H2             50.2247310693      -33.8846758027       24.9897671697  TIP3      2238            0.0000000000
     56547      2639  TIP3      OH2            47.3646746085      -22.1535189392       23.1624867094  TIP3      2239            0.0000000000
     56548      2639  TIP3      H1             46.5034390906      -21.6688583000       23.2321498001  TIP3      2239            0.0000000000
     56549      2639  TIP3      H2             47.8446690904      -21.6361151201       22.5265166735  TIP3      2239            0.0000000000
     56550      2640  TIP3      OH2            46.8579354341      -32.5392097646       25.1373466370  TIP3      2240            0.0000000000
     56551      2640  TIP3      H1             47.6840419468      -32.0247813280       25.2152304352  TIP3      2240            0.0000000000
     56552      2640  TIP3      H2             46.6137183355      -32.7011618136       26.0754376262  TIP3      2240            0.0000000000
     56553      2641  TIP3      OH2            47.4098413327      -31.5610039923       34.3366065710  TIP3      2241            0.0000000000
     56554      2641  TIP3      H1             47.5101726204      -30.9846080758       35.1166126938  TIP3      2241            0.0000000000
     56555      2641  TIP3      H2             48.0699853922      -32.2551322037       34.4477411824  TIP3      2241            0.0000000000
     56556      2642  TIP3      OH2            47.7365134133      -35.4981600416       26.0690731799  TIP3      2242            0.0000000000
     56557      2642  TIP3      H1             47.4017061458      -34.8572279815       26.7213504088  TIP3      2242            0.0000000000
     56558      2642  TIP3      H2             48.4161626488      -34.9581862315       25.6047855174  TIP3      2242            0.0000000000
     56559      2643  TIP3      OH2            44.7196390765      -21.1286866934       23.2020786976  TIP3      2243            0.0000000000
     56560      2643  TIP3      H1             44.8177515088      -20.3103958793       22.6430581901  TIP3      2243            0.0000000000
     56561      2643  TIP3      H2             44.4547191434      -20.7853170031       24.0650256522  TIP3      2243            0.0000000000
     56562      2644  TIP3      OH2            43.4118988679      -34.3883558519       22.7590420190  TIP3      2244            0.0000000000
     56563      2644  TIP3      H1             43.3207369962      -33.5055453033       23.1456011732  TIP3      2244            0.0000000000
     56564      2644  TIP3      H2             44.3088115556      -34.6754958711       23.0085916196  TIP3      2244            0.0000000000
     56565      2645  TIP3      OH2            53.6116954845      -33.6691852014       35.1881545880  TIP3      2245            0.0000000000
     56566      2645  TIP3      H1             52.6733754937      -33.3855620286       35.0732434510  TIP3      2245            0.0000000000
     56567      2645  TIP3      H2             53.9269766879      -33.6746687584       34.2708920247  TIP3      2245            0.0000000000
     56568      2646  TIP3      OH2            52.1891150583      -29.8858325070       29.2517429779  TIP3      2246            0.0000000000
     56569      2646  TIP3      H1             51.3897690903      -30.3326670002       28.9331314695  TIP3      2246            0.0000000000
     56570      2646  TIP3      H2             52.6689701563      -30.5928373991       29.7467315704  TIP3      2246            0.0000000000
     56571      2647  TIP3      OH2            53.2671938284      -20.6504486558       30.8931482307  TIP3      2247            0.0000000000
     56572      2647  TIP3      H1             53.1690629010      -19.9589319049       30.2084737118  TIP3      2247            0.0000000000
     56573      2647  TIP3      H2             54.2353486526      -20.5770536533       31.0698132080  TIP3      2247            0.0000000000
     56574      2648  TIP3      OH2            40.7876581530      -36.5176269066       29.6522692494  TIP3      2248            0.0000000000
     56575      2648  TIP3      H1             40.5610070527      -36.4827594100       28.6966205567  TIP3      2248            0.0000000000
     56576      2648  TIP3      H2             40.3449339575      -37.3442166070       29.9298531177  TIP3      2248            0.0000000000
     56577      2649  TIP3      OH2            39.7262550922      -22.5784591053       25.8224205919  TIP3      2249            0.0000000000
     56578      2649  TIP3      H1             38.8727344245      -22.1237023191       25.7930522505  TIP3      2249            0.0000000000
     56579      2649  TIP3      H2             40.2438625791      -22.1024931402       25.1534381875  TIP3      2249            0.0000000000
     56580      2650  TIP3      OH2            38.9767456853      -19.9591054164       37.1073399613  TIP3      2250            0.0000000000
     56581      2650  TIP3      H1             39.5461119131      -20.1788091435       37.8737895434  TIP3      2250            0.0000000000
     56582      2650  TIP3      H2             38.5228919267      -20.7986709450       36.9313523571  TIP3      2250            0.0000000000
     56583      2651  TIP3      OH2            43.5999865292      -21.0464580718       38.7473570044  TIP3      2251            0.0000000000
     56584      2651  TIP3      H1             44.3788713839      -21.5227849198       39.0658233323  TIP3      2251            0.0000000000
     56585      2651  TIP3      H2             43.5884926748      -21.2954002959       37.7971884586  TIP3      2251            0.0000000000
     56586      2652  TIP3      OH2            47.6844920192      -21.5280787579       20.1242944996  TIP3      2252            0.0000000000
     56587      2652  TIP3      H1             47.0192738281      -22.1849228657       20.4005557372  TIP3      2252            0.0000000000
     56588      2652  TIP3      H2             48.4059087228      -22.0812883725       19.8383869693  TIP3      2252            0.0000000000
     56589      2653  TIP3      OH2            50.1412649559      -22.6443860248       37.4542508632  TIP3      2253            0.0000000000
     56590      2653  TIP3      H1             49.8241609793      -23.5349840529       37.7145698481  TIP3      2253            0.0000000000
     56591      2653  TIP3      H2             50.9037437671      -22.5306638284       38.0569943444  TIP3      2253            0.0000000000
     56592      2654  TIP3      OH2            38.8891940751      -26.1697037859       38.0885698103  TIP3      2254            0.0000000000
     56593      2654  TIP3      H1             39.0457068942      -27.0809683623       37.7766895948  TIP3      2254            0.0000000000
     56594      2654  TIP3      H2             38.1274950590      -25.8924600514       37.5533917253  TIP3      2254            0.0000000000
     56595      2655  TIP3      OH2            45.5742788482      -26.1895215137       37.4927830854  TIP3      2255            0.0000000000
     56596      2655  TIP3      H1             45.2311800333      -25.9045522182       36.6277589926  TIP3      2255            0.0000000000
     56597      2655  TIP3      H2             45.6921672122      -27.1599288263       37.3975306257  TIP3      2255            0.0000000000
     56598      2656  TIP3      OH2            51.2797345209      -26.3145946815       34.8836480618  TIP3      2256            0.0000000000
     56599      2656  TIP3      H1             52.0487661364      -25.7062671720       34.7859384489  TIP3      2256            0.0000000000
     56600      2656  TIP3      H2             50.5518613951      -25.6799571125       34.9340861716  TIP3      2256            0.0000000000
     56601      2657  TIP3      OH2            39.7433361037      -28.9540635079       37.4839495936  TIP3      2257            0.0000000000
     56602      2657  TIP3      H1             40.1626797231      -29.8178042488       37.3818968115  TIP3      2257            0.0000000000
     56603      2657  TIP3      H2             39.5038871249      -28.9477782196       38.4287334987  TIP3      2257            0.0000000000
     56604      2658  TIP3      OH2            44.4236176468      -27.8465285405       22.5246925362  TIP3      2258            0.0000000000
     56605      2658  TIP3      H1             43.9193357931      -28.3250376853       23.1945579316  TIP3      2258            0.0000000000
     56606      2658  TIP3      H2             44.6588786544      -28.5005911219       21.8698198295  TIP3      2258            0.0000000000
     56607      2659  TIP3      OH2            43.6843087546      -29.9809965954       34.8611215056  TIP3      2259            0.0000000000
     56608      2659  TIP3      H1             43.0696500257      -29.2763134019       35.1287141740  TIP3      2259            0.0000000000
     56609      2659  TIP3      H2             44.0448724472      -29.6300615556       34.0290033595  TIP3      2259            0.0000000000
     56610      2660  TIP3      OH2            48.7204816603      -27.4614428232       38.1733169258  TIP3      2260            0.0000000000
     56611      2660  TIP3      H1             49.6815591052      -27.4211572448       38.1000396354  TIP3      2260            0.0000000000
     56612      2660  TIP3      H2             48.5584263930      -28.2054185637       38.7714917055  TIP3      2260            0.0000000000
     56613      2661  TIP3      OH2            54.8699235330      -27.2637286352       20.2073491672  TIP3      2261            0.0000000000
     56614      2661  TIP3      H1             54.5808990335      -27.6470478111       19.3761574783  TIP3      2261            0.0000000000
     56615      2661  TIP3      H2             54.8827046593      -26.3135215044       19.9874506076  TIP3      2261            0.0000000000
     56616      2662  TIP3      OH2            44.0545636035      -32.6086258129       35.9324858375  TIP3      2262            0.0000000000
     56617      2662  TIP3      H1             44.1838789983      -33.3375452226       35.3045464146  TIP3      2262            0.0000000000
     56618      2662  TIP3      H2             44.0319207065      -31.8122272990       35.3669231294  TIP3      2262            0.0000000000
     56619      2663  TIP3      OH2            44.4614516976      -34.2384803051       33.4545012372  TIP3      2263            0.0000000000
     56620      2663  TIP3      H1             44.9858413725      -33.7763968716       32.7611736436  TIP3      2263            0.0000000000
     56621      2663  TIP3      H2             43.5804630877      -34.3322684190       33.0234523338  TIP3      2263            0.0000000000
     56622      2664  TIP3      OH2            46.0220940559      -28.7843008065       33.6928531446  TIP3      2264            0.0000000000
     56623      2664  TIP3      H1             46.7751839040      -28.9390430588       33.1104766558  TIP3      2264            0.0000000000
     56624      2664  TIP3      H2             45.6745506047      -27.9307992481       33.3873503339  TIP3      2264            0.0000000000
     56625      2665  TIP3      OH2            50.4275971053      -30.9855631164       38.7090516998  TIP3      2265            0.0000000000
     56626      2665  TIP3      H1             50.6345504068      -31.9248123479       38.5915503901  TIP3      2265            0.0000000000
     56627      2665  TIP3      H2             51.2977107842      -30.5622630296       38.6754537117  TIP3      2265            0.0000000000
     56628      2666  TIP3      OH2            51.7514322300      -28.2023585980       36.8198825195  TIP3      2266            0.0000000000
     56629      2666  TIP3      H1             51.4903044173      -27.4807929448       36.1998214770  TIP3      2266            0.0000000000
     56630      2666  TIP3      H2             52.7122052911      -28.2477518696       36.6205461300  TIP3      2266            0.0000000000
     56631      2667  TIP3      OH2            42.5253885921      -31.3828041210       37.8611706625  TIP3      2267            0.0000000000
     56632      2667  TIP3      H1             41.7494584514      -31.9435828478       37.6412830776  TIP3      2267            0.0000000000
     56633      2667  TIP3      H2             43.1858850662      -31.7258015297       37.2283903511  TIP3      2267            0.0000000000
     56634      2668  TIP3      OH2            45.2610374853      -36.7982225637       33.8751909660  TIP3      2268            0.0000000000
     56635      2668  TIP3      H1             45.1242235109      -35.8286997317       33.7584564859  TIP3      2268            0.0000000000
     56636      2668  TIP3      H2             44.5043288702      -37.1528393241       33.3729942786  TIP3      2268            0.0000000000
     56637      2669  TIP3      OH2            46.5300720305      -32.4692057119       37.4495310546  TIP3      2269            0.0000000000
     56638      2669  TIP3      H1             46.2509158348      -32.6860887756       38.3570197993  TIP3      2269            0.0000000000
     56639      2669  TIP3      H2             45.7319239925      -32.6648650044       36.9203914447  TIP3      2269            0.0000000000
     56640      2670  TIP3      OH2            49.2447678436      -33.3339897007       36.5147874924  TIP3      2270            0.0000000000
     56641      2670  TIP3      H1             48.2815824020      -33.2905573571       36.6541429214  TIP3      2270            0.0000000000
     56642      2670  TIP3      H2             49.5338081327      -33.9623298482       37.1956225696  TIP3      2270            0.0000000000
     56643      2671  TIP3      OH2            50.8604092439      -34.6983025952       38.4904649312  TIP3      2271            0.0000000000
     56644      2671  TIP3      H1             50.7714149416      -35.6680489173       38.5012290568  TIP3      2271            0.0000000000
     56645      2671  TIP3      H2             50.5533313092      -34.4174463367       39.3831085831  TIP3      2271            0.0000000000
     56646      2672  TIP3      OH2            40.6596709431      -33.4554426483       37.5637760050  TIP3      2272            0.0000000000
     56647      2672  TIP3      H1             40.8901256013      -34.1883874045       36.9603932478  TIP3      2272            0.0000000000
     56648      2672  TIP3      H2             40.5643269708      -33.9097620911       38.4250967089  TIP3      2272            0.0000000000
     56649      2673  TIP3      OH2            45.4687286891      -37.4513739021       36.5538017047  TIP3      2273            0.0000000000
     56650      2673  TIP3      H1             46.1801931769      -38.1265216499       36.5193600374  TIP3      2273            0.0000000000
     56651      2673  TIP3      H2             45.3726949510      -37.2365067301       35.6071087424  TIP3      2273            0.0000000000
     56652      2674  TIP3      OH2            45.8296682146      -35.8069112206       38.6292119047  TIP3      2274            0.0000000000
     56653      2674  TIP3      H1             45.6840989433      -36.2955010074       37.7802427358  TIP3      2274            0.0000000000
     56654      2674  TIP3      H2             45.2324564504      -35.0415974926       38.5357981391  TIP3      2274            0.0000000000
     56655      2675  TIP3      OH2            45.3110754089      -18.9603231360       21.8253208954  TIP3      2275            0.0000000000
     56656      2675  TIP3      H1             46.2604017580      -18.7790374515       21.9155510753  TIP3      2275            0.0000000000
     56657      2675  TIP3      H2             45.0740855766      -18.2800898958       21.1594487478  TIP3      2275            0.0000000000
     56658      2676  TIP3      OH2            37.6309739213      -18.8978411789       26.3074328357  TIP3      2276            0.0000000000
     56659      2676  TIP3      H1             36.9344308642      -19.3694989908       25.7923037929  TIP3      2276            0.0000000000
     56660      2676  TIP3      H2             37.9222007443      -19.5798506081       26.9199583215  TIP3      2276            0.0000000000
     56661      2677  TIP3      OH2            38.5291033321      -20.7993730015       28.1454106297  TIP3      2277            0.0000000000
     56662      2677  TIP3      H1             38.1091734467      -21.6750633064       28.3079412896  TIP3      2277            0.0000000000
     56663      2677  TIP3      H2             38.6212703670      -20.4709276790       29.0417163884  TIP3      2277            0.0000000000
     56664      2678  TIP3      OH2            55.9640401677      -20.0011367218       31.1098872779  TIP3      2278            0.0000000000
     56665      2678  TIP3      H1             55.9964641445      -19.8178787507       32.0567291600  TIP3      2278            0.0000000000
     56666      2678  TIP3      H2             56.6961276083      -19.4465752817       30.7816881482  TIP3      2278            0.0000000000
     56667      2679  TIP3      OH2            55.5886177127      -20.4027877436       34.0407014528  TIP3      2279            0.0000000000
     56668      2679  TIP3      H1             55.0866027902      -21.1688191178       33.6538946648  TIP3      2279            0.0000000000
     56669      2679  TIP3      H2             56.1113249818      -20.8431249430       34.7153554546  TIP3      2279            0.0000000000
     56670      2680  TIP3      OH2            54.0182835165      -24.6713805387       38.6799655987  TIP3      2280            0.0000000000
     56671      2680  TIP3      H1             53.1339195094      -24.7256232941       39.0770035593  TIP3      2280            0.0000000000
     56672      2680  TIP3      H2             54.3945664844      -23.8744765473       39.1253441603  TIP3      2280            0.0000000000
     56673      2681  TIP3      OH2            55.2969710645      -26.3846091228       24.1512988657  TIP3      2281            0.0000000000
     56674      2681  TIP3      H1             56.1679354178      -25.9618071540       24.3192831533  TIP3      2281            0.0000000000
     56675      2681  TIP3      H2             55.3390004501      -27.1056255720       24.8078055672  TIP3      2281            0.0000000000
     56676      2682  TIP3      OH2            55.7037538272      -28.2847457110       25.9991637349  TIP3      2282            0.0000000000
     56677      2682  TIP3      H1             54.9703082673      -28.7883464449       26.4116561158  TIP3      2282            0.0000000000
     56678      2682  TIP3      H2             56.3018149932      -28.1180870447       26.7656126343  TIP3      2282            0.0000000000
     56679      2683  TIP3      OH2            55.4695699406      -25.5708769063       30.9953875985  TIP3      2283            0.0000000000
     56680      2683  TIP3      H1             56.3096604656      -25.9380480106       30.6625179921  TIP3      2283            0.0000000000
     56681      2683  TIP3      H2             55.5914406698      -24.6071336429       30.8246967822  TIP3      2283            0.0000000000
     56682      2684  TIP3      OH2            53.9847656788      -22.6907454450       33.2783558444  TIP3      2284            0.0000000000
     56683      2684  TIP3      H1             53.3180690452      -22.3393719037       33.8890253285  TIP3      2284            0.0000000000
     56684      2684  TIP3      H2             53.4411675473      -23.1066256911       32.5800475193  TIP3      2284            0.0000000000
     56685      2685  TIP3      OH2            53.5201125118      -29.8080788405       26.5631363501  TIP3      2285            0.0000000000
     56686      2685  TIP3      H1             53.3474100043      -30.7595888881       26.5612241561  TIP3      2285            0.0000000000
     56687      2685  TIP3      H2             53.1574181691      -29.5437647754       27.4332243394  TIP3      2285            0.0000000000
     56688      2686  TIP3      OH2            38.5240452551      -27.7204526645       30.6147775518  TIP3      2286            0.0000000000
     56689      2686  TIP3      H1             38.7222560345      -27.8064859705       29.6558428905  TIP3      2286            0.0000000000
     56690      2686  TIP3      H2             39.4084331036      -27.8697882944       31.0003201202  TIP3      2286            0.0000000000
     56691      2687  TIP3      OH2            54.3509596412      -27.8348770070       36.2490949504  TIP3      2287            0.0000000000
     56692      2687  TIP3      H1             54.9644471641      -28.5801449323       36.4051574784  TIP3      2287            0.0000000000
     56693      2687  TIP3      H2             54.9425605726      -27.0564783278       36.2554397249  TIP3      2287            0.0000000000
     56694      2688  TIP3      OH2            55.8529518843      -29.9255237260       36.8976293999  TIP3      2288            0.0000000000
     56695      2688  TIP3      H1             54.9806478424      -30.3348501107       36.7372026116  TIP3      2288            0.0000000000
     56696      2688  TIP3      H2             56.4439294658      -30.7011337126       36.8293540461  TIP3      2288            0.0000000000
     56697      2689  TIP3      OH2            53.2020272888      -32.2203957369       25.0164375727  TIP3      2289            0.0000000000
     56698      2689  TIP3      H1             53.4881232215      -33.1543237905       25.1724120833  TIP3      2289            0.0000000000
     56699      2689  TIP3      H2             53.9837304604      -31.8015713712       24.6743970241  TIP3      2289            0.0000000000
     56700      2690  TIP3      OH2            53.7734300535      -31.6679698153       30.4642688729  TIP3      2290            0.0000000000
     56701      2690  TIP3      H1             54.7477625375      -31.4437984706       30.4537017712  TIP3      2290            0.0000000000
     56702      2690  TIP3      H2             53.5993033719      -31.5356248840       31.4088057962  TIP3      2290            0.0000000000
     56703      2691  TIP3      OH2            53.8700952494      -30.9376717704       33.2509759591  TIP3      2291            0.0000000000
     56704      2691  TIP3      H1             53.0061607920      -30.6361789738       33.6011030801  TIP3      2291            0.0000000000
     56705      2691  TIP3      H2             54.3121674857      -30.0814735128       33.0395117065  TIP3      2291            0.0000000000
     56706      2692  TIP3      OH2            38.1300623306      -32.4315155668       36.7485592713  TIP3      2292            0.0000000000
     56707      2692  TIP3      H1             39.0683931127      -32.5989921985       36.9692778198  TIP3      2292            0.0000000000
     56708      2692  TIP3      H2             37.6873564403      -33.2308572497       37.1042321953  TIP3      2292            0.0000000000
     56709      2693  TIP3      OH2            53.8234536018      -34.9246810922       25.0783881617  TIP3      2293            0.0000000000
     56710      2693  TIP3      H1             54.0222123468      -35.3967201791       25.9155478126  TIP3      2293            0.0000000000
     56711      2693  TIP3      H2             53.2278162688      -35.5669937245       24.6291827208  TIP3      2293            0.0000000000
     56712      2694  TIP3      OH2            39.3418863997      -34.1362159900       29.6221250184  TIP3      2294            0.0000000000
     56713      2694  TIP3      H1             39.8065942839      -34.9464015065       29.9150035138  TIP3      2294            0.0000000000
     56714      2694  TIP3      H2             39.8480178642      -33.4283011845       30.0435283181  TIP3      2294            0.0000000000
     56715      2695  TIP3      OH2            37.6330979793      -31.1475384424       30.6894242849  TIP3      2295            0.0000000000
     56716      2695  TIP3      H1             38.1750795812      -31.3662661334       29.9019137641  TIP3      2295            0.0000000000
     56717      2695  TIP3      H2             38.0521574860      -30.3142628252       30.9557706770  TIP3      2295            0.0000000000
     56718      2696  TIP3      OH2            55.6725275234      -34.8192588760       36.9805604237  TIP3      2296            0.0000000000
     56719      2696  TIP3      H1             54.7366317299      -34.5448000469       36.9131756154  TIP3      2296            0.0000000000
     56720      2696  TIP3      H2             55.7585756032      -35.3623184197       36.1795238535  TIP3      2296            0.0000000000
     56721      2697  TIP3      OH2            55.6670957072      -34.8916122284       21.6059389352  TIP3      2297            0.0000000000
     56722      2697  TIP3      H1             56.1047450980      -35.6170288098       21.1301911115  TIP3      2297            0.0000000000
     56723      2697  TIP3      H2             56.3810206909      -34.2452035161       21.6699874567  TIP3      2297            0.0000000000
     56724      2698  TIP3      OH2            37.9819529541      -34.8725964929       24.7482765861  TIP3      2298            0.0000000000
     56725      2698  TIP3      H1             37.0409147877      -34.6768580695       24.6105342666  TIP3      2298            0.0000000000
     56726      2698  TIP3      H2             38.4157658946      -34.3983278154       24.0476136509  TIP3      2298            0.0000000000
     56727      2699  TIP3      OH2            52.7256667028      -19.9083951569       26.7091747663  TIP3      2299            0.0000000000
     56728      2699  TIP3      H1             53.3941399773      -20.2400137013       26.0766511833  TIP3      2299            0.0000000000
     56729      2699  TIP3      H2             53.2756558326      -19.4168065450       27.3348068589  TIP3      2299            0.0000000000
     56730      2700  TIP3      OH2            37.9474340140      -36.1758435361       33.0712654650  TIP3      2300            0.0000000000
     56731      2700  TIP3      H1             37.2675101000      -36.3974565979       33.7306462718  TIP3      2300            0.0000000000
     56732      2700  TIP3      H2             37.4843152516      -35.5234827971       32.5045428465  TIP3      2300            0.0000000000
     56733      2701  TIP3      OH2            40.1548066157      -22.9899620786       37.2260592832  TIP3      2301            0.0000000000
     56734      2701  TIP3      H1             39.3137508857      -22.7961438249       36.7796922035  TIP3      2301            0.0000000000
     56735      2701  TIP3      H2             39.8846645908      -23.0550405980       38.1503427897  TIP3      2301            0.0000000000
     56736      2702  TIP3      OH2            43.0654536494      -22.0165106350       33.4819445507  TIP3      2302            0.0000000000
     56737      2702  TIP3      H1             42.6968667237      -21.1685619907       33.2147094439  TIP3      2302            0.0000000000
     56738      2702  TIP3      H2             43.9924602889      -21.9162277212       33.1887097790  TIP3      2302            0.0000000000
     56739      2703  TIP3      OH2            47.3937038480      -20.5745344712       36.4109629223  TIP3      2303            0.0000000000
     56740      2703  TIP3      H1             47.5587894727      -20.9437978039       37.3244597522  TIP3      2303            0.0000000000
     56741      2703  TIP3      H2             48.2846111144      -20.3098483780       36.1535298138  TIP3      2303            0.0000000000
     56742      2704  TIP3      OH2            49.7218839325      -19.3318632843       35.6816709969  TIP3      2304            0.0000000000
     56743      2704  TIP3      H1             50.4401459601      -19.9637904563       35.4708449683  TIP3      2304            0.0000000000
     56744      2704  TIP3      H2             50.0850889247      -18.9516495379       36.5242236011  TIP3      2304            0.0000000000
     56745      2705  TIP3      OH2            54.6558807857      -36.7102450210       34.8164935803  TIP3      2305            0.0000000000
     56746      2705  TIP3      H1             53.8414847853      -36.4053342049       34.3810770149  TIP3      2305            0.0000000000
     56747      2705  TIP3      H2             54.8730397178      -37.4993463624       34.2642096818  TIP3      2305            0.0000000000
     56748      2706  TIP3      OH2            40.4974002872      -18.7647153568       33.5022490678  TIP3      2306            0.0000000000
     56749      2706  TIP3      H1             39.7600487935      -18.2837867652       33.0973012323  TIP3      2306            0.0000000000
     56750      2706  TIP3      H2             40.1497781399      -18.9810709083       34.3864860244  TIP3      2306            0.0000000000
     56751      2707  TIP3      OH2            42.9610436203      -19.1885180928       32.5474122805  TIP3      2307            0.0000000000
     56752      2707  TIP3      H1             42.0859807504      -19.0540509201       32.9806562377  TIP3      2307            0.0000000000
     56753      2707  TIP3      H2             42.9061702014      -18.5807471211       31.7882035819  TIP3      2307            0.0000000000
     56754      2708  TIP3      OH2            47.6763667880      -19.2693850990       31.7171589159  TIP3      2308            0.0000000000
     56755      2708  TIP3      H1             47.1787935203      -18.7051239312       31.0863699166  TIP3      2308            0.0000000000
     56756      2708  TIP3      H2             47.7880689578      -18.6305710518       32.4632847028  TIP3      2308            0.0000000000
     56757      2709  TIP3      OH2            49.9784255559      -20.4139258320       32.6817916336  TIP3      2309            0.0000000000
     56758      2709  TIP3      H1             49.0805865498      -20.1712459200       32.4725656294  TIP3      2309            0.0000000000
     56759      2709  TIP3      H2             50.4476053411      -19.5571458584       32.6382815437  TIP3      2309            0.0000000000
     56760      2710  TIP3      OH2            52.5339616288      -18.8504208388       32.9843992732  TIP3      2310            0.0000000000
     56761      2710  TIP3      H1             52.4600587091      -17.8927056313       32.7500161067  TIP3      2310            0.0000000000
     56762      2710  TIP3      H2             52.7881387239      -19.2359658018       32.1217943539  TIP3      2310            0.0000000000
     56763      2711  TIP3      OH2            39.8144001030      -20.1645291185       30.6246710992  TIP3      2311            0.0000000000
     56764      2711  TIP3      H1             39.8491133052      -20.6379884652       31.4839761266  TIP3      2311            0.0000000000
     56765      2711  TIP3      H2             40.6150473711      -20.5409554887       30.2655961865  TIP3      2311            0.0000000000
     56766      2712  TIP3      OH2            42.0536059738      -21.4375599079       29.0916228860  TIP3      2312            0.0000000000
     56767      2712  TIP3      H1             41.8609561051      -22.3764244811       29.2952467170  TIP3      2312            0.0000000000
     56768      2712  TIP3      H2             42.9126339879      -21.3009583326       29.5665996988  TIP3      2312            0.0000000000
     56769      2713  TIP3      OH2            44.5936760027      -20.9289511147       29.9452910080  TIP3      2313            0.0000000000
     56770      2713  TIP3      H1             44.7917518831      -21.8471870473       29.6746570254  TIP3      2313            0.0000000000
     56771      2713  TIP3      H2             44.6535502129      -20.9918131908       30.9106633829  TIP3      2313            0.0000000000
     56772      2714  TIP3      OH2            48.0904878538      -35.2717984934       29.0973812894  TIP3      2314            0.0000000000
     56773      2714  TIP3      H1             47.4139624700      -35.9176050416       29.3575792772  TIP3      2314            0.0000000000
     56774      2714  TIP3      H2             48.6479558516      -35.7839762009       28.4992484525  TIP3      2314            0.0000000000
     56775      2715  TIP3      OH2            53.2345105763      -37.2023661826       29.2023376093  TIP3      2315            0.0000000000
     56776      2715  TIP3      H1             53.8420657326      -36.6178141135       28.6796527827  TIP3      2315            0.0000000000
     56777      2715  TIP3      H2             52.3540613272      -36.8570286144       28.9557942482  TIP3      2315            0.0000000000
     56778      2716  TIP3      OH2            54.9030597502      -35.9998662692       27.5207095528  TIP3      2316            0.0000000000
     56779      2716  TIP3      H1             55.5652272258      -36.5398656587       27.0169555045  TIP3      2316            0.0000000000
     56780      2716  TIP3      H2             55.3561753651      -35.1345943434       27.5660587350  TIP3      2316            0.0000000000
     56781      2717  TIP3      OH2            40.4355793251      -36.6311968118       26.9342039085  TIP3      2317            0.0000000000
     56782      2717  TIP3      H1             39.6467495881      -36.8748687299       26.4138362812  TIP3      2317            0.0000000000
     56783      2717  TIP3      H2             40.9372733928      -37.4685381084       26.9001922981  TIP3      2317            0.0000000000
     56784      2718  TIP3      OH2            39.2651740459      -36.8663975609       22.7247063023  TIP3      2318            0.0000000000
     56785      2718  TIP3      H1             39.6944285228      -36.2529221126       22.1237702730  TIP3      2318            0.0000000000
     56786      2718  TIP3      H2             38.6224644323      -36.3235894594       23.1985642907  TIP3      2318            0.0000000000
     56787      2719  TIP3      OH2            44.9655994754      -36.7258514401       26.7289381728  TIP3      2319            0.0000000000
     56788      2719  TIP3      H1             45.8613793595      -36.3399602186       26.6857022774  TIP3      2319            0.0000000000
     56789      2719  TIP3      H2             44.8788568700      -36.9322940069       27.6597734226  TIP3      2319            0.0000000000
     56790      2720  TIP3      OH2            50.5985676571      -36.6897671994       28.3715051469  TIP3      2320            0.0000000000
     56791      2720  TIP3      H1             50.6259893536      -36.5984756965       27.4138001571  TIP3      2320            0.0000000000
     56792      2720  TIP3      H2             50.2638634634      -37.6089279847       28.5007828098  TIP3      2320            0.0000000000
     56793      2721  TIP3      OH2            51.9178452885      -36.6550777599       24.0542984981  TIP3      2321            0.0000000000
     56794      2721  TIP3      H1             51.1879363129      -36.0580987818       23.8699115373  TIP3      2321            0.0000000000
     56795      2721  TIP3      H2             51.4594932738      -37.5130171272       24.2083439777  TIP3      2321            0.0000000000
     56796      2722  TIP3      OH2            39.1469136111      -20.9157485389       23.6690988749  TIP3      2322            0.0000000000
     56797      2722  TIP3      H1             38.4870942215      -20.9399393504       22.9588651581  TIP3      2322            0.0000000000
     56798      2722  TIP3      H2             39.1593433806      -19.9694664624       23.8638269366  TIP3      2322            0.0000000000
     56799      2723  TIP3      OH2            46.1064935357      -34.6608111112       23.5915205096  TIP3      2323            0.0000000000
     56800      2723  TIP3      H1             46.3238187903      -35.2820750540       24.3060719456  TIP3      2323            0.0000000000
     56801      2723  TIP3      H2             46.1159437055      -33.8195757677       24.0878863953  TIP3      2323            0.0000000000
     56802      2724  TIP3      OH2            48.0415890510      -19.6674563521       22.0123009291  TIP3      2324            0.0000000000
     56803      2724  TIP3      H1             48.9132911037      -19.3364619075       21.8421059879  TIP3      2324            0.0000000000
     56804      2724  TIP3      H2             47.7627908265      -20.1471390794       21.1976061782  TIP3      2324            0.0000000000
     56805      2725  TIP3      OH2            54.6865901934      -20.1280710858       24.7134764686  TIP3      2325            0.0000000000
     56806      2725  TIP3      H1             54.5285998592      -20.9007349484       24.1249029959  TIP3      2325            0.0000000000
     56807      2725  TIP3      H2             54.6770939283      -19.3782811368       24.0864475899  TIP3      2325            0.0000000000
     56808      2726  TIP3      OH2            40.3516404499      -36.1122930906       36.4087159696  TIP3      2326            0.0000000000
     56809      2726  TIP3      H1             39.9953576083      -36.9036739725       36.8565162456  TIP3      2326            0.0000000000
     56810      2726  TIP3      H2             41.2813023628      -36.1229238703       36.7454630354  TIP3      2326            0.0000000000
     56811      2727  TIP3      OH2            42.3530645804      -36.7376565466       38.0009098734  TIP3      2327            0.0000000000
     56812      2727  TIP3      H1             43.2491963928      -37.0692774978       37.7876626044  TIP3      2327            0.0000000000
     56813      2727  TIP3      H2             41.9704065515      -37.5276575403       38.4377138647  TIP3      2327            0.0000000000
     56814      2728  TIP3      OH2            50.7539499131      -37.4336697878       38.1642178766  TIP3      2328            0.0000000000
     56815      2728  TIP3      H1             50.8524805767      -37.8934188203       39.0192693484  TIP3      2328            0.0000000000
     56816      2728  TIP3      H2             51.6694086212      -37.4504650182       37.8203159399  TIP3      2328            0.0000000000
     56817      2729  TIP3      OH2            53.9825952609      -21.3744884102       36.8396518396  TIP3      2329            0.0000000000
     56818      2729  TIP3      H1             53.1721055521      -21.5610668493       36.3138116726  TIP3      2329            0.0000000000
     56819      2729  TIP3      H2             53.8518652229      -20.4361027513       37.0496445950  TIP3      2329            0.0000000000
     56820      2730  TIP3      OH2           -44.7476470336       -8.6445123228       26.8583124470  TIP3      2330            0.0000000000
     56821      2730  TIP3      H1            -44.7203711276       -7.6731935027       26.7422058213  TIP3      2330            0.0000000000
     56822      2730  TIP3      H2            -45.4337240762       -8.8991946354       26.2168010522  TIP3      2330            0.0000000000
     56823      2731  TIP3      OH2           -45.8444736642       -9.3792498981       30.3052030238  TIP3      2331            0.0000000000
     56824      2731  TIP3      H1            -45.9005676503      -10.0381628364       31.0058924038  TIP3      2331            0.0000000000
     56825      2731  TIP3      H2            -46.1953697574       -9.8646147500       29.5339444873  TIP3      2331            0.0000000000
     56826      2732  TIP3      OH2           -53.5190041213       -9.7323317995       31.8755105858  TIP3      2332            0.0000000000
     56827      2732  TIP3      H1            -53.4222754879      -10.4039458860       32.5877257806  TIP3      2332            0.0000000000
     56828      2732  TIP3      H2            -52.7678116388       -9.1504930095       32.0678926411  TIP3      2332            0.0000000000
     56829      2733  TIP3      OH2           -42.1138152848       -6.4696884988       28.6259929450  TIP3      2333            0.0000000000
     56830      2733  TIP3      H1            -42.6424098358       -7.1511174485       29.0331895426  TIP3      2333            0.0000000000
     56831      2733  TIP3      H2            -42.1810403858       -5.6992378570       29.2252456966  TIP3      2333            0.0000000000
     56832      2734  TIP3      OH2           -52.5834258260       -5.2847439036       30.4030273120  TIP3      2334            0.0000000000
     56833      2734  TIP3      H1            -52.9167280357       -6.1285856022       30.0466290660  TIP3      2334            0.0000000000
     56834      2734  TIP3      H2            -51.6289645841       -5.4785295944       30.4434299516  TIP3      2334            0.0000000000
     56835      2735  TIP3      OH2           -55.9198080313      -11.7087062434       25.8082823051  TIP3      2335            0.0000000000
     56836      2735  TIP3      H1            -56.3654788680      -10.8143595468       25.7928793366  TIP3      2335            0.0000000000
     56837      2735  TIP3      H2            -56.5517806735      -12.1954704715       25.2635644798  TIP3      2335            0.0000000000
     56838      2736  TIP3      OH2           -55.2460917020       -9.5012367349       27.9447279247  TIP3      2336            0.0000000000
     56839      2736  TIP3      H1            -55.0009390358      -10.2803037763       28.4668929823  TIP3      2336            0.0000000000
     56840      2736  TIP3      H2            -54.5010556505       -9.3862236391       27.3341881670  TIP3      2336            0.0000000000
     56841      2737  TIP3      OH2           -45.0558866894       -1.3047134017       28.8140302058  TIP3      2337            0.0000000000
     56842      2737  TIP3      H1            -44.4130598422       -2.0078983124       28.5361613317  TIP3      2337            0.0000000000
     56843      2737  TIP3      H2            -45.2515389039       -1.5825608393       29.7080147021  TIP3      2337            0.0000000000
     56844      2738  TIP3      OH2           -47.4920850999       -6.9606378922       30.7268825434  TIP3      2338            0.0000000000
     56845      2738  TIP3      H1            -47.1583161528       -7.6288666744       30.1074302746  TIP3      2338            0.0000000000
     56846      2738  TIP3      H2            -46.7238913451       -6.8310635828       31.3063484611  TIP3      2338            0.0000000000
     56847      2739  TIP3      OH2           -38.8468939478      -15.3529345443       31.5331816602  TIP3      2339            0.0000000000
     56848      2739  TIP3      H1            -38.7353647268      -14.7341864892       32.2863178502  TIP3      2339            0.0000000000
     56849      2739  TIP3      H2            -38.3525780283      -14.8918426776       30.8389486782  TIP3      2339            0.0000000000
     56850      2740  TIP3      OH2           -44.3157044045      -12.5188325057       31.0606551005  TIP3      2340            0.0000000000
     56851      2740  TIP3      H1            -44.1770837535      -13.4887424119       31.0570761252  TIP3      2340            0.0000000000
     56852      2740  TIP3      H2            -44.4365652631      -12.3715569932       30.1002820618  TIP3      2340            0.0000000000
     56853      2741  TIP3      OH2           -51.2034106025      -14.4416783801       28.3125039024  TIP3      2341            0.0000000000
     56854      2741  TIP3      H1            -51.1078137538      -13.5906424812       27.8535043264  TIP3      2341            0.0000000000
     56855      2741  TIP3      H2            -51.6123051284      -15.0149652786       27.6366643456  TIP3      2341            0.0000000000
     56856      2742  TIP3      OH2           -43.4703488692      -14.3368566324       26.6850571809  TIP3      2342            0.0000000000
     56857      2742  TIP3      H1            -42.7997217761      -14.6571884056       27.3343239533  TIP3      2342            0.0000000000
     56858      2742  TIP3      H2            -42.9222661518      -13.7945977820       26.0994703883  TIP3      2342            0.0000000000
     56859      2743  TIP3      OH2           -54.5878944404      -12.0548393383       29.0429274339  TIP3      2343            0.0000000000
     56860      2743  TIP3      H1            -53.8933902099      -12.5874648460       29.5015934288  TIP3      2343            0.0000000000
     56861      2743  TIP3      H2            -54.4766810935      -12.3246019476       28.1400732576  TIP3      2343            0.0000000000
     56862      2744  TIP3      OH2           -49.4105789458      -10.4813427791       28.3102077329  TIP3      2344            0.0000000000
     56863      2744  TIP3      H1            -48.7697833894      -11.0469673732       28.7722977861  TIP3      2344            0.0000000000
     56864      2744  TIP3      H2            -49.9684193237      -11.1502507973       27.8623184622  TIP3      2344            0.0000000000
     56865      2745  TIP3      OH2           -38.4216372615      -13.8961328965       33.7799024905  TIP3      2345            0.0000000000
     56866      2745  TIP3      H1            -39.0896240555      -13.1856074128       33.6924345027  TIP3      2345            0.0000000000
     56867      2745  TIP3      H2            -38.4031384952      -14.0470330278       34.7341522700  TIP3      2345            0.0000000000
     56868      2746  TIP3      OH2           -52.3321693704      -15.5408813612       32.3605704398  TIP3      2346            0.0000000000
     56869      2746  TIP3      H1            -52.5851598934      -14.9850951358       31.5995724654  TIP3      2346            0.0000000000
     56870      2746  TIP3      H2            -53.0193185563      -15.2983325973       33.0290223292  TIP3      2346            0.0000000000
     56871      2747  TIP3      OH2           -44.9956715160       -6.0508845808       25.9162663794  TIP3      2347            0.0000000000
     56872      2747  TIP3      H1            -45.2889253672       -6.3401095016       25.0430721319  TIP3      2347            0.0000000000
     56873      2747  TIP3      H2            -45.3162357772       -5.1235275980       25.9524831997  TIP3      2347            0.0000000000
     56874      2748  TIP3      OH2           -49.7867565906       -7.8857850874       32.6306093615  TIP3      2348            0.0000000000
     56875      2748  TIP3      H1            -50.5230878049       -7.2525122657       32.7827912938  TIP3      2348            0.0000000000
     56876      2748  TIP3      H2            -49.0817855299       -7.2943236628       32.3271675860  TIP3      2348            0.0000000000
     56877      2749  TIP3      OH2           -41.6864094888      -15.0177416471       28.6721787999  TIP3      2349            0.0000000000
     56878      2749  TIP3      H1            -41.8916329665      -15.7892707494       29.2110494627  TIP3      2349            0.0000000000
     56879      2749  TIP3      H2            -41.0137848736      -14.5652540523       29.2082304013  TIP3      2349            0.0000000000
     56880      2750  TIP3      OH2           -52.7834809401      -13.6511027492       30.3262064302  TIP3      2350            0.0000000000
     56881      2750  TIP3      H1            -52.1358347188      -13.0073174158       30.7040906986  TIP3      2350            0.0000000000
     56882      2750  TIP3      H2            -52.2224039423      -14.1113199329       29.6575586549  TIP3      2350            0.0000000000
     56883      2751  TIP3      OH2           -51.3548867603       -5.9036952987       33.4227434307  TIP3      2351            0.0000000000
     56884      2751  TIP3      H1            -51.3922426887       -4.9953793839       33.0668937580  TIP3      2351            0.0000000000
     56885      2751  TIP3      H2            -52.2350839691       -5.9712974424       33.8647373075  TIP3      2351            0.0000000000
     56886      2752  TIP3      OH2           -55.2447214566       -6.2491380707       24.2062309727  TIP3      2352            0.0000000000
     56887      2752  TIP3      H1            -55.5189331777       -5.9646511834       23.3240914626  TIP3      2352            0.0000000000
     56888      2752  TIP3      H2            -55.1971774840       -5.3955678975       24.6933146412  TIP3      2352            0.0000000000
     56889      2753  TIP3      OH2           -41.6375598959       -4.6397680586       30.9450184219  TIP3      2353            0.0000000000
     56890      2753  TIP3      H1            -42.6037594371       -4.5092042397       31.0940895568  TIP3      2353            0.0000000000
     56891      2753  TIP3      H2            -41.3709957901       -3.6962734158       30.7871349310  TIP3      2353            0.0000000000
     56892      2754  TIP3      OH2           -41.3328791800      -16.3193704528       32.3576391883  TIP3      2354            0.0000000000
     56893      2754  TIP3      H1            -42.0680895216      -15.6962037857       32.2958964353  TIP3      2354            0.0000000000
     56894      2754  TIP3      H2            -40.6367807674      -15.8975323035       31.8234042747  TIP3      2354            0.0000000000
     56895      2755  TIP3      OH2           -48.3369247899      -18.2235947597       29.8198644271  TIP3      2355            0.0000000000
     56896      2755  TIP3      H1            -48.4814979547      -19.1778527790       29.7519193292  TIP3      2355            0.0000000000
     56897      2755  TIP3      H2            -49.2128988940      -17.8901008257       30.1029671538  TIP3      2355            0.0000000000
     56898      2756  TIP3      OH2           -43.3909358847       -2.8266964331       27.5738388096  TIP3      2356            0.0000000000
     56899      2756  TIP3      H1            -42.9586281046       -3.5317175239       27.0545134618  TIP3      2356            0.0000000000
     56900      2756  TIP3      H2            -43.0292444874       -2.0218626343       27.1452861113  TIP3      2356            0.0000000000
     56901      2757  TIP3      OH2           -42.1967255793       -4.9056449876       26.0711651070  TIP3      2357            0.0000000000
     56902      2757  TIP3      H1            -42.4875799967       -5.6044989266       25.4603351789  TIP3      2357            0.0000000000
     56903      2757  TIP3      H2            -42.1558132891       -5.3795113975       26.9135021230  TIP3      2357            0.0000000000
     56904      2758  TIP3      OH2           -40.5607019780       -6.3189598570       34.5611380915  TIP3      2358            0.0000000000
     56905      2758  TIP3      H1            -40.3923849583       -6.9550577687       33.8385967587  TIP3      2358            0.0000000000
     56906      2758  TIP3      H2            -40.3638838528       -5.4534588541       34.1734601017  TIP3      2358            0.0000000000
     56907      2759  TIP3      OH2           -46.0678815270       -9.4064694088       24.3224791451  TIP3      2359            0.0000000000
     56908      2759  TIP3      H1            -46.7757339792       -8.8420662091       23.9585632732  TIP3      2359            0.0000000000
     56909      2759  TIP3      H2            -45.3744181747       -9.3216274625       23.6461192882  TIP3      2359            0.0000000000
     56910      2760  TIP3      OH2           -45.9795952631      -10.9015590342       21.3424399238  TIP3      2360            0.0000000000
     56911      2760  TIP3      H1            -45.3052771529      -10.8989447322       22.0259229310  TIP3      2360            0.0000000000
     56912      2760  TIP3      H2            -45.7316617096      -11.5896681529       20.7187562234  TIP3      2360            0.0000000000
     56913      2761  TIP3      OH2           -38.6777578355      -10.0139881734       32.6099518401  TIP3      2361            0.0000000000
     56914      2761  TIP3      H1            -39.3385023311       -9.3046463224       32.7058686558  TIP3      2361            0.0000000000
     56915      2761  TIP3      H2            -38.2087718154       -9.7863698334       31.7917454617  TIP3      2361            0.0000000000
     56916      2762  TIP3      OH2           -42.6420188188       -9.1944598932       25.2479960204  TIP3      2362            0.0000000000
     56917      2762  TIP3      H1            -43.3902377121       -8.9556398967       25.8489667982  TIP3      2362            0.0000000000
     56918      2762  TIP3      H2            -42.1894194527       -9.8909639014       25.7527217364  TIP3      2362            0.0000000000
     56919      2763  TIP3      OH2           -42.7069325015      -11.0196838770       34.3396742345  TIP3      2363            0.0000000000
     56920      2763  TIP3      H1            -42.6928906746      -10.2348530489       34.9156765552  TIP3      2363            0.0000000000
     56921      2763  TIP3      H2            -43.3645284654      -10.7330599446       33.6694574373  TIP3      2363            0.0000000000
     56922      2764  TIP3      OH2           -51.0147653543       -8.5309224564       27.1639309258  TIP3      2364            0.0000000000
     56923      2764  TIP3      H1            -51.3446084822       -8.9301588976       26.3232977293  TIP3      2364            0.0000000000
     56924      2764  TIP3      H2            -50.4107815526       -9.2335487296       27.5004043759  TIP3      2364            0.0000000000
     56925      2765  TIP3      OH2           -49.6723634110       -5.1252602972       29.8424234805  TIP3      2365            0.0000000000
     56926      2765  TIP3      H1            -49.7231810169       -5.6968323963       29.0658993507  TIP3      2365            0.0000000000
     56927      2765  TIP3      H2            -48.9093210275       -5.5046869191       30.3157554480  TIP3      2365            0.0000000000
     56928      2766  TIP3      OH2           -50.6674023348       -9.7933220153       30.8028210918  TIP3      2366            0.0000000000
     56929      2766  TIP3      H1            -50.0960145948       -9.6705321982       30.0207120758  TIP3      2366            0.0000000000
     56930      2766  TIP3      H2            -50.3138380385       -9.1338874360       31.4329356970  TIP3      2366            0.0000000000
     56931      2767  TIP3      OH2           -44.2964398288       -4.2486828020       31.5165491734  TIP3      2367            0.0000000000
     56932      2767  TIP3      H1            -44.5800794451       -3.6029182923       32.1741309194  TIP3      2367            0.0000000000
     56933      2767  TIP3      H2            -44.5426015805       -5.0994547732       31.9590922057  TIP3      2367            0.0000000000
     56934      2768  TIP3      OH2           -49.7420132199       -5.3793128178       35.5146912797  TIP3      2368            0.0000000000
     56935      2768  TIP3      H1            -50.1047250180       -4.6040123584       35.9838561252  TIP3      2368            0.0000000000
     56936      2768  TIP3      H2            -50.4194163929       -5.5479563629       34.8152601905  TIP3      2368            0.0000000000
     56937      2769  TIP3      OH2           -43.7647230251      -10.0391781901       22.9370709958  TIP3      2369            0.0000000000
     56938      2769  TIP3      H1            -43.2089713709       -9.8396716400       23.7302937020  TIP3      2369            0.0000000000
     56939      2769  TIP3      H2            -43.3848348208       -9.4957594075       22.2393462267  TIP3      2369            0.0000000000
     56940      2770  TIP3      OH2           -52.8143984973       -9.1864810370       34.7013814256  TIP3      2370            0.0000000000
     56941      2770  TIP3      H1            -52.7681910304       -8.5315299829       35.4280095919  TIP3      2370            0.0000000000
     56942      2770  TIP3      H2            -53.7362262611       -9.0951314819       34.4275643786  TIP3      2370            0.0000000000
     56943      2771  TIP3      OH2           -46.0478615581       -3.2826072664       26.3832273751  TIP3      2371            0.0000000000
     56944      2771  TIP3      H1            -45.5925595347       -2.9795183886       27.1780071364  TIP3      2371            0.0000000000
     56945      2771  TIP3      H2            -46.6165057327       -2.5379462809       26.1584291521  TIP3      2371            0.0000000000
     56946      2772  TIP3      OH2           -51.5131183976       -3.3164503653       36.2737166580  TIP3      2372            0.0000000000
     56947      2772  TIP3      H1            -51.5264297727       -3.4409153795       35.3101493848  TIP3      2372            0.0000000000
     56948      2772  TIP3      H2            -52.4487269039       -3.4383529059       36.5230139276  TIP3      2372            0.0000000000
     56949      2773  TIP3      OH2           -40.0603258865      -18.2824703242       22.8303879870  TIP3      2373            0.0000000000
     56950      2773  TIP3      H1            -40.9981205682      -18.1218559464       23.0508403995  TIP3      2373            0.0000000000
     56951      2773  TIP3      H2            -39.8295534221      -17.4594437459       22.3599542933  TIP3      2373            0.0000000000
     56952      2774  TIP3      OH2           -52.0092958891       -9.5031274644       24.7526918148  TIP3      2374            0.0000000000
     56953      2774  TIP3      H1            -52.3202085211       -8.7108923208       24.2671270186  TIP3      2374            0.0000000000
     56954      2774  TIP3      H2            -52.6981657776      -10.1404599801       24.5880755028  TIP3      2374            0.0000000000
     56955      2775  TIP3      OH2           -55.8872037124       -7.0555776821       33.5700372934  TIP3      2375            0.0000000000
     56956      2775  TIP3      H1            -56.3945876325       -7.1178908894       32.7267921456  TIP3      2375            0.0000000000
     56957      2775  TIP3      H2            -55.7725253020       -7.9814073141       33.7970611275  TIP3      2375            0.0000000000
     56958      2776  TIP3      OH2           -56.1975739428       -4.3535340243       30.4556386117  TIP3      2376            0.0000000000
     56959      2776  TIP3      H1            -55.2366560070       -4.4732034443       30.4288297950  TIP3      2376            0.0000000000
     56960      2776  TIP3      H2            -56.2882407010       -3.5464707739       30.9732536372  TIP3      2376            0.0000000000
     56961      2777  TIP3      OH2           -37.9594202619       -3.6585193240       36.1136187585  TIP3      2377            0.0000000000
     56962      2777  TIP3      H1            -38.0538313387       -4.6218385129       36.1069329853  TIP3      2377            0.0000000000
     56963      2777  TIP3      H2            -38.8192862799       -3.4093391252       36.5379156706  TIP3      2377            0.0000000000
     56964      2778  TIP3      OH2           -46.9947668502       -4.1069667883       34.9954634842  TIP3      2378            0.0000000000
     56965      2778  TIP3      H1            -46.9232612097       -3.2640890849       35.5011471572  TIP3      2378            0.0000000000
     56966      2778  TIP3      H2            -47.8715641656       -4.4446790406       35.2559978473  TIP3      2378            0.0000000000
     56967      2779  TIP3      OH2           -46.5795982475       -0.3459220760       24.8045894500  TIP3      2379            0.0000000000
     56968      2779  TIP3      H1            -46.6632748174       -0.4400316068       23.8578202456  TIP3      2379            0.0000000000
     56969      2779  TIP3      H2            -46.5463843893        0.6196783108       24.9360646562  TIP3      2379            0.0000000000
     56970      2780  TIP3      OH2           -52.9268268716       -1.5039922257       26.6027015711  TIP3      2380            0.0000000000
     56971      2780  TIP3      H1            -52.7802941126       -1.9031415614       27.4882323665  TIP3      2380            0.0000000000
     56972      2780  TIP3      H2            -53.7787469419       -1.9032388162       26.3541844329  TIP3      2380            0.0000000000
     56973      2781  TIP3      OH2           -43.8184005237       -1.2085792297       24.5684080575  TIP3      2381            0.0000000000
     56974      2781  TIP3      H1            -44.7702385004       -1.1529037227       24.7452384262  TIP3      2381            0.0000000000
     56975      2781  TIP3      H2            -43.5464367456       -1.9588116072       25.1204211377  TIP3      2381            0.0000000000
     56976      2782  TIP3      OH2           -40.8218449218      -12.1740165099       36.6070781489  TIP3      2382            0.0000000000
     56977      2782  TIP3      H1            -41.2577432113      -11.7072714280       35.8814099587  TIP3      2382            0.0000000000
     56978      2782  TIP3      H2            -40.8024110401      -13.0920177546       36.2948316384  TIP3      2382            0.0000000000
     56979      2783  TIP3      OH2           -53.6742119797       -5.7720910717       34.6044131779  TIP3      2383            0.0000000000
     56980      2783  TIP3      H1            -53.4585651404       -6.1516969344       35.4795166732  TIP3      2383            0.0000000000
     56981      2783  TIP3      H2            -54.5344286161       -6.1635534178       34.3847768152  TIP3      2383            0.0000000000
     56982      2784  TIP3      OH2           -51.0228435330      -17.3190308211       30.5816091048  TIP3      2384            0.0000000000
     56983      2784  TIP3      H1            -51.9236762225      -17.4089155357       30.1947924775  TIP3      2384            0.0000000000
     56984      2784  TIP3      H2            -51.0995437106      -16.4649246321       31.0339718488  TIP3      2384            0.0000000000
     56985      2785  TIP3      OH2           -46.3713459893      -17.6260992512       33.9393487903  TIP3      2385            0.0000000000
     56986      2785  TIP3      H1            -45.9693937780      -18.0348717151       34.7272966552  TIP3      2385            0.0000000000
     56987      2785  TIP3      H2            -47.3389022222      -17.7659311373       34.0905473149  TIP3      2385            0.0000000000
     56988      2786  TIP3      OH2           -43.0604131821      -13.8230801368       34.8210210542  TIP3      2386            0.0000000000
     56989      2786  TIP3      H1            -43.6039900414      -13.9903336232       35.6282439222  TIP3      2386            0.0000000000
     56990      2786  TIP3      H2            -43.2328035235      -12.9015134809       34.5837297228  TIP3      2386            0.0000000000
     56991      2787  TIP3      OH2           -46.7134416154      -15.0702386970       21.2737801247  TIP3      2387            0.0000000000
     56992      2787  TIP3      H1            -47.0060649889      -15.1142288451       22.1919660540  TIP3      2387            0.0000000000
     56993      2787  TIP3      H2            -46.9941625991      -15.9467519055       20.9408029375  TIP3      2387            0.0000000000
     56994      2788  TIP3      OH2           -50.9309396222      -12.3575112292       31.7437572172  TIP3      2388            0.0000000000
     56995      2788  TIP3      H1            -51.6244141440      -12.3810057839       32.4281261722  TIP3      2388            0.0000000000
     56996      2788  TIP3      H2            -50.9486086769      -11.4191244003       31.4510509171  TIP3      2388            0.0000000000
     56997      2789  TIP3      OH2           -50.9528332678      -12.1577026569       26.6486660527  TIP3      2389            0.0000000000
     56998      2789  TIP3      H1            -51.8648992653      -12.4748148051       26.5407379096  TIP3      2389            0.0000000000
     56999      2789  TIP3      H2            -50.5251081512      -12.5127817441       25.8455630062  TIP3      2389            0.0000000000
     57000      2790  TIP3      OH2           -45.4298381955      -11.7249600552       25.4322173301  TIP3      2390            0.0000000000
     57001      2790  TIP3      H1            -45.8349458532      -10.8890651415       25.1213120320  TIP3      2390            0.0000000000
     57002      2790  TIP3      H2            -44.7146624840      -11.8687308300       24.8006995924  TIP3      2390            0.0000000000
     57003      2791  TIP3      OH2           -46.3381181542      -11.5183401442       36.8986695986  TIP3      2391            0.0000000000
     57004      2791  TIP3      H1            -46.8935984643      -12.2680811068       37.2207995757  TIP3      2391            0.0000000000
     57005      2791  TIP3      H2            -45.5063948684      -11.6533866691       37.3795791055  TIP3      2391            0.0000000000
     57006      2792  TIP3      OH2           -44.4077640872      -12.2492324582       28.2733941883  TIP3      2392            0.0000000000
     57007      2792  TIP3      H1            -44.6392087733      -11.6691762850       27.5281454500  TIP3      2392            0.0000000000
     57008      2792  TIP3      H2            -44.2620448250      -13.0964328262       27.8040070288  TIP3      2392            0.0000000000
     57009      2793  TIP3      OH2           -53.2474426778      -12.0444379088       33.5315624404  TIP3      2393            0.0000000000
     57010      2793  TIP3      H1            -53.2363839103      -11.6536871590       34.4202066283  TIP3      2393            0.0000000000
     57011      2793  TIP3      H2            -53.7025316878      -12.8880556467       33.6772106601  TIP3      2393            0.0000000000
     57012      2794  TIP3      OH2           -56.6290237934      -14.9632049120       27.4602465120  TIP3      2394            0.0000000000
     57013      2794  TIP3      H1            -55.9773681278      -15.0078635115       28.1980410013  TIP3      2394            0.0000000000
     57014      2794  TIP3      H2            -56.2034102125      -15.4309261849       26.7041005487  TIP3      2394            0.0000000000
     57015      2795  TIP3      OH2           -55.2653580048      -14.2119266456       22.8758300941  TIP3      2395            0.0000000000
     57016      2795  TIP3      H1            -54.8907495501      -13.5965549372       22.2517150279  TIP3      2395            0.0000000000
     57017      2795  TIP3      H2            -56.0516881163      -13.6772619984       23.1560864443  TIP3      2395            0.0000000000
     57018      2796  TIP3      OH2           -45.1521750302      -10.6209288201       32.8869188657  TIP3      2396            0.0000000000
     57019      2796  TIP3      H1            -44.8313984666      -11.2997274381       32.2648639860  TIP3      2396            0.0000000000
     57020      2796  TIP3      H2            -45.6175995252      -11.1649187807       33.5525095893  TIP3      2396            0.0000000000
     57021      2797  TIP3      OH2           -48.3805716896      -14.6908223049       27.6833805367  TIP3      2397            0.0000000000
     57022      2797  TIP3      H1            -49.3118286678      -14.6535464127       27.9838793909  TIP3      2397            0.0000000000
     57023      2797  TIP3      H2            -47.8868081981      -14.7904393774       28.5095567233  TIP3      2397            0.0000000000
     57024      2798  TIP3      OH2           -53.4680441900      -13.0776089684       26.5452448344  TIP3      2398            0.0000000000
     57025      2798  TIP3      H1            -54.3007142237      -12.8475249631       26.1378977150  TIP3      2398            0.0000000000
     57026      2798  TIP3      H2            -53.2064218219      -13.9378477991       26.1702551270  TIP3      2398            0.0000000000
     57027      2799  TIP3      OH2           -49.9404693888      -13.0579190698       24.2012578465  TIP3      2399            0.0000000000
     57028      2799  TIP3      H1            -48.9775134925      -12.9668786987       24.3558241930  TIP3      2399            0.0000000000
     57029      2799  TIP3      H2            -50.1307242094      -12.4042563773       23.5221111599  TIP3      2399            0.0000000000
     57030      2800  TIP3      OH2           -43.9720795707      -15.4531065939       30.9434060223  TIP3      2400            0.0000000000
     57031      2800  TIP3      H1            -44.6673433964      -15.3551301987       31.6271008475  TIP3      2400            0.0000000000
     57032      2800  TIP3      H2            -44.4772146421      -15.6477779049       30.1424658017  TIP3      2400            0.0000000000
     57033      2801  TIP3      OH2           -51.2588947452      -11.8427241625       21.7258676707  TIP3      2401            0.0000000000
     57034      2801  TIP3      H1            -51.7480626453      -12.2738247793       21.0343363376  TIP3      2401            0.0000000000
     57035      2801  TIP3      H2            -50.3845402704      -11.7236434358       21.3289226910  TIP3      2401            0.0000000000
     57036      2802  TIP3      OH2           -40.7404693790        0.2030219465       37.2582668668  TIP3      2402            0.0000000000
     57037      2802  TIP3      H1            -40.4920946036        0.6129262184       36.4065712205  TIP3      2402            0.0000000000
     57038      2802  TIP3      H2            -40.0369832472        0.5402058667       37.8423561835  TIP3      2402            0.0000000000
     57039      2803  TIP3      OH2           -53.0969226608       -7.3234423808       36.8217101729  TIP3      2403            0.0000000000
     57040      2803  TIP3      H1            -52.3684616521       -7.0766737007       37.4289789955  TIP3      2403            0.0000000000
     57041      2803  TIP3      H2            -53.8804567948       -7.1546974479       37.3904198433  TIP3      2403            0.0000000000
     57042      2804  TIP3      OH2           -47.0897323110      -11.9135475013       29.5801835819  TIP3      2404            0.0000000000
     57043      2804  TIP3      H1            -46.5027949323      -12.4590956169       29.0390441329  TIP3      2404            0.0000000000
     57044      2804  TIP3      H2            -47.2251974274      -12.4503797521       30.3706236993  TIP3      2404            0.0000000000
     57045      2805  TIP3      OH2           -52.1076241352      -15.7575593698       25.9895430077  TIP3      2405            0.0000000000
     57046      2805  TIP3      H1            -52.3783939287      -16.6983740282       25.9823432309  TIP3      2405            0.0000000000
     57047      2805  TIP3      H2            -51.2827665934      -15.8044159204       25.4696805415  TIP3      2405            0.0000000000
     57048      2806  TIP3      OH2           -48.4463131623      -13.5596165490       31.9890100278  TIP3      2406            0.0000000000
     57049      2806  TIP3      H1            -49.2831638109      -13.0677253327       32.0990073094  TIP3      2406            0.0000000000
     57050      2806  TIP3      H2            -47.9093222965      -13.2409010665       32.7417378533  TIP3      2406            0.0000000000
     57051      2807  TIP3      OH2           -47.8821252011       -7.3432682355       23.6770499947  TIP3      2407            0.0000000000
     57052      2807  TIP3      H1            -48.6573378579       -7.8218735186       23.3755228159  TIP3      2407            0.0000000000
     57053      2807  TIP3      H2            -48.0495723707       -7.2562318294       24.6352689059  TIP3      2407            0.0000000000
     57054      2808  TIP3      OH2           -40.6326973229       -8.2134121844       32.7203724338  TIP3      2408            0.0000000000
     57055      2808  TIP3      H1            -40.0603340054       -7.7614242614       32.0756785725  TIP3      2408            0.0000000000
     57056      2808  TIP3      H2            -41.5343354798       -8.1692758652       32.3466566010  TIP3      2408            0.0000000000
     57057      2809  TIP3      OH2           -44.0170288248      -14.5298475494       21.9370485405  TIP3      2409            0.0000000000
     57058      2809  TIP3      H1            -44.9572843010      -14.4148961746       21.7112809449  TIP3      2409            0.0000000000
     57059      2809  TIP3      H2            -43.7024794220      -13.6624852530       22.2020616778  TIP3      2409            0.0000000000
     57060      2810  TIP3      OH2           -46.3778732399       -7.1201573540       34.9206776254  TIP3      2410            0.0000000000
     57061      2810  TIP3      H1            -46.7234814174       -7.5156886359       35.7292760417  TIP3      2410            0.0000000000
     57062      2810  TIP3      H2            -46.5970178604       -6.1876849376       35.0070270715  TIP3      2410            0.0000000000
     57063      2811  TIP3      OH2           -43.2869305153      -12.6414781485       23.5863618681  TIP3      2411            0.0000000000
     57064      2811  TIP3      H1            -42.3787052329      -12.7857315230       23.9044355397  TIP3      2411            0.0000000000
     57065      2811  TIP3      H2            -43.2346708596      -11.8411535871       23.0481372803  TIP3      2411            0.0000000000
     57066      2812  TIP3      OH2           -52.7658554900       -7.9886879497       29.4683294871  TIP3      2412            0.0000000000
     57067      2812  TIP3      H1            -52.0426690405       -8.0339294073       28.8202722596  TIP3      2412            0.0000000000
     57068      2812  TIP3      H2            -52.6960984417       -8.8437176666       29.9291577284  TIP3      2412            0.0000000000
     57069      2813  TIP3      OH2           -45.7362611435       -5.8666270696       22.7437433932  TIP3      2413            0.0000000000
     57070      2813  TIP3      H1            -46.0934445225       -5.0244052997       23.0709232022  TIP3      2413            0.0000000000
     57071      2813  TIP3      H2            -46.4865438849       -6.4733640506       22.8875341773  TIP3      2413            0.0000000000
     57072      2814  TIP3      OH2           -55.5162592115       -9.7832453072       34.7348304433  TIP3      2414            0.0000000000
     57073      2814  TIP3      H1            -55.5307346565      -10.0532768607       35.6885804381  TIP3      2414            0.0000000000
     57074      2814  TIP3      H2            -56.2905667020      -10.2503508152       34.3539039124  TIP3      2414            0.0000000000
     57075      2815  TIP3      OH2           -48.7566870654      -10.0207276506       36.9672823708  TIP3      2415            0.0000000000
     57076      2815  TIP3      H1            -49.0531217942      -10.2466790713       36.0756972663  TIP3      2415            0.0000000000
     57077      2815  TIP3      H2            -47.8153746322      -10.2874231835       36.9510418533  TIP3      2415            0.0000000000
     57078      2816  TIP3      OH2           -44.0940477257       -4.6831812844       34.8515831543  TIP3      2416            0.0000000000
     57079      2816  TIP3      H1            -45.0195547021       -4.4857159785       34.6221830907  TIP3      2416            0.0000000000
     57080      2816  TIP3      H2            -44.0985445009       -4.4017557602       35.7899284902  TIP3      2416            0.0000000000
     57081      2817  TIP3      OH2           -38.3970395199      -12.4517552075       23.2456919339  TIP3      2417            0.0000000000
     57082      2817  TIP3      H1            -38.9592129980      -12.8195342212       22.5626298100  TIP3      2417            0.0000000000
     57083      2817  TIP3      H2            -38.2967638560      -11.5059883797       22.9786917472  TIP3      2417            0.0000000000
     57084      2818  TIP3      OH2           -38.4187727958       -6.6250965620       36.0916854173  TIP3      2418            0.0000000000
     57085      2818  TIP3      H1            -39.2957825012       -6.3933242263       35.7098729923  TIP3      2418            0.0000000000
     57086      2818  TIP3      H2            -37.8469482428       -6.6430499219       35.3028873524  TIP3      2418            0.0000000000
     57087      2819  TIP3      OH2           -40.0882721069       -3.6469034604       23.6750072998  TIP3      2419            0.0000000000
     57088      2819  TIP3      H1            -40.4800928262       -4.4660902350       24.0178690840  TIP3      2419            0.0000000000
     57089      2819  TIP3      H2            -39.8328424455       -3.8510982799       22.7807842184  TIP3      2419            0.0000000000
     57090      2820  TIP3      OH2           -42.9562453425       -8.8619011167       30.7462066614  TIP3      2420            0.0000000000
     57091      2820  TIP3      H1            -43.9080421405       -9.0857008830       30.6747219786  TIP3      2420            0.0000000000
     57092      2820  TIP3      H2            -42.5263680996       -9.6548864771       30.3596199491  TIP3      2420            0.0000000000
     57093      2821  TIP3      OH2           -50.3915395531       -4.5133597474       26.8648095207  TIP3      2421            0.0000000000
     57094      2821  TIP3      H1            -49.8776972445       -3.7167161706       26.6575381000  TIP3      2421            0.0000000000
     57095      2821  TIP3      H2            -51.2742362642       -4.2750130591       26.5479398329  TIP3      2421            0.0000000000
     57096      2822  TIP3      OH2           -48.9587721704       -6.8487653391       26.4096638335  TIP3      2422            0.0000000000
     57097      2822  TIP3      H1            -49.2411003729       -5.9166960937       26.4826476355  TIP3      2422            0.0000000000
     57098      2822  TIP3      H2            -49.7110662221       -7.3119557272       26.8319816115  TIP3      2422            0.0000000000
     57099      2823  TIP3      OH2           -48.4969329603       -2.6805855983       32.7659519952  TIP3      2423            0.0000000000
     57100      2823  TIP3      H1            -48.0794095159       -1.8415892900       32.5126977340  TIP3      2423            0.0000000000
     57101      2823  TIP3      H2            -47.9123737080       -2.9891658107       33.4836216459  TIP3      2423            0.0000000000
     57102      2824  TIP3      OH2           -50.2725291848       -1.8384119082       25.9624711136  TIP3      2424            0.0000000000
     57103      2824  TIP3      H1            -51.2440887483       -1.7204857334       26.0465769347  TIP3      2424            0.0000000000
     57104      2824  TIP3      H2            -49.9385217063       -0.9952038884       26.3124357812  TIP3      2424            0.0000000000
     57105      2825  TIP3      OH2           -44.9263182622       -6.6163638709       32.4334687613  TIP3      2425            0.0000000000
     57106      2825  TIP3      H1            -45.3411076009       -6.8264540831       33.2972734690  TIP3      2425            0.0000000000
     57107      2825  TIP3      H2            -44.3491589193       -7.3632704586       32.2671059100  TIP3      2425            0.0000000000
     57108      2826  TIP3      OH2           -42.6997098943       -5.6654090527       21.5092041002  TIP3      2426            0.0000000000
     57109      2826  TIP3      H1            -42.3654470854       -6.0521002138       22.3288966929  TIP3      2426            0.0000000000
     57110      2826  TIP3      H2            -43.6611950628       -5.7634953210       21.6166818559  TIP3      2426            0.0000000000
     57111      2827  TIP3      OH2           -42.2201377466       -2.0593755811       34.9291923157  TIP3      2427            0.0000000000
     57112      2827  TIP3      H1            -42.8635418823       -2.5869109208       34.4167076506  TIP3      2427            0.0000000000
     57113      2827  TIP3      H2            -41.9842722806       -1.3737275793       34.2690340548  TIP3      2427            0.0000000000
     57114      2828  TIP3      OH2           -54.1169149349      -14.8168751497       34.3056549430  TIP3      2428            0.0000000000
     57115      2828  TIP3      H1            -55.0238976858      -14.4651235296       34.2498981217  TIP3      2428            0.0000000000
     57116      2828  TIP3      H2            -54.2190699901      -15.6712856404       34.7396345664  TIP3      2428            0.0000000000
     57117      2829  TIP3      OH2           -41.8649321257       -6.9944815239       23.7439008060  TIP3      2429            0.0000000000
     57118      2829  TIP3      H1            -42.1207960956       -7.7367559843       24.3190980278  TIP3      2429            0.0000000000
     57119      2829  TIP3      H2            -40.9195593995       -6.8882509984       23.9525078827  TIP3      2429            0.0000000000
     57120      2830  TIP3      OH2           -54.4759836705       -3.0078711903       32.7354223334  TIP3      2430            0.0000000000
     57121      2830  TIP3      H1            -54.2289979959       -3.9444189231       32.7291847821  TIP3      2430            0.0000000000
     57122      2830  TIP3      H2            -54.2293872959       -2.7390385962       33.6295246181  TIP3      2430            0.0000000000
     57123      2831  TIP3      OH2           -49.7547029049       -5.0045843547       22.4419213755  TIP3      2431            0.0000000000
     57124      2831  TIP3      H1            -49.5170511499       -5.4973805392       23.2257558910  TIP3      2431            0.0000000000
     57125      2831  TIP3      H2            -49.6842109516       -4.0647013168       22.7303422087  TIP3      2431            0.0000000000
     57126      2832  TIP3      OH2           -53.2072153776       -7.7570903420       22.9219675735  TIP3      2432            0.0000000000
     57127      2832  TIP3      H1            -53.9144958087       -7.3722223800       23.4900790983  TIP3      2432            0.0000000000
     57128      2832  TIP3      H2            -52.7234672005       -6.9413596511       22.6859886197  TIP3      2432            0.0000000000
     57129      2833  TIP3      OH2           -45.3955180831      -15.0540120976       33.2243491010  TIP3      2433            0.0000000000
     57130      2833  TIP3      H1            -44.6888829567      -14.9963720547       33.8794673125  TIP3      2433            0.0000000000
     57131      2833  TIP3      H2            -45.7761603100      -15.9371062614       33.4037896046  TIP3      2433            0.0000000000
     57132      2834  TIP3      OH2           -44.6371621125      -15.4385585121       24.3430762379  TIP3      2434            0.0000000000
     57133      2834  TIP3      H1            -44.3977663591      -14.9730732225       23.5099166539  TIP3      2434            0.0000000000
     57134      2834  TIP3      H2            -44.0478414932      -15.0265014772       24.9811534468  TIP3      2434            0.0000000000
     57135      2835  TIP3      OH2           -46.9333300403       -3.2674285337       23.2051798147  TIP3      2435            0.0000000000
     57136      2835  TIP3      H1            -47.7788635381       -2.7889724154       23.2202079995  TIP3      2435            0.0000000000
     57137      2835  TIP3      H2            -46.4181551098       -2.8279727934       22.5077282439  TIP3      2435            0.0000000000
     57138      2836  TIP3      OH2           -47.4266107590      -13.6976605088       25.1409499572  TIP3      2436            0.0000000000
     57139      2836  TIP3      H1            -46.6074465325      -13.1679214379       25.1929110977  TIP3      2436            0.0000000000
     57140      2836  TIP3      H2            -47.6722888601      -13.8422505207       26.0704872188  TIP3      2436            0.0000000000
     57141      2837  TIP3      OH2           -46.8698295884      -12.7047374203       34.3362601975  TIP3      2437            0.0000000000
     57142      2837  TIP3      H1            -46.7698951677      -12.1286482438       35.1166871497  TIP3      2437            0.0000000000
     57143      2837  TIP3      H2            -46.2101573410      -13.3992060728       34.4480507651  TIP3      2437            0.0000000000
     57144      2838  TIP3      OH2           -46.5417711669      -16.6419473415       26.0802905770  TIP3      2438            0.0000000000
     57145      2838  TIP3      H1            -46.8770465973      -15.9892070707       26.7192071382  TIP3      2438            0.0000000000
     57146      2838  TIP3      H2            -45.8669323961      -16.1023432860       25.5981464445  TIP3      2438            0.0000000000
     57147      2839  TIP3      OH2           -49.5847427787       -2.2660033761       23.1834004512  TIP3      2439            0.0000000000
     57148      2839  TIP3      H1            -49.4390330823       -1.4506334352       22.6434083846  TIP3      2439            0.0000000000
     57149      2839  TIP3      H2            -49.8211644853       -1.9174786300       24.0556656691  TIP3      2439            0.0000000000
     57150      2840  TIP3      OH2           -40.6615548652      -14.8160392308       35.1883623266  TIP3      2440            0.0000000000
     57151      2840  TIP3      H1            -41.6017152319      -14.5275830080       35.0706730234  TIP3      2440            0.0000000000
     57152      2840  TIP3      H2            -40.3572312535      -14.8166901713       34.2676594561  TIP3      2440            0.0000000000
     57153      2841  TIP3      OH2           -42.0734536902      -11.0201276277       29.2583474437  TIP3      2441            0.0000000000
     57154      2841  TIP3      H1            -42.8774061880      -11.4762381331       28.9300053916  TIP3      2441            0.0000000000
     57155      2841  TIP3      H2            -41.6103158993      -11.7470591520       29.7439800948  TIP3      2441            0.0000000000
     57156      2842  TIP3      OH2           -52.6237610555       -5.1509120864       21.8614788621  TIP3      2442            0.0000000000
     57157      2842  TIP3      H1            -52.0221211611       -4.4213532939       22.0831907638  TIP3      2442            0.0000000000
     57158      2842  TIP3      H2            -52.1668170917       -5.5244010897       21.1012298169  TIP3      2442            0.0000000000
     57159      2843  TIP3      OH2           -41.0012125275       -1.8107859674       30.8870586872  TIP3      2443            0.0000000000
     57160      2843  TIP3      H1            -41.1196710049       -1.1084581355       30.2134143512  TIP3      2443            0.0000000000
     57161      2843  TIP3      H2            -40.0412693484       -1.7214066417       31.0742363260  TIP3      2443            0.0000000000
     57162      2844  TIP3      OH2           -53.5003449096      -17.6494710383       29.6478685826  TIP3      2444            0.0000000000
     57163      2844  TIP3      H1            -53.7171096979      -17.6381882519       28.6945313210  TIP3      2444            0.0000000000
     57164      2844  TIP3      H2            -53.9310166793      -18.4834023756       29.9239024956  TIP3      2444            0.0000000000
     57165      2845  TIP3      OH2           -54.5568695487       -3.7462958683       25.7989659497  TIP3      2445            0.0000000000
     57166      2845  TIP3      H1            -55.3950552464       -3.2645569592       25.7994520576  TIP3      2445            0.0000000000
     57167      2845  TIP3      H2            -54.0354451113       -3.2380016543       25.1591041064  TIP3      2445            0.0000000000
     57168      2846  TIP3      OH2           -55.2630331619       -1.1167783490       37.0796322518  TIP3      2446            0.0000000000
     57169      2846  TIP3      H1            -54.7360982251       -1.3172265310       37.8761833704  TIP3      2446            0.0000000000
     57170      2846  TIP3      H2            -55.7589134973       -1.9281860375       36.9362799973  TIP3      2446            0.0000000000
     57171      2847  TIP3      OH2           -50.6789446276       -2.1859379172       38.7411163724  TIP3      2447            0.0000000000
     57172      2847  TIP3      H1            -49.9035684013       -2.6647431115       39.0647958954  TIP3      2447            0.0000000000
     57173      2847  TIP3      H2            -50.6928778158       -2.4398986641       37.7953270874  TIP3      2447            0.0000000000
     57174      2848  TIP3      OH2           -44.1304001854       -3.7997068282       37.4541703591  TIP3      2448            0.0000000000
     57175      2848  TIP3      H1            -44.4585705009       -4.6834865887       37.7178625828  TIP3      2448            0.0000000000
     57176      2848  TIP3      H2            -43.3743570847       -3.6763285904       38.0588781048  TIP3      2448            0.0000000000
     57177      2849  TIP3      OH2           -55.3812834217       -7.3181417232       38.0862657575  TIP3      2449            0.0000000000
     57178      2849  TIP3      H1            -55.2320705463       -8.2350259889       37.7919348132  TIP3      2449            0.0000000000
     57179      2849  TIP3      H2            -56.1495082601       -7.0185232954       37.5641155492  TIP3      2449            0.0000000000
     57180      2850  TIP3      OH2           -48.7074936374       -7.3372576402       37.4939609875  TIP3      2450            0.0000000000
     57181      2850  TIP3      H1            -49.0476693013       -7.0487117843       36.6280751847  TIP3      2450            0.0000000000
     57182      2850  TIP3      H2            -48.5876928595       -8.3049119245       37.3973892749  TIP3      2450            0.0000000000
     57183      2851  TIP3      OH2           -42.9941574650       -7.4541776055       34.8542361487  TIP3      2451            0.0000000000
     57184      2851  TIP3      H1            -42.2300984219       -6.8403677666       34.8018900188  TIP3      2451            0.0000000000
     57185      2851  TIP3      H2            -43.7285840527       -6.8249957043       34.9435083803  TIP3      2451            0.0000000000
     57186      2852  TIP3      OH2           -54.5458073479      -10.0906779728       37.4789348444  TIP3      2452            0.0000000000
     57187      2852  TIP3      H1            -54.1088786214      -10.9553599860       37.3853143267  TIP3      2452            0.0000000000
     57188      2852  TIP3      H2            -54.7620910017      -10.0805232022       38.4323594702  TIP3      2452            0.0000000000
     57189      2853  TIP3      OH2           -50.5953566466      -11.1243200795       34.8619491644  TIP3      2453            0.0000000000
     57190      2853  TIP3      H1            -51.2079497726      -10.4177641466       35.1332572722  TIP3      2453            0.0000000000
     57191      2853  TIP3      H2            -50.2359223305      -10.7737843878       34.0290716617  TIP3      2453            0.0000000000
     57192      2854  TIP3      OH2           -45.5579045078       -8.6038865048       38.1791221062  TIP3      2454            0.0000000000
     57193      2854  TIP3      H1            -44.5982531295       -8.5643825106       38.0939914978  TIP3      2454            0.0000000000
     57194      2854  TIP3      H2            -45.7210090369       -9.3510368071       38.7721674558  TIP3      2454            0.0000000000
     57195      2855  TIP3      OH2           -50.2257828815      -13.7525810867       35.9323959349  TIP3      2455            0.0000000000
     57196      2855  TIP3      H1            -50.0959510437      -14.4814749564       35.3046986669  TIP3      2455            0.0000000000
     57197      2855  TIP3      H2            -50.2477887158      -12.9561825057       35.3669897371  TIP3      2455            0.0000000000
     57198      2856  TIP3      OH2           -49.8187278477      -15.3827986655       33.4543627314  TIP3      2456            0.0000000000
     57199      2856  TIP3      H1            -49.2940936239      -14.9205201613       32.7610784369  TIP3      2456            0.0000000000
     57200      2856  TIP3      H2            -50.6994797408      -15.4763052318       33.0233294226  TIP3      2456            0.0000000000
     57201      2857  TIP3      OH2           -48.2578156909       -9.9284169702       33.6927286289  TIP3      2457            0.0000000000
     57202      2857  TIP3      H1            -47.5049327397      -10.0828184881       33.1104553348  TIP3      2457            0.0000000000
     57203      2857  TIP3      H2            -48.6054594618       -9.0747340556       33.3874135727  TIP3      2457            0.0000000000
     57204      2858  TIP3      OH2           -43.8539624890      -12.1318531293       38.6902531003  TIP3      2458            0.0000000000
     57205      2858  TIP3      H1            -43.6419642871      -13.0713631419       38.5899000480  TIP3      2458            0.0000000000
     57206      2858  TIP3      H2            -42.9814003740      -11.7077459826       38.6848416479  TIP3      2458            0.0000000000
     57207      2859  TIP3      OH2           -42.5267261723       -9.3497275542       36.8171456800  TIP3      2459            0.0000000000
     57208      2859  TIP3      H1            -42.7903407808       -8.6223333772       36.2097289395  TIP3      2459            0.0000000000
     57209      2859  TIP3      H2            -41.5711140323       -9.3932990341       36.6202706802  TIP3      2459            0.0000000000
     57210      2860  TIP3      OH2           -51.7558217560      -12.5279784549       37.8622468355  TIP3      2460            0.0000000000
     57211      2860  TIP3      H1            -52.5325068867      -13.0857095181       37.6367220279  TIP3      2460            0.0000000000
     57212      2860  TIP3      H2            -51.0982251778      -12.8661877793       37.2248481828  TIP3      2460            0.0000000000
     57213      2861  TIP3      OH2           -49.0179621932      -17.9487792885       33.8679679612  TIP3      2461            0.0000000000
     57214      2861  TIP3      H1            -49.1515831747      -16.9774865018       33.7615260876  TIP3      2461            0.0000000000
     57215      2861  TIP3      H2            -49.7836586763      -18.2911918657       33.3753932173  TIP3      2461            0.0000000000
     57216      2862  TIP3      OH2           -47.7512302853      -13.6147621192       37.4495501348  TIP3      2462            0.0000000000
     57217      2862  TIP3      H1            -48.0291557691      -13.8295941361       38.3572031613  TIP3      2462            0.0000000000
     57218      2862  TIP3      H2            -48.5483487468      -13.8088984944       36.9203463329  TIP3      2462            0.0000000000
     57219      2863  TIP3      OH2           -45.0353954387      -14.4777494008       36.5142722269  TIP3      2463            0.0000000000
     57220      2863  TIP3      H1            -45.9982779843      -14.4344558303       36.6542865447  TIP3      2463            0.0000000000
     57221      2863  TIP3      H2            -44.7461830126      -15.1062245730       37.1959203878  TIP3      2463            0.0000000000
     57222      2864  TIP3      OH2           -43.4330354600      -15.8410469786       38.4880999414  TIP3      2464            0.0000000000
     57223      2864  TIP3      H1            -43.5043506738      -16.8119933019       38.5032818159  TIP3      2464            0.0000000000
     57224      2864  TIP3      H2            -43.7278029362      -15.5611225430       39.3847454396  TIP3      2464            0.0000000000
     57225      2865  TIP3      OH2           -53.6046104054      -14.6191181023       37.5563944832  TIP3      2465            0.0000000000
     57226      2865  TIP3      H1            -53.3726555004      -15.3404371259       36.9504843195  TIP3      2465            0.0000000000
     57227      2865  TIP3      H2            -53.6934783156      -15.0487107777       38.4278662970  TIP3      2465            0.0000000000
     57228      2866  TIP3      OH2           -48.8115351815      -18.5955390152       36.5537206645  TIP3      2466            0.0000000000
     57229      2866  TIP3      H1            -48.1007332633      -19.2714502061       36.5221183422  TIP3      2466            0.0000000000
     57230      2866  TIP3      H2            -48.9068155308      -18.3809901672       35.6070500457  TIP3      2466            0.0000000000
     57231      2867  TIP3      OH2           -48.4486885190      -16.9479272904       38.6232505632  TIP3      2467            0.0000000000
     57232      2867  TIP3      H1            -48.5961690724      -17.4401022958       37.7790094749  TIP3      2467            0.0000000000
     57233      2867  TIP3      H2            -49.0480195812      -16.1849513062       38.5352843573  TIP3      2467            0.0000000000
     57234      2868  TIP3      OH2           -48.9201484426       -0.0203844888       21.8365300717  TIP3      2468            0.0000000000
     57235      2868  TIP3      H1            -47.9672811089        0.0897520213       21.8752181288  TIP3      2468            0.0000000000
     57236      2868  TIP3      H2            -49.1789475582        0.5830826500       21.1226107287  TIP3      2468            0.0000000000
     57237      2869  TIP3      OH2            56.2094569709       -0.0550720926       26.2895139265  TIP3      2469            0.0000000000
     57238      2869  TIP3      H1             55.4945986543       -0.5214212014       25.8003713582  TIP3      2469            0.0000000000
     57239      2869  TIP3      H2             56.4988444480       -0.7233490982       26.9264555863  TIP3      2469            0.0000000000
     57240      2870  TIP3      OH2           -55.8102553712       -1.9458765712       28.1380618349  TIP3      2470            0.0000000000
     57241      2870  TIP3      H1            -56.1685003128       -2.8280103341       28.3239278860  TIP3      2470            0.0000000000
     57242      2870  TIP3      H2            -55.6005935829       -1.6065558380       29.0244123577  TIP3      2470            0.0000000000
     57243      2871  TIP3      OH2           -38.2805593605       -1.1450969309       31.0945083938  TIP3      2471            0.0000000000
     57244      2871  TIP3      H1            -38.2721815565       -0.9610412946       32.0495601803  TIP3      2471            0.0000000000
     57245      2871  TIP3      H2            -37.5768097124       -0.5665993669       30.7772379027  TIP3      2471            0.0000000000
     57246      2872  TIP3      OH2           -38.7025607995       -1.5525871025       34.0286786818  TIP3      2472            0.0000000000
     57247      2872  TIP3      H1            -39.1878987679       -2.3199726119       33.6584530700  TIP3      2472            0.0000000000
     57248      2872  TIP3      H2            -38.1780512790       -1.9832434457       34.7222881672  TIP3      2472            0.0000000000
     57249      2873  TIP3      OH2           -40.2534531045       -5.8162175608       38.6726050747  TIP3      2473            0.0000000000
     57250      2873  TIP3      H1            -41.1375517944       -5.8680860228       39.0758859490  TIP3      2473            0.0000000000
     57251      2873  TIP3      H2            -39.8816636729       -5.0203917038       39.1230617674  TIP3      2473            0.0000000000
     57252      2874  TIP3      OH2           -38.9534489816       -7.5220137135       24.1581765109  TIP3      2474            0.0000000000
     57253      2874  TIP3      H1            -38.0928758098       -7.1055269562       24.3262171384  TIP3      2474            0.0000000000
     57254      2874  TIP3      H2            -38.9442597406       -8.2536746700       24.8171289656  TIP3      2474            0.0000000000
     57255      2875  TIP3      OH2           -38.5793696169       -9.4418598141       25.9953028983  TIP3      2475            0.0000000000
     57256      2875  TIP3      H1            -39.3068770193       -9.9514968831       26.4069357940  TIP3      2475            0.0000000000
     57257      2875  TIP3      H2            -37.9734678528       -9.2763502080       26.7471137509  TIP3      2475            0.0000000000
     57258      2876  TIP3      OH2           -38.8627791251       -6.7229901390       30.9669917273  TIP3      2476            0.0000000000
     57259      2876  TIP3      H1            -37.9856486096       -7.0698705738       30.6581300777  TIP3      2476            0.0000000000
     57260      2876  TIP3      H2            -38.6768214537       -5.7529726899       30.8372311361  TIP3      2476            0.0000000000
     57261      2877  TIP3      OH2           -40.2881182611       -3.8278002626       33.2730776308  TIP3      2477            0.0000000000
     57262      2877  TIP3      H1            -40.9639946572       -3.4746742259       33.8804775640  TIP3      2477            0.0000000000
     57263      2877  TIP3      H2            -40.8392659086       -4.2292242973       32.5774095366  TIP3      2477            0.0000000000
     57264      2878  TIP3      OH2           -38.3325441057       -9.6083939804       22.4030404964  TIP3      2478            0.0000000000
     57265      2878  TIP3      H1            -38.8283868618       -9.1912542036       21.6796623290  TIP3      2478            0.0000000000
     57266      2878  TIP3      H2            -38.3390217556       -8.8844974215       23.0668866954  TIP3      2478            0.0000000000
     57267      2879  TIP3      OH2           -40.7711317104      -10.9442123494       26.5619412994  TIP3      2479            0.0000000000
     57268      2879  TIP3      H1            -40.9201387849      -11.9030572746       26.5591416525  TIP3      2479            0.0000000000
     57269      2879  TIP3      H2            -41.1216017419      -10.6984086547       27.4299795515  TIP3      2479            0.0000000000
     57270      2880  TIP3      OH2           -55.7474031321       -8.8813377762       30.6281755701  TIP3      2480            0.0000000000
     57271      2880  TIP3      H1            -55.5648918350       -8.9422075068       29.6609973822  TIP3      2480            0.0000000000
     57272      2880  TIP3      H2            -54.8569355888       -9.0221594402       30.9983572910  TIP3      2480            0.0000000000
     57273      2881  TIP3      OH2           -39.9243967836       -8.9769785245       36.2260295194  TIP3      2481            0.0000000000
     57274      2881  TIP3      H1            -39.3159880910       -9.7274334586       36.4007457362  TIP3      2481            0.0000000000
     57275      2881  TIP3      H2            -39.3289120110       -8.2025037704       36.2689225125  TIP3      2481            0.0000000000
     57276      2882  TIP3      OH2           -38.4109258641      -11.0750930252       36.9142068055  TIP3      2482            0.0000000000
     57277      2882  TIP3      H1            -39.2871894554      -11.4786893683       36.7397118245  TIP3      2482            0.0000000000
     57278      2882  TIP3      H2            -37.8279222993      -11.8461079971       36.8347591945  TIP3      2482            0.0000000000
     57279      2883  TIP3      OH2           -41.0871470872      -13.3524999290       25.0355200012  TIP3      2483            0.0000000000
     57280      2883  TIP3      H1            -40.7862379182      -14.2868949490       25.1542503767  TIP3      2483            0.0000000000
     57281      2883  TIP3      H2            -40.2946596063      -12.9535073629       24.6598549531  TIP3      2483            0.0000000000
     57282      2884  TIP3      OH2           -40.4664711726      -12.7924124169       30.4701570215  TIP3      2484            0.0000000000
     57283      2884  TIP3      H1            -39.5011948205      -12.5866202994       30.4546073462  TIP3      2484            0.0000000000
     57284      2884  TIP3      H2            -40.6675343955      -12.6906468117       31.4136723899  TIP3      2484            0.0000000000
     57285      2885  TIP3      OH2           -40.4071821601      -12.0791913675       33.2424842591  TIP3      2485            0.0000000000
     57286      2885  TIP3      H1            -41.2733794006      -11.7956774627       33.6106366096  TIP3      2485            0.0000000000
     57287      2885  TIP3      H2            -39.9627795653      -11.2273917695       33.0451455081  TIP3      2485            0.0000000000
     57288      2886  TIP3      OH2           -56.1299915553      -13.5804119678       36.7377698761  TIP3      2486            0.0000000000
     57289      2886  TIP3      H1            -55.1942178082      -13.7337730456       36.9697626584  TIP3      2486            0.0000000000
     57290      2886  TIP3      H2            -56.5785456860      -14.3676285864       37.1046106520  TIP3      2486            0.0000000000
     57291      2887  TIP3      OH2           -38.1332310203      -18.0633275702       38.6022273619  TIP3      2487            0.0000000000
     57292      2887  TIP3      H1            -37.7802377501      -18.7224353893       37.9883461379  TIP3      2487            0.0000000000
     57293      2887  TIP3      H2            -37.9987962313      -17.2271728298       38.1247658587  TIP3      2487            0.0000000000
     57294      2888  TIP3      OH2           -40.4412940154      -16.0810384720       25.0903586597  TIP3      2488            0.0000000000
     57295      2888  TIP3      H1            -40.2471806978      -16.5477596200       25.9219567685  TIP3      2488            0.0000000000
     57296      2888  TIP3      H2            -41.0445709298      -16.7051427854       24.6177193475  TIP3      2488            0.0000000000
     57297      2889  TIP3      OH2           -54.9202616967      -15.2654653656       29.5827781704  TIP3      2489            0.0000000000
     57298      2889  TIP3      H1            -54.4893101173      -16.0854753476       29.9261259052  TIP3      2489            0.0000000000
     57299      2889  TIP3      H2            -54.4395091539      -14.5713110539       30.0598954366  TIP3      2489            0.0000000000
     57300      2890  TIP3      OH2           -56.5881992232      -12.2888620496       30.7161576725  TIP3      2490            0.0000000000
     57301      2890  TIP3      H1            -56.0905128951      -12.5025247976       29.9118165405  TIP3      2490            0.0000000000
     57302      2890  TIP3      H2            -56.2174695566      -11.4404794957       30.9570457225  TIP3      2490            0.0000000000
     57303      2891  TIP3      OH2           -38.6013047881      -15.9489255567       36.9658009561  TIP3      2491            0.0000000000
     57304      2891  TIP3      H1            -39.5446509585      -15.6860917422       36.9120222450  TIP3      2491            0.0000000000
     57305      2891  TIP3      H2            -38.5289969150      -16.4910234909       36.1630990419  TIP3      2491            0.0000000000
     57306      2892  TIP3      OH2           -38.5730775328      -16.0293133199       21.6349843807  TIP3      2492            0.0000000000
     57307      2892  TIP3      H1            -38.1897547708      -16.7633653547       21.1234025422  TIP3      2492            0.0000000000
     57308      2892  TIP3      H2            -37.8805438283      -15.3763782490       21.6778271949  TIP3      2492            0.0000000000
     57309      2893  TIP3      OH2            56.5536398425      -15.9477734714       24.7836234249  TIP3      2493            0.0000000000
     57310      2893  TIP3      H1             55.5915916893      -15.8498909420       24.6073419845  TIP3      2493            0.0000000000
     57311      2893  TIP3      H2             56.9722745972      -15.5611539822       24.0053358231  TIP3      2493            0.0000000000
     57312      2894  TIP3      OH2           -41.5546699377       -1.0534237571       26.6926035239  TIP3      2494            0.0000000000
     57313      2894  TIP3      H1            -40.8767058604       -1.3855492461       26.0765815467  TIP3      2494            0.0000000000
     57314      2894  TIP3      H2            -41.0232351721       -0.5606511575       27.3332080532  TIP3      2494            0.0000000000
     57315      2895  TIP3      OH2            56.5295404259      -17.3275013841       33.0683575837  TIP3      2495            0.0000000000
     57316      2895  TIP3      H1             55.8444217477      -17.5302223341       33.7248606185  TIP3      2495            0.0000000000
     57317      2895  TIP3      H2             56.0561145779      -16.6745040285       32.5002493134  TIP3      2495            0.0000000000
     57318      2896  TIP3      OH2           -54.1402360255       -4.1304294778       37.2221436544  TIP3      2496            0.0000000000
     57319      2896  TIP3      H1            -54.9704939293       -3.9482201509       36.7872960467  TIP3      2496            0.0000000000
     57320      2896  TIP3      H2            -54.3879941088       -4.2068262510       38.1524392471  TIP3      2496            0.0000000000
     57321      2897  TIP3      OH2           -51.2120437925       -3.1563370839       33.4937158716  TIP3      2497            0.0000000000
     57322      2897  TIP3      H1            -51.5991167318       -2.3169331300       33.2050272406  TIP3      2497            0.0000000000
     57323      2897  TIP3      H2            -50.2854291522       -3.0534457991       33.1817589856  TIP3      2497            0.0000000000
     57324      2898  TIP3      OH2           -46.8907030079       -1.7357886682       36.4189842391  TIP3      2498            0.0000000000
     57325      2898  TIP3      H1            -46.7114640168       -2.0811293803       37.3306641242  TIP3      2498            0.0000000000
     57326      2898  TIP3      H2            -46.0063482277       -1.4326304089       36.1401268697  TIP3      2498            0.0000000000
     57327      2899  TIP3      OH2           -44.5744525883       -0.4617940043       35.6882653274  TIP3      2499            0.0000000000
     57328      2899  TIP3      H1            -43.8571418119       -1.0762040653       35.4590964683  TIP3      2499            0.0000000000
     57329      2899  TIP3      H2            -44.2093544571       -0.0484107027       36.5019194525  TIP3      2499            0.0000000000
     57330      2900  TIP3      OH2           -39.5973390718      -17.8523700573       34.7950314136  TIP3      2500            0.0000000000
     57331      2900  TIP3      H1            -40.4273818585      -17.5505063304       34.3814703862  TIP3      2500            0.0000000000
     57332      2900  TIP3      H2            -39.4004808968      -18.6485752271       34.2503508456  TIP3      2500            0.0000000000
     57333      2901  TIP3      OH2           -53.7882451641        0.0816548607       33.5092338693  TIP3      2501            0.0000000000
     57334      2901  TIP3      H1            -54.5215299489        0.5681605186       33.0872519837  TIP3      2501            0.0000000000
     57335      2901  TIP3      H2            -54.1465969243       -0.1194978396       34.3903008803  TIP3      2501            0.0000000000
     57336      2902  TIP3      OH2           -51.2922946204       -0.3008658383       32.5685686299  TIP3      2502            0.0000000000
     57337      2902  TIP3      H1            -52.1922354786       -0.2046705718       32.9639345338  TIP3      2502            0.0000000000
     57338      2902  TIP3      H2            -51.3840917737        0.2548292282       31.7777821061  TIP3      2502            0.0000000000
     57339      2903  TIP3      OH2           -46.6081081128       -0.4195486625       31.7367685707  TIP3      2503            0.0000000000
     57340      2903  TIP3      H1            -47.0687020092        0.1246306788       31.0833334424  TIP3      2503            0.0000000000
     57341      2903  TIP3      H2            -46.4567985144        0.2106482482       32.4720414645  TIP3      2503            0.0000000000
     57342      2904  TIP3      OH2           -44.2904070925       -1.5663689650       32.7109886005  TIP3      2504            0.0000000000
     57343      2904  TIP3      H1            -45.1842870863       -1.3435793208       32.4061031028  TIP3      2504            0.0000000000
     57344      2904  TIP3      H2            -43.8526310627       -0.7007092975       32.6307121418  TIP3      2504            0.0000000000
     57345      2905  TIP3      OH2           -41.7030201491        0.0018361066       32.9934486390  TIP3      2505            0.0000000000
     57346      2905  TIP3      H1            -41.8377526389        0.9543530435       32.7590057204  TIP3      2505            0.0000000000
     57347      2905  TIP3      H2            -41.5111268160       -0.3763295603       32.1158212123  TIP3      2505            0.0000000000
     57348      2906  TIP3      OH2           -54.3278181683       -1.2422307022       30.4297797491  TIP3      2506            0.0000000000
     57349      2906  TIP3      H1            -54.3831211016       -1.7033367434       31.2978486656  TIP3      2506            0.0000000000
     57350      2906  TIP3      H2            -53.5283913595       -1.6147326503       30.0259003633  TIP3      2506            0.0000000000
     57351      2907  TIP3      OH2           -52.2520101803       -2.5473572424       29.0843728784  TIP3      2507            0.0000000000
     57352      2907  TIP3      H1            -52.4351911150       -3.4828468694       29.2868806006  TIP3      2507            0.0000000000
     57353      2907  TIP3      H2            -51.4043742830       -2.4120746024       29.5617960271  TIP3      2507            0.0000000000
     57354      2908  TIP3      OH2           -49.6760996339       -2.0695238301       29.9500760391  TIP3      2508            0.0000000000
     57355      2908  TIP3      H1            -49.4836418592       -2.9847946909       29.6767655367  TIP3      2508            0.0000000000
     57356      2908  TIP3      H2            -49.6186756147       -2.1300428034       30.9125301605  TIP3      2508            0.0000000000
     57357      2909  TIP3      OH2           -46.1850933800      -16.4110040236       29.0978173593  TIP3      2509            0.0000000000
     57358      2909  TIP3      H1            -46.8661389191      -17.0518508676       29.3548229877  TIP3      2509            0.0000000000
     57359      2909  TIP3      H2            -45.6308532961      -16.9268518589       28.4979825757  TIP3      2509            0.0000000000
     57360      2910  TIP3      OH2           -41.0539992689      -18.3430570504       29.1987079801  TIP3      2510            0.0000000000
     57361      2910  TIP3      H1            -40.4350197164      -17.7660342849       28.6818582774  TIP3      2510            0.0000000000
     57362      2910  TIP3      H2            -41.9301463192      -17.9979425627       28.9491679307  TIP3      2510            0.0000000000
     57363      2911  TIP3      OH2           -39.3610726326      -17.1512992530       27.5055856826  TIP3      2511            0.0000000000
     57364      2911  TIP3      H1            -38.6962512975      -17.6954399084       27.0176233610  TIP3      2511            0.0000000000
     57365      2911  TIP3      H2            -38.9075130614      -16.2843561832       27.5565532335  TIP3      2511            0.0000000000
     57366      2912  TIP3      OH2           -53.8506938920      -17.7728023111       26.9359513904  TIP3      2512            0.0000000000
     57367      2912  TIP3      H1            -54.6350884465      -18.0384971321       26.4156388387  TIP3      2512            0.0000000000
     57368      2912  TIP3      H2            -53.3365755235      -18.6113420045       26.9016753128  TIP3      2512            0.0000000000
     57369      2913  TIP3      OH2           -55.0154139766      -18.0036707299       22.7224625279  TIP3      2513            0.0000000000
     57370      2913  TIP3      H1            -54.5993491288      -17.3871926728       22.1154550725  TIP3      2513            0.0000000000
     57371      2913  TIP3      H2            -55.6691769749      -17.4735130269       23.1947619640  TIP3      2513            0.0000000000
     57372      2914  TIP3      OH2           -49.3140777234      -17.8658911163       26.7235261533  TIP3      2514            0.0000000000
     57373      2914  TIP3      H1            -48.4167552353      -17.4855663089       26.6878031656  TIP3      2514            0.0000000000
     57374      2914  TIP3      H2            -49.4054119391      -18.0699931148       27.6525293697  TIP3      2514            0.0000000000
     57375      2915  TIP3      OH2           -43.6879248344      -17.8294676558       28.3732613797  TIP3      2515            0.0000000000
     57376      2915  TIP3      H1            -43.6622116854      -17.7388122309       27.4155112779  TIP3      2515            0.0000000000
     57377      2915  TIP3      H2            -44.0068317985      -18.7497883328       28.4950814428  TIP3      2515            0.0000000000
     57378      2916  TIP3      OH2           -42.3702824912      -17.8036758106       24.0798677243  TIP3      2516            0.0000000000
     57379      2916  TIP3      H1            -43.0872673383      -17.1941959560       23.8512455093  TIP3      2516            0.0000000000
     57380      2916  TIP3      H2            -42.8186747890      -18.6637180101       24.2183861736  TIP3      2516            0.0000000000
     57381      2917  TIP3      OH2           -55.0218095335       -2.0874678067       23.6673708377  TIP3      2517            0.0000000000
     57382      2917  TIP3      H1            -55.7677974777       -2.1015188607       23.0129301797  TIP3      2517            0.0000000000
     57383      2917  TIP3      H2            -55.1132699236       -1.1512691108       23.8970693701  TIP3      2517            0.0000000000
     57384      2918  TIP3      OH2           -48.1617892850      -15.8058499205       23.5868907027  TIP3      2518            0.0000000000
     57385      2918  TIP3      H1            -47.9623234057      -16.4232424093       24.3018710784  TIP3      2518            0.0000000000
     57386      2918  TIP3      H2            -48.1746886008      -14.9541697335       24.0754810601  TIP3      2518            0.0000000000
     57387      2919  TIP3      OH2           -39.5503396064       -1.2621317697       24.7146454093  TIP3      2519            0.0000000000
     57388      2919  TIP3      H1            -39.7574996711       -2.0388127607       24.1422266788  TIP3      2519            0.0000000000
     57389      2919  TIP3      H2            -39.6059012897       -0.5163995946       24.0854805623  TIP3      2519            0.0000000000
     57390      2920  TIP3      OH2           -53.9633409300      -17.2463083747       36.4340874838  TIP3      2520            0.0000000000
     57391      2920  TIP3      H1            -54.2297170736      -18.0712433593       36.8350307067  TIP3      2520            0.0000000000
     57392      2920  TIP3      H2            -53.0047579090      -17.2535898485       36.7209282291  TIP3      2520            0.0000000000
     57393      2921  TIP3      OH2           -51.9385186275      -17.8768990949       37.9929163290  TIP3      2521            0.0000000000
     57394      2921  TIP3      H1            -51.0338440851      -18.2063889511       37.7878639340  TIP3      2521            0.0000000000
     57395      2921  TIP3      H2            -52.3039688443      -18.6684980829       38.4407038331  TIP3      2521            0.0000000000
     57396      2922  TIP3      OH2           -43.5235300608      -18.5771276987       38.1643059256  TIP3      2522            0.0000000000
     57397      2922  TIP3      H1            -43.4254968215      -19.0375476715       39.0196494701  TIP3      2522            0.0000000000
     57398      2922  TIP3      H2            -42.6072046816      -18.5906596148       37.8194377184  TIP3      2522            0.0000000000
     57399      2923  TIP3      OH2           -40.3202171963       -2.5363563348       36.8520294658  TIP3      2523            0.0000000000
     57400      2923  TIP3      H1            -41.1235747965       -2.6879629523       36.3081213204  TIP3      2523            0.0000000000
     57401      2923  TIP3      H2            -40.4198666272       -1.5801072815       37.0488537969  TIP3      2523            0.0000000000
     57402      2924  TIP3      OH2           -25.9055724450       -8.6520821074       26.8492897675  TIP3      2524            0.0000000000
     57403      2924  TIP3      H1            -25.8583279286       -7.6765743489       26.7532083590  TIP3      2524            0.0000000000
     57404      2924  TIP3      H2            -26.5843418575       -8.8951167727       26.2044021151  TIP3      2524            0.0000000000
     57405      2925  TIP3      OH2           -26.9988474331       -9.3752027002       30.3186646166  TIP3      2525            0.0000000000
     57406      2925  TIP3      H1            -27.0465397956      -10.0534792544       30.9954056820  TIP3      2525            0.0000000000
     57407      2925  TIP3      H2            -27.3320184698       -9.8590737897       29.5332733659  TIP3      2525            0.0000000000
     57408      2926  TIP3      OH2           -34.6949453754       -9.7193022084       31.7657427062  TIP3      2526            0.0000000000
     57409      2926  TIP3      H1            -34.7141773015      -10.4021848533       32.4613850714  TIP3      2526            0.0000000000
     57410      2926  TIP3      H2            -33.9707134702       -9.1052612804       31.9804541179  TIP3      2526            0.0000000000
     57411      2927  TIP3      OH2           -23.3035768418       -6.4463143024       28.5880937053  TIP3      2527            0.0000000000
     57412      2927  TIP3      H1            -23.7388274825       -7.1603210162       29.0551943561  TIP3      2527            0.0000000000
     57413      2927  TIP3      H2            -23.3037226630       -5.7196983186       29.2383316015  TIP3      2527            0.0000000000
     57414      2928  TIP3      OH2           -33.7237882907       -5.2993161931       30.4162991888  TIP3      2528            0.0000000000
     57415      2928  TIP3      H1            -34.0632463433       -6.1274712024       30.0355321573  TIP3      2528            0.0000000000
     57416      2928  TIP3      H2            -32.7656769597       -5.4734327434       30.4381882534  TIP3      2528            0.0000000000
     57417      2929  TIP3      OH2           -37.0848694979      -11.6900428374       25.8167775451  TIP3      2529            0.0000000000
     57418      2929  TIP3      H1            -37.5341898783      -10.8169824513       25.7937401420  TIP3      2529            0.0000000000
     57419      2929  TIP3      H2            -37.6685551799      -12.2410222662       25.2886254683  TIP3      2529            0.0000000000
     57420      2930  TIP3      OH2           -36.4026129189       -9.4805208349       27.9623471641  TIP3      2530            0.0000000000
     57421      2930  TIP3      H1            -36.1529320909      -10.2856203413       28.4510981141  TIP3      2530            0.0000000000
     57422      2930  TIP3      H2            -35.6625347734       -9.3974994859       27.3341820328  TIP3      2530            0.0000000000
     57423      2931  TIP3      OH2           -26.1994917142       -1.3060866562       28.8144918967  TIP3      2531            0.0000000000
     57424      2931  TIP3      H1            -25.5582694775       -2.0130908268       28.5409018190  TIP3      2531            0.0000000000
     57425      2931  TIP3      H2            -26.3960284729       -1.5824123056       29.7084823527  TIP3      2531            0.0000000000
     57426      2932  TIP3      OH2           -28.6307751201       -6.9715626740       30.7377480828  TIP3      2532            0.0000000000
     57427      2932  TIP3      H1            -28.3025502427       -7.6258154797       30.0996440809  TIP3      2532            0.0000000000
     57428      2932  TIP3      H2            -27.8601457624       -6.8199015098       31.2963765746  TIP3      2532            0.0000000000
     57429      2933  TIP3      OH2           -19.9893313795      -15.3475295002       31.5328459468  TIP3      2533            0.0000000000
     57430      2933  TIP3      H1            -19.8793316036      -14.7360022904       32.2904738212  TIP3      2533            0.0000000000
     57431      2933  TIP3      H2            -19.4972102821      -14.8956260697       30.8374182780  TIP3      2533            0.0000000000
     57432      2934  TIP3      OH2           -25.4715633732      -12.5184350052       31.0667487548  TIP3      2534            0.0000000000
     57433      2934  TIP3      H1            -25.3218998043      -13.4905347916       31.0559061336  TIP3      2534            0.0000000000
     57434      2934  TIP3      H2            -25.5746690080      -12.3715094972       30.1008133889  TIP3      2534            0.0000000000
     57435      2935  TIP3      OH2           -32.3301032559      -14.4449689040       28.3124760759  TIP3      2535            0.0000000000
     57436      2935  TIP3      H1            -32.2643792462      -13.5915979997       27.8532850644  TIP3      2535            0.0000000000
     57437      2935  TIP3      H2            -32.7680084320      -15.0081681572       27.6395513087  TIP3      2535            0.0000000000
     57438      2936  TIP3      OH2           -24.6137444326      -14.3266925251       26.6903038234  TIP3      2536            0.0000000000
     57439      2936  TIP3      H1            -23.9415813618      -14.6590687715       27.3317399012  TIP3      2536            0.0000000000
     57440      2936  TIP3      H2            -24.0653084763      -13.7958872702       26.0947563457  TIP3      2536            0.0000000000
     57441      2937  TIP3      OH2           -35.7108627960      -12.0251019658       29.0645550873  TIP3      2537            0.0000000000
     57442      2937  TIP3      H1            -35.0447399589      -12.6054924689       29.4839576187  TIP3      2537            0.0000000000
     57443      2937  TIP3      H2            -35.6507082435      -12.3311722372       28.1433586673  TIP3      2537            0.0000000000
     57444      2938  TIP3      OH2           -30.5600324299      -10.4789228740       28.3271576280  TIP3      2538            0.0000000000
     57445      2938  TIP3      H1            -29.9076956796      -11.0489767341       28.7678835325  TIP3      2538            0.0000000000
     57446      2938  TIP3      H2            -31.1100718535      -11.1451017606       27.8642260779  TIP3      2538            0.0000000000
     57447      2939  TIP3      OH2           -19.5545281646      -13.8826437651       33.7741851292  TIP3      2539            0.0000000000
     57448      2939  TIP3      H1            -20.2402414413      -13.1890468204       33.6974732893  TIP3      2539            0.0000000000
     57449      2939  TIP3      H2            -19.5457685378      -14.0472451432       34.7287550982  TIP3      2539            0.0000000000
     57450      2940  TIP3      OH2           -33.4674513512      -15.5278711103       32.3646869999  TIP3      2540            0.0000000000
     57451      2940  TIP3      H1            -33.7345679222      -14.9924408686       31.5955075822  TIP3      2540            0.0000000000
     57452      2940  TIP3      H2            -34.1675905363      -15.3111815684       33.0275541154  TIP3      2540            0.0000000000
     57453      2941  TIP3      OH2           -26.1417420887       -6.0485007686       25.9019310269  TIP3      2541            0.0000000000
     57454      2941  TIP3      H1            -26.4590299124       -6.3378148204       25.0446120188  TIP3      2541            0.0000000000
     57455      2941  TIP3      H2            -26.4617766032       -5.1208874787       25.9570147510  TIP3      2541            0.0000000000
     57456      2942  TIP3      OH2           -30.9366083745       -7.8979084545       32.6376679756  TIP3      2542            0.0000000000
     57457      2942  TIP3      H1            -31.6504442681       -7.2360674454       32.7777068480  TIP3      2542            0.0000000000
     57458      2942  TIP3      H2            -30.2317577331       -7.2968584854       32.3253179096  TIP3      2542            0.0000000000
     57459      2943  TIP3      OH2           -22.8303009317      -15.0181414632       28.6721226645  TIP3      2543            0.0000000000
     57460      2943  TIP3      H1            -23.0356629538      -15.7893291134       29.2112016805  TIP3      2543            0.0000000000
     57461      2943  TIP3      H2            -22.1573783743      -14.5650791969       29.2080275306  TIP3      2543            0.0000000000
     57462      2944  TIP3      OH2           -33.9146548869      -13.6547725367       30.3491696392  TIP3      2544            0.0000000000
     57463      2944  TIP3      H1            -33.2646624581      -13.0046647076       30.6855487968  TIP3      2544            0.0000000000
     57464      2944  TIP3      H2            -33.3817736142      -14.1128466166       29.6493270519  TIP3      2544            0.0000000000
     57465      2945  TIP3      OH2           -32.5055602405       -5.9180427676       33.4194042873  TIP3      2545            0.0000000000
     57466      2945  TIP3      H1            -32.5317055853       -4.9984345213       33.0705830200  TIP3      2545            0.0000000000
     57467      2945  TIP3      H2            -33.3873600597       -5.9587510826       33.8709196241  TIP3      2545            0.0000000000
     57468      2946  TIP3      OH2           -36.4041608244       -6.2452873302       24.2151426007  TIP3      2546            0.0000000000
     57469      2946  TIP3      H1            -36.6798652400       -5.9732688116       23.3232173836  TIP3      2546            0.0000000000
     57470      2946  TIP3      H2            -36.3510909324       -5.3952120450       24.6968171195  TIP3      2546            0.0000000000
     57471      2947  TIP3      OH2           -22.7852200556       -4.6203683875       30.9585972560  TIP3      2547            0.0000000000
     57472      2947  TIP3      H1            -23.7476333918       -4.5119520940       31.0858667589  TIP3      2547            0.0000000000
     57473      2947  TIP3      H2            -22.5132009236       -3.6929829677       30.7834331567  TIP3      2547            0.0000000000
     57474      2948  TIP3      OH2           -22.4765823164      -16.3190248526       32.3576408275  TIP3      2548            0.0000000000
     57475      2948  TIP3      H1            -23.2121518875      -15.6963320073       32.2958765852  TIP3      2548            0.0000000000
     57476      2948  TIP3      H2            -21.7808988142      -15.8973532003       31.8231636025  TIP3      2548            0.0000000000
     57477      2949  TIP3      OH2           -29.4817305672      -18.2136189701       29.8137314769  TIP3      2549            0.0000000000
     57478      2949  TIP3      H1            -29.6107090322      -19.1802404089       29.7575234829  TIP3      2549            0.0000000000
     57479      2949  TIP3      H2            -30.3581690607      -17.8979860549       30.1065987107  TIP3      2549            0.0000000000
     57480      2950  TIP3      OH2           -24.5372112229       -2.8267539707       27.5745834892  TIP3      2550            0.0000000000
     57481      2950  TIP3      H1            -24.0961344767       -3.5345520429       27.0646971719  TIP3      2550            0.0000000000
     57482      2950  TIP3      H2            -24.1739085403       -2.0228096197       27.1467866327  TIP3      2550            0.0000000000
     57483      2951  TIP3      OH2           -23.3515436204       -4.8963816128       26.0602195092  TIP3      2551            0.0000000000
     57484      2951  TIP3      H1            -23.6314674325       -5.6080111137       25.4639364281  TIP3      2551            0.0000000000
     57485      2951  TIP3      H2            -23.2974277152       -5.3774789823       26.9074926654  TIP3      2551            0.0000000000
     57486      2952  TIP3      OH2           -21.7179477785       -6.3341947154       34.5535523130  TIP3      2552            0.0000000000
     57487      2952  TIP3      H1            -21.5320929425       -6.9502636603       33.8140772661  TIP3      2552            0.0000000000
     57488      2952  TIP3      H2            -21.5022530240       -5.4666107939       34.1668166036  TIP3      2552            0.0000000000
     57489      2953  TIP3      OH2           -27.1941690529       -9.4296011022       24.3170198031  TIP3      2553            0.0000000000
     57490      2953  TIP3      H1            -27.9249952033       -8.8566322282       23.9757083627  TIP3      2553            0.0000000000
     57491      2953  TIP3      H2            -26.5215032666       -9.3063636812       23.6498947836  TIP3      2553            0.0000000000
     57492      2954  TIP3      OH2           -27.1624021380      -10.9387490088       21.3971939924  TIP3      2554            0.0000000000
     57493      2954  TIP3      H1            -26.4435288079      -10.9343113464       22.0124832970  TIP3      2554            0.0000000000
     57494      2954  TIP3      H2            -26.8463325969      -11.5486755740       20.7100550922  TIP3      2554            0.0000000000
     57495      2955  TIP3      OH2           -19.8209568582      -10.0166453960       32.6102774584  TIP3      2555            0.0000000000
     57496      2955  TIP3      H1            -20.4894921912       -9.3009291914       32.6887916129  TIP3      2555            0.0000000000
     57497      2955  TIP3      H2            -19.3709497515       -9.7692630998       31.8002353990  TIP3      2555            0.0000000000
     57498      2956  TIP3      OH2           -23.7944808952       -9.1791046104       25.2489388959  TIP3      2556            0.0000000000
     57499      2956  TIP3      H1            -24.5315127741       -8.9548595231       25.8613918358  TIP3      2556            0.0000000000
     57500      2956  TIP3      H2            -23.3338816946       -9.8846267596       25.7391887761  TIP3      2556            0.0000000000
     57501      2957  TIP3      OH2           -23.8669460241      -11.0173481880       34.3483447702  TIP3      2557            0.0000000000
     57502      2957  TIP3      H1            -23.8204885948      -10.2386926905       34.9222666474  TIP3      2557            0.0000000000
     57503      2957  TIP3      H2            -24.4968073244      -10.7460410873       33.6563240598  TIP3      2557            0.0000000000
     57504      2958  TIP3      OH2           -32.1632065948       -8.5361352992       27.1697624741  TIP3      2558            0.0000000000
     57505      2958  TIP3      H1            -32.4890145701       -8.9322196535       26.3276302493  TIP3      2558            0.0000000000
     57506      2958  TIP3      H2            -31.5513556051       -9.2320851948       27.4989513389  TIP3      2558            0.0000000000
     57507      2959  TIP3      OH2           -30.8186175541       -5.1259054739       29.8424027665  TIP3      2559            0.0000000000
     57508      2959  TIP3      H1            -30.8668123371       -5.6954715416       29.0630263306  TIP3      2559            0.0000000000
     57509      2959  TIP3      H2            -30.0545991590       -5.5036364443       30.3156778289  TIP3      2559            0.0000000000
     57510      2960  TIP3      OH2           -31.8228391214       -9.7945388695       30.8300326250  TIP3      2560            0.0000000000
     57511      2960  TIP3      H1            -31.2488390330       -9.6754548550       30.0271074710  TIP3      2560            0.0000000000
     57512      2960  TIP3      H2            -31.4338614695       -9.1201563098       31.4208394629  TIP3      2560            0.0000000000
     57513      2961  TIP3      OH2           -25.4375825221       -4.2250679078       31.5125780015  TIP3      2561            0.0000000000
     57514      2961  TIP3      H1            -25.7173102484       -3.5933024951       32.1769108517  TIP3      2561            0.0000000000
     57515      2961  TIP3      H2            -25.6837458290       -5.0776619713       31.9393459078  TIP3      2561            0.0000000000
     57516      2962  TIP3      OH2           -30.8905773633       -5.3886591921       35.5158294677  TIP3      2562            0.0000000000
     57517      2962  TIP3      H1            -31.2469053187       -4.6072679306       35.9833976448  TIP3      2562            0.0000000000
     57518      2962  TIP3      H2            -31.5627439650       -5.5361074044       34.8152282865  TIP3      2562            0.0000000000
     57519      2963  TIP3      OH2           -34.0415465401       -9.1041495374       34.9224188211  TIP3      2563            0.0000000000
     57520      2963  TIP3      H1            -33.9512844047       -8.3755563139       35.5619018542  TIP3      2563            0.0000000000
     57521      2963  TIP3      H2            -34.9194948338       -9.0061700501       34.5118717965  TIP3      2563            0.0000000000
     57522      2964  TIP3      OH2           -27.1926422693       -3.2806076039       26.3808647495  TIP3      2564            0.0000000000
     57523      2964  TIP3      H1            -26.7383112519       -2.9773061485       27.1746750175  TIP3      2564            0.0000000000
     57524      2964  TIP3      H2            -27.7663020322       -2.5386816545       26.1525409815  TIP3      2564            0.0000000000
     57525      2965  TIP3      OH2           -32.6485699078       -3.3154794249       36.2736812750  TIP3      2565            0.0000000000
     57526      2965  TIP3      H1            -32.6759658276       -3.4419912360       35.3110307172  TIP3      2565            0.0000000000
     57527      2965  TIP3      H2            -33.5864102988       -3.4467519367       36.5216124091  TIP3      2565            0.0000000000
     57528      2966  TIP3      OH2           -33.1664448499       -9.4961757653       24.7563567581  TIP3      2566            0.0000000000
     57529      2966  TIP3      H1            -33.4631560317       -8.7111104882       24.2472248710  TIP3      2566            0.0000000000
     57530      2966  TIP3      H2            -33.8476975628      -10.1480861214       24.5735149040  TIP3      2566            0.0000000000
     57531      2967  TIP3      OH2           -37.0739858915       -7.1011504510       33.6066445553  TIP3      2567            0.0000000000
     57532      2967  TIP3      H1            -37.5609799219       -7.1575383807       32.7699415004  TIP3      2567            0.0000000000
     57533      2967  TIP3      H2            -37.0609177628       -8.0351711606       33.8797255314  TIP3      2567            0.0000000000
     57534      2968  TIP3      OH2           -37.3381873134       -4.3588490477       30.4524117519  TIP3      2568            0.0000000000
     57535      2968  TIP3      H1            -36.3741154286       -4.4716621065       30.4252120856  TIP3      2568            0.0000000000
     57536      2968  TIP3      H2            -37.4220727577       -3.5434298300       30.9710477229  TIP3      2568            0.0000000000
     57537      2969  TIP3      OH2           -19.1035729567       -3.6582883488       36.1135596159  TIP3      2569            0.0000000000
     57538      2969  TIP3      H1            -19.1971406407       -4.6217279124       36.1071267121  TIP3      2569            0.0000000000
     57539      2969  TIP3      H2            -19.9633443377       -3.4093360289       36.5379369954  TIP3      2569            0.0000000000
     57540      2970  TIP3      OH2           -28.1329470078       -4.1181631695       34.9979464870  TIP3      2570            0.0000000000
     57541      2970  TIP3      H1            -28.0692305405       -3.2647861359       35.4980594111  TIP3      2570            0.0000000000
     57542      2970  TIP3      H2            -29.0202920602       -4.4367980205       35.2555164956  TIP3      2570            0.0000000000
     57543      2971  TIP3      OH2           -27.7116520359       -0.3524727653       24.7981823326  TIP3      2571            0.0000000000
     57544      2971  TIP3      H1            -27.8169900846       -0.4501568951       23.8504061962  TIP3      2571            0.0000000000
     57545      2971  TIP3      H2            -27.6970553955        0.6089396729       24.9460459398  TIP3      2571            0.0000000000
     57546      2972  TIP3      OH2           -34.0724104742       -1.4979242791       26.6085994321  TIP3      2572            0.0000000000
     57547      2972  TIP3      H1            -33.9258088379       -1.9013723718       27.4885185021  TIP3      2572            0.0000000000
     57548      2972  TIP3      H2            -34.9189707780       -1.8975309992       26.3568810120  TIP3      2572            0.0000000000
     57549      2973  TIP3      OH2           -24.9491670427       -1.2067362578       24.5868160878  TIP3      2573            0.0000000000
     57550      2973  TIP3      H1            -25.9058790531       -1.1570600652       24.7463622943  TIP3      2573            0.0000000000
     57551      2973  TIP3      H2            -24.6918764480       -1.9664320084       25.1230475912  TIP3      2573            0.0000000000
     57552      2974  TIP3      OH2           -21.9642239829      -12.1780523934       36.6117636670  TIP3      2574            0.0000000000
     57553      2974  TIP3      H1            -22.3972942740      -11.7131103815       35.8853492033  TIP3      2574            0.0000000000
     57554      2974  TIP3      H2            -21.9461056995      -13.0937862755       36.2961236030  TIP3      2574            0.0000000000
     57555      2975  TIP3      OH2           -34.8118983714       -5.8029189354       34.5960997731  TIP3      2575            0.0000000000
     57556      2975  TIP3      H1            -34.6040798858       -6.1423911390       35.4890312199  TIP3      2575            0.0000000000
     57557      2975  TIP3      H2            -35.6956050993       -6.1657865697       34.3983239441  TIP3      2575            0.0000000000
     57558      2976  TIP3      OH2           -32.1643942570      -17.3217872004       30.5859685231  TIP3      2576            0.0000000000
     57559      2976  TIP3      H1            -33.0636040904      -17.4140325203       30.1946388322  TIP3      2576            0.0000000000
     57560      2976  TIP3      H2            -32.2467156714      -16.4663506963       31.0342913103  TIP3      2576            0.0000000000
     57561      2977  TIP3      OH2           -27.5152926822      -17.6092226912       33.9504501208  TIP3      2577            0.0000000000
     57562      2977  TIP3      H1            -27.1128983991      -18.0349157197       34.7285031491  TIP3      2577            0.0000000000
     57563      2977  TIP3      H2            -28.4815783347      -17.7728420810       34.0868174236  TIP3      2577            0.0000000000
     57564      2978  TIP3      OH2           -24.2043189546      -13.8231195575       34.8209824941  TIP3      2578            0.0000000000
     57565      2978  TIP3      H1            -24.7481136219      -13.9904568126       35.6283750732  TIP3      2578            0.0000000000
     57566      2978  TIP3      H2            -24.3756505214      -12.9076750607       34.5850158294  TIP3      2578            0.0000000000
     57567      2979  TIP3      OH2           -32.0752917298      -12.3404325104       31.7596926176  TIP3      2579            0.0000000000
     57568      2979  TIP3      H1            -32.7728805454      -12.4114753157       32.4218800739  TIP3      2579            0.0000000000
     57569      2979  TIP3      H2            -32.0734617259      -11.4236652074       31.4218090536  TIP3      2579            0.0000000000
     57570      2980  TIP3      OH2           -32.0952635263      -12.1580225329       26.6473994792  TIP3      2580            0.0000000000
     57571      2980  TIP3      H1            -33.0162622434      -12.4745975197       26.5408624111  TIP3      2580            0.0000000000
     57572      2980  TIP3      H2            -31.6770018266      -12.5170683698       25.8407751915  TIP3      2580            0.0000000000
     57573      2981  TIP3      OH2           -26.5776920368      -11.7329078536       25.4248280484  TIP3      2581            0.0000000000
     57574      2981  TIP3      H1            -26.9806880896      -10.8913283509       25.1259353497  TIP3      2581            0.0000000000
     57575      2981  TIP3      H2            -25.8539285322      -11.8692791664       24.7995688160  TIP3      2581            0.0000000000
     57576      2982  TIP3      OH2           -27.4766150338      -11.5133993593       36.8903201338  TIP3      2582            0.0000000000
     57577      2982  TIP3      H1            -28.0354642209      -12.2621755125       37.2167678768  TIP3      2582            0.0000000000
     57578      2982  TIP3      H2            -26.6530138211      -11.6578124017       37.3849172330  TIP3      2582            0.0000000000
     57579      2983  TIP3      OH2           -25.5520980586      -12.2476662306       28.2707983767  TIP3      2583            0.0000000000
     57580      2983  TIP3      H1            -25.7826064721      -11.6681710855       27.5264841891  TIP3      2583            0.0000000000
     57581      2983  TIP3      H2            -25.4057110063      -13.0977303385       27.8062451332  TIP3      2583            0.0000000000
     57582      2984  TIP3      OH2           -34.4042537877      -12.0762060545       33.5448364894  TIP3      2584            0.0000000000
     57583      2984  TIP3      H1            -34.4129884650      -11.7157167997       34.4527553827  TIP3      2584            0.0000000000
     57584      2984  TIP3      H2            -34.8746325711      -12.9182950054       33.6784738666  TIP3      2584            0.0000000000
     57585      2985  TIP3      OH2           -37.7633508084      -14.9325823082       27.4379370220  TIP3      2585            0.0000000000
     57586      2985  TIP3      H1            -37.1008068603      -14.9711878643       28.1547135810  TIP3      2585            0.0000000000
     57587      2985  TIP3      H2            -37.3023891966      -15.3500214670       26.6863185727  TIP3      2585            0.0000000000
     57588      2986  TIP3      OH2           -36.4890112119      -14.2066773470       22.8148930757  TIP3      2586            0.0000000000
     57589      2986  TIP3      H1            -35.9872957421      -13.5822246090       22.2928774084  TIP3      2586            0.0000000000
     57590      2986  TIP3      H2            -37.1811875695      -13.6298192570       23.1988742374  TIP3      2586            0.0000000000
     57591      2987  TIP3      OH2           -26.2897838366      -10.5974706749       32.9040791076  TIP3      2587            0.0000000000
     57592      2987  TIP3      H1            -25.9768290963      -11.2905590541       32.2673929216  TIP3      2587            0.0000000000
     57593      2987  TIP3      H2            -26.7664227101      -11.1762507235       33.5471231757  TIP3      2587            0.0000000000
     57594      2988  TIP3      OH2           -29.5263888261      -14.6895139106       27.6882184203  TIP3      2588            0.0000000000
     57595      2988  TIP3      H1            -30.4593405892      -14.6538721334       27.9875838758  TIP3      2588            0.0000000000
     57596      2988  TIP3      H2            -29.0303991104      -14.7898163997       28.5132920277  TIP3      2588            0.0000000000
     57597      2989  TIP3      OH2           -34.7024976812      -13.0887055621       26.5333533003  TIP3      2589            0.0000000000
     57598      2989  TIP3      H1            -35.6034256060      -12.9703631686       26.1729078651  TIP3      2589            0.0000000000
     57599      2989  TIP3      H2            -34.4130357243      -13.9351862597       26.1583507408  TIP3      2589            0.0000000000
     57600      2990  TIP3      OH2           -31.0661485552      -13.0688655367       24.1899211220  TIP3      2590            0.0000000000
     57601      2990  TIP3      H1            -30.1117168430      -12.9561184712       24.3523506724  TIP3      2590            0.0000000000
     57602      2990  TIP3      H2            -31.2899398983      -12.3980903915       23.5198582916  TIP3      2590            0.0000000000
     57603      2991  TIP3      OH2           -25.1145347991      -15.4533517311       30.9422149740  TIP3      2591            0.0000000000
     57604      2991  TIP3      H1            -25.8107291736      -15.3552635561       31.6270891677  TIP3      2591            0.0000000000
     57605      2991  TIP3      H2            -25.6210404451      -15.6479754453       30.1424089078  TIP3      2591            0.0000000000
     57606      2992  TIP3      OH2           -32.3600463135      -11.9335266390       21.8108715827  TIP3      2592            0.0000000000
     57607      2992  TIP3      H1            -32.9089779391      -12.2399518004       21.0668183303  TIP3      2592            0.0000000000
     57608      2992  TIP3      H2            -31.5636573633      -11.6875466747       21.3052614341  TIP3      2592            0.0000000000
     57609      2993  TIP3      OH2           -21.8844986701        0.2030253171       37.2583988604  TIP3      2593            0.0000000000
     57610      2993  TIP3      H1            -21.6360482071        0.6128887390       36.4065538821  TIP3      2593            0.0000000000
     57611      2993  TIP3      H2            -21.1809747535        0.5402552789       37.8423096189  TIP3      2593            0.0000000000
     57612      2994  TIP3      OH2           -34.2268379858       -7.3187471042       36.8292684417  TIP3      2594            0.0000000000
     57613      2994  TIP3      H1            -33.5158225167       -7.0641238426       37.4385298596  TIP3      2594            0.0000000000
     57614      2994  TIP3      H2            -35.0246493004       -7.1568172529       37.3882861106  TIP3      2594            0.0000000000
     57615      2995  TIP3      OH2           -28.2275875205      -11.9111678195       29.5801767199  TIP3      2595            0.0000000000
     57616      2995  TIP3      H1            -27.6465466762      -12.4594173555       29.0377364713  TIP3      2595            0.0000000000
     57617      2995  TIP3      H2            -28.3695917328      -12.4507082543       30.3689863239  TIP3      2595            0.0000000000
     57618      2996  TIP3      OH2           -33.2206776663      -15.7707859284       26.0121374778  TIP3      2596            0.0000000000
     57619      2996  TIP3      H1            -33.5305478443      -16.6943295741       25.9698699307  TIP3      2596            0.0000000000
     57620      2996  TIP3      H2            -32.4328444130      -15.7995402898       25.4489485074  TIP3      2596            0.0000000000
     57621      2997  TIP3      OH2           -29.5895754823      -13.5569074518       31.9893012900  TIP3      2597            0.0000000000
     57622      2997  TIP3      H1            -30.4229820416      -13.0728662139       32.0957772025  TIP3      2597            0.0000000000
     57623      2997  TIP3      H2            -29.0467301952      -13.2454393134       32.7407196723  TIP3      2597            0.0000000000
     57624      2998  TIP3      OH2           -28.9862908971       -7.3700342045       23.6855910194  TIP3      2598            0.0000000000
     57625      2998  TIP3      H1            -29.8030473591       -7.8081614375       23.3626429377  TIP3      2598            0.0000000000
     57626      2998  TIP3      H2            -29.2008025930       -7.2392478085       24.6278853520  TIP3      2598            0.0000000000
     57627      2999  TIP3      OH2           -21.8715403928       -8.1821553750       32.4889104700  TIP3      2599            0.0000000000
     57628      2999  TIP3      H1            -21.2573561310       -7.7048425453       31.9000183002  TIP3      2599            0.0000000000
     57629      2999  TIP3      H2            -22.6983927691       -8.0820644088       31.9856025310  TIP3      2599            0.0000000000
     57630      3000  TIP3      OH2           -25.1563793546      -14.5110506863       21.8821752962  TIP3      2600            0.0000000000
     57631      3000  TIP3      H1            -26.0883864266      -14.3862063737       21.7349448934  TIP3      2600            0.0000000000
     57632      3000  TIP3      H2            -24.8417815820      -13.6459051262       22.1926809000  TIP3      2600            0.0000000000
     57633      3001  TIP3      OH2           -27.4801010119       -7.1277040573       34.9081708020  TIP3      2601            0.0000000000
     57634      3001  TIP3      H1            -27.8735541739       -7.5102836874       35.7181238489  TIP3      2601            0.0000000000
     57635      3001  TIP3      H2            -27.7497072332       -6.1940836752       35.0090212456  TIP3      2601            0.0000000000
     57636      3002  TIP3      OH2           -24.4478435359      -12.6042796552       23.5441570181  TIP3      2602            0.0000000000
     57637      3002  TIP3      H1            -23.5367172174      -12.7742429624       23.8709833005  TIP3      2602            0.0000000000
     57638      3002  TIP3      H2            -24.3407004362      -11.8343198316       22.9950316409  TIP3      2602            0.0000000000
     57639      3003  TIP3      OH2           -33.9101616156       -7.9946464032       29.4810413306  TIP3      2603            0.0000000000
     57640      3003  TIP3      H1            -33.1897370710       -8.0319243666       28.8196951479  TIP3      2603            0.0000000000
     57641      3003  TIP3      H2            -33.8404782708       -8.8504701414       29.9214613675  TIP3      2603            0.0000000000
     57642      3004  TIP3      OH2           -36.8898562205       -9.5682781749       34.7411526018  TIP3      2604            0.0000000000
     57643      3004  TIP3      H1            -36.7188361409       -9.9859028176       35.6122376225  TIP3      2604            0.0000000000
     57644      3004  TIP3      H2            -37.5329788704      -10.1799373450       34.3423253121  TIP3      2604            0.0000000000
     57645      3005  TIP3      OH2           -29.9053878751      -10.0196940636       36.9591591180  TIP3      2605            0.0000000000
     57646      3005  TIP3      H1            -30.1933380241      -10.2530616658       36.0776016531  TIP3      2605            0.0000000000
     57647      3005  TIP3      H2            -28.9628769338      -10.2907716909       36.9631492922  TIP3      2605            0.0000000000
     57648      3006  TIP3      OH2           -25.2527233187       -4.7071919844       34.8619355187  TIP3      2606            0.0000000000
     57649      3006  TIP3      H1            -26.1673757734       -4.4657084803       34.6282105060  TIP3      2606            0.0000000000
     57650      3006  TIP3      H2            -25.2446863706       -4.3881530968       35.7941067663  TIP3      2606            0.0000000000
     57651      3007  TIP3      OH2           -19.5656817916      -12.4480363195       23.2738333793  TIP3      2607            0.0000000000
     57652      3007  TIP3      H1            -20.1137798311      -12.8028256547       22.5508689252  TIP3      2607            0.0000000000
     57653      3007  TIP3      H2            -19.4445439649      -11.5217420374       22.9687591603  TIP3      2607            0.0000000000
     57654      3008  TIP3      OH2           -19.5622238824       -6.6240426382       36.0885207039  TIP3      2608            0.0000000000
     57655      3008  TIP3      H1            -20.4392869709       -6.3900674219       35.7076340250  TIP3      2608            0.0000000000
     57656      3008  TIP3      H2            -18.9931944255       -6.6488874619       35.2964807418  TIP3      2608            0.0000000000
     57657      3009  TIP3      OH2           -21.2262526854       -3.6540895501       23.6916490496  TIP3      2609            0.0000000000
     57658      3009  TIP3      H1            -21.6248230659       -4.4692699469       24.0189598796  TIP3      2609            0.0000000000
     57659      3009  TIP3      H2            -20.9722245328       -3.8269378629       22.7862720834  TIP3      2609            0.0000000000
     57660      3010  TIP3      OH2           -24.0815558244       -8.8342732176       30.7904349957  TIP3      2610            0.0000000000
     57661      3010  TIP3      H1            -25.0123428738       -9.0736373316       30.6511019710  TIP3      2610            0.0000000000
     57662      3010  TIP3      H2            -23.6280454249       -9.6014826005       30.3636572898  TIP3      2610            0.0000000000
     57663      3011  TIP3      OH2           -31.5431252877       -4.5091416223       26.8802812615  TIP3      2611            0.0000000000
     57664      3011  TIP3      H1            -31.0184503445       -3.7213128193       26.6470152134  TIP3      2611            0.0000000000
     57665      3011  TIP3      H2            -32.4178610903       -4.2731640072       26.5439791357  TIP3      2611            0.0000000000
     57666      3012  TIP3      OH2           -35.8183984784       -9.6473277164       21.6421360374  TIP3      2612            0.0000000000
     57667      3012  TIP3      H1            -35.1630697371       -8.9635624344       21.8445544924  TIP3      2612            0.0000000000
     57668      3012  TIP3      H2            -36.6936216124       -9.2752524086       21.7447012021  TIP3      2612            0.0000000000
     57669      3013  TIP3      OH2           -30.0958329685       -6.8440916448       26.4145716275  TIP3      2613            0.0000000000
     57670      3013  TIP3      H1            -30.3833960469       -5.9117064537       26.4701149086  TIP3      2613            0.0000000000
     57671      3013  TIP3      H2            -30.8533309518       -7.3049059781       26.8206791284  TIP3      2613            0.0000000000
     57672      3014  TIP3      OH2           -29.6418098394       -2.6803380615       32.7666966772  TIP3      2614            0.0000000000
     57673      3014  TIP3      H1            -29.2246729911       -1.8418564716       32.5115871139  TIP3      2614            0.0000000000
     57674      3014  TIP3      H2            -29.0563201619       -2.9890755324       33.4830414517  TIP3      2614            0.0000000000
     57675      3015  TIP3      OH2           -31.4226881079       -1.8522409191       25.9959725472  TIP3      2615            0.0000000000
     57676      3015  TIP3      H1            -32.3911918487       -1.7096943120       26.0274412011  TIP3      2615            0.0000000000
     57677      3015  TIP3      H2            -31.0774842238       -0.9968930837       26.2950629905  TIP3      2615            0.0000000000
     57678      3016  TIP3      OH2           -26.1657238755       -6.5226280560       32.3382822064  TIP3      2616            0.0000000000
     57679      3016  TIP3      H1            -26.5344987376       -6.6976809097       33.2231745984  TIP3      2616            0.0000000000
     57680      3016  TIP3      H2            -25.5170875537       -7.2103825634       32.1267664658  TIP3      2616            0.0000000000
     57681      3017  TIP3      OH2           -23.3628509467       -2.0577163867       34.9303455617  TIP3      2617            0.0000000000
     57682      3017  TIP3      H1            -24.0068023616       -2.5790023967       34.4167558828  TIP3      2617            0.0000000000
     57683      3017  TIP3      H2            -23.1275023684       -1.3731085130       34.2693297945  TIP3      2617            0.0000000000
     57684      3018  TIP3      OH2           -35.2598130427      -14.8018063844       34.3115690000  TIP3      2618            0.0000000000
     57685      3018  TIP3      H1            -36.1778457250      -14.4791605633       34.2664362694  TIP3      2618            0.0000000000
     57686      3018  TIP3      H2            -35.3753430650      -15.6673022463       34.7481555401  TIP3      2618            0.0000000000
     57687      3019  TIP3      OH2           -23.0035546970       -6.9928847805       23.7292247700  TIP3      2619            0.0000000000
     57688      3019  TIP3      H1            -23.2654970606       -7.7407285712       24.3083807685  TIP3      2619            0.0000000000
     57689      3019  TIP3      H2            -22.0653381115       -6.8906177298       23.9642225549  TIP3      2619            0.0000000000
     57690      3020  TIP3      OH2           -35.6284789710       -3.0108960358       32.7394247448  TIP3      2620            0.0000000000
     57691      3020  TIP3      H1            -35.3843429911       -3.9508270364       32.7341266310  TIP3      2620            0.0000000000
     57692      3020  TIP3      H2            -35.3790059379       -2.7413425689       33.6322908242  TIP3      2620            0.0000000000
     57693      3021  TIP3      OH2           -34.3721731182       -7.7481185082       22.9267171019  TIP3      2621            0.0000000000
     57694      3021  TIP3      H1            -35.0623081279       -7.3605922679       23.4957595577  TIP3      2621            0.0000000000
     57695      3021  TIP3      H2            -33.8567948576       -6.9603838675       22.6867371156  TIP3      2621            0.0000000000
     57696      3022  TIP3      OH2           -26.5395838198      -15.0536758835       33.2241823084  TIP3      2622            0.0000000000
     57697      3022  TIP3      H1            -25.8329561534      -14.9964126601       33.8794715671  TIP3      2622            0.0000000000
     57698      3022  TIP3      H2            -26.9201631611      -15.9371725301       33.4040485543  TIP3      2622            0.0000000000
     57699      3023  TIP3      OH2           -25.7769383158      -15.4268427485       24.3315263395  TIP3      2623            0.0000000000
     57700      3023  TIP3      H1            -25.5364012120      -14.9609448645       23.5058087210  TIP3      2623            0.0000000000
     57701      3023  TIP3      H2            -25.1954695161      -15.0217910954       24.9839747982  TIP3      2623            0.0000000000
     57702      3024  TIP3      OH2           -28.5654372234      -13.6919150122       25.1427653269  TIP3      2624            0.0000000000
     57703      3024  TIP3      H1            -27.7460566309      -13.1671843481       25.1943975530  TIP3      2624            0.0000000000
     57704      3024  TIP3      H2            -28.8102231302      -13.8411426483       26.0723660984  TIP3      2624            0.0000000000
     57705      3025  TIP3      OH2           -28.0022402168      -12.6905226179       34.3274767059  TIP3      2625            0.0000000000
     57706      3025  TIP3      H1            -27.9188462867      -12.1366400770       35.1246383244  TIP3      2625            0.0000000000
     57707      3025  TIP3      H2            -27.3603243594      -13.4051565877       34.4488584125  TIP3      2625            0.0000000000
     57708      3026  TIP3      OH2           -27.6848125219      -16.6470924299       26.0740939992  TIP3      2626            0.0000000000
     57709      3026  TIP3      H1            -28.0207778423      -15.9959488041       26.7168319980  TIP3      2626            0.0000000000
     57710      3026  TIP3      H2            -27.0079065824      -16.1031435883       25.5988284333  TIP3      2626            0.0000000000
     57711      3027  TIP3      OH2           -32.0419401629      -15.5641450851       22.7794320303  TIP3      2627            0.0000000000
     57712      3027  TIP3      H1            -32.0902431110      -14.6568818772       23.1235579133  TIP3      2627            0.0000000000
     57713      3027  TIP3      H2            -31.1252092740      -15.8058524301       23.0033573450  TIP3      2627            0.0000000000
     57714      3028  TIP3      OH2           -21.8047211748      -14.8170365250       35.1875713283  TIP3      2628            0.0000000000
     57715      3028  TIP3      H1            -22.7448678698      -14.5274237797       35.0707834975  TIP3      2628            0.0000000000
     57716      3028  TIP3      H2            -21.5013066756      -14.8167471185       34.2670740159  TIP3      2628            0.0000000000
     57717      3029  TIP3      OH2           -23.2255792956      -11.0307051605       29.2614006986  TIP3      2629            0.0000000000
     57718      3029  TIP3      H1            -24.0224179722      -11.4757865285       28.9223849439  TIP3      2629            0.0000000000
     57719      3029  TIP3      H2            -22.7616363297      -11.7488623882       29.7468317640  TIP3      2629            0.0000000000
     57720      3030  TIP3      OH2           -33.7915745778       -5.1354338014       21.8422856395  TIP3      2630            0.0000000000
     57721      3030  TIP3      H1            -33.1502476577       -4.4395185975       22.0991933071  TIP3      2630            0.0000000000
     57722      3030  TIP3      H2            -33.2781749610       -5.5292047575       21.1183337433  TIP3      2630            0.0000000000
     57723      3031  TIP3      OH2           -22.1451097241       -1.7998570779       30.8898258138  TIP3      2631            0.0000000000
     57724      3031  TIP3      H1            -22.2633827500       -1.1054807576       30.2112451069  TIP3      2631            0.0000000000
     57725      3031  TIP3      H2            -21.1845506457       -1.7201787280       31.0738938281  TIP3      2631            0.0000000000
     57726      3032  TIP3      OH2           -34.6363855901      -17.6615722118       29.6520637434  TIP3      2632            0.0000000000
     57727      3032  TIP3      H1            -34.8629430297      -17.6267952630       28.6965993006  TIP3      2632            0.0000000000
     57728      3032  TIP3      H2            -35.0790277533      -18.4883085254       29.9297386885  TIP3      2632            0.0000000000
     57729      3033  TIP3      OH2           -35.7008589218       -3.7406303908       25.8048465952  TIP3      2633            0.0000000000
     57730      3033  TIP3      H1            -36.5417844776       -3.2603531543       25.7981214578  TIP3      2633            0.0000000000
     57731      3033  TIP3      H2            -35.1755178469       -3.2406527270       25.1618839957  TIP3      2633            0.0000000000
     57732      3034  TIP3      OH2           -36.4473339313       -1.1028268644       37.1074936463  TIP3      2634            0.0000000000
     57733      3034  TIP3      H1            -35.8779038656       -1.3226815612       37.8738374478  TIP3      2634            0.0000000000
     57734      3034  TIP3      H2            -36.9009071501       -1.9424791949       36.9312566857  TIP3      2634            0.0000000000
     57735      3035  TIP3      OH2           -31.8198941755       -2.1847301994       38.7407920640  TIP3      2635            0.0000000000
     57736      3035  TIP3      H1            -31.0458789957       -2.6660210045       39.0649045331  TIP3      2635            0.0000000000
     57737      3035  TIP3      H2            -31.8349926299       -2.4396960369       37.7945728209  TIP3      2635            0.0000000000
     57738      3036  TIP3      OH2           -25.2701231771       -3.8093964987       37.4426733568  TIP3      2636            0.0000000000
     57739      3036  TIP3      H1            -25.6051251716       -4.6814801675       37.7269112700  TIP3      2636            0.0000000000
     57740      3036  TIP3      H2            -24.5207171580       -3.6765799088       38.0559839341  TIP3      2636            0.0000000000
     57741      3037  TIP3      OH2           -36.5376341395       -7.3110305895       38.0883434768  TIP3      2637            0.0000000000
     57742      3037  TIP3      H1            -36.3818365020       -8.2234086389       37.7839863337  TIP3      2637            0.0000000000
     57743      3037  TIP3      H2            -37.2991159896       -7.0389024103       37.5483173584  TIP3      2637            0.0000000000
     57744      3038  TIP3      OH2           -29.8352731897       -7.3346235256       37.4888412278  TIP3      2638            0.0000000000
     57745      3038  TIP3      H1            -30.1980258528       -7.0422929297       36.6349187353  TIP3      2638            0.0000000000
     57746      3038  TIP3      H2            -29.7324896446       -8.3042829267       37.4093101477  TIP3      2638            0.0000000000
     57747      3039  TIP3      OH2           -24.1349087176       -7.4364487510       34.8891969006  TIP3      2639            0.0000000000
     57748      3039  TIP3      H1            -23.3488233736       -6.8386199824       34.8036416204  TIP3      2639            0.0000000000
     57749      3039  TIP3      H2            -24.8451608598       -6.7799182080       34.9874000034  TIP3      2639            0.0000000000
     57750      3040  TIP3      OH2           -35.6624070311      -10.0969319365       37.4787883201  TIP3      2640            0.0000000000
     57751      3040  TIP3      H1            -35.2639035794      -10.9685248285       37.3931093167  TIP3      2640            0.0000000000
     57752      3040  TIP3      H2            -35.9209566808      -10.0894165853       38.4233016783  TIP3      2640            0.0000000000
     57753      3041  TIP3      OH2           -30.9785835656       -8.9808254622       22.5315414984  TIP3      2641            0.0000000000
     57754      3041  TIP3      H1            -31.5044857337       -9.4682061482       23.1772424152  TIP3      2641            0.0000000000
     57755      3041  TIP3      H2            -30.7873058537       -9.6518332074       21.8588721597  TIP3      2641            0.0000000000
     57756      3042  TIP3      OH2           -31.7948924639      -11.1252425254       34.8157065371  TIP3      2642            0.0000000000
     57757      3042  TIP3      H1            -32.3171817243      -10.4025111119       35.1927337873  TIP3      2642            0.0000000000
     57758      3042  TIP3      H2            -31.3258781611      -10.7731202923       34.0410836813  TIP3      2642            0.0000000000
     57759      3043  TIP3      OH2           -26.6958350112       -8.6095464056       38.1622088902  TIP3      2643            0.0000000000
     57760      3043  TIP3      H1            -25.7377272790       -8.5658608133       38.1111241784  TIP3      2643            0.0000000000
     57761      3043  TIP3      H2            -26.8673371507       -9.3450769983       38.7749958863  TIP3      2643            0.0000000000
     57762      3044  TIP3      OH2           -31.3791185284      -13.7493848213       35.9266380409  TIP3      2644            0.0000000000
     57763      3044  TIP3      H1            -31.2342299433      -14.4901958321       35.3101060596  TIP3      2644            0.0000000000
     57764      3044  TIP3      H2            -31.3823539880      -12.9606745853       35.3655455162  TIP3      2644            0.0000000000
     57765      3045  TIP3      OH2           -30.9677081445      -15.3678296142       33.4580765859  TIP3      2645            0.0000000000
     57766      3045  TIP3      H1            -30.4336059771      -14.9277072463       32.7590092615  TIP3      2645            0.0000000000
     57767      3045  TIP3      H2            -31.8422765444      -15.4848987291       33.0211310435  TIP3      2645            0.0000000000
     57768      3046  TIP3      OH2           -29.4087659883       -9.9227756814       33.6927414764  TIP3      2646            0.0000000000
     57769      3046  TIP3      H1            -28.6610620761      -10.0935918582       33.1078145081  TIP3      2646            0.0000000000
     57770      3046  TIP3      H2            -29.7472329706       -9.0683808972       33.3845772277  TIP3      2646            0.0000000000
     57771      3047  TIP3      OH2           -24.9980375708      -12.1319845562       38.6906974489  TIP3      2647            0.0000000000
     57772      3047  TIP3      H1            -24.7859408964      -13.0713584098       38.5897813490  TIP3      2647            0.0000000000
     57773      3047  TIP3      H2            -24.1255487672      -11.7077550456       38.6846560790  TIP3      2647            0.0000000000
     57774      3048  TIP3      OH2           -23.6788440051       -9.3505282748       36.8021032199  TIP3      2648            0.0000000000
     57775      3048  TIP3      H1            -23.9211084914       -8.6120667115       36.2146874533  TIP3      2648            0.0000000000
     57776      3048  TIP3      H2            -22.7109747324       -9.3967463966       36.6306290207  TIP3      2648            0.0000000000
     57777      3049  TIP3      OH2           -32.9023681421      -12.5158806160       37.8469108843  TIP3      2649            0.0000000000
     57778      3049  TIP3      H1            -33.6738266773      -13.0933291759       37.6501044261  TIP3      2649            0.0000000000
     57779      3049  TIP3      H2            -32.2340877659      -12.8788254702       37.2363094996  TIP3      2649            0.0000000000
     57780      3050  TIP3      OH2           -30.1648768519      -17.9406809007       33.8757693946  TIP3      2650            0.0000000000
     57781      3050  TIP3      H1            -30.2998036045      -16.9720129582       33.7584348850  TIP3      2650            0.0000000000
     57782      3050  TIP3      H2            -30.9201958558      -18.2968067178       33.3727201911  TIP3      2650            0.0000000000
     57783      3051  TIP3      OH2           -28.8944247764      -13.6119555138       37.4489407994  TIP3      2651            0.0000000000
     57784      3051  TIP3      H1            -29.1725268608      -13.8300751448       38.3566890758  TIP3      2651            0.0000000000
     57785      3051  TIP3      H2            -29.6918661655      -13.8090580977       36.9205002901  TIP3      2651            0.0000000000
     57786      3052  TIP3      OH2           -26.1795072841      -14.4778315843       36.5143304956  TIP3      2652            0.0000000000
     57787      3052  TIP3      H1            -27.1421649202      -14.4346114266       36.6543896654  TIP3      2652            0.0000000000
     57788      3052  TIP3      H2            -25.8901314360      -15.1062660350       37.1958954571  TIP3      2652            0.0000000000
     57789      3053  TIP3      OH2           -24.5770364359      -15.8410329994       38.4881222926  TIP3      2653            0.0000000000
     57790      3053  TIP3      H1            -24.6483789210      -16.8119892102       38.5032669318  TIP3      2653            0.0000000000
     57791      3053  TIP3      H2            -24.8717878125      -15.5611350145       39.3847642413  TIP3      2653            0.0000000000
     57792      3054  TIP3      OH2           -34.7639060060      -14.5994383731       37.5644114972  TIP3      2654            0.0000000000
     57793      3054  TIP3      H1            -34.5340785484      -15.3320375386       36.9601324882  TIP3      2654            0.0000000000
     57794      3054  TIP3      H2            -34.8597806043      -15.0540423047       38.4252552745  TIP3      2654            0.0000000000
     57795      3055  TIP3      OH2           -29.9554952772      -18.5954008414       36.5539701450  TIP3      2655            0.0000000000
     57796      3055  TIP3      H1            -29.2446602235      -19.2715248359       36.5223789740  TIP3      2655            0.0000000000
     57797      3055  TIP3      H2            -30.0510605410      -18.3807786420       35.6071355279  TIP3      2655            0.0000000000
     57798      3056  TIP3      OH2           -29.5925655797      -16.9477528521       38.6232435151  TIP3      2656            0.0000000000
     57799      3056  TIP3      H1            -29.7402428828      -17.4401852131       37.7790573188  TIP3      2656            0.0000000000
     57800      3056  TIP3      H2            -30.1921663024      -16.1851664821       38.5352877450  TIP3      2656            0.0000000000
     57801      3057  TIP3      OH2           -30.0959833090        0.0157818106       21.8676677599  TIP3      2657            0.0000000000
     57802      3057  TIP3      H1            -29.1407927677        0.0658141757       21.9049407565  TIP3      2657            0.0000000000
     57803      3057  TIP3      H2            -30.3252661742        0.5879417496       21.1296242314  TIP3      2657            0.0000000000
     57804      3058  TIP3      OH2           -36.5052634382       -5.4162115311       21.2716916964  TIP3      2658            0.0000000000
     57805      3058  TIP3      H1            -35.5488389379       -5.3490898964       21.5109560915  TIP3      2658            0.0000000000
     57806      3058  TIP3      H2            -36.4806766156       -6.1101069162       20.5876681774  TIP3      2658            0.0000000000
     57807      3059  TIP3      OH2           -37.8077908327       -0.0414123879       26.3090828528  TIP3      2659            0.0000000000
     57808      3059  TIP3      H1            -38.4889493184       -0.5232541955       25.7925390492  TIP3      2659            0.0000000000
     57809      3059  TIP3      H2            -37.4884367871       -0.7176733992       26.9258240195  TIP3      2659            0.0000000000
     57810      3060  TIP3      OH2           -36.9594682008       -1.9430717776       28.1280961352  TIP3      2660            0.0000000000
     57811      3060  TIP3      H1            -37.3034123524       -2.8274420436       28.3209589984  TIP3      2660            0.0000000000
     57812      3060  TIP3      H2            -36.7367455588       -1.6074314285       29.0147401929  TIP3      2660            0.0000000000
     57813      3061  TIP3      OH2           -19.4245957250       -1.1451630096       31.0945425783  TIP3      2661            0.0000000000
     57814      3061  TIP3      H1            -19.4163490048       -0.9607982058       32.0496477773  TIP3      2661            0.0000000000
     57815      3061  TIP3      H2            -18.7207883297       -0.5666190036       30.7773176241  TIP3      2661            0.0000000000
     57816      3062  TIP3      OH2           -19.8471308129       -1.5494271192       34.0311763979  TIP3      2662            0.0000000000
     57817      3062  TIP3      H1            -20.3313113589       -2.3182228960       33.6591429213  TIP3      2662            0.0000000000
     57818      3062  TIP3      H2            -19.3218900778       -1.9828270886       34.7224673931  TIP3      2662            0.0000000000
     57819      3063  TIP3      OH2           -21.3973280560       -5.8162046292       38.6726710081  TIP3      2663            0.0000000000
     57820      3063  TIP3      H1            -22.2815923337       -5.8681128902       39.0757504833  TIP3      2663            0.0000000000
     57821      3063  TIP3      H2            -21.0257002591       -5.0203483779       39.1230691468  TIP3      2663            0.0000000000
     57822      3064  TIP3      OH2           -20.0949337356       -7.5226523611       24.1441670918  TIP3      2664            0.0000000000
     57823      3064  TIP3      H1            -19.2344237988       -7.1053024382       24.3269858711  TIP3      2664            0.0000000000
     57824      3064  TIP3      H2            -20.0917771880       -8.2513153009       24.8113774834  TIP3      2664            0.0000000000
     57825      3065  TIP3      OH2           -19.7074553809       -9.4495997472       25.9980907509  TIP3      2665            0.0000000000
     57826      3065  TIP3      H1            -20.4611514281       -9.9452916440       26.3928997678  TIP3      2665            0.0000000000
     57827      3065  TIP3      H2            -19.1249941165       -9.2637866287       26.7528188685  TIP3      2665            0.0000000000
     57828      3066  TIP3      OH2           -19.9617799539       -6.7143970922       30.9791739691  TIP3      2666            0.0000000000
     57829      3066  TIP3      H1            -19.1223714103       -7.0665990319       30.6507455961  TIP3      2666            0.0000000000
     57830      3066  TIP3      H2            -19.8332139150       -5.7481310216       30.8337189856  TIP3      2666            0.0000000000
     57831      3067  TIP3      OH2           -21.4332287023       -3.8244890120       33.2780863095  TIP3      2667            0.0000000000
     57832      3067  TIP3      H1            -22.1099388417       -3.4741219156       33.8787072854  TIP3      2667            0.0000000000
     57833      3067  TIP3      H2            -21.9757951284       -4.2354676151       32.5725805737  TIP3      2667            0.0000000000
     57834      3068  TIP3      OH2           -19.4079917977       -9.5681131385       22.3793375144  TIP3      2668            0.0000000000
     57835      3068  TIP3      H1            -20.0023895663       -9.2345889652       21.7240667491  TIP3      2668            0.0000000000
     57836      3068  TIP3      H2            -19.4746823751       -8.8995804076       23.0926290089  TIP3      2668            0.0000000000
     57837      3069  TIP3      OH2           -21.1016971809      -12.3457912317       20.9495167003  TIP3      2669            0.0000000000
     57838      3069  TIP3      H1            -21.0065537490      -11.6835899744       20.2616409684  TIP3      2669            0.0000000000
     57839      3069  TIP3      H2            -21.2299705542      -13.1639815014       20.4530563903  TIP3      2669            0.0000000000
     57840      3070  TIP3      OH2           -21.8929607238      -10.9490087096       26.5812357707  TIP3      2670            0.0000000000
     57841      3070  TIP3      H1            -22.0710916019      -11.9011240675       26.5490271510  TIP3      2670            0.0000000000
     57842      3070  TIP3      H2            -22.2743141393      -10.6922205542       27.4344713418  TIP3      2670            0.0000000000
     57843      3071  TIP3      OH2           -36.9153084883       -8.8643202532       30.6143660669  TIP3      2671            0.0000000000
     57844      3071  TIP3      H1            -36.7031904799       -8.9494367644       29.6527339060  TIP3      2671            0.0000000000
     57845      3071  TIP3      H2            -36.0223728172       -9.0089458569       30.9869837284  TIP3      2671            0.0000000000
     57846      3072  TIP3      OH2           -21.0766903313       -8.9750925707       36.2318975076  TIP3      2672            0.0000000000
     57847      3072  TIP3      H1            -20.4640695142       -9.7259382740       36.4007735227  TIP3      2672            0.0000000000
     57848      3072  TIP3      H2            -20.4714625936       -8.2042731203       36.2651018765  TIP3      2672            0.0000000000
     57849      3073  TIP3      OH2           -19.5564527336      -11.0749628911       36.9166310617  TIP3      2673            0.0000000000
     57850      3073  TIP3      H1            -20.4322296815      -11.4792467634       36.7387759472  TIP3      2673            0.0000000000
     57851      3073  TIP3      H2            -18.9669950755      -11.8415464393       36.8288099377  TIP3      2673            0.0000000000
     57852      3074  TIP3      OH2           -22.2289397218      -13.3628824993       25.0340150402  TIP3      2674            0.0000000000
     57853      3074  TIP3      H1            -21.9219648437      -14.2946732774       25.1588364704  TIP3      2674            0.0000000000
     57854      3074  TIP3      H2            -21.4379164267      -12.9516699633       24.6491660103  TIP3      2674            0.0000000000
     57855      3075  TIP3      OH2           -21.6014700938      -12.8075713767       30.4695281359  TIP3      2675            0.0000000000
     57856      3075  TIP3      H1            -20.6497761502      -12.5819914406       30.4580638642  TIP3      2675            0.0000000000
     57857      3075  TIP3      H2            -21.8164995885      -12.6825530486       31.4086663270  TIP3      2675            0.0000000000
     57858      3076  TIP3      OH2           -21.5467671957      -12.0790203882       33.2441429926  TIP3      2676            0.0000000000
     57859      3076  TIP3      H1            -22.4119315693      -11.7956238208       33.6041342486  TIP3      2676            0.0000000000
     57860      3076  TIP3      H2            -21.1127206529      -11.2221870627       33.0417582059  TIP3      2676            0.0000000000
     57861      3077  TIP3      OH2           -37.2932349765      -13.5759242626       36.7471493712  TIP3      2677            0.0000000000
     57862      3077  TIP3      H1            -36.3568414185      -13.7464646692       36.9747530185  TIP3      2677            0.0000000000
     57863      3077  TIP3      H2            -37.7382687334      -14.3735103436       37.1028587436  TIP3      2677            0.0000000000
     57864      3078  TIP3      OH2           -19.2771709671      -18.0631643023       38.6021534609  TIP3      2678            0.0000000000
     57865      3078  TIP3      H1            -18.9242370046      -18.7224751885       37.9883487637  TIP3      2678            0.0000000000
     57866      3078  TIP3      H2            -19.1423994824      -17.2269641770       38.1247928039  TIP3      2678            0.0000000000
     57867      3079  TIP3      OH2           -21.5842585859      -16.0867350194       25.0830455197  TIP3      2679            0.0000000000
     57868      3079  TIP3      H1            -21.3884203272      -16.5479893300       25.9163212745  TIP3      2679            0.0000000000
     57869      3079  TIP3      H2            -22.1969424275      -16.7070517884       24.6190003934  TIP3      2679            0.0000000000
     57870      3080  TIP3      OH2           -36.0833983173      -15.2824316119       29.6204387122  TIP3      2680            0.0000000000
     57871      3080  TIP3      H1            -35.6177581737      -16.0911497732       29.9147135249  TIP3      2680            0.0000000000
     57872      3080  TIP3      H2            -35.5777793342      -14.5765372223       30.0399256640  TIP3      2680            0.0000000000
     57873      3081  TIP3      OH2           -37.7914783671      -12.2870852354       30.6907336460  TIP3      2681            0.0000000000
     57874      3081  TIP3      H1            -37.2576786861      -12.5120852155       29.8990132385  TIP3      2681            0.0000000000
     57875      3081  TIP3      H2            -37.3701298879      -11.4588270943       30.9509400700  TIP3      2681            0.0000000000
     57876      3082  TIP3      OH2           -19.7454036437      -15.9490909810       36.9658234417  TIP3      2682            0.0000000000
     57877      3082  TIP3      H1            -20.6886679611      -15.6860902210       36.9120677383  TIP3      2682            0.0000000000
     57878      3082  TIP3      H2            -19.6729461887      -16.4910737099       36.1630825482  TIP3      2682            0.0000000000
     57879      3083  TIP3      OH2           -37.4394649054      -16.0159298454       24.7421909685  TIP3      2683            0.0000000000
     57880      3083  TIP3      H1            -38.3820182328      -15.8312316198       24.6135964099  TIP3      2683            0.0000000000
     57881      3083  TIP3      H2            -37.0013859005      -15.5359100894       24.0362794827  TIP3      2683            0.0000000000
     57882      3084  TIP3      OH2           -22.6942952132       -1.0587380523       26.6976531886  TIP3      2684            0.0000000000
     57883      3084  TIP3      H1            -22.0226511819       -1.3846904955       26.0749726922  TIP3      2684            0.0000000000
     57884      3084  TIP3      H2            -22.1668404073       -0.5587339453       27.3331179674  TIP3      2684            0.0000000000
     57885      3085  TIP3      OH2           -37.4769208831      -17.3186730609       33.0708652948  TIP3      2685            0.0000000000
     57886      3085  TIP3      H1            -38.1565856840      -17.5414566201       33.7304917001  TIP3      2685            0.0000000000
     57887      3085  TIP3      H2            -37.9398112766      -16.6674688729       32.5043301344  TIP3      2685            0.0000000000
     57888      3086  TIP3      OH2           -35.2680501037       -4.1343427701       37.2258263453  TIP3      2686            0.0000000000
     57889      3086  TIP3      H1            -36.1085356552       -3.9465602735       36.7770203580  TIP3      2686            0.0000000000
     57890      3086  TIP3      H2            -35.5395472507       -4.1986923238       38.1502138181  TIP3      2686            0.0000000000
     57891      3087  TIP3      OH2           -32.3498750798       -3.1603967397       33.4932484557  TIP3      2687            0.0000000000
     57892      3087  TIP3      H1            -32.7295319996       -2.3177980846       33.2064086231  TIP3      2687            0.0000000000
     57893      3087  TIP3      H2            -31.4259051949       -3.0541317222       33.1810107393  TIP3      2687            0.0000000000
     57894      3088  TIP3      OH2           -28.0346455432       -1.7366100927       36.4184826433  TIP3      2688            0.0000000000
     57895      3088  TIP3      H1            -27.8555588682       -2.0810947598       37.3306211781  TIP3      2688            0.0000000000
     57896      3088  TIP3      H2            -27.1503218801       -1.4325886051       36.1402684677  TIP3      2688            0.0000000000
     57897      3089  TIP3      OH2           -25.7185807282       -0.4620125987       35.6882327604  TIP3      2689            0.0000000000
     57898      3089  TIP3      H1            -25.0010465655       -1.0760071767       35.4591145207  TIP3      2689            0.0000000000
     57899      3089  TIP3      H2            -25.3533359669       -0.0483666461       36.5019299739  TIP3      2689            0.0000000000
     57900      3090  TIP3      OH2           -20.7412660891      -17.8521900452       34.7950255578  TIP3      2690            0.0000000000
     57901      3090  TIP3      H1            -21.5714593715      -17.5506090673       34.3814814644  TIP3      2690            0.0000000000
     57902      3090  TIP3      H2            -20.5444425424      -18.6485139568       34.2504111443  TIP3      2690            0.0000000000
     57903      3091  TIP3      OH2           -34.9230083357        0.0960602361       33.5144879113  TIP3      2691            0.0000000000
     57904      3091  TIP3      H1            -35.6587413945        0.5668377301       33.0880392345  TIP3      2691            0.0000000000
     57905      3091  TIP3      H2            -35.2786854766       -0.1277470309       34.3870615643  TIP3      2691            0.0000000000
     57906      3092  TIP3      OH2           -32.4508942312       -0.3182887989       32.5675369151  TIP3      2692            0.0000000000
     57907      3092  TIP3      H1            -33.3461894535       -0.2010330776       32.9647544193  TIP3      2692            0.0000000000
     57908      3092  TIP3      H2            -32.5242291683        0.2607386083       31.7814487868  TIP3      2692            0.0000000000
     57909      3093  TIP3      OH2           -27.7539022299       -0.4164433675       31.7348669586  TIP3      2693            0.0000000000
     57910      3093  TIP3      H1            -28.2171386530        0.1314799109       31.0822442143  TIP3      2693            0.0000000000
     57911      3093  TIP3      H2            -27.6030463095        0.2135887895       32.4700751379  TIP3      2693            0.0000000000
     57912      3094  TIP3      OH2           -25.4362231568       -1.5682025566       32.7123322066  TIP3      2694            0.0000000000
     57913      3094  TIP3      H1            -26.3286184918       -1.3409883831       32.4059100040  TIP3      2694            0.0000000000
     57914      3094  TIP3      H2            -24.9963967430       -0.7058311551       32.6299240086  TIP3      2694            0.0000000000
     57915      3095  TIP3      OH2           -22.8494975352        0.0027330943       32.9927656045  TIP3      2695            0.0000000000
     57916      3095  TIP3      H1            -22.9793820661        0.9580301605       32.7595820352  TIP3      2695            0.0000000000
     57917      3095  TIP3      H2            -22.6551261095       -0.3763303041       32.1153865690  TIP3      2695            0.0000000000
     57918      3096  TIP3      OH2           -35.5088316580       -1.2585302098       30.4334619693  TIP3      2696            0.0000000000
     57919      3096  TIP3      H1            -35.5434642604       -1.7023375008       31.3072563980  TIP3      2696            0.0000000000
     57920      3096  TIP3      H2            -34.6859049543       -1.6084130713       30.0351419627  TIP3      2696            0.0000000000
     57921      3097  TIP3      OH2           -33.3994974769       -2.5462903288       29.0929854638  TIP3      2697            0.0000000000
     57922      3097  TIP3      H1            -33.5816936201       -3.4825442143       29.2893379162  TIP3      2697            0.0000000000
     57923      3097  TIP3      H2            -32.5412446730       -2.4141517843       29.5550132648  TIP3      2697            0.0000000000
     57924      3098  TIP3      OH2           -30.8220644679       -2.0694331309       29.9540225088  TIP3      2698            0.0000000000
     57925      3098  TIP3      H1            -30.6274915569       -2.9823884341       29.6736440266  TIP3      2698            0.0000000000
     57926      3098  TIP3      H2            -30.7616375972       -2.1316475728       30.9146145292  TIP3      2698            0.0000000000
     57927      3099  TIP3      OH2           -27.3336491598      -16.4168413791       29.0971370876  TIP3      2699            0.0000000000
     57928      3099  TIP3      H1            -28.0099998080      -17.0617662171       29.3573350267  TIP3      2699            0.0000000000
     57929      3099  TIP3      H2            -26.7748285260      -16.9277952949       28.4981713084  TIP3      2699            0.0000000000
     57930      3100  TIP3      OH2           -22.1983292550      -18.3430104106       29.1987893213  TIP3      2700            0.0000000000
     57931      3100  TIP3      H1            -21.5792125017      -17.7652081513       28.6848964208  TIP3      2700            0.0000000000
     57932      3100  TIP3      H2            -23.0737439228      -17.9984277457       28.9454542678  TIP3      2700            0.0000000000
     57933      3101  TIP3      OH2           -20.5032821621      -17.1533430739       27.5008483131  TIP3      2701            0.0000000000
     57934      3101  TIP3      H1            -19.8381946145      -17.6964035310       27.0101469368  TIP3      2701            0.0000000000
     57935      3101  TIP3      H2            -20.0535835006      -16.2839826028       27.5662693896  TIP3      2701            0.0000000000
     57936      3102  TIP3      OH2           -34.9847370842      -17.7767160264       26.9272113623  TIP3      2702            0.0000000000
     57937      3102  TIP3      H1            -35.7777499456      -18.0141189625       26.4099463942  TIP3      2702            0.0000000000
     57938      3102  TIP3      H2            -34.4866450225      -18.6162437456       26.9059747370  TIP3      2702            0.0000000000
     57939      3103  TIP3      OH2           -36.1706916345      -18.0044099775       22.7152911313  TIP3      2703            0.0000000000
     57940      3103  TIP3      H1            -35.7267737204      -17.3775940470       22.1245409243  TIP3      2703            0.0000000000
     57941      3103  TIP3      H2            -36.8021523397      -17.4594391732       23.2050067240  TIP3      2703            0.0000000000
     57942      3104  TIP3      OH2           -30.4520536648      -17.8769449179       26.7217039827  TIP3      2704            0.0000000000
     57943      3104  TIP3      H1            -29.5632128223      -17.4788965049       26.6917756625  TIP3      2704            0.0000000000
     57944      3104  TIP3      H2            -30.5458409961      -18.0760595160       27.6551322462  TIP3      2704            0.0000000000
     57945      3105  TIP3      OH2           -24.8345458344      -17.8310794912       28.3779793341  TIP3      2705            0.0000000000
     57946      3105  TIP3      H1            -24.8085739285      -17.7392762364       27.4192465260  TIP3      2705            0.0000000000
     57947      3105  TIP3      H2            -25.1589602481      -18.7535143736       28.5015869184  TIP3      2705            0.0000000000
     57948      3106  TIP3      OH2           -23.5050850558      -17.7995811673       24.0809347810  TIP3      2706            0.0000000000
     57949      3106  TIP3      H1            -24.2317689492      -17.2040040046       23.8455062141  TIP3      2706            0.0000000000
     57950      3106  TIP3      H2            -23.9707426411      -18.6554880294       24.2039516872  TIP3      2706            0.0000000000
     57951      3107  TIP3      OH2           -36.2916777267       -2.0674985752       23.6525041733  TIP3      2707            0.0000000000
     57952      3107  TIP3      H1            -36.9394034135       -2.0697443729       22.9436806139  TIP3      2707            0.0000000000
     57953      3107  TIP3      H2            -36.2589393138       -1.1196958736       23.8672150210  TIP3      2707            0.0000000000
     57954      3108  TIP3      OH2           -34.3477308234      -16.0617328980       21.1473668404  TIP3      2708            0.0000000000
     57955      3108  TIP3      H1            -33.8104627793      -16.7001420682       20.6519131519  TIP3      2708            0.0000000000
     57956      3108  TIP3      H2            -33.6815061014      -15.7943623554       21.8170715109  TIP3      2708            0.0000000000
     57957      3109  TIP3      OH2           -29.3232187405      -15.8096861149       23.5925492529  TIP3      2709            0.0000000000
     57958      3109  TIP3      H1            -29.0905395627      -16.4228185020       24.3062683982  TIP3      2709            0.0000000000
     57959      3109  TIP3      H2            -29.3055434841      -14.9585887388       24.0756528211  TIP3      2709            0.0000000000
     57960      3110  TIP3      OH2           -20.6911331000       -1.2573661197       24.7125060219  TIP3      2710            0.0000000000
     57961      3110  TIP3      H1            -20.9037758812       -2.0322249175       24.1342898483  TIP3      2710            0.0000000000
     57962      3110  TIP3      H2            -20.7573788444       -0.5235705948       24.0977386219  TIP3      2710            0.0000000000
     57963      3111  TIP3      OH2           -35.0723085098      -17.2555079769       36.4086262299  TIP3      2711            0.0000000000
     57964      3111  TIP3      H1            -35.4286852099      -18.0470752107       36.8561424853  TIP3      2711            0.0000000000
     57965      3111  TIP3      H2            -34.1426647459      -17.2667241544       36.7454329177  TIP3      2711            0.0000000000
     57966      3112  TIP3      OH2           -33.0701536566      -17.8810797886       38.0007998587  TIP3      2712            0.0000000000
     57967      3112  TIP3      H1            -32.1746824530      -18.2133561439       37.7876920087  TIP3      2712            0.0000000000
     57968      3112  TIP3      H2            -33.4534505854      -18.6714446743       38.4376272833  TIP3      2712            0.0000000000
     57969      3113  TIP3      OH2           -24.6674078039      -18.5771232435       38.1643352277  TIP3      2713            0.0000000000
     57970      3113  TIP3      H1            -24.5695368231      -19.0375649204       39.0196521320  TIP3      2713            0.0000000000
     57971      3113  TIP3      H2            -23.7510968454      -18.5908380994       37.8195094411  TIP3      2713            0.0000000000
     57972      3114  TIP3      OH2           -21.4641500410       -2.5356999506       36.8522761975  TIP3      2714            0.0000000000
     57973      3114  TIP3      H1            -22.2674744399       -2.6878257638       36.3081426571  TIP3      2714            0.0000000000
     57974      3114  TIP3      H2            -21.5632501911       -1.5789959741       37.0493934039  TIP3      2714            0.0000000000
     57975      3115  TIP3      OH2            -7.0407671039       -8.6515147822       26.8528398699  TIP3      2715            0.0000000000
     57976      3115  TIP3      H1             -7.0088038420       -7.6771316454       26.7461310113  TIP3      2715            0.0000000000
     57977      3115  TIP3      H2             -7.7296937983       -8.8964265954       26.2096819093  TIP3      2715            0.0000000000
     57978      3116  TIP3      OH2            -8.1527006196       -9.3788345023       30.3069903924  TIP3      2716            0.0000000000
     57979      3116  TIP3      H1             -8.1798544161      -10.0368363288       31.0076164222  TIP3      2716            0.0000000000
     57980      3116  TIP3      H2             -8.4781065888       -9.8675221098       29.5325274497  TIP3      2716            0.0000000000
     57981      3117  TIP3      OH2           -15.8052701910       -9.7615459364       31.8259395717  TIP3      2717            0.0000000000
     57982      3117  TIP3      H1            -15.7167521498      -10.3902774938       32.5905397821  TIP3      2717            0.0000000000
     57983      3117  TIP3      H2            -15.0723701503       -9.1498656081       32.0753330267  TIP3      2717            0.0000000000
     57984      3118  TIP3      OH2            -4.4459982134       -6.4454199103       28.5837493721  TIP3      2718            0.0000000000
     57985      3118  TIP3      H1             -4.8834136579       -7.1593832860       29.0597102501  TIP3      2718            0.0000000000
     57986      3118  TIP3      H2             -4.4508090350       -5.7252955983       29.2431819010  TIP3      2718            0.0000000000
     57987      3119  TIP3      OH2           -14.8695803862       -5.2980319221       30.4033340223  TIP3      2719            0.0000000000
     57988      3119  TIP3      H1            -15.1988086607       -6.1312583701       30.0349967941  TIP3      2719            0.0000000000
     57989      3119  TIP3      H2            -13.9111441366       -5.4789335706       30.4413746199  TIP3      2719            0.0000000000
     57990      3120  TIP3      OH2           -18.2350893590      -11.6866768669       25.8588631704  TIP3      2720            0.0000000000
     57991      3120  TIP3      H1            -18.6849969649      -10.8172138773       25.7775851405  TIP3      2720            0.0000000000
     57992      3120  TIP3      H2            -18.7966059031      -12.2420435608       25.2868453980  TIP3      2720            0.0000000000
     57993      3121  TIP3      OH2           -17.5456928155       -9.4332928760       27.8800463945  TIP3      2721            0.0000000000
     57994      3121  TIP3      H1            -17.3193785128      -10.2667067680       28.2508416106  TIP3      2721            0.0000000000
     57995      3121  TIP3      H2            -16.7845622811       -9.3524740422       27.2679485748  TIP3      2721            0.0000000000
     57996      3122  TIP3      OH2            -7.3438703521       -1.3046138142       28.8139725182  TIP3      2722            0.0000000000
     57997      3122  TIP3      H1             -6.7011954667       -2.0080121244       28.5360210319  TIP3      2722            0.0000000000
     57998      3122  TIP3      H2             -7.5396192329       -1.5824039437       29.7080053122  TIP3      2722            0.0000000000
     57999      3123  TIP3      OH2            -9.7765404663       -6.9624786428       30.7283615268  TIP3      2723            0.0000000000
     58000      3123  TIP3      H1             -9.4466366039       -7.6268928075       30.1000663720  TIP3      2723            0.0000000000
     58001      3123  TIP3      H2             -9.0036202183       -6.8330732890       31.3032075795  TIP3      2723            0.0000000000
     58002      3124  TIP3      OH2            -1.1250318639      -15.3464100618       31.5267763975  TIP3      2724            0.0000000000
     58003      3124  TIP3      H1             -1.0236790903      -14.7376829592       32.2890079505  TIP3      2724            0.0000000000
     58004      3124  TIP3      H2             -0.6374206853      -14.8847771547       30.8349839340  TIP3      2724            0.0000000000
     58005      3125  TIP3      OH2            -6.6144473461      -12.5311291881       31.0627394787  TIP3      2725            0.0000000000
     58006      3125  TIP3      H1             -6.4621839178      -13.4991974055       31.0562693116  TIP3      2725            0.0000000000
     58007      3125  TIP3      H2             -6.7188623313      -12.3664552989       30.1024964119  TIP3      2725            0.0000000000
     58008      3126  TIP3      OH2           -13.4880386561      -14.4473098289       28.3181921268  TIP3      2726            0.0000000000
     58009      3126  TIP3      H1            -13.4001969043      -13.5989674656       27.8492903748  TIP3      2726            0.0000000000
     58010      3126  TIP3      H2            -13.9097752679      -15.0105063328       27.6355319367  TIP3      2726            0.0000000000
     58011      3127  TIP3      OH2            -5.7655448743      -14.3219590337       26.7077343463  TIP3      2727            0.0000000000
     58012      3127  TIP3      H1             -5.0834702069      -14.6641571695       27.3301321665  TIP3      2727            0.0000000000
     58013      3127  TIP3      H2             -5.2148754963      -13.8037750002       26.0929123824  TIP3      2727            0.0000000000
     58014      3128  TIP3      OH2           -16.8805770402      -12.2886820627       29.0125985421  TIP3      2728            0.0000000000
     58015      3128  TIP3      H1            -16.1101875880      -12.6941329181       29.4777483052  TIP3      2728            0.0000000000
     58016      3128  TIP3      H2            -16.7415970194      -12.4135806418       28.0608075915  TIP3      2728            0.0000000000
     58017      3129  TIP3      OH2           -11.6932738284      -10.4901752350       28.3238407058  TIP3      2729            0.0000000000
     58018      3129  TIP3      H1            -11.0537941385      -11.0528212450       28.7723166817  TIP3      2729            0.0000000000
     58019      3129  TIP3      H2            -12.2499296988      -11.1408924013       27.8490640357  TIP3      2729            0.0000000000
     58020      3130  TIP3      OH2            -0.6955485419      -13.8795975809       33.7790993083  TIP3      2730            0.0000000000
     58021      3130  TIP3      H1             -1.3794004271      -13.1850637199       33.6926407240  TIP3      2730            0.0000000000
     58022      3130  TIP3      H2             -0.6970261088      -14.0572570627       34.7305437808  TIP3      2730            0.0000000000
     58023      3131  TIP3      OH2           -14.6152968236      -15.5442082032       32.3631966645  TIP3      2731            0.0000000000
     58024      3131  TIP3      H1            -14.8719451127      -14.9918098739       31.6023655903  TIP3      2731            0.0000000000
     58025      3131  TIP3      H2            -15.3078090574      -15.3022557715       33.0273550930  TIP3      2731            0.0000000000
     58026      3132  TIP3      OH2            -7.2692897773       -6.0458220905       25.9103856838  TIP3      2732            0.0000000000
     58027      3132  TIP3      H1             -7.5848722576       -6.3522863307       25.0494813621  TIP3      2732            0.0000000000
     58028      3132  TIP3      H2             -7.6102178753       -5.1261673765       25.9592858510  TIP3      2732            0.0000000000
     58029      3133  TIP3      OH2           -12.0728618293       -7.8851949801       32.6310848087  TIP3      2733            0.0000000000
     58030      3133  TIP3      H1            -12.8064167590       -7.2493265599       32.7783931309  TIP3      2733            0.0000000000
     58031      3133  TIP3      H2            -11.3687440558       -7.2945201023       32.3260655512  TIP3      2733            0.0000000000
     58032      3134  TIP3      OH2            -3.9799583956      -15.0066403501       28.6823227385  TIP3      2734            0.0000000000
     58033      3134  TIP3      H1             -4.1774821340      -15.7946670988       29.2049845784  TIP3      2734            0.0000000000
     58034      3134  TIP3      H2             -3.3000431409      -14.5620361354       29.2142079147  TIP3      2734            0.0000000000
     58035      3135  TIP3      OH2           -15.0605761101      -13.6545731757       30.3506928697  TIP3      2735            0.0000000000
     58036      3135  TIP3      H1            -14.4033704729      -13.0104385770       30.7055272965  TIP3      2735            0.0000000000
     58037      3135  TIP3      H2            -14.5192754490      -14.1109688899       29.6543393700  TIP3      2735            0.0000000000
     58038      3136  TIP3      OH2           -13.6427312663       -5.9034636118       33.4280913739  TIP3      2736            0.0000000000
     58039      3136  TIP3      H1            -13.6803024700       -4.9963082178       33.0675635688  TIP3      2736            0.0000000000
     58040      3136  TIP3      H2            -14.5296984377       -5.9720685226       33.8667151380  TIP3      2736            0.0000000000
     58041      3137  TIP3      OH2           -17.5798018344       -6.2454755787       24.2155986210  TIP3      2737            0.0000000000
     58042      3137  TIP3      H1            -17.8012432402       -5.9713937606       23.3136442621  TIP3      2737            0.0000000000
     58043      3137  TIP3      H2            -17.4858420648       -5.3976164975       24.6941529411  TIP3      2737            0.0000000000
     58044      3138  TIP3      OH2            -3.9252734913       -4.6139223129       30.9493235013  TIP3      2738            0.0000000000
     58045      3138  TIP3      H1             -4.8909822356       -4.5218195174       31.0916415260  TIP3      2738            0.0000000000
     58046      3138  TIP3      H2             -3.6586536652       -3.6870593843       30.7843777237  TIP3      2738            0.0000000000
     58047      3139  TIP3      OH2            -3.5883108948      -16.2318105623       32.4106493628  TIP3      2739            0.0000000000
     58048      3139  TIP3      H1             -4.3662338326      -15.6913661771       32.2852971274  TIP3      2739            0.0000000000
     58049      3139  TIP3      H2             -2.9190408467      -15.8915955626       31.8084794104  TIP3      2739            0.0000000000
     58050      3140  TIP3      OH2           -10.6263623897      -18.2136696689       29.8126426027  TIP3      2740            0.0000000000
     58051      3140  TIP3      H1            -10.7547166328      -19.1804198722       29.7577998696  TIP3      2740            0.0000000000
     58052      3140  TIP3      H2            -11.5023813419      -17.8980146401       30.1067649828  TIP3      2740            0.0000000000
     58053      3141  TIP3      OH2            -5.6854787107       -2.8270459543       27.5678051882  TIP3      2741            0.0000000000
     58054      3141  TIP3      H1             -5.2410222821       -3.5363134174       27.0616387421  TIP3      2741            0.0000000000
     58055      3141  TIP3      H2             -5.3137951645       -2.0217603161       27.1477077267  TIP3      2741            0.0000000000
     58056      3142  TIP3      OH2            -4.5006638487       -4.8960712004       26.0714992293  TIP3      2742            0.0000000000
     58057      3142  TIP3      H1             -4.7610602525       -5.6076719746       25.4594153766  TIP3      2742            0.0000000000
     58058      3142  TIP3      H2             -4.4445755734       -5.3816875084       26.9122931021  TIP3      2742            0.0000000000
     58059      3143  TIP3      OH2            -2.8379076627       -6.3313833513       34.5614845091  TIP3      2743            0.0000000000
     58060      3143  TIP3      H1             -2.6934802395       -6.9525625768       33.8147592715  TIP3      2743            0.0000000000
     58061      3143  TIP3      H2             -2.6577866872       -5.4658043185       34.1637076246  TIP3      2743            0.0000000000
     58062      3144  TIP3      OH2            -8.3465936616       -9.4054905363       24.3340249001  TIP3      2744            0.0000000000
     58063      3144  TIP3      H1             -9.0714034496       -8.8551283732       23.9754961663  TIP3      2744            0.0000000000
     58064      3144  TIP3      H2             -7.6690824326       -9.3176630551       23.6436485717  TIP3      2744            0.0000000000
     58065      3145  TIP3      OH2            -0.9743039256      -10.0127635270       32.6197278836  TIP3      2745            0.0000000000
     58066      3145  TIP3      H1             -1.6379504030       -9.2968754009       32.6808721297  TIP3      2745            0.0000000000
     58067      3145  TIP3      H2             -0.5046723139       -9.7826030529       31.7984709184  TIP3      2745            0.0000000000
     58068      3146  TIP3      OH2            -4.9096181638       -9.1703338450       25.2720691298  TIP3      2746            0.0000000000
     58069      3146  TIP3      H1             -5.6749184434       -8.9575571347       25.8499174574  TIP3      2746            0.0000000000
     58070      3146  TIP3      H2             -4.4815705503       -9.8953528302       25.7460786286  TIP3      2746            0.0000000000
     58071      3147  TIP3      OH2            -5.0075006694      -11.0300520954       34.3522729669  TIP3      2747            0.0000000000
     58072      3147  TIP3      H1             -4.9781384104      -10.2282773574       34.9028685554  TIP3      2747            0.0000000000
     58073      3147  TIP3      H2             -5.6411465492      -10.7273402220       33.6635616158  TIP3      2747            0.0000000000
     58074      3148  TIP3      OH2           -13.5447306501       -8.7650778733       27.4947373232  TIP3      2748            0.0000000000
     58075      3148  TIP3      H1            -13.6248130392       -8.8545922326       26.4948288523  TIP3      2748            0.0000000000
     58076      3148  TIP3      H2            -12.6771663817       -9.2244538326       27.5301419581  TIP3      2748            0.0000000000
     58077      3149  TIP3      OH2           -11.9624054839       -5.1227376844       29.8483783157  TIP3      2749            0.0000000000
     58078      3149  TIP3      H1            -12.0095976827       -5.6954370785       29.0614624671  TIP3      2749            0.0000000000
     58079      3149  TIP3      H2            -11.1973880673       -5.5085306859       30.3096054567  TIP3      2749            0.0000000000
     58080      3150  TIP3      OH2           -12.9680114018       -9.7933467549       30.8033844188  TIP3      2750            0.0000000000
     58081      3150  TIP3      H1            -12.3857139877       -9.6677920304       30.0197201212  TIP3      2750            0.0000000000
     58082      3150  TIP3      H2            -12.5967275743       -9.1368753428       31.4337814641  TIP3      2750            0.0000000000
     58083      3151  TIP3      OH2            -6.5980597884       -4.2433695438       31.5133095887  TIP3      2751            0.0000000000
     58084      3151  TIP3      H1             -6.8603628307       -3.6090710301       32.1817137194  TIP3      2751            0.0000000000
     58085      3151  TIP3      H2             -6.8241580248       -5.1027017481       31.9540493596  TIP3      2751            0.0000000000
     58086      3152  TIP3      OH2           -12.0289723948       -5.3787900824       35.5160205293  TIP3      2752            0.0000000000
     58087      3152  TIP3      H1            -12.3930235913       -4.6037311601       35.9842211860  TIP3      2752            0.0000000000
     58088      3152  TIP3      H2            -12.7060702193       -5.5444810313       34.8169251091  TIP3      2752            0.0000000000
     58089      3153  TIP3      OH2           -15.1063338986       -9.2022382624       34.6946996287  TIP3      2753            0.0000000000
     58090      3153  TIP3      H1            -15.0582940567       -8.5361153048       35.4154171474  TIP3      2753            0.0000000000
     58091      3153  TIP3      H2            -16.0298497124       -9.0880768742       34.4385901045  TIP3      2753            0.0000000000
     58092      3154  TIP3      OH2            -8.3328282244       -3.2863041639       26.3808688855  TIP3      2754            0.0000000000
     58093      3154  TIP3      H1             -7.8795767077       -2.9800968082       27.1799336319  TIP3      2754            0.0000000000
     58094      3154  TIP3      H2             -8.9033837528       -2.5371143847       26.1650038411  TIP3      2754            0.0000000000
     58095      3155  TIP3      OH2           -13.7919542596       -3.3145646806       36.2737605405  TIP3      2755            0.0000000000
     58096      3155  TIP3      H1            -13.8199094576       -3.4422557472       35.3108575376  TIP3      2755            0.0000000000
     58097      3155  TIP3      H2            -14.7301264539       -3.4393562841       36.5233362814  TIP3      2755            0.0000000000
     58098      3156  TIP3      OH2            -2.3230438065      -18.2540229869       22.5940435842  TIP3      2756            0.0000000000
     58099      3156  TIP3      H1             -3.2213105371      -18.1552024612       23.0543557272  TIP3      2756            0.0000000000
     58100      3156  TIP3      H2             -2.1351653388      -17.3565814370       22.3642306008  TIP3      2756            0.0000000000
     58101      3157  TIP3      OH2           -14.4940131635       -9.6672820401       24.7445741492  TIP3      2757            0.0000000000
     58102      3157  TIP3      H1            -14.5959232962       -8.7746603407       24.2836247325  TIP3      2757            0.0000000000
     58103      3157  TIP3      H2            -15.1427486519      -10.2404394970       24.4956234373  TIP3      2757            0.0000000000
     58104      3158  TIP3      OH2            -1.1954771659       -3.9442280645       21.2204010176  TIP3      2758            0.0000000000
     58105      3158  TIP3      H1             -1.1190348654       -2.9668850342       21.2888180426  TIP3      2758            0.0000000000
     58106      3158  TIP3      H2             -0.2755098066       -4.2024458532       21.0884672632  TIP3      2758            0.0000000000
     58107      3159  TIP3      OH2           -18.2162288074       -7.1007600510       33.6052516422  TIP3      2759            0.0000000000
     58108      3159  TIP3      H1            -18.7153932201       -7.1560420048       32.7721706106  TIP3      2759            0.0000000000
     58109      3159  TIP3      H2            -18.2018641127       -8.0396060290       33.8745766148  TIP3      2759            0.0000000000
     58110      3160  TIP3      OH2           -18.4756175064       -4.3504409457       30.4468826912  TIP3      2760            0.0000000000
     58111      3160  TIP3      H1            -17.5191011449       -4.4757647401       30.4295173925  TIP3      2760            0.0000000000
     58112      3160  TIP3      H2            -18.5704646449       -3.5461346150       30.9743142647  TIP3      2760            0.0000000000
     58113      3161  TIP3      OH2            -0.2475270154       -3.6581634086       36.1137354803  TIP3      2761            0.0000000000
     58114      3161  TIP3      H1             -0.3411471933       -4.6218544591       36.1068871729  TIP3      2761            0.0000000000
     58115      3161  TIP3      H2             -1.1073208904       -3.4095070373       36.5379933975  TIP3      2761            0.0000000000
     58116      3162  TIP3      OH2            -9.2833801209       -4.1071254086       34.9956058197  TIP3      2762            0.0000000000
     58117      3162  TIP3      H1             -9.2114118144       -3.2641854181       35.5011555030  TIP3      2762            0.0000000000
     58118      3162  TIP3      H2            -10.1604960583       -4.4447295187       35.2556414025  TIP3      2762            0.0000000000
     58119      3163  TIP3      OH2            -8.8474926236       -0.3460247257       24.8011739504  TIP3      2763            0.0000000000
     58120      3163  TIP3      H1             -8.9712542749       -0.4410882364       23.8580169953  TIP3      2763            0.0000000000
     58121      3163  TIP3      H2             -8.8399782247        0.6200231056       24.9511015813  TIP3      2763            0.0000000000
     58122      3164  TIP3      OH2           -15.2133467171       -1.5026330634       26.6055963285  TIP3      2764            0.0000000000
     58123      3164  TIP3      H1            -15.0698085737       -1.9012658120       27.4883460029  TIP3      2764            0.0000000000
     58124      3164  TIP3      H2            -16.0640057212       -1.8962284115       26.3577236280  TIP3      2764            0.0000000000
     58125      3165  TIP3      OH2            -6.1083116342       -1.2088335745       24.5650702109  TIP3      2765            0.0000000000
     58126      3165  TIP3      H1             -7.0574564719       -1.1531462233       24.7575300473  TIP3      2765            0.0000000000
     58127      3165  TIP3      H2             -5.8333830321       -1.9554713536       25.1210960567  TIP3      2765            0.0000000000
     58128      3166  TIP3      OH2            -3.1125214158      -12.1687805261       36.6140997778  TIP3      2766            0.0000000000
     58129      3166  TIP3      H1             -3.5401796796      -11.7045489353       35.8826700488  TIP3      2766            0.0000000000
     58130      3166  TIP3      H2             -3.0900792613      -13.0872748762       36.2974867566  TIP3      2766            0.0000000000
     58131      3167  TIP3      OH2           -15.9642186859       -5.7781810356       34.6045138206  TIP3      2767            0.0000000000
     58132      3167  TIP3      H1            -15.7434287864       -6.1540508531       35.4809423744  TIP3      2767            0.0000000000
     58133      3167  TIP3      H2            -16.8320326383       -6.1757080457       34.3928143022  TIP3      2767            0.0000000000
     58134      3168  TIP3      OH2           -13.3096190787      -17.3213538232       30.5848473077  TIP3      2768            0.0000000000
     58135      3168  TIP3      H1            -14.2099290984      -17.4081229870       30.1936903624  TIP3      2768            0.0000000000
     58136      3168  TIP3      H2            -13.3906542433      -16.4665606465       31.0344959072  TIP3      2768            0.0000000000
     58137      3169  TIP3      OH2            -8.6724387914      -17.6032064185       33.9529241403  TIP3      2769            0.0000000000
     58138      3169  TIP3      H1             -8.2496891398      -18.0350244692       34.7217089265  TIP3      2769            0.0000000000
     58139      3169  TIP3      H2             -9.6319565569      -17.7755722570       34.0881037468  TIP3      2769            0.0000000000
     58140      3170  TIP3      OH2            -5.3513762076      -13.8136476681       34.8242084016  TIP3      2770            0.0000000000
     58141      3170  TIP3      H1             -5.8913893925      -13.9904258738       35.6303348327  TIP3      2770            0.0000000000
     58142      3170  TIP3      H2             -5.5231823147      -12.8951743226       34.5842591644  TIP3      2770            0.0000000000
     58143      3171  TIP3      OH2            -9.0213879729      -15.1013368981       21.2626231490  TIP3      2771            0.0000000000
     58144      3171  TIP3      H1             -9.2779324744      -15.0923309994       22.1882545676  TIP3      2771            0.0000000000
     58145      3171  TIP3      H2             -9.2787479108      -15.9677061021       20.9512395936  TIP3      2771            0.0000000000
     58146      3172  TIP3      OH2           -13.2308193103      -12.3561423676       31.7339351929  TIP3      2772            0.0000000000
     58147      3172  TIP3      H1            -13.9065857642      -12.3817843213       32.4352998522  TIP3      2772            0.0000000000
     58148      3172  TIP3      H2            -13.2134023333      -11.4169977419       31.4544460685  TIP3      2772            0.0000000000
     58149      3173  TIP3      OH2           -13.2447872490      -12.1758648986       26.6619553732  TIP3      2773            0.0000000000
     58150      3173  TIP3      H1            -14.1617963801      -12.4729419906       26.5282496192  TIP3      2773            0.0000000000
     58151      3173  TIP3      H2            -12.8283958725      -12.5065487371       25.8406857701  TIP3      2773            0.0000000000
     58152      3174  TIP3      OH2            -7.7206762406      -11.7165151351       25.4551433692  TIP3      2774            0.0000000000
     58153      3174  TIP3      H1             -8.1341709995      -10.8899706736       25.1229598164  TIP3      2774            0.0000000000
     58154      3174  TIP3      H2             -7.0121849739      -11.8692902638       24.7947280998  TIP3      2774            0.0000000000
     58155      3175  TIP3      OH2            -8.6261182088      -11.5173955678       36.8982053713  TIP3      2775            0.0000000000
     58156      3175  TIP3      H1             -9.1814460041      -12.2680388191       37.2206505116  TIP3      2775            0.0000000000
     58157      3175  TIP3      H2             -7.7943827086      -11.6533888091       37.3793939145  TIP3      2775            0.0000000000
     58158      3176  TIP3      OH2            -6.6969851980      -12.2465871753       28.2684738593  TIP3      2776            0.0000000000
     58159      3176  TIP3      H1             -6.9262040542      -11.6699382164       27.5195490912  TIP3      2776            0.0000000000
     58160      3176  TIP3      H2             -6.5488725382      -13.0973986847       27.8031981661  TIP3      2776            0.0000000000
     58161      3177  TIP3      OH2           -15.5426005400      -12.0396092226       33.5198411393  TIP3      2777            0.0000000000
     58162      3177  TIP3      H1            -15.5182821179      -11.6535410716       34.4189289530  TIP3      2777            0.0000000000
     58163      3177  TIP3      H2            -15.9967612411      -12.8825788632       33.6820928463  TIP3      2777            0.0000000000
     58164      3178  TIP3      OH2           -18.9013806509      -14.9222626351       27.4319284962  TIP3      2778            0.0000000000
     58165      3178  TIP3      H1            -18.2441382224      -14.9829827903       28.1495783269  TIP3      2778            0.0000000000
     58166      3178  TIP3      H2            -18.4494447111      -15.3560546927       26.6817706883  TIP3      2778            0.0000000000
     58167      3179  TIP3      OH2           -17.6088148687      -14.2000142932       22.8562598237  TIP3      2779            0.0000000000
     58168      3179  TIP3      H1            -17.1590878927      -13.5889634273       22.2632168932  TIP3      2779            0.0000000000
     58169      3179  TIP3      H2            -18.3373962003      -13.6309426559       23.1753866289  TIP3      2779            0.0000000000
     58170      3180  TIP3      OH2            -7.4593371234      -10.6262426518       32.8865636103  TIP3      2780            0.0000000000
     58171      3180  TIP3      H1             -7.1134329957      -11.2932072494       32.2643285916  TIP3      2780            0.0000000000
     58172      3180  TIP3      H2             -7.9087668170      -11.1718180263       33.5563607067  TIP3      2780            0.0000000000
     58173      3181  TIP3      OH2           -10.6669650477      -14.6902414338       27.6829412666  TIP3      2781            0.0000000000
     58174      3181  TIP3      H1            -11.5981800277      -14.6537226486       27.9830725746  TIP3      2781            0.0000000000
     58175      3181  TIP3      H2            -10.1746578903      -14.7908247242       28.5096443120  TIP3      2781            0.0000000000
     58176      3182  TIP3      OH2           -15.8528783920      -13.0772795843       26.5392459172  TIP3      2782            0.0000000000
     58177      3182  TIP3      H1            -16.7497848110      -12.9862730350       26.1556340652  TIP3      2782            0.0000000000
     58178      3182  TIP3      H2            -15.5577781151      -13.9311286236       26.1589921867  TIP3      2782            0.0000000000
     58179      3183  TIP3      OH2           -12.2170933841      -13.0687963692       24.1981542654  TIP3      2783            0.0000000000
     58180      3183  TIP3      H1            -11.2603569637      -12.9586674216       24.3487572251  TIP3      2783            0.0000000000
     58181      3183  TIP3      H2            -12.4164717056      -12.4027445672       23.5204698962  TIP3      2783            0.0000000000
     58182      3184  TIP3      OH2            -6.2618600167      -15.4406900250       30.9341075823  TIP3      2784            0.0000000000
     58183      3184  TIP3      H1             -6.9499918254      -15.3646897487       31.6290504379  TIP3      2784            0.0000000000
     58184      3184  TIP3      H2             -6.7662387454      -15.6516116753       30.1398231627  TIP3      2784            0.0000000000
     58185      3185  TIP3      OH2            -3.0285039313        0.2030578626       37.2583103908  TIP3      2785            0.0000000000
     58186      3185  TIP3      H1             -2.7800685865        0.6128751499       36.4065572626  TIP3      2785            0.0000000000
     58187      3185  TIP3      H2             -2.3249732095        0.5402036108       37.8423483479  TIP3      2785            0.0000000000
     58188      3186  TIP3      OH2           -15.3719238122       -7.3286894149       36.8239221887  TIP3      2786            0.0000000000
     58189      3186  TIP3      H1            -14.6595145723       -7.0697793490       37.4310883329  TIP3      2786            0.0000000000
     58190      3186  TIP3      H2            -16.1673256225       -7.1620794869       37.3811767762  TIP3      2786            0.0000000000
     58191      3187  TIP3      OH2            -9.3720745992      -11.9118462996       29.5802258142  TIP3      2787            0.0000000000
     58192      3187  TIP3      H1             -8.7909929238      -12.4606786865       29.0390180319  TIP3      2787            0.0000000000
     58193      3187  TIP3      H2             -9.5128823108      -12.4499696344       30.3698966100  TIP3      2787            0.0000000000
     58194      3188  TIP3      OH2           -14.3683954186      -15.7637368802       25.9995132324  TIP3      2788            0.0000000000
     58195      3188  TIP3      H1            -14.6793992114      -16.6865424086       25.9834401010  TIP3      2788            0.0000000000
     58196      3188  TIP3      H2            -13.5738644259      -15.7918385790       25.4584059861  TIP3      2788            0.0000000000
     58197      3189  TIP3      OH2           -10.7366689414      -13.5589570192       31.9881252055  TIP3      2789            0.0000000000
     58198      3189  TIP3      H1            -11.5715902122      -13.0675289815       32.0991338889  TIP3      2789            0.0000000000
     58199      3189  TIP3      H2            -10.1974351713      -13.2411814380       32.7412556156  TIP3      2789            0.0000000000
     58200      3190  TIP3      OH2           -10.1275645468       -7.3294971033       23.6502823774  TIP3      2790            0.0000000000
     58201      3190  TIP3      H1            -10.9564211173       -7.8300419040       23.3859352229  TIP3      2790            0.0000000000
     58202      3190  TIP3      H2            -10.3603087149       -7.2750833166       24.6132235574  TIP3      2790            0.0000000000
     58203      3191  TIP3      OH2            -3.0077143028       -8.1807612956       32.4880921657  TIP3      2791            0.0000000000
     58204      3191  TIP3      H1             -2.4029853623       -7.7065331986       31.8935162937  TIP3      2791            0.0000000000
     58205      3191  TIP3      H2             -3.8562331570       -8.0816605287       32.0061936065  TIP3      2791            0.0000000000
     58206      3192  TIP3      OH2            -8.6659431074       -7.1201388039       34.9204977485  TIP3      2792            0.0000000000
     58207      3192  TIP3      H1             -9.0110163684       -7.5160772861       35.7284621060  TIP3      2792            0.0000000000
     58208      3192  TIP3      H2             -8.8851262594       -6.1876934787       35.0069626419  TIP3      2792            0.0000000000
     58209      3193  TIP3      OH2            -5.5968487775      -12.6039427053       23.5676447644  TIP3      2793            0.0000000000
     58210      3193  TIP3      H1             -4.6834651849      -12.7792163982       23.8567258094  TIP3      2793            0.0000000000
     58211      3193  TIP3      H2             -5.5046756987      -11.8625681118       22.9722159458  TIP3      2793            0.0000000000
     58212      3194  TIP3      OH2           -15.0997413013       -8.0102426450       29.4881059809  TIP3      2794            0.0000000000
     58213      3194  TIP3      H1            -14.3431618402       -8.0326652688       28.8249463177  TIP3      2794            0.0000000000
     58214      3194  TIP3      H2            -14.9427849574       -8.8405583497       29.9429402167  TIP3      2794            0.0000000000
     58215      3195  TIP3      OH2            -8.0393162888       -5.8610843079       22.7226209864  TIP3      2795            0.0000000000
     58216      3195  TIP3      H1             -8.3763483051       -5.0469879980       23.0913431718  TIP3      2795            0.0000000000
     58217      3195  TIP3      H2             -8.7733151092       -6.4919706606       22.9030623666  TIP3      2795            0.0000000000
     58218      3196  TIP3      OH2           -18.0523640134       -9.5582540134       34.7451469850  TIP3      2796            0.0000000000
     58219      3196  TIP3      H1            -17.8483297721       -9.9886139297       35.6045616266  TIP3      2796            0.0000000000
     58220      3196  TIP3      H2            -18.6731727830      -10.1831228708       34.3394377683  TIP3      2796            0.0000000000
     58221      3197  TIP3      OH2           -11.0454871798      -10.0214661657       36.9667569505  TIP3      2797            0.0000000000
     58222      3197  TIP3      H1            -11.3413931163      -10.2468005780       36.0750605679  TIP3      2797            0.0000000000
     58223      3197  TIP3      H2            -10.1038144275      -10.2873157595       36.9509158023  TIP3      2797            0.0000000000
     58224      3198  TIP3      OH2            -6.3870376687       -4.6752431765       34.8599894124  TIP3      2798            0.0000000000
     58225      3198  TIP3      H1             -7.3107671121       -4.4844969926       34.6235978059  TIP3      2798            0.0000000000
     58226      3198  TIP3      H2             -6.3921335516       -4.3953623416       35.7975467566  TIP3      2798            0.0000000000
     58227      3199  TIP3      OH2            -0.6777596005      -12.4523868194       23.2345886153  TIP3      2799            0.0000000000
     58228      3199  TIP3      H1             -1.2580613729      -12.8363729099       22.5568968643  TIP3      2799            0.0000000000
     58229      3199  TIP3      H2             -0.6071611155      -11.5284379400       22.9828552747  TIP3      2799            0.0000000000
     58230      3200  TIP3      OH2            -0.7074091497       -6.6230473081       36.0890870414  TIP3      2800            0.0000000000
     58231      3200  TIP3      H1             -1.5880034055       -6.3938218360       35.7047217497  TIP3      2800            0.0000000000
     58232      3200  TIP3      H2             -0.1377935770       -6.6492694511       35.2965708926  TIP3      2800            0.0000000000
     58233      3201  TIP3      OH2            -2.3775999536       -3.6380264396       23.6913802166  TIP3      2801            0.0000000000
     58234      3201  TIP3      H1             -2.7703069667       -4.4619991496       23.9970820947  TIP3      2801            0.0000000000
     58235      3201  TIP3      H2             -2.1219153718       -3.8198033093       22.7643692936  TIP3      2801            0.0000000000
     58236      3202  TIP3      OH2            -5.2103198512       -8.8279797602       30.7479766494  TIP3      2802            0.0000000000
     58237      3202  TIP3      H1             -6.1533441866       -9.0629713290       30.6807220220  TIP3      2802            0.0000000000
     58238      3202  TIP3      H2             -4.7748022759       -9.6132885985       30.3688129334  TIP3      2802            0.0000000000
     58239      3203  TIP3      OH2           -12.6835173154       -4.4945516499       26.8717197083  TIP3      2803            0.0000000000
     58240      3203  TIP3      H1            -12.1655350318       -3.7119115119       26.6432845647  TIP3      2803            0.0000000000
     58241      3203  TIP3      H2            -13.5634608607       -4.2808099579       26.5386986548  TIP3      2803            0.0000000000
     58242      3204  TIP3      OH2           -10.9975186928       -6.6299919123       26.8212288363  TIP3      2804            0.0000000000
     58243      3204  TIP3      H1            -11.5164602376       -5.8799850673       26.4664136993  TIP3      2804            0.0000000000
     58244      3204  TIP3      H2            -11.8140100726       -7.2352639082       26.7860911473  TIP3      2804            0.0000000000
     58245      3205  TIP3      OH2           -10.7853810629       -2.6805403771       32.7661337166  TIP3      2805            0.0000000000
     58246      3205  TIP3      H1            -10.3689190494       -1.8415498538       32.5122791457  TIP3      2805            0.0000000000
     58247      3205  TIP3      H2            -10.2004839618       -2.9892359779       33.4834706268  TIP3      2805            0.0000000000
     58248      3206  TIP3      OH2           -12.5652219391       -1.8496712834       25.9866227799  TIP3      2806            0.0000000000
     58249      3206  TIP3      H1            -13.5342948567       -1.7132194695       26.0334817417  TIP3      2806            0.0000000000
     58250      3206  TIP3      H2            -12.2245504091       -0.9961326726       26.3012780681  TIP3      2806            0.0000000000
     58251      3207  TIP3      OH2            -7.2299382206       -6.6168118270       32.4335326907  TIP3      2807            0.0000000000
     58252      3207  TIP3      H1             -7.6225572823       -6.8329883035       33.3005720710  TIP3      2807            0.0000000000
     58253      3207  TIP3      H2             -6.6228940492       -7.3512874114       32.2596145470  TIP3      2807            0.0000000000
     58254      3208  TIP3      OH2            -4.9932554841       -5.6111354499       21.5429571060  TIP3      2808            0.0000000000
     58255      3208  TIP3      H1             -4.6597468970       -6.0759891600       22.3240214635  TIP3      2808            0.0000000000
     58256      3208  TIP3      H2             -5.9421304017       -5.7819193101       21.5998096342  TIP3      2808            0.0000000000
     58257      3209  TIP3      OH2            -4.5083435660       -2.0593355773       34.9293276928  TIP3      2809            0.0000000000
     58258      3209  TIP3      H1             -5.1516149120       -2.5867071157       34.4167747882  TIP3      2809            0.0000000000
     58259      3209  TIP3      H2             -4.2721355675       -1.3738272708       34.2690084346  TIP3      2809            0.0000000000
     58260      3210  TIP3      OH2            -0.4688459470       -1.2034634465       21.7658304529  TIP3      2810            0.0000000000
     58261      3210  TIP3      H1              0.2497388880       -0.5877954473       21.5588245274  TIP3      2810            0.0000000000
     58262      3210  TIP3      H2             -1.2020967328       -0.6158102162       22.0390488956  TIP3      2810            0.0000000000
     58263      3211  TIP3      OH2           -16.4066585121      -14.8121094376       34.3113569517  TIP3      2811            0.0000000000
     58264      3211  TIP3      H1            -17.3173710856      -14.4709135541       34.2644376557  TIP3      2811            0.0000000000
     58265      3211  TIP3      H2            -16.5204411695      -15.6696967024       34.7522231279  TIP3      2811            0.0000000000
     58266      3212  TIP3      OH2            -4.1408287410       -6.9761217767       23.7511529529  TIP3      2812            0.0000000000
     58267      3212  TIP3      H1             -4.4080837395       -7.7392819518       24.3009288915  TIP3      2812            0.0000000000
     58268      3212  TIP3      H2             -3.2031930875       -6.8891662941       23.9500539601  TIP3      2812            0.0000000000
     58269      3213  TIP3      OH2           -16.7746051092       -3.0099446223       32.7404815763  TIP3      2813            0.0000000000
     58270      3213  TIP3      H1            -16.5277524698       -3.9486195864       32.7354869203  TIP3      2813            0.0000000000
     58271      3213  TIP3      H2            -16.5229401325       -2.7411671083       33.6327394656  TIP3      2813            0.0000000000
     58272      3214  TIP3      OH2           -10.8910015333       -4.5520846002       19.9580387643  TIP3      2814            0.0000000000
     58273      3214  TIP3      H1            -10.6764372924       -5.2994523387       19.4222782420  TIP3      2814            0.0000000000
     58274      3214  TIP3      H2            -11.2097000608       -4.9268954766       20.8056926821  TIP3      2814            0.0000000000
     58275      3215  TIP3      OH2           -11.9906318768       -4.9828495834       22.4264456489  TIP3      2815            0.0000000000
     58276      3215  TIP3      H1            -11.8232636698       -5.5225697189       23.2211644920  TIP3      2815            0.0000000000
     58277      3215  TIP3      H2            -11.9733936404       -4.0643196082       22.7378602119  TIP3      2815            0.0000000000
     58278      3216  TIP3      OH2           -15.5352586034       -7.7259120210       22.9144547033  TIP3      2816            0.0000000000
     58279      3216  TIP3      H1            -16.2017651266       -7.3612693481       23.5127715645  TIP3      2816            0.0000000000
     58280      3216  TIP3      H2            -14.9830561407       -6.9624367960       22.6993517661  TIP3      2816            0.0000000000
     58281      3217  TIP3      OH2            -7.6947734040      -15.0454107790       33.2288157631  TIP3      2817            0.0000000000
     58282      3217  TIP3      H1             -6.9747162717      -15.0028941498       33.8723629103  TIP3      2817            0.0000000000
     58283      3217  TIP3      H2             -8.0557326968      -15.9401648966       33.4017208992  TIP3      2817            0.0000000000
     58284      3218  TIP3      OH2            -6.9350721683      -15.4170881159       24.3379645849  TIP3      2818            0.0000000000
     58285      3218  TIP3      H1             -6.6789088489      -14.9717964412       23.5016802119  TIP3      2818            0.0000000000
     58286      3218  TIP3      H2             -6.3272544083      -15.0267589783       24.9703309025  TIP3      2818            0.0000000000
     58287      3219  TIP3      OH2            -9.7177978772      -13.6915418337       25.1478029814  TIP3      2819            0.0000000000
     58288      3219  TIP3      H1             -8.8868584124      -13.1713729072       25.1772295892  TIP3      2819            0.0000000000
     58289      3219  TIP3      H2             -9.9525131735      -13.8383743089       26.0818104919  TIP3      2819            0.0000000000
     58290      3220  TIP3      OH2            -9.1583671545      -12.7047414779       34.3366148352  TIP3      2820            0.0000000000
     58291      3220  TIP3      H1             -9.0576991406      -12.1286558628       35.1167269930  TIP3      2820            0.0000000000
     58292      3220  TIP3      H2             -8.4982033928      -13.3992862804       34.4477193486  TIP3      2820            0.0000000000
     58293      3221  TIP3      OH2            -8.8297928979      -16.6445180786       26.0872303223  TIP3      2821            0.0000000000
     58294      3221  TIP3      H1             -9.1669008623      -15.9916768354       26.7253987026  TIP3      2821            0.0000000000
     58295      3221  TIP3      H2             -8.1531908141      -16.1042571068       25.5979454119  TIP3      2821            0.0000000000
     58296      3222  TIP3      OH2            -2.9470826699      -14.8036631422       35.1931432251  TIP3      2822            0.0000000000
     58297      3222  TIP3      H1             -3.8912609087      -14.5405159171       35.0663888500  TIP3      2822            0.0000000000
     58298      3222  TIP3      H2             -2.6488581825      -14.8321800129       34.2681609369  TIP3      2822            0.0000000000
     58299      3223  TIP3      OH2            -4.3595290641      -11.0378812819       29.2458701302  TIP3      2823            0.0000000000
     58300      3223  TIP3      H1             -5.1704683296      -11.4735204000       28.9294841780  TIP3      2823            0.0000000000
     58301      3223  TIP3      H2             -3.8989736299      -11.7425840054       29.7521472281  TIP3      2823            0.0000000000
     58302      3224  TIP3      OH2           -14.9291280179       -5.1411850680       21.8350871697  TIP3      2824            0.0000000000
     58303      3224  TIP3      H1            -14.3199150193       -4.4301408937       22.0930820348  TIP3      2824            0.0000000000
     58304      3224  TIP3      H2            -14.4324567783       -5.5329158663       21.1065747404  TIP3      2824            0.0000000000
     58305      3225  TIP3      OH2            -3.2892647509       -1.7994279887       30.8898663227  TIP3      2825            0.0000000000
     58306      3225  TIP3      H1             -3.4072891865       -1.1054319323       30.2111303094  TIP3      2825            0.0000000000
     58307      3225  TIP3      H2             -2.3285847217       -1.7203124349       31.0739498241  TIP3      2825            0.0000000000
     58308      3226  TIP3      OH2           -15.7808925933      -17.6613806830       29.6512756340  TIP3      2826            0.0000000000
     58309      3226  TIP3      H1            -16.0079814185      -17.6268771673       28.6943201083  TIP3      2826            0.0000000000
     58310      3226  TIP3      H2            -16.2229481176      -18.4883529088       29.9296474616  TIP3      2826            0.0000000000
     58311      3227  TIP3      OH2           -16.8398669965       -3.7372296795       25.7977808958  TIP3      2827            0.0000000000
     58312      3227  TIP3      H1            -17.6827191883       -3.2635344404       25.7969585176  TIP3      2827            0.0000000000
     58313      3227  TIP3      H2            -16.3178257586       -3.2388903382       25.1571256374  TIP3      2827            0.0000000000
     58314      3228  TIP3      OH2           -17.5913258053       -1.1030637435       37.1075215718  TIP3      2828            0.0000000000
     58315      3228  TIP3      H1            -17.0219018193       -1.3227684852       37.8738944744  TIP3      2828            0.0000000000
     58316      3228  TIP3      H2            -18.0450175612       -1.9426474198       36.9312010715  TIP3      2828            0.0000000000
     58317      3229  TIP3      OH2           -12.9642792278       -2.1844954032       38.7410268869  TIP3      2829            0.0000000000
     58318      3229  TIP3      H1            -12.1898758094       -2.6660310156       39.0648727833  TIP3      2829            0.0000000000
     58319      3229  TIP3      H2            -12.9789480797       -2.4397257511       37.7945258584  TIP3      2829            0.0000000000
     58320      3230  TIP3      OH2            -6.4185853305       -3.7993963118       37.4548015257  TIP3      2830            0.0000000000
     58321      3230  TIP3      H1             -6.7464836065       -4.6835726799       37.7178543757  TIP3      2830            0.0000000000
     58322      3230  TIP3      H2             -5.6621792428       -3.6764057092       38.0591866388  TIP3      2830            0.0000000000
     58323      3231  TIP3      OH2           -17.6788795458       -7.3137208032       38.0884734330  TIP3      2831            0.0000000000
     58324      3231  TIP3      H1            -17.5220973460       -8.2249694831       37.7768338324  TIP3      2831            0.0000000000
     58325      3231  TIP3      H2            -18.4404820387       -7.0363679045       37.5535132618  TIP3      2831            0.0000000000
     58326      3232  TIP3      OH2           -10.9955240756       -7.3372201944       37.4937413213  TIP3      2832            0.0000000000
     58327      3232  TIP3      H1            -11.3364389471       -7.0486561274       36.6280108772  TIP3      2832            0.0000000000
     58328      3232  TIP3      H2            -10.8757775115       -8.3048611819       37.3973259766  TIP3      2832            0.0000000000
     58329      3233  TIP3      OH2            -5.2846030618       -7.4537584244       34.8848208813  TIP3      2833            0.0000000000
     58330      3233  TIP3      H1             -4.5180069313       -6.8463506356       34.7848063065  TIP3      2833            0.0000000000
     58331      3233  TIP3      H2             -6.0155924491       -6.8226341300       34.9341889575  TIP3      2833            0.0000000000
     58332      3234  TIP3      OH2           -16.8184547593      -10.0956696696       37.4854897570  TIP3      2834            0.0000000000
     58333      3234  TIP3      H1            -16.4052618482      -10.9621035944       37.3819944524  TIP3      2834            0.0000000000
     58334      3234  TIP3      H2            -17.0639552623      -10.0918708790       38.4287672794  TIP3      2834            0.0000000000
     58335      3235  TIP3      OH2           -12.1452322099       -8.9856294628       22.4592941812  TIP3      2835            0.0000000000
     58336      3235  TIP3      H1            -12.6193509594       -9.4394169580       23.1950123556  TIP3      2835            0.0000000000
     58337      3235  TIP3      H2            -11.9072065749       -9.7000738801       21.8646899393  TIP3      2835            0.0000000000
     58338      3236  TIP3      OH2           -12.8841091013      -11.1252929302       34.8607452470  TIP3      2836            0.0000000000
     58339      3236  TIP3      H1            -13.4982004510      -10.4203166041       35.1287194223  TIP3      2836            0.0000000000
     58340      3236  TIP3      H2            -12.5230884072      -10.7738857181       34.0290537754  TIP3      2836            0.0000000000
     58341      3237  TIP3      OH2           -11.0872322297      -10.7036453628       20.7457734256  TIP3      2837            0.0000000000
     58342      3237  TIP3      H1            -11.2844761816      -10.9340989493       19.8360329085  TIP3      2837            0.0000000000
     58343      3237  TIP3      H2            -10.1255795632      -10.6684812354       20.8263703506  TIP3      2837            0.0000000000
     58344      3238  TIP3      OH2            -7.8460420775       -8.6038810907       38.1792193636  TIP3      2838            0.0000000000
     58345      3238  TIP3      H1             -6.8861774021       -8.5643476705       38.0937972807  TIP3      2838            0.0000000000
     58346      3238  TIP3      H2             -8.0089105097       -9.3510637079       38.7721417509  TIP3      2838            0.0000000000
     58347      3239  TIP3      OH2           -12.5136432657      -13.7525886700       35.9323785867  TIP3      2839            0.0000000000
     58348      3239  TIP3      H1            -12.3840108825      -14.4816380234       35.3046156074  TIP3      2839            0.0000000000
     58349      3239  TIP3      H2            -12.5359214350      -12.9562301434       35.3669942164  TIP3      2839            0.0000000000
     58350      3240  TIP3      OH2           -12.1065761627      -15.3821376130       33.4545817420  TIP3      2840            0.0000000000
     58351      3240  TIP3      H1            -11.5820299121      -14.9206386331       32.7610275045  TIP3      2840            0.0000000000
     58352      3240  TIP3      H2            -12.9875338430      -15.4764920574       33.0235687095  TIP3      2840            0.0000000000
     58353      3241  TIP3      OH2           -10.5461371656       -9.9284854135       33.6927824699  TIP3      2841            0.0000000000
     58354      3241  TIP3      H1             -9.7927918814      -10.0829354934       33.1105129467  TIP3      2841            0.0000000000
     58355      3241  TIP3      H2            -10.8932981660       -9.0746528740       33.3874116336  TIP3      2841            0.0000000000
     58356      3242  TIP3      OH2            -6.1419890995      -12.1318765142       38.6904790757  TIP3      2842            0.0000000000
     58357      3242  TIP3      H1             -5.9301085667      -13.0714166006       38.5895301912  TIP3      2842            0.0000000000
     58358      3242  TIP3      H2             -5.2694040131      -11.7077516297       38.6847044212  TIP3      2842            0.0000000000
     58359      3243  TIP3      OH2            -4.8189639631       -9.3411472724       36.8217306294  TIP3      2843            0.0000000000
     58360      3243  TIP3      H1             -5.0771881813       -8.6212748330       36.2014486811  TIP3      2843            0.0000000000
     58361      3243  TIP3      H2             -3.8590244765       -9.3936653751       36.6210801522  TIP3      2843            0.0000000000
     58362      3244  TIP3      OH2           -14.0426144269      -12.5267779546       37.8610763508  TIP3      2844            0.0000000000
     58363      3244  TIP3      H1            -14.8185674666      -13.0875966976       37.6413620773  TIP3      2844            0.0000000000
     58364      3244  TIP3      H2            -13.3820789418      -12.8698454908       37.2284586594  TIP3      2844            0.0000000000
     58365      3245  TIP3      OH2           -11.3081369283      -17.9427352663       33.8755540831  TIP3      2845            0.0000000000
     58366      3245  TIP3      H1            -11.4424682654      -16.9731704152       33.7583164884  TIP3      2845            0.0000000000
     58367      3245  TIP3      H2            -12.0640664011      -18.2969326559       33.3727325595  TIP3      2845            0.0000000000
     58368      3246  TIP3      OH2           -10.0381487837      -13.6131412838       37.4495001265  TIP3      2846            0.0000000000
     58369      3246  TIP3      H1            -10.3169184129      -13.8303042820       38.3569156459  TIP3      2846            0.0000000000
     58370      3246  TIP3      H2            -10.8360623964      -13.8089097952       36.9203550760  TIP3      2846            0.0000000000
     58371      3247  TIP3      OH2            -7.3275953484      -14.4709772253       36.5198079620  TIP3      2847            0.0000000000
     58372      3247  TIP3      H1             -8.2882914623      -14.4350249773       36.6554210377  TIP3      2847            0.0000000000
     58373      3247  TIP3      H2             -7.0283412175      -15.1128440096       37.1878921834  TIP3      2847            0.0000000000
     58374      3248  TIP3      OH2            -5.7263487100      -15.8355036455       38.4944461758  TIP3      2848            0.0000000000
     58375      3248  TIP3      H1             -5.7873728307      -16.8110477613       38.4959384923  TIP3      2848            0.0000000000
     58376      3248  TIP3      H2             -6.0180563446      -15.5612001616       39.3909058588  TIP3      2848            0.0000000000
     58377      3249  TIP3      OH2           -15.9082827755      -14.5994245945       37.5637421358  TIP3      2849            0.0000000000
     58378      3249  TIP3      H1            -15.6780729234      -15.3323708851       36.9602977056  TIP3      2849            0.0000000000
     58379      3249  TIP3      H2            -16.0036986383      -15.0537434770       38.4250854125  TIP3      2849            0.0000000000
     58380      3250  TIP3      OH2           -11.0995921156      -18.5953054633       36.5540905454  TIP3      2850            0.0000000000
     58381      3250  TIP3      H1            -10.3886036819      -19.2715255521       36.5222128392  TIP3      2850            0.0000000000
     58382      3250  TIP3      H2            -11.1945175300      -18.3809634171       35.6068657078  TIP3      2850            0.0000000000
     58383      3251  TIP3      OH2           -10.7366629670      -16.9478133892       38.6233367800  TIP3      2851            0.0000000000
     58384      3251  TIP3      H1            -10.8841947770      -17.4401561882       37.7790076482  TIP3      2851            0.0000000000
     58385      3251  TIP3      H2            -11.3361173172      -16.1850691521       38.5351852658  TIP3      2851            0.0000000000
     58386      3252  TIP3      OH2           -17.6693129603       -5.4677910491       21.2839083570  TIP3      2852            0.0000000000
     58387      3252  TIP3      H1            -16.7141786734       -5.3348115650       21.5163329692  TIP3      2852            0.0000000000
     58388      3252  TIP3      H2            -17.5873560704       -6.1010134678       20.5725770594  TIP3      2852            0.0000000000
     58389      3253  TIP3      OH2           -18.9514712865       -0.0409372200       26.2999453847  TIP3      2853            0.0000000000
     58390      3253  TIP3      H1            -19.6368791225       -0.5238407633       25.7940449019  TIP3      2853            0.0000000000
     58391      3253  TIP3      H2            -18.6332571644       -0.7143544166       26.9249508931  TIP3      2853            0.0000000000
     58392      3254  TIP3      OH2           -18.1037251312       -1.9426507559       28.1278883891  TIP3      2854            0.0000000000
     58393      3254  TIP3      H1            -18.4472094241       -2.8273476789       28.3210946833  TIP3      2854            0.0000000000
     58394      3254  TIP3      H2            -17.8800503121       -1.6076708602       29.0147863510  TIP3      2854            0.0000000000
     58395      3255  TIP3      OH2            -0.5684727440       -1.1450861818       31.0944989022  TIP3      2855            0.0000000000
     58396      3255  TIP3      H1             -0.5602410620       -0.9610155450       32.0495563745  TIP3      2855            0.0000000000
     58397      3255  TIP3      H2              0.1352197389       -0.5665787361       30.7772763500  TIP3      2855            0.0000000000
     58398      3256  TIP3      OH2            -0.9917602477       -1.5468824510       34.0327295813  TIP3      2856            0.0000000000
     58399      3256  TIP3      H1             -1.4750280481       -2.3172458840       33.6594251730  TIP3      2856            0.0000000000
     58400      3256  TIP3      H2             -0.4658241820       -1.9826920412       34.7224854580  TIP3      2856            0.0000000000
     58401      3257  TIP3      OH2            -2.5414178643       -5.8161089420       38.6726911141  TIP3      2857            0.0000000000
     58402      3257  TIP3      H1             -3.4255790564       -5.8681703391       39.0757994375  TIP3      2857            0.0000000000
     58403      3257  TIP3      H2             -2.1696692358       -5.0203739195       39.1230658487  TIP3      2857            0.0000000000
     58404      3258  TIP3      OH2            -1.2278575834       -7.5380117497       24.1330415754  TIP3      2858            0.0000000000
     58405      3258  TIP3      H1             -0.3878680536       -7.0971234138       24.3316676601  TIP3      2858            0.0000000000
     58406      3258  TIP3      H2             -1.2394735009       -8.2467155827       24.8123475289  TIP3      2858            0.0000000000
     58407      3259  TIP3      OH2            -0.8501884592       -9.4572051694       25.9808955362  TIP3      2859            0.0000000000
     58408      3259  TIP3      H1             -1.5970229464       -9.9405327804       26.4093234170  TIP3      2859            0.0000000000
     58409      3259  TIP3      H2             -0.2701924456       -9.2709829863       26.7561703201  TIP3      2859            0.0000000000
     58410      3260  TIP3      OH2            -1.1084873094       -6.7106615598       30.9808952661  TIP3      2860            0.0000000000
     58411      3260  TIP3      H1             -0.2675169174       -7.0766700537       30.6497856893  TIP3      2860            0.0000000000
     58412      3260  TIP3      H2             -0.9710127300       -5.7498040881       30.8304276827  TIP3      2860            0.0000000000
     58413      3261  TIP3      OH2            -2.5739835437       -3.8157543739       33.2747294534  TIP3      2861            0.0000000000
     58414      3261  TIP3      H1             -3.2568103465       -3.4818035900       33.8784071059  TIP3      2861            0.0000000000
     58415      3261  TIP3      H2             -3.1205858662       -4.2403031264       32.5769438976  TIP3      2861            0.0000000000
     58416      3262  TIP3      OH2            -3.0440841573      -10.9486427022       26.5634301706  TIP3      2862            0.0000000000
     58417      3262  TIP3      H1             -3.2143539408      -11.9026882263       26.5493898484  TIP3      2862            0.0000000000
     58418      3262  TIP3      H2             -3.4060304802      -10.6923535243       27.4315684022  TIP3      2862            0.0000000000
     58419      3263  TIP3      OH2           -18.0666482123       -8.8101395021       30.6423646377  TIP3      2863            0.0000000000
     58420      3263  TIP3      H1            -17.8846310229       -8.8430977073       29.6670851517  TIP3      2863            0.0000000000
     58421      3263  TIP3      H2            -17.1725964371       -8.9500160629       31.0426694080  TIP3      2863            0.0000000000
     58422      3264  TIP3      OH2            -2.2119377475       -8.9796389967       36.2413734345  TIP3      2864            0.0000000000
     58423      3264  TIP3      H1             -1.6012491772       -9.7290335294       36.4017303223  TIP3      2864            0.0000000000
     58424      3264  TIP3      H2             -1.6187325293       -8.2020393041       36.2611381179  TIP3      2864            0.0000000000
     58425      3265  TIP3      OH2            -0.7005011385      -11.0761505200       36.9170646497  TIP3      2865            0.0000000000
     58426      3265  TIP3      H1             -1.5764563088      -11.4791884520       36.7387373653  TIP3      2865            0.0000000000
     58427      3265  TIP3      H2             -0.1107853990      -11.8417062021       36.8287062500  TIP3      2865            0.0000000000
     58428      3266  TIP3      OH2            -3.3648028867      -13.3444827510       25.0581309742  TIP3      2866            0.0000000000
     58429      3266  TIP3      H1             -3.0787001791      -14.2872993758       25.1511828656  TIP3      2866            0.0000000000
     58430      3266  TIP3      H2             -2.5896526959      -12.9507081728       24.6479715692  TIP3      2866            0.0000000000
     58431      3267  TIP3      OH2            -2.7511262940      -12.8138978389       30.4710498733  TIP3      2867            0.0000000000
     58432      3267  TIP3      H1             -1.7931573196      -12.5764257667       30.4541278979  TIP3      2867            0.0000000000
     58433      3267  TIP3      H2             -2.9566687531      -12.6787583772       31.4096730527  TIP3      2867            0.0000000000
     58434      3268  TIP3      OH2            -2.6940604600      -12.0778100255       33.2500314226  TIP3      2868            0.0000000000
     58435      3268  TIP3      H1             -3.5621109479      -11.7873907379       33.6034411596  TIP3      2868            0.0000000000
     58436      3268  TIP3      H2             -2.2570463744      -11.2202865116       33.0365990138  TIP3      2868            0.0000000000
     58437      3269  TIP3      OH2           -18.4376458944      -13.5757470431       36.7489599326  TIP3      2869            0.0000000000
     58438      3269  TIP3      H1            -17.4984468849      -13.7451647631       36.9695054445  TIP3      2869            0.0000000000
     58439      3269  TIP3      H2            -18.8821626249      -14.3745357797       37.1039604563  TIP3      2869            0.0000000000
     58440      3270  TIP3      OH2            -0.4048505869      -18.0577013927       38.6149574409  TIP3      2870            0.0000000000
     58441      3270  TIP3      H1             -0.0738206196      -18.7182973572       37.9867083754  TIP3      2870            0.0000000000
     58442      3270  TIP3      H2             -0.2939922941      -17.2295001892       38.1179747537  TIP3      2870            0.0000000000
     58443      3271  TIP3      OH2            -2.7346198939      -16.0642688278       25.0899226387  TIP3      2871            0.0000000000
     58444      3271  TIP3      H1             -2.5394774005      -16.5631688537       25.9064399792  TIP3      2871            0.0000000000
     58445      3271  TIP3      H2             -3.3302014724      -16.7071582324       24.6198692885  TIP3      2871            0.0000000000
     58446      3272  TIP3      OH2           -17.2266231086      -15.2751121063       29.6238152596  TIP3      2872            0.0000000000
     58447      3272  TIP3      H1            -16.7649470257      -16.0931177954       29.9122587899  TIP3      2872            0.0000000000
     58448      3272  TIP3      H2            -16.7144968935      -14.5780060816       30.0459529939  TIP3      2872            0.0000000000
     58449      3273  TIP3      OH2           -18.9285233212      -12.2727200150       30.6696868524  TIP3      2873            0.0000000000
     58450      3273  TIP3      H1            -18.3978088882      -12.5505021847       29.8976171763  TIP3      2873            0.0000000000
     58451      3273  TIP3      H2            -18.5373220510      -11.4663119651       30.9967554821  TIP3      2873            0.0000000000
     58452      3274  TIP3      OH2            -0.8863910222      -15.9444935248       36.9681970343  TIP3      2874            0.0000000000
     58453      3274  TIP3      H1             -1.8324834929      -15.6915335151       36.9097516685  TIP3      2874            0.0000000000
     58454      3274  TIP3      H2             -0.8215706656      -16.4914541859       36.1575777344  TIP3      2874            0.0000000000
     58455      3275  TIP3      OH2            -0.8619946429      -16.0487883015       21.6334024567  TIP3      2875            0.0000000000
     58456      3275  TIP3      H1             -0.4612868246      -16.7587242896       21.1270298485  TIP3      2875            0.0000000000
     58457      3275  TIP3      H2             -0.1906320850      -15.3716306865       21.6710491549  TIP3      2875            0.0000000000
     58458      3276  TIP3      OH2           -18.5862066015      -16.0056792330       24.7682611069  TIP3      2876            0.0000000000
     58459      3276  TIP3      H1            -19.5219384050      -15.8263712253       24.6078760859  TIP3      2876            0.0000000000
     58460      3276  TIP3      H2            -18.1480240531      -15.5576906415       24.0264370034  TIP3      2876            0.0000000000
     58461      3277  TIP3      OH2            -3.8399989160       -1.0575193610       26.6950614923  TIP3      2877            0.0000000000
     58462      3277  TIP3      H1             -3.1651721381       -1.3872009060       26.0696861269  TIP3      2877            0.0000000000
     58463      3277  TIP3      H2             -3.3118420168       -0.5612366988       27.3364151974  TIP3      2877            0.0000000000
     58464      3278  TIP3      OH2           -18.6213005777      -17.3185571476       33.0703762631  TIP3      2878            0.0000000000
     58465      3278  TIP3      H1            -19.3005810552      -17.5413348022       33.7304237060  TIP3      2878            0.0000000000
     58466      3278  TIP3      H2            -19.0832579104      -16.6672756386       32.5022768372  TIP3      2878            0.0000000000
     58467      3279  TIP3      OH2           -16.4132559449       -4.1340637233       37.2260784178  TIP3      2879            0.0000000000
     58468      3279  TIP3      H1            -17.2541937100       -3.9399437568       36.7795944528  TIP3      2879            0.0000000000
     58469      3279  TIP3      H2            -16.6833457835       -4.1990275449       38.1503614400  TIP3      2879            0.0000000000
     58470      3280  TIP3      OH2           -13.4941028315       -3.1589294819       33.4934132582  TIP3      2880            0.0000000000
     58471      3280  TIP3      H1            -13.8736677353       -2.3171133794       33.2061522490  TIP3      2880            0.0000000000
     58472      3280  TIP3      H2            -12.5700368897       -3.0542683922       33.1811932933  TIP3      2880            0.0000000000
     58473      3281  TIP3      OH2            -9.1786600752       -1.7357957423       36.4190050214  TIP3      2881            0.0000000000
     58474      3281  TIP3      H1             -8.9994828327       -2.0811391976       37.3306568372  TIP3      2881            0.0000000000
     58475      3281  TIP3      H2             -8.2943590250       -1.4326463381       36.1400953849  TIP3      2881            0.0000000000
     58476      3282  TIP3      OH2            -6.8624440756       -0.4617693895       35.6882856067  TIP3      2882            0.0000000000
     58477      3282  TIP3      H1             -6.1451434014       -1.0762107205       35.4590713459  TIP3      2882            0.0000000000
     58478      3282  TIP3      H2             -6.4973499599       -0.0484143795       36.5019386963  TIP3      2882            0.0000000000
     58479      3283  TIP3      OH2            -1.5178898055      -17.6051658193       34.7317269215  TIP3      2883            0.0000000000
     58480      3283  TIP3      H1             -2.5074753487      -17.5057600842       34.4837126860  TIP3      2883            0.0000000000
     58481      3283  TIP3      H2             -1.6360249898      -18.5322451351       34.3437472545  TIP3      2883            0.0000000000
     58482      3284  TIP3      OH2           -16.0668427688        0.0961401156       33.5146232120  TIP3      2884            0.0000000000
     58483      3284  TIP3      H1            -16.8028182781        0.5667085825       33.0879352933  TIP3      2884            0.0000000000
     58484      3284  TIP3      H2            -16.4227580648       -0.1277836226       34.3869994984  TIP3      2884            0.0000000000
     58485      3285  TIP3      OH2           -13.5957331731       -0.3173478409       32.5671364059  TIP3      2885            0.0000000000
     58486      3285  TIP3      H1            -14.4910710406       -0.2047029047       32.9655717800  TIP3      2885            0.0000000000
     58487      3285  TIP3      H2            -13.6684906646        0.2608468486       31.7813756097  TIP3      2885            0.0000000000
     58488      3286  TIP3      OH2            -8.8978992358       -0.4163368579       31.7347667057  TIP3      2886            0.0000000000
     58489      3286  TIP3      H1             -9.3611903269        0.1314875607       31.0822365123  TIP3      2886            0.0000000000
     58490      3286  TIP3      H2             -8.7470370779        0.2135111959       32.4701093100  TIP3      2886            0.0000000000
     58491      3287  TIP3      OH2            -6.5784028818       -1.5661690140       32.7113830488  TIP3      2887            0.0000000000
     58492      3287  TIP3      H1             -7.4722034795       -1.3437486035       32.4059606203  TIP3      2887            0.0000000000
     58493      3287  TIP3      H2             -6.1403414497       -0.7007494330       32.6305357888  TIP3      2887            0.0000000000
     58494      3288  TIP3      OH2            -3.9910980049        0.0019970205       32.9936200804  TIP3      2888            0.0000000000
     58495      3288  TIP3      H1             -4.1252165642        0.9537898184       32.7582471211  TIP3      2888            0.0000000000
     58496      3288  TIP3      H2             -3.7991331508       -0.3764610197       32.1157585372  TIP3      2888            0.0000000000
     58497      3289  TIP3      OH2           -16.6531262687       -1.2584976598       30.4342124881  TIP3      2889            0.0000000000
     58498      3289  TIP3      H1            -16.6899791083       -1.7067867804       31.3060831722  TIP3      2889            0.0000000000
     58499      3289  TIP3      H2            -15.8299844834       -1.6085487549       30.0351865272  TIP3      2889            0.0000000000
     58500      3290  TIP3      OH2           -14.5507993939       -2.5387215643       29.1010404221  TIP3      2890            0.0000000000
     58501      3290  TIP3      H1            -14.7258270848       -3.4799539715       29.2891454998  TIP3      2890            0.0000000000
     58502      3290  TIP3      H2            -13.6860678526       -2.4134551708       29.5545107779  TIP3      2890            0.0000000000
     58503      3291  TIP3      OH2           -11.9682715088       -2.0688170008       29.9537917627  TIP3      2891            0.0000000000
     58504      3291  TIP3      H1            -11.7703713014       -2.9817589289       29.6736426096  TIP3      2891            0.0000000000
     58505      3291  TIP3      H2            -11.9054468530       -2.1317518097       30.9146301064  TIP3      2891            0.0000000000
     58506      3292  TIP3      OH2            -8.4877863332      -16.4121299261       29.0843808096  TIP3      2892            0.0000000000
     58507      3292  TIP3      H1             -9.1487980528      -17.0647048636       29.3615662826  TIP3      2892            0.0000000000
     58508      3292  TIP3      H2             -7.9111369050      -16.9307191365       28.5089709204  TIP3      2892            0.0000000000
     58509      3293  TIP3      OH2            -3.3293270281      -18.3303785794       29.2042951091  TIP3      2893            0.0000000000
     58510      3293  TIP3      H1             -2.7229219004      -17.7652923122       28.6739213134  TIP3      2893            0.0000000000
     58511      3293  TIP3      H2             -4.2149421257      -18.0087900884       28.9581565634  TIP3      2893            0.0000000000
     58512      3294  TIP3      OH2            -1.6406579181      -17.1442696299       27.5082516143  TIP3      2894            0.0000000000
     58513      3294  TIP3      H1             -0.9925394891      -17.7006311418       27.0084942856  TIP3      2894            0.0000000000
     58514      3294  TIP3      H2             -1.1945005369      -16.2827711215       27.5530470076  TIP3      2894            0.0000000000
     58515      3295  TIP3      OH2           -16.1284553702      -17.7904037450       26.9426337508  TIP3      2895            0.0000000000
     58516      3295  TIP3      H1            -16.9214144396      -18.0141974406       26.4164763636  TIP3      2895            0.0000000000
     58517      3295  TIP3      H2            -15.6303695233      -18.6221017857       26.9011798929  TIP3      2895            0.0000000000
     58518      3296  TIP3      OH2           -11.6033850929      -17.8701067083       26.7200113644  TIP3      2896            0.0000000000
     58519      3296  TIP3      H1            -10.7074394953      -17.4839289498       26.6939996053  TIP3      2896            0.0000000000
     58520      3296  TIP3      H2            -11.6889044859      -18.0749711146       27.6560799071  TIP3      2896            0.0000000000
     58521      3297  TIP3      OH2            -5.9889811417      -17.8253089651       28.3711092581  TIP3      2897            0.0000000000
     58522      3297  TIP3      H1             -5.9434723520      -17.7453708503       27.4157401395  TIP3      2897            0.0000000000
     58523      3297  TIP3      H2             -6.2897167486      -18.7551550721       28.4948058895  TIP3      2897            0.0000000000
     58524      3298  TIP3      OH2            -4.9338996812      -17.5430357885       23.7073850534  TIP3      2898            0.0000000000
     58525      3298  TIP3      H1             -5.6578158012      -17.0254677164       23.8534553652  TIP3      2898            0.0000000000
     58526      3298  TIP3      H2             -5.0636037397      -18.4736947552       24.1536006813  TIP3      2898            0.0000000000
     58527      3299  TIP3      OH2           -17.4195245131       -2.0702167798       23.6490575623  TIP3      2899            0.0000000000
     58528      3299  TIP3      H1            -18.0816945699       -2.0797511542       22.9479425971  TIP3      2899            0.0000000000
     58529      3299  TIP3      H2            -17.4102117600       -1.1248350645       23.8625067431  TIP3      2899            0.0000000000
     58530      3300  TIP3      OH2           -10.4981854109      -15.8244979083       23.5989739282  TIP3      2900            0.0000000000
     58531      3300  TIP3      H1            -10.2301634342      -16.4174186520       24.3076205949  TIP3      2900            0.0000000000
     58532      3300  TIP3      H2            -10.4505561181      -14.9590444534       24.0734044747  TIP3      2900            0.0000000000
     58533      3301  TIP3      OH2            -1.8371006722       -1.2599875541       24.7328537461  TIP3      2901            0.0000000000
     58534      3301  TIP3      H1             -2.0365469610       -2.0333893906       24.1402265607  TIP3      2901            0.0000000000
     58535      3301  TIP3      H2             -1.8942826412       -0.5240651740       24.0936876457  TIP3      2901            0.0000000000
     58536      3302  TIP3      OH2           -16.2162141251      -17.2549218838       36.4083887690  TIP3      2902            0.0000000000
     58537      3302  TIP3      H1            -16.5725544351      -18.0466309462       36.8557484789  TIP3      2902            0.0000000000
     58538      3302  TIP3      H2            -15.2866219310      -17.2666918120       36.7452804892  TIP3      2902            0.0000000000
     58539      3303  TIP3      OH2           -14.2150270293      -17.8815190502       38.0009699978  TIP3      2903            0.0000000000
     58540      3303  TIP3      H1            -13.3188477767      -18.2133513340       37.7876371339  TIP3      2903            0.0000000000
     58541      3303  TIP3      H2            -14.5975750798      -18.6717401094       38.4376309253  TIP3      2903            0.0000000000
     58542      3304  TIP3      OH2            -5.8115751628      -18.5737346589       38.1662204316  TIP3      2904            0.0000000000
     58543      3304  TIP3      H1             -5.7116846107      -19.0406510812       39.0160348728  TIP3      2904            0.0000000000
     58544      3304  TIP3      H2             -4.8967947426      -18.5924118082       37.8056571896  TIP3      2904            0.0000000000
     58545      3305  TIP3      OH2            -2.6082741842       -2.5363745377       36.8521268127  TIP3      2905            0.0000000000
     58546      3305  TIP3      H1             -3.4115187367       -2.6879157856       36.3080617976  TIP3      2905            0.0000000000
     58547      3305  TIP3      H2             -2.7080136013       -1.5805158991       37.0485976946  TIP3      2905            0.0000000000
     58548      3306  TIP3      OH2            11.8305193205       -8.6487520921       26.8744820593  TIP3      2906            0.0000000000
     58549      3306  TIP3      H1             11.8417621298       -7.6739092478       26.7364264860  TIP3      2906            0.0000000000
     58550      3306  TIP3      H2             11.1399339766       -8.8976873470       26.2186352184  TIP3      2906            0.0000000000
     58551      3307  TIP3      OH2            10.7457367404       -9.3852461357       30.2910275483  TIP3      2907            0.0000000000
     58552      3307  TIP3      H1             10.6636250452      -10.0309109965       31.0103398978  TIP3      2907            0.0000000000
     58553      3307  TIP3      H2             10.3588389485       -9.8668607070       29.5351325168  TIP3      2907            0.0000000000
     58554      3308  TIP3      OH2             3.0594704546       -9.7436581870       31.8622450204  TIP3      2908            0.0000000000
     58555      3308  TIP3      H1              3.1383329538      -10.3953388313       32.5946704774  TIP3      2908            0.0000000000
     58556      3308  TIP3      H2              3.7953959216       -9.1465185253       32.0802499570  TIP3      2908            0.0000000000
     58557      3309  TIP3      OH2            14.4220074436       -6.4667120987       28.5897323296  TIP3      2909            0.0000000000
     58558      3309  TIP3      H1             13.9407008329       -7.0790229810       29.0915078882  TIP3      2909            0.0000000000
     58559      3309  TIP3      H2             14.4147422967       -5.7067725491       29.2247088474  TIP3      2909            0.0000000000
     58560      3310  TIP3      OH2             3.9884909698       -5.2896192759       30.4028366323  TIP3      2910            0.0000000000
     58561      3310  TIP3      H1              3.6499254282       -6.1312903769       30.0447506399  TIP3      2910            0.0000000000
     58562      3310  TIP3      H2              4.9438861053       -5.4799015739       30.4441807891  TIP3      2910            0.0000000000
     58563      3311  TIP3      OH2             0.6343121821      -11.6822115670       25.7951291319  TIP3      2911            0.0000000000
     58564      3311  TIP3      H1              0.1675024760      -10.8186634698       25.8079435516  TIP3      2911            0.0000000000
     58565      3311  TIP3      H2              0.0389975721      -12.2504974368       25.2948829164  TIP3      2911            0.0000000000
     58566      3312  TIP3      OH2             1.3149887242       -9.4878745716       27.9470594711  TIP3      2912            0.0000000000
     58567      3312  TIP3      H1              1.5633435207      -10.2829350270       28.4539405879  TIP3      2912            0.0000000000
     58568      3312  TIP3      H2              2.0605627009       -9.3965669735       27.3339048220  TIP3      2912            0.0000000000
     58569      3313  TIP3      OH2            11.5121878007       -1.3046334392       28.8139769622  TIP3      2913            0.0000000000
     58570      3313  TIP3      H1             12.1548364628       -2.0079984833       28.5362806503  TIP3      2913            0.0000000000
     58571      3313  TIP3      H2             11.3163690443       -1.5826758419       29.7080366905  TIP3      2913            0.0000000000
     58572      3314  TIP3      OH2             9.0915064116       -6.9490246840       30.7100935083  TIP3      2914            0.0000000000
     58573      3314  TIP3      H1              9.4078629095       -7.6306525520       30.1029122200  TIP3      2914            0.0000000000
     58574      3314  TIP3      H2              9.8402671020       -6.8340444975       31.3186515747  TIP3      2914            0.0000000000
     58575      3315  TIP3      OH2            17.7648731382      -15.3528358196       31.5543621434  TIP3      2915            0.0000000000
     58576      3315  TIP3      H1             17.7843525469      -14.7012814189       32.2644322009  TIP3      2915            0.0000000000
     58577      3315  TIP3      H2             18.1994519794      -14.8901478207       30.8198003916  TIP3      2915            0.0000000000
     58578      3316  TIP3      OH2            12.2515052613      -12.5225728494       31.0558037848  TIP3      2916            0.0000000000
     58579      3316  TIP3      H1             12.3831576357      -13.4935085312       31.0633432230  TIP3      2916            0.0000000000
     58580      3316  TIP3      H2             12.1286710961      -12.3802896034       30.0978675715  TIP3      2916            0.0000000000
     58581      3317  TIP3      OH2             5.3811165128      -14.4458325643       28.3115315561  TIP3      2917            0.0000000000
     58582      3317  TIP3      H1              5.4482743967      -13.5918604331       27.8525884141  TIP3      2917            0.0000000000
     58583      3317  TIP3      H2              4.9446332460      -15.0075054914       27.6360492602  TIP3      2917            0.0000000000
     58584      3318  TIP3      OH2            13.0902232712      -14.3209815898       26.7141611149  TIP3      2918            0.0000000000
     58585      3318  TIP3      H1             13.7756959237      -14.6596916380       27.3305917706  TIP3      2918            0.0000000000
     58586      3318  TIP3      H2             13.6328664093      -13.8191150371       26.0797845024  TIP3      2918            0.0000000000
     58587      3319  TIP3      OH2             1.9934764184      -12.0341826638       29.0544041273  TIP3      2919            0.0000000000
     58588      3319  TIP3      H1              2.6683655514      -12.5971091488       29.4903288415  TIP3      2919            0.0000000000
     58589      3319  TIP3      H2              2.0623441799      -12.3362552094       28.1359850036  TIP3      2919            0.0000000000
     58590      3320  TIP3      OH2             7.1610954201      -10.4787962090       28.3123821428  TIP3      2920            0.0000000000
     58591      3320  TIP3      H1              7.8006093799      -11.0457505664       28.7705596499  TIP3      2920            0.0000000000
     58592      3320  TIP3      H2              6.6034692719      -11.1437786775       27.8569739046  TIP3      2920            0.0000000000
     58593      3321  TIP3      OH2            18.0371186338      -13.7680995662       33.8155761815  TIP3      2921            0.0000000000
     58594      3321  TIP3      H1             17.3578648238      -13.0826002847       33.7136122344  TIP3      2921            0.0000000000
     58595      3321  TIP3      H2             18.0945647407      -13.9845189638       34.7663405925  TIP3      2921            0.0000000000
     58596      3322  TIP3      OH2             4.2378291123      -15.5420797262       32.3612766213  TIP3      2922            0.0000000000
     58597      3322  TIP3      H1              3.9807355865      -14.9842836057       31.6014853445  TIP3      2922            0.0000000000
     58598      3322  TIP3      H2              3.5438943678      -15.3052698755       33.0282824516  TIP3      2922            0.0000000000
     58599      3323  TIP3      OH2            11.5735788460       -6.0628496836       25.9277251731  TIP3      2923            0.0000000000
     58600      3323  TIP3      H1             11.2937277958       -6.3341462379       25.0439213411  TIP3      2923            0.0000000000
     58601      3323  TIP3      H2             11.2548971690       -5.1274512423       25.9553207380  TIP3      2923            0.0000000000
     58602      3324  TIP3      OH2             6.7674776763       -7.8832690368       32.5665722569  TIP3      2924            0.0000000000
     58603      3324  TIP3      H1              6.0556715737       -7.2525479343       32.7999651624  TIP3      2924            0.0000000000
     58604      3324  TIP3      H2              7.4919465399       -7.2928430337       32.3449777102  TIP3      2924            0.0000000000
     58605      3325  TIP3      OH2            14.8759343155      -15.0215370744       28.6677776229  TIP3      2925            0.0000000000
     58606      3325  TIP3      H1             14.6771548911      -15.7894128172       29.2133116989  TIP3      2925            0.0000000000
     58607      3325  TIP3      H2             15.5497791419      -14.5681588982       29.1925936884  TIP3      2925            0.0000000000
     58608      3326  TIP3      OH2             3.7995454464      -13.6612837678       30.3421486642  TIP3      2926            0.0000000000
     58609      3326  TIP3      H1              4.4400259906      -12.9991659953       30.6928392226  TIP3      2926            0.0000000000
     58610      3326  TIP3      H2              4.3356317701      -14.1101658334       29.6492368087  TIP3      2926            0.0000000000
     58611      3327  TIP3      OH2             5.2030201568       -5.8995685198       33.4104319191  TIP3      2927            0.0000000000
     58612      3327  TIP3      H1              5.1777024837       -4.9918080874       33.0713613207  TIP3      2927            0.0000000000
     58613      3327  TIP3      H2              4.3319010650       -5.9775660529       33.8736148405  TIP3      2927            0.0000000000
     58614      3328  TIP3      OH2             1.2885775865       -6.2595785626       24.2185897792  TIP3      2928            0.0000000000
     58615      3328  TIP3      H1              1.0449348029       -5.9603142786       23.3256514715  TIP3      2928            0.0000000000
     58616      3328  TIP3      H2              1.3613499540       -5.3986885231       24.6933949714  TIP3      2928            0.0000000000
     58617      3329  TIP3      OH2            14.9255020260       -4.6244046034       30.9337139536  TIP3      2929            0.0000000000
     58618      3329  TIP3      H1             13.9652801566       -4.5131092240       31.0991182846  TIP3      2929            0.0000000000
     58619      3329  TIP3      H2             15.1991123467       -3.6895011145       30.7893094075  TIP3      2929            0.0000000000
     58620      3330  TIP3      OH2            15.2360750634      -16.3021463068       32.3689902146  TIP3      2930            0.0000000000
     58621      3330  TIP3      H1             14.4866268467      -15.6945462951       32.2938608753  TIP3      2930            0.0000000000
     58622      3330  TIP3      H2             15.9245295061      -15.9035216347       31.8128633294  TIP3      2930            0.0000000000
     58623      3331  TIP3      OH2             8.2300542379      -18.2137959987       29.8133170681  TIP3      2931            0.0000000000
     58624      3331  TIP3      H1              8.1014871191      -19.1804760105       29.7578941826  TIP3      2931            0.0000000000
     58625      3331  TIP3      H2              7.3537170294      -17.8979839555       30.1066327894  TIP3      2931            0.0000000000
     58626      3332  TIP3      OH2            13.1767126625       -2.8256328327       27.5736297011  TIP3      2932            0.0000000000
     58627      3332  TIP3      H1             13.6107864309       -3.5292381267       27.0546326305  TIP3      2932            0.0000000000
     58628      3332  TIP3      H2             13.5387214595       -2.0212832404       27.1456595304  TIP3      2932            0.0000000000
     58629      3333  TIP3      OH2            14.3672030683       -4.9064134336       26.0685353448  TIP3      2933            0.0000000000
     58630      3333  TIP3      H1             14.0878240324       -5.6056780808       25.4511627949  TIP3      2933            0.0000000000
     58631      3333  TIP3      H2             14.4161962019       -5.3731467989       26.9124477368  TIP3      2933            0.0000000000
     58632      3334  TIP3      OH2            16.0181698031       -6.3295317934       34.5638021012  TIP3      2934            0.0000000000
     58633      3334  TIP3      H1             16.1667650584       -6.9508930735       33.8213735473  TIP3      2934            0.0000000000
     58634      3334  TIP3      H2             16.1990700091       -5.4636243250       34.1660351658  TIP3      2934            0.0000000000
     58635      3335  TIP3      OH2            10.4963216577       -9.3638226874       24.3490610137  TIP3      2935            0.0000000000
     58636      3335  TIP3      H1              9.7946898779       -8.8540635040       23.9696015897  TIP3      2935            0.0000000000
     58637      3335  TIP3      H2             11.2079030453       -9.3405676738       23.6617351647  TIP3      2935            0.0000000000
     58638      3336  TIP3      OH2            10.5433119497      -10.8861609681       21.3587505138  TIP3      2936            0.0000000000
     58639      3336  TIP3      H1             11.2765688033      -10.9221699510       22.0087792457  TIP3      2936            0.0000000000
     58640      3336  TIP3      H2             10.8651269860      -11.5750100069       20.7477937168  TIP3      2936            0.0000000000
     58641      3337  TIP3      OH2            17.8744855047      -10.0266822114       32.6091216447  TIP3      2937            0.0000000000
     58642      3337  TIP3      H1             17.2252325866       -9.2987129563       32.6899789420  TIP3      2937            0.0000000000
     58643      3337  TIP3      H2             18.3576665052       -9.7746268289       31.8020478863  TIP3      2937            0.0000000000
     58644      3338  TIP3      OH2            13.9434135002       -9.1546414763       25.2881221647  TIP3      2938            0.0000000000
     58645      3338  TIP3      H1             13.1608357401       -8.9635032570       25.8367355755  TIP3      2938            0.0000000000
     58646      3338  TIP3      H2             14.3718144550       -9.9161155609       25.7121202559  TIP3      2938            0.0000000000
     58647      3339  TIP3      OH2            13.8537541748      -11.0261034024       34.3435149043  TIP3      2939            0.0000000000
     58648      3339  TIP3      H1             13.8792932781      -10.2304270986       34.9037942441  TIP3      2939            0.0000000000
     58649      3339  TIP3      H2             13.2082564660      -10.7276789612       33.6676408931  TIP3      2939            0.0000000000
     58650      3340  TIP3      OH2             5.5576961204       -8.5313154685       27.1588234093  TIP3      2940            0.0000000000
     58651      3340  TIP3      H1              5.2273861830       -8.9307127962       26.3205805398  TIP3      2940            0.0000000000
     58652      3340  TIP3      H2              6.1563367682       -9.2334279706       27.5041751049  TIP3      2940            0.0000000000
     58653      3341  TIP3      OH2             6.8933119181       -5.1238528309       29.8477807303  TIP3      2941            0.0000000000
     58654      3341  TIP3      H1              6.8437805873       -5.6949632472       29.0697071728  TIP3      2941            0.0000000000
     58655      3341  TIP3      H2              7.6585835338       -5.5039909258       30.3160448424  TIP3      2941            0.0000000000
     58656      3342  TIP3      OH2             5.8962024956       -9.7933318980       30.7924258230  TIP3      2942            0.0000000000
     58657      3342  TIP3      H1              6.4776722651       -9.6670887573       30.0239556560  TIP3      2942            0.0000000000
     58658      3342  TIP3      H2              6.2515628570       -9.1358801355       31.4357352785  TIP3      2942            0.0000000000
     58659      3343  TIP3      OH2            12.2623918156       -4.2509084966       31.5080962980  TIP3      2943            0.0000000000
     58660      3343  TIP3      H1             11.9980952911       -3.6122451309       32.1758399024  TIP3      2943            0.0000000000
     58661      3343  TIP3      H2             12.0294353065       -5.0998470571       31.9606734780  TIP3      2943            0.0000000000
     58662      3344  TIP3      OH2             6.8369872640       -5.3187249533       35.4973020725  TIP3      2944            0.0000000000
     58663      3344  TIP3      H1              6.4502437128       -4.5895986496       35.9898372030  TIP3      2944            0.0000000000
     58664      3344  TIP3      H2              6.1533306354       -5.5671133617       34.8251161497  TIP3      2944            0.0000000000
     58665      3345  TIP3      OH2            12.7469603714       -9.9955414910       22.9641812237  TIP3      2945            0.0000000000
     58666      3345  TIP3      H1             13.3811575290       -9.8583406246       23.6961877110  TIP3      2945            0.0000000000
     58667      3345  TIP3      H2             13.2124362908       -9.5419868966       22.2244403266  TIP3      2945            0.0000000000
     58668      3346  TIP3      OH2             3.7348483778       -9.2100140806       34.7057604249  TIP3      2946            0.0000000000
     58669      3346  TIP3      H1              3.8161844053       -8.5363313288       35.4168858804  TIP3      2946            0.0000000000
     58670      3346  TIP3      H2              2.8254786306       -9.0843799227       34.4306189198  TIP3      2946            0.0000000000
     58671      3347  TIP3      OH2            10.5150444619       -3.2842231357       26.3832390552  TIP3      2947            0.0000000000
     58672      3347  TIP3      H1             10.9734150547       -2.9818599944       27.1764600887  TIP3      2947            0.0000000000
     58673      3347  TIP3      H2              9.9514457416       -2.5352183447       26.1617120015  TIP3      2947            0.0000000000
     58674      3348  TIP3      OH2             5.0582364025       -3.2947605190       36.2735294786  TIP3      2948            0.0000000000
     58675      3348  TIP3      H1              5.0390331822       -3.4495820223       35.3132037201  TIP3      2948            0.0000000000
     58676      3348  TIP3      H2              4.1270921924       -3.4472869901       36.5234240066  TIP3      2948            0.0000000000
     58677      3349  TIP3      OH2             4.5376101681       -9.4897351594       24.7556182634  TIP3      2949            0.0000000000
     58678      3349  TIP3      H1              4.2374825792       -8.7125669104       24.2536592593  TIP3      2949            0.0000000000
     58679      3349  TIP3      H2              3.8672013148      -10.1542025050       24.5846234149  TIP3      2949            0.0000000000
     58680      3350  TIP3      OH2             0.6316984604       -7.0965845822       33.6124828784  TIP3      2950            0.0000000000
     58681      3350  TIP3      H1              0.1481023921       -7.1629631517       32.7682317534  TIP3      2950            0.0000000000
     58682      3350  TIP3      H2              0.6572192709       -8.0392065136       33.8706761542  TIP3      2950            0.0000000000
     58683      3351  TIP3      OH2             0.3801377207       -4.3513035610       30.4468475737  TIP3      2951            0.0000000000
     58684      3351  TIP3      H1              1.3366633662       -4.4757453627       30.4295076593  TIP3      2951            0.0000000000
     58685      3351  TIP3      H2              0.2852642667       -3.5466188276       30.9740745494  TIP3      2951            0.0000000000
     58686      3352  TIP3      OH2            18.6086129754       -3.6582133008       36.1138463948  TIP3      2952            0.0000000000
     58687      3352  TIP3      H1             18.5147261106       -4.6217894044       36.1069216450  TIP3      2952            0.0000000000
     58688      3352  TIP3      H2             17.7486791272       -3.4094732346       36.5379485857  TIP3      2952            0.0000000000
     58689      3353  TIP3      OH2             9.5751614543       -4.0964151062       34.9886649188  TIP3      2953            0.0000000000
     58690      3353  TIP3      H1              9.6411639327       -3.2658227226       35.5062375903  TIP3      2953            0.0000000000
     58691      3353  TIP3      H2              8.6987102296       -4.4495553033       35.2531717869  TIP3      2953            0.0000000000
     58692      3354  TIP3      OH2             9.9845760641       -0.3433291145       24.7966729089  TIP3      2954            0.0000000000
     58693      3354  TIP3      H1              9.9131062947       -0.4402556305       23.8586583313  TIP3      2954            0.0000000000
     58694      3354  TIP3      H2             10.0192530880        0.6205022504       24.9598540571  TIP3      2954            0.0000000000
     58695      3355  TIP3      OH2             3.6454950103       -1.5024852042       26.6041500709  TIP3      2955            0.0000000000
     58696      3355  TIP3      H1              3.7854140192       -1.9008971800       27.4890068166  TIP3      2955            0.0000000000
     58697      3355  TIP3      H2              2.7912123930       -1.8953562950       26.3564128240  TIP3      2955            0.0000000000
     58698      3356  TIP3      OH2            12.7507798113       -1.2118475084       24.5540693194  TIP3      2956            0.0000000000
     58699      3356  TIP3      H1             11.8035646020       -1.1542459728       24.7463734816  TIP3      2956            0.0000000000
     58700      3356  TIP3      H2             13.0230253860       -1.9556266915       25.1202475155  TIP3      2956            0.0000000000
     58701      3357  TIP3      OH2            15.7409569021      -12.1813118080       36.6129267947  TIP3      2957            0.0000000000
     58702      3357  TIP3      H1             15.3118917498      -11.7039890825       35.8811839031  TIP3      2957            0.0000000000
     58703      3357  TIP3      H2             15.7660925977      -13.0947338194       36.2891005949  TIP3      2957            0.0000000000
     58704      3358  TIP3      OH2             2.8897508217       -5.7707121783       34.6111878935  TIP3      2958            0.0000000000
     58705      3358  TIP3      H1              3.1247358687       -6.1594336856       35.4816642113  TIP3      2958            0.0000000000
     58706      3358  TIP3      H2              2.0309119945       -6.1806070314       34.3959435771  TIP3      2958            0.0000000000
     58707      3359  TIP3      OH2             5.5479457463      -17.3220668156       30.5855591210  TIP3      2959            0.0000000000
     58708      3359  TIP3      H1              4.6483250730      -17.4138953412       30.1948404576  TIP3      2959            0.0000000000
     58709      3359  TIP3      H2              5.4650605749      -16.4666214883       31.0343546168  TIP3      2959            0.0000000000
     58710      3360  TIP3      OH2            10.1971550464      -17.6094181776       33.9502281216  TIP3      2960            0.0000000000
     58711      3360  TIP3      H1             10.5989747099      -18.0350225144       34.7284904554  TIP3      2960            0.0000000000
     58712      3360  TIP3      H2              9.2304557953      -17.7729350475       34.0861279224  TIP3      2960            0.0000000000
     58713      3361  TIP3      OH2            13.5091196707      -13.8238745798       34.8152450108  TIP3      2961            0.0000000000
     58714      3361  TIP3      H1             12.9627633494      -13.9936781299       35.6191054841  TIP3      2961            0.0000000000
     58715      3361  TIP3      H2             13.3353147432      -12.9009363256       34.5831775609  TIP3      2961            0.0000000000
     58716      3362  TIP3      OH2            14.2557587747       -9.0254730628       20.6395034658  TIP3      2962            0.0000000000
     58717      3362  TIP3      H1             14.2891307281       -9.1841077347       19.6850119441  TIP3      2962            0.0000000000
     58718      3362  TIP3      H2             15.1022857592       -8.5685583410       20.7837657766  TIP3      2962            0.0000000000
     58719      3363  TIP3      OH2             5.6332337449      -12.3621593810       31.7352682814  TIP3      2963            0.0000000000
     58720      3363  TIP3      H1              4.9479512217      -12.3737154857       32.4313036685  TIP3      2963            0.0000000000
     58721      3363  TIP3      H2              5.6308137216      -11.4180508143       31.4558343372  TIP3      2963            0.0000000000
     58722      3364  TIP3      OH2             5.6152463659      -12.1611228131       26.6498419229  TIP3      2964            0.0000000000
     58723      3364  TIP3      H1              4.6957850692      -12.4766502709       26.5364746278  TIP3      2964            0.0000000000
     58724      3364  TIP3      H2              6.0329195332      -12.5146895894       25.8388400175  TIP3      2964            0.0000000000
     58725      3365  TIP3      OH2            11.1474112682      -11.7115893926       25.4412824380  TIP3      2965            0.0000000000
     58726      3365  TIP3      H1             10.7307773022      -10.8917707889       25.1139563728  TIP3      2965            0.0000000000
     58727      3365  TIP3      H2             11.8448363521      -11.8694114458       24.7826249681  TIP3      2965            0.0000000000
     58728      3366  TIP3      OH2            10.2781186986      -11.5442897256       36.8861479627  TIP3      2966            0.0000000000
     58729      3366  TIP3      H1              9.6622274459      -12.2509752562       37.2136941568  TIP3      2966            0.0000000000
     58730      3366  TIP3      H2             11.0750248082      -11.6600331858       37.3863501219  TIP3      2966            0.0000000000
     58731      3367  TIP3      OH2            12.1780315658      -12.2354321328       28.2650043211  TIP3      2967            0.0000000000
     58732      3367  TIP3      H1             11.9186438863      -11.6842861816       27.5089871790  TIP3      2967            0.0000000000
     58733      3367  TIP3      H2             12.3026115630      -13.0988151483       27.7936119755  TIP3      2967            0.0000000000
     58734      3368  TIP3      OH2             3.3134871198      -12.0527914897       33.5238460284  TIP3      2968            0.0000000000
     58735      3368  TIP3      H1              3.3424981927      -11.6415852655       34.4129461183  TIP3      2968            0.0000000000
     58736      3368  TIP3      H2              2.8513932933      -12.8843354481       33.6799231111  TIP3      2968            0.0000000000
     58737      3369  TIP3      OH2            -0.0432507856      -14.9192636525       27.4399079535  TIP3      2969            0.0000000000
     58738      3369  TIP3      H1              0.6149115179      -14.9716323072       28.1571671053  TIP3      2969            0.0000000000
     58739      3369  TIP3      H2              0.4031244532      -15.3557252342       26.6872165093  TIP3      2969            0.0000000000
     58740      3370  TIP3      OH2             1.2402503464      -14.2157037520       22.8442785946  TIP3      2970            0.0000000000
     58741      3370  TIP3      H1              1.7213158863      -13.6020833707       22.2543504909  TIP3      2970            0.0000000000
     58742      3370  TIP3      H2              0.5324671232      -13.6394867457       23.1839856225  TIP3      2970            0.0000000000
     58743      3371  TIP3      OH2            11.4157159240      -10.6257123791       32.8762860582  TIP3      2971            0.0000000000
     58744      3371  TIP3      H1             11.7407152987      -11.3040092195       32.2626370257  TIP3      2971            0.0000000000
     58745      3371  TIP3      H2             10.9445998602      -11.1587605500       33.5531769345  TIP3      2971            0.0000000000
     58746      3372  TIP3      OH2             8.1873034585      -14.6918909316       27.6879998603  TIP3      2972            0.0000000000
     58747      3372  TIP3      H1              7.2538483697      -14.6529857984       27.9868107576  TIP3      2972            0.0000000000
     58748      3372  TIP3      H2              8.6788744367      -14.7898420198       28.5149278731  TIP3      2972            0.0000000000
     58749      3373  TIP3      OH2             3.0042513328      -13.0931190568       26.5525749643  TIP3      2973            0.0000000000
     58750      3373  TIP3      H1              2.1106858226      -12.9759878720       26.1770057342  TIP3      2973            0.0000000000
     58751      3373  TIP3      H2              3.3017107350      -13.9309165709       26.1628128674  TIP3      2973            0.0000000000
     58752      3374  TIP3      OH2             6.6385517483      -13.0586263020       24.2030564682  TIP3      2974            0.0000000000
     58753      3374  TIP3      H1              7.5938972644      -12.9664574131       24.3589236069  TIP3      2974            0.0000000000
     58754      3374  TIP3      H2              6.4207448684      -12.4124077429       23.5188481091  TIP3      2974            0.0000000000
     58755      3375  TIP3      OH2            12.5987016458      -15.4543883836       30.9489704943  TIP3      2975            0.0000000000
     58756      3375  TIP3      H1             11.8986117315      -15.3550491653       31.6286304783  TIP3      2975            0.0000000000
     58757      3375  TIP3      H2             12.0927683023      -15.6471595187       30.1465328487  TIP3      2975            0.0000000000
     58758      3376  TIP3      OH2             5.3399275649      -11.8452814409       21.7429609883  TIP3      2976            0.0000000000
     58759      3376  TIP3      H1              4.7842387638      -12.2659212242       21.0617219422  TIP3      2976            0.0000000000
     58760      3376  TIP3      H2              6.1661154998      -11.6997342198       21.2935956950  TIP3      2976            0.0000000000
     58761      3377  TIP3      OH2            15.8275033234        0.2030556449       37.2583025079  TIP3      2977            0.0000000000
     58762      3377  TIP3      H1             16.0759253966        0.6128792774       36.4065646520  TIP3      2977            0.0000000000
     58763      3377  TIP3      H2             16.5310249351        0.5402052151       37.8423563206  TIP3      2977            0.0000000000
     58764      3378  TIP3      OH2             3.4706545160       -7.3211075594       36.8258490970  TIP3      2978            0.0000000000
     58765      3378  TIP3      H1              4.2045145118       -7.0781895809       37.4192536836  TIP3      2978            0.0000000000
     58766      3378  TIP3      H2              2.6848084342       -7.1575451379       37.3867551897  TIP3      2978            0.0000000000
     58767      3379  TIP3      OH2             9.4935704002      -11.9036390015       29.5826912601  TIP3      2979            0.0000000000
     58768      3379  TIP3      H1             10.0594213654      -12.4650141003       29.0388986983  TIP3      2979            0.0000000000
     58769      3379  TIP3      H2              9.3428446727      -12.4470103512       30.3680374371  TIP3      2979            0.0000000000
     58770      3380  TIP3      OH2             4.4894145180      -15.7679308785       26.0098767986  TIP3      2980            0.0000000000
     58771      3380  TIP3      H1              4.1837436313      -16.6912139071       25.9797838205  TIP3      2980            0.0000000000
     58772      3380  TIP3      H2              5.2815663395      -15.7957401567       25.4517313462  TIP3      2980            0.0000000000
     58773      3381  TIP3      OH2             8.1218230627      -13.5627523647       31.9818443562  TIP3      2981            0.0000000000
     58774      3381  TIP3      H1              7.2866197531      -13.0653676187       32.1013615180  TIP3      2981            0.0000000000
     58775      3381  TIP3      H2              8.6547978594      -13.2374180840       32.7409397380  TIP3      2981            0.0000000000
     58776      3382  TIP3      OH2            15.8510652607       -8.1901714818       32.4737189833  TIP3      2982            0.0000000000
     58777      3382  TIP3      H1             16.4626506955       -7.6986738199       31.9027029916  TIP3      2982            0.0000000000
     58778      3382  TIP3      H2             14.9942695434       -8.0742622561       32.0250433575  TIP3      2982            0.0000000000
     58779      3383  TIP3      OH2            10.2314697359       -7.1092611785       34.9275151522  TIP3      2983            0.0000000000
     58780      3383  TIP3      H1              9.8183237890       -7.5215053454       35.7060763637  TIP3      2983            0.0000000000
     58781      3383  TIP3      H2              9.9546744654       -6.1942576933       35.0078915327  TIP3      2983            0.0000000000
     58782      3384  TIP3      OH2             3.7966588331       -7.9945413981       29.4704774713  TIP3      2984            0.0000000000
     58783      3384  TIP3      H1              4.5281418722       -8.0362206016       28.8240376862  TIP3      2984            0.0000000000
     58784      3384  TIP3      H2              3.8737010967       -8.8447962168       29.9368392932  TIP3      2984            0.0000000000
     58785      3385  TIP3      OH2            10.8041548907       -5.8657772868       22.7662986369  TIP3      2985            0.0000000000
     58786      3385  TIP3      H1             10.4846851650       -5.0063749884       23.0915532608  TIP3      2985            0.0000000000
     58787      3385  TIP3      H2             10.0882305373       -6.4692891294       22.9118226651  TIP3      2985            0.0000000000
     58788      3386  TIP3      OH2             0.7950308478       -9.5510166392       34.7563906801  TIP3      2986            0.0000000000
     58789      3386  TIP3      H1              1.0083836053       -9.9918937961       35.6035551152  TIP3      2986            0.0000000000
     58790      3386  TIP3      H2              0.1884041153      -10.1806450357       34.3308283961  TIP3      2986            0.0000000000
     58791      3387  TIP3      OH2             7.8703596222      -10.6185533100       37.0996379502  TIP3      2987            0.0000000000
     58792      3387  TIP3      H1              7.5284935003      -10.2555824344       36.2310695883  TIP3      2987            0.0000000000
     58793      3387  TIP3      H2              8.7747472978      -10.2812698145       36.9718134755  TIP3      2987            0.0000000000
     58794      3388  TIP3      OH2            12.4671871334       -4.6743960156       34.8591719057  TIP3      2988            0.0000000000
     58795      3388  TIP3      H1             11.5398356778       -4.4908747162       34.6264164474  TIP3      2988            0.0000000000
     58796      3388  TIP3      H2             12.4635529474       -4.3951080311       35.7973165028  TIP3      2988            0.0000000000
     58797      3389  TIP3      OH2            18.1809740900      -12.4441392336       23.2894984399  TIP3      2989            0.0000000000
     58798      3389  TIP3      H1             17.6108674244      -12.7888963055       22.5641066120  TIP3      2989            0.0000000000
     58799      3389  TIP3      H2             18.2597393411      -11.5296743778       22.9707660071  TIP3      2989            0.0000000000
     58800      3390  TIP3      OH2            18.1487404045       -6.6236319484       36.0890961787  TIP3      2990            0.0000000000
     58801      3390  TIP3      H1             17.2680671313       -6.3936186494       35.7049574222  TIP3      2990            0.0000000000
     58802      3390  TIP3      H2             18.7182772765       -6.6488017250       35.2966665050  TIP3      2990            0.0000000000
     58803      3391  TIP3      OH2            16.4777318342       -3.6523452512       23.6964010137  TIP3      2991            0.0000000000
     58804      3391  TIP3      H1             16.0851698405       -4.4781718624       24.0074876065  TIP3      2991            0.0000000000
     58805      3391  TIP3      H2             16.7312039386       -3.8337166657       22.7871500945  TIP3      2991            0.0000000000
     58806      3392  TIP3      OH2            13.6077054082       -8.8841832341       30.9309416540  TIP3      2992            0.0000000000
     58807      3392  TIP3      H1             12.6627434745       -9.0677898008       30.7447012494  TIP3      2992            0.0000000000
     58808      3392  TIP3      H2             14.0642726103       -9.6288971489       30.4980750186  TIP3      2992            0.0000000000
     58809      3393  TIP3      OH2             6.1762844688       -4.5121546282       26.8645976052  TIP3      2993            0.0000000000
     58810      3393  TIP3      H1              6.6902286637       -3.7163261555       26.6581645427  TIP3      2993            0.0000000000
     58811      3393  TIP3      H2              5.2933138898       -4.2754805730       26.5485707358  TIP3      2993            0.0000000000
     58812      3394  TIP3      OH2             7.6073161170       -6.8467617382       26.4122429816  TIP3      2994            0.0000000000
     58813      3394  TIP3      H1              7.3263086152       -5.9166344303       26.4846236379  TIP3      2994            0.0000000000
     58814      3394  TIP3      H2              6.8579389297       -7.3122016790       26.8345399104  TIP3      2994            0.0000000000
     58815      3395  TIP3      OH2             8.0706830080       -2.6805266767       32.7661291332  TIP3      2995            0.0000000000
     58816      3395  TIP3      H1              8.4871569182       -1.8416259447       32.5121135452  TIP3      2995            0.0000000000
     58817      3395  TIP3      H2              8.6552023389       -2.9899029870       33.4843715131  TIP3      2995            0.0000000000
     58818      3396  TIP3      OH2             6.2942928136       -1.8386392420       25.9595636068  TIP3      2996            0.0000000000
     58819      3396  TIP3      H1              5.3207036119       -1.7168623542       26.0417859892  TIP3      2996            0.0000000000
     58820      3396  TIP3      H2              6.6297790234       -0.9958183160       26.3124907707  TIP3      2996            0.0000000000
     58821      3397  TIP3      OH2            11.6383076478       -6.6187136240       32.4153758330  TIP3      2997            0.0000000000
     58822      3397  TIP3      H1             11.2314226945       -6.8213955105       33.2919079455  TIP3      2997            0.0000000000
     58823      3397  TIP3      H2             12.2360416285       -7.3570045001       32.2724320596  TIP3      2997            0.0000000000
     58824      3398  TIP3      OH2            14.3477232659       -2.0593895574       34.9292748020  TIP3      2998            0.0000000000
     58825      3398  TIP3      H1             13.7042874317       -2.5867432613       34.4168559034  TIP3      2998            0.0000000000
     58826      3398  TIP3      H2             14.5838244702       -1.3737919309       34.2690305786  TIP3      2998            0.0000000000
     58827      3399  TIP3      OH2            18.3896232371       -1.1881076857       21.7299596181  TIP3      2999            0.0000000000
     58828      3399  TIP3      H1             19.1112285754       -0.5756914560       21.5735205787  TIP3      2999            0.0000000000
     58829      3399  TIP3      H2             17.6617769522       -0.6171759335       22.0601380660  TIP3      2999            0.0000000000
     58830      3400  TIP3      OH2             2.4495988864      -14.8118062229       34.3109836274  TIP3      3000            0.0000000000
     58831      3400  TIP3      H1              1.5381569445      -14.4714966492       34.2648926321  TIP3      3000            0.0000000000
     58832      3400  TIP3      H2              2.3336398321      -15.6689944899       34.7505289603  TIP3      3000            0.0000000000
     58833      3401  TIP3      OH2            14.6985114510       -6.9714320236       23.7781237068  TIP3      3001            0.0000000000
     58834      3401  TIP3      H1             14.4506846494       -7.7494996963       24.2974048919  TIP3      3001            0.0000000000
     58835      3401  TIP3      H2             15.6526787945       -6.8946259080       23.9314621038  TIP3      3001            0.0000000000
     58836      3402  TIP3      OH2             2.0820580051       -3.0104928199       32.7400427160  TIP3      3002            0.0000000000
     58837      3402  TIP3      H1              2.3276167870       -3.9502877641       32.7343359086  TIP3      3002            0.0000000000
     58838      3402  TIP3      H2              2.3331432198       -2.7414564094       33.6326692935  TIP3      3002            0.0000000000
     58839      3403  TIP3      OH2             6.8191028504       -4.9211538877       22.4484096805  TIP3      3003            0.0000000000
     58840      3403  TIP3      H1              7.0290589113       -5.4687690255       23.2150582679  TIP3      3003            0.0000000000
     58841      3403  TIP3      H2              6.8789082029       -4.0075007123       22.7601995137  TIP3      3003            0.0000000000
     58842      3404  TIP3      OH2             3.3335765524       -7.7460286649       22.9113856719  TIP3      3004            0.0000000000
     58843      3404  TIP3      H1              2.6630741823       -7.3595349148       23.5080667634  TIP3      3004            0.0000000000
     58844      3404  TIP3      H2              3.8520303811       -6.9549954280       22.6896945616  TIP3      3004            0.0000000000
     58845      3405  TIP3      OH2            11.1728941425      -15.0530825436       33.2255245975  TIP3      3005            0.0000000000
     58846      3405  TIP3      H1             11.8798953213      -14.9965338861       33.8800699068  TIP3      3005            0.0000000000
     58847      3405  TIP3      H2             10.7918972488      -15.9369278656       33.4042407843  TIP3      3005            0.0000000000
     58848      3406  TIP3      OH2             9.6234126986       -3.2821603681       23.1737441461  TIP3      3006            0.0000000000
     58849      3406  TIP3      H1              8.7905382324       -2.7902246907       23.2337571553  TIP3      3006            0.0000000000
     58850      3406  TIP3      H2             10.1651410053       -2.8268875552       22.5273100336  TIP3      3006            0.0000000000
     58851      3407  TIP3      OH2             9.1407404277      -13.6882322048       25.1476518361  TIP3      3007            0.0000000000
     58852      3407  TIP3      H1              9.9709495274      -13.1755097620       25.1857162886  TIP3      3007            0.0000000000
     58853      3407  TIP3      H2              8.8970666206      -13.8403710206       26.0744844069  TIP3      3007            0.0000000000
     58854      3408  TIP3      OH2             9.7084234014      -12.7146797919       34.3289361853  TIP3      3008            0.0000000000
     58855      3408  TIP3      H1              9.7902611548      -12.1305160284       35.1119405936  TIP3      3008            0.0000000000
     58856      3408  TIP3      H2             10.3633520688      -13.4045121937       34.4508676045  TIP3      3008            0.0000000000
     58857      3409  TIP3      OH2            10.0343329379      -16.6374875644       26.0704979641  TIP3      3009            0.0000000000
     58858      3409  TIP3      H1              9.6872323474      -15.9980463674       26.7239473930  TIP3      3009            0.0000000000
     58859      3409  TIP3      H2             10.7035897025      -16.0952081401       25.6013159985  TIP3      3009            0.0000000000
     58860      3410  TIP3      OH2             7.0098345423       -2.2697170819       23.1718682889  TIP3      3010            0.0000000000
     58861      3410  TIP3      H1              7.1169719048       -1.4426991682       22.6663656466  TIP3      3010            0.0000000000
     58862      3410  TIP3      H2              6.7395019408       -1.9326276606       24.0541333291  TIP3      3010            0.0000000000
     58863      3411  TIP3      OH2            15.9147390166      -14.8168963102       35.1857757052  TIP3      3011            0.0000000000
     58864      3411  TIP3      H1             14.9672034951      -14.5288734722       35.0778619700  TIP3      3011            0.0000000000
     58865      3411  TIP3      H2             16.1952000451      -14.8158358907       34.2614984633  TIP3      3011            0.0000000000
     58866      3412  TIP3      OH2            14.4766511371      -11.0046496553       29.2530183286  TIP3      3012            0.0000000000
     58867      3412  TIP3      H1             13.6914651926      -11.5017601168       28.9297854957  TIP3      3012            0.0000000000
     58868      3412  TIP3      H2             14.9568587402      -11.7346250553       29.7453919634  TIP3      3012            0.0000000000
     58869      3413  TIP3      OH2             3.9343530137       -5.1404338818       21.8403672475  TIP3      3013            0.0000000000
     58870      3413  TIP3      H1              4.5466362096       -4.4342280164       22.1030524473  TIP3      3013            0.0000000000
     58871      3413  TIP3      H2              4.4028534447       -5.5346454466       21.0968917145  TIP3      3013            0.0000000000
     58872      3414  TIP3      OH2             2.2413196771      -12.4392906214       20.9899482053  TIP3      3014            0.0000000000
     58873      3414  TIP3      H1              2.2430508216      -11.5006040587       21.1093338995  TIP3      3014            0.0000000000
     58874      3414  TIP3      H2              1.3889849873      -12.7014791817       20.6298027693  TIP3      3014            0.0000000000
     58875      3415  TIP3      OH2            15.5666322493       -1.8000048084       30.8899140853  TIP3      3015            0.0000000000
     58876      3415  TIP3      H1             15.4486749938       -1.1055984877       30.2112699008  TIP3      3015            0.0000000000
     58877      3415  TIP3      H2             16.5273842192       -1.7202944951       31.0739185646  TIP3      3015            0.0000000000
     58878      3416  TIP3      OH2             3.0759167848      -17.6617324882       29.6520452424  TIP3      3016            0.0000000000
     58879      3416  TIP3      H1              2.8489346435      -17.6267695423       28.6964770676  TIP3      3016            0.0000000000
     58880      3416  TIP3      H2              2.6328523301      -18.4881695790       29.9299754341  TIP3      3016            0.0000000000
     58881      3417  TIP3      OH2             2.0124123473       -3.7401729115       25.8058915630  TIP3      3017            0.0000000000
     58882      3417  TIP3      H1              1.1690107301       -3.2662352751       25.7985418380  TIP3      3017            0.0000000000
     58883      3417  TIP3      H2              2.5282816093       -3.2371208348       25.1551796941  TIP3      3017            0.0000000000
     58884      3418  TIP3      OH2             1.2645788885       -1.1028001006       37.1076934828  TIP3      3018            0.0000000000
     58885      3418  TIP3      H1              1.8341627347       -1.3227834661       37.8738072332  TIP3      3018            0.0000000000
     58886      3418  TIP3      H2              0.8110393846       -1.9426744993       36.9311555765  TIP3      3018            0.0000000000
     58887      3419  TIP3      OH2             5.8915425224       -2.1842061216       38.7408893496  TIP3      3019            0.0000000000
     58888      3419  TIP3      H1              6.6663011262       -2.6632133284       39.0661328115  TIP3      3019            0.0000000000
     58889      3419  TIP3      H2              5.8774328401       -2.4395797078       37.7946885529  TIP3      3019            0.0000000000
     58890      3420  TIP3      OH2            12.4384401016       -3.7990809249       37.4536867987  TIP3      3020            0.0000000000
     58891      3420  TIP3      H1             12.1088367274       -4.6827174354       37.7180355686  TIP3      3020            0.0000000000
     58892      3420  TIP3      H2             13.1938406320       -3.6764059831       38.0590327080  TIP3      3020            0.0000000000
     58893      3421  TIP3      OH2             1.1752228560       -7.3138641736       38.0902326814  TIP3      3021            0.0000000000
     58894      3421  TIP3      H1              1.3334798659       -8.2247486275       37.7766298138  TIP3      3021            0.0000000000
     58895      3421  TIP3      H2              0.4153000418       -7.0364189719       37.5531960898  TIP3      3021            0.0000000000
     58896      3422  TIP3      OH2             8.0088332832       -7.0510115877       37.8401179311  TIP3      3022            0.0000000000
     58897      3422  TIP3      H1              7.6181212493       -6.9270721333       36.9037635122  TIP3      3022            0.0000000000
     58898      3422  TIP3      H2              8.0543466211       -8.0242967324       37.6365017623  TIP3      3022            0.0000000000
     58899      3423  TIP3      OH2            13.5704235492       -7.4538720650       34.8867720973  TIP3      3023            0.0000000000
     58900      3423  TIP3      H1             14.3366128651       -6.8459398402       34.7847165346  TIP3      3023            0.0000000000
     58901      3423  TIP3      H2             12.8334842060       -6.8267563256       34.9360498537  TIP3      3023            0.0000000000
     58902      3424  TIP3      OH2             2.0156452414      -10.1031935352       37.4854758112  TIP3      3024            0.0000000000
     58903      3424  TIP3      H1              2.4583017425      -10.9563033418       37.3801063053  TIP3      3024            0.0000000000
     58904      3424  TIP3      H2              1.7908621787      -10.0927878889       38.4320380632  TIP3      3024            0.0000000000
     58905      3425  TIP3      OH2             5.9300893420      -11.1652641053       34.8321442998  TIP3      3025            0.0000000000
     58906      3425  TIP3      H1              5.3918468567      -10.4069869430       35.1428721520  TIP3      3025            0.0000000000
     58907      3425  TIP3      H2              6.3450503338      -10.7590713312       34.0486806680  TIP3      3025            0.0000000000
     58908      3426  TIP3      OH2            11.0186295200       -8.6068265048       38.1863072637  TIP3      3026            0.0000000000
     58909      3426  TIP3      H1             11.9715889243       -8.5619711065       38.0922391022  TIP3      3026            0.0000000000
     58910      3426  TIP3      H2             10.8334562359       -9.3495356916       38.7663657154  TIP3      3026            0.0000000000
     58911      3427  TIP3      OH2             6.3322415997      -13.7676753304       35.9294720116  TIP3      3027            0.0000000000
     58912      3427  TIP3      H1              6.4739665360      -14.4861458330       35.2984119519  TIP3      3027            0.0000000000
     58913      3427  TIP3      H2              6.3247380667      -12.9518401449       35.3766651990  TIP3      3027            0.0000000000
     58914      3428  TIP3      OH2             6.7496969982      -15.3825925428       33.4543782198  TIP3      3028            0.0000000000
     58915      3428  TIP3      H1              7.2737004769      -14.9204292813       32.7607837910  TIP3      3028            0.0000000000
     58916      3428  TIP3      H2              5.8683892585      -15.4761983387       33.0235514828  TIP3      3028            0.0000000000
     58917      3429  TIP3      OH2             8.3152276869       -9.9878178356       33.6128286032  TIP3      3029            0.0000000000
     58918      3429  TIP3      H1              9.0907927564      -10.0727464900       33.0942988482  TIP3      3029            0.0000000000
     58919      3429  TIP3      H2              7.9639367931       -9.0851348777       33.4278051579  TIP3      3029            0.0000000000
     58920      3430  TIP3      OH2            12.7179720883      -12.1334568274       38.6706252894  TIP3      3030            0.0000000000
     58921      3430  TIP3      H1             12.9130063800      -13.0762674476       38.5218766932  TIP3      3030            0.0000000000
     58922      3430  TIP3      H2             13.5907764979      -11.6947665497       38.6147859293  TIP3      3030            0.0000000000
     58923      3431  TIP3      OH2            14.0381029834       -9.3536617994       36.8339520828  TIP3      3031            0.0000000000
     58924      3431  TIP3      H1             13.7786801222       -8.6285182460       36.2060242244  TIP3      3031            0.0000000000
     58925      3431  TIP3      H2             14.9904540758       -9.3858419373       36.6084480574  TIP3      3031            0.0000000000
     58926      3432  TIP3      OH2             4.8096174928      -12.5385664882       37.8716505700  TIP3      3032            0.0000000000
     58927      3432  TIP3      H1              4.0366732057      -13.0875368951       37.6350481000  TIP3      3032            0.0000000000
     58928      3432  TIP3      H2              5.4763890958      -12.8567591386       37.2275384786  TIP3      3032            0.0000000000
     58929      3433  TIP3      OH2             7.5503324329      -17.9403598963       33.8710371819  TIP3      3033            0.0000000000
     58930      3433  TIP3      H1              7.4122717535      -16.9720540705       33.7582792959  TIP3      3033            0.0000000000
     58931      3433  TIP3      H2              6.7921155279      -18.2966717867       33.3728198177  TIP3      3033            0.0000000000
     58932      3434  TIP3      OH2             8.8368264124      -13.6368338556       37.4567471607  TIP3      3034            0.0000000000
     58933      3434  TIP3      H1              8.5287562470      -13.8290272688       38.3564448225  TIP3      3034            0.0000000000
     58934      3434  TIP3      H2              8.0272647889      -13.7911155097       36.9223436350  TIP3      3034            0.0000000000
     58935      3435  TIP3      OH2            11.5376788594      -14.4619925482       36.5318850459  TIP3      3035            0.0000000000
     58936      3435  TIP3      H1             10.5667659071      -14.4375750096       36.6467450877  TIP3      3035            0.0000000000
     58937      3435  TIP3      H2             11.8159991540      -15.1187798436       37.1849124875  TIP3      3035            0.0000000000
     58938      3436  TIP3      OH2            13.1392061094      -15.8314170855       38.4963881411  TIP3      3036            0.0000000000
     58939      3436  TIP3      H1             13.0650004033      -16.8090254854       38.4968014444  TIP3      3036            0.0000000000
     58940      3436  TIP3      H2             12.8328817696      -15.5774359447       39.3873679306  TIP3      3036            0.0000000000
     58941      3437  TIP3      OH2             2.9469139690      -14.6006578967       37.5629561257  TIP3      3037            0.0000000000
     58942      3437  TIP3      H1              3.1710546915      -15.3350700214       36.9579054516  TIP3      3037            0.0000000000
     58943      3437  TIP3      H2              2.8524333824      -15.0538370595       38.4250129023  TIP3      3037            0.0000000000
     58944      3438  TIP3      OH2             7.7594742869      -18.5900425076       36.5470013742  TIP3      3038            0.0000000000
     58945      3438  TIP3      H1              8.4658923744      -19.2723672404       36.5248028488  TIP3      3038            0.0000000000
     58946      3438  TIP3      H2              7.6614007490      -18.3802207553       35.6020372521  TIP3      3038            0.0000000000
     58947      3439  TIP3      OH2             8.1194078155      -16.9481340275       38.6265125801  TIP3      3039            0.0000000000
     58948      3439  TIP3      H1              7.9715875079      -17.4394272241       37.7802128236  TIP3      3039            0.0000000000
     58949      3439  TIP3      H2              7.5199329737      -16.1844228537       38.5375913000  TIP3      3039            0.0000000000
     58950      3440  TIP3      OH2             7.6471045637       -0.0695617630       21.7456656931  TIP3      3040            0.0000000000
     58951      3440  TIP3      H1              8.5691844485        0.0888756899       21.9395059332  TIP3      3040            0.0000000000
     58952      3440  TIP3      H2              7.3704867601        0.6328727380       21.1656126616  TIP3      3040            0.0000000000
     58953      3441  TIP3      OH2             1.2008797366       -5.4722124896       21.3068632162  TIP3      3041            0.0000000000
     58954      3441  TIP3      H1              2.1553937377       -5.3290723706       21.5041539246  TIP3      3041            0.0000000000
     58955      3441  TIP3      H2              1.2434166946       -6.0769393079       20.5535633766  TIP3      3041            0.0000000000
     58956      3442  TIP3      OH2            -0.0931347017       -0.0409396537       26.3009206990  TIP3      3042            0.0000000000
     58957      3442  TIP3      H1             -0.7786758576       -0.5248797119       25.7920997529  TIP3      3042            0.0000000000
     58958      3442  TIP3      H2              0.2228168784       -0.7164042754       26.9239317459  TIP3      3042            0.0000000000
     58959      3443  TIP3      OH2             0.7523743087       -1.9427261339       28.1279369889  TIP3      3043            0.0000000000
     58960      3443  TIP3      H1              0.4087596607       -2.8273726840       28.3210890387  TIP3      3043            0.0000000000
     58961      3443  TIP3      H2              0.9753151027       -1.6075847339       29.0147442235  TIP3      3043            0.0000000000
     58962      3444  TIP3      OH2            18.2874822088       -1.1450920987       31.0945085477  TIP3      3044            0.0000000000
     58963      3444  TIP3      H1             18.2957839422       -0.9610302802       32.0495746131  TIP3      3044            0.0000000000
     58964      3444  TIP3      H2             18.9912164900       -0.5666065876       30.7772598691  TIP3      3044            0.0000000000
     58965      3445  TIP3      OH2            17.8655028973       -1.5516881733       34.0293250132  TIP3      3045            0.0000000000
     58966      3445  TIP3      H1             17.3800916120       -2.3193437099       33.6587935051  TIP3      3045            0.0000000000
     58967      3445  TIP3      H2             18.3899986790       -1.9831514738       34.7223545888  TIP3      3045            0.0000000000
     58968      3446  TIP3      OH2            16.3147144803       -5.8164261068       38.6728716817  TIP3      3046            0.0000000000
     58969      3446  TIP3      H1             15.4304924035       -5.8680421390       39.0756996311  TIP3      3046            0.0000000000
     58970      3446  TIP3      H2             16.6862453920       -5.0204087074       39.1229852215  TIP3      3046            0.0000000000
     58971      3447  TIP3      OH2            17.6055581761       -7.5022667574       24.1737540507  TIP3      3047            0.0000000000
     58972      3447  TIP3      H1             18.4781212218       -7.1129333988       24.3115017549  TIP3      3047            0.0000000000
     58973      3447  TIP3      H2             17.6261728419       -8.2673385107       24.7855778921  TIP3      3047            0.0000000000
     58974      3448  TIP3      OH2            17.9909473210       -9.4402722386       26.0132128340  TIP3      3048            0.0000000000
     58975      3448  TIP3      H1             17.2615073088       -9.9564348407       26.4049363773  TIP3      3048            0.0000000000
     58976      3448  TIP3      H2             18.5997239248       -9.2741723545       26.7588823282  TIP3      3048            0.0000000000
     58977      3449  TIP3      OH2            17.7357357220       -6.7109008566       30.9686156266  TIP3      3049            0.0000000000
     58978      3449  TIP3      H1             18.5909996278       -7.0728852916       30.6561667182  TIP3      3049            0.0000000000
     58979      3449  TIP3      H2             17.8888298623       -5.7477234700       30.8361486242  TIP3      3049            0.0000000000
     58980      3450  TIP3      OH2            16.2816455841       -3.8157707009       33.2742245877  TIP3      3050            0.0000000000
     58981      3450  TIP3      H1             15.5992387211       -3.4817530711       33.8784918075  TIP3      3050            0.0000000000
     58982      3450  TIP3      H2             15.7353181916       -4.2407719784       32.5775777992  TIP3      3050            0.0000000000
     58983      3451  TIP3      OH2            16.6323029645      -12.3252256128       20.9616687476  TIP3      3051            0.0000000000
     58984      3451  TIP3      H1             16.7291811811      -11.6686256927       20.2618846749  TIP3      3051            0.0000000000
     58985      3451  TIP3      H2             16.4793330875      -13.1414468051       20.4586543159  TIP3      3051            0.0000000000
     58986      3452  TIP3      OH2            15.7952872163      -10.9354412209       26.5830428827  TIP3      3052            0.0000000000
     58987      3452  TIP3      H1             15.6467824033      -11.9017342538       26.5306750119  TIP3      3052            0.0000000000
     58988      3452  TIP3      H2             15.4523329179      -10.7160601878       27.4468671415  TIP3      3052            0.0000000000
     58989      3453  TIP3      OH2             0.8092368938       -8.8675998117       30.6128649845  TIP3      3053            0.0000000000
     58990      3453  TIP3      H1              1.0103321158       -8.9504953893       29.6551792987  TIP3      3053            0.0000000000
     58991      3453  TIP3      H2              1.6949979101       -9.0136468621       30.9999167306  TIP3      3053            0.0000000000
     58992      3454  TIP3      OH2            16.6424852746       -8.9810897925       36.2427316704  TIP3      3054            0.0000000000
     58993      3454  TIP3      H1             17.2543298999       -9.7294178267       36.4013902084  TIP3      3054            0.0000000000
     58994      3454  TIP3      H2             17.2364553567       -8.2025058713       36.2611984408  TIP3      3054            0.0000000000
     58995      3455  TIP3      OH2            18.1598673715      -11.0800184547       36.9068698647  TIP3      3055            0.0000000000
     58996      3455  TIP3      H1             17.2799260641      -11.4738858191       36.7368317552  TIP3      3055            0.0000000000
     58997      3455  TIP3      H2             18.7469366215      -11.8408499407       36.8359570968  TIP3      3055            0.0000000000
     58998      3456  TIP3      OH2            15.4930894927      -13.3598478110       25.0637117240  TIP3      3056            0.0000000000
     58999      3456  TIP3      H1             15.7779060689      -14.2939180700       25.1534170994  TIP3      3056            0.0000000000
     59000      3456  TIP3      H2             16.2565645053      -12.9491709583       24.6408457648  TIP3      3056            0.0000000000
     59001      3457  TIP3      OH2            16.0971684134      -12.7901085047       30.4645308491  TIP3      3057            0.0000000000
     59002      3457  TIP3      H1             17.0600203204      -12.5763757145       30.4492909515  TIP3      3057            0.0000000000
     59003      3457  TIP3      H2             15.8953073385      -12.6802570959       31.4094973333  TIP3      3057            0.0000000000
     59004      3458  TIP3      OH2            16.1506747759      -12.0719548316       33.2397467268  TIP3      3058            0.0000000000
     59005      3458  TIP3      H1             15.2873408394      -11.7843567274       33.6108189640  TIP3      3058            0.0000000000
     59006      3458  TIP3      H2             16.5955599874      -11.2137050651       33.0429533167  TIP3      3058            0.0000000000
     59007      3459  TIP3      OH2             0.4170666000      -13.5785775795       36.7466740401  TIP3      3059            0.0000000000
     59008      3459  TIP3      H1              1.3563399609      -13.7427913830       36.9690910989  TIP3      3059            0.0000000000
     59009      3459  TIP3      H2             -0.0265202358      -14.3761837997       37.1034994589  TIP3      3059            0.0000000000
     59010      3460  TIP3      OH2            18.4250301254      -18.0603337897       38.6088774939  TIP3      3060            0.0000000000
     59011      3460  TIP3      H1             18.7863486593      -18.7246046393       37.9982693957  TIP3      3060            0.0000000000
     59012      3460  TIP3      H2             18.5674747674      -17.2281433603       38.1303277815  TIP3      3060            0.0000000000
     59013      3461  TIP3      OH2            16.1354816677      -16.0990986326       25.0883599665  TIP3      3061            0.0000000000
     59014      3461  TIP3      H1             16.3208385994      -16.5524361934       25.9310170255  TIP3      3061            0.0000000000
     59015      3461  TIP3      H2             15.5077528569      -16.6976072839       24.6163741814  TIP3      3061            0.0000000000
     59016      3462  TIP3      OH2             1.6354115399      -15.2794707502       29.6184353044  TIP3      3062            0.0000000000
     59017      3462  TIP3      H1              2.0947658472      -16.0906570933       29.9151972480  TIP3      3062            0.0000000000
     59018      3462  TIP3      H2              2.1371368069      -14.5731074255       30.0451956828  TIP3      3062            0.0000000000
     59019      3463  TIP3      OH2            -0.0790167212      -12.2914219925       30.6887400979  TIP3      3063            0.0000000000
     59020      3463  TIP3      H1              0.4633764459      -12.5104583755       29.9018717828  TIP3      3063            0.0000000000
     59021      3463  TIP3      H2              0.3401926489      -11.4584461544       30.9559714659  TIP3      3063            0.0000000000
     59022      3464  TIP3      OH2            17.9736891471      -15.9363705489       36.9431917135  TIP3      3064            0.0000000000
     59023      3464  TIP3      H1             17.0207785617      -15.6909398491       36.9219555373  TIP3      3064            0.0000000000
     59024      3464  TIP3      H2             18.0311999556      -16.5121548130       36.1659249956  TIP3      3064            0.0000000000
     59025      3465  TIP3      OH2             0.2777591188      -16.0217191873       24.7533912197  TIP3      3065            0.0000000000
     59026      3465  TIP3      H1             -0.6696671231      -15.8375889716       24.6142360304  TIP3      3065            0.0000000000
     59027      3465  TIP3      H2              0.7033696597      -15.5427242421       24.0320762966  TIP3      3065            0.0000000000
     59028      3466  TIP3      OH2            15.0164356839       -1.0536486586       26.6903380096  TIP3      3066            0.0000000000
     59029      3466  TIP3      H1             15.6945284659       -1.3840026990       26.0750735351  TIP3      3066            0.0000000000
     59030      3466  TIP3      H2             15.5430548493       -0.5611734718       27.3368250960  TIP3      3066            0.0000000000
     59031      3467  TIP3      OH2             0.2746826281      -17.3139117525       33.0377178647  TIP3      3067            0.0000000000
     59032      3467  TIP3      H1             -0.4230592898      -17.5349582398       33.7168137199  TIP3      3067            0.0000000000
     59033      3467  TIP3      H2             -0.2329093716      -16.6701470513       32.5044998649  TIP3      3067            0.0000000000
     59034      3468  TIP3      OH2             2.4430842478       -4.1340897429       37.2264030869  TIP3      3068            0.0000000000
     59035      3468  TIP3      H1              1.6019608528       -3.9399836610       36.7796016533  TIP3      3068            0.0000000000
     59036      3468  TIP3      H2              2.1725440599       -4.1989952504       38.1504364530  TIP3      3068            0.0000000000
     59037      3469  TIP3      OH2             5.3617409633       -3.1564635738       33.4869495167  TIP3      3069            0.0000000000
     59038      3469  TIP3      H1              4.9826694308       -2.3154185902       33.2053589418  TIP3      3069            0.0000000000
     59039      3469  TIP3      H2              6.2882915810       -3.0581935293       33.1825837336  TIP3      3069            0.0000000000
     59040      3470  TIP3      OH2             9.6772951125       -1.7348277178       36.4192313564  TIP3      3070            0.0000000000
     59041      3470  TIP3      H1              9.8562239197       -2.0816079024       37.3306071981  TIP3      3070            0.0000000000
     59042      3470  TIP3      H2             10.5617835551       -1.4327254795       36.1399458830  TIP3      3070            0.0000000000
     59043      3471  TIP3      OH2            11.9936220375       -0.4616975015       35.6882695511  TIP3      3071            0.0000000000
     59044      3471  TIP3      H1             12.7108159007       -1.0762558224       35.4590614158  TIP3      3071            0.0000000000
     59045      3471  TIP3      H2             12.3586551332       -0.0484333870       36.5019295999  TIP3      3071            0.0000000000
     59046      3472  TIP3      OH2            16.9543518227      -17.8406858205       34.8071579008  TIP3      3072            0.0000000000
     59047      3472  TIP3      H1             16.1318966194      -17.5587654677       34.3779767072  TIP3      3072            0.0000000000
     59048      3472  TIP3      H2             17.1701494900      -18.6432832555       34.2605363913  TIP3      3072            0.0000000000
     59049      3473  TIP3      OH2             2.7889626214        0.0961708041       33.5145384810  TIP3      3073            0.0000000000
     59050      3473  TIP3      H1              2.0532441852        0.5668461506       33.0880197032  TIP3      3073            0.0000000000
     59051      3473  TIP3      H2              2.4333157020       -0.1277336059       34.3871116583  TIP3      3073            0.0000000000
     59052      3474  TIP3      OH2             5.2602343222       -0.3172573466       32.5670571274  TIP3      3074            0.0000000000
     59053      3474  TIP3      H1              4.3649615259       -0.2047483075       32.9656316275  TIP3      3074            0.0000000000
     59054      3474  TIP3      H2              5.1875312339        0.2609301355       31.7813921316  TIP3      3074            0.0000000000
     59055      3475  TIP3      OH2             9.9586321085       -0.4178629875       31.7346834997  TIP3      3075            0.0000000000
     59056      3475  TIP3      H1              9.4948756396        0.1313015719       31.0823357686  TIP3      3075            0.0000000000
     59057      3475  TIP3      H2             10.1089321935        0.2133207911       32.4700214443  TIP3      3075            0.0000000000
     59058      3476  TIP3      OH2            12.2777099719       -1.5663963396       32.7111048681  TIP3      3076            0.0000000000
     59059      3476  TIP3      H1             11.3837815544       -1.3437446640       32.4060285505  TIP3      3076            0.0000000000
     59060      3476  TIP3      H2             12.7156032591       -0.7007981283       32.6305741727  TIP3      3076            0.0000000000
     59061      3477  TIP3      OH2            14.8648337614        0.0018591369       32.9935970297  TIP3      3077            0.0000000000
     59062      3477  TIP3      H1             14.7307896749        0.9537826171       32.7582541618  TIP3      3077            0.0000000000
     59063      3477  TIP3      H2             15.0568784591       -0.3764067929       32.1157176184  TIP3      3077            0.0000000000
     59064      3478  TIP3      OH2             2.2032720347       -1.2588670102       30.4340461149  TIP3      3078            0.0000000000
     59065      3478  TIP3      H1              2.1654680792       -1.7070724165       31.3062106092  TIP3      3078            0.0000000000
     59066      3478  TIP3      H2              3.0259387057       -1.6084336495       30.0352978019  TIP3      3078            0.0000000000
     59067      3479  TIP3      OH2             4.3168162386       -2.5467246307       29.0856392962  TIP3      3079            0.0000000000
     59068      3479  TIP3      H1              4.1300297083       -3.4816101962       29.2889835886  TIP3      3079            0.0000000000
     59069      3479  TIP3      H2              5.1692699441       -2.4143116331       29.5585954015  TIP3      3079            0.0000000000
     59070      3480  TIP3      OH2             6.8901703164       -2.0697457012       29.9503695626  TIP3      3080            0.0000000000
     59071      3480  TIP3      H1              7.0853243440       -2.9835351130       29.6767056036  TIP3      3080            0.0000000000
     59072      3480  TIP3      H2              6.9498925906       -2.1340370185       30.9128930951  TIP3      3080            0.0000000000
     59073      3481  TIP3      OH2            10.3772933317      -16.4152640984       29.0868987571  TIP3      3081            0.0000000000
     59074      3481  TIP3      H1              9.7033574735      -17.0612641230       29.3598941099  TIP3      3081            0.0000000000
     59075      3481  TIP3      H2             10.9379821332      -16.9269985953       28.4928999579  TIP3      3081            0.0000000000
     59076      3482  TIP3      OH2            15.5072944151      -18.3463341465       29.1958696213  TIP3      3082            0.0000000000
     59077      3482  TIP3      H1             16.1354392738      -17.7677196218       28.6891287167  TIP3      3082            0.0000000000
     59078      3482  TIP3      H2             14.6352605025      -17.9972855652       28.9455567961  TIP3      3082            0.0000000000
     59079      3483  TIP3      OH2            17.2067068541      -17.1503017574       27.5030638333  TIP3      3083            0.0000000000
     59080      3483  TIP3      H1             17.8766842184      -17.6950990439       27.0266272280  TIP3      3083            0.0000000000
     59081      3483  TIP3      H2             17.6610175535      -16.2856159231       27.5758181928  TIP3      3083            0.0000000000
     59082      3484  TIP3      OH2             2.7200787040      -17.7794831874       26.9324126109  TIP3      3084            0.0000000000
     59083      3484  TIP3      H1              1.9248528018      -18.0203354453       26.4150729482  TIP3      3084            0.0000000000
     59084      3484  TIP3      H2              3.2256913848      -18.6144259654       26.9022853839  TIP3      3084            0.0000000000
     59085      3485  TIP3      OH2             1.5413192684      -18.0025504757       22.7135624928  TIP3      3085            0.0000000000
     59086      3485  TIP3      H1              1.9833797980      -17.3827129139       22.1169139768  TIP3      3085            0.0000000000
     59087      3485  TIP3      H2              0.9022608239      -17.4626724847       23.2136637900  TIP3      3085            0.0000000000
     59088      3486  TIP3      OH2             7.2622713729      -17.8652468180       26.7225956479  TIP3      3086            0.0000000000
     59089      3486  TIP3      H1              8.1560972869      -17.4802630910       26.6833283845  TIP3      3086            0.0000000000
     59090      3486  TIP3      H2              7.1682537205      -18.0751500564       27.6533108815  TIP3      3086            0.0000000000
     59091      3487  TIP3      OH2            12.8829731997      -17.8369244964       28.3807550916  TIP3      3087            0.0000000000
     59092      3487  TIP3      H1             12.9023161361      -17.7360322143       27.4191060563  TIP3      3087            0.0000000000
     59093      3487  TIP3      H2             12.5536467336      -18.7567058816       28.5050677333  TIP3      3087            0.0000000000
     59094      3488  TIP3      OH2            14.1975819171      -17.8060932014       24.1518058281  TIP3      3088            0.0000000000
     59095      3488  TIP3      H1             13.4958819108      -17.2017988218       23.8328140009  TIP3      3088            0.0000000000
     59096      3488  TIP3      H2             13.7370997942      -18.6580181024       24.2119786727  TIP3      3088            0.0000000000
     59097      3489  TIP3      OH2             1.4469962449       -2.0717736384       23.6625277111  TIP3      3089            0.0000000000
     59098      3489  TIP3      H1              0.7701300382       -2.0760733134       22.9499361509  TIP3      3089            0.0000000000
     59099      3489  TIP3      H2              1.4456834407       -1.1247922475       23.8646758583  TIP3      3089            0.0000000000
     59100      3490  TIP3      OH2             8.3853195181      -15.8171730042       23.5940075830  TIP3      3090            0.0000000000
     59101      3490  TIP3      H1              8.6202643260      -16.4179521961       24.3075782518  TIP3      3090            0.0000000000
     59102      3490  TIP3      H2              8.4076175476      -14.9540828572       24.0630352048  TIP3      3090            0.0000000000
     59103      3491  TIP3      OH2            17.0178881808       -1.2595348347       24.7149204242  TIP3      3091            0.0000000000
     59104      3491  TIP3      H1             16.8094623159       -2.0326064916       24.1336517196  TIP3      3091            0.0000000000
     59105      3491  TIP3      H2             16.9510896580       -0.5157485426       24.0868699975  TIP3      3091            0.0000000000
     59106      3492  TIP3      OH2             2.6398759532      -17.2590383650       36.4100399913  TIP3      3092            0.0000000000
     59107      3492  TIP3      H1              2.2829091333      -18.0486314785       36.8567983717  TIP3      3092            0.0000000000
     59108      3492  TIP3      H2              3.5695786224      -17.2671921169       36.7456669237  TIP3      3092            0.0000000000
     59109      3493  TIP3      OH2             4.6402373406      -17.8821825945       38.0002940861  TIP3      3093            0.0000000000
     59110      3493  TIP3      H1              5.5368268646      -18.2136649841       37.7883543331  TIP3      3093            0.0000000000
     59111      3493  TIP3      H2              4.2586833855      -18.6723035262       38.4384115808  TIP3      3093            0.0000000000
     59112      3494  TIP3      OH2            13.0458028138      -18.5749261472       38.1649304483  TIP3      3094            0.0000000000
     59113      3494  TIP3      H1             13.1422422178      -19.0375510917       39.0196861667  TIP3      3094            0.0000000000
     59114      3494  TIP3      H2             13.9615388338      -18.5941764914       37.8177134992  TIP3      3094            0.0000000000
     59115      3495  TIP3      OH2            16.2477763878       -2.5363626801       36.8521258322  TIP3      3095            0.0000000000
     59116      3495  TIP3      H1             15.4444797081       -2.6879294086       36.3081027710  TIP3      3095            0.0000000000
     59117      3495  TIP3      H2             16.1479789050       -1.5805229837       37.0486021819  TIP3      3095            0.0000000000
     59118      3496  TIP3      OH2            30.6348274142       -8.6606460885       26.8791212423  TIP3      3096            0.0000000000
     59119      3496  TIP3      H1             30.7200400884       -7.6832092006       26.7476223993  TIP3      3096            0.0000000000
     59120      3496  TIP3      H2             30.0040563773       -8.8846020857       26.1849126000  TIP3      3096            0.0000000000
     59121      3497  TIP3      OH2            29.5511260526       -9.3785115648       30.3039562545  TIP3      3097            0.0000000000
     59122      3497  TIP3      H1             29.5388338554      -10.0303846807       31.0190660059  TIP3      3097            0.0000000000
     59123      3497  TIP3      H2             29.2482636864       -9.8583101912       29.5408705350  TIP3      3097            0.0000000000
     59124      3498  TIP3      OH2            21.9212360886       -9.7412761799       31.8594038745  TIP3      3098            0.0000000000
     59125      3498  TIP3      H1             21.9915759981      -10.3910840333       32.5913546239  TIP3      3098            0.0000000000
     59126      3498  TIP3      H2             22.6494395097       -9.1434371158       32.0747445079  TIP3      3098            0.0000000000
     59127      3499  TIP3      OH2            33.2661142931       -6.4449427630       28.5818196676  TIP3      3099            0.0000000000
     59128      3499  TIP3      H1             32.8289612288       -7.1590756412       29.0583760687  TIP3      3099            0.0000000000
     59129      3499  TIP3      H2             33.2619278196       -5.7241599455       29.2394305233  TIP3      3099            0.0000000000
     59130      3500  TIP3      OH2            22.8449937511       -5.2891887884       30.4034648691  TIP3      3100            0.0000000000
     59131      3500  TIP3      H1             22.5070380293       -6.1303389773       30.0458720857  TIP3      3100            0.0000000000
     59132      3500  TIP3      H2             23.8000389624       -5.4796021248       30.4439695351  TIP3      3100            0.0000000000
     59133      3501  TIP3      OH2            19.4986643513      -11.6804320497       25.8218202125  TIP3      3101            0.0000000000
     59134      3501  TIP3      H1             19.0213198461      -10.8213995934       25.7930711293  TIP3      3101            0.0000000000
     59135      3501  TIP3      H2             18.9101551985      -12.2397999323       25.2965228626  TIP3      3101            0.0000000000
     59136      3502  TIP3      OH2            20.1734230967       -9.4871145701       27.9538082763  TIP3      3102            0.0000000000
     59137      3502  TIP3      H1             20.4195484333      -10.2845269228       28.4549758486  TIP3      3102            0.0000000000
     59138      3502  TIP3      H2             20.9127904262       -9.3966373367       27.3338619858  TIP3      3102            0.0000000000
     59139      3503  TIP3      OH2            30.3682906389       -1.3046347357       28.8138205054  TIP3      3103            0.0000000000
     59140      3503  TIP3      H1             31.0109051944       -2.0080593882       28.5362136491  TIP3      3103            0.0000000000
     59141      3503  TIP3      H2             30.1722966182       -1.5823556480       29.7078521396  TIP3      3103            0.0000000000
     59142      3504  TIP3      OH2            27.9337200631       -6.9695949510       30.7273694511  TIP3      3104            0.0000000000
     59143      3504  TIP3      H1             28.2775321594       -7.6234117510       30.1085099448  TIP3      3104            0.0000000000
     59144      3504  TIP3      H2             28.7051808572       -6.8260492519       31.3069249431  TIP3      3104            0.0000000000
     59145      3505  TIP3      OH2            36.5778201733      -15.3522005489       31.5340935181  TIP3      3105            0.0000000000
     59146      3505  TIP3      H1             36.6903648670      -14.7315041164       32.2863362946  TIP3      3105            0.0000000000
     59147      3505  TIP3      H2             37.0709580809      -14.8919449380       30.8386845654  TIP3      3105            0.0000000000
     59148      3506  TIP3      OH2            31.0928436580      -12.5290966778       31.0589394447  TIP3      3106            0.0000000000
     59149      3506  TIP3      H1             31.2525735656      -13.4951474427       31.0623809869  TIP3      3106            0.0000000000
     59150      3506  TIP3      H2             31.0035215315      -12.3694735529       30.1040449074  TIP3      3106            0.0000000000
     59151      3507  TIP3      OH2            24.2522787372      -14.4436203976       28.3077777819  TIP3      3107            0.0000000000
     59152      3507  TIP3      H1             24.2900624323      -13.5932894600       27.8537802999  TIP3      3107            0.0000000000
     59153      3507  TIP3      H2             23.7935349482      -15.0130089773       27.6442177182  TIP3      3107            0.0000000000
     59154      3508  TIP3      OH2            31.9489515536      -14.3182939075       26.6939613799  TIP3      3108            0.0000000000
     59155      3508  TIP3      H1             32.6274991057      -14.6594936138       27.3326628836  TIP3      3108            0.0000000000
     59156      3508  TIP3      H2             32.5045149315      -13.7963169802       26.0920240301  TIP3      3108            0.0000000000
     59157      3509  TIP3      OH2            20.8421054173      -12.0445626539       29.0623122989  TIP3      3109            0.0000000000
     59158      3509  TIP3      H1             21.5320130525      -12.5939156036       29.4849689944  TIP3      3109            0.0000000000
     59159      3509  TIP3      H2             20.9164162989      -12.3341569499       28.1392997397  TIP3      3109            0.0000000000
     59160      3510  TIP3      OH2            26.0637735960      -10.4958927446       28.2633709770  TIP3      3110            0.0000000000
     59161      3510  TIP3      H1             26.5773471977      -11.0479875606       28.8441371744  TIP3      3110            0.0000000000
     59162      3510  TIP3      H2             25.4228973807      -11.1378210641       27.8758333625  TIP3      3110            0.0000000000
     59163      3511  TIP3      OH2            37.0033460555      -13.8945939704       33.7806686799  TIP3      3111            0.0000000000
     59164      3511  TIP3      H1             36.3316907043      -13.1832928629       33.6962964405  TIP3      3111            0.0000000000
     59165      3511  TIP3      H2             37.0209959496      -14.0476422999       34.7340744724  TIP3      3111            0.0000000000
     59166      3512  TIP3      OH2            23.1045737609      -15.5081353271       32.3666640924  TIP3      3112            0.0000000000
     59167      3512  TIP3      H1             22.8350858994      -14.9974892242       31.5880116000  TIP3      3112            0.0000000000
     59168      3512  TIP3      H2             22.4145612320      -15.3150514285       33.0317601372  TIP3      3112            0.0000000000
     59169      3513  TIP3      OH2            30.4225756859       -6.0499620243       25.9150311450  TIP3      3113            0.0000000000
     59170      3513  TIP3      H1             30.1440146300       -6.3399246654       25.0354934169  TIP3      3113            0.0000000000
     59171      3513  TIP3      H2             30.1075600540       -5.1188449330       25.9479146644  TIP3      3113            0.0000000000
     59172      3514  TIP3      OH2            25.6369922180       -7.8853757196       32.6298498923  TIP3      3114            0.0000000000
     59173      3514  TIP3      H1             24.9055996178       -7.2483575973       32.7814914924  TIP3      3114            0.0000000000
     59174      3514  TIP3      H2             26.3432966401       -7.2953132892       32.3269598988  TIP3      3114            0.0000000000
     59175      3515  TIP3      OH2            33.7374454473      -15.0180699030       28.6716119812  TIP3      3115            0.0000000000
     59176      3515  TIP3      H1             33.5324551880      -15.7892029951       29.2112014970  TIP3      3115            0.0000000000
     59177      3515  TIP3      H2             34.4102024479      -14.5651617309       29.2081863840  TIP3      3115            0.0000000000
     59178      3516  TIP3      OH2            22.6462237045      -13.6599117007       30.3516610821  TIP3      3116            0.0000000000
     59179      3516  TIP3      H1             23.2946230247      -12.9988181839       30.6918841831  TIP3      3116            0.0000000000
     59180      3516  TIP3      H2             23.1836912493      -14.1096167971       29.6533148240  TIP3      3116            0.0000000000
     59181      3517  TIP3      OH2            24.0637309783       -5.9074827217       33.4226835435  TIP3      3117            0.0000000000
     59182      3517  TIP3      H1             24.0314824991       -4.9970399423       33.0678067905  TIP3      3117            0.0000000000
     59183      3517  TIP3      H2             23.1809487363       -5.9721206035       33.8672324702  TIP3      3117            0.0000000000
     59184      3518  TIP3      OH2            20.1505558583       -6.2572391363       24.2194799250  TIP3      3118            0.0000000000
     59185      3518  TIP3      H1             19.8892387736       -5.9769600618       23.3236743648  TIP3      3118            0.0000000000
     59186      3518  TIP3      H2             20.2114654669       -5.3974310184       24.6855915884  TIP3      3118            0.0000000000
     59187      3519  TIP3      OH2            33.7867577965       -4.6139381857       30.9496971645  TIP3      3119            0.0000000000
     59188      3519  TIP3      H1             32.8209966358       -4.5217263735       31.0914605098  TIP3      3119            0.0000000000
     59189      3519  TIP3      H2             34.0533251132       -3.6871044862       30.7842183879  TIP3      3119            0.0000000000
     59190      3520  TIP3      OH2            34.0911084326      -16.3193137208       32.3574897102  TIP3      3120            0.0000000000
     59191      3520  TIP3      H1             33.3560884709      -15.6963089764       32.2957381520  TIP3      3120            0.0000000000
     59192      3520  TIP3      H2             34.7872392064      -15.8974636203       31.8233225943  TIP3      3120            0.0000000000
     59193      3521  TIP3      OH2            27.0886717535      -18.2125980662       29.8052598059  TIP3      3121            0.0000000000
     59194      3521  TIP3      H1             26.9486069595      -19.1801261576       29.7632690140  TIP3      3121            0.0000000000
     59195      3521  TIP3      H2             26.2090673765      -17.9021816932       30.1112604600  TIP3      3121            0.0000000000
     59196      3522  TIP3      OH2            32.0328209132       -2.8271685463       27.5736892013  TIP3      3122            0.0000000000
     59197      3522  TIP3      H1             32.4668724914       -3.5367072047       27.0591193064  TIP3      3122            0.0000000000
     59198      3522  TIP3      H2             32.3950799311       -2.0223305287       27.1451973620  TIP3      3122            0.0000000000
     59199      3523  TIP3      OH2            33.2252078607       -4.8962617643       26.0673656251  TIP3      3123            0.0000000000
     59200      3523  TIP3      H1             32.9424478202       -5.6067374192       25.4626644318  TIP3      3123            0.0000000000
     59201      3523  TIP3      H2             33.2678382059       -5.3810343620       26.9108301992  TIP3      3123            0.0000000000
     59202      3524  TIP3      OH2            34.8610227666       -6.3386615701       34.5735864583  TIP3      3124            0.0000000000
     59203      3524  TIP3      H1             35.0218941550       -6.9487817813       33.8151833964  TIP3      3124            0.0000000000
     59204      3524  TIP3      H2             35.0553064339       -5.4713037154       34.1666788870  TIP3      3124            0.0000000000
     59205      3525  TIP3      OH2            29.3605138028       -9.4121529523       24.3321755908  TIP3      3125            0.0000000000
     59206      3525  TIP3      H1             28.6646237372       -8.8320368305       23.9597230822  TIP3      3125            0.0000000000
     59207      3525  TIP3      H2             30.0598876914       -9.3136943173       23.6504498143  TIP3      3125            0.0000000000
     59208      3526  TIP3      OH2            36.7380074879      -10.0126617181       32.6196985731  TIP3      3126            0.0000000000
     59209      3526  TIP3      H1             36.0738620334       -9.2971867150       32.6809537292  TIP3      3126            0.0000000000
     59210      3526  TIP3      H2             37.2075450352       -9.7816167733       31.7980225490  TIP3      3126            0.0000000000
     59211      3527  TIP3      OH2            32.7771046028       -9.1873254512       25.2525695457  TIP3      3127            0.0000000000
     59212      3527  TIP3      H1             32.0429443781       -8.9511849947       25.8482479651  TIP3      3127            0.0000000000
     59213      3527  TIP3      H2             33.2418255211       -9.8874596200       25.7389437835  TIP3      3127            0.0000000000
     59214      3528  TIP3      OH2            32.7000134472      -11.0333141628       34.3481253177  TIP3      3128            0.0000000000
     59215      3528  TIP3      H1             32.7390195359      -10.2346527770       34.9014072112  TIP3      3128            0.0000000000
     59216      3528  TIP3      H2             32.0706647267      -10.7319781616       33.6558601117  TIP3      3128            0.0000000000
     59217      3529  TIP3      OH2            24.4264758025       -8.5327506396       27.1604200851  TIP3      3129            0.0000000000
     59218      3529  TIP3      H1             24.0713181296       -8.9231451827       26.3338975861  TIP3      3129            0.0000000000
     59219      3529  TIP3      H2             25.0082772267       -9.2331027015       27.5063503599  TIP3      3129            0.0000000000
     59220      3530  TIP3      OH2            25.7502005058       -5.1253632361       29.8434607966  TIP3      3130            0.0000000000
     59221      3530  TIP3      H1             25.7009287235       -5.6964377795       29.0662361372  TIP3      3130            0.0000000000
     59222      3530  TIP3      H2             26.5141377627       -5.5042864337       30.3160321909  TIP3      3130            0.0000000000
     59223      3531  TIP3      OH2            24.7703957186       -9.8019179908       30.7988988808  TIP3      3131            0.0000000000
     59224      3531  TIP3      H1             25.3258740880       -9.6524755634       30.0243933873  TIP3      3131            0.0000000000
     59225      3531  TIP3      H2             25.1014929876       -9.1330389906       31.4375781287  TIP3      3131            0.0000000000
     59226      3532  TIP3      OH2            31.1138764919       -4.2435485335       31.5133704357  TIP3      3132            0.0000000000
     59227      3532  TIP3      H1             30.8517018040       -3.6090725217       32.1815951511  TIP3      3132            0.0000000000
     59228      3532  TIP3      H2             30.8877583887       -5.1028792484       31.9540319871  TIP3      3132            0.0000000000
     59229      3533  TIP3      OH2            25.6817816103       -5.3795873102       35.5146458855  TIP3      3133            0.0000000000
     59230      3533  TIP3      H1             25.3186086437       -4.6039896584       35.9837369398  TIP3      3133            0.0000000000
     59231      3533  TIP3      H2             25.0036781565       -5.5484275425       34.8153154803  TIP3      3133            0.0000000000
     59232      3534  TIP3      OH2            22.6082294898       -9.2024186812       34.7077719132  TIP3      3134            0.0000000000
     59233      3534  TIP3      H1             22.6523423796       -8.5322867137       35.4210031359  TIP3      3134            0.0000000000
     59234      3534  TIP3      H2             21.6859328415       -9.0912611772       34.4294763336  TIP3      3134            0.0000000000
     59235      3535  TIP3      OH2            29.3731432736       -3.2863493834       26.3935695897  TIP3      3135            0.0000000000
     59236      3535  TIP3      H1             29.8330394782       -2.9744412460       27.1785855292  TIP3      3135            0.0000000000
     59237      3535  TIP3      H2             28.8107076107       -2.5389009980       26.1601511937  TIP3      3135            0.0000000000
     59238      3536  TIP3      OH2            23.9199908258       -3.3146016506       36.2738903692  TIP3      3136            0.0000000000
     59239      3536  TIP3      H1             23.8918087217       -3.4421842733       35.3110596046  TIP3      3136            0.0000000000
     59240      3536  TIP3      H2             22.9818459507       -3.4393191662       36.5233750064  TIP3      3136            0.0000000000
     59241      3537  TIP3      OH2            35.3639048146      -18.2680260359       22.7913297486  TIP3      3137            0.0000000000
     59242      3537  TIP3      H1             34.4285437950      -18.1324143357       23.0629429830  TIP3      3137            0.0000000000
     59243      3537  TIP3      H2             35.5817587310      -17.4268098860       22.3730212340  TIP3      3137            0.0000000000
     59244      3538  TIP3      OH2            23.4190230224       -9.5299326328       24.7088883033  TIP3      3138            0.0000000000
     59245      3538  TIP3      H1             23.0935119537       -8.7044437827       24.2722421071  TIP3      3138            0.0000000000
     59246      3538  TIP3      H2             22.6880755985      -10.1403889769       24.6033545661  TIP3      3138            0.0000000000
     59247      3539  TIP3      OH2            19.4864828821       -7.0983437034       33.6126067156  TIP3      3139            0.0000000000
     59248      3539  TIP3      H1             19.0042383095       -7.1632671519       32.7680042840  TIP3      3139            0.0000000000
     59249      3539  TIP3      H2             19.5134591381       -8.0400036922       33.8704727527  TIP3      3139            0.0000000000
     59250      3540  TIP3      OH2            19.2374210173       -4.3526593832       30.4505565669  TIP3      3140            0.0000000000
     59251      3540  TIP3      H1             20.1934207122       -4.4755337074       30.4294736458  TIP3      3140            0.0000000000
     59252      3540  TIP3      H2             19.1414758744       -3.5461782847       30.9741739763  TIP3      3140            0.0000000000
     59253      3541  TIP3      OH2            37.4646066380       -3.6584220254       36.1137262171  TIP3      3141            0.0000000000
     59254      3541  TIP3      H1             37.3705153465       -4.6216614644       36.1071082133  TIP3      3141            0.0000000000
     59255      3541  TIP3      H2             36.6046033402       -3.4095275449       36.5379262214  TIP3      3141            0.0000000000
     59256      3542  TIP3      OH2            28.4282659196       -4.1068712665       34.9951470656  TIP3      3142            0.0000000000
     59257      3542  TIP3      H1             28.5005930366       -3.2642965065       35.5011365846  TIP3      3142            0.0000000000
     59258      3542  TIP3      H2             27.5515949465       -4.4446746937       35.2558223588  TIP3      3142            0.0000000000
     59259      3543  TIP3      OH2            28.8407942100       -0.3563438615       24.8105167624  TIP3      3143            0.0000000000
     59260      3543  TIP3      H1             28.7714608864       -0.4482007311       23.8432381260  TIP3      3143            0.0000000000
     59261      3543  TIP3      H2             28.8726631741        0.6110652502       24.9415192690  TIP3      3143            0.0000000000
     59262      3544  TIP3      OH2            22.5013164376       -1.5033679441       26.6051383160  TIP3      3144            0.0000000000
     59263      3544  TIP3      H1             22.6439243407       -1.9029022000       27.4910028381  TIP3      3144            0.0000000000
     59264      3544  TIP3      H2             21.6476741880       -1.8968897276       26.3606626126  TIP3      3144            0.0000000000
     59265      3545  TIP3      OH2            31.6093029880       -1.2103171245       24.5686922421  TIP3      3145            0.0000000000
     59266      3545  TIP3      H1             30.6532789936       -1.1529293005       24.7317871603  TIP3      3145            0.0000000000
     59267      3545  TIP3      H2             31.8721221528       -1.9617973470       25.1217677234  TIP3      3145            0.0000000000
     59268      3546  TIP3      OH2            34.5903512373      -12.1660452360       36.6132226289  TIP3      3146            0.0000000000
     59269      3546  TIP3      H1             34.1665205318      -11.7130954753       35.8734755410  TIP3      3146            0.0000000000
     59270      3546  TIP3      H2             34.6252563591      -13.0891007763       36.2985480370  TIP3      3146            0.0000000000
     59271      3547  TIP3      OH2            21.7475637904       -5.7780460982       34.6040456629  TIP3      3147            0.0000000000
     59272      3547  TIP3      H1             21.9680089018       -6.1526375068       35.4802640634  TIP3      3147            0.0000000000
     59273      3547  TIP3      H2             20.8800110943       -6.1756306707       34.3932708849  TIP3      3147            0.0000000000
     59274      3548  TIP3      OH2            24.4288905842      -17.2774334073       30.5151278612  TIP3      3148            0.0000000000
     59275      3548  TIP3      H1             23.5064164970      -17.4342912984       30.2089013660  TIP3      3148            0.0000000000
     59276      3548  TIP3      H2             24.3149291232      -16.4815723583       31.0470546195  TIP3      3148            0.0000000000
     59277      3549  TIP3      OH2            29.0610317922      -17.6110857192       33.9481846189  TIP3      3149            0.0000000000
     59278      3549  TIP3      H1             29.4543463718      -18.0349398276       34.7295930709  TIP3      3149            0.0000000000
     59279      3549  TIP3      H2             28.0882265967      -17.7696041178       34.0856636987  TIP3      3149            0.0000000000
     59280      3550  TIP3      OH2            32.3623848717      -13.8293359224       34.8170145634  TIP3      3150            0.0000000000
     59281      3550  TIP3      H1             31.8207448676      -13.9897949599       35.6274219737  TIP3      3150            0.0000000000
     59282      3550  TIP3      H2             32.1912754761      -12.9073242905       34.5786268937  TIP3      3150            0.0000000000
     59283      3551  TIP3      OH2            24.5037298059      -12.3556489212       31.7319262174  TIP3      3151            0.0000000000
     59284      3551  TIP3      H1             23.8168855003      -12.3745687882       32.4210494926  TIP3      3151            0.0000000000
     59285      3551  TIP3      H2             24.4816135049      -11.4156016382       31.4547557131  TIP3      3151            0.0000000000
     59286      3552  TIP3      OH2            24.4826502016      -12.1482328640       26.6373927872  TIP3      3152            0.0000000000
     59287      3552  TIP3      H1             23.5529950732      -12.4769529608       26.5504205451  TIP3      3152            0.0000000000
     59288      3552  TIP3      H2             24.8826501105      -12.5345727516       25.8411977752  TIP3      3152            0.0000000000
     59289      3553  TIP3      OH2            29.9656278816      -11.7199796971       25.4562048440  TIP3      3153            0.0000000000
     59290      3553  TIP3      H1             29.6089380677      -10.8826044981       25.0912508221  TIP3      3153            0.0000000000
     59291      3553  TIP3      H2             30.7020836098      -11.8710414858       24.8172077245  TIP3      3153            0.0000000000
     59292      3554  TIP3      OH2            29.0895942141      -11.5083138500       36.9064493661  TIP3      3154            0.0000000000
     59293      3554  TIP3      H1             28.5282914724      -12.2669004556       37.2153363434  TIP3      3154            0.0000000000
     59294      3554  TIP3      H2             29.9164358865      -11.6680425146       37.3798599477  TIP3      3154            0.0000000000
     59295      3555  TIP3      OH2            30.9543876386      -12.2483264914       28.2605631538  TIP3      3155            0.0000000000
     59296      3555  TIP3      H1             30.8263602849      -11.6662659595       27.5022346144  TIP3      3155            0.0000000000
     59297      3555  TIP3      H2             31.1805293766      -13.0975493447       27.8093126078  TIP3      3155            0.0000000000
     59298      3556  TIP3      OH2            22.1787948841      -12.0445966943       33.5314466212  TIP3      3156            0.0000000000
     59299      3556  TIP3      H1             22.1974981173      -11.6397986911       34.4178092150  TIP3      3156            0.0000000000
     59300      3556  TIP3      H2             21.7236070354      -12.8752365810       33.6827802185  TIP3      3156            0.0000000000
     59301      3557  TIP3      OH2            18.8018827157      -14.9360785218       27.4289346711  TIP3      3157            0.0000000000
     59302      3557  TIP3      H1             19.4683463510      -14.9692511006       28.1413280152  TIP3      3157            0.0000000000
     59303      3557  TIP3      H2             19.2699710442      -15.3482554302       26.6824882059  TIP3      3157            0.0000000000
     59304      3558  TIP3      OH2            20.1189953999      -14.1894105874       22.8841406062  TIP3      3158            0.0000000000
     59305      3558  TIP3      H1             20.5414702829      -13.5996578186       22.2482421578  TIP3      3158            0.0000000000
     59306      3558  TIP3      H2             19.3598751605      -13.6373383878       23.1617417708  TIP3      3158            0.0000000000
     59307      3559  TIP3      OH2            30.2413687252      -10.6262280153       32.8745658443  TIP3      3159            0.0000000000
     59308      3559  TIP3      H1             30.6036923371      -11.2936454819       32.2647480432  TIP3      3159            0.0000000000
     59309      3559  TIP3      H2             29.8069858003      -11.1705900830       33.5587279259  TIP3      3159            0.0000000000
     59310      3560  TIP3      OH2            27.0492404846      -14.6366024714       27.6971412087  TIP3      3160            0.0000000000
     59311      3560  TIP3      H1             26.1045185140      -14.6715803831       27.9855728664  TIP3      3160            0.0000000000
     59312      3560  TIP3      H2             27.5341430033      -14.8175091439       28.5173450483  TIP3      3160            0.0000000000
     59313      3561  TIP3      OH2            21.8734827402      -13.0788475021       26.5214598922  TIP3      3161            0.0000000000
     59314      3561  TIP3      H1             20.9622983214      -12.9851908496       26.1710371408  TIP3      3161            0.0000000000
     59315      3561  TIP3      H2             22.1494274526      -13.9444068934       26.1763868867  TIP3      3161            0.0000000000
     59316      3562  TIP3      OH2            25.4910131483      -13.0506637184       24.1910296845  TIP3      3162            0.0000000000
     59317      3562  TIP3      H1             26.4567795718      -12.9847128509       24.3571483529  TIP3      3162            0.0000000000
     59318      3562  TIP3      H2             25.3203065354      -12.4060919355       23.5312161990  TIP3      3162            0.0000000000
     59319      3563  TIP3      OH2            31.4530709171      -15.4511937757       30.9437033091  TIP3      3163            0.0000000000
     59320      3563  TIP3      H1             30.7578951303      -15.3569922278       31.6286451238  TIP3      3163            0.0000000000
     59321      3563  TIP3      H2             30.9501146899      -15.6556103246       30.1451212072  TIP3      3163            0.0000000000
     59322      3564  TIP3      OH2            34.6833884522        0.2031138967       37.2584424867  TIP3      3164            0.0000000000
     59323      3564  TIP3      H1             34.9319318119        0.6128028133       36.4065591949  TIP3      3164            0.0000000000
     59324      3564  TIP3      H2             35.3870987117        0.5402248996       37.8422526538  TIP3      3164            0.0000000000
     59325      3565  TIP3      OH2            22.3399035676       -7.3284911703       36.8242809295  TIP3      3165            0.0000000000
     59326      3565  TIP3      H1             23.0524752190       -7.0696099593       37.4310969975  TIP3      3165            0.0000000000
     59327      3565  TIP3      H2             21.5446515512       -7.1619256621       37.3811843309  TIP3      3165            0.0000000000
     59328      3566  TIP3      OH2            28.4786907661      -11.9556019416       29.8349825159  TIP3      3166            0.0000000000
     59329      3566  TIP3      H1             28.9390799377      -12.5068775914       29.1857012391  TIP3      3166            0.0000000000
     59330      3566  TIP3      H2             28.1679064149      -12.5839334012       30.5082983962  TIP3      3166            0.0000000000
     59331      3567  TIP3      OH2            23.3473909572      -15.7571999064       26.0042192199  TIP3      3167            0.0000000000
     59332      3567  TIP3      H1             23.0416054393      -16.6852422456       25.9758139951  TIP3      3167            0.0000000000
     59333      3567  TIP3      H2             24.1376383604      -15.8060131807       25.4506298883  TIP3      3167            0.0000000000
     59334      3568  TIP3      OH2            26.9918329485      -13.5326017013       31.9656498904  TIP3      3168            0.0000000000
     59335      3568  TIP3      H1             26.1351700167      -13.0804588207       32.1104979356  TIP3      3168            0.0000000000
     59336      3568  TIP3      H2             27.5124968949      -13.2457507380       32.7475730684  TIP3      3168            0.0000000000
     59337      3569  TIP3      OH2            27.5439210300       -7.3593550588       23.6772922448  TIP3      3169            0.0000000000
     59338      3569  TIP3      H1             26.7626498016       -7.8143624670       23.3692500031  TIP3      3169            0.0000000000
     59339      3569  TIP3      H2             27.3710972964       -7.2389056465       24.6290629523  TIP3      3169            0.0000000000
     59340      3570  TIP3      OH2            34.7039943691       -8.1800386801       32.4880027960  TIP3      3170            0.0000000000
     59341      3570  TIP3      H1             35.3091667762       -7.7066951151       31.8930568919  TIP3      3170            0.0000000000
     59342      3570  TIP3      H2             33.8559476023       -8.0816185561       32.0061197873  TIP3      3170            0.0000000000
     59343      3571  TIP3      OH2            29.0650903077       -7.1176899540       34.9336282019  TIP3      3171            0.0000000000
     59344      3571  TIP3      H1             28.6788198345       -7.5139969067       35.7192792565  TIP3      3171            0.0000000000
     59345      3571  TIP3      H2             28.8194555290       -6.1876493834       34.9986565881  TIP3      3171            0.0000000000
     59346      3572  TIP3      OH2            32.1238918223      -12.6367586615       23.5462679143  TIP3      3172            0.0000000000
     59347      3572  TIP3      H1             33.0344555760      -12.7682906545       23.8661586269  TIP3      3172            0.0000000000
     59348      3572  TIP3      H2             32.2103094293      -11.8487746373       22.9819186085  TIP3      3172            0.0000000000
     59349      3573  TIP3      OH2            22.6494850228       -7.9946827129       29.4732684322  TIP3      3173            0.0000000000
     59350      3573  TIP3      H1             23.3758975665       -8.0313985762       28.8249260639  TIP3      3173            0.0000000000
     59351      3573  TIP3      H2             22.7291848015       -8.8451207830       29.9370510070  TIP3      3173            0.0000000000
     59352      3574  TIP3      OH2            29.6709761152       -5.8765848642       22.7468718381  TIP3      3174            0.0000000000
     59353      3574  TIP3      H1             29.3409279864       -5.0252949614       23.0804211907  TIP3      3174            0.0000000000
     59354      3574  TIP3      H2             28.9372556682       -6.4836533865       22.8991475578  TIP3      3174            0.0000000000
     59355      3575  TIP3      OH2            19.6583761441       -9.5632053157       34.7570130016  TIP3      3175            0.0000000000
     59356      3575  TIP3      H1             19.8642169423       -9.9876807383       35.6108571809  TIP3      3175            0.0000000000
     59357      3575  TIP3      H2             19.0390737402      -10.1756789999       34.3329122305  TIP3      3175            0.0000000000
     59358      3576  TIP3      OH2            26.6643714139      -10.0202093207       36.9674871915  TIP3      3176            0.0000000000
     59359      3576  TIP3      H1             26.3699268122      -10.2465584352       36.0755804114  TIP3      3176            0.0000000000
     59360      3576  TIP3      H2             27.6020635904      -10.2928369804       36.9488740022  TIP3      3176            0.0000000000
     59361      3577  TIP3      OH2            31.3234234366       -4.6938948624       34.8704280150  TIP3      3177            0.0000000000
     59362      3577  TIP3      H1             30.4044146511       -4.4794035742       34.6183616342  TIP3      3177            0.0000000000
     59363      3577  TIP3      H2             31.3172373811       -4.3855846721       35.7968607205  TIP3      3177            0.0000000000
     59364      3578  TIP3      OH2            37.0295212324      -12.4522908190       23.2670504755  TIP3      3178            0.0000000000
     59365      3578  TIP3      H1             36.4525733624      -12.7938671507       22.5539386866  TIP3      3178            0.0000000000
     59366      3578  TIP3      H2             37.1072494218      -11.5316553554       22.9659255284  TIP3      3178            0.0000000000
     59367      3579  TIP3      OH2            36.9954902208       -6.6326645136       36.0919971867  TIP3      3179            0.0000000000
     59368      3579  TIP3      H1             36.1275504020       -6.3875633984       35.6970261717  TIP3      3179            0.0000000000
     59369      3579  TIP3      H2             37.5718153423       -6.6495818501       35.3026500652  TIP3      3179            0.0000000000
     59370      3580  TIP3      OH2            35.3408833621       -3.6519339948       23.6883056789  TIP3      3180            0.0000000000
     59371      3580  TIP3      H1             34.9360841398       -4.4654681044       24.0181755409  TIP3      3180            0.0000000000
     59372      3580  TIP3      H2             35.5891226791       -3.8255503970       22.7885430032  TIP3      3180            0.0000000000
     59373      3581  TIP3      OH2            32.4970370021       -8.8248205854       30.7273977470  TIP3      3181            0.0000000000
     59374      3581  TIP3      H1             31.5587637806       -9.0629945128       30.6860322572  TIP3      3181            0.0000000000
     59375      3581  TIP3      H2             32.9426914525       -9.6134870358       30.3716245169  TIP3      3181            0.0000000000
     59376      3582  TIP3      OH2            25.0328335171       -4.5145030058       26.8643467741  TIP3      3182            0.0000000000
     59377      3582  TIP3      H1             25.5461335854       -3.7168297880       26.6586879615  TIP3      3182            0.0000000000
     59378      3582  TIP3      H2             24.1497538846       -4.2750821881       26.5491074594  TIP3      3182            0.0000000000
     59379      3583  TIP3      OH2            20.7836982475       -9.6657141433       21.4783504121  TIP3      3183            0.0000000000
     59380      3583  TIP3      H1             21.3756795742       -8.9881397620       21.8257599193  TIP3      3183            0.0000000000
     59381      3583  TIP3      H2             19.9114221894       -9.3116781694       21.6899645898  TIP3      3183            0.0000000000
     59382      3584  TIP3      OH2            26.4665940075       -6.8616091607       26.4110505237  TIP3      3184            0.0000000000
     59383      3584  TIP3      H1             26.1876845377       -5.9217984802       26.4781704905  TIP3      3184            0.0000000000
     59384      3584  TIP3      H2             25.7027932375       -7.2984453808       26.8329651273  TIP3      3184            0.0000000000
     59385      3585  TIP3      OH2            26.9266900977       -2.6806618586       32.7660087530  TIP3      3185            0.0000000000
     59386      3585  TIP3      H1             27.3431846770       -1.8416290047       32.5120502821  TIP3      3185            0.0000000000
     59387      3585  TIP3      H2             27.5114910613       -2.9891377621       33.4835142593  TIP3      3185            0.0000000000
     59388      3586  TIP3      OH2            25.1449438462       -1.8402412699       25.9647576128  TIP3      3186            0.0000000000
     59389      3586  TIP3      H1             24.1759083042       -1.7132289959       26.0474250342  TIP3      3186            0.0000000000
     59390      3586  TIP3      H2             25.4901912084       -0.9964516012       26.3093801170  TIP3      3186            0.0000000000
     59391      3587  TIP3      OH2            30.4826462071       -6.6152589330       32.4283100712  TIP3      3187            0.0000000000
     59392      3587  TIP3      H1             30.0842346230       -6.8303561589       33.2922493047  TIP3      3187            0.0000000000
     59393      3587  TIP3      H2             31.0880204489       -7.3515694851       32.2569837155  TIP3      3187            0.0000000000
     59394      3588  TIP3      OH2            33.2034335416       -2.0591670413       34.9292748910  TIP3      3188            0.0000000000
     59395      3588  TIP3      H1             32.5606039593       -2.5866891431       34.4167723333  TIP3      3188            0.0000000000
     59396      3588  TIP3      H2             33.4399312603       -1.3738112047       34.2689835672  TIP3      3188            0.0000000000
     59397      3589  TIP3      OH2            37.2429694008       -1.2075625232       21.7431055165  TIP3      3189            0.0000000000
     59398      3589  TIP3      H1             37.9575321227       -0.5656589608       21.5748390781  TIP3      3189            0.0000000000
     59399      3589  TIP3      H2             36.5144809486       -0.6059161283       22.0415916026  TIP3      3189            0.0000000000
     59400      3590  TIP3      OH2            21.3535486174      -14.8156287562       34.3304419063  TIP3      3190            0.0000000000
     59401      3590  TIP3      H1             20.4804711920      -14.4149784800       34.3532486244  TIP3      3190            0.0000000000
     59402      3590  TIP3      H2             21.2349947350      -15.6915198030       34.7609260125  TIP3      3190            0.0000000000
     59403      3591  TIP3      OH2            33.5713577731       -6.9731965486       23.7655349327  TIP3      3191            0.0000000000
     59404      3591  TIP3      H1             33.2985285397       -7.7469283878       24.2933902160  TIP3      3191            0.0000000000
     59405      3591  TIP3      H2             34.5125010030       -6.9001119990       23.9572081598  TIP3      3191            0.0000000000
     59406      3592  TIP3      OH2            20.9395951103       -3.0107812157       32.7393221986  TIP3      3192            0.0000000000
     59407      3592  TIP3      H1             21.1836652102       -3.9507135161       32.7343052648  TIP3      3192            0.0000000000
     59408      3592  TIP3      H2             21.1889714046       -2.7415049616       33.6323754342  TIP3      3192            0.0000000000
     59409      3593  TIP3      OH2            25.6962685988       -4.9866835364       22.4494712424  TIP3      3193            0.0000000000
     59410      3593  TIP3      H1             25.9108133125       -5.4981409772       23.2251233770  TIP3      3193            0.0000000000
     59411      3593  TIP3      H2             25.7445988767       -4.0600662493       22.7383709708  TIP3      3193            0.0000000000
     59412      3594  TIP3      OH2            22.2242389935       -7.7583490522       22.9481179447  TIP3      3194            0.0000000000
     59413      3594  TIP3      H1             21.4976073257       -7.3602523771       23.4881092145  TIP3      3194            0.0000000000
     59414      3594  TIP3      H2             22.6982186611       -6.9488765727       22.6791013612  TIP3      3194            0.0000000000
     59415      3595  TIP3      OH2            30.0277030934      -15.0560438079       33.2238084140  TIP3      3195            0.0000000000
     59416      3595  TIP3      H1             30.7343738921      -14.9970258044       33.8793580918  TIP3      3195            0.0000000000
     59417      3595  TIP3      H2             29.6417935309      -15.9389880236       33.4036497972  TIP3      3195            0.0000000000
     59418      3596  TIP3      OH2            30.8112455053      -15.4389247390       24.3095225157  TIP3      3196            0.0000000000
     59419      3596  TIP3      H1             31.0272220963      -14.9311712478       23.5169339892  TIP3      3196            0.0000000000
     59420      3596  TIP3      H2             31.3756295012      -15.0311458931       24.9811154119  TIP3      3196            0.0000000000
     59421      3597  TIP3      OH2            28.4728312190       -3.3017395838       23.1863865971  TIP3      3197            0.0000000000
     59422      3597  TIP3      H1             27.6537253750       -2.7892173346       23.2230817706  TIP3      3197            0.0000000000
     59423      3597  TIP3      H2             29.0074540174       -2.8063898030       22.5474881256  TIP3      3197            0.0000000000
     59424      3598  TIP3      OH2            27.9765288834      -13.6495586705       25.1512652900  TIP3      3198            0.0000000000
     59425      3598  TIP3      H1             28.8364994523      -13.1866162862       25.1810308250  TIP3      3198            0.0000000000
     59426      3598  TIP3      H2             27.7623835778      -13.8680239647       26.0742469110  TIP3      3198            0.0000000000
     59427      3599  TIP3      OH2            28.5430107590      -12.7133475558       34.3381101026  TIP3      3199            0.0000000000
     59428      3599  TIP3      H1             28.6534757778      -12.1297551458       35.1142560793  TIP3      3199            0.0000000000
     59429      3599  TIP3      H2             29.2134410300      -13.3987174075       34.4462543395  TIP3      3199            0.0000000000
     59430      3600  TIP3      OH2            28.8817191789      -16.6359135993       26.0795901919  TIP3      3200            0.0000000000
     59431      3600  TIP3      H1             28.5469949727      -15.9973782402       26.7282001059  TIP3      3200            0.0000000000
     59432      3600  TIP3      H2             29.5639638559      -16.1118563823       25.5943687827  TIP3      3200            0.0000000000
     59433      3601  TIP3      OH2            25.8540706272       -2.2441621717       23.1980613681  TIP3      3201            0.0000000000
     59434      3601  TIP3      H1             25.9733133234       -1.4467054596       22.6620643313  TIP3      3201            0.0000000000
     59435      3601  TIP3      H2             25.5974324116       -1.9172762318       24.0714347965  TIP3      3201            0.0000000000
     59436      3602  TIP3      OH2            24.5510539736      -15.5486777647       22.7834371488  TIP3      3202            0.0000000000
     59437      3602  TIP3      H1             24.4730786545      -14.6588565634       23.1254470076  TIP3      3202            0.0000000000
     59438      3602  TIP3      H2             25.4556906887      -15.8159782252       23.0127232751  TIP3      3202            0.0000000000
     59439      3603  TIP3      OH2            34.7638993692      -14.8248800953       35.1860777149  TIP3      3203            0.0000000000
     59440      3603  TIP3      H1             33.8244815792      -14.5273907347       35.0708070986  TIP3      3203            0.0000000000
     59441      3603  TIP3      H2             35.0678291606      -14.8194828989       34.2654091927  TIP3      3203            0.0000000000
     59442      3604  TIP3      OH2            33.3442133622      -11.0387878785       29.2460363426  TIP3      3204            0.0000000000
     59443      3604  TIP3      H1             32.5464190969      -11.4793913377       28.9308950732  TIP3      3204            0.0000000000
     59444      3604  TIP3      H2             33.8174024385      -11.7392954400       29.7509357267  TIP3      3204            0.0000000000
     59445      3605  TIP3      OH2            22.7932124129       -5.1415502488       21.8374210854  TIP3      3205            0.0000000000
     59446      3605  TIP3      H1             23.4031319922       -4.4342684676       22.1007690002  TIP3      3205            0.0000000000
     59447      3605  TIP3      H2             23.2928717774       -5.5596214533       21.1017907744  TIP3      3205            0.0000000000
     59448      3606  TIP3      OH2            34.4209880175       -1.7961335767       30.8904643907  TIP3      3206            0.0000000000
     59449      3606  TIP3      H1             34.3046572567       -1.1051580223       30.2107743463  TIP3      3206            0.0000000000
     59450      3606  TIP3      H2             35.3830982718       -1.7202814792       31.0738458265  TIP3      3206            0.0000000000
     59451      3607  TIP3      OH2            21.9276708576      -17.6438481063       29.6380798118  TIP3      3207            0.0000000000
     59452      3607  TIP3      H1             21.7004942376      -17.6424561038       28.6902974067  TIP3      3207            0.0000000000
     59453      3607  TIP3      H2             21.4985520863      -18.4821773672       29.9517367399  TIP3      3207            0.0000000000
     59454      3608  TIP3      OH2            20.8711227770       -3.7399063585       25.8012578154  TIP3      3208            0.0000000000
     59455      3608  TIP3      H1             20.0251377315       -3.2690929099       25.8008951649  TIP3      3208            0.0000000000
     59456      3608  TIP3      H2             21.3882610501       -3.2379401276       25.1595732951  TIP3      3208            0.0000000000
     59457      3609  TIP3      OH2            20.1206538981       -1.1031051885       37.1075401651  TIP3      3209            0.0000000000
     59458      3609  TIP3      H1             20.6901054161       -1.3227441224       37.8738846699  TIP3      3209            0.0000000000
     59459      3609  TIP3      H2             19.6669662519       -1.9426540219       36.9311752413  TIP3      3209            0.0000000000
     59460      3610  TIP3      OH2            24.7497266918       -2.1861676144       38.7414828127  TIP3      3210            0.0000000000
     59461      3610  TIP3      H1             25.5230193334       -2.6667815023       39.0648594516  TIP3      3210            0.0000000000
     59462      3610  TIP3      H2             24.7335790590       -2.4396685933       37.7944674007  TIP3      3210            0.0000000000
     59463      3611  TIP3      OH2            31.3066269258       -3.8203310181       37.4517725886  TIP3      3211            0.0000000000
     59464      3611  TIP3      H1             30.9556156833       -4.6816403462       37.7256560515  TIP3      3211            0.0000000000
     59465      3611  TIP3      H2             32.0485999390       -3.6593703628       38.0642143109  TIP3      3211            0.0000000000
     59466      3612  TIP3      OH2            20.0322608796       -7.3128778227       38.0941208558  TIP3      3212            0.0000000000
     59467      3612  TIP3      H1             20.1900624922       -8.2236418408       37.7768693740  TIP3      3212            0.0000000000
     59468      3612  TIP3      H2             19.2721355972       -7.0361669533       37.5538748905  TIP3      3212            0.0000000000
     59469      3613  TIP3      OH2            24.3285348336       -7.0079094818       20.2132630150  TIP3      3213            0.0000000000
     59470      3613  TIP3      H1             24.4767562301       -7.7798406644       20.7194325184  TIP3      3213            0.0000000000
     59471      3613  TIP3      H2             25.0224202298       -7.0728618206       19.5187637305  TIP3      3213            0.0000000000
     59472      3614  TIP3      OH2            26.7344011948       -7.3376568199       37.4918320414  TIP3      3214            0.0000000000
     59473      3614  TIP3      H1             26.3763922030       -7.0486345589       36.6312083064  TIP3      3214            0.0000000000
     59474      3614  TIP3      H2             26.8273365433       -8.3074167112       37.3962136813  TIP3      3214            0.0000000000
     59475      3615  TIP3      OH2            32.4282919562       -7.4492923726       34.9447458563  TIP3      3215            0.0000000000
     59476      3615  TIP3      H1             33.1926436226       -6.8457588108       34.7662518431  TIP3      3215            0.0000000000
     59477      3615  TIP3      H2             31.6928341609       -6.8166188857       34.9127890376  TIP3      3215            0.0000000000
     59478      3616  TIP3      OH2            20.9031034269      -10.0963661377       37.4912118341  TIP3      3216            0.0000000000
     59479      3616  TIP3      H1             21.3052962027      -10.9601242817       37.3774183052  TIP3      3216            0.0000000000
     59480      3616  TIP3      H2             20.6436193672      -10.0846010320       38.4289113583  TIP3      3216            0.0000000000
     59481      3617  TIP3      OH2            24.8280246070      -11.1253680527       34.8608927823  TIP3      3217            0.0000000000
     59482      3617  TIP3      H1             24.2139247161      -10.4201907467       35.1284722315  TIP3      3217            0.0000000000
     59483      3617  TIP3      H2             25.1911340625      -10.7731322301       34.0293056774  TIP3      3217            0.0000000000
     59484      3618  TIP3      OH2            29.8658372696       -8.6024696507       38.1812465727  TIP3      3218            0.0000000000
     59485      3618  TIP3      H1             30.7835476446       -8.5923567642       38.0961076156  TIP3      3218            0.0000000000
     59486      3618  TIP3      H2             29.6761370702       -9.3551559813       38.7709785952  TIP3      3218            0.0000000000
     59487      3619  TIP3      OH2            25.1918145200      -13.7488761089       35.9532965296  TIP3      3219            0.0000000000
     59488      3619  TIP3      H1             25.3266371576      -14.4755048759       35.3130946152  TIP3      3219            0.0000000000
     59489      3619  TIP3      H2             25.1786997552      -12.9596472327       35.3694439489  TIP3      3219            0.0000000000
     59490      3620  TIP3      OH2            25.6093148416      -15.3606269280       33.4606702831  TIP3      3220            0.0000000000
     59491      3620  TIP3      H1             26.1318394215      -14.9206910464       32.7578055775  TIP3      3220            0.0000000000
     59492      3620  TIP3      H2             24.7322794428      -15.4948504611       33.0216865747  TIP3      3220            0.0000000000
     59493      3621  TIP3      OH2            27.1621142420       -9.9303873406       33.6897249504  TIP3      3221            0.0000000000
     59494      3621  TIP3      H1             27.9229736929      -10.0810784704       33.1172955561  TIP3      3221            0.0000000000
     59495      3621  TIP3      H2             26.8193991634       -9.0740236259       33.3878257645  TIP3      3221            0.0000000000
     59496      3622  TIP3      OH2            31.5739435370      -12.1162083918       38.6825838486  TIP3      3222            0.0000000000
     59497      3622  TIP3      H1             31.7770587086      -13.0660944210       38.5911314024  TIP3      3222            0.0000000000
     59498      3622  TIP3      H2             32.4543734234      -11.7262881017       38.6901692753  TIP3      3222            0.0000000000
     59499      3623  TIP3      OH2            32.9218620554       -9.4723262223       36.6467581190  TIP3      3223            0.0000000000
     59500      3623  TIP3      H1             32.6595749939       -8.6686320235       36.1232255036  TIP3      3223            0.0000000000
     59501      3623  TIP3      H2             33.9067340883       -9.4201320039       36.5766913883  TIP3      3223            0.0000000000
     59502      3624  TIP3      OH2            23.6797055714      -12.5665738905       37.9017289972  TIP3      3224            0.0000000000
     59503      3624  TIP3      H1             22.8888876933      -13.0726274373       37.6205931757  TIP3      3224            0.0000000000
     59504      3624  TIP3      H2             24.3279733531      -12.8548224294       37.2171366365  TIP3      3224            0.0000000000
     59505      3625  TIP3      OH2            26.4994940733      -17.8973149234       33.9346687438  TIP3      3225            0.0000000000
     59506      3625  TIP3      H1             26.2682695567      -16.9634272640       33.7609185356  TIP3      3225            0.0000000000
     59507      3625  TIP3      H2             25.7213727391      -18.2715790327       33.4230812804  TIP3      3225            0.0000000000
     59508      3626  TIP3      OH2            27.6688937723      -13.6073576046       37.4528071611  TIP3      3226            0.0000000000
     59509      3626  TIP3      H1             27.4041066574      -13.8298912498       38.3578850346  TIP3      3226            0.0000000000
     59510      3626  TIP3      H2             26.8813284791      -13.8081845587       36.9126119881  TIP3      3226            0.0000000000
     59511      3627  TIP3      OH2            30.3881968030      -14.4774014001       36.5151276277  TIP3      3227            0.0000000000
     59512      3627  TIP3      H1             29.4253620921      -14.4348700071       36.6541921836  TIP3      3227            0.0000000000
     59513      3627  TIP3      H2             30.6768184361      -15.1072648717       37.1949716297  TIP3      3227            0.0000000000
     59514      3628  TIP3      OH2            31.9906867027      -15.8411085823       38.4881306588  TIP3      3228            0.0000000000
     59515      3628  TIP3      H1             31.9196385313      -16.8121308546       38.5030347177  TIP3      3228            0.0000000000
     59516      3628  TIP3      H2             31.6964899446      -15.5610997170       39.3847425742  TIP3      3228            0.0000000000
     59517      3629  TIP3      OH2            21.8328422016      -14.6029907104       37.5803796886  TIP3      3229            0.0000000000
     59518      3629  TIP3      H1             22.0359814482      -15.3368896197       36.9556021093  TIP3      3229            0.0000000000
     59519      3629  TIP3      H2             21.6829854025      -15.0771827123       38.4132598979  TIP3      3229            0.0000000000
     59520      3630  TIP3      OH2            26.6120039438      -18.5981387872       36.5550517878  TIP3      3230            0.0000000000
     59521      3630  TIP3      H1             27.3245005843      -19.2705932550       36.5205488030  TIP3      3230            0.0000000000
     59522      3630  TIP3      H2             26.5130542309      -18.3831119774       35.6037089777  TIP3      3230            0.0000000000
     59523      3631  TIP3      OH2            26.9601543332      -16.9486097662       38.6268275815  TIP3      3231            0.0000000000
     59524      3631  TIP3      H1             26.8331915940      -17.4436852946       37.7748178622  TIP3      3231            0.0000000000
     59525      3631  TIP3      H2             26.3834234878      -16.1834040849       38.5206486402  TIP3      3231            0.0000000000
     59526      3632  TIP3      OH2            20.0786315599       -5.4193823135       21.2599076334  TIP3      3232            0.0000000000
     59527      3632  TIP3      H1             21.0252724908       -5.3447268164       21.5140355109  TIP3      3232            0.0000000000
     59528      3632  TIP3      H2             20.0830040389       -6.1153355378       20.5930094892  TIP3      3232            0.0000000000
     59529      3633  TIP3      OH2            18.7650273664       -0.0417943029       26.3036343064  TIP3      3233            0.0000000000
     59530      3633  TIP3      H1             18.0772306693       -0.5214746017       25.7935935022  TIP3      3233            0.0000000000
     59531      3633  TIP3      H2             19.0784045143       -0.7164778176       26.9265845875  TIP3      3233            0.0000000000
     59532      3634  TIP3      OH2            19.6085367338       -1.9454954150       28.1314685498  TIP3      3234            0.0000000000
     59533      3634  TIP3      H1             19.2641741995       -2.8291210506       28.3224445788  TIP3      3234            0.0000000000
     59534      3634  TIP3      H2             19.8319676197       -1.6078937470       29.0165776613  TIP3      3234            0.0000000000
     59535      3635  TIP3      OH2            37.1435031039       -1.1450716090       31.0944901899  TIP3      3235            0.0000000000
     59536      3635  TIP3      H1             37.1517670279       -0.9610396527       32.0495510127  TIP3      3235            0.0000000000
     59537      3635  TIP3      H2             37.8472258242       -0.5665953954       30.7772733009  TIP3      3235            0.0000000000
     59538      3636  TIP3      OH2            36.7206267081       -1.5466361261       34.0330799444  TIP3      3236            0.0000000000
     59539      3636  TIP3      H1             36.2369666061       -2.3172081035       33.6594406107  TIP3      3236            0.0000000000
     59540      3636  TIP3      H2             37.2461387916       -1.9826424530       34.7225066037  TIP3      3236            0.0000000000
     59541      3637  TIP3      OH2            35.1589505687       -5.8237927174       38.6708157342  TIP3      3237            0.0000000000
     59542      3637  TIP3      H1             34.2900626713       -5.8491855483       39.0912323145  TIP3      3237            0.0000000000
     59543      3637  TIP3      H2             35.5457120673       -5.0245090744       39.1160388261  TIP3      3237            0.0000000000
     59544      3638  TIP3      OH2            36.4672274057       -7.4934565369       24.1679984167  TIP3      3238            0.0000000000
     59545      3638  TIP3      H1             37.3418851516       -7.1175034729       24.3296142762  TIP3      3238            0.0000000000
     59546      3638  TIP3      H2             36.4797376306       -8.2578159453       24.7898797867  TIP3      3238            0.0000000000
     59547      3639  TIP3      OH2            36.8594052830       -9.4495211324       25.9990738340  TIP3      3239            0.0000000000
     59548      3639  TIP3      H1             36.1143874345       -9.9443685683       26.4023555584  TIP3      3239            0.0000000000
     59549      3639  TIP3      H2             37.4432453244       -9.2708284995       26.7631559438  TIP3      3239            0.0000000000
     59550      3640  TIP3      OH2            36.6034492285       -6.7110678129       30.9809354532  TIP3      3240            0.0000000000
     59551      3640  TIP3      H1             37.4445421011       -7.0765417658       30.6497787687  TIP3      3240            0.0000000000
     59552      3640  TIP3      H2             36.7409942930       -5.7498268340       30.8303540845  TIP3      3240            0.0000000000
     59553      3641  TIP3      OH2            35.1381882763       -3.8165558657       33.2750271721  TIP3      3241            0.0000000000
     59554      3641  TIP3      H1             34.4552348983       -3.4819214133       33.8785037423  TIP3      3241            0.0000000000
     59555      3641  TIP3      H2             34.5918681874       -4.2382684135       32.5752891755  TIP3      3241            0.0000000000
     59556      3642  TIP3      OH2            35.5412246408      -12.3628498114       20.9611116754  TIP3      3242            0.0000000000
     59557      3642  TIP3      H1             35.5420523189      -11.6739828196       20.2786676829  TIP3      3242            0.0000000000
     59558      3642  TIP3      H2             35.3002637671      -13.1581796082       20.4582703544  TIP3      3242            0.0000000000
     59559      3643  TIP3      OH2            34.6706186575      -10.9489846814       26.5858724639  TIP3      3243            0.0000000000
     59560      3643  TIP3      H1             34.4959083699      -11.9005407609       26.5444640412  TIP3      3243            0.0000000000
     59561      3643  TIP3      H2             34.3007670136      -10.6928474514       27.4441598278  TIP3      3243            0.0000000000
     59562      3644  TIP3      OH2            19.6608918341       -8.8641483454       30.6126776565  TIP3      3244            0.0000000000
     59563      3644  TIP3      H1             19.8730476877       -8.9501385945       29.6564401180  TIP3      3244            0.0000000000
     59564      3644  TIP3      H2             20.5465035327       -9.0128943115       30.9999694678  TIP3      3244            0.0000000000
     59565      3645  TIP3      OH2            35.4863337887       -8.9706506333       36.2728446128  TIP3      3245            0.0000000000
     59566      3645  TIP3      H1             36.1117759167       -9.7274038575       36.3926861139  TIP3      3245            0.0000000000
     59567      3645  TIP3      H2             36.1023933428       -8.2051178635       36.2516897706  TIP3      3245            0.0000000000
     59568      3646  TIP3      OH2            37.0033905596      -11.0706850119       36.9207803004  TIP3      3246            0.0000000000
     59569      3646  TIP3      H1             36.1379480484      -11.4867839686       36.7350752982  TIP3      3246            0.0000000000
     59570      3646  TIP3      H2             37.5984960229      -11.8354850640       36.8298854551  TIP3      3246            0.0000000000
     59571      3647  TIP3      OH2            34.7341089888      -14.9035147283       20.0640852382  TIP3      3247            0.0000000000
     59572      3647  TIP3      H1             35.3409877931      -15.3069818431       20.7103836876  TIP3      3247            0.0000000000
     59573      3647  TIP3      H2             33.8927465043      -15.3358096202       20.2579043892  TIP3      3247            0.0000000000
     59574      3648  TIP3      OH2            34.3454428650      -13.3683246630       25.0526789895  TIP3      3248            0.0000000000
     59575      3648  TIP3      H1             34.6469327315      -14.2975699044       25.1637454896  TIP3      3248            0.0000000000
     59576      3648  TIP3      H2             35.1149034764      -12.9414606435       24.6409703883  TIP3      3248            0.0000000000
     59577      3649  TIP3      OH2            34.9602845768      -12.8138302704       30.4711168044  TIP3      3249            0.0000000000
     59578      3649  TIP3      H1             35.9172790503      -12.5765908242       30.4527962093  TIP3      3249            0.0000000000
     59579      3649  TIP3      H2             34.7555726372      -12.6787181570       31.4096259057  TIP3      3249            0.0000000000
     59580      3650  TIP3      OH2            35.0218475470      -12.0850279831       33.2535220664  TIP3      3250            0.0000000000
     59581      3650  TIP3      H1             34.1514670479      -11.7907855545       33.6026651202  TIP3      3250            0.0000000000
     59582      3650  TIP3      H2             35.4539960811      -11.2242951714       33.0373267696  TIP3      3250            0.0000000000
     59583      3651  TIP3      OH2            19.2880482099      -13.6063719215       36.7109067782  TIP3      3251            0.0000000000
     59584      3651  TIP3      H1             20.2136443126      -13.7397490240       36.9798753532  TIP3      3251            0.0000000000
     59585      3651  TIP3      H2             18.8223667494      -14.3729907953       37.1149239177  TIP3      3251            0.0000000000
     59586      3652  TIP3      OH2            37.2909304501      -18.0647736100       38.6030291548  TIP3      3252            0.0000000000
     59587      3652  TIP3      H1             37.6436197355      -18.7231116631       37.9881739856  TIP3      3252            0.0000000000
     59588      3652  TIP3      H2             37.4291540988      -17.2310356965       38.1258019749  TIP3      3252            0.0000000000
     59589      3653  TIP3      OH2            34.9897641175      -16.0911843043       25.0864048754  TIP3      3253            0.0000000000
     59590      3653  TIP3      H1             35.1787632799      -16.5476492301       25.9288848510  TIP3      3253            0.0000000000
     59591      3653  TIP3      H2             34.3711577622      -16.7044497450       24.6283384370  TIP3      3253            0.0000000000
     59592      3654  TIP3      OH2            20.4800093272      -15.2764227630       29.6426060296  TIP3      3254            0.0000000000
     59593      3654  TIP3      H1             20.9506060670      -16.1022709632       29.9124644804  TIP3      3254            0.0000000000
     59594      3654  TIP3      H2             21.0076053742      -14.5757573681       30.0363364390  TIP3      3254            0.0000000000
     59595      3655  TIP3      OH2            18.7930140179      -12.3116252732       30.7093565545  TIP3      3255            0.0000000000
     59596      3655  TIP3      H1             19.3141055729      -12.5015939061       29.8957889967  TIP3      3255            0.0000000000
     59597      3655  TIP3      H2             19.1895054300      -11.4527466483       30.9474011627  TIP3      3255            0.0000000000
     59598      3656  TIP3      OH2            36.8227721540      -15.9489217922       36.9659532013  TIP3      3256            0.0000000000
     59599      3656  TIP3      H1             35.8793220462      -15.6862390989       36.9119547902  TIP3      3256            0.0000000000
     59600      3656  TIP3      H2             36.8949563606      -16.4910524801       36.1631438856  TIP3      3256            0.0000000000
     59601      3657  TIP3      OH2            36.8102627163      -16.0184066337       21.6133037942  TIP3      3257            0.0000000000
     59602      3657  TIP3      H1             37.2640753742      -16.7321748366       21.1346603131  TIP3      3257            0.0000000000
     59603      3657  TIP3      H2             37.5272218743      -15.3645739618       21.6809699756  TIP3      3257            0.0000000000
     59604      3658  TIP3      OH2            19.1220259937      -16.0269788638       24.7431693588  TIP3      3258            0.0000000000
     59605      3658  TIP3      H1             18.1835903624      -15.8188123104       24.6115517309  TIP3      3258            0.0000000000
     59606      3658  TIP3      H2             19.5642409497      -15.5419449306       24.0306162987  TIP3      3258            0.0000000000
     59607      3659  TIP3      OH2            33.8712499388       -1.0569686434       26.6972392246  TIP3      3259            0.0000000000
     59608      3659  TIP3      H1             34.5475968467       -1.3857514812       26.0773355213  TIP3      3259            0.0000000000
     59609      3659  TIP3      H2             34.3997385741       -0.5605685352       27.3372007647  TIP3      3259            0.0000000000
     59610      3660  TIP3      OH2            18.9466644226      -17.0216970590       33.3445476862  TIP3      3260            0.0000000000
     59611      3660  TIP3      H1             18.3490229931      -17.6326445954       33.7324098703  TIP3      3260            0.0000000000
     59612      3660  TIP3      H2             18.5832721280      -16.7599929365       32.4586562765  TIP3      3260            0.0000000000
     59613      3661  TIP3      OH2            21.2987309003       -4.1341423793       37.2260906301  TIP3      3261            0.0000000000
     59614      3661  TIP3      H1             20.4578361696       -3.9399390856       36.7794274110  TIP3      3261            0.0000000000
     59615      3661  TIP3      H2             21.0287261334       -4.1987971116       38.1501498194  TIP3      3261            0.0000000000
     59616      3662  TIP3      OH2            24.2182135780       -3.1596232135       33.4928095990  TIP3      3262            0.0000000000
     59617      3662  TIP3      H1             23.8384918861       -2.3175028908       33.2063094362  TIP3      3262            0.0000000000
     59618      3662  TIP3      H2             25.1423393991       -3.0541880225       33.1810833954  TIP3      3262            0.0000000000
     59619      3663  TIP3      OH2            28.5335181751       -1.7359934512       36.4191254208  TIP3      3263            0.0000000000
     59620      3663  TIP3      H1             28.7123601386       -2.0810108781       37.3306433891  TIP3      3263            0.0000000000
     59621      3663  TIP3      H2             29.4182497982       -1.4328632578       36.1406005513  TIP3      3263            0.0000000000
     59622      3664  TIP3      OH2            30.8495224441       -0.4619772567       35.6884283202  TIP3      3264            0.0000000000
     59623      3664  TIP3      H1             31.5669893378       -1.0760895903       35.4589745492  TIP3      3264            0.0000000000
     59624      3664  TIP3      H2             31.2146775287       -0.0483038115       36.5018740663  TIP3      3264            0.0000000000
     59625      3665  TIP3      OH2            35.8275392641      -17.8524890809       34.7945649347  TIP3      3265            0.0000000000
     59626      3665  TIP3      H1             34.9968773129      -17.5506644172       34.3816183883  TIP3      3265            0.0000000000
     59627      3665  TIP3      H2             36.0239270984      -18.6488136031       34.2498744923  TIP3      3265            0.0000000000
     59628      3666  TIP3      OH2            21.6449973981        0.0961071680       33.5145816421  TIP3      3266            0.0000000000
     59629      3666  TIP3      H1             20.9092519227        0.5668270473       33.0880128351  TIP3      3266            0.0000000000
     59630      3666  TIP3      H2             21.2892598701       -0.1276982569       34.3871019971  TIP3      3266            0.0000000000
     59631      3667  TIP3      OH2            24.1162231035       -0.3174298047       32.5670667719  TIP3      3267            0.0000000000
     59632      3667  TIP3      H1             23.2209487028       -0.2046861235       32.9656024074  TIP3      3267            0.0000000000
     59633      3667  TIP3      H2             24.0435435183        0.2609011755       31.7813903935  TIP3      3267            0.0000000000
     59634      3668  TIP3      OH2            28.8142070176       -0.4162918937       31.7347729001  TIP3      3268            0.0000000000
     59635      3668  TIP3      H1             28.3507618024        0.1314248011       31.0821994798  TIP3      3268            0.0000000000
     59636      3668  TIP3      H2             28.9648826922        0.2134887513       32.4701433080  TIP3      3268            0.0000000000
     59637      3669  TIP3      OH2            31.1335272284       -1.5662239088       32.7115648947  TIP3      3269            0.0000000000
     59638      3669  TIP3      H1             30.2397948431       -1.3437541990       32.4058935896  TIP3      3269            0.0000000000
     59639      3669  TIP3      H2             31.5716891455       -0.7008206569       32.6305103233  TIP3      3269            0.0000000000
     59640      3670  TIP3      OH2            33.7196913232        0.0008744251       32.9931556046  TIP3      3270            0.0000000000
     59641      3670  TIP3      H1             33.5863858016        0.9541058358       32.7586957301  TIP3      3270            0.0000000000
     59642      3670  TIP3      H2             33.9129288108       -0.3765298503       32.1155687427  TIP3      3270            0.0000000000
     59643      3671  TIP3      OH2            21.0593579578       -1.2587615679       30.4341223259  TIP3      3271            0.0000000000
     59644      3671  TIP3      H1             21.0214546392       -1.7070670454       31.3061972394  TIP3      3271            0.0000000000
     59645      3671  TIP3      H2             21.8819185104       -1.6083938821       30.0352597111  TIP3      3271            0.0000000000
     59646      3672  TIP3      OH2            23.1728106132       -2.5467766846       29.0855988217  TIP3      3272            0.0000000000
     59647      3672  TIP3      H1             22.9860097928       -3.4815932357       29.2889761236  TIP3      3272            0.0000000000
     59648      3672  TIP3      H2             24.0252719546       -2.4142421638       29.5585635955  TIP3      3272            0.0000000000
     59649      3673  TIP3      OH2            25.7447972505       -2.0694394331       29.9494939382  TIP3      3273            0.0000000000
     59650      3673  TIP3      H1             25.9415841996       -2.9831318165       29.6767879337  TIP3      3273            0.0000000000
     59651      3673  TIP3      H2             25.8062511201       -2.1306224805       30.9119156084  TIP3      3273            0.0000000000
     59652      3674  TIP3      OH2            29.2283574976      -16.4046705234       29.0859216449  TIP3      3274            0.0000000000
     59653      3674  TIP3      H1             28.5632342513      -17.0628069013       29.3604442051  TIP3      3274            0.0000000000
     59654      3674  TIP3      H2             29.7939471171      -16.9315097425       28.5033021869  TIP3      3274            0.0000000000
     59655      3675  TIP3      OH2            34.3727219885      -18.3438431083       29.1994568628  TIP3      3275            0.0000000000
     59656      3675  TIP3      H1             34.9900412432      -17.7657150036       28.6821085348  TIP3      3275            0.0000000000
     59657      3675  TIP3      H2             33.4948457773      -17.9985598820       28.9496846322  TIP3      3275            0.0000000000
     59658      3676  TIP3      OH2            36.0719905174      -17.1587360183       27.5184542728  TIP3      3276            0.0000000000
     59659      3676  TIP3      H1             36.7233919707      -17.6923513555       27.0097528926  TIP3      3276            0.0000000000
     59660      3676  TIP3      H2             36.5092973963      -16.2807591636       27.5539868520  TIP3      3276            0.0000000000
     59661      3677  TIP3      OH2            21.5981889691      -17.7700923477       26.9042150438  TIP3      3277            0.0000000000
     59662      3677  TIP3      H1             20.7892253170      -18.0187986896       26.4234046132  TIP3      3277            0.0000000000
     59663      3677  TIP3      H2             22.0792675210      -18.6179937323       26.9252395505  TIP3      3277            0.0000000000
     59664      3678  TIP3      OH2            26.1145248990      -17.8758594569       26.7249280927  TIP3      3278            0.0000000000
     59665      3678  TIP3      H1             27.0031372504      -17.4803957069       26.6969134627  TIP3      3278            0.0000000000
     59666      3678  TIP3      H2             26.0148130299      -18.0804010316       27.6575452858  TIP3      3278            0.0000000000
     59667      3679  TIP3      OH2            31.7357108102      -17.8312855658       28.3741867696  TIP3      3279            0.0000000000
     59668      3679  TIP3      H1             31.7638709437      -17.7423632116       27.4168763483  TIP3      3279            0.0000000000
     59669      3679  TIP3      H2             31.4093888984      -18.7530269623       28.5009992145  TIP3      3279            0.0000000000
     59670      3680  TIP3      OH2            33.0630574933      -17.8043177048       24.0495556704  TIP3      3280            0.0000000000
     59671      3680  TIP3      H1             32.3339751097      -17.2014619878       23.8525402254  TIP3      3280            0.0000000000
     59672      3680  TIP3      H2             32.6046261575      -18.6601134619       24.2085955693  TIP3      3280            0.0000000000
     59673      3681  TIP3      OH2            20.3054768981       -2.0606576336       23.6291557135  TIP3      3281            0.0000000000
     59674      3681  TIP3      H1             19.6111280497       -2.0816312514       22.9440463196  TIP3      3281            0.0000000000
     59675      3681  TIP3      H2             20.3028188671       -1.1322725985       23.8838947411  TIP3      3281            0.0000000000
     59676      3682  TIP3      OH2            27.2431782829      -15.8117516500       23.5906746419  TIP3      3282            0.0000000000
     59677      3682  TIP3      H1             27.4684108721      -16.4210980066       24.3078620031  TIP3      3282            0.0000000000
     59678      3682  TIP3      H2             27.2649462339      -14.9606724117       24.0726169589  TIP3      3282            0.0000000000
     59679      3683  TIP3      OH2            29.1822597937       -0.8417717291       22.0347676121  TIP3      3283            0.0000000000
     59680      3683  TIP3      H1             30.0471328052       -0.4734641707       21.8238160266  TIP3      3283            0.0000000000
     59681      3683  TIP3      H2             28.9192554406       -1.2746290012       21.1964424834  TIP3      3283            0.0000000000
     59682      3684  TIP3      OH2            35.8724679522       -1.2580179077       24.7276845406  TIP3      3284            0.0000000000
     59683      3684  TIP3      H1             35.6672453116       -2.0293966340       24.1401847021  TIP3      3284            0.0000000000
     59684      3684  TIP3      H2             35.8232704290       -0.5179879584       24.0891594874  TIP3      3284            0.0000000000
     59685      3685  TIP3      OH2            21.4833253993      -17.2182429265       36.4580854523  TIP3      3285            0.0000000000
     59686      3685  TIP3      H1             21.1460436600      -18.0608571240       36.8349831435  TIP3      3285            0.0000000000
     59687      3685  TIP3      H2             22.4304186340      -17.2856957963       36.7236322549  TIP3      3285            0.0000000000
     59688      3686  TIP3      OH2            23.5009475162      -17.8670449895       38.0276809092  TIP3      3286            0.0000000000
     59689      3686  TIP3      H1             24.3882038448      -18.2183882427       37.7828694552  TIP3      3286            0.0000000000
     59690      3686  TIP3      H2             23.1130181472      -18.6777657747       38.4295145227  TIP3      3286            0.0000000000
     59691      3687  TIP3      OH2            31.9004555363      -18.5770228079       38.1644534132  TIP3      3287            0.0000000000
     59692      3687  TIP3      H1             31.9985840913      -19.0375958841       39.0196345982  TIP3      3287            0.0000000000
     59693      3687  TIP3      H2             32.8167458016      -18.5906773999       37.8193854620  TIP3      3287            0.0000000000
     59694      3688  TIP3      OH2            35.1041119900       -2.5358358623       36.8521008410  TIP3      3288            0.0000000000
     59695      3688  TIP3      H1             34.3013758327       -2.6856904124       36.3072982703  TIP3      3288            0.0000000000
     59696      3688  TIP3      H2             35.0040381433       -1.5803813911       37.0484591836  TIP3      3288            0.0000000000
     59697      3689  TIP3      OH2            49.5217852094       -8.6468110064       26.8568589335  TIP3      3289            0.0000000000
     59698      3689  TIP3      H1             49.5651869784       -7.6754167745       26.7462990524  TIP3      3289            0.0000000000
     59699      3689  TIP3      H2             48.8405478807       -8.8969824501       26.2129084302  TIP3      3289            0.0000000000
     59700      3690  TIP3      OH2            48.4148632440       -9.3780607555       30.3068666949  TIP3      3290            0.0000000000
     59701      3690  TIP3      H1             48.3876734811      -10.0364154712       31.0072412507  TIP3      3290            0.0000000000
     59702      3690  TIP3      H2             48.0907079139       -9.8657184624       29.5300636011  TIP3      3290            0.0000000000
     59703      3691  TIP3      OH2            40.7739848772       -9.7431352299       31.8656279131  TIP3      3291            0.0000000000
     59704      3691  TIP3      H1             40.8451171929      -10.3993549679       32.5918626332  TIP3      3291            0.0000000000
     59705      3691  TIP3      H2             41.5051272876       -9.1449927304       32.0752257183  TIP3      3291            0.0000000000
     59706      3692  TIP3      OH2            52.1286648161       -6.4400742944       28.5861482307  TIP3      3292            0.0000000000
     59707      3692  TIP3      H1             51.6924215393       -7.1560085891       29.0606822510  TIP3      3292            0.0000000000
     59708      3692  TIP3      H2             52.1133358912       -5.7224267613       29.2450977084  TIP3      3292            0.0000000000
     59709      3693  TIP3      OH2            41.7009773302       -5.2891843864       30.4034481664  TIP3      3293            0.0000000000
     59710      3693  TIP3      H1             41.3629422238       -6.1305792900       30.0457038728  TIP3      3293            0.0000000000
     59711      3693  TIP3      H2             42.6559924986       -5.4797591719       30.4439077718  TIP3      3293            0.0000000000
     59712      3694  TIP3      OH2            38.3453110856      -11.6858929741       25.8193245483  TIP3      3294            0.0000000000
     59713      3694  TIP3      H1             37.8799851636      -10.8192138219       25.7946601028  TIP3      3294            0.0000000000
     59714      3694  TIP3      H2             37.7620583598      -12.2367842652       25.2842368381  TIP3      3294            0.0000000000
     59715      3695  TIP3      OH2            39.0297351716       -9.4858346749       27.9495411361  TIP3      3295            0.0000000000
     59716      3695  TIP3      H1             39.2767980385      -10.2826902158       28.4513797733  TIP3      3295            0.0000000000
     59717      3695  TIP3      H2             39.7698261677       -9.3948661816       27.3326917915  TIP3      3295            0.0000000000
     59718      3696  TIP3      OH2            49.2242551093       -1.3050612591       28.8136599764  TIP3      3296            0.0000000000
     59719      3696  TIP3      H1             49.8670811481       -2.0081591737       28.5363325043  TIP3      3296            0.0000000000
     59720      3696  TIP3      H2             49.0283738340       -1.5825230324       29.7079556611  TIP3      3296            0.0000000000
     59721      3697  TIP3      OH2            46.7917525803       -6.9613258188       30.7277953918  TIP3      3297            0.0000000000
     59722      3697  TIP3      H1             47.1271190688       -7.6288879978       30.1075916997  TIP3      3297            0.0000000000
     59723      3697  TIP3      H2             47.5641730227       -6.8325000993       31.3047638081  TIP3      3297            0.0000000000
     59724      3698  TIP3      OH2            55.4397686461      -15.3476412616       31.5302030401  TIP3      3298            0.0000000000
     59725      3698  TIP3      H1             55.5473669700      -14.7316253049       32.2903998189  TIP3      3298            0.0000000000
     59726      3698  TIP3      H2             55.9277155176      -14.8896901588       30.8405817532  TIP3      3298            0.0000000000
     59727      3699  TIP3      OH2            49.9459199305      -12.5296224934       31.0696979154  TIP3      3299            0.0000000000
     59728      3699  TIP3      H1             50.1087447915      -13.4898001597       31.0424989935  TIP3      3299            0.0000000000
     59729      3699  TIP3      H2             49.8489585996      -12.3636131085       30.1065915044  TIP3      3299            0.0000000000
     59730      3700  TIP3      OH2            43.0891406298      -14.4524337282       28.3128587896  TIP3      3300            0.0000000000
     59731      3700  TIP3      H1             43.1602933526      -13.5953448301       27.8560671543  TIP3      3300            0.0000000000
     59732      3700  TIP3      H2             42.6571026070      -15.0027772842       27.6301032226  TIP3      3300            0.0000000000
     59733      3701  TIP3      OH2            50.8208399443      -14.3370442343       26.6865722777  TIP3      3301            0.0000000000
     59734      3701  TIP3      H1             51.4890191617      -14.6600389380       27.3361941231  TIP3      3301            0.0000000000
     59735      3701  TIP3      H2             51.3618819723      -13.7953013986       26.0932360512  TIP3      3301            0.0000000000
     59736      3702  TIP3      OH2            39.7050336716      -12.0332113933       29.0553674429  TIP3      3302            0.0000000000
     59737      3702  TIP3      H1             40.3803657430      -12.5967561703       29.4904411113  TIP3      3302            0.0000000000
     59738      3702  TIP3      H2             39.7737942056      -12.3353655511       28.1362033021  TIP3      3302            0.0000000000
     59739      3703  TIP3      OH2            44.8723682947      -10.4799133070       28.3163955050  TIP3      3303            0.0000000000
     59740      3703  TIP3      H1             45.5121590116      -11.0482634337       28.7739317443  TIP3      3303            0.0000000000
     59741      3703  TIP3      H2             44.3139620871      -11.1457484321       27.8636356531  TIP3      3303            0.0000000000
     59742      3704  TIP3      OH2            55.8855224123      -13.8864851796       33.7888495292  TIP3      3304            0.0000000000
     59743      3704  TIP3      H1             55.1964346706      -13.1990527927       33.6836083268  TIP3      3304            0.0000000000
     59744      3704  TIP3      H2             55.8740929266      -14.0467590737       34.7408869863  TIP3      3304            0.0000000000
     59745      3705  TIP3      OH2            41.9447656476      -15.5557734119       32.3507845338  TIP3      3305            0.0000000000
     59746      3705  TIP3      H1             41.6951872473      -14.9764440680       31.6045015811  TIP3      3305            0.0000000000
     59747      3705  TIP3      H2             41.2634606243      -15.3041729345       33.0259299411  TIP3      3305            0.0000000000
     59748      3706  TIP3      OH2            49.2825476021       -6.0499021762       25.9147423538  TIP3      3306            0.0000000000
     59749      3706  TIP3      H1             48.9867048902       -6.3463632406       25.0437802775  TIP3      3306            0.0000000000
     59750      3706  TIP3      H2             48.9633996051       -5.1201763916       25.9469099399  TIP3      3306            0.0000000000
     59751      3707  TIP3      OH2            44.4947876399       -7.8857503723       32.6306670786  TIP3      3307            0.0000000000
     59752      3707  TIP3      H1             43.7619711392       -7.2492590701       32.7806583195  TIP3      3307            0.0000000000
     59753      3707  TIP3      H2             45.1979597833       -7.2928903125       32.3257033569  TIP3      3307            0.0000000000
     59754      3708  TIP3      OH2            52.6227726027      -15.0244305598       28.6630653228  TIP3      3308            0.0000000000
     59755      3708  TIP3      H1             52.3924663095      -15.7842777729       29.2117199947  TIP3      3308            0.0000000000
     59756      3708  TIP3      H2             53.2685579615      -14.5646205464       29.2133275073  TIP3      3308            0.0000000000
     59757      3709  TIP3      OH2            41.5089344301      -13.6605561726       30.3481087861  TIP3      3309            0.0000000000
     59758      3709  TIP3      H1             42.1521311452      -12.9990165990       30.6920517836  TIP3      3309            0.0000000000
     59759      3709  TIP3      H2             42.0483867148      -14.1014297870       29.6507572318  TIP3      3309            0.0000000000
     59760      3710  TIP3      OH2            42.9220664021       -5.9058813156       33.4244979295  TIP3      3310            0.0000000000
     59761      3710  TIP3      H1             42.8874824081       -4.9969151121       33.0677791062  TIP3      3310            0.0000000000
     59762      3710  TIP3      H2             42.0372356378       -5.9721387891       33.8671209798  TIP3      3310            0.0000000000
     59763      3711  TIP3      OH2            38.9920134013       -6.2497223105       24.2217979935  TIP3      3311            0.0000000000
     59764      3711  TIP3      H1             38.7641493401       -5.9841783899       23.3336650803  TIP3      3311            0.0000000000
     59765      3711  TIP3      H2             39.0763567133       -5.3995089922       24.6976894695  TIP3      3311            0.0000000000
     59766      3712  TIP3      OH2            52.6368721778       -4.6170085017       30.9537200484  TIP3      3312            0.0000000000
     59767      3712  TIP3      H1             51.6703015546       -4.5216662722       31.0934066511  TIP3      3312            0.0000000000
     59768      3712  TIP3      H2             52.9152825626       -3.6927886873       30.7894970635  TIP3      3312            0.0000000000
     59769      3713  TIP3      OH2            52.9485186045      -16.3181723512       32.3658663770  TIP3      3313            0.0000000000
     59770      3713  TIP3      H1             52.2177154960      -15.6922815125       32.2871926658  TIP3      3313            0.0000000000
     59771      3713  TIP3      H2             53.6457845297      -15.8981670431       31.8248852595  TIP3      3313            0.0000000000
     59772      3714  TIP3      OH2            45.9488345841      -18.2270971772       29.8240253454  TIP3      3314            0.0000000000
     59773      3714  TIP3      H1             45.7996009157      -19.1816986106       29.7521127468  TIP3      3314            0.0000000000
     59774      3714  TIP3      H2             45.0725468994      -17.8892459040       30.1064682258  TIP3      3314            0.0000000000
     59775      3715  TIP3      OH2            50.8945944176       -2.8277293036       27.5787802926  TIP3      3315            0.0000000000
     59776      3715  TIP3      H1             51.3207148618       -3.5392326355       27.0611953676  TIP3      3315            0.0000000000
     59777      3715  TIP3      H2             51.2572144116       -2.0228174972       27.1541517590  TIP3      3315            0.0000000000
     59778      3716  TIP3      OH2            52.0691915122       -4.8973972396       26.0724444649  TIP3      3316            0.0000000000
     59779      3716  TIP3      H1             51.7985206819       -5.6061230387       25.4629107568  TIP3      3316            0.0000000000
     59780      3716  TIP3      H2             52.1232342901       -5.3783676972       26.9184190524  TIP3      3316            0.0000000000
     59781      3717  TIP3      OH2            53.7775787611       -6.3573745670       34.5618644233  TIP3      3317            0.0000000000
     59782      3717  TIP3      H1             53.8331450363       -6.9358964293       33.7858761755  TIP3      3317            0.0000000000
     59783      3717  TIP3      H2             53.9038421805       -5.4649819229       34.1710757649  TIP3      3317            0.0000000000
     59784      3718  TIP3      OH2            48.2151103914       -9.4089801051       24.3178004226  TIP3      3318            0.0000000000
     59785      3718  TIP3      H1             47.5026709418       -8.8414373853       23.9663762569  TIP3      3318            0.0000000000
     59786      3718  TIP3      H2             48.9172050203       -9.3223055497       23.6513626753  TIP3      3318            0.0000000000
     59787      3719  TIP3      OH2            55.5866383963       -9.9818778548       32.6524367396  TIP3      3319            0.0000000000
     59788      3719  TIP3      H1             54.8871366975       -9.3103155176       32.6288563255  TIP3      3319            0.0000000000
     59789      3719  TIP3      H2             56.0469946691       -9.7966758188       31.7915797159  TIP3      3319            0.0000000000
     59790      3720  TIP3      OH2            51.6224531624       -9.1867978294       25.2567393610  TIP3      3320            0.0000000000
     59791      3720  TIP3      H1             50.8883765523       -8.9506520547       25.8650160374  TIP3      3320            0.0000000000
     59792      3720  TIP3      H2             52.0967265528       -9.8841970730       25.7512712130  TIP3      3320            0.0000000000
     59793      3721  TIP3      OH2            51.5518473446      -11.0327862721       34.3586916255  TIP3      3321            0.0000000000
     59794      3721  TIP3      H1             51.5775079569      -10.2267885226       34.9028411380  TIP3      3321            0.0000000000
     59795      3721  TIP3      H2             50.9276695176      -10.7272860056       33.6584197474  TIP3      3321            0.0000000000
     59796      3722  TIP3      OH2            43.2691010923       -8.5315660979       27.1622722941  TIP3      3322            0.0000000000
     59797      3722  TIP3      H1             42.9392213309       -8.9251219563       26.3213024258  TIP3      3322            0.0000000000
     59798      3722  TIP3      H2             43.8709111390       -9.2333394021       27.5018105558  TIP3      3322            0.0000000000
     59799      3723  TIP3      OH2            44.6060961440       -5.1251500044       29.8432634349  TIP3      3323            0.0000000000
     59800      3723  TIP3      H1             44.5567465693       -5.6965004450       29.0662792496  TIP3      3323            0.0000000000
     59801      3723  TIP3      H2             45.3699477698       -5.5039911495       30.3159690578  TIP3      3323            0.0000000000
     59802      3724  TIP3      OH2            43.6137005160       -9.7931523485       30.8028619296  TIP3      3324            0.0000000000
     59803      3724  TIP3      H1             44.1860716155       -9.6688342364       30.0221218082  TIP3      3324            0.0000000000
     59804      3724  TIP3      H2             43.9656920449       -9.1339170792       31.4335221203  TIP3      3324            0.0000000000
     59805      3725  TIP3      OH2            49.9702242535       -4.2432425573       31.5139071291  TIP3      3325            0.0000000000
     59806      3725  TIP3      H1             49.7055544261       -3.6069726613       32.1811395868  TIP3      3325            0.0000000000
     59807      3725  TIP3      H2             49.7436552044       -5.1026804851       31.9541592243  TIP3      3325            0.0000000000
     59808      3726  TIP3      OH2            44.5378346155       -5.3795129835       35.5145049778  TIP3      3326            0.0000000000
     59809      3726  TIP3      H1             44.1751451894       -4.6039239887       35.9837951042  TIP3      3326            0.0000000000
     59810      3726  TIP3      H2             43.8596423792       -5.5484170698       34.8152696679  TIP3      3326            0.0000000000
     59811      3727  TIP3      OH2            50.4966591298      -10.0326851312       22.9256012147  TIP3      3327            0.0000000000
     59812      3727  TIP3      H1             51.0592910524       -9.8445464429       23.7179330314  TIP3      3327            0.0000000000
     59813      3727  TIP3      H2             50.9189784004       -9.5100089832       22.2394074403  TIP3      3327            0.0000000000
     59814      3728  TIP3      OH2            41.4644745216       -9.2025253026       34.7079264676  TIP3      3328            0.0000000000
     59815      3728  TIP3      H1             41.5083382437       -8.5324214963       35.4212880410  TIP3      3328            0.0000000000
     59816      3728  TIP3      H2             40.5428715664       -9.0905796213       34.4297592394  TIP3      3328            0.0000000000
     59817      3729  TIP3      OH2            48.2321532218       -3.2873418141       26.3888652358  TIP3      3329            0.0000000000
     59818      3729  TIP3      H1             48.6914650102       -2.9740974089       27.1742388208  TIP3      3329            0.0000000000
     59819      3729  TIP3      H2             47.6677844538       -2.5400545276       26.1562836670  TIP3      3329            0.0000000000
     59820      3730  TIP3      OH2            42.7760082886       -3.3145565048       36.2739023396  TIP3      3330            0.0000000000
     59821      3730  TIP3      H1             42.7478167575       -3.4421856627       35.3110710765  TIP3      3330            0.0000000000
     59822      3730  TIP3      H2             41.8378595395       -3.4393278228       36.5234072840  TIP3      3330            0.0000000000
     59823      3731  TIP3      OH2            54.2176656584      -18.2768522107       22.7950722801  TIP3      3331            0.0000000000
     59824      3731  TIP3      H1             53.2870700632      -18.1322964570       23.0693595787  TIP3      3331            0.0000000000
     59825      3731  TIP3      H2             54.4445290847      -17.4376664572       22.3667943237  TIP3      3331            0.0000000000
     59826      3732  TIP3      OH2            42.2509248584       -9.5047021890       24.7373563125  TIP3      3332            0.0000000000
     59827      3732  TIP3      H1             41.9617623553       -8.7088656675       24.2573382628  TIP3      3332            0.0000000000
     59828      3732  TIP3      H2             41.5675543976      -10.1536752781       24.5687692992  TIP3      3332            0.0000000000
     59829      3733  TIP3      OH2            55.3661950634       -3.8708577775       21.2509057317  TIP3      3333            0.0000000000
     59830      3733  TIP3      H1             55.4904812348       -2.9458333657       21.3102782892  TIP3      3333            0.0000000000
     59831      3733  TIP3      H2             56.2589008513       -4.2194647761       21.0635721078  TIP3      3333            0.0000000000
     59832      3734  TIP3      OH2            38.3419511617       -7.0967921854       33.6127411001  TIP3      3334            0.0000000000
     59833      3734  TIP3      H1             37.8609744656       -7.1627450205       32.7675103855  TIP3      3334            0.0000000000
     59834      3734  TIP3      H2             38.3701819303       -8.0367796184       33.8706529818  TIP3      3334            0.0000000000
     59835      3735  TIP3      OH2            38.0930763075       -4.3520670236       30.4492022662  TIP3      3335            0.0000000000
     59836      3735  TIP3      H1             39.0493657445       -4.4756435540       30.4296387049  TIP3      3335            0.0000000000
     59837      3735  TIP3      H2             37.9974818781       -3.5462284241       30.9743075728  TIP3      3335            0.0000000000
     59838      3736  TIP3      OH2            47.2845445835       -4.1071261542       34.9955941338  TIP3      3336            0.0000000000
     59839      3736  TIP3      H1             47.3566113908       -3.2641842381       35.5011809427  TIP3      3336            0.0000000000
     59840      3736  TIP3      H2             46.4075069044       -4.4446849934       35.2557034373  TIP3      3336            0.0000000000
     59841      3737  TIP3      OH2            47.7021367380       -0.3490062960       24.8085688926  TIP3      3337            0.0000000000
     59842      3737  TIP3      H1             47.6131666614       -0.4430751501       23.8412697307  TIP3      3337            0.0000000000
     59843      3737  TIP3      H2             47.7289932142        0.6173466281       24.9328785369  TIP3      3337            0.0000000000
     59844      3738  TIP3      OH2            41.3570353688       -1.5045294578       26.6022476863  TIP3      3338            0.0000000000
     59845      3738  TIP3      H1             41.4981197511       -1.9025362361       27.4858863492  TIP3      3338            0.0000000000
     59846      3738  TIP3      H2             40.5017268851       -1.8955788806       26.3568097001  TIP3      3338            0.0000000000
     59847      3739  TIP3      OH2            50.4593623126       -1.2246856230       24.5418028030  TIP3      3339            0.0000000000
     59848      3739  TIP3      H1             49.5069186740       -1.1488418183       24.7498644941  TIP3      3339            0.0000000000
     59849      3739  TIP3      H2             50.7335078905       -1.9506369133       25.1321632190  TIP3      3339            0.0000000000
     59850      3740  TIP3      OH2            53.4558479524      -12.1677498702       36.6026275028  TIP3      3340            0.0000000000
     59851      3740  TIP3      H1             53.0121566422      -11.7110133808       35.8779462067  TIP3      3340            0.0000000000
     59852      3740  TIP3      H2             53.4890478526      -13.0935860744       36.3022581998  TIP3      3340            0.0000000000
     59853      3741  TIP3      OH2            40.6034720853       -5.7780430556       34.6040623530  TIP3      3341            0.0000000000
     59854      3741  TIP3      H1             40.8244891359       -6.1529482185       35.4810903103  TIP3      3341            0.0000000000
     59855      3741  TIP3      H2             39.7357326674       -6.1755858422       34.3930662096  TIP3      3341            0.0000000000
     59856      3742  TIP3      OH2            43.2501097295      -17.3318870658       30.5824296284  TIP3      3342            0.0000000000
     59857      3742  TIP3      H1             42.3567658955      -17.3918321785       30.1966236576  TIP3      3342            0.0000000000
     59858      3742  TIP3      H2             43.1875438476      -16.4689839542       31.0350765471  TIP3      3342            0.0000000000
     59859      3743  TIP3      OH2            47.7148662418      -17.7194032537       33.7656159211  TIP3      3343            0.0000000000
     59860      3743  TIP3      H1             48.0150572928      -18.2173241200       34.5237504320  TIP3      3343            0.0000000000
     59861      3743  TIP3      H2             46.7636967765      -17.7701196992       34.0506739171  TIP3      3343            0.0000000000
     59862      3744  TIP3      OH2            51.1744326295      -13.8377612148       34.7955498418  TIP3      3344            0.0000000000
     59863      3744  TIP3      H1             50.7009452612      -13.9809050642       35.6390503293  TIP3      3344            0.0000000000
     59864      3744  TIP3      H2             51.0650078246      -12.8958644271       34.5757646725  TIP3      3344            0.0000000000
     59865      3745  TIP3      OH2            43.3525247898      -12.3574581270       31.7440281556  TIP3      3345            0.0000000000
     59866      3745  TIP3      H1             42.6555956523      -12.3780742427       32.4255806592  TIP3      3345            0.0000000000
     59867      3745  TIP3      H2             43.3434020014      -11.4198682466       31.4490191880  TIP3      3345            0.0000000000
     59868      3746  TIP3      OH2            43.3281617179      -12.1580615966       26.6425770078  TIP3      3346            0.0000000000
     59869      3746  TIP3      H1             42.4072662766      -12.4774510148       26.5394246305  TIP3      3346            0.0000000000
     59870      3746  TIP3      H2             43.7466679940      -12.5171883317       25.8361582366  TIP3      3346            0.0000000000
     59871      3747  TIP3      OH2            48.8430539251      -11.7322764844       25.4320261047  TIP3      3347            0.0000000000
     59872      3747  TIP3      H1             48.4448020274      -10.8893357050       25.1159226765  TIP3      3347            0.0000000000
     59873      3747  TIP3      H2             49.5673733152      -11.8650751121       24.8055175238  TIP3      3347            0.0000000000
     59874      3748  TIP3      OH2            47.9445615882      -11.4300021827       36.9427855893  TIP3      3348            0.0000000000
     59875      3748  TIP3      H1             47.3380836969      -12.1145507104       37.3097716160  TIP3      3348            0.0000000000
     59876      3748  TIP3      H2             48.7922910098      -11.5922081280       37.4029122867  TIP3      3348            0.0000000000
     59877      3749  TIP3      OH2            49.8710808998      -12.2488538515       28.2721737634  TIP3      3349            0.0000000000
     59878      3749  TIP3      H1             49.6401840125      -11.6694129944       27.5250003678  TIP3      3349            0.0000000000
     59879      3749  TIP3      H2             50.0181598168      -13.0963324348       27.8041764214  TIP3      3349            0.0000000000
     59880      3750  TIP3      OH2            41.0440565138      -12.0524598147       33.5323787009  TIP3      3350            0.0000000000
     59881      3750  TIP3      H1             41.0445879307      -11.6479461250       34.4182083763  TIP3      3350            0.0000000000
     59882      3750  TIP3      H2             40.5657418542      -12.8803104548       33.6778569661  TIP3      3350            0.0000000000
     59883      3751  TIP3      OH2            37.6599211078      -14.9385032079       27.4401955420  TIP3      3351            0.0000000000
     59884      3751  TIP3      H1             38.3211742498      -14.9623036184       28.1545031088  TIP3      3351            0.0000000000
     59885      3751  TIP3      H2             38.1186872452      -15.3438522097       26.6835630778  TIP3      3351            0.0000000000
     59886      3752  TIP3      OH2            38.9504773697      -14.1993146213       22.8384563049  TIP3      3352            0.0000000000
     59887      3752  TIP3      H1             39.4125876350      -13.5876085867       22.2502670519  TIP3      3352            0.0000000000
     59888      3752  TIP3      H2             38.2325459305      -13.6229513442       23.1775723772  TIP3      3352            0.0000000000
     59889      3753  TIP3      OH2            49.1086771452      -10.6325048542       32.8947525374  TIP3      3353            0.0000000000
     59890      3753  TIP3      H1             49.4570765035      -11.2872421901       32.2573874799  TIP3      3353            0.0000000000
     59891      3753  TIP3      H2             48.6568804207      -11.1710796615       33.5519305008  TIP3      3353            0.0000000000
     59892      3754  TIP3      OH2            45.8972715035      -14.6894910035       27.6886200102  TIP3      3354            0.0000000000
     59893      3754  TIP3      H1             44.9621870685      -14.6538890717       27.9890716591  TIP3      3354            0.0000000000
     59894      3754  TIP3      H2             46.3933832326      -14.7895711737       28.5134634378  TIP3      3354            0.0000000000
     59895      3755  TIP3      OH2            40.7244939657      -13.0823030359       26.5296711255  TIP3      3355            0.0000000000
     59896      3755  TIP3      H1             39.8217149385      -12.9727236623       26.1700556400  TIP3      3355            0.0000000000
     59897      3755  TIP3      H2             41.0096521179      -13.9361241721       26.1681450109  TIP3      3355            0.0000000000
     59898      3756  TIP3      OH2            44.3525053592      -13.0608596462       24.1852292374  TIP3      3356            0.0000000000
     59899      3756  TIP3      H1             45.3092027271      -12.9683870667       24.3547812086  TIP3      3356            0.0000000000
     59900      3756  TIP3      H2             44.1554612270      -12.4014943635       23.5210756575  TIP3      3356            0.0000000000
     59901      3757  TIP3      OH2            50.3035355932      -15.4871087661       30.9560936383  TIP3      3357            0.0000000000
     59902      3757  TIP3      H1             49.6073869971      -15.3382657918       31.6130441601  TIP3      3357            0.0000000000
     59903      3757  TIP3      H2             49.8083575766      -15.6323378794       30.1348324913  TIP3      3357            0.0000000000
     59904      3758  TIP3      OH2            53.5448055281        0.1929002270       37.2590188045  TIP3      3358            0.0000000000
     59905      3758  TIP3      H1             53.7875073063        0.6015301633       36.4029292497  TIP3      3358            0.0000000000
     59906      3758  TIP3      H2             54.2332190665        0.5414331668       37.8369383557  TIP3      3358            0.0000000000
     59907      3759  TIP3      OH2            41.1960606794       -7.3283474722       36.8240365529  TIP3      3359            0.0000000000
     59908      3759  TIP3      H1             41.9084610364       -7.0697425470       37.4312111984  TIP3      3359            0.0000000000
     59909      3759  TIP3      H2             40.4007305245       -7.1620791900       37.3813113203  TIP3      3359            0.0000000000
     59910      3760  TIP3      OH2            47.1958774419      -11.9120186233       29.5803609887  TIP3      3360            0.0000000000
     59911      3760  TIP3      H1             47.7786536602      -12.4585756724       29.0376143997  TIP3      3360            0.0000000000
     59912      3760  TIP3      H2             47.0553516937      -12.4500887704       30.3697645151  TIP3      3360            0.0000000000
     59913      3761  TIP3      OH2            42.2063993198      -15.7687259089       26.0155707886  TIP3      3361            0.0000000000
     59914      3761  TIP3      H1             41.9004650403      -16.6847633637       25.9535126481  TIP3      3361            0.0000000000
     59915      3761  TIP3      H2             42.9894905134      -15.7957202222       25.4378567941  TIP3      3361            0.0000000000
     59916      3762  TIP3      OH2            45.8365350623      -13.5684524694       32.0057983898  TIP3      3362            0.0000000000
     59917      3762  TIP3      H1             44.9966476304      -13.0709153267       32.0892669320  TIP3      3362            0.0000000000
     59918      3762  TIP3      H2             46.3669597244      -13.2253600744       32.7351807940  TIP3      3362            0.0000000000
     59919      3763  TIP3      OH2            46.3950322341       -7.3409578224       23.6747040030  TIP3      3363            0.0000000000
     59920      3763  TIP3      H1             45.6103759497       -7.8307290225       23.3414353452  TIP3      3363            0.0000000000
     59921      3763  TIP3      H2             46.2202530681       -7.2628690665       24.6301233081  TIP3      3363            0.0000000000
     59922      3764  TIP3      OH2            53.5881111521       -8.1861118078       32.4998078515  TIP3      3364            0.0000000000
     59923      3764  TIP3      H1             54.1521865363       -7.6969700188       31.8735370573  TIP3      3364            0.0000000000
     59924      3764  TIP3      H2             52.7210551403       -8.0872210560       32.0153689330  TIP3      3364            0.0000000000
     59925      3765  TIP3      OH2            50.2646284135      -14.5017454987       21.7789747236  TIP3      3365            0.0000000000
     59926      3765  TIP3      H1             49.3162918415      -14.3839986442       21.7715191652  TIP3      3365            0.0000000000
     59927      3765  TIP3      H2             50.5948255954      -13.6767603515       22.2203603459  TIP3      3365            0.0000000000
     59928      3766  TIP3      OH2            47.9023280940       -7.1189556710       34.9196175408  TIP3      3366            0.0000000000
     59929      3766  TIP3      H1             47.5565377877       -7.5089682427       35.7285307482  TIP3      3366            0.0000000000
     59930      3766  TIP3      H2             47.6831721807       -6.1870350309       35.0062868274  TIP3      3366            0.0000000000
     59931      3767  TIP3      OH2            50.9883513227      -12.6481316480       23.5143780570  TIP3      3367            0.0000000000
     59932      3767  TIP3      H1             51.8932777656      -12.7712865347       23.8866923181  TIP3      3367            0.0000000000
     59933      3767  TIP3      H2             51.0581429173      -11.8184745772       23.0190949596  TIP3      3367            0.0000000000
     59934      3768  TIP3      OH2            41.5081962519       -7.9943518213       29.4713374519  TIP3      3368            0.0000000000
     59935      3768  TIP3      H1             42.2362444445       -8.0365385531       28.8218843319  TIP3      3368            0.0000000000
     59936      3768  TIP3      H2             41.5854744466       -8.8448128436       29.9367404443  TIP3      3368            0.0000000000
     59937      3769  TIP3      OH2            48.5428100427       -5.8708114253       22.7375312511  TIP3      3369            0.0000000000
     59938      3769  TIP3      H1             48.1854864849       -5.0347904906       23.0844415741  TIP3      3369            0.0000000000
     59939      3769  TIP3      H2             47.7897328648       -6.4768081674       22.8931159302  TIP3      3369            0.0000000000
     59940      3770  TIP3      OH2            38.5074048167       -9.5512678564       34.7567208121  TIP3      3370            0.0000000000
     59941      3770  TIP3      H1             38.7206332021       -9.9921218969       35.6035579555  TIP3      3370            0.0000000000
     59942      3770  TIP3      H2             37.9003915960      -10.1804172310       34.3306190149  TIP3      3370            0.0000000000
     59943      3771  TIP3      OH2            45.5280078912      -10.0400586958       36.9696953093  TIP3      3371            0.0000000000
     59944      3771  TIP3      H1             45.2154212287      -10.2312112987       36.0734413379  TIP3      3371            0.0000000000
     59945      3771  TIP3      H2             46.4688460318      -10.2672984097       36.9511230947  TIP3      3371            0.0000000000
     59946      3772  TIP3      OH2            50.1768144794       -4.6781484765       34.8593075508  TIP3      3372            0.0000000000
     59947      3772  TIP3      H1             49.2546361305       -4.4837563980       34.6236716687  TIP3      3372            0.0000000000
     59948      3772  TIP3      H2             50.1788638485       -4.3946366114       35.7966005688  TIP3      3372            0.0000000000
     59949      3773  TIP3      OH2            55.8428821658      -12.4307806351       23.2720312716  TIP3      3373            0.0000000000
     59950      3773  TIP3      H1             55.2895224707      -12.8056934777       22.5464750998  TIP3      3373            0.0000000000
     59951      3773  TIP3      H2             55.9381036380      -11.5048409083       22.9865451584  TIP3      3373            0.0000000000
     59952      3774  TIP3      OH2            55.8437480811       -6.7044258951       36.0579494033  TIP3      3374            0.0000000000
     59953      3774  TIP3      H1             54.9759581300       -6.3548439494       35.7197285225  TIP3      3374            0.0000000000
     59954      3774  TIP3      H2             56.4474364294       -6.5746209302       35.3085669490  TIP3      3374            0.0000000000
     59955      3775  TIP3      OH2            54.1658956214       -3.6313243613       23.6910455687  TIP3      3375            0.0000000000
     59956      3775  TIP3      H1             53.8047061680       -4.4729317083       24.0101332802  TIP3      3375            0.0000000000
     59957      3775  TIP3      H2             54.4664061757       -3.8570649093       22.7901550071  TIP3      3375            0.0000000000
     59958      3776  TIP3      OH2            51.3542542197       -8.8261842807       30.7604941937  TIP3      3376            0.0000000000
     59959      3776  TIP3      H1             50.4132543220       -9.0613356131       30.6788667776  TIP3      3376            0.0000000000
     59960      3776  TIP3      H2             51.7830485231       -9.6093471983       30.3643495234  TIP3      3376            0.0000000000
     59961      3777  TIP3      OH2            43.8874879098       -4.5161976117       26.8600135587  TIP3      3377            0.0000000000
     59962      3777  TIP3      H1             44.4017520440       -3.7180992835       26.6574828723  TIP3      3377            0.0000000000
     59963      3777  TIP3      H2             43.0052633047       -4.2741476049       26.5464266803  TIP3      3377            0.0000000000
     59964      3778  TIP3      OH2            45.3254666174       -6.8500019465       26.4146801391  TIP3      3378            0.0000000000
     59965      3778  TIP3      H1             45.0417956442       -5.9176809150       26.4862282123  TIP3      3378            0.0000000000
     59966      3778  TIP3      H2             44.5686888260       -7.3106463580       26.8298046379  TIP3      3378            0.0000000000
     59967      3779  TIP3      OH2            45.7826052903       -2.6805469856       32.7660564419  TIP3      3379            0.0000000000
     59968      3779  TIP3      H1             46.1993169316       -1.8417145770       32.5118654887  TIP3      3379            0.0000000000
     59969      3779  TIP3      H2             46.3675220904       -2.9891832699       33.4834683941  TIP3      3379            0.0000000000
     59970      3780  TIP3      OH2            43.9968597094       -1.8426369782       25.9647973652  TIP3      3380            0.0000000000
     59971      3780  TIP3      H1             43.0282272983       -1.7080865906       26.0423976848  TIP3      3380            0.0000000000
     59972      3780  TIP3      H2             44.3450679063       -0.9991461823       26.3047210833  TIP3      3380            0.0000000000
     59973      3781  TIP3      OH2            49.3377623256       -6.6173207724       32.4350179472  TIP3      3381            0.0000000000
     59974      3781  TIP3      H1             48.9450837297       -6.8359383946       33.3019721430  TIP3      3381            0.0000000000
     59975      3781  TIP3      H2             49.9451471915       -7.3511737342       32.2593489669  TIP3      3381            0.0000000000
     59976      3782  TIP3      OH2            51.5734296683       -5.6221897509       21.5233667775  TIP3      3382            0.0000000000
     59977      3782  TIP3      H1             51.9080695523       -6.0655519825       22.3262553440  TIP3      3382            0.0000000000
     59978      3782  TIP3      H2             50.6204687369       -5.7723772698       21.6046670049  TIP3      3382            0.0000000000
     59979      3783  TIP3      OH2            52.0520569402       -2.0606412146       34.9263449414  TIP3      3383            0.0000000000
     59980      3783  TIP3      H1             51.4126139651       -2.5896209364       34.4153449753  TIP3      3383            0.0000000000
     59981      3783  TIP3      H2             52.3008018862       -1.3714724665       34.2759159879  TIP3      3383            0.0000000000
     59982      3784  TIP3      OH2            55.8078840938       -1.0884154094       22.6512330835  TIP3      3384            0.0000000000
     59983      3784  TIP3      H1             56.6207634171       -0.6844867199       22.1609361827  TIP3      3384            0.0000000000
     59984      3784  TIP3      H2             55.2864924084       -0.5720619429       22.0600047311  TIP3      3384            0.0000000000
     59985      3785  TIP3      OH2            40.1605901102      -14.8112879333       34.3103558827  TIP3      3385            0.0000000000
     59986      3785  TIP3      H1             39.2498350698      -14.4691521617       34.2667892717  TIP3      3385            0.0000000000
     59987      3785  TIP3      H2             40.0465561888      -15.6682100397       34.7508788566  TIP3      3385            0.0000000000
     59988      3786  TIP3      OH2            52.4162296504       -6.9776659256       23.7580059362  TIP3      3386            0.0000000000
     59989      3786  TIP3      H1             52.1602239202       -7.7368588508       24.3107949685  TIP3      3386            0.0000000000
     59990      3786  TIP3      H2             53.3687490791       -6.8969046639       23.9412577923  TIP3      3386            0.0000000000
     59991      3787  TIP3      OH2            39.7955882632       -3.0107417437       32.7393345731  TIP3      3387            0.0000000000
     59992      3787  TIP3      H1             40.0396673674       -3.9507153927       32.7342851356  TIP3      3387            0.0000000000
     59993      3787  TIP3      H2             40.0449879683       -2.7415237044       33.6323870201  TIP3      3387            0.0000000000
     59994      3788  TIP3      OH2            45.7243198057       -4.5335552418       19.9770069604  TIP3      3388            0.0000000000
     59995      3788  TIP3      H1             45.8851393615       -5.3098993105       19.4208445446  TIP3      3388            0.0000000000
     59996      3788  TIP3      H2             45.3672517468       -4.9552297309       20.7899298811  TIP3      3388            0.0000000000
     59997      3789  TIP3      OH2            44.5749828020       -4.9917433050       22.4252648821  TIP3      3389            0.0000000000
     59998      3789  TIP3      H1             44.7528888264       -5.5074426131       23.2163582879  TIP3      3389            0.0000000000
     59999      3789  TIP3      H2             44.5860734706       -4.0626282127       22.7338694861  TIP3      3389            0.0000000000
     60000      3790  TIP3      OH2            48.8640794493      -15.0467455788       33.2802537314  TIP3      3390            0.0000000000
     60001      3790  TIP3      H1             49.6263033667      -14.9845113650       33.8592809074  TIP3      3390            0.0000000000
     60002      3790  TIP3      H2             48.4886072260      -15.9300724308       33.3599035976  TIP3      3390            0.0000000000
     60003      3791  TIP3      OH2            49.6652991893      -15.4516238201       24.3138841199  TIP3      3391            0.0000000000
     60004      3791  TIP3      H1             49.8917417235      -14.9499249280       23.5241587851  TIP3      3391            0.0000000000
     60005      3791  TIP3      H2             50.2212082907      -15.0306034042       24.9879993021  TIP3      3391            0.0000000000
     60006      3792  TIP3      OH2            47.3525436970       -3.2969111606       23.2008581417  TIP3      3392            0.0000000000
     60007      3792  TIP3      H1             46.5153349946       -2.7934871022       23.2329969238  TIP3      3392            0.0000000000
     60008      3792  TIP3      H2             47.8578595514       -2.8065376445       22.5314150347  TIP3      3392            0.0000000000
     60009      3793  TIP3      OH2            46.8550557242      -13.6956435554       25.1432344131  TIP3      3393            0.0000000000
     60010      3793  TIP3      H1             47.6758055021      -13.1683046787       25.1962022760  TIP3      3393            0.0000000000
     60011      3793  TIP3      H2             46.6143538560      -13.8469874633       26.0755558292  TIP3      3393            0.0000000000
     60012      3794  TIP3      OH2            47.3922199708      -12.7408772535       34.3703571327  TIP3      3394            0.0000000000
     60013      3794  TIP3      H1             47.5148408381      -12.0599441329       35.0629762576  TIP3      3394            0.0000000000
     60014      3794  TIP3      H2             48.1016387792      -13.3879795767       34.3810390141  TIP3      3394            0.0000000000
     60015      3795  TIP3      OH2            47.7350766056      -16.6381751569       26.0802103940  TIP3      3395            0.0000000000
     60016      3795  TIP3      H1             47.4017877454      -15.9914521849       26.7249003157  TIP3      3395            0.0000000000
     60017      3795  TIP3      H2             48.4114610292      -16.0996895539       25.6023933848  TIP3      3395            0.0000000000
     60018      3796  TIP3      OH2            44.7024719954       -2.2510420844       23.1720508668  TIP3      3396            0.0000000000
     60019      3796  TIP3      H1             44.8410062028       -1.4398203556       22.6531364388  TIP3      3396            0.0000000000
     60020      3796  TIP3      H2             44.4628290340       -1.9297395030       24.0613604993  TIP3      3396            0.0000000000
     60021      3797  TIP3      OH2            43.3810935092      -15.5537733964       22.8223318066  TIP3      3397            0.0000000000
     60022      3797  TIP3      H1             43.3271693750      -14.6456736681       23.1206314800  TIP3      3397            0.0000000000
     60023      3797  TIP3      H2             44.3010351482      -15.8119995662       22.9902759492  TIP3      3397            0.0000000000
     60024      3798  TIP3      OH2            53.6101419946      -14.8364206758       35.1898714518  TIP3      3398            0.0000000000
     60025      3798  TIP3      H1             52.6896856196      -14.5140117002       35.0682632888  TIP3      3398            0.0000000000
     60026      3798  TIP3      H2             53.9300989725      -14.8090959654       34.2707159274  TIP3      3398            0.0000000000
     60027      3799  TIP3      OH2            52.1880663718      -11.0292769793       29.2531004449  TIP3      3399            0.0000000000
     60028      3799  TIP3      H1             51.3898932652      -11.4778364884       28.9338874350  TIP3      3399            0.0000000000
     60029      3799  TIP3      H2             52.6694082773      -11.7371119661       29.7446084343  TIP3      3399            0.0000000000
     60030      3800  TIP3      OH2            53.2792649057       -1.7983673256       30.8921863780  TIP3      3400            0.0000000000
     60031      3800  TIP3      H1             53.1576218533       -1.1064761817       30.2116186706  TIP3      3400            0.0000000000
     60032      3800  TIP3      H2             54.2393808323       -1.7173817559       31.0700000374  TIP3      3400            0.0000000000
     60033      3801  TIP3      OH2            40.8093599854      -17.6881566973       29.6419776490  TIP3      3401            0.0000000000
     60034      3801  TIP3      H1             40.5471242336      -17.5755995860       28.6929555843  TIP3      3401            0.0000000000
     60035      3801  TIP3      H2             40.2880327994      -18.4262589195       29.9860868580  TIP3      3401            0.0000000000
     60036      3802  TIP3      OH2            39.7238789792       -3.7439997798       25.8026343221  TIP3      3402            0.0000000000
     60037      3802  TIP3      H1             38.8820518251       -3.2642823178       25.8021652489  TIP3      3402            0.0000000000
     60038      3802  TIP3      H2             40.2453690475       -3.2354703348       25.1675046578  TIP3      3402            0.0000000000
     60039      3803  TIP3      OH2            38.9765559902       -1.1045318825       37.1075818672  TIP3      3403            0.0000000000
     60040      3803  TIP3      H1             39.5461430302       -1.3230138216       37.8740090292  TIP3      3403            0.0000000000
     60041      3803  TIP3      H2             38.5227137224       -1.9433759398       36.9311773284  TIP3      3403            0.0000000000
     60042      3804  TIP3      OH2            43.6040646763       -2.1847255563       38.7408100202  TIP3      3404            0.0000000000
     60043      3804  TIP3      H1             44.3781254300       -2.6660337099       39.0648623087  TIP3      3404            0.0000000000
     60044      3804  TIP3      H2             43.5890528846       -2.4397294693       37.7945318967  TIP3      3404            0.0000000000
     60045      3805  TIP3      OH2            47.7689494559       -2.6780089365       20.2908045671  TIP3      3405            0.0000000000
     60046      3805  TIP3      H1             47.0380861738       -3.3277547927       20.4012162493  TIP3      3405            0.0000000000
     60047      3805  TIP3      H2             48.4376873958       -3.2401238462       19.8780306314  TIP3      3405            0.0000000000
     60048      3806  TIP3      OH2            50.1434685428       -3.7983219319       37.4571723810  TIP3      3406            0.0000000000
     60049      3806  TIP3      H1             49.8238620733       -4.6847387936       37.7174647306  TIP3      3406            0.0000000000
     60050      3806  TIP3      H2             50.9052182337       -3.6763888508       38.0572039487  TIP3      3406            0.0000000000
     60051      3807  TIP3      OH2            38.8906013521       -7.3143235860       38.0901484436  TIP3      3407            0.0000000000
     60052      3807  TIP3      H1             39.0471827867       -8.2248648182       37.7762993575  TIP3      3407            0.0000000000
     60053      3807  TIP3      H2             38.1356708228       -7.0316372189       37.5508141467  TIP3      3407            0.0000000000
     60054      3808  TIP3      OH2            45.5715959639       -7.3345973064       37.4940605207  TIP3      3408            0.0000000000
     60055      3808  TIP3      H1             45.2314492351       -7.0481391871       36.6276782603  TIP3      3408            0.0000000000
     60056      3808  TIP3      H2             45.6889400122       -8.2995324390       37.3998880423  TIP3      3408            0.0000000000
     60057      3809  TIP3      OH2            51.2889139278       -7.4615777394       34.8819512300  TIP3      3409            0.0000000000
     60058      3809  TIP3      H1             52.0338068801       -6.8344385031       34.7869951335  TIP3      3409            0.0000000000
     60059      3809  TIP3      H2             50.5489146942       -6.8308433158       34.9346514673  TIP3      3409            0.0000000000
     60060      3810  TIP3      OH2            39.7489278031      -10.0960540295       37.4854476722  TIP3      3410            0.0000000000
     60061      3810  TIP3      H1             40.1628461762      -10.9619625659       37.3819743788  TIP3      3410            0.0000000000
     60062      3810  TIP3      H2             39.5041332233      -10.0917585626       38.4288091064  TIP3      3410            0.0000000000
     60063      3811  TIP3      OH2            44.4122678333       -8.9828133762       22.5429919720  TIP3      3411            0.0000000000
     60064      3811  TIP3      H1             43.9255612138       -9.4846621775       23.2040086076  TIP3      3411            0.0000000000
     60065      3811  TIP3      H2             44.6730926685       -9.6431554825       21.8572439794  TIP3      3411            0.0000000000
     60066      3812  TIP3      OH2            43.6943667726      -11.1236195240       34.8646306913  TIP3      3412            0.0000000000
     60067      3812  TIP3      H1             43.0666275609      -10.4227168117       35.1268571137  TIP3      3412            0.0000000000
     60068      3812  TIP3      H2             44.0364948963      -10.7704840756       34.0253110188  TIP3      3412            0.0000000000
     60069      3813  TIP3      OH2            45.4802856037      -10.7858039863       20.7785129817  TIP3      3413            0.0000000000
     60070      3813  TIP3      H1             45.2633620040      -10.8812495423       19.8370794218  TIP3      3413            0.0000000000
     60071      3813  TIP3      H2             46.4202820140      -10.6053822332       20.8160894128  TIP3      3413            0.0000000000
     60072      3814  TIP3      OH2            48.7254207910       -8.6180538962       38.1678346788  TIP3      3414            0.0000000000
     60073      3814  TIP3      H1             49.6861589314       -8.5495804684       38.0995993708  TIP3      3414            0.0000000000
     60074      3814  TIP3      H2             48.5616236068       -9.3435820504       38.7828998495  TIP3      3414            0.0000000000
     60075      3815  TIP3      OH2            54.5120774272       -8.4457653709       20.3558497675  TIP3      3415            0.0000000000
     60076      3815  TIP3      H1             54.5888761748       -8.7904592302       19.4471868982  TIP3      3415            0.0000000000
     60077      3815  TIP3      H2             54.8661798923       -7.5413986670       20.0678335556  TIP3      3415            0.0000000000
     60078      3816  TIP3      OH2            44.0835178656      -13.7508228025       35.9274409075  TIP3      3416            0.0000000000
     60079      3816  TIP3      H1             44.1554216393      -14.4831852564       35.2956166343  TIP3      3416            0.0000000000
     60080      3816  TIP3      H2             44.0129924043      -12.9541795528       35.3635168330  TIP3      3416            0.0000000000
     60081      3817  TIP3      OH2            44.4770498443      -15.3811410708       33.4630099983  TIP3      3417            0.0000000000
     60082      3817  TIP3      H1             44.9747086532      -14.9185188770       32.7505143665  TIP3      3417            0.0000000000
     60083      3817  TIP3      H2             43.5880973034      -15.4803743499       33.0299918959  TIP3      3417            0.0000000000
     60084      3818  TIP3      OH2            46.0306704502       -9.9333816857       33.6980865611  TIP3      3418            0.0000000000
     60085      3818  TIP3      H1             46.7727420190      -10.0749617175       33.1016943308  TIP3      3418            0.0000000000
     60086      3818  TIP3      H2             45.6731669026       -9.0787859093       33.3884902758  TIP3      3418            0.0000000000
     60087      3819  TIP3      OH2            50.4109236988      -12.1377422758       38.6589874565  TIP3      3419            0.0000000000
     60088      3819  TIP3      H1             50.6553372397      -13.0692466502       38.6104863900  TIP3      3419            0.0000000000
     60089      3819  TIP3      H2             51.2888053808      -11.7037214218       38.6942587155  TIP3      3419            0.0000000000
     60090      3820  TIP3      OH2            51.7502686712       -9.3578557673       36.8090664065  TIP3      3420            0.0000000000
     60091      3820  TIP3      H1             51.4796414864       -8.6245523235       36.2071090447  TIP3      3420            0.0000000000
     60092      3820  TIP3      H2             52.7057914133       -9.3964240382       36.6268124292  TIP3      3420            0.0000000000
     60093      3821  TIP3      OH2            42.5290248546      -12.5290110687       37.8629536240  TIP3      3421            0.0000000000
     60094      3821  TIP3      H1             41.7518751149      -13.0862491327       37.6422278777  TIP3      3421            0.0000000000
     60095      3821  TIP3      H2             43.1826474082      -12.8702241467       37.2277325929  TIP3      3421            0.0000000000
     60096      3822  TIP3      OH2            45.2338247598      -17.9420814131       33.8913579707  TIP3      3422            0.0000000000
     60097      3822  TIP3      H1             45.1029436075      -16.9777178900       33.7438122725  TIP3      3422            0.0000000000
     60098      3822  TIP3      H2             44.4866030645      -18.2954900802       33.3770121054  TIP3      3422            0.0000000000
     60099      3823  TIP3      OH2            46.1978718096      -13.4711278012       37.6365861439  TIP3      3423            0.0000000000
     60100      3823  TIP3      H1             46.1388295177      -13.9303242518       38.4989452154  TIP3      3423            0.0000000000
     60101      3823  TIP3      H2             45.5755013028      -13.8715803331       36.9669440604  TIP3      3423            0.0000000000
     60102      3824  TIP3      OH2            49.3545248805      -14.6549545897       36.4748890736  TIP3      3424            0.0000000000
     60103      3824  TIP3      H1             48.4199354280      -14.6081597298       36.6716096901  TIP3      3424            0.0000000000
     60104      3824  TIP3      H2             49.6160316068      -15.1451427533       37.2639120673  TIP3      3424            0.0000000000
     60105      3825  TIP3      OH2            50.8118587313      -15.8425535475       38.4640439123  TIP3      3425            0.0000000000
     60106      3825  TIP3      H1             50.7869325174      -16.8163217734       38.5174579636  TIP3      3425            0.0000000000
     60107      3825  TIP3      H2             50.5697014172      -15.5652765258       39.3871036659  TIP3      3425            0.0000000000
     60108      3826  TIP3      OH2            40.6593685398      -14.5994187712       37.5629277021  TIP3      3426            0.0000000000
     60109      3826  TIP3      H1             40.8902159440      -15.3322380633       36.9601757237  TIP3      3426            0.0000000000
     60110      3826  TIP3      H2             40.5712024852      -15.0519449254       38.4249145799  TIP3      3426            0.0000000000
     60111      3827  TIP3      OH2            45.5057874849      -18.5619747392       36.5492132941  TIP3      3427            0.0000000000
     60112      3827  TIP3      H1             46.1655296294      -19.2866757976       36.5294192632  TIP3      3427            0.0000000000
     60113      3827  TIP3      H2             45.3498561442      -18.3973484761       35.6016107820  TIP3      3427            0.0000000000
     60114      3828  TIP3      OH2            45.8628777564      -16.9239945055       38.6007130949  TIP3      3428            0.0000000000
     60115      3828  TIP3      H1             45.6634319511      -17.4526028178       37.7886408328  TIP3      3428            0.0000000000
     60116      3828  TIP3      H2             45.2143198913      -16.1953491370       38.5504735140  TIP3      3428            0.0000000000
     60117      3829  TIP3      OH2            37.6173809319       -0.0381201698       26.3060294250  TIP3      3429            0.0000000000
     60118      3829  TIP3      H1             36.9354492073       -0.5236946271       25.7928226469  TIP3      3429            0.0000000000
     60119      3829  TIP3      H2             37.9351889342       -0.7163354048       26.9246205733  TIP3      3429            0.0000000000
     60120      3830  TIP3      OH2            38.4645553866       -1.9428169847       28.1278436376  TIP3      3430            0.0000000000
     60121      3830  TIP3      H1             38.1206856995       -2.8273690191       28.3210892693  TIP3      3430            0.0000000000
     60122      3830  TIP3      H2             38.6872441276       -1.6075803485       29.0147629798  TIP3      3430            0.0000000000
     60123      3831  TIP3      OH2            55.9665168882       -1.1450855018       31.1115256125  TIP3      3431            0.0000000000
     60124      3831  TIP3      H1             55.9974095801       -0.9597856480       32.0617256870  TIP3      3431            0.0000000000
     60125      3831  TIP3      H2             56.6963842117       -0.5899867713       30.7820120777  TIP3      3431            0.0000000000
     60126      3832  TIP3      OH2            55.5910246034       -1.5525904761       34.0260246926  TIP3      3432            0.0000000000
     60127      3832  TIP3      H1             55.0837633045       -2.3149118516       33.6581229282  TIP3      3432            0.0000000000
     60128      3832  TIP3      H2             56.1093212015       -1.9722555149       34.7228689811  TIP3      3432            0.0000000000
     60129      3833  TIP3      OH2            54.0243073294       -5.8208226648       38.6630920892  TIP3      3433            0.0000000000
     60130      3833  TIP3      H1             53.1392110765       -5.8675228888       39.0752824386  TIP3      3433            0.0000000000
     60131      3833  TIP3      H2             54.3976337052       -5.0198258869       39.1158468327  TIP3      3433            0.0000000000
     60132      3834  TIP3      OH2            55.2868326337       -7.4970291163       24.1814791845  TIP3      3434            0.0000000000
     60133      3834  TIP3      H1             56.1673889472       -7.1006641050       24.3318682359  TIP3      3434            0.0000000000
     60134      3834  TIP3      H2             55.3249103230       -8.2551262401       24.8037134896  TIP3      3434            0.0000000000
     60135      3835  TIP3      OH2            55.7112212660       -9.4384926896       26.0051401270  TIP3      3435            0.0000000000
     60136      3835  TIP3      H1             54.9590086165       -9.9275147129       26.4137195274  TIP3      3435            0.0000000000
     60137      3835  TIP3      H2             56.2997610497       -9.2532697971       26.7732563663  TIP3      3435            0.0000000000
     60138      3836  TIP3      OH2            55.4778498048       -6.7191318154       31.0214957354  TIP3      3436            0.0000000000
     60139      3836  TIP3      H1             56.3081013009       -7.0761542946       30.6470867412  TIP3      3436            0.0000000000
     60140      3836  TIP3      H2             55.5873683786       -5.7530692337       30.8202637988  TIP3      3436            0.0000000000
     60141      3837  TIP3      OH2            53.9817615941       -3.8504184599       33.2824654446  TIP3      3437            0.0000000000
     60142      3837  TIP3      H1             53.3118465318       -3.4717146448       33.8794858460  TIP3      3437            0.0000000000
     60143      3837  TIP3      H2             53.4295860014       -4.2372173357       32.5733270363  TIP3      3437            0.0000000000
     60144      3838  TIP3      OH2            55.6418059418       -9.5500081908       22.7287128676  TIP3      3438            0.0000000000
     60145      3838  TIP3      H1             55.3774398311       -9.1804745828       21.8377608644  TIP3      3438            0.0000000000
     60146      3838  TIP3      H2             55.9440094194       -8.7380887749       23.1663259086  TIP3      3438            0.0000000000
     60147      3839  TIP3      OH2            54.3448216188      -12.3341521907       20.9430176790  TIP3      3439            0.0000000000
     60148      3839  TIP3      H1             54.4082160664      -11.6786140093       20.2532485499  TIP3      3439            0.0000000000
     60149      3839  TIP3      H2             54.2152319505      -13.1668740921       20.4707913499  TIP3      3439            0.0000000000
     60150      3840  TIP3      OH2            53.5341115707      -10.9564524885       26.5737671862  TIP3      3440            0.0000000000
     60151      3840  TIP3      H1             53.3383911201      -11.9027448265       26.5539457108  TIP3      3440            0.0000000000
     60152      3840  TIP3      H2             53.1506627436      -10.6843479732       27.4305664293  TIP3      3440            0.0000000000
     60153      3841  TIP3      OH2            38.5235776048       -8.8648603506       30.6142549163  TIP3      3441            0.0000000000
     60154      3841  TIP3      H1             38.7223730203       -8.9503940971       29.6558977191  TIP3      3441            0.0000000000
     60155      3841  TIP3      H2             39.4084643606       -9.0137031154       31.0003745149  TIP3      3441            0.0000000000
     60156      3842  TIP3      OH2            54.3720226881       -8.9801597694       36.1936853051  TIP3      3442            0.0000000000
     60157      3842  TIP3      H1             54.9467678215       -9.7402562493       36.4479277838  TIP3      3442            0.0000000000
     60158      3842  TIP3      H2             54.9234263543       -8.1805245711       36.3230281118  TIP3      3442            0.0000000000
     60159      3843  TIP3      OH2            55.8519157319      -11.0561189554       36.8622580243  TIP3      3443            0.0000000000
     60160      3843  TIP3      H1             54.9804845249      -11.4904282195       36.7479679926  TIP3      3443            0.0000000000
     60161      3843  TIP3      H2             56.4423489081      -11.8446855050       36.8389759340  TIP3      3443            0.0000000000
     60162      3844  TIP3      OH2            53.2111869847      -13.3560066207       25.0576215537  TIP3      3444            0.0000000000
     60163      3844  TIP3      H1             53.4876268564      -14.2962854919       25.1482910457  TIP3      3444            0.0000000000
     60164      3844  TIP3      H2             53.9729297723      -12.9446582905       24.6363065440  TIP3      3444            0.0000000000
     60165      3845  TIP3      OH2            53.7772551898      -12.8167966583       30.4547364651  TIP3      3445            0.0000000000
     60166      3845  TIP3      H1             54.7448429462      -12.5898100939       30.4591879351  TIP3      3445            0.0000000000
     60167      3845  TIP3      H2             53.5947685293      -12.6892713140       31.3988748948  TIP3      3445            0.0000000000
     60168      3846  TIP3      OH2            53.8764569366      -12.0714068140       33.2638375273  TIP3      3446            0.0000000000
     60169      3846  TIP3      H1             52.9965605294      -11.7873832469       33.5955409465  TIP3      3446            0.0000000000
     60170      3846  TIP3      H2             54.3055629752      -11.2293881834       33.0274350582  TIP3      3446            0.0000000000
     60171      3847  TIP3      OH2            38.1335503402      -13.5754664424       36.7486543151  TIP3      3447            0.0000000000
     60172      3847  TIP3      H1             39.0702962538      -13.7459924788       36.9696121384  TIP3      3447            0.0000000000
     60173      3847  TIP3      H2             37.6863871220      -14.3749882767       37.1035692822  TIP3      3447            0.0000000000
     60174      3848  TIP3      OH2            53.8356785587      -16.0738678664       25.0780311518  TIP3      3448            0.0000000000
     60175      3848  TIP3      H1             54.0120278942      -16.5493480522       25.9105799652  TIP3      3448            0.0000000000
     60176      3848  TIP3      H2             53.2252265977      -16.7017568787       24.6263525820  TIP3      3448            0.0000000000
     60177      3849  TIP3      OH2            39.3488933500      -15.2888166119       29.6162097129  TIP3      3449            0.0000000000
     60178      3849  TIP3      H1             39.8081676698      -16.0828715825       29.9261975894  TIP3      3449            0.0000000000
     60179      3849  TIP3      H2             39.8420601186      -14.5694894092       30.0431906607  TIP3      3449            0.0000000000
     60180      3850  TIP3      OH2            37.6333582328      -12.2918853444       30.6890002329  TIP3      3450            0.0000000000
     60181      3850  TIP3      H1             38.1758985732      -12.5105396420       29.9019520044  TIP3      3450            0.0000000000
     60182      3850  TIP3      H2             38.0519587198      -11.4584318991       30.9558185499  TIP3      3450            0.0000000000
     60183      3851  TIP3      OH2            55.6769082680      -16.0244886112       37.0000639177  TIP3      3451            0.0000000000
     60184      3851  TIP3      H1             54.7483147289      -15.6754360012       36.9151673717  TIP3      3451            0.0000000000
     60185      3851  TIP3      H2             55.7404298730      -16.4725334439       36.1410168507  TIP3      3451            0.0000000000
     60186      3852  TIP3      OH2            37.9846755490      -16.0107975335       24.7526349640  TIP3      3452            0.0000000000
     60187      3852  TIP3      H1             37.0427109232      -15.8233589562       24.6137314368  TIP3      3452            0.0000000000
     60188      3852  TIP3      H2             38.4236754296      -15.5355054552       24.0313170646  TIP3      3452            0.0000000000
     60189      3853  TIP3      OH2            52.7279571929       -1.0521840346       26.6973636093  TIP3      3453            0.0000000000
     60190      3853  TIP3      H1             53.3997059751       -1.3900908503       26.0817649491  TIP3      3453            0.0000000000
     60191      3853  TIP3      H2             53.2657647222       -0.5628499981       27.3374689258  TIP3      3453            0.0000000000
     60192      3854  TIP3      OH2            37.9502913397      -17.3262446771       33.0591202466  TIP3      3454            0.0000000000
     60193      3854  TIP3      H1             37.2727712409      -17.5420750155       33.7271857733  TIP3      3454            0.0000000000
     60194      3854  TIP3      H2             37.4813429511      -16.6633176315       32.5076112316  TIP3      3454            0.0000000000
     60195      3855  TIP3      OH2            40.1546896402       -4.1341879879       37.2260406767  TIP3      3455            0.0000000000
     60196      3855  TIP3      H1             39.3137747780       -3.9397299873       36.7796292390  TIP3      3455            0.0000000000
     60197      3855  TIP3      H2             39.8847009898       -4.1989207786       38.1503753167  TIP3      3455            0.0000000000
     60198      3856  TIP3      OH2            43.0739084256       -3.1590948362       33.4933538399  TIP3      3456            0.0000000000
     60199      3856  TIP3      H1             42.6943371735       -2.3171638386       33.2062130455  TIP3      3456            0.0000000000
     60200      3856  TIP3      H2             43.9979852129       -3.0542373577       33.1812356233  TIP3      3456            0.0000000000
     60201      3857  TIP3      OH2            47.3892313488       -1.7356961439       36.4189092158  TIP3      3457            0.0000000000
     60202      3857  TIP3      H1             47.5685400681       -2.0811715331       37.3306264761  TIP3      3457            0.0000000000
     60203      3857  TIP3      H2             48.2734310903       -1.4325477186       36.1398616527  TIP3      3457            0.0000000000
     60204      3858  TIP3      OH2            49.7067815434       -0.4626386733       35.6880104907  TIP3      3458            0.0000000000
     60205      3858  TIP3      H1             50.4257289595       -1.0772296505       35.4601914914  TIP3      3458            0.0000000000
     60206      3858  TIP3      H2             50.0705240492       -0.0484320854       36.5018902338  TIP3      3458            0.0000000000
     60207      3859  TIP3      OH2            54.6566417473      -17.8646857378       34.8327595281  TIP3      3459            0.0000000000
     60208      3859  TIP3      H1             53.8569931951      -17.5459959863       34.3762357640  TIP3      3459            0.0000000000
     60209      3859  TIP3      H2             54.8724420533      -18.6417472978       34.2557409601  TIP3      3459            0.0000000000
     60210      3860  TIP3      OH2            40.4997224419        0.0989432979       33.5149590812  TIP3      3460            0.0000000000
     60211      3860  TIP3      H1             39.7644243393        0.5672724713       33.0877674469  TIP3      3460            0.0000000000
     60212      3860  TIP3      H2             40.1450385066       -0.1276007876       34.3871208418  TIP3      3460            0.0000000000
     60213      3861  TIP3      OH2            42.9721415598       -0.3174236690       32.5670949784  TIP3      3461            0.0000000000
     60214      3861  TIP3      H1             42.0769443335       -0.2046497344       32.9656030125  TIP3      3461            0.0000000000
     60215      3861  TIP3      H2             42.8995503464        0.2609069025       31.7813944856  TIP3      3461            0.0000000000
     60216      3862  TIP3      OH2            47.6700669027       -0.4163639300       31.7347816147  TIP3      3462            0.0000000000
     60217      3862  TIP3      H1             47.2068271707        0.1314945582       31.0822112534  TIP3      3462            0.0000000000
     60218      3862  TIP3      H2             47.8209435375        0.2135136439       32.4701024919  TIP3      3462            0.0000000000
     60219      3863  TIP3      OH2            49.9890552074       -1.5667735895       32.7111732428  TIP3      3463            0.0000000000
     60220      3863  TIP3      H1             49.0954542844       -1.3441334020       32.4059836019  TIP3      3463            0.0000000000
     60221      3863  TIP3      H2             50.4246148473       -0.7011877730       32.6297756586  TIP3      3463            0.0000000000
     60222      3864  TIP3      OH2            52.5817572403        0.0060132408       32.9918722256  TIP3      3464            0.0000000000
     60223      3864  TIP3      H1             52.4381205997        0.9555743217       32.7560935524  TIP3      3464            0.0000000000
     60224      3864  TIP3      H2             52.7674907918       -0.3807145226       32.1165891782  TIP3      3464            0.0000000000
     60225      3865  TIP3      OH2            39.9152825000       -1.2588222352       30.4339814165  TIP3      3465            0.0000000000
     60226      3865  TIP3      H1             39.8777385549       -1.7069235082       31.3061034287  TIP3      3465            0.0000000000
     60227      3865  TIP3      H2             40.7379501232       -1.6084208626       30.0352772669  TIP3      3465            0.0000000000
     60228      3866  TIP3      OH2            42.0287435614       -2.5467289022       29.0856742563  TIP3      3466            0.0000000000
     60229      3866  TIP3      H1             41.8420339377       -3.4816035784       29.2889255379  TIP3      3466            0.0000000000
     60230      3866  TIP3      H2             42.8812828411       -2.4142530187       29.5585043977  TIP3      3466            0.0000000000
     60231      3867  TIP3      OH2            44.6008978126       -2.0691829941       29.9495823366  TIP3      3467            0.0000000000
     60232      3867  TIP3      H1             44.7973516362       -2.9834342630       29.6767759729  TIP3      3467            0.0000000000
     60233      3867  TIP3      H2             44.6622617948       -2.1306232152       30.9119319505  TIP3      3467            0.0000000000
     60234      3868  TIP3      OH2            48.0990711834      -16.4220805974       29.1055070486  TIP3      3468            0.0000000000
     60235      3868  TIP3      H1             47.4040378702      -17.0514252926       29.3472139972  TIP3      3468            0.0000000000
     60236      3868  TIP3      H2             48.6473926887      -16.9187686522       28.4887677429  TIP3      3468            0.0000000000
     60237      3869  TIP3      OH2            53.2241525356      -18.3520321107       29.2039750413  TIP3      3469            0.0000000000
     60238      3869  TIP3      H1             53.8363116243      -17.7703846331       28.6855916799  TIP3      3469            0.0000000000
     60239      3869  TIP3      H2             52.3566522135      -17.9924271942       28.9507339943  TIP3      3469            0.0000000000
     60240      3870  TIP3      OH2            54.9011211074      -17.1426662834       27.5109905589  TIP3      3470            0.0000000000
     60241      3870  TIP3      H1             55.5605729512      -17.6973458462       27.0207387839  TIP3      3470            0.0000000000
     60242      3870  TIP3      H2             55.3524473582      -16.2816073436       27.5731875200  TIP3      3470            0.0000000000
     60243      3871  TIP3      OH2            40.4161559933      -17.8088299245       26.9857560937  TIP3      3471            0.0000000000
     60244      3871  TIP3      H1             39.6487657741      -17.9990412719       26.3987784123  TIP3      3471            0.0000000000
     60245      3871  TIP3      H2             40.9500287016      -18.6046770454       26.8517558884  TIP3      3471            0.0000000000
     60246      3872  TIP3      OH2            39.2613685184      -17.9985434302       22.7600473093  TIP3      3472            0.0000000000
     60247      3872  TIP3      H1             39.7025586663      -17.4045512468       22.1228933579  TIP3      3472            0.0000000000
     60248      3872  TIP3      H2             38.6193238938      -17.4490447209       23.2108306818  TIP3      3472            0.0000000000
     60249      3873  TIP3      OH2            44.9582944257      -17.8694121040       26.7273359601  TIP3      3473            0.0000000000
     60250      3873  TIP3      H1             45.8566985882      -17.4810268472       26.6799202516  TIP3      3473            0.0000000000
     60251      3873  TIP3      H2             44.8824341115      -18.0698325778       27.6541935954  TIP3      3473            0.0000000000
     60252      3874  TIP3      OH2            50.5926263725      -17.8359351594       28.3773874693  TIP3      3474            0.0000000000
     60253      3874  TIP3      H1             50.6343634892      -17.7384576096       27.4160409907  TIP3      3474            0.0000000000
     60254      3874  TIP3      H2             50.2697785878      -18.7517165938       28.4834541046  TIP3      3474            0.0000000000
     60255      3875  TIP3      OH2            51.9193830514      -17.8079393318       24.0325889951  TIP3      3475            0.0000000000
     60256      3875  TIP3      H1             51.2002207728      -17.1876780973       23.8732879031  TIP3      3475            0.0000000000
     60257      3875  TIP3      H2             51.4596452916      -18.6577864621       24.2335424838  TIP3      3475            0.0000000000
     60258      3876  TIP3      OH2            39.1434722994       -2.0631294431       23.6424220691  TIP3      3476            0.0000000000
     60259      3876  TIP3      H1             38.4649645508       -2.0595980443       22.9418476665  TIP3      3476            0.0000000000
     60260      3876  TIP3      H2             39.1592648039       -1.1181671115       23.8742446579  TIP3      3476            0.0000000000
     60261      3877  TIP3      OH2            46.1190482027      -15.8183443257       23.5830600749  TIP3      3477            0.0000000000
     60262      3877  TIP3      H1             46.3218326783      -16.4226089945       24.3108721628  TIP3      3477            0.0000000000
     60263      3877  TIP3      H2             46.1116281796      -14.9651019028       24.0672993828  TIP3      3477            0.0000000000
     60264      3878  TIP3      OH2            48.0363281390       -0.8333158602       22.0376834967  TIP3      3478            0.0000000000
     60265      3878  TIP3      H1             48.8829252925       -0.4587711896       21.8177958321  TIP3      3478            0.0000000000
     60266      3878  TIP3      H2             47.7660286315       -1.2673152186       21.1839018872  TIP3      3478            0.0000000000
     60267      3879  TIP3      OH2            54.5929774624       -1.2616354868       24.7580186231  TIP3      3479            0.0000000000
     60268      3879  TIP3      H1             54.5451841421       -2.0418528410       24.1474814322  TIP3      3479            0.0000000000
     60269      3879  TIP3      H2             54.7109229500       -0.5400033683       24.1129778053  TIP3      3479            0.0000000000
     60270      3880  TIP3      OH2            40.3514714115      -17.2567901462       36.4076030655  TIP3      3480            0.0000000000
     60271      3880  TIP3      H1             39.9949123863      -18.0470236908       36.8581671622  TIP3      3480            0.0000000000
     60272      3880  TIP3      H2             41.2811284090      -17.2672275182       36.7454593504  TIP3      3480            0.0000000000
     60273      3881  TIP3      OH2            42.3515378169      -17.8873442577       37.9954609185  TIP3      3481            0.0000000000
     60274      3881  TIP3      H1             43.2487570206      -18.2138455192       37.7883555008  TIP3      3481            0.0000000000
     60275      3881  TIP3      H2             41.9696165659      -18.6746624437       38.4389597294  TIP3      3481            0.0000000000
     60276      3882  TIP3      OH2            50.7442732182      -18.5767867804       38.1470273177  TIP3      3482            0.0000000000
     60277      3882  TIP3      H1             50.8506938629      -19.0340469207       39.0151006679  TIP3      3482            0.0000000000
     60278      3882  TIP3      H2             51.6682979624      -18.5994139270       37.8305118732  TIP3      3482            0.0000000000
     60279      3883  TIP3      OH2            53.9696119133       -2.5276595606       36.8438690491  TIP3      3483            0.0000000000
     60280      3883  TIP3      H1             53.1656374203       -2.6926928856       36.3087410707  TIP3      3483            0.0000000000
     60281      3883  TIP3      H2             53.8578783218       -1.5793883914       37.0491524344  TIP3      3483            0.0000000000
     60282      3884  TIP3      OH2           -44.7782383569       10.2053851384       26.8587068696  TIP3      3484            0.0000000000
     60283      3884  TIP3      H1            -44.7045160623       11.1787600910       26.7474364891  TIP3      3484            0.0000000000
     60284      3884  TIP3      H2            -45.4278450141        9.9556733262       26.1998218437  TIP3      3484            0.0000000000
     60285      3885  TIP3      OH2           -45.8784247291        9.4824879905       30.3029574693  TIP3      3485            0.0000000000
     60286      3885  TIP3      H1            -45.8860361985        8.8226722510       31.0096067489  TIP3      3485            0.0000000000
     60287      3885  TIP3      H2            -46.1765255119        8.9863814601       29.5317494524  TIP3      3485            0.0000000000
     60288      3886  TIP3      OH2           -53.5022478756        9.1116830977       31.8567171292  TIP3      3486            0.0000000000
     60289      3886  TIP3      H1            -53.4338430112        8.4600268355       32.5905622759  TIP3      3486            0.0000000000
     60290      3886  TIP3      H2            -52.7764034239        9.7113977788       32.0745194903  TIP3      3486            0.0000000000
     60291      3887  TIP3      OH2           -42.1584999671       12.4105325288       28.5833447026  TIP3      3487            0.0000000000
     60292      3887  TIP3      H1            -42.5954796085       11.6965968916       29.0601299132  TIP3      3487            0.0000000000
     60293      3887  TIP3      H2            -42.1627722955       13.1305885059       29.2433481235  TIP3      3487            0.0000000000
     60294      3888  TIP3      OH2           -52.5758772899       13.5767302341       30.3939481248  TIP3      3488            0.0000000000
     60295      3888  TIP3      H1            -52.9289084017       12.7318838106       30.0577545411  TIP3      3488            0.0000000000
     60296      3888  TIP3      H2            -51.6283233917       13.3770815302       30.4515528273  TIP3      3488            0.0000000000
     60297      3889  TIP3      OH2           -55.9298285689        7.1410647649       25.8179937961  TIP3      3489            0.0000000000
     60298      3889  TIP3      H1            -56.3673601734        8.0282807211       25.7857098087  TIP3      3489            0.0000000000
     60299      3889  TIP3      H2            -56.5182996394        6.6069623881       25.2788510678  TIP3      3489            0.0000000000
     60300      3890  TIP3      OH2           -55.2457723838        9.3714118972       27.9596635933  TIP3      3490            0.0000000000
     60301      3890  TIP3      H1            -55.0080627962        8.5674885636       28.4553082756  TIP3      3490            0.0000000000
     60302      3890  TIP3      H2            -54.5164271739        9.4555782018       27.3337735584  TIP3      3490            0.0000000000
     60303      3891  TIP3      OH2           -44.9502294409       17.5407959443       28.8859092880  TIP3      3491            0.0000000000
     60304      3891  TIP3      H1            -44.3569738688       16.8006987325       28.5585799088  TIP3      3491            0.0000000000
     60305      3891  TIP3      H2            -45.2102564666       17.2339155714       29.7620020337  TIP3      3491            0.0000000000
     60306      3892  TIP3      OH2           -47.4921579025       11.8934739292       30.7181890050  TIP3      3492            0.0000000000
     60307      3892  TIP3      H1            -47.1418132604       11.2245328658       30.1169046659  TIP3      3492            0.0000000000
     60308      3892  TIP3      H2            -46.7224901970       12.0256026797       31.3078325234  TIP3      3492            0.0000000000
     60309      3893  TIP3      OH2           -38.8462651247        3.5034923319       31.5340711764  TIP3      3493            0.0000000000
     60310      3893  TIP3      H1            -38.7317477930        4.1239464794       32.2861010134  TIP3      3493            0.0000000000
     60311      3893  TIP3      H2            -38.3528481881        3.9640847146       30.8386841938  TIP3      3493            0.0000000000
     60312      3894  TIP3      OH2           -44.3424141591        6.3240360426       31.0613621973  TIP3      3494            0.0000000000
     60313      3894  TIP3      H1            -44.1681558542        5.3623501623       31.0565242217  TIP3      3494            0.0000000000
     60314      3894  TIP3      H2            -44.4220415402        6.4927009687       30.1009333044  TIP3      3494            0.0000000000
     60315      3895  TIP3      OH2           -51.2371058539        4.4131015793       28.2713366059  TIP3      3495            0.0000000000
     60316      3895  TIP3      H1            -51.1606132441        5.2696898083       27.8046085148  TIP3      3495            0.0000000000
     60317      3895  TIP3      H2            -51.6595140506        3.8358337766       27.5868862084  TIP3      3495            0.0000000000
     60318      3896  TIP3      OH2           -43.4684877825        4.5192961350       26.6725297593  TIP3      3496            0.0000000000
     60319      3896  TIP3      H1            -42.8044534515        4.1997508667       27.3368948135  TIP3      3496            0.0000000000
     60320      3896  TIP3      H2            -42.9152213075        5.0669421517       26.1054859344  TIP3      3496            0.0000000000
     60321      3897  TIP3      OH2           -54.5643487195        6.8207841967       29.0511385495  TIP3      3497            0.0000000000
     60322      3897  TIP3      H1            -53.9023040371        6.2571921823       29.4903534245  TIP3      3497            0.0000000000
     60323      3897  TIP3      H2            -54.5082916624        6.5174642566       28.1317771567  TIP3      3497            0.0000000000
     60324      3898  TIP3      OH2           -49.3898631958        8.3897145439       28.2727941308  TIP3      3498            0.0000000000
     60325      3898  TIP3      H1            -48.7696493467        7.8211273580       28.7779329903  TIP3      3498            0.0000000000
     60326      3898  TIP3      H2            -49.9738914042        7.7061207564       27.8695110128  TIP3      3498            0.0000000000
     60327      3899  TIP3      OH2           -38.4201418243        4.9615603862       33.7803433225  TIP3      3499            0.0000000000
     60328      3899  TIP3      H1            -39.0901560101        5.6702758327       33.6925037613  TIP3      3499            0.0000000000
     60329      3899  TIP3      H2            -38.4033862639        4.8088996397       34.7340881386  TIP3      3499            0.0000000000
     60330      3900  TIP3      OH2           -52.3176342922        3.3245887225       32.3525221570  TIP3      3500            0.0000000000
     60331      3900  TIP3      H1            -52.6070075773        3.8727143757       31.6040179826  TIP3      3500            0.0000000000
     60332      3900  TIP3      H2            -53.0155108714        3.5504819717       33.0294308475  TIP3      3500            0.0000000000
     60333      3901  TIP3      OH2           -45.0268161034       12.8008312912       25.9241669052  TIP3      3501            0.0000000000
     60334      3901  TIP3      H1            -45.2862571916       12.5263988701       25.0373825100  TIP3      3501            0.0000000000
     60335      3901  TIP3      H2            -45.3039711495       13.7372151407       25.9593218915  TIP3      3501            0.0000000000
     60336      3902  TIP3      OH2           -49.7875135489       10.9701899363       32.6303655736  TIP3      3502            0.0000000000
     60337      3902  TIP3      H1            -50.5187370509       11.6074093421       32.7788981976  TIP3      3502            0.0000000000
     60338      3902  TIP3      H2            -49.0799628193       11.5632248898       32.3369481042  TIP3      3502            0.0000000000
     60339      3903  TIP3      OH2           -41.6898203933        3.8397411256       28.6681408663  TIP3      3503            0.0000000000
     60340      3903  TIP3      H1            -41.8914225282        3.0680288052       29.2100820446  TIP3      3503            0.0000000000
     60341      3903  TIP3      H2            -41.0153792071        4.2922338798       29.2025606948  TIP3      3503            0.0000000000
     60342      3904  TIP3      OH2           -52.7601585263        5.1792278338       30.3527246956  TIP3      3504            0.0000000000
     60343      3904  TIP3      H1            -52.1544846708        5.8686320683       30.7042272094  TIP3      3504            0.0000000000
     60344      3904  TIP3      H2            -52.2612094168        4.7503143322       29.6320553475  TIP3      3504            0.0000000000
     60345      3905  TIP3      OH2           -51.3632321134       12.9484344201       33.4207211953  TIP3      3505            0.0000000000
     60346      3905  TIP3      H1            -51.3921942568       13.8593711559       33.0681658259  TIP3      3505            0.0000000000
     60347      3905  TIP3      H2            -52.2470835726       12.8826387293       33.8636258315  TIP3      3505            0.0000000000
     60348      3906  TIP3      OH2           -55.2448294354       12.6148966100       24.2201031945  TIP3      3506            0.0000000000
     60349      3906  TIP3      H1            -55.5140883677       12.8774069057       23.3218130590  TIP3      3506            0.0000000000
     60350      3906  TIP3      H2            -55.1978620519       13.4677806694       24.6964459022  TIP3      3506            0.0000000000
     60351      3907  TIP3      OH2           -41.6372432995       14.2419599137       30.9492569939  TIP3      3507            0.0000000000
     60352      3907  TIP3      H1            -42.6029875097       14.3345402744       31.0915432445  TIP3      3507            0.0000000000
     60353      3907  TIP3      H2            -41.3708224712       15.1689952601       30.7844481200  TIP3      3507            0.0000000000
     60354      3908  TIP3      OH2           -41.3329075792        2.5366499533       32.3574868682  TIP3      3508            0.0000000000
     60355      3908  TIP3      H1            -42.0678423422        3.1597377445       32.2957044330  TIP3      3508            0.0000000000
     60356      3908  TIP3      H2            -40.6367398628        2.9585915720       31.8233785324  TIP3      3508            0.0000000000
     60357      3909  TIP3      OH2           -48.3456122087        0.6549907079       29.8086913435  TIP3      3509            0.0000000000
     60358      3909  TIP3      H1            -48.4626753082       -0.3214639099       29.7568077155  TIP3      3509            0.0000000000
     60359      3909  TIP3      H2            -49.2211834112        0.9398738799       30.1130608439  TIP3      3509            0.0000000000
     60360      3910  TIP3      OH2           -43.4158956192       16.0309665428       27.5492701434  TIP3      3510            0.0000000000
     60361      3910  TIP3      H1            -42.9464529022       15.3165657617       27.0644746199  TIP3      3510            0.0000000000
     60362      3910  TIP3      H2            -43.0077668432       16.8291175903       27.1452996195  TIP3      3510            0.0000000000
     60363      3911  TIP3      OH2           -42.2064390407       13.9618355625       26.0676476422  TIP3      3511            0.0000000000
     60364      3911  TIP3      H1            -42.4801282162       13.2488934593       25.4688420668  TIP3      3511            0.0000000000
     60365      3911  TIP3      H2            -42.1551634256       13.4759508002       26.9107590887  TIP3      3511            0.0000000000
     60366      3912  TIP3      OH2           -40.5498506012       12.5246543859       34.5614948690  TIP3      3512            0.0000000000
     60367      3912  TIP3      H1            -40.4054568028       11.9034338910       33.8147599695  TIP3      3512            0.0000000000
     60368      3912  TIP3      H2            -40.3698946480       13.3903215136       34.1636403955  TIP3      3512            0.0000000000
     60369      3913  TIP3      OH2           -46.0626663476        9.4338557648       24.3132426660  TIP3      3513            0.0000000000
     60370      3913  TIP3      H1            -46.7715856520       10.0090186481       23.9543287553  TIP3      3513            0.0000000000
     60371      3913  TIP3      H2            -45.3677951981        9.5539953793       23.6572763877  TIP3      3513            0.0000000000
     60372      3914  TIP3      OH2           -38.6863604467        8.8429640235       32.6195596340  TIP3      3514            0.0000000000
     60373      3914  TIP3      H1            -39.3499412966        9.5590847435       32.6809354010  TIP3      3514            0.0000000000
     60374      3914  TIP3      H2            -38.2164580602        9.0743004041       31.7982849924  TIP3      3514            0.0000000000
     60375      3915  TIP3      OH2           -42.6536551235        9.6626609407       25.2463065936  TIP3      3515            0.0000000000
     60376      3915  TIP3      H1            -43.3714919276        9.9074000672       25.8678123636  TIP3      3515            0.0000000000
     60377      3915  TIP3      H2            -42.1815371193        8.9765732262       25.7488600589  TIP3      3515            0.0000000000
     60378      3916  TIP3      OH2           -42.7191427535        7.8254759086       34.3520739604  TIP3      3516            0.0000000000
     60379      3916  TIP3      H1            -42.6901381581        8.6275061960       34.9028927526  TIP3      3516            0.0000000000
     60380      3916  TIP3      H2            -43.3531036450        8.1285899458       33.6637650739  TIP3      3516            0.0000000000
     60381      3917  TIP3      OH2           -51.0687287919       10.3113877176       27.1811745952  TIP3      3517            0.0000000000
     60382      3917  TIP3      H1            -51.4063696908        9.9217973803       26.3277673242  TIP3      3517            0.0000000000
     60383      3917  TIP3      H2            -50.4967672659        9.6044175573       27.5442743616  TIP3      3517            0.0000000000
     60384      3918  TIP3      OH2           -49.6598997805       13.7384696111       29.8310050188  TIP3      3518            0.0000000000
     60385      3918  TIP3      H1            -49.7239723362       13.1663471942       29.0653521758  TIP3      3518            0.0000000000
     60386      3918  TIP3      H2            -48.9132160765       13.3510887106       30.3250725077  TIP3      3518            0.0000000000
     60387      3919  TIP3      OH2           -50.6565765290        9.0483656670       30.7988943948  TIP3      3519            0.0000000000
     60388      3919  TIP3      H1            -50.0882471481        9.1997982090       30.0336476384  TIP3      3519            0.0000000000
     60389      3919  TIP3      H2            -50.3237941731        9.7197488228       31.4398869968  TIP3      3519            0.0000000000
     60390      3920  TIP3      OH2           -44.3092573596       14.6169095259       31.5084667754  TIP3      3520            0.0000000000
     60391      3920  TIP3      H1            -44.5674214622       15.2424123323       32.1870029679  TIP3      3520            0.0000000000
     60392      3920  TIP3      H2            -44.5347677414       13.7558626707       31.9504096343  TIP3      3520            0.0000000000
     60393      3921  TIP3      OH2           -49.7413407706       13.4963049317       35.4930494889  TIP3      3521            0.0000000000
     60394      3921  TIP3      H1            -50.1066941914       14.2475425791       35.9913181389  TIP3      3521            0.0000000000
     60395      3921  TIP3      H2            -50.4266339838       13.3030613622       34.8166240745  TIP3      3521            0.0000000000
     60396      3922  TIP3      OH2           -52.8275253518        9.6618205019       34.6958879674  TIP3      3522            0.0000000000
     60397      3922  TIP3      H1            -52.7733355833       10.3196532699       35.4260425448  TIP3      3522            0.0000000000
     60398      3922  TIP3      H2            -53.7508400501        9.7804858266       34.4235832146  TIP3      3522            0.0000000000
     60399      3923  TIP3      OH2           -46.0539946649       15.5884512266       26.3904081121  TIP3      3523            0.0000000000
     60400      3923  TIP3      H1            -45.5727318927       15.8559207092       27.1788754952  TIP3      3523            0.0000000000
     60401      3923  TIP3      H2            -46.6266467814       16.3090339579       26.1328860960  TIP3      3523            0.0000000000
     60402      3924  TIP3      OH2           -51.5118304029       15.5415577140       36.2743616176  TIP3      3524            0.0000000000
     60403      3924  TIP3      H1            -51.5272185619       15.4170188230       35.3106865052  TIP3      3524            0.0000000000
     60404      3924  TIP3      H2            -52.4482678598       15.4175558032       36.5234237201  TIP3      3524            0.0000000000
     60405      3925  TIP3      OH2           -40.0795707641        0.5206639125       22.8226370681  TIP3      3525            0.0000000000
     60406      3925  TIP3      H1            -41.0130442659        0.6868172073       23.0806388834  TIP3      3525            0.0000000000
     60407      3925  TIP3      H2            -39.8265695831        1.3618870015       22.4453916045  TIP3      3525            0.0000000000
     60408      3926  TIP3      OH2           -51.9922117291        9.3676569534       24.7833630427  TIP3      3526            0.0000000000
     60409      3926  TIP3      H1            -52.3235032728       10.1283728874       24.2345466148  TIP3      3526            0.0000000000
     60410      3926  TIP3      H2            -52.6869688658        8.7202162194       24.5708552768  TIP3      3526            0.0000000000
     60411      3927  TIP3      OH2           -55.6906915567       11.6089675924       33.5715452657  TIP3      3527            0.0000000000
     60412      3927  TIP3      H1            -56.3855038161       11.7319799911       32.8429895861  TIP3      3527            0.0000000000
     60413      3927  TIP3      H2            -55.9306395996       10.7494661076       33.8907838808  TIP3      3527            0.0000000000
     60414      3928  TIP3      OH2           -56.1813240636       14.5374681681       30.3927997708  TIP3      3528            0.0000000000
     60415      3928  TIP3      H1            -55.2346055469       14.3760736244       30.4414608293  TIP3      3528            0.0000000000
     60416      3928  TIP3      H2            -56.2990429213       15.2902521042       30.9876525765  TIP3      3528            0.0000000000
     60417      3929  TIP3      OH2           -37.9594536518       15.1977542841       36.1136611284  TIP3      3529            0.0000000000
     60418      3929  TIP3      H1            -38.0532855185       14.2341442803       36.1069437436  TIP3      3529            0.0000000000
     60419      3929  TIP3      H2            -38.8193720852       15.4466548568       36.5378644195  TIP3      3529            0.0000000000
     60420      3930  TIP3      OH2           -46.9977635670       14.7498545862       34.9945607471  TIP3      3530            0.0000000000
     60421      3930  TIP3      H1            -46.9240766665       15.5909355477       35.5018110821  TIP3      3530            0.0000000000
     60422      3930  TIP3      H2            -47.8724336882       14.4039685011       35.2615774338  TIP3      3530            0.0000000000
     60423      3931  TIP3      OH2           -46.5633586108       18.5060167654       24.8317127668  TIP3      3531            0.0000000000
     60424      3931  TIP3      H1            -46.6742999850       18.4040506599       23.8657119448  TIP3      3531            0.0000000000
     60425      3931  TIP3      H2            -46.5517173406       19.4824882451       24.9204831002  TIP3      3531            0.0000000000
     60426      3932  TIP3      OH2           -52.9344489262       17.3583574767       26.5947441491  TIP3      3532            0.0000000000
     60427      3932  TIP3      H1            -52.7834131625       16.9582699813       27.4811706172  TIP3      3532            0.0000000000
     60428      3932  TIP3      H2            -53.7805038292       16.9514724358       26.3419917057  TIP3      3532            0.0000000000
     60429      3933  TIP3      OH2           -43.8143267370       17.6507181660       24.5968142903  TIP3      3533            0.0000000000
     60430      3933  TIP3      H1            -44.7678109616       17.7035595423       24.7248371254  TIP3      3533            0.0000000000
     60431      3933  TIP3      H2            -43.5362726262       16.8880178275       25.1209583083  TIP3      3533            0.0000000000
     60432      3934  TIP3      OH2           -40.8217216799        6.6799563540       36.6094018553  TIP3      3534            0.0000000000
     60433      3934  TIP3      H1            -41.2576396566        7.1475598753       35.8824523252  TIP3      3534            0.0000000000
     60434      3934  TIP3      H2            -40.8024559384        5.7630193302       36.2955184692  TIP3      3534            0.0000000000
     60435      3935  TIP3      OH2           -53.6732629748       13.0892471962       34.6143555996  TIP3      3535            0.0000000000
     60436      3935  TIP3      H1            -53.4712249801       12.6960482510       35.4847370062  TIP3      3535            0.0000000000
     60437      3935  TIP3      H2            -54.5449179431       12.6875208736       34.3791843712  TIP3      3535            0.0000000000
     60438      3936  TIP3      OH2           -51.0073167023        1.5713054888       30.5535242210  TIP3      3536            0.0000000000
     60439      3936  TIP3      H1            -51.9251834771        1.4316887990       30.2018658799  TIP3      3536            0.0000000000
     60440      3936  TIP3      H2            -51.1241807057        2.3764014561       31.0647992219  TIP3      3536            0.0000000000
     60441      3937  TIP3      OH2           -46.3703726810        1.2461592178       33.9507503615  TIP3      3537            0.0000000000
     60442      3937  TIP3      H1            -45.9686531262        0.8210206707       34.7287281109  TIP3      3537            0.0000000000
     60443      3937  TIP3      H2            -47.3358512623        1.0807204517       34.0889725048  TIP3      3537            0.0000000000
     60444      3938  TIP3      OH2           -43.0603053091        5.0325373178       34.8217173783  TIP3      3538            0.0000000000
     60445      3938  TIP3      H1            -43.6041254870        4.8655032855       35.6280931918  TIP3      3538            0.0000000000
     60446      3938  TIP3      H2            -43.2329167108        5.9546163159       34.5840195307  TIP3      3538            0.0000000000
     60447      3939  TIP3      OH2           -50.9256256139        6.4809590468       31.7223818515  TIP3      3539            0.0000000000
     60448      3939  TIP3      H1            -51.6173049296        6.4778606535       32.4268976613  TIP3      3539            0.0000000000
     60449      3939  TIP3      H2            -50.9390133413        7.4370060793       31.4682012395  TIP3      3539            0.0000000000
     60450      3940  TIP3      OH2           -50.9397540491        6.6958783889       26.6534985313  TIP3      3540            0.0000000000
     60451      3940  TIP3      H1            -51.8728433478        6.3858545445       26.5374299824  TIP3      3540            0.0000000000
     60452      3940  TIP3      H2            -50.5457219874        6.3325477935       25.8277955014  TIP3      3540            0.0000000000
     60453      3941  TIP3      OH2           -45.4425705128        7.1262056930       25.4170590267  TIP3      3541            0.0000000000
     60454      3941  TIP3      H1            -45.8340273925        7.9710236801       25.1250408940  TIP3      3541            0.0000000000
     60455      3941  TIP3      H2            -44.7134121150        7.0007536385       24.8220524136  TIP3      3541            0.0000000000
     60456      3942  TIP3      OH2           -46.3214708016        7.3208359236       36.8784207156  TIP3      3542            0.0000000000
     60457      3942  TIP3      H1            -46.9011451648        6.5997311294       37.2284267413  TIP3      3542            0.0000000000
     60458      3942  TIP3      H2            -45.5101356633        7.2068027176       37.3891092755  TIP3      3542            0.0000000000
     60459      3943  TIP3      OH2           -44.4219995833        6.6016885407       28.2718145277  TIP3      3543            0.0000000000
     60460      3943  TIP3      H1            -44.6321346147        7.1849641342       27.5272652044  TIP3      3543            0.0000000000
     60461      3943  TIP3      H2            -44.2593811578        5.7561656035       27.8087311436  TIP3      3543            0.0000000000
     60462      3944  TIP3      OH2           -53.2280405822        6.7984519957       33.5225605628  TIP3      3544            0.0000000000
     60463      3944  TIP3      H1            -53.2394656441        7.2049683553       34.4101683781  TIP3      3544            0.0000000000
     60464      3944  TIP3      H2            -53.7148101781        5.9781947302       33.6805814559  TIP3      3544            0.0000000000
     60465      3945  TIP3      OH2           -49.8677133591        4.1125988083       20.3386670382  TIP3      3545            0.0000000000
     60466      3945  TIP3      H1            -50.3054036180        3.7171161225       21.1130982571  TIP3      3545            0.0000000000
     60467      3945  TIP3      H2            -50.5990564995        4.5477436491       19.8809709167  TIP3      3545            0.0000000000
     60468      3946  TIP3      OH2           -56.6002667010        3.9401850534       27.4286045604  TIP3      3546            0.0000000000
     60469      3946  TIP3      H1            -55.9525381586        3.8824481580       28.1560155092  TIP3      3546            0.0000000000
     60470      3946  TIP3      H2            -56.1600301679        3.5076375305       26.6746175705  TIP3      3546            0.0000000000
     60471      3947  TIP3      OH2           -55.3084448035        4.6267356478       22.8668775301  TIP3      3547            0.0000000000
     60472      3947  TIP3      H1            -54.8520623264        5.2477485723       22.2643176166  TIP3      3547            0.0000000000
     60473      3947  TIP3      H2            -56.0363930069        5.2063411790       23.1722686410  TIP3      3547            0.0000000000
     60474      3948  TIP3      OH2           -45.1711994494        8.2299994592       32.8862764316  TIP3      3548            0.0000000000
     60475      3948  TIP3      H1            -44.8255289506        7.5624915291       32.2644748954  TIP3      3548            0.0000000000
     60476      3948  TIP3      H2            -45.6209530454        7.6842381259       33.5563443650  TIP3      3548            0.0000000000
     60477      3949  TIP3      OH2           -48.3829170195        4.1762214181       27.7073481218  TIP3      3549            0.0000000000
     60478      3949  TIP3      H1            -49.3182271777        4.1908684022       27.9220179412  TIP3      3549            0.0000000000
     60479      3949  TIP3      H2            -47.8480061836        4.0549297973       28.5008205597  TIP3      3549            0.0000000000
     60480      3950  TIP3      OH2           -53.5548634696        5.7601607595       26.5470540282  TIP3      3550            0.0000000000
     60481      3950  TIP3      H1            -54.4545589866        5.8794786892       26.1715635106  TIP3      3550            0.0000000000
     60482      3950  TIP3      H2            -53.2840279550        4.9151967750       26.1607769236  TIP3      3550            0.0000000000
     60483      3951  TIP3      OH2           -49.9303630992        5.8122330909       24.2065079458  TIP3      3551            0.0000000000
     60484      3951  TIP3      H1            -48.9696342939        5.8910361345       24.3369065072  TIP3      3551            0.0000000000
     60485      3951  TIP3      H2            -50.1314829342        6.4508371080       23.5141211045  TIP3      3551            0.0000000000
     60486      3952  TIP3      OH2           -43.9704197154        3.4030641780       30.9437135090  TIP3      3552            0.0000000000
     60487      3952  TIP3      H1            -44.6612303603        3.4990216180       31.6305353639  TIP3      3552            0.0000000000
     60488      3952  TIP3      H2            -44.4684296285        3.2059026903       30.1426004108  TIP3      3552            0.0000000000
     60489      3953  TIP3      OH2           -40.7478628604       19.0589929982       37.2528315645  TIP3      3553            0.0000000000
     60490      3953  TIP3      H1            -40.4922377585       19.4693045962       36.4046870460  TIP3      3553            0.0000000000
     60491      3953  TIP3      H2            -40.0394497008       19.3940391783       37.8403634640  TIP3      3553            0.0000000000
     60492      3954  TIP3      OH2           -53.0924715683       11.5399090577       36.8222196931  TIP3      3554            0.0000000000
     60493      3954  TIP3      H1            -52.3635505037       11.7765896414       37.4308056657  TIP3      3554            0.0000000000
     60494      3954  TIP3      H2            -53.8849064485       11.6993185023       37.3797628975  TIP3      3554            0.0000000000
     60495      3955  TIP3      OH2           -47.1162140309        6.9230459824       29.5643351102  TIP3      3555            0.0000000000
     60496      3955  TIP3      H1            -46.4851111258        6.4010569265       29.0438135187  TIP3      3555            0.0000000000
     60497      3955  TIP3      H2            -47.1988283318        6.4169287657       30.3824641911  TIP3      3555            0.0000000000
     60498      3956  TIP3      OH2           -52.0615843345        3.0920859878       26.0189327390  TIP3      3556            0.0000000000
     60499      3956  TIP3      H1            -52.3949846106        2.1702834559       25.9700541526  TIP3      3556            0.0000000000
     60500      3956  TIP3      H2            -51.2923172633        3.0498143719       25.4349311045  TIP3      3556            0.0000000000
     60501      3957  TIP3      OH2           -48.4648074790        5.2843893048       31.9525387759  TIP3      3557            0.0000000000
     60502      3957  TIP3      H1            -49.2788544493        5.8025964022       32.1243204632  TIP3      3557            0.0000000000
     60503      3957  TIP3      H2            -47.9121305219        5.6039931673       32.7253305741  TIP3      3557            0.0000000000
     60504      3958  TIP3      OH2           -47.8551888851       11.4948470846       23.6950128624  TIP3      3558            0.0000000000
     60505      3958  TIP3      H1            -48.6625943616       11.0369902369       23.3404934970  TIP3      3558            0.0000000000
     60506      3958  TIP3      H2            -48.0523000267       11.6364790177       24.6279654439  TIP3      3558            0.0000000000
     60507      3959  TIP3      OH2           -40.7197206484       10.6752018829       32.4880353394  TIP3      3559            0.0000000000
     60508      3959  TIP3      H1            -40.1149822807       11.1494089483       31.8934399917  TIP3      3559            0.0000000000
     60509      3959  TIP3      H2            -41.5682233772       10.7743987383       32.0062123912  TIP3      3559            0.0000000000
     60510      3960  TIP3      OH2           -43.9846442416        4.3673912171       21.8498596068  TIP3      3560            0.0000000000
     60511      3960  TIP3      H1            -44.9477042680        4.4531665174       21.7474659472  TIP3      3560            0.0000000000
     60512      3960  TIP3      H2            -43.7223383164        5.2022833499       22.2102093054  TIP3      3560            0.0000000000
     60513      3961  TIP3      OH2           -46.3675907503       11.7382647993       34.9136002880  TIP3      3561            0.0000000000
     60514      3961  TIP3      H1            -46.7302692919       11.3414366215       35.7278696080  TIP3      3561            0.0000000000
     60515      3961  TIP3      H2            -46.6033820219       12.6639617228       35.0146478375  TIP3      3561            0.0000000000
     60516      3962  TIP3      OH2           -52.7583811452       10.8682406832       29.4673176504  TIP3      3562            0.0000000000
     60517      3962  TIP3      H1            -52.0477247766       10.8207812331       28.8181692628  TIP3      3562            0.0000000000
     60518      3962  TIP3      H2            -52.7050422563       10.0133885616       29.9344843156  TIP3      3562            0.0000000000
     60519      3963  TIP3      OH2           -45.7601672437       12.9796534373       22.7364530064  TIP3      3563            0.0000000000
     60520      3963  TIP3      H1            -46.0773313977       13.8255309284       23.0791491494  TIP3      3563            0.0000000000
     60521      3963  TIP3      H2            -46.4989300843       12.3735406592       22.9154321872  TIP3      3563            0.0000000000
     60522      3964  TIP3      OH2           -55.7525265455        9.2830608828       34.7672703418  TIP3      3564            0.0000000000
     60523      3964  TIP3      H1            -55.5636725029        8.8591249658       35.6166033899  TIP3      3564            0.0000000000
     60524      3964  TIP3      H2            -56.3826898448        8.6876506722       34.3251405039  TIP3      3564            0.0000000000
     60525      3965  TIP3      OH2           -48.7376871326        8.7228520987       36.8473840167  TIP3      3565            0.0000000000
     60526      3965  TIP3      H1            -49.0468541382        8.5905032915       35.9828930878  TIP3      3565            0.0000000000
     60527      3965  TIP3      H2            -47.7894531606        8.5666076534       36.9357680764  TIP3      3565            0.0000000000
     60528      3966  TIP3      OH2           -44.0983599982       14.1819219359       34.8595370045  TIP3      3566            0.0000000000
     60529      3966  TIP3      H1            -45.0230683384       14.3705800006       34.6240121052  TIP3      3566            0.0000000000
     60530      3966  TIP3      H2            -44.1047396683       14.4602939430       35.7974610725  TIP3      3566            0.0000000000
     60531      3967  TIP3      OH2           -38.4266377959        6.4005590019       23.2731056363  TIP3      3567            0.0000000000
     60532      3967  TIP3      H1            -38.9369942613        6.0605300584       22.5287161931  TIP3      3567            0.0000000000
     60533      3967  TIP3      H2            -38.2935472272        7.3381448923       22.9734203223  TIP3      3567            0.0000000000
     60534      3968  TIP3      OH2           -38.4193272744       12.2329195606       36.0890855626  TIP3      3568            0.0000000000
     60535      3968  TIP3      H1            -39.3000024373       12.4621729787       35.7047434427  TIP3      3568            0.0000000000
     60536      3968  TIP3      H2            -37.8498169266       12.2069371466       35.2965915181  TIP3      3568            0.0000000000
     60537      3969  TIP3      OH2           -40.0837668924       15.2049637264       23.6937561170  TIP3      3569            0.0000000000
     60538      3969  TIP3      H1            -40.4842010887       14.3872430701       24.0131927886  TIP3      3569            0.0000000000
     60539      3969  TIP3      H2            -39.8325920423       15.0351026300       22.7803781727  TIP3      3569            0.0000000000
     60540      3970  TIP3      OH2           -42.9227362885       10.0284310598       30.7480432561  TIP3      3570            0.0000000000
     60541      3970  TIP3      H1            -43.8654673268        9.7934283460       30.6814173012  TIP3      3570            0.0000000000
     60542      3970  TIP3      H2            -42.4864072686        9.2436790407       30.3700728390  TIP3      3570            0.0000000000
     60543      3971  TIP3      OH2           -50.3885205504       14.3456733791       26.8660947406  TIP3      3571            0.0000000000
     60544      3971  TIP3      H1            -49.8873034740       15.1482160389       26.6446696148  TIP3      3571            0.0000000000
     60545      3971  TIP3      H2            -51.2754349747       14.5927353429       26.5519099172  TIP3      3571            0.0000000000
     60546      3972  TIP3      OH2           -48.9254200394       12.2242227329       26.3957163395  TIP3      3572            0.0000000000
     60547      3972  TIP3      H1            -49.2908237194       13.1279228596       26.4700828469  TIP3      3572            0.0000000000
     60548      3972  TIP3      H2            -49.6765678293       11.7645590929       26.8121760434  TIP3      3572            0.0000000000
     60549      3973  TIP3      OH2           -48.4897418255       16.1751429365       32.7528486390  TIP3      3573            0.0000000000
     60550      3973  TIP3      H1            -48.0794714490       17.0179490541       32.5203814924  TIP3      3573            0.0000000000
     60551      3973  TIP3      H2            -47.9144173527       15.8667160786       33.4808739152  TIP3      3573            0.0000000000
     60552      3974  TIP3      OH2           -50.2617184308       16.9996159388       26.0264571621  TIP3      3574            0.0000000000
     60553      3974  TIP3      H1            -51.2408786949       17.1388428765       26.0296073259  TIP3      3574            0.0000000000
     60554      3974  TIP3      H2            -49.9469094580       17.8680309100       26.2993182327  TIP3      3574            0.0000000000
     60555      3975  TIP3      OH2           -44.9409316917       12.2406676954       32.4281371974  TIP3      3575            0.0000000000
     60556      3975  TIP3      H1            -45.3344140365       12.0240120867       33.2994801950  TIP3      3575            0.0000000000
     60557      3975  TIP3      H2            -44.3348536892       11.5051657642       32.2593498753  TIP3      3575            0.0000000000
     60558      3976  TIP3      OH2           -42.7109502936       13.1939829261       21.5337245366  TIP3      3576            0.0000000000
     60559      3976  TIP3      H1            -42.3726549525       12.7925680406       22.3427619086  TIP3      3576            0.0000000000
     60560      3976  TIP3      H2            -43.6632286910       13.1026058166       21.6101150232  TIP3      3576            0.0000000000
     60561      3977  TIP3      OH2           -42.2218373424       16.7970049539       34.9273313700  TIP3      3577            0.0000000000
     60562      3977  TIP3      H1            -42.8638226693       16.2688438455       34.4163345924  TIP3      3577            0.0000000000
     60563      3977  TIP3      H2            -41.9839341341       17.4824150050       34.2686310031  TIP3      3577            0.0000000000
     60564      3978  TIP3      OH2           -38.1812162405       17.6654767198       21.7892104106  TIP3      3578            0.0000000000
     60565      3978  TIP3      H1            -37.4724672078       18.2808205623       21.5623038433  TIP3      3578            0.0000000000
     60566      3978  TIP3      H2            -38.9197618536       18.2587896830       22.0334407699  TIP3      3578            0.0000000000
     60567      3979  TIP3      OH2           -54.1175350935        4.0436362745       34.2978449336  TIP3      3579            0.0000000000
     60568      3979  TIP3      H1            -55.0281608003        4.3842578900       34.2564729341  TIP3      3579            0.0000000000
     60569      3979  TIP3      H2            -54.2209286450        3.1876871294       34.7451207135  TIP3      3579            0.0000000000
     60570      3980  TIP3      OH2           -41.8679841470       11.8774052107       23.7597837547  TIP3      3580            0.0000000000
     60571      3980  TIP3      H1            -42.1181560553       11.1142031076       24.3108321502  TIP3      3580            0.0000000000
     60572      3980  TIP3      H2            -40.9190052684       11.9576347914       23.9490059578  TIP3      3580            0.0000000000
     60573      3981  TIP3      OH2           -54.4595167349       15.8518587002       32.7314025769  TIP3      3581            0.0000000000
     60574      3981  TIP3      H1            -54.2500846520       14.9030136492       32.7338709543  TIP3      3581            0.0000000000
     60575      3981  TIP3      H2            -54.2405419774       16.1093688581       33.6325122028  TIP3      3581            0.0000000000
     60576      3982  TIP3      OH2           -53.1937992406       11.1079907505       22.9853439919  TIP3      3582            0.0000000000
     60577      3982  TIP3      H1            -53.9365231312       11.4882305782       23.4794768949  TIP3      3582            0.0000000000
     60578      3982  TIP3      H2            -52.7347885942       11.8971491602       22.6563959212  TIP3      3582            0.0000000000
     60579      3983  TIP3      OH2           -45.4047404917        3.8017111361       33.2161832987  TIP3      3583            0.0000000000
     60580      3983  TIP3      H1            -44.6945062914        3.8616354278       33.8731789876  TIP3      3583            0.0000000000
     60581      3983  TIP3      H2            -45.7713698683        2.9156043108       33.4089027225  TIP3      3583            0.0000000000
     60582      3984  TIP3      OH2           -44.6204074214        3.4295551314       24.3213930074  TIP3      3584            0.0000000000
     60583      3984  TIP3      H1            -44.3975314869        3.8913595488       23.5127824920  TIP3      3584            0.0000000000
     60584      3984  TIP3      H2            -44.0579298541        3.8220838217       25.0041179092  TIP3      3584            0.0000000000
     60585      3985  TIP3      OH2           -47.4307642379        5.1878254462       25.1504237243  TIP3      3585            0.0000000000
     60586      3985  TIP3      H1            -46.5931661337        5.6821013769       25.1977246552  TIP3      3585            0.0000000000
     60587      3985  TIP3      H2            -47.6524948877        5.0051737690       26.0750526940  TIP3      3585            0.0000000000
     60588      3986  TIP3      OH2           -46.8761399163        6.1489758045       34.3280444395  TIP3      3586            0.0000000000
     60589      3986  TIP3      H1            -46.7771443525        6.7275388825       35.1154845675  TIP3      3586            0.0000000000
     60590      3986  TIP3      H2            -46.2103464831        5.4590816647       34.4498695778  TIP3      3586            0.0000000000
     60591      3987  TIP3      OH2           -46.5442423476        2.2219969655       26.0785786454  TIP3      3587            0.0000000000
     60592      3987  TIP3      H1            -46.8746755710        2.8612309077       26.7275300165  TIP3      3587            0.0000000000
     60593      3987  TIP3      H2            -45.8636974406        2.7556060880       25.6025272127  TIP3      3587            0.0000000000
     60594      3988  TIP3      OH2           -50.8882461223        3.2968801797       22.7629645203  TIP3      3588            0.0000000000
     60595      3988  TIP3      H1            -50.9495698622        4.1936876405       23.1320720328  TIP3      3588            0.0000000000
     60596      3988  TIP3      H2            -49.9808174734        3.0455319102       23.0068548999  TIP3      3588            0.0000000000
     60597      3989  TIP3      OH2           -40.6614160723        4.0406183168       35.1894646186  TIP3      3589            0.0000000000
     60598      3989  TIP3      H1            -41.6013840632        4.3291579482       35.0703166699  TIP3      3589            0.0000000000
     60599      3989  TIP3      H2            -40.3572945375        4.0394399706       34.2678864302  TIP3      3589            0.0000000000
     60600      3990  TIP3      OH2           -42.0726776513        7.8205126458       29.2533272154  TIP3      3590            0.0000000000
     60601      3990  TIP3      H1            -42.8793742745        7.3844434764       28.9301184238  TIP3      3590            0.0000000000
     60602      3990  TIP3      H2            -41.6080152760        7.1130837583       29.7510508652  TIP3      3590            0.0000000000
     60603      3991  TIP3      OH2           -52.5791422046       13.6825884852       21.8779861280  TIP3      3591            0.0000000000
     60604      3991  TIP3      H1            -52.0306100669       14.4441895684       22.0842104307  TIP3      3591            0.0000000000
     60605      3991  TIP3      H2            -52.1676443169       13.3093192792       21.0982463251  TIP3      3591            0.0000000000
     60606      3992  TIP3      OH2           -54.3272330876        6.3652099828       21.0036013297  TIP3      3592            0.0000000000
     60607      3992  TIP3      H1            -54.3201923525        7.3306962324       21.1298148885  TIP3      3592            0.0000000000
     60608      3992  TIP3      H2            -55.1949716129        6.1676127799       20.6477469508  TIP3      3592            0.0000000000
     60609      3993  TIP3      OH2           -41.0000001026       17.0560325798       30.8904567051  TIP3      3593            0.0000000000
     60610      3993  TIP3      H1            -41.1154527455       17.7508737423       30.2124443978  TIP3      3593            0.0000000000
     60611      3993  TIP3      H2            -40.0399307995       17.1351857642       31.0746501038  TIP3      3593            0.0000000000
     60612      3994  TIP3      OH2           -53.4819930034        1.1996984706       29.6491348378  TIP3      3594            0.0000000000
     60613      3994  TIP3      H1            -53.7268338649        1.2226017300       28.6944732778  TIP3      3594            0.0000000000
     60614      3994  TIP3      H2            -53.9335325961        0.3718870622       29.9242104366  TIP3      3594            0.0000000000
     60615      3995  TIP3      OH2           -54.5590723457       15.1150879583       25.8177084896  TIP3      3595            0.0000000000
     60616      3995  TIP3      H1            -55.3967128142       15.5988059761       25.7821652177  TIP3      3595            0.0000000000
     60617      3995  TIP3      H2            -54.0358236599       15.6086125807       25.1639891018  TIP3      3595            0.0000000000
     60618      3996  TIP3      OH2           -55.2693545465       17.7350662254       37.0759089427  TIP3      3596            0.0000000000
     60619      3996  TIP3      H1            -54.7371810590       17.5379009893       37.8749553693  TIP3      3596            0.0000000000
     60620      3996  TIP3      H2            -55.7610334425       16.9231662713       36.9295497629  TIP3      3596            0.0000000000
     60621      3997  TIP3      OH2           -50.6791520689       16.6703464298       38.7410774053  TIP3      3597            0.0000000000
     60622      3997  TIP3      H1            -49.9032863078       16.1939703446       39.0655107815  TIP3      3597            0.0000000000
     60623      3997  TIP3      H2            -50.6926070995       16.4158315039       37.7951975593  TIP3      3597            0.0000000000
     60624      3998  TIP3      OH2           -44.1275255005       15.0584357491       37.4553406933  TIP3      3598            0.0000000000
     60625      3998  TIP3      H1            -44.4584454861       14.1732418189       37.7171751427  TIP3      3598            0.0000000000
     60626      3998  TIP3      H2            -43.3730365516       15.1796376047       38.0608650936  TIP3      3598            0.0000000000
     60627      3999  TIP3      OH2           -55.3807859486       11.5346297524       38.1081088251  TIP3      3599            0.0000000000
     60628      3999  TIP3      H1            -55.2417048210       10.6285222117       37.7733132348  TIP3      3599            0.0000000000
     60629      3999  TIP3      H2            -56.1401916089       11.8313614088       37.5505419502  TIP3      3599            0.0000000000
     60630      4000  TIP3      OH2           -48.4681201481       11.7075236279       37.1913146244  TIP3      3600            0.0000000000
     60631      4000  TIP3      H1            -49.1287729308       11.8207881005       36.5301049927  TIP3      3600            0.0000000000
     60632      4000  TIP3      H2            -48.5921121582       10.7081295408       37.4287194567  TIP3      3600            0.0000000000
     60633      4001  TIP3      OH2           -45.5747538117       12.7805673406       20.0281804965  TIP3      3601            0.0000000000
     60634      4001  TIP3      H1            -45.9513247447       13.0938221884       20.8560485467  TIP3      3601            0.0000000000
     60635      4001  TIP3      H2            -45.9217872543       11.9392072488       19.8158112460  TIP3      3601            0.0000000000
     60636      4002  TIP3      OH2           -42.9937336476       11.4021143431       34.8833740348  TIP3      3602            0.0000000000
     60637      4002  TIP3      H1            -42.2296411049       12.0099982869       34.7847623637  TIP3      3602            0.0000000000
     60638      4002  TIP3      H2            -43.7277842081       12.0328662858       34.9343834444  TIP3      3602            0.0000000000
     60639      4003  TIP3      OH2           -54.5433362786        8.7600878233       37.4807370577  TIP3      3603            0.0000000000
     60640      4003  TIP3      H1            -54.1056444801        7.9017598143       37.3841392243  TIP3      3603            0.0000000000
     60641      4003  TIP3      H2            -54.7612120261        8.7802693659       38.4299679161  TIP3      3603            0.0000000000
     60642      4004  TIP3      OH2           -49.8013186988        9.8689804227       22.5649348603  TIP3      3604            0.0000000000
     60643      4004  TIP3      H1            -50.3777289986        9.3765173235       23.1615459498  TIP3      3604            0.0000000000
     60644      4004  TIP3      H2            -49.6458538853        9.2206827018       21.8531634567  TIP3      3604            0.0000000000
     60645      4005  TIP3      OH2           -50.6117750630        7.7211887004       34.8463685358  TIP3      3605            0.0000000000
     60646      4005  TIP3      H1            -51.1993437721        8.4395735094       35.1435020964  TIP3      3605            0.0000000000
     60647      4005  TIP3      H2            -50.2299690728        8.0947539113       34.0392541525  TIP3      3605            0.0000000000
     60648      4006  TIP3      OH2           -45.5442093252       10.2517107552       38.1721682852  TIP3      3606            0.0000000000
     60649      4006  TIP3      H1            -44.5923306138       10.2884290331       38.1021006848  TIP3      3606            0.0000000000
     60650      4006  TIP3      H2            -45.7367901210        9.5114017802       38.7701965436  TIP3      3606            0.0000000000
     60651      4007  TIP3      OH2           -50.2317928787        5.0972883980       35.9323106568  TIP3      3607            0.0000000000
     60652      4007  TIP3      H1            -50.0949222040        4.3705645302       35.3082509980  TIP3      3607            0.0000000000
     60653      4007  TIP3      H2            -50.2458424331        5.9059623770       35.3819710952  TIP3      3607            0.0000000000
     60654      4008  TIP3      OH2           -49.8183872718        3.4716979330       33.4421926394  TIP3      3608            0.0000000000
     60655      4008  TIP3      H1            -49.2856909476        3.9392833548       32.7739862105  TIP3      3608            0.0000000000
     60656      4008  TIP3      H2            -50.7086294681        3.3760003072       33.0363072238  TIP3      3608            0.0000000000
     60657      4009  TIP3      OH2           -48.2613521582        8.9204470127       33.6770796056  TIP3      3609            0.0000000000
     60658      4009  TIP3      H1            -47.4977399408        8.7791738928       33.1099434888  TIP3      3609            0.0000000000
     60659      4009  TIP3      H2            -48.6045035456        9.7831866598       33.3957568495  TIP3      3609            0.0000000000
     60660      4010  TIP3      OH2           -43.8528794117        6.7249027790       38.6900660395  TIP3      3610            0.0000000000
     60661      4010  TIP3      H1            -43.6415981241        5.7852967470       38.5930241589  TIP3      3610            0.0000000000
     60662      4010  TIP3      H2            -42.9808965040        7.1482673949       38.6848787641  TIP3      3610            0.0000000000
     60663      4011  TIP3      OH2           -42.5318292004        9.5074940868       36.8179958501  TIP3      3611            0.0000000000
     60664      4011  TIP3      H1            -42.7916294146       10.2335978263       36.2032410768  TIP3      3611            0.0000000000
     60665      4011  TIP3      H2            -41.5739917296        9.4625570951       36.6194061278  TIP3      3611            0.0000000000
     60666      4012  TIP3      OH2           -51.7621207304        6.3225544988       37.8601020763  TIP3      3612            0.0000000000
     60667      4012  TIP3      H1            -52.5334385793        5.7675952191       37.6347806503  TIP3      3612            0.0000000000
     60668      4012  TIP3      H2            -51.0887893063        5.9938102399       37.2331833882  TIP3      3612            0.0000000000
     60669      4013  TIP3      OH2           -49.0166954838        0.9179027967       33.8643422791  TIP3      3613            0.0000000000
     60670      4013  TIP3      H1            -49.1574129346        1.8838508282       33.7662965296  TIP3      3613            0.0000000000
     60671      4013  TIP3      H2            -49.7781414341        0.5526589247       33.3788468314  TIP3      3613            0.0000000000
     60672      4014  TIP3      OH2           -47.7390300668        5.2193465179       37.4404322429  TIP3      3614            0.0000000000
     60673      4014  TIP3      H1            -48.0281782768        5.0379881885       38.3549743142  TIP3      3614            0.0000000000
     60674      4014  TIP3      H2            -48.5503417259        5.0580209943       36.9248079183  TIP3      3614            0.0000000000
     60675      4015  TIP3      OH2           -45.0300870508        4.3683195768       36.5059134979  TIP3      3615            0.0000000000
     60676      4015  TIP3      H1            -45.9951186408        4.4225353813       36.6541747045  TIP3      3615            0.0000000000
     60677      4015  TIP3      H2            -44.7462048861        3.7499689128       37.1970988404  TIP3      3615            0.0000000000
     60678      4016  TIP3      OH2           -43.4330386728        3.0148951568       38.4881043896  TIP3      3616            0.0000000000
     60679      4016  TIP3      H1            -43.5044098600        2.0439038066       38.5031464751  TIP3      3616            0.0000000000
     60680      4016  TIP3      H2            -43.7276095519        3.2947299744       39.3848000580  TIP3      3616            0.0000000000
     60681      4017  TIP3      OH2           -53.5897312695        4.2534526895       37.5534628526  TIP3      3617            0.0000000000
     60682      4017  TIP3      H1            -53.3880323513        3.5119018283       36.9542315819  TIP3      3617            0.0000000000
     60683      4017  TIP3      H2            -53.7059157045        3.8039408913       38.4165341614  TIP3      3617            0.0000000000
     60684      4018  TIP3      OH2           -48.8118669261        0.2601554121       36.5529989192  TIP3      3618            0.0000000000
     60685      4018  TIP3      H1            -48.1005461600       -0.4154674249       36.5223667508  TIP3      3618            0.0000000000
     60686      4018  TIP3      H2            -48.9067538534        0.4753233280       35.6069434314  TIP3      3618            0.0000000000
     60687      4019  TIP3      OH2           -48.4494541312        1.8985548397       38.6227076585  TIP3      3619            0.0000000000
     60688      4019  TIP3      H1            -48.5968237682        1.4140291743       37.7762113026  TIP3      3619            0.0000000000
     60689      4019  TIP3      H2            -49.0452430148        2.6687830580       38.5362915646  TIP3      3619            0.0000000000
     60690      4020  TIP3      OH2           -48.9613604134       18.8536602531       21.8160190452  TIP3      3620            0.0000000000
     60691      4020  TIP3      H1            -47.9996756136       18.9402371465       21.8985731665  TIP3      3620            0.0000000000
     60692      4020  TIP3      H2            -49.1548639659       19.4737956700       21.1273397805  TIP3      3620            0.0000000000
     60693      4021  TIP3      OH2            56.2108043505       18.8125592866       26.3003429034  TIP3      3621            0.0000000000
     60694      4021  TIP3      H1             55.5015917627       18.3383186278       25.8016844529  TIP3      3621            0.0000000000
     60695      4021  TIP3      H2             56.5005612961       18.1325158322       26.9299656667  TIP3      3621            0.0000000000
     60696      4022  TIP3      OH2           -55.8198417065       16.9122073966       28.1280063101  TIP3      3622            0.0000000000
     60697      4022  TIP3      H1            -56.1703355080       16.0267092215       28.3294118571  TIP3      3622            0.0000000000
     60698      4022  TIP3      H2            -55.6069909018       17.2456046781       29.0201617020  TIP3      3622            0.0000000000
     60699      4023  TIP3      OH2           -38.2804999249       17.7109969731       31.0944672016  TIP3      3623            0.0000000000
     60700      4023  TIP3      H1            -38.2722265399       17.8949613330       32.0495555787  TIP3      3623            0.0000000000
     60701      4023  TIP3      H2            -37.5767230059       18.2894062089       30.7772872792  TIP3      3623            0.0000000000
     60702      4024  TIP3      OH2           -38.7033507841       17.3093436475       34.0330588407  TIP3      3624            0.0000000000
     60703      4024  TIP3      H1            -39.1870477438       16.5387571740       33.6594293183  TIP3      3624            0.0000000000
     60704      4024  TIP3      H2            -38.1778969247       16.8733356077       34.7225509842  TIP3      3624            0.0000000000
     60705      4025  TIP3      OH2           -40.2535148838       13.0396588781       38.6726053089  TIP3      3625            0.0000000000
     60706      4025  TIP3      H1            -41.1376090012       12.9878538217       39.0757941043  TIP3      3625            0.0000000000
     60707      4025  TIP3      H2            -39.8818178187       13.8358042722       39.1229823656  TIP3      3625            0.0000000000
     60708      4026  TIP3      OH2           -38.9553631010       11.3409086472       24.1518767176  TIP3      3626            0.0000000000
     60709      4026  TIP3      H1            -38.0934772817       11.7487838370       24.3262855600  TIP3      3626            0.0000000000
     60710      4026  TIP3      H2            -38.9490357119       10.5996458016       24.8039932429  TIP3      3626            0.0000000000
     60711      4027  TIP3      OH2           -38.5681106351        9.4133250965       25.9972480231  TIP3      3627            0.0000000000
     60712      4027  TIP3      H1            -39.3055575425        8.9113522244       26.4077093637  TIP3      3627            0.0000000000
     60713      4027  TIP3      H2            -37.9761497161        9.5834901528       26.7587959508  TIP3      3627            0.0000000000
     60714      4028  TIP3      OH2           -38.8205404287       12.1449499357       30.9806707399  TIP3      3628            0.0000000000
     60715      4028  TIP3      H1            -37.9794974318       11.7793115721       30.6497813102  TIP3      3628            0.0000000000
     60716      4028  TIP3      H2            -38.6829656941       13.1061885059       30.8304570413  TIP3      3628            0.0000000000
     60717      4029  TIP3      OH2           -40.2859492446       15.0402398384       33.2748052994  TIP3      3629            0.0000000000
     60718      4029  TIP3      H1            -40.9688017719       15.3741989391       33.8783922136  TIP3      3629            0.0000000000
     60719      4029  TIP3      H2            -40.8324913670       14.6156587443       32.5769914841  TIP3      3629            0.0000000000
     60720      4030  TIP3      OH2           -38.2923692701        9.2551150471       22.4030795538  TIP3      3630            0.0000000000
     60721      4030  TIP3      H1            -38.8157063264        9.6354050896       21.6884969017  TIP3      3630            0.0000000000
     60722      4030  TIP3      H2            -38.3354243736        9.9637118694       23.0622400467  TIP3      3630            0.0000000000
     60723      4031  TIP3      OH2           -39.9953582975        6.5002292749       20.9433703279  TIP3      3631            0.0000000000
     60724      4031  TIP3      H1            -39.8243280392        7.1947265968       20.2657478618  TIP3      3631            0.0000000000
     60725      4031  TIP3      H2            -40.0396088282        5.7100966703       20.4224056356  TIP3      3631            0.0000000000
     60726      4032  TIP3      OH2           -40.7753293718        7.9089427398       26.5629623945  TIP3      3632            0.0000000000
     60727      4032  TIP3      H1            -40.9184104500        6.9534039171       26.5608468717  TIP3      3632            0.0000000000
     60728      4032  TIP3      H2            -41.1164602556        8.1647132057       27.4365705480  TIP3      3632            0.0000000000
     60729      4033  TIP3      OH2           -55.7391836573        9.9548624367       30.6155422661  TIP3      3633            0.0000000000
     60730      4033  TIP3      H1            -55.5616311590        9.9116119170       29.6545321603  TIP3      3633            0.0000000000
     60731      4033  TIP3      H2            -54.8638753958        9.8443895426       31.0151227786  TIP3      3633            0.0000000000
     60732      4034  TIP3      OH2           -39.9238926752        9.8763772977       36.2414035293  TIP3      3634            0.0000000000
     60733      4034  TIP3      H1            -39.3133516709        9.1269776196       36.4017148699  TIP3      3634            0.0000000000
     60734      4034  TIP3      H2            -39.3307858588       10.6539986193       36.2611176561  TIP3      3634            0.0000000000
     60735      4035  TIP3      OH2           -38.4119054819        7.7801171052       36.9171675460  TIP3      3635            0.0000000000
     60736      4035  TIP3      H1            -39.2882729449        7.3769141814       36.7387157829  TIP3      3635            0.0000000000
     60737      4035  TIP3      H2            -37.8229317644        7.0140139402       36.8287362129  TIP3      3635            0.0000000000
     60738      4036  TIP3      OH2           -41.0995406569        5.4854437975       24.9985671496  TIP3      3636            0.0000000000
     60739      4036  TIP3      H1            -40.7757131855        4.5722949677       25.1797351782  TIP3      3636            0.0000000000
     60740      4036  TIP3      H2            -40.2938977549        5.9158735729       24.6707952246  TIP3      3636            0.0000000000
     60741      4037  TIP3      OH2           -40.4639659636        6.0422889698       30.4706407071  TIP3      3637            0.0000000000
     60742      4037  TIP3      H1            -39.5067181437        6.2795078157       30.4529751588  TIP3      3637            0.0000000000
     60743      4037  TIP3      H2            -40.6684674849        6.1774144511       31.4095538258  TIP3      3637            0.0000000000
     60744      4038  TIP3      OH2           -40.4030290447        6.7714308203       33.2540070403  TIP3      3638            0.0000000000
     60745      4038  TIP3      H1            -41.2727046180        7.0668291387       33.6029725726  TIP3      3638            0.0000000000
     60746      4038  TIP3      H2            -39.9696671137        7.6315862936       33.0370939709  TIP3      3638            0.0000000000
     60747      4039  TIP3      OH2           -56.1262994808        5.2751185756       36.7401162811  TIP3      3639            0.0000000000
     60748      4039  TIP3      H1            -55.1953108276        5.1088226970       36.9723932479  TIP3      3639            0.0000000000
     60749      4039  TIP3      H2            -56.5753163492        4.4754386413       37.1021941492  TIP3      3639            0.0000000000
     60750      4040  TIP3      OH2           -38.1331971196        0.7927935617       38.6021539263  TIP3      3640            0.0000000000
     60751      4040  TIP3      H1            -37.7802165896        0.1335896399       37.9883440044  TIP3      3640            0.0000000000
     60752      4040  TIP3      H2            -37.9983680774        1.6290144194       38.1248104197  TIP3      3640            0.0000000000
     60753      4041  TIP3      OH2           -40.4412077511        2.7679540094       25.0612783677  TIP3      3641            0.0000000000
     60754      4041  TIP3      H1            -40.2467886389        2.3160995410       25.9162151638  TIP3      3641            0.0000000000
     60755      4041  TIP3      H2            -41.0567041136        2.1348293700       24.6401028751  TIP3      3641            0.0000000000
     60756      4042  TIP3      OH2           -54.9158715779        3.5818470650       29.6038843158  TIP3      3642            0.0000000000
     60757      4042  TIP3      H1            -54.4906804036        2.7631145400       29.9254780185  TIP3      3642            0.0000000000
     60758      4042  TIP3      H2            -54.4476369947        4.2913388855       30.0540027962  TIP3      3642            0.0000000000
     60759      4043  TIP3      OH2           -56.5897425400        6.5579500689       30.7127362309  TIP3      3643            0.0000000000
     60760      4043  TIP3      H1            -56.0932781560        6.3547246677       29.9003214626  TIP3      3643            0.0000000000
     60761      4043  TIP3      H2            -56.2256858330        7.4158485090       30.9561465890  TIP3      3643            0.0000000000
     60762      4044  TIP3      OH2           -38.6014161531        2.9068359086       36.9658967804  TIP3      3644            0.0000000000
     60763      4044  TIP3      H1            -39.5446722765        3.1699585540       36.9120039195  TIP3      3644            0.0000000000
     60764      4044  TIP3      H2            -38.5289494951        2.3650038406       36.1630390243  TIP3      3644            0.0000000000
     60765      4045  TIP3      OH2            56.5397940834        2.8510442659       24.7752489564  TIP3      3645            0.0000000000
     60766      4045  TIP3      H1             55.6005562515        3.0267360520       24.6041568977  TIP3      3645            0.0000000000
     60767      4045  TIP3      H2             56.9817016576        3.2973999343       24.0296004542  TIP3      3645            0.0000000000
     60768      4046  TIP3      OH2           -41.5631170030       17.7989030653       26.7028698661  TIP3      3646            0.0000000000
     60769      4046  TIP3      H1            -40.8825879333       17.4715706230       26.0797837313  TIP3      3646            0.0000000000
     60770      4046  TIP3      H2            -41.0191499006       18.2942559697       27.3347121733  TIP3      3646            0.0000000000
     60771      4047  TIP3      OH2            56.5276142158        1.5231730729       33.0526030230  TIP3      3647            0.0000000000
     60772      4047  TIP3      H1             55.8553679069        1.3266497488       33.7343071427  TIP3      3647            0.0000000000
     60773      4047  TIP3      H2             56.0525630706        2.1847101399       32.5027054729  TIP3      3647            0.0000000000
     60774      4048  TIP3      OH2           -54.1326484239       14.7410084879       37.2306180750  TIP3      3648            0.0000000000
     60775      4048  TIP3      H1            -54.9674462674       14.8899998003       36.7792552687  TIP3      3648            0.0000000000
     60776      4048  TIP3      H2            -54.3880402975       14.6493696676       38.1566350716  TIP3      3648            0.0000000000
     60777      4049  TIP3      OH2           -51.2107256333       15.6977716346       33.4919912715  TIP3      3649            0.0000000000
     60778      4049  TIP3      H1            -51.5989686841       16.5384167872       33.2052323264  TIP3      3649            0.0000000000
     60779      4049  TIP3      H2            -50.2847544996       15.8026737648       33.1814497784  TIP3      3649            0.0000000000
     60780      4050  TIP3      OH2           -46.8907130054       17.1213541794       36.4193222645  TIP3      3650            0.0000000000
     60781      4050  TIP3      H1            -46.7115913629       16.7743040630       37.3303536512  TIP3      3650            0.0000000000
     60782      4050  TIP3      H2            -46.0061900368       17.4234242891       36.1401999391  TIP3      3650            0.0000000000
     60783      4051  TIP3      OH2           -44.5744896768       18.3941280044       35.6878761923  TIP3      3651            0.0000000000
     60784      4051  TIP3      H1            -43.8569663311       17.7797963487       35.4593270973  TIP3      3651            0.0000000000
     60785      4051  TIP3      H2            -44.2094560204       18.8075589114       36.5018875528  TIP3      3651            0.0000000000
     60786      4052  TIP3      OH2           -39.5972891580        1.0034727054       34.7950570912  TIP3      3652            0.0000000000
     60787      4052  TIP3      H1            -40.4273861790        1.3055170262       34.3814905639  TIP3      3652            0.0000000000
     60788      4052  TIP3      H2            -39.4004571804        0.2076027964       34.2502778413  TIP3      3652            0.0000000000
     60789      4053  TIP3      OH2           -53.7886436997       18.9379049155       33.5095832152  TIP3      3653            0.0000000000
     60790      4053  TIP3      H1            -54.5222400716       19.4246777309       33.0874748376  TIP3      3653            0.0000000000
     60791      4053  TIP3      H2            -54.1466451623       18.7364869752       34.3903500411  TIP3      3653            0.0000000000
     60792      4054  TIP3      OH2           -51.2963503240       18.5434736884       32.5702218801  TIP3      3654            0.0000000000
     60793      4054  TIP3      H1            -52.1944162100       18.6509351687       32.9647517145  TIP3      3654            0.0000000000
     60794      4054  TIP3      H2            -51.3782266170       19.1160908252       31.7803315839  TIP3      3654            0.0000000000
     60795      4055  TIP3      OH2           -46.6026747752       18.4430532197       31.7149984525  TIP3      3655            0.0000000000
     60796      4055  TIP3      H1            -47.0838470865       19.0015642348       31.0986157644  TIP3      3655            0.0000000000
     60797      4055  TIP3      H2            -46.4590568226       19.0602983880       32.4730862113  TIP3      3655            0.0000000000
     60798      4056  TIP3      OH2           -44.2906093065       17.2894234682       32.6967300339  TIP3      3656            0.0000000000
     60799      4056  TIP3      H1            -45.1866354937       17.5140573683       32.4157385606  TIP3      3656            0.0000000000
     60800      4056  TIP3      H2            -43.8489877486       18.1555367726       32.6385372843  TIP3      3656            0.0000000000
     60801      4057  TIP3      OH2           -41.7032183368       18.8576250836       32.9936913666  TIP3      3657            0.0000000000
     60802      4057  TIP3      H1            -41.8374230838       19.8096954368       32.7579883964  TIP3      3657            0.0000000000
     60803      4057  TIP3      H2            -41.5115479454       18.4793597887       32.1157195569  TIP3      3657            0.0000000000
     60804      4058  TIP3      OH2           -54.3190928007       17.6222069688       30.4292063504  TIP3      3658            0.0000000000
     60805      4058  TIP3      H1            -54.3893559663       17.1481874386       31.2950123318  TIP3      3658            0.0000000000
     60806      4058  TIP3      H2            -53.5256389345       17.2402434523       30.0252799275  TIP3      3658            0.0000000000
     60807      4059  TIP3      OH2           -52.2668178377       16.3143471074       29.1003176103  TIP3      3659            0.0000000000
     60808      4059  TIP3      H1            -52.4364705989       15.3734498799       29.2864212986  TIP3      3659            0.0000000000
     60809      4059  TIP3      H2            -51.4120907305       16.4421129050       29.5621854757  TIP3      3659            0.0000000000
     60810      4060  TIP3      OH2           -49.6526676591       16.7936875472       29.9421502892  TIP3      3660            0.0000000000
     60811      4060  TIP3      H1            -49.4993050175       15.8645083237       29.6796333288  TIP3      3660            0.0000000000
     60812      4060  TIP3      H2            -49.6292687219       16.7226343911       30.9122187014  TIP3      3660            0.0000000000
     60813      4061  TIP3      OH2           -46.2103057470        2.4478459165       29.0888361651  TIP3      3661            0.0000000000
     60814      4061  TIP3      H1            -46.8557274172        1.7795031120       29.3586301737  TIP3      3661            0.0000000000
     60815      4061  TIP3      H2            -45.6283008493        1.9321778555       28.5050057780  TIP3      3661            0.0000000000
     60816      4062  TIP3      OH2           -41.0539015845        0.5114278785       29.2006156142  TIP3      3662            0.0000000000
     60817      4062  TIP3      H1            -40.4350855110        1.0895525729       28.6820172868  TIP3      3662            0.0000000000
     60818      4062  TIP3      H2            -41.9301501243        0.8577635870       28.9492129361  TIP3      3662            0.0000000000
     60819      4063  TIP3      OH2           -39.3632471483        1.7027419829       27.5089360648  TIP3      3663            0.0000000000
     60820      4063  TIP3      H1            -38.6959480427        1.1603739530       27.0201661896  TIP3      3663            0.0000000000
     60821      4063  TIP3      H2            -38.9083044891        2.5698796687       27.5646132522  TIP3      3663            0.0000000000
     60822      4064  TIP3      OH2           -53.8333079890        1.0787812456       26.9443361569  TIP3      3664            0.0000000000
     60823      4064  TIP3      H1            -54.6265801003        0.8426932799       26.4114884542  TIP3      3664            0.0000000000
     60824      4064  TIP3      H2            -53.3367510275        0.2398047852       26.9018019707  TIP3      3664            0.0000000000
     60825      4065  TIP3      OH2           -49.3149042193        1.0052860605       26.7317039847  TIP3      3665            0.0000000000
     60826      4065  TIP3      H1            -48.4119287987        1.3635728816       26.6832349807  TIP3      3665            0.0000000000
     60827      4065  TIP3      H2            -49.3982219452        0.7624209804       27.6515926087  TIP3      3665            0.0000000000
     60828      4066  TIP3      OH2           -43.6888484889        1.0246140956       28.3716871754  TIP3      3666            0.0000000000
     60829      4066  TIP3      H1            -43.6621671041        1.1137218895       27.4126508575  TIP3      3666            0.0000000000
     60830      4066  TIP3      H2            -44.0141537945        0.1022452884       28.4976047274  TIP3      3666            0.0000000000
     60831      4067  TIP3      OH2           -42.3602189926        1.0691087239       24.0429128737  TIP3      3667            0.0000000000
     60832      4067  TIP3      H1            -43.1078710022        1.6478037555       23.8688021984  TIP3      3667            0.0000000000
     60833      4067  TIP3      H2            -42.8191021693        0.1990960767       24.2130440791  TIP3      3667            0.0000000000
     60834      4068  TIP3      OH2           -55.1195810418       16.7927177905       23.6682962000  TIP3      3668            0.0000000000
     60835      4068  TIP3      H1            -55.7911932959       16.7610148440       22.9514624610  TIP3      3668            0.0000000000
     60836      4068  TIP3      H2            -55.1226790160       17.7296339600       23.8795362169  TIP3      3668            0.0000000000
     60837      4069  TIP3      OH2           -53.1702300015        2.7726730139       21.1684061826  TIP3      3669            0.0000000000
     60838      4069  TIP3      H1            -52.6755013980        2.1364381257       20.6404311416  TIP3      3669            0.0000000000
     60839      4069  TIP3      H2            -52.5302528100        3.0803951798       21.8250292054  TIP3      3669            0.0000000000
     60840      4070  TIP3      OH2           -48.1693708487        3.0516218116       23.5908035990  TIP3      3670            0.0000000000
     60841      4070  TIP3      H1            -47.9458824131        2.4357350128       24.3063193882  TIP3      3670            0.0000000000
     60842      4070  TIP3      H2            -48.1629887877        3.9013791922       24.0754622369  TIP3      3670            0.0000000000
     60843      4071  TIP3      OH2           -39.5545923475       17.5992405835       24.7372055411  TIP3      3671            0.0000000000
     60844      4071  TIP3      H1            -39.7531313013       16.8265709624       24.1465719585  TIP3      3671            0.0000000000
     60845      4071  TIP3      H2            -39.6090325493       18.3356907666       24.0955158731  TIP3      3671            0.0000000000
     60846      4072  TIP3      OH2           -53.9264231639        1.6060640592       36.4001802938  TIP3      3672            0.0000000000
     60847      4072  TIP3      H1            -54.2844665279        0.8160060307       36.8517634492  TIP3      3672            0.0000000000
     60848      4072  TIP3      H2            -53.0018561834        1.5909590766       36.7379633008  TIP3      3672            0.0000000000
     60849      4073  TIP3      OH2           -51.9257230388        0.9809603647       38.0018608562  TIP3      3673            0.0000000000
     60850      4073  TIP3      H1            -51.0338531350        0.6429085350       37.7860886183  TIP3      3673            0.0000000000
     60851      4073  TIP3      H2            -52.3190070765        0.1924091716       38.4339924878  TIP3      3673            0.0000000000
     60852      4074  TIP3      OH2           -43.5234865035        0.2788618608       38.1643221160  TIP3      3674            0.0000000000
     60853      4074  TIP3      H1            -43.4255239046       -0.1815605188       39.0196448244  TIP3      3674            0.0000000000
     60854      4074  TIP3      H2            -42.6072169278        0.2653600312       37.8194214199  TIP3      3674            0.0000000000
     60855      4075  TIP3      OH2           -40.3202792429       16.3195772824       36.8519812134  TIP3      3675            0.0000000000
     60856      4075  TIP3      H1            -41.1235148111       16.1681273759       36.3081158257  TIP3      3675            0.0000000000
     60857      4075  TIP3      H2            -40.4200286225       17.2755126589       37.0485937691  TIP3      3675            0.0000000000
     60858      4076  TIP3      OH2           -25.8645523102       10.2205782780       26.8493047816  TIP3      3676            0.0000000000
     60859      4076  TIP3      H1            -25.8959656085       11.1899976732       26.7390303999  TIP3      3676            0.0000000000
     60860      4076  TIP3      H2            -26.5759068741        9.9560546944       26.2234544928  TIP3      3676            0.0000000000
     60861      4077  TIP3      OH2           -26.9937142059        9.4772520816       30.2984279515  TIP3      3677            0.0000000000
     60862      4077  TIP3      H1            -27.0401807244        8.8238505146       31.0080897433  TIP3      3677            0.0000000000
     60863      4077  TIP3      H2            -27.3421747194        8.9854891268       29.5357861441  TIP3      3677            0.0000000000
     60864      4078  TIP3      OH2           -34.6500547242        9.1129848288       31.8655567091  TIP3      3678            0.0000000000
     60865      4078  TIP3      H1            -34.5788706226        8.4565456813       32.5918706232  TIP3      3678            0.0000000000
     60866      4078  TIP3      H2            -33.9188376311        9.7109699370       32.0752882431  TIP3      3678            0.0000000000
     60867      4079  TIP3      OH2           -23.2943371108       12.5535592991       28.7864634744  TIP3      3679            0.0000000000
     60868      4079  TIP3      H1            -23.7468363964       11.7830059806       29.1790991729  TIP3      3679            0.0000000000
     60869      4079  TIP3      H2            -23.3412142130       13.2735742261       29.4419508019  TIP3      3679            0.0000000000
     60870      4080  TIP3      OH2           -33.7230221702       13.5667852409       30.4034609864  TIP3      3680            0.0000000000
     60871      4080  TIP3      H1            -34.0612410195       12.7253220052       30.0455527111  TIP3      3680            0.0000000000
     60872      4080  TIP3      H2            -32.7680046956       13.3762553344       30.4439029031  TIP3      3680            0.0000000000
     60873      4081  TIP3      OH2           -37.0788124430        7.1718519978       25.8380110794  TIP3      3681            0.0000000000
     60874      4081  TIP3      H1            -37.5416848875        8.0364918527       25.7890841061  TIP3      3681            0.0000000000
     60875      4081  TIP3      H2            -37.6544712329        6.6211092580       25.2951634199  TIP3      3681            0.0000000000
     60876      4082  TIP3      OH2           -36.3919264788        9.3707134728       27.9579453319  TIP3      3682            0.0000000000
     60877      4082  TIP3      H1            -36.1463079707        8.5710074981       28.4579187184  TIP3      3682            0.0000000000
     60878      4082  TIP3      H2            -35.6564871611        9.4576195957       27.3292526519  TIP3      3682            0.0000000000
     60879      4083  TIP3      OH2           -26.1994974916       17.5508852620       28.8139027335  TIP3      3683            0.0000000000
     60880      4083  TIP3      H1            -25.5570288346       16.8471347309       28.5398723209  TIP3      3683            0.0000000000
     60881      4083  TIP3      H2            -26.3957055659       17.2734209042       29.7081349108  TIP3      3683            0.0000000000
     60882      4084  TIP3      OH2           -28.6338001132       11.8958316249       30.7293857996  TIP3      3684            0.0000000000
     60883      4084  TIP3      H1            -28.3042065298       11.2256393143       30.1112430830  TIP3      3684            0.0000000000
     60884      4084  TIP3      H2            -27.8594191546       12.0235437516       31.3043005722  TIP3      3684            0.0000000000
     60885      4085  TIP3      OH2           -19.9851602479        3.4956212799       31.5331307370  TIP3      3685            0.0000000000
     60886      4085  TIP3      H1            -19.8807603483        4.1269437862       32.2824687945  TIP3      3685            0.0000000000
     60887      4085  TIP3      H2            -19.4979908617        3.9636958511       30.8377411071  TIP3      3685            0.0000000000
     60888      4086  TIP3      OH2           -25.4739131820        6.3238301765       31.0639326216  TIP3      3686            0.0000000000
     60889      4086  TIP3      H1            -25.3203072516        5.3596340030       31.0553062428  TIP3      3686            0.0000000000
     60890      4086  TIP3      H2            -25.5745655813        6.4899484896       30.1033077959  TIP3      3686            0.0000000000
     60891      4087  TIP3      OH2           -32.3294364500        4.4110195633       28.3120825382  TIP3      3687            0.0000000000
     60892      4087  TIP3      H1            -32.2644526377        5.2644285567       27.8528804860  TIP3      3687            0.0000000000
     60893      4087  TIP3      H2            -32.7680902679        3.8479919813       27.6396321235  TIP3      3687            0.0000000000
     60894      4088  TIP3      OH2           -24.6145771701        4.5201221433       26.6819499542  TIP3      3688            0.0000000000
     60895      4088  TIP3      H1            -23.9434484321        4.1981702210       27.3332488909  TIP3      3688            0.0000000000
     60896      4088  TIP3      H2            -24.0653460135        5.0650472141       26.0994203140  TIP3      3688            0.0000000000
     60897      4089  TIP3      OH2           -35.7182854140        6.8213943995       29.0543537303  TIP3      3689            0.0000000000
     60898      4089  TIP3      H1            -35.0435652805        6.2588371515       29.4903898612  TIP3      3689            0.0000000000
     60899      4089  TIP3      H2            -35.6501278945        6.5200616867       28.1357929919  TIP3      3689            0.0000000000
     60900      4090  TIP3      OH2           -30.5497477789        8.3771878702       28.3114737814  TIP3      3690            0.0000000000
     60901      4090  TIP3      H1            -29.9125470321        7.8086833457       28.7733209877  TIP3      3690            0.0000000000
     60902      4090  TIP3      H2            -31.1110355066        7.7090198161       27.8659558352  TIP3      3690            0.0000000000
     60903      4091  TIP3      OH2           -19.5658210171        4.9615312835       33.7841984510  TIP3      3691            0.0000000000
     60904      4091  TIP3      H1            -20.2302456756        5.6800354188       33.6929595197  TIP3      3691            0.0000000000
     60905      4091  TIP3      H2            -19.5500047414        4.8226537121       34.7369333218  TIP3      3691            0.0000000000
     60906      4092  TIP3      OH2           -33.4730590151        3.3137517726       32.3602592292  TIP3      3692            0.0000000000
     60907      4092  TIP3      H1            -33.7311433684        3.8716542083       31.6011901919  TIP3      3692            0.0000000000
     60908      4092  TIP3      H2            -34.1633578361        3.5536919361       33.0276452253  TIP3      3692            0.0000000000
     60909      4093  TIP3      OH2           -26.1151558952       12.8046520260       25.9146436988  TIP3      3693            0.0000000000
     60910      4093  TIP3      H1            -26.4404949693       12.5186500067       25.0460529030  TIP3      3693            0.0000000000
     60911      4093  TIP3      H2            -26.4676422952       13.7268182220       25.9540268217  TIP3      3693            0.0000000000
     60912      4094  TIP3      OH2           -30.9300081941       10.9704939147       32.6303268605  TIP3      3694            0.0000000000
     60913      4094  TIP3      H1            -31.6622022483       11.6071155475       32.7814368162  TIP3      3694            0.0000000000
     60914      4094  TIP3      H2            -30.2248539067       11.5612608614       32.3269676608  TIP3      3694            0.0000000000
     60915      4095  TIP3      OH2           -22.8294522153        3.8385022245       28.6721829247  TIP3      3695            0.0000000000
     60916      4095  TIP3      H1            -23.0353827927        3.0672690557       29.2115889561  TIP3      3695            0.0000000000
     60917      4095  TIP3      H2            -22.1572688819        4.2944329404       29.2105476064  TIP3      3695            0.0000000000
     60918      4096  TIP3      OH2           -33.9150939596        5.1949862573       30.3466797083  TIP3      3696            0.0000000000
     60919      4096  TIP3      H1            -33.2716872735        5.8569028971       30.6923909311  TIP3      3696            0.0000000000
     60920      4096  TIP3      H2            -33.3776616000        4.7467445347       29.6508822539  TIP3      3696            0.0000000000
     60921      4097  TIP3      OH2           -32.5019377592       12.9501972805       33.4245404763  TIP3      3697            0.0000000000
     60922      4097  TIP3      H1            -32.5364715687       13.8591082600       33.0677483506  TIP3      3697            0.0000000000
     60923      4097  TIP3      H2            -33.3867818412       12.8838466367       33.8671226937  TIP3      3697            0.0000000000
     60924      4098  TIP3      OH2           -36.4216225696       12.6033396959       24.2182273707  TIP3      3698            0.0000000000
     60925      4098  TIP3      H1            -36.6651392668       12.8798838773       23.3272913265  TIP3      3698            0.0000000000
     60926      4098  TIP3      H2            -36.3498619802       13.4599907086       24.6930153355  TIP3      3698            0.0000000000
     60927      4099  TIP3      OH2           -22.7833944065       14.2416036518       30.9394009590  TIP3      3699            0.0000000000
     60928      4099  TIP3      H1            -23.7457363653       14.3384902890       31.1033479879  TIP3      3699            0.0000000000
     60929      4099  TIP3      H2            -22.5132210022       15.1734095905       30.7922734390  TIP3      3699            0.0000000000
     60930      4100  TIP3      OH2           -22.4767783966        2.5361313711       32.3575676262  TIP3      3700            0.0000000000
     60931      4100  TIP3      H1            -23.2117141600        3.1601750812       32.2959098154  TIP3      3700            0.0000000000
     60932      4100  TIP3      H2            -21.7810941504        2.9590152506       31.8234284223  TIP3      3700            0.0000000000
     60933      4101  TIP3      OH2           -29.4816119025        0.6423237561       29.8135445106  TIP3      3701            0.0000000000
     60934      4101  TIP3      H1            -29.6107024183       -0.3242920890       29.7577885207  TIP3      3701            0.0000000000
     60935      4101  TIP3      H2            -30.3581570323        0.9580094257       30.1066061652  TIP3      3701            0.0000000000
     60936      4102  TIP3      OH2           -24.5332070333       16.0255354005       27.5697296133  TIP3      3702            0.0000000000
     60937      4102  TIP3      H1            -24.0987389857       15.3285047099       27.0530053301  TIP3      3702            0.0000000000
     60938      4102  TIP3      H2            -24.1785855276       16.8391077977       27.1510089603  TIP3      3702            0.0000000000
     60939      4103  TIP3      OH2           -23.3278230682       13.9303571425       26.0631067957  TIP3      3703            0.0000000000
     60940      4103  TIP3      H1            -23.6407701177       13.2599243583       25.4364257623  TIP3      3703            0.0000000000
     60941      4103  TIP3      H2            -23.3054242474       13.5201964451       26.9282431722  TIP3      3703            0.0000000000
     60942      4104  TIP3      OH2           -21.6955922681       12.5262496357       34.5670673852  TIP3      3704            0.0000000000
     60943      4104  TIP3      H1            -21.5474314097       11.8934194363       33.8252498153  TIP3      3704            0.0000000000
     60944      4104  TIP3      H2            -21.5102623156       13.3866770115       34.1626593522  TIP3      3704            0.0000000000
     60945      4105  TIP3      OH2           -27.1989308638        9.4773044451       24.3400081745  TIP3      3705            0.0000000000
     60946      4105  TIP3      H1            -27.9232920001        9.9997873672       23.9525737457  TIP3      3705            0.0000000000
     60947      4105  TIP3      H2            -26.5162909086        9.5238999627       23.6401057881  TIP3      3705            0.0000000000
     60948      4106  TIP3      OH2           -19.8239578410        8.8049632175       32.2177339127  TIP3      3706            0.0000000000
     60949      4106  TIP3      H1            -20.4120289793        9.4969051678       32.6520965296  TIP3      3706            0.0000000000
     60950      4106  TIP3      H2            -19.2548786320        9.2090690520       31.6194556771  TIP3      3706            0.0000000000
     60951      4107  TIP3      OH2           -23.7482205269        9.7184312495       25.3021572141  TIP3      3707            0.0000000000
     60952      4107  TIP3      H1            -24.5638220515        9.8693906847       25.8346482402  TIP3      3707            0.0000000000
     60953      4107  TIP3      H2            -23.3378875106        8.9417008336       25.7329523547  TIP3      3707            0.0000000000
     60954      4108  TIP3      OH2           -23.9016365010        7.8115459909       34.3608374348  TIP3      3708            0.0000000000
     60955      4108  TIP3      H1            -23.8126374250        8.6221389271       34.8966677516  TIP3      3708            0.0000000000
     60956      4108  TIP3      H2            -24.4943421640        8.1356215695       33.6560399532  TIP3      3708            0.0000000000
     60957      4109  TIP3      OH2           -32.1511545094       10.3289699026       27.1612186018  TIP3      3709            0.0000000000
     60958      4109  TIP3      H1            -32.4847893827        9.9249747168       26.3246214262  TIP3      3709            0.0000000000
     60959      4109  TIP3      H2            -31.5544217702        9.6227351452       27.5008406192  TIP3      3709            0.0000000000
     60960      4110  TIP3      OH2           -30.8179100642       13.7307724857       29.8433675089  TIP3      3710            0.0000000000
     60961      4110  TIP3      H1            -30.8673747454       13.1596252293       29.0663077958  TIP3      3710            0.0000000000
     60962      4110  TIP3      H2            -30.0540206818       13.3520364917       30.3160480413  TIP3      3710            0.0000000000
     60963      4111  TIP3      OH2           -31.8101451540        9.0632526442       30.8026147825  TIP3      3711            0.0000000000
     60964      4111  TIP3      H1            -31.2355875016        9.1893786928       30.0243277568  TIP3      3711            0.0000000000
     60965      4111  TIP3      H2            -31.4583364613        9.7220139816       31.4337483547  TIP3      3711            0.0000000000
     60966      4112  TIP3      OH2           -25.4505185648       14.6070636351       31.5067478970  TIP3      3712            0.0000000000
     60967      4112  TIP3      H1            -25.7138907226       15.2443486497       32.1759658729  TIP3      3712            0.0000000000
     60968      4112  TIP3      H2            -25.6816609087       13.7551024563       31.9589581082  TIP3      3712            0.0000000000
     60969      4113  TIP3      OH2           -30.8861584226       13.4766315605       35.5144898268  TIP3      3713            0.0000000000
     60970      4113  TIP3      H1            -31.2490992301       14.2520423108       35.9838227162  TIP3      3713            0.0000000000
     60971      4113  TIP3      H2            -31.5643297253       13.3075100855       34.8152755372  TIP3      3713            0.0000000000
     60972      4114  TIP3      OH2           -24.9037528705        8.8199152607       22.9468173087  TIP3      3714            0.0000000000
     60973      4114  TIP3      H1            -24.3397967263        9.0129251482       23.7153439379  TIP3      3714            0.0000000000
     60974      4114  TIP3      H2            -24.5115471506        9.3389009830       22.2249851587  TIP3      3714            0.0000000000
     60975      4115  TIP3      OH2           -33.9596963401        9.6538451715       34.7078219472  TIP3      3715            0.0000000000
     60976      4115  TIP3      H1            -33.9156859744       10.3235756430       35.4213571741  TIP3      3715            0.0000000000
     60977      4115  TIP3      H2            -34.8813150743        9.7653242073       34.4297460861  TIP3      3715            0.0000000000
     60978      4116  TIP3      OH2           -27.1893700078       15.5626210183       26.3975902828  TIP3      3716            0.0000000000
     60979      4116  TIP3      H1            -26.7414970848       15.8817221166       27.1869580768  TIP3      3716            0.0000000000
     60980      4116  TIP3      H2            -27.7555279683       16.3103749247       26.1555786330  TIP3      3716            0.0000000000
     60981      4117  TIP3      OH2           -32.6479331453       15.5413274303       36.2739671574  TIP3      3717            0.0000000000
     60982      4117  TIP3      H1            -32.6762093789       15.4138650515       35.3110952142  TIP3      3717            0.0000000000
     60983      4117  TIP3      H2            -33.5861722521       15.4167611785       36.5234363994  TIP3      3717            0.0000000000
     60984      4118  TIP3      OH2           -33.1733383734        9.3585960728       24.7678320710  TIP3      3718            0.0000000000
     60985      4118  TIP3      H1            -33.4724454024       10.1335677307       24.2545727447  TIP3      3718            0.0000000000
     60986      4118  TIP3      H2            -33.8410838692        8.6986077018       24.5592087214  TIP3      3718            0.0000000000
     60987      4119  TIP3      OH2           -37.0815563487       11.7591097289       33.6123833024  TIP3      3719            0.0000000000
     60988      4119  TIP3      H1            -37.5640104036       11.6929121960       32.7681100953  TIP3      3719            0.0000000000
     60989      4119  TIP3      H2            -37.0539391942       10.8192039899       33.8708778627  TIP3      3719            0.0000000000
     60990      4120  TIP3      OH2           -37.3308965617       14.5038485442       30.4492846243  TIP3      3720            0.0000000000
     60991      4120  TIP3      H1            -36.3746101995       14.3803407089       30.4296378226  TIP3      3720            0.0000000000
     60992      4120  TIP3      H2            -37.4265372054       15.3097180797       30.9743334062  TIP3      3720            0.0000000000
     60993      4121  TIP3      OH2           -19.1031007802       15.1977876089       36.1130476505  TIP3      3721            0.0000000000
     60994      4121  TIP3      H1            -19.1979857742       14.2329819914       36.1073798142  TIP3      3721            0.0000000000
     60995      4121  TIP3      H2            -19.9632590049       15.4460883212       36.5376307055  TIP3      3721            0.0000000000
     60996      4122  TIP3      OH2           -28.1393429493       14.7488535717       34.9956107298  TIP3      3722            0.0000000000
     60997      4122  TIP3      H1            -28.0674170627       15.5918221088       35.5011497604  TIP3      3722            0.0000000000
     60998      4122  TIP3      H2            -29.0164603385       14.4112683538       35.2556853854  TIP3      3722            0.0000000000
     60999      4123  TIP3      OH2           -27.7293296155       18.4982971713       24.8015406618  TIP3      3723            0.0000000000
     61000      4123  TIP3      H1            -27.8136554481       18.4127349529       23.8487735951  TIP3      3723            0.0000000000
     61001      4123  TIP3      H2            -27.6990310552       19.4653667277       24.9382945014  TIP3      3723            0.0000000000
     61002      4124  TIP3      OH2           -34.0667408184       17.3514488299       26.6022408107  TIP3      3724            0.0000000000
     61003      4124  TIP3      H1            -33.9268106159       16.9554918535       27.4887731010  TIP3      3724            0.0000000000
     61004      4124  TIP3      H2            -34.9209205368       16.9585956390       26.3542700095  TIP3      3724            0.0000000000
     61005      4125  TIP3      OH2           -24.6467661421       17.6916788019       21.7874265510  TIP3      3725            0.0000000000
     61006      4125  TIP3      H1            -24.2688465394       16.9267258650       21.3355006529  TIP3      3725            0.0000000000
     61007      4125  TIP3      H2            -24.6339072580       17.4189646623       22.7241748428  TIP3      3725            0.0000000000
     61008      4126  TIP3      OH2           -24.9614218010       17.6341437164       24.5655661863  TIP3      3726            0.0000000000
     61009      4126  TIP3      H1            -25.9177716283       17.7054121344       24.7440096527  TIP3      3726            0.0000000000
     61010      4126  TIP3      H2            -24.6928965243       16.8984361887       25.1369554969  TIP3      3726            0.0000000000
     61011      4127  TIP3      OH2           -22.0176363379        6.6487110051       36.6531294012  TIP3      3727            0.0000000000
     61012      4127  TIP3      H1            -22.3650526792        7.1596887513       35.8883221766  TIP3      3727            0.0000000000
     61013      4127  TIP3      H2            -21.9390590144        5.7646519288       36.2852894949  TIP3      3727            0.0000000000
     61014      4128  TIP3      OH2           -34.8204220619       13.0779122843       34.6040274396  TIP3      3728            0.0000000000
     61015      4128  TIP3      H1            -34.5995868516       12.7030445181       35.4811231210  TIP3      3728            0.0000000000
     61016      4128  TIP3      H2            -35.6882852704       12.6804162671       34.3931493774  TIP3      3728            0.0000000000
     61017      4129  TIP3      OH2           -32.1640679655        1.5340057900       30.5855479860  TIP3      3729            0.0000000000
     61018      4129  TIP3      H1            -33.0636269103        1.4420408549       30.1948003545  TIP3      3729            0.0000000000
     61019      4129  TIP3      H2            -32.2468934262        2.3893935223       31.0343798071  TIP3      3729            0.0000000000
     61020      4130  TIP3      OH2           -27.5151181213        1.2465658947       33.9503413450  TIP3      3730            0.0000000000
     61021      4130  TIP3      H1            -27.1129553423        0.8211912809       34.7285594890  TIP3      3730            0.0000000000
     61022      4130  TIP3      H2            -28.4816132500        1.0831929146       34.0864360065  TIP3      3730            0.0000000000
     61023      4131  TIP3      OH2           -24.2099618891        5.0307062244       34.8195769895  TIP3      3731            0.0000000000
     61024      4131  TIP3      H1            -24.7435719609        4.8727717804       35.6310164942  TIP3      3731            0.0000000000
     61025      4131  TIP3      H2            -24.3650512821        5.9596310178       34.5851481249  TIP3      3731            0.0000000000
     61026      4132  TIP3      OH2           -27.8133472445        3.7257716901       21.2736993789  TIP3      3732            0.0000000000
     61027      4132  TIP3      H1            -28.1584023322        3.7597271498       22.1886635366  TIP3      3732            0.0000000000
     61028      4132  TIP3      H2            -28.1650920055        2.8854503323       20.9678827194  TIP3      3732            0.0000000000
     61029      4133  TIP3      OH2           -32.0722174688        6.4988487155       31.7441735702  TIP3      3733            0.0000000000
     61030      4133  TIP3      H1            -32.7691310501        6.4777514580       32.4257286564  TIP3      3733            0.0000000000
     61031      4133  TIP3      H2            -32.0805763995        7.4362590728       31.4490665095  TIP3      3733            0.0000000000
     61032      4134  TIP3      OH2           -32.0948064222        6.6957563633       26.6485636799  TIP3      3734            0.0000000000
     61033      4134  TIP3      H1            -33.0160177538        6.3817807428       26.5397483609  TIP3      3734            0.0000000000
     61034      4134  TIP3      H2            -31.6803262186        6.3456275589       25.8353545160  TIP3      3734            0.0000000000
     61035      4135  TIP3      OH2           -26.5626929557        7.1401510668       25.4442684743  TIP3      3735            0.0000000000
     61036      4135  TIP3      H1            -26.9857117369        7.9589231647       25.1073495282  TIP3      3735            0.0000000000
     61037      4135  TIP3      H2            -25.8686686722        6.9839096046       24.7875325450  TIP3      3735            0.0000000000
     61038      4136  TIP3      OH2           -27.4824199099        7.3377970870       36.8989567206  TIP3      3736            0.0000000000
     61039      4136  TIP3      H1            -28.0375502186        6.5877935718       37.2207223164  TIP3      3736            0.0000000000
     61040      4136  TIP3      H2            -26.6502339469        7.2026635436       37.3792525412  TIP3      3736            0.0000000000
     61041      4137  TIP3      OH2           -25.5411732093        6.6169078016       28.2680704863  TIP3      3737            0.0000000000
     61042      4137  TIP3      H1            -25.7949390705        7.1726990007       27.5155632567  TIP3      3737            0.0000000000
     61043      4137  TIP3      H2            -25.4052677502        5.7628331853       27.8040240328  TIP3      3737            0.0000000000
     61044      4138  TIP3      OH2           -34.3835461029        6.8069261343       33.5310239681  TIP3      3738            0.0000000000
     61045      4138  TIP3      H1            -34.3790457899        7.2078252853       34.4175954173  TIP3      3738            0.0000000000
     61046      4138  TIP3      H2            -34.8579700136        5.9756680989       33.6776916806  TIP3      3738            0.0000000000
     61047      4139  TIP3      OH2           -31.0238522067        4.1783310447       20.3394961075  TIP3      3739            0.0000000000
     61048      4139  TIP3      H1            -31.4543118503        3.7422521794       21.0971148299  TIP3      3739            0.0000000000
     61049      4139  TIP3      H2            -31.7488266912        4.5662962339       19.8442897065  TIP3      3739            0.0000000000
     61050      4140  TIP3      OH2           -37.7662497262        3.9190411717       27.4317292764  TIP3      3740            0.0000000000
     61051      4140  TIP3      H1            -37.1038954981        3.8854457607       28.1519326353  TIP3      3740            0.0000000000
     61052      4140  TIP3      H2            -37.2975949901        3.5045625919       26.6861617537  TIP3      3740            0.0000000000
     61053      4141  TIP3      OH2           -36.4683003617        4.6634819174       22.8580526403  TIP3      3741            0.0000000000
     61054      4141  TIP3      H1            -36.0046547478        5.2581026182       22.2542502800  TIP3      3741            0.0000000000
     61055      4141  TIP3      H2            -37.1794816422        5.2464395877       23.1748568088  TIP3      3741            0.0000000000
     61056      4142  TIP3      OH2           -26.3365013404        8.2300675472       32.8780026761  TIP3      3742            0.0000000000
     61057      4142  TIP3      H1            -25.9621685891        7.5643922214       32.2689945724  TIP3      3742            0.0000000000
     61058      4142  TIP3      H2            -26.7655685922        7.6824340022       33.5575505012  TIP3      3742            0.0000000000
     61059      4143  TIP3      OH2           -29.5257757032        4.1659009382       27.6839894789  TIP3      3743            0.0000000000
     61060      4143  TIP3      H1            -30.4596881532        4.2023773692       27.9874959564  TIP3      3743            0.0000000000
     61061      4143  TIP3      H2            -29.0307555014        4.0662863731       28.5110735376  TIP3      3743            0.0000000000
     61062      4144  TIP3      OH2           -34.7089281158        5.7611419524       26.5357012886  TIP3      3744            0.0000000000
     61063      4144  TIP3      H1            -35.6059435421        5.8838912552       26.1673275264  TIP3      3744            0.0000000000
     61064      4144  TIP3      H2            -34.4167618066        4.9187974707       26.1573361502  TIP3      3744            0.0000000000
     61065      4145  TIP3      OH2           -31.0777907163        5.7935687798       24.1917113355  TIP3      3745            0.0000000000
     61066      4145  TIP3      H1            -30.1181986583        5.8982452450       24.3498531993  TIP3      3745            0.0000000000
     61067      4145  TIP3      H2            -31.2811376099        6.4557887128       23.5038859217  TIP3      3745            0.0000000000
     61068      4146  TIP3      OH2           -25.1164773197        3.4022183855       30.9432766617  TIP3      3746            0.0000000000
     61069      4146  TIP3      H1            -25.8119143518        3.5010218891       31.6270434077  TIP3      3746            0.0000000000
     61070      4146  TIP3      H2            -25.6213484873        3.2080440609       30.1424326550  TIP3      3746            0.0000000000
     61071      4147  TIP3      OH2           -32.3884349644        6.9764214327       21.7564603439  TIP3      3747            0.0000000000
     61072      4147  TIP3      H1            -32.9274455085        6.5962934985       21.0360319866  TIP3      3747            0.0000000000
     61073      4147  TIP3      H2            -31.5446052249        7.1682543908       21.3116292372  TIP3      3747            0.0000000000
     61074      4148  TIP3      OH2           -21.8845121377       19.0590185541       37.2583326587  TIP3      3748            0.0000000000
     61075      4148  TIP3      H1            -21.6360864213       19.4689124096       36.4065504497  TIP3      3748            0.0000000000
     61076      4148  TIP3      H2            -21.1809835182       19.3962138292       37.8423516883  TIP3      3748            0.0000000000
     61077      4149  TIP3      OH2           -34.2278854931       11.5278198488       36.8240638513  TIP3      3749            0.0000000000
     61078      4149  TIP3      H1            -33.5154810362       11.7862170561       37.4312512883  TIP3      3749            0.0000000000
     61079      4149  TIP3      H2            -35.0234119019       11.6938901933       37.3812448852  TIP3      3749            0.0000000000
     61080      4150  TIP3      OH2           -28.2288037022        6.9443043448       29.5805060339  TIP3      3750            0.0000000000
     61081      4150  TIP3      H1            -27.6476247354        6.3954995580       29.0394404737  TIP3      3750            0.0000000000
     61082      4150  TIP3      H2            -28.3689762636        6.4060792997       30.3701935647  TIP3      3750            0.0000000000
     61083      4151  TIP3      OH2           -33.2203825730        3.0914698295       26.0100823336  TIP3      3751            0.0000000000
     61084      4151  TIP3      H1            -33.5288603277        2.1658524510       25.9739251350  TIP3      3751            0.0000000000
     61085      4151  TIP3      H2            -32.4330062996        3.0468496438       25.4490428786  TIP3      3751            0.0000000000
     61086      4152  TIP3      OH2           -29.5902481590        5.2963937497       31.9889750492  TIP3      3752            0.0000000000
     61087      4152  TIP3      H1            -30.4272449820        5.7881807571       32.0990343527  TIP3      3752            0.0000000000
     61088      4152  TIP3      H2            -29.0531839147        5.6151561054       32.7417283031  TIP3      3752            0.0000000000
     61089      4153  TIP3      OH2           -29.0352192865       11.5244508827       23.6649598965  TIP3      3753            0.0000000000
     61090      4153  TIP3      H1            -29.7997537904       11.0208135446       23.3846565737  TIP3      3753            0.0000000000
     61091      4153  TIP3      H2            -29.1866193608       11.6010167809       24.6323153796  TIP3      3753            0.0000000000
     61092      4154  TIP3      OH2           -21.8760465008       10.6971323101       32.4757302491  TIP3      3754            0.0000000000
     61093      4154  TIP3      H1            -21.2477271086       11.1439041919       31.8988505161  TIP3      3754            0.0000000000
     61094      4154  TIP3      H2            -22.7190530599       10.7727625015       32.0080562766  TIP3      3754            0.0000000000
     61095      4155  TIP3      OH2           -27.5220396927       11.7359120221       34.9205438372  TIP3      3755            0.0000000000
     61096      4155  TIP3      H1            -27.8674101656       11.3402335084       35.7292566390  TIP3      3755            0.0000000000
     61097      4155  TIP3      H2            -27.7411124376       12.6683034649       35.0069783636  TIP3      3755            0.0000000000
     61098      4156  TIP3      OH2           -24.4389638204        6.1979108126       23.5449098921  TIP3      3756            0.0000000000
     61099      4156  TIP3      H1            -23.5319703457        6.0795650762       23.8894092074  TIP3      3756            0.0000000000
     61100      4156  TIP3      H2            -24.3776818492        7.0208283649       23.0202217912  TIP3      3756            0.0000000000
     61101      4157  TIP3      OH2           -33.9158992544       10.8615277418       29.4718945128  TIP3      3757            0.0000000000
     61102      4157  TIP3      H1            -33.1862891435       10.8189699095       28.8250547874  TIP3      3757            0.0000000000
     61103      4157  TIP3      H2            -33.8388318993       10.0110668522       29.9369599130  TIP3      3757            0.0000000000
     61104      4158  TIP3      OH2           -26.8936178877       12.9640712983       22.7483268391  TIP3      3758            0.0000000000
     61105      4158  TIP3      H1            -27.2254009007       13.8197501011       23.0777457118  TIP3      3758            0.0000000000
     61106      4158  TIP3      H2            -27.6417765251       12.3716553420       22.9074940413  TIP3      3758            0.0000000000
     61107      4159  TIP3      OH2           -36.9163418252        9.3046828247       34.7562826907  TIP3      3759            0.0000000000
     61108      4159  TIP3      H1            -36.7035109133        8.8641555522       35.6033617428  TIP3      3759            0.0000000000
     61109      4159  TIP3      H2            -37.5236988540        8.6756036365       34.3307763757  TIP3      3759            0.0000000000
     61110      4160  TIP3      OH2           -29.8998277019        8.8356816377       36.9677140117  TIP3      3760            0.0000000000
     61111      4160  TIP3      H1            -30.1971243263        8.6094355227       36.0761047802  TIP3      3760            0.0000000000
     61112      4160  TIP3      H2            -28.9589154174        8.5685039583       36.9509045340  TIP3      3760            0.0000000000
     61113      4161  TIP3      OH2           -25.2417044815       14.1810309727       34.8559880475  TIP3      3761            0.0000000000
     61114      4161  TIP3      H1            -26.1665097296       14.3712824015       34.6231269668  TIP3      3761            0.0000000000
     61115      4161  TIP3      H2            -25.2476747112       14.4597983290       35.7953435235  TIP3      3761            0.0000000000
     61116      4162  TIP3      OH2           -19.5492182399        6.4078559892       23.2631374673  TIP3      3762            0.0000000000
     61117      4162  TIP3      H1            -20.0889788566        6.0501943348       22.5486996140  TIP3      3762            0.0000000000
     61118      4162  TIP3      H2            -19.4476197085        7.3344246560       22.9651650643  TIP3      3762            0.0000000000
     61119      4163  TIP3      OH2           -19.5491831704       12.2663412224       36.0872377218  TIP3      3763            0.0000000000
     61120      4163  TIP3      H1            -20.4443609672       12.4482633284       35.7068615349  TIP3      3763            0.0000000000
     61121      4163  TIP3      H2            -18.9975833395       12.1908602369       35.2911705212  TIP3      3763            0.0000000000
     61122      4164  TIP3      OH2           -21.2341030166       15.1963243664       23.6878897830  TIP3      3764            0.0000000000
     61123      4164  TIP3      H1            -21.6348500305       14.3816746535       24.0163894999  TIP3      3764            0.0000000000
     61124      4164  TIP3      H2            -20.9939815856       15.0141871029       22.7940295484  TIP3      3764            0.0000000000
     61125      4165  TIP3      OH2           -24.0733187852       10.0476259011       30.6926899613  TIP3      3765            0.0000000000
     61126      4165  TIP3      H1            -25.0136707984        9.7865482383       30.6928529641  TIP3      3765            0.0000000000
     61127      4165  TIP3      H2            -23.6283865415        9.2305790983       30.3955737868  TIP3      3765            0.0000000000
     61128      4166  TIP3      OH2           -31.5352946639       14.3423416882       26.8646963363  TIP3      3766            0.0000000000
     61129      4166  TIP3      H1            -31.0218203033       15.1395064436       26.6578176581  TIP3      3766            0.0000000000
     61130      4166  TIP3      H2            -32.4181061606       14.5809082323       26.5482862387  TIP3      3766            0.0000000000
     61131      4167  TIP3      OH2           -30.1069734157       12.0069362710       26.3995206753  TIP3      3767            0.0000000000
     61132      4167  TIP3      H1            -30.3846376244       12.9394488345       26.4847313005  TIP3      3767            0.0000000000
     61133      4167  TIP3      H2            -30.8534571062       11.5437511372       26.8332680097  TIP3      3767            0.0000000000
     61134      4168  TIP3      OH2           -29.6413878344       16.1753923255       32.7661048829  TIP3      3768            0.0000000000
     61135      4168  TIP3      H1            -29.2250427372       17.0145542117       32.5125440959  TIP3      3768            0.0000000000
     61136      4168  TIP3      H2            -29.0565046004       15.8667849398       33.4834869121  TIP3      3768            0.0000000000
     61137      4169  TIP3      OH2           -31.4193225498       17.0154740071       25.9708754919  TIP3      3769            0.0000000000
     61138      4169  TIP3      H1            -32.3923231592       17.1392455469       26.0441202301  TIP3      3769            0.0000000000
     61139      4169  TIP3      H2            -31.0822470504       17.8606888254       26.3151829279  TIP3      3769            0.0000000000
     61140      4170  TIP3      OH2           -26.0874214893       12.2389701986       32.4277215000  TIP3      3770            0.0000000000
     61141      4170  TIP3      H1            -26.4775721478       12.0265482399       33.2964849527  TIP3      3770            0.0000000000
     61142      4170  TIP3      H2            -25.4802911188       11.5037019740       32.2669267604  TIP3      3770            0.0000000000
     61143      4171  TIP3      OH2           -23.3639434133       16.7971953813       34.9298408113  TIP3      3771            0.0000000000
     61144      4171  TIP3      H1            -24.0084764415       16.2705790852       34.4193170117  TIP3      3771            0.0000000000
     61145      4171  TIP3      H2            -23.1281177540       17.4821950793       34.2689722733  TIP3      3771            0.0000000000
     61146      4172  TIP3      OH2           -35.2627828588        4.0437092115       34.3102360555  TIP3      3772            0.0000000000
     61147      4172  TIP3      H1            -36.1734653569        4.3852769221       34.2652158076  TIP3      3772            0.0000000000
     61148      4172  TIP3      H2            -35.3772059691        3.1872252306       34.7511114664  TIP3      3772            0.0000000000
     61149      4173  TIP3      OH2           -23.0045632351       11.9011071407       23.7940564984  TIP3      3773            0.0000000000
     61150      4173  TIP3      H1            -23.2630449277       11.1050827306       24.2825691646  TIP3      3773            0.0000000000
     61151      4173  TIP3      H2            -22.0478763592       11.9551882445       23.9237207129  TIP3      3773            0.0000000000
     61152      4174  TIP3      OH2           -35.6283978663       15.8452553599       32.7392991559  TIP3      3774            0.0000000000
     61153      4174  TIP3      H1            -35.3843784196       14.9052707474       32.7343165792  TIP3      3774            0.0000000000
     61154      4174  TIP3      H2            -35.3790231759       16.1144811205       33.6323973095  TIP3      3774            0.0000000000
     61155      4175  TIP3      OH2           -30.8863366354       13.8514150633       22.4192407148  TIP3      3775            0.0000000000
     61156      4175  TIP3      H1            -30.6605531454       13.3638116923       23.2204779298  TIP3      3775            0.0000000000
     61157      4175  TIP3      H2            -30.8203399092       14.7923557005       22.7266642575  TIP3      3775            0.0000000000
     61158      4176  TIP3      OH2           -34.3446129062       11.1274389249       22.9222978267  TIP3      3776            0.0000000000
     61159      4176  TIP3      H1            -35.0654993947       11.4781495040       23.4938809898  TIP3      3776            0.0000000000
     61160      4176  TIP3      H2            -33.8723286414       11.9362555059       22.7206383110  TIP3      3776            0.0000000000
     61161      4177  TIP3      OH2           -26.5396797999        3.8019572283       33.2242227136  TIP3      3777            0.0000000000
     61162      4177  TIP3      H1            -25.8327817012        3.8599503760       33.8793265819  TIP3      3777            0.0000000000
     61163      4177  TIP3      H2            -26.9203509131        2.9187801862       33.4042235308  TIP3      3777            0.0000000000
     61164      4178  TIP3      OH2           -25.7510736891        3.4078902908       24.3036161453  TIP3      3778            0.0000000000
     61165      4178  TIP3      H1            -25.5501763252        3.9310228184       23.5278307433  TIP3      3778            0.0000000000
     61166      4178  TIP3      H2            -25.2038986757        3.8262689860       24.9899085228  TIP3      3778            0.0000000000
     61167      4179  TIP3      OH2           -28.0791193159       15.5747459615       23.2006212199  TIP3      3779            0.0000000000
     61168      4179  TIP3      H1            -28.9162941586       16.0640629699       23.2077701044  TIP3      3779            0.0000000000
     61169      4179  TIP3      H2            -27.5763105968       16.0404516698       22.5164553730  TIP3      3779            0.0000000000
     61170      4180  TIP3      OH2           -28.5600380750        5.1473669414       25.1587481696  TIP3      3780            0.0000000000
     61171      4180  TIP3      H1            -27.7503055430        5.6920557070       25.1940073651  TIP3      3780            0.0000000000
     61172      4180  TIP3      H2            -28.8136810470        5.0122542459       26.0853506304  TIP3      3780            0.0000000000
     61173      4181  TIP3      OH2           -28.0142468390        6.1505051083       34.3368572951  TIP3      3781            0.0000000000
     61174      4181  TIP3      H1            -27.9136368117        6.7274419480       35.1165244029  TIP3      3781            0.0000000000
     61175      4181  TIP3      H2            -27.3512853912        5.4578484744       34.4471048544  TIP3      3781            0.0000000000
     61176      4182  TIP3      OH2           -27.6794069339        2.2234663850       26.0822802134  TIP3      3782            0.0000000000
     61177      4182  TIP3      H1            -28.0214217173        2.8654268711       26.7267490560  TIP3      3782            0.0000000000
     61178      4182  TIP3      H2            -27.0050757003        2.7606396926       25.6067997575  TIP3      3782            0.0000000000
     61179      4183  TIP3      OH2           -30.7279765926       16.5943096083       23.1711812434  TIP3      3783            0.0000000000
     61180      4183  TIP3      H1            -30.5936831901       17.4058812386       22.6462990752  TIP3      3783            0.0000000000
     61181      4183  TIP3      H2            -30.9625273176       16.9286343079       24.0562612218  TIP3      3783            0.0000000000
     61182      4184  TIP3      OH2           -32.0236676021        3.3022216858       22.7748513710  TIP3      3784            0.0000000000
     61183      4184  TIP3      H1            -32.0938280922        4.2072703580       23.1306834070  TIP3      3784            0.0000000000
     61184      4184  TIP3      H2            -31.1122232851        3.0510575136       23.0155176257  TIP3      3784            0.0000000000
     61185      4185  TIP3      OH2           -21.8084804140        4.0328483425       35.1903394267  TIP3      3785            0.0000000000
     61186      4185  TIP3      H1            -22.7464936550        4.3278284814       35.0716404114  TIP3      3785            0.0000000000
     61187      4185  TIP3      H2            -21.4982503988        4.0550687199       34.2691297881  TIP3      3785            0.0000000000
     61188      4186  TIP3      OH2           -23.2123628052        7.8276705413       29.2287873325  TIP3      3786            0.0000000000
     61189      4186  TIP3      H1            -24.0261238434        7.3744037081       28.9374509425  TIP3      3786            0.0000000000
     61190      4186  TIP3      H2            -22.7527289581        7.1228804894       29.7573691074  TIP3      3786            0.0000000000
     61191      4187  TIP3      OH2           -33.7447212702       13.7030810053       21.8479550032  TIP3      3787            0.0000000000
     61192      4187  TIP3      H1            -33.1716609568       14.4396628016       22.1122151013  TIP3      3787            0.0000000000
     61193      4187  TIP3      H2            -33.3036259072       13.3336704039       21.0975328066  TIP3      3787            0.0000000000
     61194      4188  TIP3      OH2           -22.1454536213       17.0568116583       30.8904747974  TIP3      3788            0.0000000000
     61195      4188  TIP3      H1            -22.2632910614       17.7503635197       30.2110784663  TIP3      3788            0.0000000000
     61196      4188  TIP3      H2            -21.1845550948       17.1354589164       31.0737854790  TIP3      3788            0.0000000000
     61197      4189  TIP3      OH2           -34.6363018032        1.1944848875       29.6524768962  TIP3      3789            0.0000000000
     61198      4189  TIP3      H1            -34.8630922463        1.2291602081       28.6966620352  TIP3      3789            0.0000000000
     61199      4189  TIP3      H2            -35.0790401991        0.3677838933       29.9298133414  TIP3      3789            0.0000000000
     61200      4190  TIP3      OH2           -35.6986998792       15.1112662516       25.8018603511  TIP3      3790            0.0000000000
     61201      4190  TIP3      H1            -36.5403508835       15.5907206544       25.7996441005  TIP3      3790            0.0000000000
     61202      4190  TIP3      H2            -35.1798800808       15.6169015522       25.1609481827  TIP3      3790            0.0000000000
     61203      4191  TIP3      OH2           -36.4435418443       17.7508991857       37.1075218275  TIP3      3791            0.0000000000
     61204      4191  TIP3      H1            -35.8798339015       17.5373719175       37.8816231644  TIP3      3791            0.0000000000
     61205      4191  TIP3      H2            -36.9015397806       16.9135001554       36.9322808520  TIP3      3791            0.0000000000
     61206      4192  TIP3      OH2           -31.8210748697       16.6740587447       38.7441124239  TIP3      3792            0.0000000000
     61207      4192  TIP3      H1            -31.0465449951       16.1894074735       39.0652968343  TIP3      3792            0.0000000000
     61208      4192  TIP3      H2            -31.8362581205       16.4168977341       37.7964725756  TIP3      3792            0.0000000000
     61209      4193  TIP3      OH2           -25.2745462200       15.0565348865       37.4545439476  TIP3      3793            0.0000000000
     61210      4193  TIP3      H1            -25.6025189211       14.1724835139       37.7178272370  TIP3      3793            0.0000000000
     61211      4193  TIP3      H2            -24.5182628428       15.1796041546       38.0589553737  TIP3      3793            0.0000000000
     61212      4194  TIP3      OH2           -36.5348775020       11.5423172675       38.0885546192  TIP3      3794            0.0000000000
     61213      4194  TIP3      H1            -36.3782033478       10.6311086774       37.7766809001  TIP3      3794            0.0000000000
     61214      4194  TIP3      H2            -37.2964255485       11.8200730727       37.5533675276  TIP3      3794            0.0000000000
     61215      4195  TIP3      OH2           -29.8515240389       11.5190027025       37.4937622403  TIP3      3795            0.0000000000
     61216      4195  TIP3      H1            -30.1925235579       11.8072756519       36.6280026197  TIP3      3795            0.0000000000
     61217      4195  TIP3      H2            -29.7319963374       10.5511811096       37.3978128178  TIP3      3795            0.0000000000
     61218      4196  TIP3      OH2           -24.1491396364       11.4072333327       34.8823231964  TIP3      3796            0.0000000000
     61219      4196  TIP3      H1            -23.3745676022       12.0043249294       34.7819833087  TIP3      3796            0.0000000000
     61220      4196  TIP3      H2            -24.8729138629       12.0361681158       34.9410311916  TIP3      3796            0.0000000000
     61221      4197  TIP3      OH2           -35.6681068691        8.7606522207       37.4868195271  TIP3      3797            0.0000000000
     61222      4197  TIP3      H1            -35.2605860863        7.8927222789       37.3820630842  TIP3      3797            0.0000000000
     61223      4197  TIP3      H2            -35.9197181194        8.7639710954       38.4285739360  TIP3      3797            0.0000000000
     61224      4198  TIP3      OH2           -31.7397201429        7.7309828709       34.8611139853  TIP3      3798            0.0000000000
     61225      4198  TIP3      H1            -32.3543549582        8.4356931587       35.1287418530  TIP3      3798            0.0000000000
     61226      4198  TIP3      H2            -31.3791017489        8.0819476599       34.0290157925  TIP3      3798            0.0000000000
     61227      4199  TIP3      OH2           -29.9784429150        8.1622868205       20.7727432227  TIP3      3799            0.0000000000
     61228      4199  TIP3      H1            -30.1017251445        7.9371719418       19.8405538172  TIP3      3799            0.0000000000
     61229      4199  TIP3      H2            -29.0065847733        8.1930816355       20.7971131029  TIP3      3799            0.0000000000
     61230      4200  TIP3      OH2           -26.7021086305       10.2515075362       38.1790742884  TIP3      3800            0.0000000000
     61231      4200  TIP3      H1            -25.7414990692       10.2899776052       38.1003314742  TIP3      3800            0.0000000000
     61232      4200  TIP3      H2            -26.8654871270        9.5048202309       38.7721178098  TIP3      3800            0.0000000000
     61233      4201  TIP3      OH2           -31.3694582032        5.1033722671       35.9324770684  TIP3      3801            0.0000000000
     61234      4201  TIP3      H1            -31.2401087550        4.3744473478       35.3045479076  TIP3      3801            0.0000000000
     61235      4201  TIP3      H2            -31.3920748710        5.8997760425       35.3669299899  TIP3      3801            0.0000000000
     61236      4202  TIP3      OH2           -30.9625591340        3.4735644698       33.4544870504  TIP3      3802            0.0000000000
     61237      4202  TIP3      H1            -30.4381515182        3.9355404187       32.7610368950  TIP3      3802            0.0000000000
     61238      4202  TIP3      H2            -31.8435352063        3.3797306272       33.0234498822  TIP3      3802            0.0000000000
     61239      4203  TIP3      OH2           -29.4021495001        8.9277131780       33.6928513883  TIP3      3803            0.0000000000
     61240      4203  TIP3      H1            -28.6486520386        8.7728622610       33.1106008484  TIP3      3803            0.0000000000
     61241      4203  TIP3      H2            -29.7493915816        9.7812700469       33.3872837491  TIP3      3803            0.0000000000
     61242      4204  TIP3      OH2           -24.9954457072        6.7262424208       38.6896911939  TIP3      3804            0.0000000000
     61243      4204  TIP3      H1            -24.7807296134        5.7886427083       38.5867856496  TIP3      3804            0.0000000000
     61244      4204  TIP3      H2            -24.1213612812        7.1515807101       38.6780437373  TIP3      3804            0.0000000000
     61245      4205  TIP3      OH2           -23.6819378580        9.5026958980       36.8121022288  TIP3      3805            0.0000000000
     61246      4205  TIP3      H1            -23.9234367731       10.2299593065       36.1984182748  TIP3      3805            0.0000000000
     61247      4205  TIP3      H2            -22.7154448483        9.4607484338       36.6218085831  TIP3      3805            0.0000000000
     61248      4206  TIP3      OH2           -32.8986036923        6.3291401320       37.8611873046  TIP3      3806            0.0000000000
     61249      4206  TIP3      H1            -33.6745361124        5.7684284744       37.6412797615  TIP3      3806            0.0000000000
     61250      4206  TIP3      H2            -32.2381069377        5.9862108033       37.2283861254  TIP3      3806            0.0000000000
     61251      4207  TIP3      OH2           -30.1636848803        0.9140788569       33.8754837104  TIP3      3807            0.0000000000
     61252      4207  TIP3      H1            -30.2996368157        1.8834474201       33.7583366902  TIP3      3807            0.0000000000
     61253      4207  TIP3      H2            -30.9198562801        0.5591851578       33.3728735431  TIP3      3807            0.0000000000
     61254      4208  TIP3      OH2           -28.8940641453        5.2427625215       37.4495357120  TIP3      3808            0.0000000000
     61255      4208  TIP3      H1            -29.1730187687        5.0259003200       38.3570267318  TIP3      3808            0.0000000000
     61256      4208  TIP3      H2            -29.6920808059        5.0471079389       36.9203770790  TIP3      3808            0.0000000000
     61257      4209  TIP3      OH2           -26.1794980795        4.3777118951       36.5143608522  TIP3      3809            0.0000000000
     61258      4209  TIP3      H1            -27.1423959739        4.4215377838       36.6542540986  TIP3      3809            0.0000000000
     61259      4209  TIP3      H2            -25.8897652230        3.7500612609       37.1956575649  TIP3      3809            0.0000000000
     61260      4210  TIP3      OH2           -24.5770778795        3.0148801489       38.4882034451  TIP3      3810            0.0000000000
     61261      4210  TIP3      H1            -24.6483195200        2.0443259904       38.5033320720  TIP3      3810            0.0000000000
     61262      4210  TIP3      H2            -24.8717673975        3.2950822636       39.3847380760  TIP3      3810            0.0000000000
     61263      4211  TIP3      OH2           -34.7643514561        4.2565640063       37.5637713589  TIP3      3811            0.0000000000
     61264      4211  TIP3      H1            -34.5340253310        3.5236746816       36.9602914162  TIP3      3811            0.0000000000
     61265      4211  TIP3      H2            -34.8596840817        3.8022322526       38.4250992637  TIP3      3811            0.0000000000
     61266      4212  TIP3      OH2           -29.9555461471        0.2604854464       36.5539766051  TIP3      3812            0.0000000000
     61267      4212  TIP3      H1            -29.2446417865       -0.4154511563       36.5223617610  TIP3      3812            0.0000000000
     61268      4212  TIP3      H2            -30.0510384744        0.4753049981       35.6071199033  TIP3      3812            0.0000000000
     61269      4213  TIP3      OH2           -29.5925652765        1.9081880382       38.6232900035  TIP3      3813            0.0000000000
     61270      4213  TIP3      H1            -29.7402493938        1.4158762823       37.7790295312  TIP3      3813            0.0000000000
     61271      4213  TIP3      H2            -30.1921215416        2.6709083955       38.5352133856  TIP3      3813            0.0000000000
     61272      4214  TIP3      OH2           -37.8063160727       18.8180640368       26.3063984898  TIP3      3814            0.0000000000
     61273      4214  TIP3      H1            -38.4888127584       18.3328023267       25.7935190181  TIP3      3814            0.0000000000
     61274      4214  TIP3      H2            -37.4886968645       18.1396079382       26.9246762480  TIP3      3814            0.0000000000
     61275      4215  TIP3      OH2           -36.9595770610       16.9131426110       28.1278712615  TIP3      3815            0.0000000000
     61276      4215  TIP3      H1            -37.3032548991       16.0285959269       28.3211246934  TIP3      3815            0.0000000000
     61277      4215  TIP3      H2            -36.7366886974       17.2484302720       29.0147170063  TIP3      3815            0.0000000000
     61278      4216  TIP3      OH2           -19.4244091161       17.7109720603       31.0943775233  TIP3      3816            0.0000000000
     61279      4216  TIP3      H1            -19.4157266044       17.8946626470       32.0493286369  TIP3      3816            0.0000000000
     61280      4216  TIP3      H2            -18.7207711034       18.2893791351       30.7772860255  TIP3      3816            0.0000000000
     61281      4217  TIP3      OH2           -19.8488986010       17.3071947899       34.0303170513  TIP3      3817            0.0000000000
     61282      4217  TIP3      H1            -20.3315365248       16.5374280761       33.6590837058  TIP3      3817            0.0000000000
     61283      4217  TIP3      H2            -19.3222232192       16.8731994926       34.7219874079  TIP3      3817            0.0000000000
     61284      4218  TIP3      OH2           -21.3977434883       13.0435803487       38.6719260208  TIP3      3818            0.0000000000
     61285      4218  TIP3      H1            -22.2808440511       12.9861108208       39.0753850686  TIP3      3818            0.0000000000
     61286      4218  TIP3      H2            -21.0254897237       13.8359818539       39.1240885511  TIP3      3818            0.0000000000
     61287      4219  TIP3      OH2           -20.1185186575       11.3652366549       24.1886552571  TIP3      3819            0.0000000000
     61288      4219  TIP3      H1            -19.2284781485       11.7332909695       24.3152503065  TIP3      3819            0.0000000000
     61289      4219  TIP3      H2            -20.0708687938       10.5906924600       24.7887038427  TIP3      3819            0.0000000000
     61290      4220  TIP3      OH2           -19.7368633792        9.4201737336       26.0088977113  TIP3      3820            0.0000000000
     61291      4220  TIP3      H1            -20.4473748589        8.8938406516       26.4193038751  TIP3      3820            0.0000000000
     61292      4220  TIP3      H2            -19.1124651416        9.5776311495       26.7526992676  TIP3      3820            0.0000000000
     61293      4221  TIP3      OH2           -19.9754749343       12.1505612734       30.9623677042  TIP3      3821            0.0000000000
     61294      4221  TIP3      H1            -19.1224650969       11.7752783257       30.6657241446  TIP3      3821            0.0000000000
     61295      4221  TIP3      H2            -19.8212204835       13.1110915957       30.8399781513  TIP3      3821            0.0000000000
     61296      4222  TIP3      OH2           -21.4295792739       15.0323491980       33.2773605722  TIP3      3822            0.0000000000
     61297      4222  TIP3      H1            -22.1152627320       15.3716525134       33.8732341523  TIP3      3822            0.0000000000
     61298      4222  TIP3      H2            -21.9757744725       14.6149352009       32.5760918978  TIP3      3822            0.0000000000
     61299      4223  TIP3      OH2           -21.9266917112        7.9216556838       26.5666273420  TIP3      3823            0.0000000000
     61300      4223  TIP3      H1            -22.0602752286        6.9517441367       26.5510941101  TIP3      3823            0.0000000000
     61301      4223  TIP3      H2            -22.2570264171        8.1394117573       27.4531722222  TIP3      3823            0.0000000000
     61302      4224  TIP3      OH2           -36.9005026786        9.9911671247       30.6145366747  TIP3      3824            0.0000000000
     61303      4224  TIP3      H1            -36.7016117785        9.9055968927       29.6558959157  TIP3      3824            0.0000000000
     61304      4224  TIP3      H2            -36.0155195790        9.8422980621       31.0003582745  TIP3      3824            0.0000000000
     61305      4225  TIP3      OH2           -21.1027343119       10.1083116563       36.7389372212  TIP3      3825            0.0000000000
     61306      4225  TIP3      H1            -20.6090329199        9.2598058309       36.4239239535  TIP3      3825            0.0000000000
     61307      4225  TIP3      H2            -20.4859631436       10.6878500884       36.2561068542  TIP3      3825            0.0000000000
     61308      4226  TIP3      OH2           -19.5147241369        7.7299604411       37.1159773538  TIP3      3826            0.0000000000
     61309      4226  TIP3      H1            -20.3905410515        7.4262642679       36.7220771140  TIP3      3826            0.0000000000
     61310      4226  TIP3      H2            -18.9671046925        7.0020032855       36.8067795537  TIP3      3826            0.0000000000
     61311      4227  TIP3      OH2           -21.8516440278        3.9415035283       20.0841559286  TIP3      3827            0.0000000000
     61312      4227  TIP3      H1            -21.2135003868        3.5502109973       20.7052985178  TIP3      3827            0.0000000000
     61313      4227  TIP3      H2            -22.6740543088        3.5040038371       20.2610866518  TIP3      3827            0.0000000000
     61314      4228  TIP3      OH2           -22.2293153802        5.4958228123       25.0252758646  TIP3      3828            0.0000000000
     61315      4228  TIP3      H1            -21.9273305177        4.5672117301       25.1681957897  TIP3      3828            0.0000000000
     61316      4228  TIP3      H2            -21.4380925634        5.9105326200       24.6522755714  TIP3      3828            0.0000000000
     61317      4229  TIP3      OH2           -21.6082317288        6.0294751898       30.4576277646  TIP3      3829            0.0000000000
     61318      4229  TIP3      H1            -20.6544048088        6.2863252067       30.4592133817  TIP3      3829            0.0000000000
     61319      4229  TIP3      H2            -21.8088212863        6.1853267700       31.4110860507  TIP3      3829            0.0000000000
     61320      4230  TIP3      OH2           -21.6687171341        6.6668540905       33.0452892610  TIP3      3830            0.0000000000
     61321      4230  TIP3      H1            -22.3899182845        7.0520043202       33.6047819471  TIP3      3830            0.0000000000
     61322      4230  TIP3      H2            -21.1360621699        7.5483201417       33.0640747873  TIP3      3830            0.0000000000
     61323      4231  TIP3      OH2           -37.2939642346        5.2802178711       36.7484729873  TIP3      3831            0.0000000000
     61324      4231  TIP3      H1            -36.3556341080        5.1129398196       36.9693365124  TIP3      3831            0.0000000000
     61325      4231  TIP3      H2            -37.7381301625        4.4813980092       37.1039648458  TIP3      3831            0.0000000000
     61326      4232  TIP3      OH2           -19.2774005267        0.7927742584       38.6024706275  TIP3      3832            0.0000000000
     61327      4232  TIP3      H1            -18.9241982955        0.1338305997       37.9894025529  TIP3      3832            0.0000000000
     61328      4232  TIP3      H2            -19.1439156467        1.6284848761       38.1246106324  TIP3      3832            0.0000000000
     61329      4233  TIP3      OH2           -21.5812657790        2.7675492280       25.0727205816  TIP3      3833            0.0000000000
     61330      4233  TIP3      H1            -21.3947702476        2.3106807736       25.9184826055  TIP3      3833            0.0000000000
     61331      4233  TIP3      H2            -22.2007330982        2.1436487508       24.6243657675  TIP3      3833            0.0000000000
     61332      4234  TIP3      OH2           -36.0822269980        3.5758239431       29.6219395950  TIP3      3834            0.0000000000
     61333      4234  TIP3      H1            -35.6174978864        2.7655780004       29.9149022561  TIP3      3834            0.0000000000
     61334      4234  TIP3      H2            -35.5760002843        4.2836573164       30.0434911106  TIP3      3834            0.0000000000
     61335      4235  TIP3      OH2           -37.7909023576        6.5642816111       30.6890860296  TIP3      3835            0.0000000000
     61336      4235  TIP3      H1            -37.2487566191        6.3456908224       29.9018692456  TIP3      3835            0.0000000000
     61337      4235  TIP3      H2            -37.3719885766        7.3975615282       30.9558663193  TIP3      3835            0.0000000000
     61338      4236  TIP3      OH2           -19.7449745896        2.9100669526       36.9654634540  TIP3      3836            0.0000000000
     61339      4236  TIP3      H1            -20.6871238870        3.1819014352       36.9079587627  TIP3      3836            0.0000000000
     61340      4236  TIP3      H2            -19.6732474826        2.3646766144       36.1638516989  TIP3      3836            0.0000000000
     61341      4237  TIP3      OH2           -19.7501550128        2.8072271582       21.6194478916  TIP3      3837            0.0000000000
     61342      4237  TIP3      H1            -19.3010076409        2.0894471614       21.1443868793  TIP3      3837            0.0000000000
     61343      4237  TIP3      H2            -19.0422062517        3.4715236348       21.6832875983  TIP3      3837            0.0000000000
     61344      4238  TIP3      OH2           -37.4407818751        2.8365651456       24.7481322495  TIP3      3838            0.0000000000
     61345      4238  TIP3      H1            -38.3748916449        3.0328484205       24.6178672223  TIP3      3838            0.0000000000
     61346      4238  TIP3      H2            -36.9917828669        3.3161693991       24.0346075797  TIP3      3838            0.0000000000
     61347      4239  TIP3      OH2           -22.6938004176       17.7984863571       26.6925852387  TIP3      3839            0.0000000000
     61348      4239  TIP3      H1            -22.0165394202       17.4734412784       26.0759567862  TIP3      3839            0.0000000000
     61349      4239  TIP3      H2            -22.1672639289       18.2956402946       27.3363676784  TIP3      3839            0.0000000000
     61350      4240  TIP3      OH2           -37.4761428422        1.5355984591       33.0716268973  TIP3      3840            0.0000000000
     61351      4240  TIP3      H1            -38.1565343824        1.3146184392       33.7305980214  TIP3      3840            0.0000000000
     61352      4240  TIP3      H2            -37.9397025101        2.1884786500       32.5045524707  TIP3      3840            0.0000000000
     61353      4241  TIP3      OH2           -35.2692015765       14.7217486329       37.2262796678  TIP3      3841            0.0000000000
     61354      4241  TIP3      H1            -36.1099011642       14.9157049671       36.7791818134  TIP3      3841            0.0000000000
     61355      4241  TIP3      H2            -35.5390884114       14.6565259596       38.1508183581  TIP3      3841            0.0000000000
     61356      4242  TIP3      OH2           -32.3500811992       15.6969102467       33.4933532585  TIP3      3842            0.0000000000
     61357      4242  TIP3      H1            -32.7296757392       16.5388513978       33.2062387592  TIP3      3842            0.0000000000
     61358      4242  TIP3      H2            -31.4260087963       15.8017578997       33.1812293980  TIP3      3842            0.0000000000
     61359      4243  TIP3      OH2           -28.0346516843       17.1201597593       36.4189861414  TIP3      3843            0.0000000000
     61360      4243  TIP3      H1            -27.8554990605       16.7748881101       37.3306975342  TIP3      3843            0.0000000000
     61361      4243  TIP3      H2            -27.1503641882       17.4233829951       36.1401218848  TIP3      3843            0.0000000000
     61362      4244  TIP3      OH2           -25.7184456937       18.3942036414       35.6882679795  TIP3      3844            0.0000000000
     61363      4244  TIP3      H1            -25.0011316295       17.7798203468       35.4590934520  TIP3      3844            0.0000000000
     61364      4244  TIP3      H2            -25.3533544535       18.8075865132       36.5019111888  TIP3      3844            0.0000000000
     61365      4245  TIP3      OH2           -20.7417134687        1.0009841047       34.7964174284  TIP3      3845            0.0000000000
     61366      4245  TIP3      H1            -21.5706364978        1.3052910931       34.3818114114  TIP3      3845            0.0000000000
     61367      4245  TIP3      H2            -20.5440976989        0.2066367034       34.2497310416  TIP3      3845            0.0000000000
     61368      4246  TIP3      OH2           -34.9230384161       18.9520892411       33.5145336144  TIP3      3846            0.0000000000
     61369      4246  TIP3      H1            -35.6587425558       19.4228428202       33.0880268256  TIP3      3846            0.0000000000
     61370      4246  TIP3      H2            -35.2787136820       18.7283001178       34.3871257795  TIP3      3846            0.0000000000
     61371      4247  TIP3      OH2           -32.4517817999       18.5385663692       32.5670375949  TIP3      3847            0.0000000000
     61372      4247  TIP3      H1            -33.3470405235       18.6513124268       32.9656349166  TIP3      3847            0.0000000000
     61373      4247  TIP3      H2            -32.5244738968       19.1169069599       31.7813919095  TIP3      3847            0.0000000000
     61374      4248  TIP3      OH2           -27.7538948710       18.4396333566       31.7347941289  TIP3      3848            0.0000000000
     61375      4248  TIP3      H1            -28.2171805867       18.9874606130       31.0822401437  TIP3      3848            0.0000000000
     61376      4248  TIP3      H2            -27.6030400326       19.0695238495       32.4700976893  TIP3      3848            0.0000000000
     61377      4249  TIP3      OH2           -25.4343955238       17.2894512795       32.7108836969  TIP3      3849            0.0000000000
     61378      4249  TIP3      H1            -26.3288015595       17.5133257811       32.4068859447  TIP3      3849            0.0000000000
     61379      4249  TIP3      H2            -24.9963345393       18.1551024960       32.6305695823  TIP3      3849            0.0000000000
     61380      4250  TIP3      OH2           -22.8478485754       18.8577055075       32.9939806803  TIP3      3850            0.0000000000
     61381      4250  TIP3      H1            -22.9812743443       19.8099688207       32.7583293064  TIP3      3850            0.0000000000
     61382      4250  TIP3      H2            -22.6546187318       18.4813910450       32.1167073210  TIP3      3850            0.0000000000
     61383      4251  TIP3      OH2           -35.5087473912       17.5971358429       30.4340139766  TIP3      3851            0.0000000000
     61384      4251  TIP3      H1            -35.5465418635       17.1489371351       31.3061839855  TIP3      3851            0.0000000000
     61385      4251  TIP3      H2            -34.6860668999       17.2476051739       30.0352778973  TIP3      3851            0.0000000000
     61386      4252  TIP3      OH2           -33.3952628244       16.3092814907       29.0856959712  TIP3      3852            0.0000000000
     61387      4252  TIP3      H1            -33.5819602902       15.3743873409       29.2889287621  TIP3      3852            0.0000000000
     61388      4252  TIP3      H2            -32.5427044065       16.4417344361       29.5584973948  TIP3      3852            0.0000000000
     61389      4253  TIP3      OH2           -30.8219516546       16.7864444587       29.9498893274  TIP3      3853            0.0000000000
     61390      4253  TIP3      H1            -30.6266330544       15.8725243684       29.6767387944  TIP3      3853            0.0000000000
     61391      4253  TIP3      H2            -30.7617882013       16.7253638822       30.9119704468  TIP3      3853            0.0000000000
     61392      4254  TIP3      OH2           -27.3334767787        2.4424474972       29.0965883434  TIP3      3854            0.0000000000
     61393      4254  TIP3      H1            -28.0096825508        1.7949164485       29.3574049666  TIP3      3854            0.0000000000
     61394      4254  TIP3      H2            -26.7760504008        1.9284386561       28.4993037198  TIP3      3854            0.0000000000
     61395      4255  TIP3      OH2           -22.1984963518        0.5115958934       29.2003483095  TIP3      3855            0.0000000000
     61396      4255  TIP3      H1            -21.5792794283        1.0905286163       28.6853196923  TIP3      3855            0.0000000000
     61397      4255  TIP3      H2            -23.0735159757        0.8579673036       28.9457537686  TIP3      3855            0.0000000000
     61398      4256  TIP3      OH2           -20.5055055337        1.7023003755       27.5089360281  TIP3      3856            0.0000000000
     61399      4256  TIP3      H1            -19.8384538396        1.1613815038       27.0222339826  TIP3      3856            0.0000000000
     61400      4256  TIP3      H2            -20.0527594988        2.5705318039       27.5569783465  TIP3      3856            0.0000000000
     61401      4257  TIP3      OH2           -34.9919939444        1.0794164960       26.9396885191  TIP3      3857            0.0000000000
     61402      4257  TIP3      H1            -35.7756102566        0.8419440209       26.4061932356  TIP3      3857            0.0000000000
     61403      4257  TIP3      H2            -34.4885690833        0.2427021780       26.9047391368  TIP3      3857            0.0000000000
     61404      4258  TIP3      OH2           -36.1837371926        0.8456584592       22.7190615984  TIP3      3858            0.0000000000
     61405      4258  TIP3      H1            -35.7306536404        1.4709457791       22.1191075352  TIP3      3858            0.0000000000
     61406      4258  TIP3      H2            -36.7900905511        1.4058399521       23.2022720957  TIP3      3858            0.0000000000
     61407      4259  TIP3      OH2           -30.4543072414        0.9935067905       26.7229489647  TIP3      3859            0.0000000000
     61408      4259  TIP3      H1            -29.5606196963        1.3718994355       26.6920398056  TIP3      3859            0.0000000000
     61409      4259  TIP3      H2            -30.5451845199        0.7756721115       27.6505648510  TIP3      3859            0.0000000000
     61410      4260  TIP3      OH2           -24.8350354052        1.0246564859       28.3761204170  TIP3      3860            0.0000000000
     61411      4260  TIP3      H1            -24.8082844781        1.1143748052       27.4162432560  TIP3      3860            0.0000000000
     61412      4260  TIP3      H2            -25.1585298834        0.1016795742       28.4983692092  TIP3      3860            0.0000000000
     61413      4261  TIP3      OH2           -23.4978839758        1.0662768535       24.0762416832  TIP3      3861            0.0000000000
     61414      4261  TIP3      H1            -24.2318078936        1.6465183031       23.8663586017  TIP3      3861            0.0000000000
     61415      4261  TIP3      H2            -23.9420851843        0.1926618293       24.2122340939  TIP3      3861            0.0000000000
     61416      4262  TIP3      OH2           -36.2635253514       16.7890530791       23.6545782395  TIP3      3862            0.0000000000
     61417      4262  TIP3      H1            -36.9443581507       16.7801948278       22.9522097861  TIP3      3862            0.0000000000
     61418      4262  TIP3      H2            -36.2667840751       17.7310802903       23.8668444103  TIP3      3862            0.0000000000
     61419      4263  TIP3      OH2           -34.3319245482        2.7810274711       21.1690462953  TIP3      3863            0.0000000000
     61420      4263  TIP3      H1            -33.8410208024        2.1498129135       20.6265498880  TIP3      3863            0.0000000000
     61421      4263  TIP3      H2            -33.6805383878        3.0765583527       21.8139126479  TIP3      3863            0.0000000000
     61422      4264  TIP3      OH2           -29.3053924424        3.0363313768       23.5915017121  TIP3      3864            0.0000000000
     61423      4264  TIP3      H1            -29.1026696650        2.4331356894       24.3237411897  TIP3      3864            0.0000000000
     61424      4264  TIP3      H2            -29.3121105504        3.9018840509       24.0714483387  TIP3      3864            0.0000000000
     61425      4265  TIP3      OH2           -20.6842186825       17.5998532930       24.6971628189  TIP3      3865            0.0000000000
     61426      4265  TIP3      H1            -20.9143833837       16.8207257311       24.1441610341  TIP3      3865            0.0000000000
     61427      4265  TIP3      H2            -20.7549750627       18.3498770251       24.0958322258  TIP3      3865            0.0000000000
     61428      4266  TIP3      OH2           -35.0723670936        1.5997268085       36.4086732520  TIP3      3866            0.0000000000
     61429      4266  TIP3      H1            -35.4287770229        0.8083439883       36.8564455427  TIP3      3866            0.0000000000
     61430      4266  TIP3      H2            -34.1427106138        1.5890415112       36.7454779378  TIP3      3866            0.0000000000
     61431      4267  TIP3      OH2           -33.0709468414        0.9743897882       38.0008991993  TIP3      3867            0.0000000000
     61432      4267  TIP3      H1            -32.1747909067        0.6426836354       37.7877180253  TIP3      3867            0.0000000000
     61433      4267  TIP3      H2            -33.4535418028        0.1843113962       38.4377243790  TIP3      3867            0.0000000000
     61434      4268  TIP3      OH2           -24.6674337491        0.2730451982       38.1608755155  TIP3      3868            0.0000000000
     61435      4268  TIP3      H1            -24.5695297896       -0.1815411044       39.0194448195  TIP3      3868            0.0000000000
     61436      4268  TIP3      H2            -23.7508891096        0.2653218577       37.8192864718  TIP3      3868            0.0000000000
     61437      4269  TIP3      OH2           -21.4642575779       16.3196891559       36.8522645297  TIP3      3869            0.0000000000
     61438      4269  TIP3      H1            -22.2673871694       16.1680088701       36.3080268799  TIP3      3869            0.0000000000
     61439      4269  TIP3      H2            -21.5640173289       17.2754842336       37.0485871996  TIP3      3869            0.0000000000
     61440      4270  TIP3      OH2            -7.0483160033       10.2201637983       26.8592887889  TIP3      3870            0.0000000000
     61441      4270  TIP3      H1             -7.0109018868       11.1824988982       26.7465772251  TIP3      3870            0.0000000000
     61442      4270  TIP3      H2             -7.7215151527        9.9565164998       26.2090574265  TIP3      3870            0.0000000000
     61443      4271  TIP3      OH2            -8.1550857935        9.4835206597       30.3089626769  TIP3      3871            0.0000000000
     61444      4271  TIP3      H1             -8.1797928343        8.8210394556       31.0074057526  TIP3      3871            0.0000000000
     61445      4271  TIP3      H2             -8.4776511994        8.9892227066       29.5334669516  TIP3      3871            0.0000000000
     61446      4272  TIP3      OH2           -15.7825290490        9.1055892304       31.8550511529  TIP3      3872            0.0000000000
     61447      4272  TIP3      H1            -15.7324640604        8.4591571928       32.5935283076  TIP3      3872            0.0000000000
     61448      4272  TIP3      H2            -15.0605891322        9.7119845665       32.0753396650  TIP3      3872            0.0000000000
     61449      4273  TIP3      OH2            -4.4795797229       12.4325451951       28.5687808535  TIP3      3873            0.0000000000
     61450      4273  TIP3      H1             -4.8700740761       11.6918409227       29.0613463374  TIP3      3873            0.0000000000
     61451      4273  TIP3      H2             -4.4365809079       13.1219122659       29.2600052361  TIP3      3873            0.0000000000
     61452      4274  TIP3      OH2           -14.8735587292       13.5640565534       30.4208762608  TIP3      3874            0.0000000000
     61453      4274  TIP3      H1            -15.1981256224       12.7276704980       30.0414408608  TIP3      3874            0.0000000000
     61454      4274  TIP3      H2            -13.9080557572       13.3757098394       30.4340210951  TIP3      3874            0.0000000000
     61455      4275  TIP3      OH2           -18.2335374473        7.1601769301       25.8266453667  TIP3      3875            0.0000000000
     61456      4275  TIP3      H1            -18.6691884219        8.0388328326       25.7876898592  TIP3      3875            0.0000000000
     61457      4275  TIP3      H2            -18.8097051807        6.6201393841       25.2781557448  TIP3      3875            0.0000000000
     61458      4276  TIP3      OH2           -17.5416315513        9.3677828487       27.9526615462  TIP3      3876            0.0000000000
     61459      4276  TIP3      H1            -17.2927386370        8.5716427005       28.4556096299  TIP3      3876            0.0000000000
     61460      4276  TIP3      H2            -16.8005142007        9.4591705556       27.3380061706  TIP3      3876            0.0000000000
     61461      4277  TIP3      OH2            -7.3911489215       17.5558995276       28.8141179520  TIP3      3877            0.0000000000
     61462      4277  TIP3      H1             -6.7079835323       16.8882135582       28.5658537695  TIP3      3877            0.0000000000
     61463      4277  TIP3      H2             -7.5434397557       17.2736145641       29.7172476804  TIP3      3877            0.0000000000
     61464      4278  TIP3      OH2            -9.7685768504       11.8981790377       30.7518560835  TIP3      3878            0.0000000000
     61465      4278  TIP3      H1             -9.4525337996       11.2315338839       30.1068162390  TIP3      3878            0.0000000000
     61466      4278  TIP3      H2             -8.9838036815       12.0078339056       31.2945811314  TIP3      3878            0.0000000000
     61467      4279  TIP3      OH2            -1.1343435243        3.5033545120       31.5339738350  TIP3      3879            0.0000000000
     61468      4279  TIP3      H1             -1.0214203016        4.1238801152       32.2858580701  TIP3      3879            0.0000000000
     61469      4279  TIP3      H2             -0.6408318229        3.9641198689       30.8386965280  TIP3      3879            0.0000000000
     61470      4280  TIP3      OH2            -6.6146969945        6.3276242895       31.0625585399  TIP3      3880            0.0000000000
     61471      4280  TIP3      H1             -6.4650918718        5.3616787434       31.0552871241  TIP3      3880            0.0000000000
     61472      4280  TIP3      H2             -6.7190873579        6.4901834036       30.1022379774  TIP3      3880            0.0000000000
     61473      4281  TIP3      OH2           -13.4733084081        4.4111473833       28.3120854237  TIP3      3881            0.0000000000
     61474      4281  TIP3      H1            -13.4085206429        5.2645028949       27.8530437636  TIP3      3881            0.0000000000
     61475      4281  TIP3      H2            -13.9121301231        3.8479095535       27.6397059311  TIP3      3881            0.0000000000
     61476      4282  TIP3      OH2            -5.7563661987        4.5190540676       26.6831793917  TIP3      3882            0.0000000000
     61477      4282  TIP3      H1             -5.0871169809        4.1994274532       27.3341018090  TIP3      3882            0.0000000000
     61478      4282  TIP3      H2             -5.2121956235        5.0647957624       26.0958182799  TIP3      3882            0.0000000000
     61479      4283  TIP3      OH2           -16.8604883270        6.8219969169       29.0531575509  TIP3      3883            0.0000000000
     61480      4283  TIP3      H1            -16.1876608272        6.2587265174       29.4905618302  TIP3      3883            0.0000000000
     61481      4283  TIP3      H2            -16.7934284187        6.5199640208       28.1352647200  TIP3      3883            0.0000000000
     61482      4284  TIP3      OH2           -11.6939598649        8.3790606028       28.3061184620  TIP3      3884            0.0000000000
     61483      4284  TIP3      H1            -11.0577611735        7.8150050779       28.7750714470  TIP3      3884            0.0000000000
     61484      4284  TIP3      H2            -12.2547119391        7.7096836927       27.8632696142  TIP3      3884            0.0000000000
     61485      4285  TIP3      OH2            -0.7073796026        4.9619991796       33.7802540454  TIP3      3885            0.0000000000
     61486      4285  TIP3      H1             -1.3781326714        5.6702584723       33.6924863235  TIP3      3885            0.0000000000
     61487      4285  TIP3      H2             -0.6913763964        4.8088955056       34.7340687753  TIP3      3885            0.0000000000
     61488      4286  TIP3      OH2           -14.6170805194        3.3136972603       32.3603029191  TIP3      3886            0.0000000000
     61489      4286  TIP3      H1            -14.8751380338        3.8716604306       31.6012155502  TIP3      3886            0.0000000000
     61490      4286  TIP3      H2            -15.3073343927        3.5538216711       33.0276505486  TIP3      3886            0.0000000000
     61491      4287  TIP3      OH2            -7.2385367564       12.8472841247       25.8992719246  TIP3      3887            0.0000000000
     61492      4287  TIP3      H1             -7.5828183298       12.4927353651       25.0519516318  TIP3      3887            0.0000000000
     61493      4287  TIP3      H2             -7.6781600990       13.7082181868       25.9258477374  TIP3      3887            0.0000000000
     61494      4288  TIP3      OH2           -12.0653426384       10.9842647282       32.6443779096  TIP3      3888            0.0000000000
     61495      4288  TIP3      H1            -12.8165903874       11.6043422573       32.7708692285  TIP3      3888            0.0000000000
     61496      4288  TIP3      H2            -11.3750076955       11.5582681647       32.3052920944  TIP3      3888            0.0000000000
     61497      4289  TIP3      OH2            -3.9744537588        3.8379082440       28.6719061554  TIP3      3889            0.0000000000
     61498      4289  TIP3      H1             -4.1795784674        3.0667358248       29.2111859917  TIP3      3889            0.0000000000
     61499      4289  TIP3      H2             -3.3018506767        4.2909479680       29.2082988728  TIP3      3889            0.0000000000
     61500      4290  TIP3      OH2           -15.0588894515        5.1953687573       30.3467084733  TIP3      3890            0.0000000000
     61501      4290  TIP3      H1            -14.4142876561        5.8561944448       30.6926180043  TIP3      3890            0.0000000000
     61502      4290  TIP3      H2            -14.5218969848        4.7467297624       29.6510492160  TIP3      3890            0.0000000000
     61503      4291  TIP3      OH2           -13.6362141943       12.9650286831       33.4279309504  TIP3      3891            0.0000000000
     61504      4291  TIP3      H1            -13.6934767751       13.8605126785       33.0529915169  TIP3      3891            0.0000000000
     61505      4291  TIP3      H2            -14.5317853536       12.8840829230       33.8557180730  TIP3      3891            0.0000000000
     61506      4292  TIP3      OH2           -17.5459081005       12.6190484271       24.2164357175  TIP3      3892            0.0000000000
     61507      4292  TIP3      H1            -17.8184540932       12.8758635343       23.3348645009  TIP3      3892            0.0000000000
     61508      4292  TIP3      H2            -17.5004003648       13.4590267497       24.7080197480  TIP3      3892            0.0000000000
     61509      4293  TIP3      OH2            -3.9291909163       14.2412547456       30.9256235156  TIP3      3893            0.0000000000
     61510      4293  TIP3      H1             -4.8833261386       14.3349501976       31.1011289217  TIP3      3893            0.0000000000
     61511      4293  TIP3      H2             -3.6532198393       15.1714662607       30.7939616625  TIP3      3893            0.0000000000
     61512      4294  TIP3      OH2            -3.6208715624        2.5366723579       32.3575137494  TIP3      3894            0.0000000000
     61513      4294  TIP3      H1             -4.3558874016        3.1597276638       32.2956562923  TIP3      3894            0.0000000000
     61514      4294  TIP3      H2             -2.9247579991        2.9586097067       31.8233721522  TIP3      3894            0.0000000000
     61515      4295  TIP3      OH2           -10.6260633739        0.6421688520       29.8130148211  TIP3      3895            0.0000000000
     61516      4295  TIP3      H1            -10.7548321765       -0.3244262267       29.7577882333  TIP3      3895            0.0000000000
     61517      4295  TIP3      H2            -11.5022988614        0.9580050400       30.1066878570  TIP3      3895            0.0000000000
     61518      4296  TIP3      OH2            -5.4176965260       16.2635494533       27.8357019788  TIP3      3896            0.0000000000
     61519      4296  TIP3      H1             -5.0397082516       15.5460128905       27.3268490775  TIP3      3896            0.0000000000
     61520      4296  TIP3      H2             -5.2876475358       16.9709619013       27.1635317012  TIP3      3896            0.0000000000
     61521      4297  TIP3      OH2            -4.4673179534       13.9364863964       26.0688200677  TIP3      3897            0.0000000000
     61522      4297  TIP3      H1             -4.7393282394       13.2225935747       25.4458305228  TIP3      3897            0.0000000000
     61523      4297  TIP3      H2             -4.3977554083       13.4426882021       26.9137563949  TIP3      3897            0.0000000000
     61524      4298  TIP3      OH2            -2.8388326332       12.5255045220       34.5626615125  TIP3      3898            0.0000000000
     61525      4298  TIP3      H1             -2.6967812483       11.9052636340       33.8169792114  TIP3      3898            0.0000000000
     61526      4298  TIP3      H2             -2.6578068285       13.3903395343       34.1642729351  TIP3      3898            0.0000000000
     61527      4299  TIP3      OH2            -8.3623645484        9.4454488262       24.3259434517  TIP3      3899            0.0000000000
     61528      4299  TIP3      H1             -9.0592766474       10.0139935357       23.9552385660  TIP3      3899            0.0000000000
     61529      4299  TIP3      H2             -7.6587457200        9.5214683002       23.6436966386  TIP3      3899            0.0000000000
     61530      4300  TIP3      OH2            -0.9750837458        8.8434021137       32.6189928876  TIP3      3900            0.0000000000
     61531      4300  TIP3      H1             -1.6379262165        9.5591133009       32.6809677939  TIP3      3900            0.0000000000
     61532      4300  TIP3      H2             -0.5045112882        9.0743436114       31.7982788219  TIP3      3900            0.0000000000
     61533      4301  TIP3      OH2            -4.9200817181        9.6767976729       25.2591351104  TIP3      3901            0.0000000000
     61534      4301  TIP3      H1             -5.6762938198        9.8966524807       25.8496846486  TIP3      3901            0.0000000000
     61535      4301  TIP3      H2             -4.4758088898        8.9690357482       25.7529964525  TIP3      3901            0.0000000000
     61536      4302  TIP3      OH2            -5.0071946862        7.8255804367       34.3520976226  TIP3      3902            0.0000000000
     61537      4302  TIP3      H1             -4.9781555921        8.6273542884       34.9029190281  TIP3      3902            0.0000000000
     61538      4302  TIP3      H2             -5.6411317086        8.1284116628       33.6635995647  TIP3      3902            0.0000000000
     61539      4303  TIP3      OH2           -13.3137946918       10.3126970586       27.1711806880  TIP3      3903            0.0000000000
     61540      4303  TIP3      H1            -13.6293198307        9.9258047856       26.3265223494  TIP3      3903            0.0000000000
     61541      4303  TIP3      H2            -12.6911448795        9.6292967502       27.4997904776  TIP3      3903            0.0000000000
     61542      4304  TIP3      OH2           -12.1223728532       13.4048996844       30.1820376260  TIP3      3904            0.0000000000
     61543      4304  TIP3      H1            -12.0326010537       13.2457583206       29.1941103599  TIP3      3904            0.0000000000
     61544      4304  TIP3      H2            -11.1646166997       13.3563410471       30.3179151170  TIP3      3904            0.0000000000
     61545      4305  TIP3      OH2           -12.9542275823        9.0596573251       30.8015578349  TIP3      3905            0.0000000000
     61546      4305  TIP3      H1            -12.3813526655        9.1903333433       30.0229343252  TIP3      3905            0.0000000000
     61547      4305  TIP3      H2            -12.6062305939        9.7172517915       31.4325348960  TIP3      3905            0.0000000000
     61548      4306  TIP3      OH2            -6.6216072023       14.6123916022       31.5047868688  TIP3      3906            0.0000000000
     61549      4306  TIP3      H1             -6.8381762015       15.2596483806       32.1742739846  TIP3      3906            0.0000000000
     61550      4306  TIP3      H2             -6.8051125591       13.7443459724       31.9472103709  TIP3      3906            0.0000000000
     61551      4307  TIP3      OH2           -12.0012508733       13.4989497797       35.4923494148  TIP3      3907            0.0000000000
     61552      4307  TIP3      H1            -12.4076595401       14.2489910436       35.9806903355  TIP3      3907            0.0000000000
     61553      4307  TIP3      H2            -12.7168656828       13.3015726295       34.8230367047  TIP3      3907            0.0000000000
     61554      4308  TIP3      OH2            -6.0680802733        8.8335579574       22.9520278092  TIP3      3908            0.0000000000
     61555      4308  TIP3      H1             -5.4802365639        9.0100858462       23.7090657848  TIP3      3908            0.0000000000
     61556      4308  TIP3      H2             -5.6560042937        9.3260890184       22.2122689238  TIP3      3908            0.0000000000
     61557      4309  TIP3      OH2           -15.0953747056        9.6484085220       34.7266536896  TIP3      3909            0.0000000000
     61558      4309  TIP3      H1            -15.0704522388       10.3368610051       35.4084490595  TIP3      3909            0.0000000000
     61559      4309  TIP3      H2            -16.0242619460        9.7556685539       34.4246073607  TIP3      3909            0.0000000000
     61560      4310  TIP3      OH2            -8.2642222307       15.6091901512       26.3618580507  TIP3      3910            0.0000000000
     61561      4310  TIP3      H1             -7.9670091449       15.8960574881       27.2270329741  TIP3      3910            0.0000000000
     61562      4310  TIP3      H2             -8.9322139337       16.2877489417       26.1658719276  TIP3      3910            0.0000000000
     61563      4311  TIP3      OH2           -13.7717239395       15.5311122278       36.2668333717  TIP3      3911            0.0000000000
     61564      4311  TIP3      H1            -13.8327927027       15.4145280843       35.3041187011  TIP3      3911            0.0000000000
     61565      4311  TIP3      H2            -14.7145023996       15.4180702976       36.5248899443  TIP3      3911            0.0000000000
     61566      4312  TIP3      OH2            -2.3527925481        0.5872629769       22.8077182299  TIP3      3912            0.0000000000
     61567      4312  TIP3      H1             -3.2868476921        0.7174255967       23.0708189193  TIP3      3912            0.0000000000
     61568      4312  TIP3      H2             -2.1240213563        1.4194873715       22.3751146665  TIP3      3912            0.0000000000
     61569      4313  TIP3      OH2           -14.3119330485        9.3517953526       24.7575687961  TIP3      3913            0.0000000000
     61570      4313  TIP3      H1            -14.6219175780       10.1290159173       24.2452612180  TIP3      3913            0.0000000000
     61571      4313  TIP3      H2            -14.9970520816        8.7033364659       24.5673695862  TIP3      3913            0.0000000000
     61572      4314  TIP3      OH2           -18.2157571870       11.7608858164       33.6059170820  TIP3      3914            0.0000000000
     61573      4314  TIP3      H1            -18.7129214455       11.6868023609       32.7715749163  TIP3      3914            0.0000000000
     61574      4314  TIP3      H2            -18.2057102212       10.8176025649       33.8740270923  TIP3      3914            0.0000000000
     61575      4315  TIP3      OH2           -18.4740547481       14.4996846401       30.4513838010  TIP3      3915            0.0000000000
     61576      4315  TIP3      H1            -17.5179110041       14.3803324557       30.4306075570  TIP3      3915            0.0000000000
     61577      4315  TIP3      H2            -18.5765869978       15.3068227871       30.9718805437  TIP3      3915            0.0000000000
     61578      4316  TIP3      OH2            -0.2480901296       15.1981189476       36.1138374697  TIP3      3916            0.0000000000
     61579      4316  TIP3      H1             -0.3411746144       14.2342281967       36.1068934471  TIP3      3916            0.0000000000
     61580      4316  TIP3      H2             -1.1073729972       15.4457557639       36.5387898115  TIP3      3916            0.0000000000
     61581      4317  TIP3      OH2            -9.2644268954       14.7314105872       35.0816182300  TIP3      3917            0.0000000000
     61582      4317  TIP3      H1             -9.2324940630       15.6345463798       35.4918355992  TIP3      3917            0.0000000000
     61583      4317  TIP3      H2            -10.1762428911       14.4088625951       35.2868874318  TIP3      3917            0.0000000000
     61584      4318  TIP3      OH2            -8.8511024298       18.5269182323       24.8185949877  TIP3      3918            0.0000000000
     61585      4318  TIP3      H1             -8.9468721489       18.4077789745       23.8656475767  TIP3      3918            0.0000000000
     61586      4318  TIP3      H2             -8.8322645492       19.4831566608       24.9225696656  TIP3      3918            0.0000000000
     61587      4319  TIP3      OH2           -15.2148572450       17.3535242197       26.6101595401  TIP3      3919            0.0000000000
     61588      4319  TIP3      H1            -15.0596282464       16.9476836059       27.4896432391  TIP3      3919            0.0000000000
     61589      4319  TIP3      H2            -16.0642658901       16.9541403787       26.3650463192  TIP3      3919            0.0000000000
     61590      4320  TIP3      OH2            -5.7621055206       17.6860341718       21.8293292968  TIP3      3920            0.0000000000
     61591      4320  TIP3      H1             -5.4223847254       16.9328917181       21.3425052773  TIP3      3920            0.0000000000
     61592      4320  TIP3      H2             -5.7768663913       17.4105069152       22.7445759138  TIP3      3920            0.0000000000
     61593      4321  TIP3      OH2            -6.1040548275       17.6223933228       24.5736115964  TIP3      3921            0.0000000000
     61594      4321  TIP3      H1             -7.0618350516       17.7073659933       24.7229452235  TIP3      3921            0.0000000000
     61595      4321  TIP3      H2             -5.8281824885       16.9054589697       25.1260496606  TIP3      3921            0.0000000000
     61596      4322  TIP3      OH2            -3.1097566025        6.6799438864       36.6093781455  TIP3      3922            0.0000000000
     61597      4322  TIP3      H1             -3.5455903344        7.1475159228       35.8824083179  TIP3      3922            0.0000000000
     61598      4322  TIP3      H2             -3.0904386350        5.7630280155       36.2955252051  TIP3      3922            0.0000000000
     61599      4323  TIP3      OH2           -15.9688733488       13.0670964238       34.6141321233  TIP3      3923            0.0000000000
     61600      4323  TIP3      H1            -15.7506769621       12.7038574727       35.4845670875  TIP3      3923            0.0000000000
     61601      4323  TIP3      H2            -16.8395461307       12.6785724510       34.3895185680  TIP3      3923            0.0000000000
     61602      4324  TIP3      OH2           -13.3080233052        1.5340441437       30.5854770416  TIP3      3924            0.0000000000
     61603      4324  TIP3      H1            -14.2076444722        1.4420261075       30.1948393370  TIP3      3924            0.0000000000
     61604      4324  TIP3      H2            -13.3909295336        2.3893814375       31.0343909803  TIP3      3924            0.0000000000
     61605      4325  TIP3      OH2            -8.6591861601        1.2465763121       33.9504083010  TIP3      3925            0.0000000000
     61606      4325  TIP3      H1             -8.2569231886        0.8211424010       34.7285523082  TIP3      3925            0.0000000000
     61607      4325  TIP3      H2             -9.6255308926        1.0836619075       34.0878432435  TIP3      3925            0.0000000000
     61608      4326  TIP3      OH2            -5.3484699299        5.0324796218       34.8210319123  TIP3      3926            0.0000000000
     61609      4326  TIP3      H1             -5.8920945074        4.8657618223       35.6282119971  TIP3      3926            0.0000000000
     61610      4326  TIP3      H2             -5.5209735139        5.9545683724       34.5839484724  TIP3      3926            0.0000000000
     61611      4327  TIP3      OH2            -4.5841165735        9.8237471984       20.6437974049  TIP3      3927            0.0000000000
     61612      4327  TIP3      H1             -4.5677766226        9.6479159906       19.6856326230  TIP3      3927            0.0000000000
     61613      4327  TIP3      H2             -3.7522533233       10.2719887600       20.7627811822  TIP3      3927            0.0000000000
     61614      4328  TIP3      OH2            -8.9829244948        3.7013023058       21.2960751126  TIP3      3928            0.0000000000
     61615      4328  TIP3      H1             -9.2978264392        3.7473722571       22.2171522011  TIP3      3928            0.0000000000
     61616      4328  TIP3      H2             -9.3062845400        2.8655731027       20.9854030438  TIP3      3928            0.0000000000
     61617      4329  TIP3      OH2           -13.2157271490        6.4988575873       31.7444131431  TIP3      3929            0.0000000000
     61618      4329  TIP3      H1            -13.9130390375        6.4780299818       32.4259100741  TIP3      3929            0.0000000000
     61619      4329  TIP3      H2            -13.2247400032        7.4361208237       31.4488183392  TIP3      3929            0.0000000000
     61620      4330  TIP3      OH2           -13.2402383616        6.6982782848       26.6483561767  TIP3      3930            0.0000000000
     61621      4330  TIP3      H1            -14.1608157558        6.3814610919       26.5412638738  TIP3      3930            0.0000000000
     61622      4330  TIP3      H2            -12.8242973924        6.3409935839       25.8435637074  TIP3      3930            0.0000000000
     61623      4331  TIP3      OH2            -7.7136829151        7.1317465247       25.4482073044  TIP3      3931            0.0000000000
     61624      4331  TIP3      H1             -8.1186604798        7.9645228985       25.1217759593  TIP3      3931            0.0000000000
     61625      4331  TIP3      H2             -7.0031671803        6.9939592731       24.7957940121  TIP3      3931            0.0000000000
     61626      4332  TIP3      OH2            -8.6186033563        7.3355075134       36.8844289438  TIP3      3932            0.0000000000
     61627      4332  TIP3      H1             -9.1850142958        6.5969192761       37.2271186371  TIP3      3932            0.0000000000
     61628      4332  TIP3      H2             -7.7997003166        7.2049388424       37.3864289065  TIP3      3932            0.0000000000
     61629      4333  TIP3      OH2            -6.6964271005        6.6076807295       28.2723075750  TIP3      3933            0.0000000000
     61630      4333  TIP3      H1             -6.9277640486        7.1863259049       27.5245113433  TIP3      3933            0.0000000000
     61631      4333  TIP3      H2             -6.5500414903        5.7597558919       27.8043211500  TIP3      3933            0.0000000000
     61632      4334  TIP3      OH2           -15.5133867616        6.7965675700       33.5262371387  TIP3      3934            0.0000000000
     61633      4334  TIP3      H1            -15.5354190167        7.2072745602       34.4082356777  TIP3      3934            0.0000000000
     61634      4334  TIP3      H2            -16.0101254175        5.9807929911       33.6769068487  TIP3      3934            0.0000000000
     61635      4335  TIP3      OH2           -18.9078751400        3.9231906773       27.4385008721  TIP3      3935            0.0000000000
     61636      4335  TIP3      H1            -18.2447790519        3.8850548089       28.1547788100  TIP3      3935            0.0000000000
     61637      4335  TIP3      H2            -18.4467407646        3.5065977913       26.6867916355  TIP3      3935            0.0000000000
     61638      4336  TIP3      OH2           -17.6187081403        4.6565304326       22.8487055704  TIP3      3936            0.0000000000
     61639      4336  TIP3      H1            -17.1602703444        5.2667604486       22.2581610462  TIP3      3936            0.0000000000
     61640      4336  TIP3      H2            -18.3325645215        5.2376040660       23.1781304234  TIP3      3936            0.0000000000
     61641      4337  TIP3      OH2            -7.4590384899        8.2298337369       32.8864996262  TIP3      3937            0.0000000000
     61642      4337  TIP3      H1             -7.1133999561        7.5627444067       32.2642748297  TIP3      3937            0.0000000000
     61643      4337  TIP3      H2             -7.9087695751        7.6843676187       33.5563057159  TIP3      3937            0.0000000000
     61644      4338  TIP3      OH2           -10.6699579162        4.1658142587       27.6838562600  TIP3      3938            0.0000000000
     61645      4338  TIP3      H1            -11.6046369006        4.2023481141       27.9877978321  TIP3      3938            0.0000000000
     61646      4338  TIP3      H2            -10.1747121380        4.0663363114       28.5109314190  TIP3      3938            0.0000000000
     61647      4339  TIP3      OH2           -15.8457742165        5.7668945215       26.5323377237  TIP3      3939            0.0000000000
     61648      4339  TIP3      H1            -16.7472632978        5.8834853983       26.1738489829  TIP3      3939            0.0000000000
     61649      4339  TIP3      H2            -15.5571137335        4.9201209851       26.1583230886  TIP3      3939            0.0000000000
     61650      4340  TIP3      OH2           -12.2121626328        5.7787431721       24.1791978409  TIP3      3940            0.0000000000
     61651      4340  TIP3      H1            -11.2577306581        5.9017254940       24.3543616860  TIP3      3940            0.0000000000
     61652      4340  TIP3      H2            -12.4311778923        6.4608005736       23.5286766142  TIP3      3940            0.0000000000
     61653      4341  TIP3      OH2            -6.2598518239        3.4027574831       30.9432453481  TIP3      3941            0.0000000000
     61654      4341  TIP3      H1             -6.9550311099        3.5008928353       31.6271540858  TIP3      3941            0.0000000000
     61655      4341  TIP3      H2             -6.7651626626        3.2081805203       30.1425407632  TIP3      3941            0.0000000000
     61656      4342  TIP3      OH2           -13.5059575573        6.9650277749       21.7452414002  TIP3      3942            0.0000000000
     61657      4342  TIP3      H1            -14.0808074845        6.6030018340       21.0656715291  TIP3      3942            0.0000000000
     61658      4342  TIP3      H2            -12.6844827052        7.1723258105       21.3074245941  TIP3      3942            0.0000000000
     61659      4343  TIP3      OH2            -3.0286561695       19.0598883045       37.2585052259  TIP3      3943            0.0000000000
     61660      4343  TIP3      H1             -2.7799404238       19.4687298685       36.4064773487  TIP3      3943            0.0000000000
     61661      4343  TIP3      H2             -2.3247403135       19.3961266051       37.8423277893  TIP3      3943            0.0000000000
     61662      4344  TIP3      OH2           -15.3617734173       11.4949220395       36.8549388724  TIP3      3944            0.0000000000
     61663      4344  TIP3      H1            -14.6564113767       11.8395678675       37.4152639337  TIP3      3944            0.0000000000
     61664      4344  TIP3      H2            -16.1785950537       11.7145539533       37.3692709380  TIP3      3944            0.0000000000
     61665      4345  TIP3      OH2            -9.3725499979        6.9442190341       29.5802725458  TIP3      3945            0.0000000000
     61666      4345  TIP3      H1             -8.7898741640        6.3967425121       29.0381815662  TIP3      3945            0.0000000000
     61667      4345  TIP3      H2             -9.5128559634        6.4059692545       30.3699833866  TIP3      3945            0.0000000000
     61668      4346  TIP3      OH2           -14.3653434781        3.0929101462       26.0174667011  TIP3      3946            0.0000000000
     61669      4346  TIP3      H1            -14.6775406908        2.1700015799       25.9795625075  TIP3      3946            0.0000000000
     61670      4346  TIP3      H2            -13.5797116247        3.0513506966       25.4530397994  TIP3      3946            0.0000000000
     61671      4347  TIP3      OH2           -10.7342719456        5.2964795798       31.9890156451  TIP3      3947            0.0000000000
     61672      4347  TIP3      H1            -11.5712864958        5.7881756481       32.0989781039  TIP3      3947            0.0000000000
     61673      4347  TIP3      H2            -10.1971615211        5.6151135188       32.7417305903  TIP3      3947            0.0000000000
     61674      4348  TIP3      OH2           -10.1746828137       11.5397391607       23.6663417088  TIP3      3948            0.0000000000
     61675      4348  TIP3      H1            -10.9463356509       11.0176539996       23.3646076845  TIP3      3948            0.0000000000
     61676      4348  TIP3      H2            -10.3401311596       11.5961093895       24.6292986216  TIP3      3948            0.0000000000
     61677      4349  TIP3      OH2            -3.0079943792       10.6756028765       32.4882080852  TIP3      3949            0.0000000000
     61678      4349  TIP3      H1             -2.4027734860       11.1492995476       31.8936568837  TIP3      3949            0.0000000000
     61679      4349  TIP3      H2             -3.8562495733       10.7741099626       32.0060741675  TIP3      3949            0.0000000000
     61680      4350  TIP3      OH2            -6.3045682672        4.2999148757       21.8814875361  TIP3      3950            0.0000000000
     61681      4350  TIP3      H1             -7.2421989360        4.4858088484       21.7102535424  TIP3      3950            0.0000000000
     61682      4350  TIP3      H2             -5.9989962761        5.1874535043       22.1844980512  TIP3      3950            0.0000000000
     61683      4351  TIP3      OH2            -8.6722215571       11.7536984068       34.9202308187  TIP3      3951            0.0000000000
     61684      4351  TIP3      H1             -9.0054897421       11.3151632365       35.7245397479  TIP3      3951            0.0000000000
     61685      4351  TIP3      H2             -8.8925855134       12.6628632896       35.0174305039  TIP3      3951            0.0000000000
     61686      4352  TIP3      OH2            -5.5804946513        6.2211194460       23.5532892621  TIP3      3952            0.0000000000
     61687      4352  TIP3      H1             -4.6721475481        6.0919933539       23.8619676936  TIP3      3952            0.0000000000
     61688      4352  TIP3      H2             -5.5251215006        7.0272662693       22.9981804278  TIP3      3952            0.0000000000
     61689      4353  TIP3      OH2           -15.0611926813       10.8564510516       29.4667942927  TIP3      3953            0.0000000000
     61690      4353  TIP3      H1            -14.3225810800       10.8270551684       28.8258104740  TIP3      3953            0.0000000000
     61691      4353  TIP3      H2            -14.9820840807       10.0083574754       29.9379238977  TIP3      3953            0.0000000000
     61692      4354  TIP3      OH2            -8.0447036423       12.9946595448       22.7521447622  TIP3      3954            0.0000000000
     61693      4354  TIP3      H1             -8.3954728160       13.8323824294       23.0745014658  TIP3      3954            0.0000000000
     61694      4354  TIP3      H2             -8.7755702049       12.3634947740       22.8972956657  TIP3      3954            0.0000000000
     61695      4355  TIP3      OH2           -17.9345236915        9.3017529587       34.7373333406  TIP3      3955            0.0000000000
     61696      4355  TIP3      H1            -17.8668898149        8.8649507503       35.6020804161  TIP3      3955            0.0000000000
     61697      4355  TIP3      H2            -18.6643801838        8.7260878287       34.3621504881  TIP3      3955            0.0000000000
     61698      4356  TIP3      OH2           -11.0496553545        8.8684695863       36.9075511519  TIP3      3956            0.0000000000
     61699      4356  TIP3      H1            -11.3348626543        8.5942398080       36.0445827105  TIP3      3956            0.0000000000
     61700      4356  TIP3      H2            -10.1134455064        8.5685264593       36.9580866522  TIP3      3956            0.0000000000
     61701      4357  TIP3      OH2            -6.4085069475       14.1790966878       34.8617583103  TIP3      3957            0.0000000000
     61702      4357  TIP3      H1             -7.3068718517       14.3726438129       34.6147120079  TIP3      3957            0.0000000000
     61703      4357  TIP3      H2             -6.3526499714       14.4556290105       35.7935677976  TIP3      3957            0.0000000000
     61704      4358  TIP3      OH2            -0.6815490224        6.4021388195       23.2527668006  TIP3      3958            0.0000000000
     61705      4358  TIP3      H1             -1.2670770737        6.0484990419       22.5732799581  TIP3      3958            0.0000000000
     61706      4358  TIP3      H2             -0.5992522173        7.3469890303       22.9828492011  TIP3      3958            0.0000000000
     61707      4359  TIP3      OH2            -0.7073446988       12.2329083644       36.0890282770  TIP3      3959            0.0000000000
     61708      4359  TIP3      H1             -1.5881055626       12.4622667249       35.7049117811  TIP3      3959            0.0000000000
     61709      4359  TIP3      H2             -0.1378250175       12.2067592965       35.2965065483  TIP3      3959            0.0000000000
     61710      4360  TIP3      OH2            -2.3909346673       15.2114808123       23.6775156202  TIP3      3960            0.0000000000
     61711      4360  TIP3      H1             -2.7640950649       14.3801649647       24.0124007022  TIP3      3960            0.0000000000
     61712      4360  TIP3      H2             -2.1170815246       15.0051725940       22.7909013067  TIP3      3960            0.0000000000
     61713      4361  TIP3      OH2            -5.2100391912       10.0283447313       30.7479572551  TIP3      3961            0.0000000000
     61714      4361  TIP3      H1             -6.1528251494        9.7927776527       30.6795467505  TIP3      3961            0.0000000000
     61715      4361  TIP3      H2             -4.7747613274        9.2433808835       30.3696286291  TIP3      3961            0.0000000000
     61716      4362  TIP3      OH2           -12.9521140585       14.2809383139       26.2144349961  TIP3      3962            0.0000000000
     61717      4362  TIP3      H1            -12.2905515882       14.9472428817       26.6095746124  TIP3      3962            0.0000000000
     61718      4362  TIP3      H2            -13.7287602320       14.6554646236       26.6006493115  TIP3      3962            0.0000000000
     61719      4363  TIP3      OH2           -11.2409517502       12.0028964877       26.4050425671  TIP3      3963            0.0000000000
     61720      4363  TIP3      H1            -11.5199970420       12.9429928168       26.4921919511  TIP3      3963            0.0000000000
     61721      4363  TIP3      H2            -11.9940170812       11.5568690931       26.8373473498  TIP3      3963            0.0000000000
     61722      4364  TIP3      OH2           -10.8667321182       16.3390233927       32.7870577487  TIP3      3964            0.0000000000
     61723      4364  TIP3      H1            -10.3699550789       17.1089836740       32.4678734062  TIP3      3964            0.0000000000
     61724      4364  TIP3      H2            -10.2864234235       16.0368527328       33.4774657475  TIP3      3964            0.0000000000
     61725      4365  TIP3      OH2           -12.5762658005       17.0462124292       25.9027546568  TIP3      3965            0.0000000000
     61726      4365  TIP3      H1            -13.5362338302       17.1287656834       26.0587945615  TIP3      3965            0.0000000000
     61727      4365  TIP3      H2            -12.2288826039       17.8380851973       26.3193910561  TIP3      3965            0.0000000000
     61728      4366  TIP3      OH2            -7.2466860916       12.2578305534       32.4480860353  TIP3      3966            0.0000000000
     61729      4366  TIP3      H1             -7.6124742937       11.9942359329       33.3062007208  TIP3      3966            0.0000000000
     61730      4366  TIP3      H2             -6.6271257684       11.5175446411       32.2567934894  TIP3      3966            0.0000000000
     61731      4367  TIP3      OH2            -4.5199168092       16.8013703903       34.9373264250  TIP3      3967            0.0000000000
     61732      4367  TIP3      H1             -5.1366904141       16.2708471617       34.4071189058  TIP3      3967            0.0000000000
     61733      4367  TIP3      H2             -4.2661630907       17.4810165363       34.2715317710  TIP3      3967            0.0000000000
     61734      4368  TIP3      OH2           -16.4097205722        4.0451021362       34.3093713483  TIP3      3968            0.0000000000
     61735      4368  TIP3      H1            -17.3189069113        4.3902277238       34.2650959091  TIP3      3968            0.0000000000
     61736      4368  TIP3      H2            -16.5217629000        3.1877013655       34.7510113054  TIP3      3968            0.0000000000
     61737      4369  TIP3      OH2            -4.1588970102       11.9304769863       23.8041811547  TIP3      3969            0.0000000000
     61738      4369  TIP3      H1             -4.4065089983       11.1127759786       24.2853326323  TIP3      3969            0.0000000000
     61739      4369  TIP3      H2             -3.2016084594       11.9466231427       23.9339313004  TIP3      3969            0.0000000000
     61740      4370  TIP3      OH2           -16.7846587230       15.8440181818       32.7432292186  TIP3      3970            0.0000000000
     61741      4370  TIP3      H1            -16.5302849555       14.9071832716       32.7347185214  TIP3      3970            0.0000000000
     61742      4370  TIP3      H2            -16.5234609399       16.1153392801       33.6322172500  TIP3      3970            0.0000000000
     61743      4371  TIP3      OH2           -15.4944653414       11.1253206445       22.9395561708  TIP3      3971            0.0000000000
     61744      4371  TIP3      H1            -16.2133822298       11.4847380194       23.4938337068  TIP3      3971            0.0000000000
     61745      4371  TIP3      H2            -15.0015987053       11.8881813736       22.6826077688  TIP3      3971            0.0000000000
     61746      4372  TIP3      OH2            -7.6831908554        3.8021274997       33.2239575932  TIP3      3972            0.0000000000
     61747      4372  TIP3      H1             -6.9770472737        3.8596358101       33.8795680831  TIP3      3972            0.0000000000
     61748      4372  TIP3      H2             -8.0643394312        2.9189622882       33.4041386989  TIP3      3972            0.0000000000
     61749      4373  TIP3      OH2            -6.9076060124        3.4067751179       24.3220128689  TIP3      3973            0.0000000000
     61750      4373  TIP3      H1             -6.6885165737        3.9123608686       23.5106966368  TIP3      3973            0.0000000000
     61751      4373  TIP3      H2             -6.3446718968        3.8333837618       24.9859741845  TIP3      3973            0.0000000000
     61752      4374  TIP3      OH2            -9.2087205555       15.5880040856       23.1979756025  TIP3      3974            0.0000000000
     61753      4374  TIP3      H1            -10.0557847195       16.0588093412       23.2361958663  TIP3      3974            0.0000000000
     61754      4374  TIP3      H2             -8.7044175439       16.0335857804       22.4972363112  TIP3      3974            0.0000000000
     61755      4375  TIP3      OH2            -9.7123990120        5.1515942554       25.1511771036  TIP3      3975            0.0000000000
     61756      4375  TIP3      H1             -8.8942413503        5.6892664699       25.1882889377  TIP3      3975            0.0000000000
     61757      4375  TIP3      H2             -9.9571531512        5.0082615499       26.0811500665  TIP3      3975            0.0000000000
     61758      4376  TIP3      OH2            -9.1585125056        6.1504006822       34.3363503446  TIP3      3976            0.0000000000
     61759      4376  TIP3      H1             -9.0576082627        6.7276909313       35.1165245287  TIP3      3976            0.0000000000
     61760      4376  TIP3      H2             -8.4979664274        5.4567682052       34.4480942568  TIP3      3976            0.0000000000
     61761      4377  TIP3      OH2            -8.8269231710        2.2218864604       26.0811958249  TIP3      3977            0.0000000000
     61762      4377  TIP3      H1             -9.1655868291        2.8648770618       26.7227846060  TIP3      3977            0.0000000000
     61763      4377  TIP3      H2             -8.1513913108        2.7631549595       25.6090571776  TIP3      3977            0.0000000000
     61764      4378  TIP3      OH2           -11.9095994345       16.6173238248       23.1303000780  TIP3      3978            0.0000000000
     61765      4378  TIP3      H1            -11.7237480077       17.4277314323       22.6684205827  TIP3      3978            0.0000000000
     61766      4378  TIP3      H2            -12.0918162017       16.9040050669       24.0620291748  TIP3      3978            0.0000000000
     61767      4379  TIP3      OH2           -13.1675310294        3.3140453958       22.7362162955  TIP3      3979            0.0000000000
     61768      4379  TIP3      H1            -13.2383866832        4.1986195556       23.1412189242  TIP3      3979            0.0000000000
     61769      4379  TIP3      H2            -12.2734300785        3.0421974051       23.0206262824  TIP3      3979            0.0000000000
     61770      4380  TIP3      OH2            -2.9494531912        4.0404545151       35.1884864067  TIP3      3980            0.0000000000
     61771      4380  TIP3      H1             -3.8893168391        4.3292322859       35.0706016993  TIP3      3980            0.0000000000
     61772      4380  TIP3      H2             -2.6453159596        4.0394490338       34.2677649723  TIP3      3980            0.0000000000
     61773      4381  TIP3      OH2            -4.3587321978        7.8182472130       29.2394223416  TIP3      3981            0.0000000000
     61774      4381  TIP3      H1             -5.1715142064        7.3821256769       28.9317717617  TIP3      3981            0.0000000000
     61775      4381  TIP3      H2             -3.8995129053        7.1152317125       29.7511351623  TIP3      3981            0.0000000000
     61776      4382  TIP3      OH2            -3.2927051300       17.0492084871       30.8800603998  TIP3      3982            0.0000000000
     61777      4382  TIP3      H1             -3.4049365915       17.7557525505       30.2147866190  TIP3      3982            0.0000000000
     61778      4382  TIP3      H2             -2.3326116225       17.1343031264       31.0728597941  TIP3      3982            0.0000000000
     61779      4383  TIP3      OH2           -15.7803058438        1.1945120882       29.6524985195  TIP3      3983            0.0000000000
     61780      4383  TIP3      H1            -16.0070217931        1.2291756778       28.6966882654  TIP3      3983            0.0000000000
     61781      4383  TIP3      H2            -16.2230491386        0.3678182864       29.9299760815  TIP3      3983            0.0000000000
     61782      4384  TIP3      OH2           -16.8550495933       15.1074130672       25.7852051580  TIP3      3984            0.0000000000
     61783      4384  TIP3      H1            -17.6884920021       15.5971359008       25.8144364802  TIP3      3984            0.0000000000
     61784      4384  TIP3      H2            -16.3190046974       15.6247498867       25.1747226452  TIP3      3984            0.0000000000
     61785      4385  TIP3      OH2           -17.5896198309       17.7540024794       37.1096993064  TIP3      3985            0.0000000000
     61786      4385  TIP3      H1            -17.0213911268       17.5332092983       37.8748803411  TIP3      3985            0.0000000000
     61787      4385  TIP3      H2            -18.0447438844       16.9142534762       36.9313312453  TIP3      3985            0.0000000000
     61788      4386  TIP3      OH2           -12.9600216184       16.6652348651       38.7377322450  TIP3      3986            0.0000000000
     61789      4386  TIP3      H1            -12.1930840882       16.1873106379       39.0693081315  TIP3      3986            0.0000000000
     61790      4386  TIP3      H2            -12.9907856581       16.4163011318       37.7930337572  TIP3      3986            0.0000000000
     61791      4387  TIP3      OH2            -6.2690873538       15.0081270906       37.4168134630  TIP3      3987            0.0000000000
     61792      4387  TIP3      H1             -6.6358370641       14.1562271127       37.7355836870  TIP3      3987            0.0000000000
     61793      4387  TIP3      H2             -5.5878123117       15.1878911706       38.0981395269  TIP3      3987            0.0000000000
     61794      4388  TIP3      OH2           -17.6560339204       11.5412102521       38.0892239503  TIP3      3988            0.0000000000
     61795      4388  TIP3      H1            -17.5424745453       10.6260158969       37.7762336448  TIP3      3988            0.0000000000
     61796      4388  TIP3      H2            -18.4401045546       11.8186992315       37.5661030670  TIP3      3988            0.0000000000
     61797      4389  TIP3      OH2           -11.0016331995       11.5275729905       37.4896097750  TIP3      3989            0.0000000000
     61798      4389  TIP3      H1            -11.3470791213       11.7907707170       36.6214436854  TIP3      3989            0.0000000000
     61799      4389  TIP3      H2            -10.8670244514       10.5509883901       37.4032841882  TIP3      3989            0.0000000000
     61800      4390  TIP3      OH2            -5.2929612317       11.4106376151       34.8876285074  TIP3      3990            0.0000000000
     61801      4390  TIP3      H1             -4.5147355719       12.0047998878       34.7807830110  TIP3      3990            0.0000000000
     61802      4390  TIP3      H2             -6.0148229916       12.0356620743       34.9336488349  TIP3      3990            0.0000000000
     61803      4391  TIP3      OH2           -16.7304543511        8.7842710929       37.5160229841  TIP3      3991            0.0000000000
     61804      4391  TIP3      H1            -16.4349716393        7.8731109571       37.3720146496  TIP3      3991            0.0000000000
     61805      4391  TIP3      H2            -17.1061612932        8.7473918761       38.4190458504  TIP3      3991            0.0000000000
     61806      4392  TIP3      OH2           -12.1598398238        9.8791219752       22.5095068240  TIP3      3992            0.0000000000
     61807      4392  TIP3      H1            -12.6373280639        9.3875125596       23.2031680518  TIP3      3992            0.0000000000
     61808      4392  TIP3      H2            -11.8858315551        9.1955233396       21.8839600452  TIP3      3992            0.0000000000
     61809      4393  TIP3      OH2           -12.8812403281        7.7380646406       34.8717353800  TIP3      3993            0.0000000000
     61810      4393  TIP3      H1            -13.5022267011        8.4378529193       35.1146451028  TIP3      3993            0.0000000000
     61811      4393  TIP3      H2            -12.5220899802        8.0749319858       34.0278237407  TIP3      3993            0.0000000000
     61812      4394  TIP3      OH2            -7.8453892677       10.2689849292       38.1861002035  TIP3      3994            0.0000000000
     61813      4394  TIP3      H1             -6.8848028761       10.2812278190       38.0944049743  TIP3      3994            0.0000000000
     61814      4394  TIP3      H2             -8.0189891879        9.5039740514       38.7691051244  TIP3      3994            0.0000000000
     61815      4395  TIP3      OH2           -12.5162093564        5.1112401260       35.9388556217  TIP3      3995            0.0000000000
     61816      4395  TIP3      H1            -12.3860051481        4.3789792444       35.3125819546  TIP3      3995            0.0000000000
     61817      4395  TIP3      H2            -12.5334364379        5.8964753466       35.3601555984  TIP3      3995            0.0000000000
     61818      4396  TIP3      OH2           -12.1065788225        3.4737411747       33.4545660386  TIP3      3996            0.0000000000
     61819      4396  TIP3      H1            -11.5821475473        3.9354505654       32.7610154792  TIP3      3996            0.0000000000
     61820      4396  TIP3      H2            -12.9875477349        3.3797930798       33.0234808342  TIP3      3996            0.0000000000
     61821      4397  TIP3      OH2           -10.5400347450        8.9302019880       33.6874535577  TIP3      3997            0.0000000000
     61822      4397  TIP3      H1             -9.7916695205        8.7684809742       33.1053569007  TIP3      3997            0.0000000000
     61823      4397  TIP3      H2            -10.8975717997        9.7764871309       33.3837419568  TIP3      3997            0.0000000000
     61824      4398  TIP3      OH2            -6.1420049291        6.7232661866       38.6908675003  TIP3      3998            0.0000000000
     61825      4398  TIP3      H1             -5.9295435229        5.7844746192       38.5894069270  TIP3      3998            0.0000000000
     61826      4398  TIP3      H2             -5.2697034304        7.1485526818       38.6845085855  TIP3      3998            0.0000000000
     61827      4399  TIP3      OH2            -4.8190617238        9.5061464022       36.8185016340  TIP3      3999            0.0000000000
     61828      4399  TIP3      H1             -5.0732431534       10.2276901326       36.1996177229  TIP3      3999            0.0000000000
     61829      4399  TIP3      H2             -3.8615202506        9.4618284354       36.6200077478  TIP3      3999            0.0000000000
     61830      4400  TIP3      OH2           -14.0589300919        6.3573295269       37.8096684100  TIP3      4000            0.0000000000
     61831      4400  TIP3      H1            -14.8159526498        5.7559643826       37.6423226122  TIP3      4000            0.0000000000
     61832      4400  TIP3      H2            -13.3736934339        5.9748175418       37.2299942460  TIP3      4000            0.0000000000
     61833      4401  TIP3      OH2           -11.3089344546        0.9147764053       33.8758640935  TIP3      4001            0.0000000000
     61834      4401  TIP3      H1            -11.4440666999        1.8839024031       33.7583196604  TIP3      4001            0.0000000000
     61835      4401  TIP3      H2            -12.0641265830        0.5592068531       33.3727208056  TIP3      4001            0.0000000000
     61836      4402  TIP3      OH2           -10.0295476907        5.2287769780       37.4375483865  TIP3      4002            0.0000000000
     61837      4402  TIP3      H1            -10.3148411154        5.0263237398       38.3512134305  TIP3      4002            0.0000000000
     61838      4402  TIP3      H2            -10.8398972073        5.0521033099       36.9249974433  TIP3      4002            0.0000000000
     61839      4403  TIP3      OH2            -7.3231839570        4.3782683973       36.5144594427  TIP3      4003            0.0000000000
     61840      4403  TIP3      H1             -8.2865026205        4.4220419431       36.6540117610  TIP3      4003            0.0000000000
     61841      4403  TIP3      H2             -7.0343079618        3.7496845357       37.1959025445  TIP3      4003            0.0000000000
     61842      4404  TIP3      OH2            -5.7208591633        3.0149584457       38.4882528291  TIP3      4004            0.0000000000
     61843      4404  TIP3      H1             -5.7924614643        2.0440275385       38.5032869783  TIP3      4004            0.0000000000
     61844      4404  TIP3      H2             -6.0159200151        3.2948626980       39.3847558718  TIP3      4004            0.0000000000
     61845      4405  TIP3      OH2           -15.8958774184        4.2683840457       37.5673907190  TIP3      4005            0.0000000000
     61846      4405  TIP3      H1            -15.6791419583        3.5291346540       36.9621375431  TIP3      4005            0.0000000000
     61847      4405  TIP3      H2            -16.0043758474        3.8061490684       38.4240233089  TIP3      4005            0.0000000000
     61848      4406  TIP3      OH2           -11.0996528630        0.2603575071       36.5539365470  TIP3      4006            0.0000000000
     61849      4406  TIP3      H1            -10.3886167351       -0.4154867333       36.5223417162  TIP3      4006            0.0000000000
     61850      4406  TIP3      H2            -11.1950284544        0.4753121056       35.6070932153  TIP3      4006            0.0000000000
     61851      4407  TIP3      OH2           -10.7374696828        1.9107145411       38.6234354365  TIP3      4007            0.0000000000
     61852      4407  TIP3      H1            -10.8848562276        1.4168174173       37.7791162731  TIP3      4007            0.0000000000
     61853      4407  TIP3      H2            -11.3359716237        2.6766999411       38.5400290058  TIP3      4007            0.0000000000
     61854      4408  TIP3      OH2           -18.9445481429       18.8115131121       26.3062367083  TIP3      4008            0.0000000000
     61855      4408  TIP3      H1            -19.6325488520       18.3406969054       25.7913632352  TIP3      4008            0.0000000000
     61856      4408  TIP3      H2            -18.6331319441       18.1371917684       26.9296479221  TIP3      4008            0.0000000000
     61857      4409  TIP3      OH2           -18.1035840736       16.9078155972       28.1318766179  TIP3      4009            0.0000000000
     61858      4409  TIP3      H1            -18.4536628863       16.0246238644       28.3230940805  TIP3      4009            0.0000000000
     61859      4409  TIP3      H2            -17.8792301164       17.2475343574       29.0166507872  TIP3      4009            0.0000000000
     61860      4410  TIP3      OH2            -0.5689689605       17.7111254646       31.0945339850  TIP3      4010            0.0000000000
     61861      4410  TIP3      H1             -0.5600869302       17.8949814738       32.0495417134  TIP3      4010            0.0000000000
     61862      4410  TIP3      H2              0.1352033291       18.2892545922       30.7773087804  TIP3      4010            0.0000000000
     61863      4411  TIP3      OH2            -0.9918176319       17.3092245829       34.0332409887  TIP3      4011            0.0000000000
     61864      4411  TIP3      H1             -1.4746830473       16.5386484934       33.6593054954  TIP3      4011            0.0000000000
     61865      4411  TIP3      H2             -0.4656633713       16.8733590479       34.7223850705  TIP3      4011            0.0000000000
     61866      4412  TIP3      OH2            -2.5384224166       13.0390378505       38.6725778478  TIP3      4012            0.0000000000
     61867      4412  TIP3      H1             -3.4186592828       12.9836809834       39.0791043935  TIP3      4012            0.0000000000
     61868      4412  TIP3      H2             -2.1699229732       13.8364662791       39.1224331054  TIP3      4012            0.0000000000
     61869      4413  TIP3      OH2            -1.2315707733       11.3401698987       24.1502509433  TIP3      4013            0.0000000000
     61870      4413  TIP3      H1             -0.3752728815       11.7464648094       24.3398786159  TIP3      4013            0.0000000000
     61871      4413  TIP3      H2             -1.2373748523       10.6025146589       24.8068340353  TIP3      4013            0.0000000000
     61872      4414  TIP3      OH2            -0.8624580602        9.4056315358       25.9893593196  TIP3      4014            0.0000000000
     61873      4414  TIP3      H1             -1.5990806200        8.9108629740       26.4111754744  TIP3      4014            0.0000000000
     61874      4414  TIP3      H2             -0.2678842458        9.5831264021       26.7519145516  TIP3      4014            0.0000000000
     61875      4415  TIP3      OH2            -1.1095348900       12.1449737134       30.9807861587  TIP3      4015            0.0000000000
     61876      4415  TIP3      H1             -0.2675037780       11.7791092169       30.6498975754  TIP3      4015            0.0000000000
     61877      4415  TIP3      H2             -0.9683508580       13.1053735918       30.8325800806  TIP3      4015            0.0000000000
     61878      4416  TIP3      OH2            -2.5746772179       15.0407681142       33.2736710020  TIP3      4016            0.0000000000
     61879      4416  TIP3      H1             -3.2566110595       15.3735493421       33.8789244440  TIP3      4016            0.0000000000
     61880      4416  TIP3      H2             -3.1206432905       14.6157773954       32.5771279423  TIP3      4016            0.0000000000
     61881      4417  TIP3      OH2            -0.5640934523        9.2762607919       22.3879195751  TIP3      4017            0.0000000000
     61882      4417  TIP3      H1             -1.1335309194        9.6309711238       21.6819909589  TIP3      4017            0.0000000000
     61883      4417  TIP3      H2             -0.6298247618        9.9637788797       23.0824659802  TIP3      4017            0.0000000000
     61884      4418  TIP3      OH2            -3.0563391030        7.9070144325       26.5610144978  TIP3      4018            0.0000000000
     61885      4418  TIP3      H1             -3.2112385488        6.9522745780       26.5600623783  TIP3      4018            0.0000000000
     61886      4418  TIP3      H2             -3.4056204242        8.1634666164       27.4328845035  TIP3      4018            0.0000000000
     61887      4419  TIP3      OH2           -18.0287420923       10.0150285524       30.6027752196  TIP3      4019            0.0000000000
     61888      4419  TIP3      H1            -17.8435130622        9.9011775721       29.6506052733  TIP3      4019            0.0000000000
     61889      4419  TIP3      H2            -17.1609082158        9.8372659325       31.0054278343  TIP3      4019            0.0000000000
     61890      4420  TIP3      OH2            -2.2120075336        9.8763780875       36.2413052650  TIP3      4020            0.0000000000
     61891      4420  TIP3      H1             -1.6013574339        9.1270005203       36.4017319184  TIP3      4020            0.0000000000
     61892      4420  TIP3      H2             -1.6187874300       10.6539818888       36.2611555462  TIP3      4020            0.0000000000
     61893      4421  TIP3      OH2            -0.6999191482        7.7801226076       36.9171589062  TIP3      4021            0.0000000000
     61894      4421  TIP3      H1             -1.5762602290        7.3768904828       36.7387321012  TIP3      4021            0.0000000000
     61895      4421  TIP3      H2             -0.1109264379        7.0140168962       36.8287411500  TIP3      4021            0.0000000000
     61896      4422  TIP3      OH2            -3.0130076359        3.7745994857       20.0202661947  TIP3      4022            0.0000000000
     61897      4422  TIP3      H1             -2.3814692948        3.5247827736       20.7091813441  TIP3      4022            0.0000000000
     61898      4422  TIP3      H2             -3.8772102887        3.5053845790       20.2915825118  TIP3      4022            0.0000000000
     61899      4423  TIP3      OH2            -3.3715345219        5.4948839260       25.0349388849  TIP3      4023            0.0000000000
     61900      4423  TIP3      H1             -3.0730256618        4.5636094393       25.1640246234  TIP3      4023            0.0000000000
     61901      4423  TIP3      H2             -2.5870505660        5.9094805029       24.6597501646  TIP3      4023            0.0000000000
     61902      4424  TIP3      OH2            -2.7520072610        6.0425690879       30.4708396762  TIP3      4024            0.0000000000
     61903      4424  TIP3      H1             -1.7944426329        6.2795111139       30.4530736450  TIP3      4024            0.0000000000
     61904      4424  TIP3      H2             -2.9565431591        6.1773801120       31.4096037030  TIP3      4024            0.0000000000
     61905      4425  TIP3      OH2            -2.6910013814        6.7714808102       33.2540771505  TIP3      4025            0.0000000000
     61906      4425  TIP3      H1             -3.5607369055        7.0667815488       33.6029322034  TIP3      4025            0.0000000000
     61907      4425  TIP3      H2             -2.2576447506        7.6315798275       33.0370611221  TIP3      4025            0.0000000000
     61908      4426  TIP3      OH2           -18.4363120285        5.2637825999       36.7407252437  TIP3      4026            0.0000000000
     61909      4426  TIP3      H1            -17.5019119034        5.1034131431       36.9653342032  TIP3      4026            0.0000000000
     61910      4426  TIP3      H2            -18.8860126118        4.4772880293       37.1042401093  TIP3      4026            0.0000000000
     61911      4427  TIP3      OH2            -0.4211830440        0.7927952288       38.6021654837  TIP3      4027            0.0000000000
     61912      4427  TIP3      H1             -0.0682290122        0.1335903089       37.9883350820  TIP3      4027            0.0000000000
     61913      4427  TIP3      H2             -0.2863720083        1.6290088264       38.1248021546  TIP3      4027            0.0000000000
     61914      4428  TIP3      OH2            -2.7266756590        2.7697141039       25.0783847060  TIP3      4028            0.0000000000
     61915      4428  TIP3      H1             -2.5371463689        2.3104039900       25.9214376507  TIP3      4028            0.0000000000
     61916      4428  TIP3      H2             -3.3398028922        2.1465375075       24.6302722052  TIP3      4028            0.0000000000
     61917      4429  TIP3      OH2           -17.2257670546        3.5766668323       29.6222701728  TIP3      4029            0.0000000000
     61918      4429  TIP3      H1            -16.7612013670        2.7661086079       29.9152389131  TIP3      4029            0.0000000000
     61919      4429  TIP3      H2            -16.7243471376        4.2877930841       30.0462167364  TIP3      4029            0.0000000000
     61920      4430  TIP3      OH2           -18.9272699839        6.5521147857       30.6805174579  TIP3      4030            0.0000000000
     61921      4430  TIP3      H1            -18.3874378045        6.3494063079       29.8989576550  TIP3      4030            0.0000000000
     61922      4430  TIP3      H2            -18.5328696718        7.3979806271       30.9674619182  TIP3      4030            0.0000000000
     61923      4431  TIP3      OH2            -0.8894088928        2.9068473146       36.9659046182  TIP3      4031            0.0000000000
     61924      4431  TIP3      H1             -1.8326598576        3.1699523901       36.9119979655  TIP3      4031            0.0000000000
     61925      4431  TIP3      H2             -0.8169531294        2.3649959177       36.1630376600  TIP3      4031            0.0000000000
     61926      4432  TIP3      OH2            -0.8850376024        2.8227634185       21.6113518251  TIP3      4032            0.0000000000
     61927      4432  TIP3      H1             -0.4507271734        2.0928136619       21.1311313278  TIP3      4032            0.0000000000
     61928      4432  TIP3      H2             -0.1697997291        3.4598809171       21.6851070986  TIP3      4032            0.0000000000
     61929      4433  TIP3      OH2           -18.5827294554        2.8436057218       24.7505610889  TIP3      4033            0.0000000000
     61930      4433  TIP3      H1            -19.5250027232        3.0290429117       24.6104183254  TIP3      4033            0.0000000000
     61931      4433  TIP3      H2            -18.1399511586        3.3221801270       24.0361902159  TIP3      4033            0.0000000000
     61932      4434  TIP3      OH2            -3.8302076039       17.8169076891       26.6580006661  TIP3      4034            0.0000000000
     61933      4434  TIP3      H1             -3.1383481822       17.4813252138       26.0700740542  TIP3      4034            0.0000000000
     61934      4434  TIP3      H2             -3.3100655174       18.2972841833       27.3306070567  TIP3      4034            0.0000000000
     61935      4435  TIP3      OH2           -18.6180090273        1.5275403963       33.0688779965  TIP3      4035            0.0000000000
     61936      4435  TIP3      H1            -19.2993282089        1.3140075938       33.7302766490  TIP3      4035            0.0000000000
     61937      4435  TIP3      H2            -19.0801915405        2.1849755972       32.5045175512  TIP3      4035            0.0000000000
     61938      4436  TIP3      OH2           -16.4102261991       14.7044227449       37.2282322363  TIP3      4036            0.0000000000
     61939      4436  TIP3      H1            -17.2500155017       14.9100051174       36.7789817791  TIP3      4036            0.0000000000
     61940      4436  TIP3      H2            -16.6874023843       14.6665464404       38.1513441171  TIP3      4036            0.0000000000
     61941      4437  TIP3      OH2           -13.4902125705       15.6932216566       33.5120516447  TIP3      4037            0.0000000000
     61942      4437  TIP3      H1            -13.8823211000       16.5318966724       33.2099078411  TIP3      4037            0.0000000000
     61943      4437  TIP3      H2            -12.5881053645       15.8178745583       33.1674658784  TIP3      4037            0.0000000000
     61944      4438  TIP3      OH2            -9.1507157208       17.0439785634       36.4025707197  TIP3      4038            0.0000000000
     61945      4438  TIP3      H1             -9.0221453027       16.8559037516       37.3592171262  TIP3      4038            0.0000000000
     61946      4438  TIP3      H2             -8.2963837550       17.4650146406       36.1371837693  TIP3      4038            0.0000000000
     61947      4439  TIP3      OH2            -6.8782727008       18.3611636475       35.7035641683  TIP3      4039            0.0000000000
     61948      4439  TIP3      H1             -6.1263842049       17.7969898848       35.4526301470  TIP3      4039            0.0000000000
     61949      4439  TIP3      H2             -6.4945560762       18.8178024563       36.4909774800  TIP3      4039            0.0000000000
     61950      4440  TIP3      OH2            -1.8853268467        1.0037212370       34.7951001023  TIP3      4040            0.0000000000
     61951      4440  TIP3      H1             -2.7154130760        1.3054738705       34.3814570797  TIP3      4040            0.0000000000
     61952      4440  TIP3      H2             -1.6884364560        0.2075189507       34.2503769173  TIP3      4040            0.0000000000
     61953      4441  TIP3      OH2           -16.0731043339       18.9569673591       33.5154571265  TIP3      4041            0.0000000000
     61954      4441  TIP3      H1            -16.8077953223       19.4245867475       33.0879885622  TIP3      4041            0.0000000000
     61955      4441  TIP3      H2            -16.4246091262       18.7283530555       34.3877657638  TIP3      4041            0.0000000000
     61956      4442  TIP3      OH2           -13.5896271844       18.5330651774       32.5618663892  TIP3      4042            0.0000000000
     61957      4442  TIP3      H1            -14.4834998716       18.6514612870       32.9642188418  TIP3      4042            0.0000000000
     61958      4442  TIP3      H2            -13.6723422301       19.1194264522       31.7866120234  TIP3      4042            0.0000000000
     61959      4443  TIP3      OH2            -8.8690974557       18.4273242192       31.7465115867  TIP3      4043            0.0000000000
     61960      4443  TIP3      H1             -9.3762445796       18.9656872709       31.1111130314  TIP3      4043            0.0000000000
     61961      4443  TIP3      H2             -8.7427109613       19.0694794551       32.4822992343  TIP3      4043            0.0000000000
     61962      4444  TIP3      OH2            -6.5926781151       17.2751757038       32.7245656184  TIP3      4044            0.0000000000
     61963      4444  TIP3      H1             -7.4662026772       17.5295425158       32.3991094206  TIP3      4044            0.0000000000
     61964      4444  TIP3      H2             -6.1332091940       18.1398672536       32.6384372778  TIP3      4044            0.0000000000
     61965      4445  TIP3      OH2            -3.9888846554       18.8591210200       33.0014960845  TIP3      4045            0.0000000000
     61966      4445  TIP3      H1             -4.1226254673       19.8107531932       32.7619808218  TIP3      4045            0.0000000000
     61967      4445  TIP3      H2             -3.7994714286       18.4823167397       32.1209530426  TIP3      4045            0.0000000000
     61968      4446  TIP3      OH2           -16.6445439214       17.5980892510       30.4339891245  TIP3      4046            0.0000000000
     61969      4446  TIP3      H1            -16.6862430102       17.1426551563       31.3033279911  TIP3      4046            0.0000000000
     61970      4446  TIP3      H2            -15.8248605354       17.2440383264       30.0323783677  TIP3      4046            0.0000000000
     61971      4447  TIP3      OH2           -14.5596481936       16.3130324920       29.0958523429  TIP3      4047            0.0000000000
     61972      4447  TIP3      H1            -14.7166521716       15.3724065737       29.2852933971  TIP3      4047            0.0000000000
     61973      4447  TIP3      H2            -13.6899433095       16.4340583926       29.5448979894  TIP3      4047            0.0000000000
     61974      4448  TIP3      OH2           -11.9917059940       16.8196349783       29.9922889021  TIP3      4048            0.0000000000
     61975      4448  TIP3      H1            -11.7770838451       15.9060339114       29.6376547992  TIP3      4048            0.0000000000
     61976      4448  TIP3      H2            -11.9188556326       16.7089340249       30.9344885348  TIP3      4048            0.0000000000
     61977      4449  TIP3      OH2            -8.4778676409        2.4384460675       29.0970094222  TIP3      4049            0.0000000000
     61978      4449  TIP3      H1             -9.1542225012        1.7940455076       29.3574474132  TIP3      4049            0.0000000000
     61979      4449  TIP3      H2             -7.9199964810        1.9279607832       28.4989101280  TIP3      4049            0.0000000000
     61980      4450  TIP3      OH2            -3.3417994154        0.5131059265       29.1986137639  TIP3      4050            0.0000000000
     61981      4450  TIP3      H1             -2.7230267381        1.0900220995       28.6818192457  TIP3      4050            0.0000000000
     61982      4450  TIP3      H2             -4.2182603073        0.8579109157       28.9492436904  TIP3      4050            0.0000000000
     61983      4451  TIP3      OH2            -1.6502333441        1.7029723186       27.4989144851  TIP3      4051            0.0000000000
     61984      4451  TIP3      H1             -0.9851294326        1.1551118621       27.0143581465  TIP3      4051            0.0000000000
     61985      4451  TIP3      H2             -1.1952305801        2.5700960034       27.5559205770  TIP3      4051            0.0000000000
     61986      4452  TIP3      OH2           -16.1333477668        1.0793305622       26.9406950240  TIP3      4052            0.0000000000
     61987      4452  TIP3      H1            -16.9171049463        0.8428062930       26.4088147390  TIP3      4052            0.0000000000
     61988      4452  TIP3      H2            -15.6317759155        0.2420123439       26.9047523247  TIP3      4052            0.0000000000
     61989      4453  TIP3      OH2           -17.3301212836        0.8519024949       22.7111629435  TIP3      4053            0.0000000000
     61990      4453  TIP3      H1            -16.8691769487        1.4697769455       22.1155907705  TIP3      4053            0.0000000000
     61991      4453  TIP3      H2            -17.9473418682        1.4007004916       23.2008055430  TIP3      4053            0.0000000000
     61992      4454  TIP3      OH2           -11.5983403696        0.9912978099       26.7218597378  TIP3      4054            0.0000000000
     61993      4454  TIP3      H1            -10.7047641661        1.3724913039       26.6930078802  TIP3      4054            0.0000000000
     61994      4454  TIP3      H2            -11.6890926278        0.7768211778       27.6520234501  TIP3      4054            0.0000000000
     61995      4455  TIP3      OH2            -5.9763397716        1.0241209859       28.3715460476  TIP3      4055            0.0000000000
     61996      4455  TIP3      H1             -5.9500745240        1.1136572810       27.4126376696  TIP3      4055            0.0000000000
     61997      4455  TIP3      H2             -6.3013200454        0.1015978259       28.4968504976  TIP3      4055            0.0000000000
     61998      4456  TIP3      OH2            -4.6543968238        1.0528643137       24.0301701537  TIP3      4056            0.0000000000
     61999      4456  TIP3      H1             -5.3853993399        1.6593538600       23.8658061760  TIP3      4056            0.0000000000
     62000      4456  TIP3      H2             -5.1004442835        0.1922809333       24.2303165332  TIP3      4056            0.0000000000
     62001      4457  TIP3      OH2           -17.4298506329       16.7968071595       23.6347463139  TIP3      4057            0.0000000000
     62002      4457  TIP3      H1            -18.0938737192       16.7965362758       22.9464655634  TIP3      4057            0.0000000000
     62003      4457  TIP3      H2            -17.4205207220       17.7339428939       23.8910094265  TIP3      4057            0.0000000000
     62004      4458  TIP3      OH2           -15.4725735830        2.7717099477       21.1503889641  TIP3      4058            0.0000000000
     62005      4458  TIP3      H1            -14.9780722753        2.1360489567       20.6307430221  TIP3      4058            0.0000000000
     62006      4458  TIP3      H2            -14.8266456480        3.0632164437       21.8160231861  TIP3      4058            0.0000000000
     62007      4459  TIP3      OH2           -10.4573525301        3.0501077487       23.5912801020  TIP3      4059            0.0000000000
     62008      4459  TIP3      H1            -10.2427096314        2.4333529182       24.3132894272  TIP3      4059            0.0000000000
     62009      4459  TIP3      H2            -10.4522541296        3.9046412144       24.0847754733  TIP3      4059            0.0000000000
     62010      4460  TIP3      OH2            -1.8455491832       17.5912906804       24.7163615563  TIP3      4060            0.0000000000
     62011      4460  TIP3      H1             -2.0486158882       16.8219907057       24.1468506203  TIP3      4060            0.0000000000
     62012      4460  TIP3      H2             -1.9026324206       18.3449330830       24.0974269876  TIP3      4060            0.0000000000
     62013      4461  TIP3      OH2           -16.2168079698        1.5999125942       36.4089072981  TIP3      4061            0.0000000000
     62014      4461  TIP3      H1            -16.5729964377        0.8083232091       36.8564072070  TIP3      4061            0.0000000000
     62015      4461  TIP3      H2            -15.2868553082        1.5860256444       36.7435570915  TIP3      4061            0.0000000000
     62016      4462  TIP3      OH2           -14.2159416585        0.9739486236       38.0006640994  TIP3      4062            0.0000000000
     62017      4462  TIP3      H1            -13.3190564345        0.6428314166       37.7878402641  TIP3      4062            0.0000000000
     62018      4462  TIP3      H2            -14.5976584093        0.1840610058       38.4380084459  TIP3      4062            0.0000000000
     62019      4463  TIP3      OH2           -15.5586974376       17.7408995217       20.6559917280  TIP3      4063            0.0000000000
     62020      4463  TIP3      H1            -15.8823884356       18.0381073509       21.5161186421  TIP3      4063            0.0000000000
     62021      4463  TIP3      H2            -14.8308261451       17.1673246778       20.8080342938  TIP3      4063            0.0000000000
     62022      4464  TIP3      OH2            -5.8114750809        0.2788522076       38.1643010880  TIP3      4064            0.0000000000
     62023      4464  TIP3      H1             -5.7135322197       -0.1815362637       39.0196528377  TIP3      4064            0.0000000000
     62024      4464  TIP3      H2             -4.8952016501        0.2653436793       37.8194263122  TIP3      4064            0.0000000000
     62025      4465  TIP3      OH2            -2.6170043491       16.3170825492       36.8581605993  TIP3      4065            0.0000000000
     62026      4465  TIP3      H1             -3.4080265256       16.1696865667       36.3024893035  TIP3      4065            0.0000000000
     62027      4465  TIP3      H2             -2.7074719409       17.2752477515       37.0478378775  TIP3      4065            0.0000000000
     62028      4466  TIP3      OH2            11.8259295036       10.2118124248       26.8448207259  TIP3      4066            0.0000000000
     62029      4466  TIP3      H1             11.8445823770       11.1838653358       26.7529898221  TIP3      4066            0.0000000000
     62030      4466  TIP3      H2             11.1272558188        9.9588124589       26.2174471050  TIP3      4066            0.0000000000
     62031      4467  TIP3      OH2            10.9461276491        9.2979592961       30.0825517737  TIP3      4067            0.0000000000
     62032      4467  TIP3      H1             10.6635983161        8.9028167247       30.9553423279  TIP3      4067            0.0000000000
     62033      4467  TIP3      H2             10.3084565649        8.9386745948       29.4724809558  TIP3      4067            0.0000000000
     62034      4468  TIP3      OH2             3.0604957452        9.1123141644       31.8654444936  TIP3      4068            0.0000000000
     62035      4468  TIP3      H1              3.1332128774        8.4563581370       32.5918782204  TIP3      4068            0.0000000000
     62036      4468  TIP3      H2              3.7897113148        9.7099567883       32.0765398550  TIP3      4068            0.0000000000
     62037      4469  TIP3      OH2            14.4243009651       12.4006679983       28.6149668475  TIP3      4069            0.0000000000
     62038      4469  TIP3      H1             13.9498538791       11.6819374221       29.0391286759  TIP3      4069            0.0000000000
     62039      4469  TIP3      H2             14.3971596945       13.1587426996       29.2119275623  TIP3      4069            0.0000000000
     62040      4470  TIP3      OH2             3.9918921684       13.5647714791       30.4046079019  TIP3      4070            0.0000000000
     62041      4470  TIP3      H1              3.6502659472       12.7249570837       30.0443280581  TIP3      4070            0.0000000000
     62042      4470  TIP3      H2              4.9461562680       13.3751261486       30.4438643418  TIP3      4070            0.0000000000
     62043      4471  TIP3      OH2             0.6328070112        7.1698613234       25.8082565727  TIP3      4071            0.0000000000
     62044      4471  TIP3      H1              0.1716742298        8.0378621127       25.7990394581  TIP3      4071            0.0000000000
     62045      4471  TIP3      H2              0.0417010518        6.6143136974       25.2927255137  TIP3      4071            0.0000000000
     62046      4472  TIP3      OH2             1.3183551339        9.3699682101       27.9583517108  TIP3      4072            0.0000000000
     62047      4472  TIP3      H1              1.5656880641        8.5709980990       28.4583616204  TIP3      4072            0.0000000000
     62048      4472  TIP3      H2              2.0541695016        9.4574059348       27.3317022954  TIP3      4072            0.0000000000
     62049      4473  TIP3      OH2            11.5107789451       17.5530039091       28.8117433909  TIP3      4073            0.0000000000
     62050      4473  TIP3      H1             12.1491023079       16.8461601572       28.5364379570  TIP3      4073            0.0000000000
     62051      4473  TIP3      H2             11.3115878416       17.2803648642       29.7059150296  TIP3      4073            0.0000000000
     62052      4474  TIP3      OH2             9.1014413524       12.1755844810       30.4205867618  TIP3      4074            0.0000000000
     62053      4474  TIP3      H1              9.3513233911       11.2766164661       30.1194602814  TIP3      4074            0.0000000000
     62054      4474  TIP3      H2              9.6992061021       12.0464769452       31.2212527960  TIP3      4074            0.0000000000
     62055      4475  TIP3      OH2            17.7217052618        3.5033558111       31.5339770101  TIP3      4075            0.0000000000
     62056      4475  TIP3      H1             17.8346296224        4.1238787991       32.2858742597  TIP3      4075            0.0000000000
     62057      4475  TIP3      H2             18.2151757932        3.9641178327       30.8386904146  TIP3      4075            0.0000000000
     62058      4476  TIP3      OH2            12.2509125185        6.3173088666       31.0602547074  TIP3      4076            0.0000000000
     62059      4476  TIP3      H1             12.3889642253        5.3575791820       31.0534375664  TIP3      4076            0.0000000000
     62060      4476  TIP3      H2             12.1318299241        6.4996655193       30.1058572207  TIP3      4076            0.0000000000
     62061      4477  TIP3      OH2             5.3818492284        4.4105077409       28.3108064392  TIP3      4077            0.0000000000
     62062      4477  TIP3      H1              5.4475383653        5.2645220166       27.8532348832  TIP3      4077            0.0000000000
     62063      4477  TIP3      H2              4.9437876325        3.8480525797       27.6366272419  TIP3      4077            0.0000000000
     62064      4478  TIP3      OH2            13.1013313114        4.5240405340       26.6835990664  TIP3      4078            0.0000000000
     62065      4478  TIP3      H1             13.7688438821        4.1998608220       27.3339709038  TIP3      4078            0.0000000000
     62066      4478  TIP3      H2             13.6468825894        5.0628852971       26.0966324995  TIP3      4078            0.0000000000
     62067      4479  TIP3      OH2             1.9935231188        6.8214653726       29.0544220879  TIP3      4079            0.0000000000
     62068      4479  TIP3      H1              2.6683881038        6.2589307741       29.4905605276  TIP3      4079            0.0000000000
     62069      4479  TIP3      H2              2.0622568475        6.5203183990       28.1369793771  TIP3      4079            0.0000000000
     62070      4480  TIP3      OH2             7.1573395609        8.3721097212       28.3066849383  TIP3      4080            0.0000000000
     62071      4480  TIP3      H1              7.8011989269        7.8147999866       28.7781363112  TIP3      4080            0.0000000000
     62072      4480  TIP3      H2              6.5993359898        7.7044357055       27.8609322550  TIP3      4080            0.0000000000
     62073      4481  TIP3      OH2            18.1478777618        4.9613350552       33.7803565802  TIP3      4081            0.0000000000
     62074      4481  TIP3      H1             17.4778396197        5.6700252766       33.6925271016  TIP3      4081            0.0000000000
     62075      4481  TIP3      H2             18.1646127627        4.8088633877       34.7341192254  TIP3      4081            0.0000000000
     62076      4482  TIP3      OH2             4.2388602985        3.3136520568       32.3602318343  TIP3      4082            0.0000000000
     62077      4482  TIP3      H1              3.9808665003        3.8717138785       31.6012445634  TIP3      4082            0.0000000000
     62078      4482  TIP3      H2              3.5486679287        3.5537306235       33.0276350653  TIP3      4082            0.0000000000
     62079      4483  TIP3      OH2            11.5754472747       12.8052620610       25.9134140849  TIP3      4083            0.0000000000
     62080      4483  TIP3      H1             11.2645182757       12.5091402686       25.0508924696  TIP3      4083            0.0000000000
     62081      4483  TIP3      H2             11.2509043730       13.7316617322       25.9577585166  TIP3      4083            0.0000000000
     62082      4484  TIP3      OH2             6.7511660815       10.9723539745       32.6243504199  TIP3      4084            0.0000000000
     62083      4484  TIP3      H1              6.0465248145       11.6218043375       32.7822555499  TIP3      4084            0.0000000000
     62084      4484  TIP3      H2              7.5003186431       11.5340791412       32.3388057528  TIP3      4084            0.0000000000
     62085      4485  TIP3      OH2            14.8815440960        3.8379762753       28.6716857469  TIP3      4085            0.0000000000
     62086      4485  TIP3      H1             14.6763873367        3.0668051370       29.2111884568  TIP3      4085            0.0000000000
     62087      4485  TIP3      H2             15.5540678709        4.2908698972       29.2083714078  TIP3      4085            0.0000000000
     62088      4486  TIP3      OH2             3.7939771029        5.1939782606       30.3459857477  TIP3      4086            0.0000000000
     62089      4486  TIP3      H1              4.4382812997        5.8557972295       30.6927479038  TIP3      4086            0.0000000000
     62090      4486  TIP3      H2              4.3341975276        4.7471117582       29.6515746236  TIP3      4086            0.0000000000
     62091      4487  TIP3      OH2             5.2023863631       12.9546282647       33.4291145971  TIP3      4087            0.0000000000
     62092      4487  TIP3      H1              5.1799053907       13.8585308354       33.0655545068  TIP3      4087            0.0000000000
     62093      4487  TIP3      H2              4.3190865850       12.8864652609       33.8687782531  TIP3      4087            0.0000000000
     62094      4488  TIP3      OH2             1.2802862498       12.6039222328       24.2306878488  TIP3      4088            0.0000000000
     62095      4488  TIP3      H1              1.0481385274       12.8710027034       23.3363366178  TIP3      4088            0.0000000000
     62096      4488  TIP3      H2              1.3650081736       13.4569862608       24.7011423205  TIP3      4088            0.0000000000
     62097      4489  TIP3      OH2            14.9513098109       14.3560204952       30.8889553811  TIP3      4089            0.0000000000
     62098      4489  TIP3      H1             13.9844719179       14.4359365229       31.0629125054  TIP3      4089            0.0000000000
     62099      4489  TIP3      H2             15.2181912901       15.2951311358       30.7694867758  TIP3      4089            0.0000000000
     62100      4490  TIP3      OH2            15.2351100192        2.5366933877       32.3575777450  TIP3      4090            0.0000000000
     62101      4490  TIP3      H1             14.5001219560        3.1598778548       32.2956887654  TIP3      4090            0.0000000000
     62102      4490  TIP3      H2             15.9312118465        2.9586214764       31.8233762071  TIP3      4090            0.0000000000
     62103      4491  TIP3      OH2             8.2303352866        0.6423261390       29.8135297680  TIP3      4091            0.0000000000
     62104      4491  TIP3      H1              8.1012848174       -0.3242824248       29.7576599672  TIP3      4091            0.0000000000
     62105      4491  TIP3      H2              7.3538635581        0.9580469425       30.1066880864  TIP3      4091            0.0000000000
     62106      4492  TIP3      OH2            13.1832403684       16.0204441807       27.5857031496  TIP3      4092            0.0000000000
     62107      4492  TIP3      H1             13.6097713172       15.3235586821       27.0503334803  TIP3      4092            0.0000000000
     62108      4492  TIP3      H2             13.5364010571       16.8295963473       27.1501198987  TIP3      4092            0.0000000000
     62109      4493  TIP3      OH2            14.3691616923       13.9564003695       26.0708625027  TIP3      4093            0.0000000000
     62110      4493  TIP3      H1             14.0840607693       13.2512727973       25.4691475665  TIP3      4093            0.0000000000
     62111      4493  TIP3      H2             14.4129131743       13.4762462909       26.9088871561  TIP3      4093            0.0000000000
     62112      4494  TIP3      OH2            15.9925548742       12.5287693921       34.5423226148  TIP3      4094            0.0000000000
     62113      4494  TIP3      H1             16.1861600960       11.8933963857       33.8265576314  TIP3      4094            0.0000000000
     62114      4494  TIP3      H2             16.2151990566       13.3985216309       34.1777786885  TIP3      4094            0.0000000000
     62115      4495  TIP3      OH2            10.5232132041        9.4507883885       24.3253793876  TIP3      4095            0.0000000000
     62116      4495  TIP3      H1              9.7895724899       10.0045070254       23.9680441306  TIP3      4095            0.0000000000
     62117      4495  TIP3      H2             11.1862175596        9.5461427080       23.6407724404  TIP3      4095            0.0000000000
     62118      4496  TIP3      OH2            10.5883446553        7.9437015324       21.3698443839  TIP3      4096            0.0000000000
     62119      4496  TIP3      H1             11.2626164172        7.9308834320       22.0216703978  TIP3      4096            0.0000000000
     62120      4496  TIP3      H2             10.8532674867        7.3039281663       20.7073496396  TIP3      4096            0.0000000000
     62121      4497  TIP3      OH2            17.8740035547        8.8472980555       32.6159209634  TIP3      4097            0.0000000000
     62122      4497  TIP3      H1             17.2209696435        9.5604638120       32.6839530970  TIP3      4097            0.0000000000
     62123      4497  TIP3      H2             18.3569393995        9.0701635766       31.7991616196  TIP3      4097            0.0000000000
     62124      4498  TIP3      OH2            13.9268041155        9.6610872026       25.2291846547  TIP3      4098            0.0000000000
     62125      4498  TIP3      H1             13.1888632115        9.9030631590       25.8506710339  TIP3      4098            0.0000000000
     62126      4498  TIP3      H2             14.3755566764        8.9738700092       25.7569939604  TIP3      4098            0.0000000000
     62127      4499  TIP3      OH2            13.8616411398        7.8311016172       34.3466334093  TIP3      4099            0.0000000000
     62128      4499  TIP3      H1             13.8678656339        8.6254423241       34.9055927543  TIP3      4099            0.0000000000
     62129      4499  TIP3      H2             13.2018183990        8.1232972908       33.6675995361  TIP3      4099            0.0000000000
     62130      4500  TIP3      OH2             5.5544708949       10.3238251488       27.1651411923  TIP3      4100            0.0000000000
     62131      4500  TIP3      H1              5.2261997463        9.9280134516       26.3255013426  TIP3      4100            0.0000000000
     62132      4500  TIP3      H2              6.1586427711        9.6225603390       27.5008446002  TIP3      4100            0.0000000000
     62133      4501  TIP3      OH2             6.8867703609       13.7385562898       29.8390096445  TIP3      4101            0.0000000000
     62134      4501  TIP3      H1              6.8472775639       13.1570015550       29.0693107744  TIP3      4101            0.0000000000
     62135      4501  TIP3      H2              7.6601978354       13.3487387585       30.3104986748  TIP3      4101            0.0000000000
     62136      4502  TIP3      OH2             5.8969499292        9.0637904694       30.8003330029  TIP3      4102            0.0000000000
     62137      4502  TIP3      H1              6.4844024802        9.1910489384       30.0321873052  TIP3      4102            0.0000000000
     62138      4502  TIP3      H2              6.2637615391        9.7177642527       31.4351036051  TIP3      4102            0.0000000000
     62139      4503  TIP3      OH2            12.3060453793       14.6147918091       31.5165321437  TIP3      4103            0.0000000000
     62140      4503  TIP3      H1             11.9838942423       15.2467684473       32.1711365872  TIP3      4103            0.0000000000
     62141      4503  TIP3      H2             12.0028897087       13.7674987825       31.9534795775  TIP3      4103            0.0000000000
     62142      4504  TIP3      OH2             6.8190519534       13.4805176550       35.5233535992  TIP3      4104            0.0000000000
     62143      4504  TIP3      H1              6.4590369859       14.2605121245       35.9835883746  TIP3      4104            0.0000000000
     62144      4504  TIP3      H2              6.1540088762       13.3041335948       34.8120593214  TIP3      4104            0.0000000000
     62145      4505  TIP3      OH2             3.7521501861        9.6541596134       34.7077707301  TIP3      4105            0.0000000000
     62146      4505  TIP3      H1              3.7963231782       10.3236333856       35.4212003340  TIP3      4105            0.0000000000
     62147      4505  TIP3      H2              2.8305063553        9.7650199029       34.4296440822  TIP3      4105            0.0000000000
     62148      4506  TIP3      OH2            10.5258812071       15.5784045292       26.3736286686  TIP3      4106            0.0000000000
     62149      4506  TIP3      H1             10.9737740464       15.8757355207       27.1767222365  TIP3      4106            0.0000000000
     62150      4506  TIP3      H2              9.9488300050       16.3186630104       26.1610608533  TIP3      4106            0.0000000000
     62151      4507  TIP3      OH2             5.0638787064       15.5418635054       36.2739599433  TIP3      4107            0.0000000000
     62152      4507  TIP3      H1              5.0359709633       15.4136292582       35.3109189230  TIP3      4107            0.0000000000
     62153      4507  TIP3      H2              4.1257718737       15.4166087385       36.5233036626  TIP3      4107            0.0000000000
     62154      4508  TIP3      OH2            16.4921650547        0.5690753671       22.7664537273  TIP3      4108            0.0000000000
     62155      4508  TIP3      H1             15.5691269579        0.7248983685       23.0701963821  TIP3      4108            0.0000000000
     62156      4508  TIP3      H2             16.7260516199        1.4309514823       22.3887021425  TIP3      4108            0.0000000000
     62157      4509  TIP3      OH2             4.5398300168        9.3443443352       24.7609074010  TIP3      4109            0.0000000000
     62158      4509  TIP3      H1              4.2535037697       10.1397082234       24.2553115191  TIP3      4109            0.0000000000
     62159      4509  TIP3      H2              3.8529763218        8.7033825832       24.5791392632  TIP3      4109            0.0000000000
     62160      4510  TIP3      OH2             0.6303881155       11.7590908116       33.6123650805  TIP3      4110            0.0000000000
     62161      4510  TIP3      H1              0.1480276656       11.6928650565       32.7680983301  TIP3      4110            0.0000000000
     62162      4510  TIP3      H2              0.6580607198       10.8192093133       33.8708896690  TIP3      4110            0.0000000000
     62163      4511  TIP3      OH2             0.3804825490       14.5057600374       30.4463006719  TIP3      4111            0.0000000000
     62164      4511  TIP3      H1              1.3369058511       14.3803471651       30.4295652226  TIP3      4111            0.0000000000
     62165      4511  TIP3      H2              0.2853841796       15.3097538308       30.9742618810  TIP3      4111            0.0000000000
     62166      4512  TIP3      OH2            18.6083835090       15.1978616856       36.1135873746  TIP3      4112            0.0000000000
     62167      4512  TIP3      H1             18.5147212404       14.2343162028       36.1067217463  TIP3      4112            0.0000000000
     62168      4512  TIP3      H2             17.7485764835       15.4466155486       36.5378761411  TIP3      4112            0.0000000000
     62169      4513  TIP3      OH2             9.5717490397       14.7593740366       35.0008289261  TIP3      4113            0.0000000000
     62170      4513  TIP3      H1              9.6428263821       15.5982921287       35.5066572873  TIP3      4113            0.0000000000
     62171      4513  TIP3      H2              8.6984099953       14.4055957095       35.2509756200  TIP3      4113            0.0000000000
     62172      4514  TIP3      OH2            10.0043510095       18.5019485537       24.7966700542  TIP3      4114            0.0000000000
     62173      4514  TIP3      H1              9.8935783803       18.4273789272       23.8590106464  TIP3      4114            0.0000000000
     62174      4514  TIP3      H2             10.0124696833       19.4753437148       24.9480243505  TIP3      4114            0.0000000000
     62175      4515  TIP3      OH2             3.6462814731       17.3507631398       26.6009679407  TIP3      4115            0.0000000000
     62176      4515  TIP3      H1              3.7869778027       16.9537326426       27.4855657909  TIP3      4115            0.0000000000
     62177      4515  TIP3      H2              2.7904311894       16.9609952175       26.3609025062  TIP3      4115            0.0000000000
     62178      4516  TIP3      OH2            12.7410276883       17.6279366462       24.5444182392  TIP3      4116            0.0000000000
     62179      4516  TIP3      H1             11.7993174225       17.7083823166       24.7627980255  TIP3      4116            0.0000000000
     62180      4516  TIP3      H2             13.0304961915       16.9077824819       25.1354162928  TIP3      4116            0.0000000000
     62181      4517  TIP3      OH2            15.7459433289        6.6802886661       36.6092136777  TIP3      4117            0.0000000000
     62182      4517  TIP3      H1             15.3111619425        7.1470823535       35.8808078678  TIP3      4117            0.0000000000
     62183      4517  TIP3      H2             15.7627846081        5.7643987227       36.2933093716  TIP3      4117            0.0000000000
     62184      4518  TIP3      OH2             2.8907328880       13.0782573356       34.6055033877  TIP3      4118            0.0000000000
     62185      4518  TIP3      H1              3.1132443226       12.7025297361       35.4823975775  TIP3      4118            0.0000000000
     62186      4518  TIP3      H2              2.0247004708       12.6797012957       34.3937800889  TIP3      4118            0.0000000000
     62187      4519  TIP3      OH2             5.5479450285        1.5339583831       30.5854289349  TIP3      4119            0.0000000000
     62188      4519  TIP3      H1              4.6483354839        1.4420914031       30.1948552695  TIP3      4119            0.0000000000
     62189      4519  TIP3      H2              5.4651480572        2.3893640544       31.0344102704  TIP3      4119            0.0000000000
     62190      4520  TIP3      OH2            10.1969368179        1.2466290430       33.9503388424  TIP3      4120            0.0000000000
     62191      4520  TIP3      H1             10.5990156913        0.8210776273       34.7285528290  TIP3      4120            0.0000000000
     62192      4520  TIP3      H2              9.2303964746        1.0831607164       34.0863133183  TIP3      4120            0.0000000000
     62193      4521  TIP3      OH2            13.5074791281        5.0325618023       34.8210615588  TIP3      4121            0.0000000000
     62194      4521  TIP3      H1             12.9638956640        4.8657914236       35.6282037735  TIP3      4121            0.0000000000
     62195      4521  TIP3      H2             13.3348620713        5.9544968790       34.5834177123  TIP3      4121            0.0000000000
     62196      4522  TIP3      OH2             5.6286543834        6.4925981582       31.7382973398  TIP3      4122            0.0000000000
     62197      4522  TIP3      H1              4.9404952612        6.4773409191       32.4278747525  TIP3      4122            0.0000000000
     62198      4522  TIP3      H2              5.6321790882        7.4354509566       31.4506492471  TIP3      4122            0.0000000000
     62199      4523  TIP3      OH2             5.6175544961        6.6995383278       26.6449525219  TIP3      4123            0.0000000000
     62200      4523  TIP3      H1              4.6959197871        6.3794770506       26.5407869927  TIP3      4123            0.0000000000
     62201      4523  TIP3      H2              6.0337851377        6.3355112726       25.8439136178  TIP3      4123            0.0000000000
     62202      4524  TIP3      OH2            11.1317491122        7.1276679659       25.4264325459  TIP3      4124            0.0000000000
     62203      4524  TIP3      H1             10.7290653320        7.9688401469       25.1263958112  TIP3      4124            0.0000000000
     62204      4524  TIP3      H2             11.8567600394        6.9877759878       24.8117760238  TIP3      4124            0.0000000000
     62205      4525  TIP3      OH2            10.2301493337        7.3338701464       36.9107560150  TIP3      4125            0.0000000000
     62206      4525  TIP3      H1              9.6734209774        6.5836920424       37.2234829746  TIP3      4125            0.0000000000
     62207      4525  TIP3      H2             11.0644201152        7.1996483665       37.3829128158  TIP3      4125            0.0000000000
     62208      4526  TIP3      OH2            12.1605658589        6.6054051330       28.2700088800  TIP3      4126            0.0000000000
     62209      4526  TIP3      H1             11.9279452337        7.1889066973       27.5300066540  TIP3      4126            0.0000000000
     62210      4526  TIP3      H2             12.3066088714        5.7574831036       27.8051682887  TIP3      4126            0.0000000000
     62211      4527  TIP3      OH2             3.3265502362        6.8067559344       33.5301386940  TIP3      4127            0.0000000000
     62212      4527  TIP3      H1              3.3334457248        7.2077347983       34.4173742153  TIP3      4127            0.0000000000
     62213      4527  TIP3      H2              2.8539083664        5.9753761522       33.6777679724  TIP3      4127            0.0000000000
     62214      4528  TIP3      OH2            -0.0516764251        3.9232572714       27.4386573547  TIP3      4128            0.0000000000
     62215      4528  TIP3      H1              0.6113380831        3.8849660391       28.1547708218  TIP3      4128            0.0000000000
     62216      4528  TIP3      H2              0.4094928470        3.5058743361       26.6866065585  TIP3      4128            0.0000000000
     62217      4529  TIP3      OH2             1.2940234408        4.6380184607       22.9079057087  TIP3      4129            0.0000000000
     62218      4529  TIP3      H1              1.7086493794        5.2489946200       22.2969271476  TIP3      4129            0.0000000000
     62219      4529  TIP3      H2              0.5373945518        5.1973201593       23.2008905064  TIP3      4129            0.0000000000
     62220      4530  TIP3      OH2            11.5022857293        8.1703977841       32.9333150494  TIP3      4130            0.0000000000
     62221      4530  TIP3      H1             11.7318689014        7.5423247450       32.2452710576  TIP3      4130            0.0000000000
     62222      4530  TIP3      H2             10.9339396810        7.6895165246       33.5497988694  TIP3      4130            0.0000000000
     62223      4531  TIP3      OH2             8.1857152718        4.1665023941       27.6887298361  TIP3      4131            0.0000000000
     62224      4531  TIP3      H1              7.2505055010        4.2024062218       27.9894990105  TIP3      4131            0.0000000000
     62225      4531  TIP3      H2              8.6836293202        4.0735147783       28.5146800470  TIP3      4131            0.0000000000
     62226      4532  TIP3      OH2             3.0102886264        5.7717024935       26.5286435527  TIP3      4132            0.0000000000
     62227      4532  TIP3      H1              2.1068326327        5.8808117230       26.1726122582  TIP3      4132            0.0000000000
     62228      4532  TIP3      H2              3.2970809382        4.9193465445       26.1671865334  TIP3      4132            0.0000000000
     62229      4533  TIP3      OH2             6.6402689667        5.7721337815       24.1683902630  TIP3      4133            0.0000000000
     62230      4533  TIP3      H1              7.5942526785        5.8990499868       24.3539794530  TIP3      4133            0.0000000000
     62231      4533  TIP3      H2              6.4401975874        6.4663226879       23.5401717121  TIP3      4133            0.0000000000
     62232      4534  TIP3      OH2            12.5961139972        3.4019706530       30.9432525143  TIP3      4134            0.0000000000
     62233      4534  TIP3      H1             11.9019191227        3.5014213535       31.6289622968  TIP3      4134            0.0000000000
     62234      4534  TIP3      H2             12.0907569226        3.2082720578       30.1425678476  TIP3      4134            0.0000000000
     62235      4535  TIP3      OH2            15.8272846580       19.0589312351       37.2585573580  TIP3      4135            0.0000000000
     62236      4535  TIP3      H1             16.0760661435       19.4690750334       36.4062788520  TIP3      4135            0.0000000000
     62237      4535  TIP3      H2             16.5310441640       19.3962275394       37.8422606405  TIP3      4135            0.0000000000
     62238      4536  TIP3      OH2             3.4840763691       11.5278364963       36.8241012004  TIP3      4136            0.0000000000
     62239      4536  TIP3      H1              4.1965621742       11.7861868778       37.4312259517  TIP3      4136            0.0000000000
     62240      4536  TIP3      H2              2.6885849648       11.6938771426       37.3812792973  TIP3      4136            0.0000000000
     62241      4537  TIP3      OH2             9.4697378234        6.9293189922       29.5666855200  TIP3      4137            0.0000000000
     62242      4537  TIP3      H1             10.0716938050        6.3930453481       29.0416478582  TIP3      4137            0.0000000000
     62243      4537  TIP3      H2              9.3480377651        6.4166510883       30.3752300404  TIP3      4137            0.0000000000
     62244      4538  TIP3      OH2             4.4911892941        3.0952514288       26.0072280751  TIP3      4138            0.0000000000
     62245      4538  TIP3      H1              4.1830423586        2.1690486377       25.9725881206  TIP3      4138            0.0000000000
     62246      4538  TIP3      H2              5.2791200747        3.0524982625       25.4485264377  TIP3      4138            0.0000000000
     62247      4539  TIP3      OH2             8.1155771579        5.2845874023       31.9939803193  TIP3      4139            0.0000000000
     62248      4539  TIP3      H1              7.2901398959        5.7956266197       32.0981145211  TIP3      4139            0.0000000000
     62249      4539  TIP3      H2              8.6601027021        5.6233055870       32.7363274706  TIP3      4139            0.0000000000
     62250      4540  TIP3      OH2             8.7000981856       11.4992266702       23.6906000140  TIP3      4140            0.0000000000
     62251      4540  TIP3      H1              7.9069303919       11.0378413731       23.3455530861  TIP3      4140            0.0000000000
     62252      4540  TIP3      H2              8.5080968634       11.5953877419       24.6399132753  TIP3      4140            0.0000000000
     62253      4541  TIP3      OH2            15.8388936816       10.7227770653       32.4894410224  TIP3      4141            0.0000000000
     62254      4541  TIP3      H1             16.4860531714       11.1281903128       31.8884091474  TIP3      4141            0.0000000000
     62255      4541  TIP3      H2             14.9987019823       10.7046017409       32.0052262443  TIP3      4141            0.0000000000
     62256      4542  TIP3      OH2            12.5424651750        4.3292101900       21.8535348479  TIP3      4142            0.0000000000
     62257      4542  TIP3      H1             11.6196261139        4.4874391979       21.7231877019  TIP3      4142            0.0000000000
     62258      4542  TIP3      H2             12.8709665478        5.1831225292       22.1930121316  TIP3      4142            0.0000000000
     62259      4543  TIP3      OH2            10.2363472179       11.7631312180       34.9813256901  TIP3      4143            0.0000000000
     62260      4543  TIP3      H1              9.8337025558       11.3350485054       35.7310150746  TIP3      4143            0.0000000000
     62261      4543  TIP3      H2              9.9538970025       12.6725792482       35.0053927083  TIP3      4143            0.0000000000
     62262      4544  TIP3      OH2            13.2793143898        6.2414003465       23.5401376095  TIP3      4144            0.0000000000
     62263      4544  TIP3      H1             14.1798034123        6.0749027763       23.8904882359  TIP3      4144            0.0000000000
     62264      4544  TIP3      H2             13.3481293119        7.0146542619       23.0009216875  TIP3      4144            0.0000000000
     62265      4545  TIP3      OH2             3.7958993854       10.8614078579       29.4721259855  TIP3      4145            0.0000000000
     62266      4545  TIP3      H1              4.5261529566       10.8196064043       28.8255432868  TIP3      4145            0.0000000000
     62267      4545  TIP3      H2              3.8732971176       10.0109163309       29.9369468936  TIP3      4145            0.0000000000
     62268      4546  TIP3      OH2            10.8391841144       12.9914165708       22.7459411269  TIP3      4146            0.0000000000
     62269      4546  TIP3      H1             10.4670175274       13.8229707563       23.0829396957  TIP3      4146            0.0000000000
     62270      4546  TIP3      H2             10.0782292357       12.3791011062       22.8924248605  TIP3      4146            0.0000000000
     62271      4547  TIP3      OH2             0.7956862825        9.3045921482       34.7564715635  TIP3      4147            0.0000000000
     62272      4547  TIP3      H1              1.0084393672        8.8641102619       35.6035278682  TIP3      4147            0.0000000000
     62273      4547  TIP3      H2              0.1883630558        8.6755846849       34.3308415717  TIP3      4147            0.0000000000
     62274      4548  TIP3      OH2             7.8079303702        8.8266531837       36.9759670609  TIP3      4148            0.0000000000
     62275      4548  TIP3      H1              7.5219995167        8.6168089713       36.0711830042  TIP3      4148            0.0000000000
     62276      4548  TIP3      H2              8.7529575552        8.5734769978       36.9434519888  TIP3      4148            0.0000000000
     62277      4549  TIP3      OH2            12.4809613294       14.1932790816       34.8532767324  TIP3      4149            0.0000000000
     62278      4549  TIP3      H1             11.5448238474       14.3622122043       34.6257498659  TIP3      4149            0.0000000000
     62279      4549  TIP3      H2             12.4590572735       14.4567553204       35.7961235193  TIP3      4149            0.0000000000
     62280      4550  TIP3      OH2            18.1326608657        6.4200216342       23.2669390622  TIP3      4150            0.0000000000
     62281      4550  TIP3      H1             17.6209893355        6.0248624836       22.5563123482  TIP3      4150            0.0000000000
     62282      4550  TIP3      H2             18.2771575460        7.3316488139       22.9720823629  TIP3      4150            0.0000000000
     62283      4551  TIP3      OH2            18.1429583790       12.2313802842       36.0832783395  TIP3      4151            0.0000000000
     62284      4551  TIP3      H1             17.2665947751       12.4660120535       35.7058258896  TIP3      4151            0.0000000000
     62285      4551  TIP3      H2             18.7240625316       12.2070503020       35.2996943936  TIP3      4151            0.0000000000
     62286      4552  TIP3      OH2            16.4742902189       15.2065921298       23.6917978370  TIP3      4152            0.0000000000
     62287      4552  TIP3      H1             16.0877362435       14.3863697790       24.0119170620  TIP3      4152            0.0000000000
     62288      4552  TIP3      H2             16.7366728529       15.0369673754       22.7837130173  TIP3      4152            0.0000000000
     62289      4553  TIP3      OH2            13.6643824341       10.0625718473       30.7476615662  TIP3      4153            0.0000000000
     62290      4553  TIP3      H1             12.7041184059        9.7934383869       30.6852977010  TIP3      4153            0.0000000000
     62291      4553  TIP3      H2             14.0684166730        9.2435149774       30.3742717185  TIP3      4153            0.0000000000
     62292      4554  TIP3      OH2             6.1766381332       14.3397420969       26.8585731694  TIP3      4154            0.0000000000
     62293      4554  TIP3      H1              6.6914924030       15.1391142995       26.6605358715  TIP3      4154            0.0000000000
     62294      4554  TIP3      H2              5.2951688230       14.5807780731       26.5506006215  TIP3      4154            0.0000000000
     62295      4555  TIP3      OH2             1.9315411141        9.1723123925       21.4211912149  TIP3      4155            0.0000000000
     62296      4555  TIP3      H1              2.5282968462        9.8464679824       21.8091811163  TIP3      4155            0.0000000000
     62297      4555  TIP3      H2              1.0686290398        9.5205283075       21.7142359938  TIP3      4155            0.0000000000
     62298      4556  TIP3      OH2             7.6135544176       12.0047237073       26.4195251220  TIP3      4156            0.0000000000
     62299      4556  TIP3      H1              7.3308392912       12.9380829885       26.4841379240  TIP3      4156            0.0000000000
     62300      4556  TIP3      H2              6.8557799740       11.5447427182       26.8306916417  TIP3      4156            0.0000000000
     62301      4557  TIP3      OH2             8.0674636478       16.1792644717       32.7693534354  TIP3      4157            0.0000000000
     62302      4557  TIP3      H1              8.4885180892       17.0161650351       32.5121429452  TIP3      4157            0.0000000000
     62303      4557  TIP3      H2              8.6570293746       15.8596005824       33.4792637192  TIP3      4157            0.0000000000
     62304      4558  TIP3      OH2             6.2871194583       17.0126518039       25.9485109187  TIP3      4158            0.0000000000
     62305      4558  TIP3      H1              5.3185836758       17.1440432763       26.0422944433  TIP3      4158            0.0000000000
     62306      4558  TIP3      H2              6.6294608993       17.8510402388       26.3098301945  TIP3      4158            0.0000000000
     62307      4559  TIP3      OH2            11.8670804013       12.3581193023       32.5198487747  TIP3      4159            0.0000000000
     62308      4559  TIP3      H1             11.2217382675       12.0350400944       33.2287920077  TIP3      4159            0.0000000000
     62309      4559  TIP3      H2             12.1625636332       11.4790369606       32.2560128270  TIP3      4159            0.0000000000
     62310      4560  TIP3      OH2            13.8526293389       13.2036214502       21.5058791240  TIP3      4160            0.0000000000
     62311      4560  TIP3      H1             14.1943253889       12.8161815181       22.3282464857  TIP3      4160            0.0000000000
     62312      4560  TIP3      H2             12.9013821930       13.0957786837       21.6169135186  TIP3      4160            0.0000000000
     62313      4561  TIP3      OH2            14.3553447710       16.7865263843       34.9218151752  TIP3      4161            0.0000000000
     62314      4561  TIP3      H1             13.6970873631       16.2755289856       34.4190665337  TIP3      4161            0.0000000000
     62315      4561  TIP3      H2             14.5825209157       17.4887301709       34.2739647293  TIP3      4161            0.0000000000
     62316      4562  TIP3      OH2             2.4498925641        4.0432560850       34.3102110856  TIP3      4162            0.0000000000
     62317      4562  TIP3      H1              1.5385172514        4.3853006522       34.2652034697  TIP3      4162            0.0000000000
     62318      4562  TIP3      H2              2.3347828155        3.1872214498       34.7511089193  TIP3      4162            0.0000000000
     62319      4563  TIP3      OH2            14.7151575621       11.8424134333       23.7195150240  TIP3      4163            0.0000000000
     62320      4563  TIP3      H1             14.4406185307       11.1249995745       24.3259352360  TIP3      4163            0.0000000000
     62321      4563  TIP3      H2             15.6516743985       11.9764963867       23.9687334586  TIP3      4163            0.0000000000
     62322      4564  TIP3      OH2             2.0809411345       15.8455341731       32.7405744187  TIP3      4164            0.0000000000
     62323      4564  TIP3      H1              2.3274550381       14.9059792357       32.7343173324  TIP3      4164            0.0000000000
     62324      4564  TIP3      H2              2.3330988278       16.1146474490       33.6328055858  TIP3      4164            0.0000000000
     62325      4565  TIP3      OH2             6.8653283701       13.8756412213       22.4492846554  TIP3      4165            0.0000000000
     62326      4565  TIP3      H1              7.0377642690       13.3432075568       23.2186650580  TIP3      4165            0.0000000000
     62327      4565  TIP3      H2              6.8687277483       14.8008663963       22.7336624790  TIP3      4165            0.0000000000
     62328      4566  TIP3      OH2             3.3239244022       11.1180683219       22.9279059669  TIP3      4166            0.0000000000
     62329      4566  TIP3      H1              2.6480957195       11.5064222997       23.5061108607  TIP3      4166            0.0000000000
     62330      4566  TIP3      H2              3.8711357532       11.8804822219       22.6652845361  TIP3      4166            0.0000000000
     62331      4567  TIP3      OH2            11.1730330205        3.8020060339       33.2236596918  TIP3      4167            0.0000000000
     62332      4567  TIP3      H1             11.8790051200        3.8597667006       33.8794908352  TIP3      4167            0.0000000000
     62333      4567  TIP3      H2             10.7916579128        2.9189712353       33.4041865460  TIP3      4167            0.0000000000
     62334      4568  TIP3      OH2            11.9414201066        3.4067177881       24.3188249838  TIP3      4168            0.0000000000
     62335      4568  TIP3      H1             12.1799806216        3.9051103687       23.5202757536  TIP3      4168            0.0000000000
     62336      4568  TIP3      H2             12.5077497791        3.8242276402       24.9889992769  TIP3      4168            0.0000000000
     62337      4569  TIP3      OH2             9.6234017441       15.5898224894       23.2214696465  TIP3      4169            0.0000000000
     62338      4569  TIP3      H1              8.7696953881       16.0528489184       23.2345205305  TIP3      4169            0.0000000000
     62339      4569  TIP3      H2             10.1283886283       16.0229431022       22.5419916109  TIP3      4169            0.0000000000
     62340      4570  TIP3      OH2             9.1400297103        5.1642414390       25.1337898879  TIP3      4170            0.0000000000
     62341      4570  TIP3      H1              9.9649052806        5.6867971593       25.1970034380  TIP3      4170            0.0000000000
     62342      4570  TIP3      H2              8.9023058933        5.0110689696       26.0695911718  TIP3      4170            0.0000000000
     62343      4571  TIP3      OH2             9.6880234697        6.1343441664       34.3467629673  TIP3      4171            0.0000000000
     62344      4571  TIP3      H1              9.7993601921        6.7356838869       35.1071184789  TIP3      4171            0.0000000000
     62345      4571  TIP3      H2             10.3642570045        5.4607477331       34.4466723902  TIP3      4171            0.0000000000
     62346      4572  TIP3      OH2            10.0217238504        2.2130408588       26.0705701133  TIP3      4172            0.0000000000
     62347      4572  TIP3      H1              9.6923487289        2.8600781617       26.7229669917  TIP3      4172            0.0000000000
     62348      4572  TIP3      H2             10.7027934071        2.7593478516       25.6100206055  TIP3      4172            0.0000000000
     62349      4573  TIP3      OH2             7.0022493413       16.5992669849       23.1767146715  TIP3      4173            0.0000000000
     62350      4573  TIP3      H1              7.1201503210       17.4196975143       22.6492893171  TIP3      4173            0.0000000000
     62351      4573  TIP3      H2              6.7461081711       16.9293268186       24.0590430374  TIP3      4173            0.0000000000
     62352      4574  TIP3      OH2             5.6988477073        3.3176993888       22.7407995037  TIP3      4174            0.0000000000
     62353      4574  TIP3      H1              5.6037049491        4.1924720756       23.1395667007  TIP3      4174            0.0000000000
     62354      4574  TIP3      H2              6.5786255720        3.0421974187       23.0328510782  TIP3      4174            0.0000000000
     62355      4575  TIP3      OH2            15.9064798126        4.0416865958       35.1887746127  TIP3      4175            0.0000000000
     62356      4575  TIP3      H1             14.9663603875        4.3294751941       35.0704456164  TIP3      4175            0.0000000000
     62357      4575  TIP3      H2             16.2105118414        4.0393370364       34.2680780943  TIP3      4175            0.0000000000
     62358      4576  TIP3      OH2            14.4926634408        7.8281741465       29.2572096944  TIP3      4176            0.0000000000
     62359      4576  TIP3      H1             13.6826627453        7.3857097467       28.9331002863  TIP3      4176            0.0000000000
     62360      4576  TIP3      H2             14.9564755112        7.1101642513       29.7474143239  TIP3      4176            0.0000000000
     62361      4577  TIP3      OH2            15.5707497479       17.0456245541       30.8820351296  TIP3      4177            0.0000000000
     62362      4577  TIP3      H1             15.4454634084       17.7592608881       30.2161333251  TIP3      4177            0.0000000000
     62363      4577  TIP3      H2             16.5259545872       17.1491833706       31.0774652171  TIP3      4177            0.0000000000
     62364      4578  TIP3      OH2             3.0757161526        1.1944412689       29.6525380130  TIP3      4178            0.0000000000
     62365      4578  TIP3      H1              2.8490008082        1.2291058341       28.6966551601  TIP3      4178            0.0000000000
     62366      4578  TIP3      H2              2.6329411935        0.3677912542       29.9298496326  TIP3      4178            0.0000000000
     62367      4579  TIP3      OH2             2.0058086532       15.1062384833       25.7857159773  TIP3      4179            0.0000000000
     62368      4579  TIP3      H1              1.1704327714       15.5949848293       25.8096164593  TIP3      4179            0.0000000000
     62369      4579  TIP3      H2              2.5367449956       15.6217984263       25.1662113901  TIP3      4179            0.0000000000
     62370      4580  TIP3      OH2             1.2646561183       17.7531303348       37.1076178026  TIP3      4180            0.0000000000
     62371      4580  TIP3      H1              1.8341062660       17.5332428184       37.8738707177  TIP3      4180            0.0000000000
     62372      4580  TIP3      H2              0.8110698166       16.9133025305       36.9311915336  TIP3      4180            0.0000000000
     62373      4581  TIP3      OH2             5.8939885502       16.6694584014       38.7416455635  TIP3      4181            0.0000000000
     62374      4581  TIP3      H1              6.6672552567       16.1888754189       39.0650480057  TIP3      4181            0.0000000000
     62375      4581  TIP3      H2              5.8772982876       16.4161661567       37.7945481587  TIP3      4181            0.0000000000
     62376      4582  TIP3      OH2            12.4334124664       15.0549955826       37.4660211224  TIP3      4182            0.0000000000
     62377      4582  TIP3      H1             12.1085107111       14.1687205612       37.7080804403  TIP3      4182            0.0000000000
     62378      4582  TIP3      H2             13.1999674996       15.1859337779       38.0518113445  TIP3      4182            0.0000000000
     62379      4583  TIP3      OH2             1.1771238814       11.5423010306       38.0885845824  TIP3      4183            0.0000000000
     62380      4583  TIP3      H1              1.3338354617       10.6310995927       37.7767119738  TIP3      4183            0.0000000000
     62381      4583  TIP3      H2              0.4154291491       11.8195338926       37.5534104613  TIP3      4183            0.0000000000
     62382      4584  TIP3      OH2             5.5365834762       11.8765363458       20.1950524171  TIP3      4184            0.0000000000
     62383      4584  TIP3      H1              5.6358913242       11.0872201237       20.7209755060  TIP3      4184            0.0000000000
     62384      4584  TIP3      H2              6.1946668744       11.7702029871       19.5017261838  TIP3      4184            0.0000000000
     62385      4585  TIP3      OH2             7.8523013863       11.5181537751       37.5028987505  TIP3      4185            0.0000000000
     62386      4585  TIP3      H1              7.5285837500       11.8076077060       36.6289548737  TIP3      4185            0.0000000000
     62387      4585  TIP3      H2              7.9842242759       10.5531760826       37.3907267103  TIP3      4185            0.0000000000
     62388      4586  TIP3      OH2            13.5756692378       11.4040858484       34.8625847389  TIP3      4186            0.0000000000
     62389      4586  TIP3      H1             14.3370320275       12.0144977040       34.8039517666  TIP3      4186            0.0000000000
     62390      4586  TIP3      H2             12.8287739894       12.0219148677       34.9379939867  TIP3      4186            0.0000000000
     62391      4587  TIP3      OH2             2.0438685298        8.7606918261       37.4868360088  TIP3      4187            0.0000000000
     62392      4587  TIP3      H1              2.4514342427        7.8927242931       37.3820555628  TIP3      4187            0.0000000000
     62393      4587  TIP3      H2              1.7922843930        8.7639396504       38.4285775587  TIP3      4187            0.0000000000
     62394      4588  TIP3      OH2             6.6950013868        9.8759538203       22.5255798533  TIP3      4188            0.0000000000
     62395      4588  TIP3      H1              6.2218166376        9.3775947379       23.1954248138  TIP3      4188            0.0000000000
     62396      4588  TIP3      H2              6.9684929204        9.2201726611       21.8516598162  TIP3      4188            0.0000000000
     62397      4589  TIP3      OH2             5.9546285958        7.7196713228       34.8643678661  TIP3      4189            0.0000000000
     62398      4589  TIP3      H1              5.3626737296        8.4412442931       35.1264377033  TIP3      4189            0.0000000000
     62399      4589  TIP3      H2              6.3375092060        8.0793508534       34.0395707108  TIP3      4189            0.0000000000
     62400      4590  TIP3      OH2            11.0140257121       10.2705194509       38.2157294302  TIP3      4190            0.0000000000
     62401      4590  TIP3      H1             11.9707331819       10.2799893683       38.0786836720  TIP3      4190            0.0000000000
     62402      4590  TIP3      H2             10.8426288469        9.4918658366       38.7624938753  TIP3      4190            0.0000000000
     62403      4591  TIP3      OH2             6.3423850661        5.1030485748       35.9327544408  TIP3      4191            0.0000000000
     62404      4591  TIP3      H1              6.4720146068        4.3746143909       35.3043242521  TIP3      4191            0.0000000000
     62405      4591  TIP3      H2              6.3197916084        5.8999360062       35.3670377092  TIP3      4191            0.0000000000
     62406      4592  TIP3      OH2             6.7491636738        3.4724276016       33.4548787890  TIP3      4192            0.0000000000
     62407      4592  TIP3      H1              7.2738096235        3.9357553625       32.7614587122  TIP3      4192            0.0000000000
     62408      4592  TIP3      H2              5.8689724404        3.3810869778       33.0234654259  TIP3      4192            0.0000000000
     62409      4593  TIP3      OH2             8.2168118840        8.8359114965       33.7322908582  TIP3      4193            0.0000000000
     62410      4593  TIP3      H1              9.0312829108        8.7992615752       33.1484172301  TIP3      4193            0.0000000000
     62411      4593  TIP3      H2              7.9949328543        9.7482790855       33.4032893977  TIP3      4193            0.0000000000
     62412      4594  TIP3      OH2            12.7143027692        6.7238811788       38.6904102683  TIP3      4194            0.0000000000
     62413      4594  TIP3      H1             12.9260584191        5.7844749312       38.5897745683  TIP3      4194            0.0000000000
     62414      4594  TIP3      H2             13.5865146861        7.1482664922       38.6846604733  TIP3      4194            0.0000000000
     62415      4595  TIP3      OH2            14.0332631800        9.5167490635       36.8312495940  TIP3      4195            0.0000000000
     62416      4595  TIP3      H1             13.7724473572       10.2256090717       36.1975795757  TIP3      4195            0.0000000000
     62417      4595  TIP3      H2             14.9892009646        9.4630609354       36.6205110401  TIP3      4195            0.0000000000
     62418      4596  TIP3      OH2             4.8102659314        6.3240789240       37.8680633582  TIP3      4196            0.0000000000
     62419      4596  TIP3      H1              4.0356929804        5.7672018641       37.6410071823  TIP3      4196            0.0000000000
     62420      4596  TIP3      H2              5.4721277574        5.9873496196       37.2300571772  TIP3      4196            0.0000000000
     62421      4597  TIP3      OH2             7.5471544005        0.9125794295       33.8764877366  TIP3      4197            0.0000000000
     62422      4597  TIP3      H1              7.4123426816        1.8829393638       33.7585769274  TIP3      4197            0.0000000000
     62423      4597  TIP3      H2              6.7920147917        0.5590431103       33.3728137736  TIP3      4197            0.0000000000
     62424      4598  TIP3      OH2             8.8178158817        5.2418645351       37.4507781863  TIP3      4198            0.0000000000
     62425      4598  TIP3      H1              8.5382098879        5.0255022633       38.3580493117  TIP3      4198            0.0000000000
     62426      4598  TIP3      H2              8.0199051478        5.0472128246       36.9205586179  TIP3      4198            0.0000000000
     62427      4599  TIP3      OH2            11.5326627461        4.3782384258       36.5145674459  TIP3      4199            0.0000000000
     62428      4599  TIP3      H1             10.5694255228        4.4216777957       36.6541953092  TIP3      4199            0.0000000000
     62429      4599  TIP3      H2             11.8217398125        3.7496657955       37.1959633224  TIP3      4199            0.0000000000
     62430      4600  TIP3      OH2            13.1350126617        3.0145756010       38.4879763368  TIP3      4200            0.0000000000
     62431      4600  TIP3      H1             13.0635976563        2.0431368494       38.5024609262  TIP3      4200            0.0000000000
     62432      4600  TIP3      H2             12.8401454941        3.2941933583       39.3846053756  TIP3      4200            0.0000000000
     62433      4601  TIP3      OH2             2.9474504762        4.2564144414       37.5637165992  TIP3      4201            0.0000000000
     62434      4601  TIP3      H1              3.1779933565        3.5236539769       36.9602682683  TIP3      4201            0.0000000000
     62435      4601  TIP3      H2              2.8523161701        3.8022364982       38.4251031724  TIP3      4201            0.0000000000
     62436      4602  TIP3      OH2             7.7565772777        0.2607989313       36.5541184974  TIP3      4202            0.0000000000
     62437      4602  TIP3      H1              8.4672687892       -0.4155508442       36.5222280021  TIP3      4202            0.0000000000
     62438      4602  TIP3      H2              7.6609172783        0.4751520645       35.6071033155  TIP3      4202            0.0000000000
     62439      4603  TIP3      OH2             8.1187411612        1.9073571671       38.6249235241  TIP3      4203            0.0000000000
     62440      4603  TIP3      H1              7.9719604836        1.4160171023       37.7796533787  TIP3      4203            0.0000000000
     62441      4603  TIP3      H2              7.5201410938        2.6707630893       38.5353509116  TIP3      4203            0.0000000000
     62442      4604  TIP3      OH2             7.6663514945       18.7711564249       21.7684157606  TIP3      4204            0.0000000000
     62443      4604  TIP3      H1              8.5791157889       18.9962104724       21.9062844757  TIP3      4204            0.0000000000
     62444      4604  TIP3      H2              7.3945274536       19.4734857652       21.1424759973  TIP3      4204            0.0000000000
     62445      4605  TIP3      OH2            -0.0891560234       18.8139234628       26.2972899244  TIP3      4205            0.0000000000
     62446      4605  TIP3      H1             -0.7806358093       18.3328543733       25.8012135115  TIP3      4205            0.0000000000
     62447      4605  TIP3      H2              0.2260261308       18.1425914025       26.9245817854  TIP3      4205            0.0000000000
     62448      4606  TIP3      OH2             0.7522654067       16.9125953384       28.1277263857  TIP3      4206            0.0000000000
     62449      4606  TIP3      H1              0.4011677256       16.0298638434       28.3205246976  TIP3      4206            0.0000000000
     62450      4606  TIP3      H2              0.9757267625       17.2479916247       29.0147680226  TIP3      4206            0.0000000000
     62451      4607  TIP3      OH2            18.3122778393       17.6907252914       31.0873828116  TIP3      4207            0.0000000000
     62452      4607  TIP3      H1             18.2823856772       17.8931957938       32.0461146317  TIP3      4207            0.0000000000
     62453      4607  TIP3      H2             18.9726949256       18.3122544856       30.8112713789  TIP3      4207            0.0000000000
     62454      4608  TIP3      OH2            17.8758211190       17.3120875759       34.0194109364  TIP3      4208            0.0000000000
     62455      4608  TIP3      H1             17.3806310572       16.5418772603       33.6684978146  TIP3      4208            0.0000000000
     62456      4608  TIP3      H2             18.3898107328       16.8765762590       34.7201360183  TIP3      4208            0.0000000000
     62457      4609  TIP3      OH2            16.3146544539       13.0385404717       38.6779545398  TIP3      4209            0.0000000000
     62458      4609  TIP3      H1             15.4326763113       12.9915084985       39.0709372000  TIP3      4209            0.0000000000
     62459      4609  TIP3      H2             16.6921289589       13.8371568288       39.1176334651  TIP3      4209            0.0000000000
     62460      4610  TIP3      OH2            17.6042258402       11.3301759987       24.1364452920  TIP3      4210            0.0000000000
     62461      4610  TIP3      H1             18.4761599232       11.7395954344       24.3131618039  TIP3      4210            0.0000000000
     62462      4610  TIP3      H2             17.6323524421       10.6084809559       24.8052544785  TIP3      4210            0.0000000000
     62463      4611  TIP3      OH2            18.0023048989        9.4004128592       25.9860936177  TIP3      4211            0.0000000000
     62464      4611  TIP3      H1             17.2643991355        8.9142313577       26.4121370178  TIP3      4211            0.0000000000
     62465      4611  TIP3      H2             18.5891661884        9.5858676263       26.7549456588  TIP3      4211            0.0000000000
     62466      4612  TIP3      OH2            17.7293563925       12.1480076093       30.9773177882  TIP3      4212            0.0000000000
     62467      4612  TIP3      H1             18.5829244189       11.7791425817       30.6541904408  TIP3      4212            0.0000000000
     62468      4612  TIP3      H2             17.8987447988       13.1076554223       30.8306468698  TIP3      4212            0.0000000000
     62469      4613  TIP3      OH2            16.2762381385       15.0228203392       33.2779886090  TIP3      4213            0.0000000000
     62470      4613  TIP3      H1             15.6064639638       15.3854128215       33.8854302406  TIP3      4213            0.0000000000
     62471      4613  TIP3      H2             15.7333796812       14.6370341527       32.5766709162  TIP3      4213            0.0000000000
     62472      4614  TIP3      OH2            15.7927453961        7.9083670453       26.5513700956  TIP3      4214            0.0000000000
     62473      4614  TIP3      H1             15.6472792779        6.9519570215       26.5657933010  TIP3      4214            0.0000000000
     62474      4614  TIP3      H2             15.4523048461        8.1636232877       27.4315396083  TIP3      4214            0.0000000000
     62475      4615  TIP3      OH2             0.8112619051        9.9908733807       30.6144515789  TIP3      4215            0.0000000000
     62476      4615  TIP3      H1              1.0104157074        9.9056020483       29.6558387219  TIP3      4215            0.0000000000
     62477      4615  TIP3      H2              1.6963124785        9.8423253429       31.0003242552  TIP3      4215            0.0000000000
     62478      4616  TIP3      OH2            16.6414508146        9.8811604806       36.2269522712  TIP3      4216            0.0000000000
     62479      4616  TIP3      H1             17.2504840395        9.1293225778       36.4002565884  TIP3      4216            0.0000000000
     62480      4616  TIP3      H2             17.2408590149       10.6530809208       36.2662041510  TIP3      4216            0.0000000000
     62481      4617  TIP3      OH2            18.1557006697        7.7807386724       36.9171604743  TIP3      4217            0.0000000000
     62482      4617  TIP3      H1             17.2797116019        7.3768241323       36.7385971152  TIP3      4217            0.0000000000
     62483      4617  TIP3      H2             18.7449139095        7.0143163493       36.8287305904  TIP3      4217            0.0000000000
     62484      4618  TIP3      OH2            15.4794465254        5.5018991234       25.0190921563  TIP3      4218            0.0000000000
     62485      4618  TIP3      H1             15.7828967345        4.5668837000       25.1617040154  TIP3      4218            0.0000000000
     62486      4618  TIP3      H2             16.2800609471        5.9004150458       24.6572068576  TIP3      4218            0.0000000000
     62487      4619  TIP3      OH2            16.1043593891        6.0420935603       30.4706625719  TIP3      4219            0.0000000000
     62488      4619  TIP3      H1             17.0612287351        6.2794746314       30.4528830624  TIP3      4219            0.0000000000
     62489      4619  TIP3      H2             15.8991706031        6.1773883293       31.4094611256  TIP3      4219            0.0000000000
     62490      4620  TIP3      OH2            16.1648626121        6.7692530757       33.2541795597  TIP3      4220            0.0000000000
     62491      4620  TIP3      H1             15.2956242807        7.0610919292       33.6057815081  TIP3      4220            0.0000000000
     62492      4620  TIP3      H2             16.6025446930        7.6251861154       33.0397312273  TIP3      4220            0.0000000000
     62493      4621  TIP3      OH2             0.4180377252        5.2802237143       36.7484653748  TIP3      4221            0.0000000000
     62494      4621  TIP3      H1              1.3563840878        5.1129508074       36.9693330196  TIP3      4221            0.0000000000
     62495      4621  TIP3      H2             -0.0261226386        4.4813993176       37.1039671302  TIP3      4221            0.0000000000
     62496      4622  TIP3      OH2            18.4348131415        0.7927882475       38.6021591641  TIP3      4222            0.0000000000
     62497      4622  TIP3      H1             18.7877710154        0.1335878970       37.9883419264  TIP3      4222            0.0000000000
     62498      4622  TIP3      H2             18.5696288358        1.6290118365       38.1248098417  TIP3      4222            0.0000000000
     62499      4623  TIP3      OH2            16.1259182427        2.7698930607       25.0781031171  TIP3      4223            0.0000000000
     62500      4623  TIP3      H1             16.3197020239        2.3101647328       25.9161871088  TIP3      4223            0.0000000000
     62501      4623  TIP3      H2             15.5164426116        2.1473243493       24.6268027475  TIP3      4223            0.0000000000
     62502      4624  TIP3      OH2             1.6298577849        3.5757189707       29.6220178480  TIP3      4224            0.0000000000
     62503      4624  TIP3      H1              2.0945118038        2.7655090112       29.9149114015  TIP3      4224            0.0000000000
     62504      4624  TIP3      H2              2.1362687572        4.2833030700       30.0439731083  TIP3      4224            0.0000000000
     62505      4625  TIP3      OH2            -0.0789410831        6.5643586008       30.6890516492  TIP3      4225            0.0000000000
     62506      4625  TIP3      H1              0.4632403265        6.3456176879       29.9019306726  TIP3      4225            0.0000000000
     62507      4625  TIP3      H2              0.3400604035        7.3975598264       30.9558982091  TIP3      4225            0.0000000000
     62508      4626  TIP3      OH2            17.9665822713        2.9068337198       36.9658904018  TIP3      4226            0.0000000000
     62509      4626  TIP3      H1             17.0233381061        3.1699754381       36.9120202532  TIP3      4226            0.0000000000
     62510      4626  TIP3      H2             18.0390527697        2.3650009588       36.1630363534  TIP3      4226            0.0000000000
     62511      4627  TIP3      OH2            17.9663814579        2.8504563612       21.7163887719  TIP3      4227            0.0000000000
     62512      4627  TIP3      H1             18.3893735575        2.1358709483       21.1885378475  TIP3      4227            0.0000000000
     62513      4627  TIP3      H2             18.6924615899        3.4884339036       21.6983366405  TIP3      4227            0.0000000000
     62514      4628  TIP3      OH2             0.2665021647        2.8500102230       24.7566518405  TIP3      4228            0.0000000000
     62515      4628  TIP3      H1             -0.6720253478        3.0270540124       24.6122272464  TIP3      4228            0.0000000000
     62516      4628  TIP3      H2              0.7180359814        3.3121224588       24.0415912551  TIP3      4228            0.0000000000
     62517      4629  TIP3      OH2            15.0232490168       17.7995412529       26.6939090322  TIP3      4229            0.0000000000
     62518      4629  TIP3      H1             15.6898141739       17.4691175646       26.0708497397  TIP3      4229            0.0000000000
     62519      4629  TIP3      H2             15.5446576203       18.3044309627       27.3337662372  TIP3      4229            0.0000000000
     62520      4630  TIP3      OH2             0.2358067941        1.5357025052       33.0715543559  TIP3      4230            0.0000000000
     62521      4630  TIP3      H1             -0.4445586978        1.3145762725       33.7305772588  TIP3      4230            0.0000000000
     62522      4630  TIP3      H2             -0.2276893306        2.1884928037       32.5044603641  TIP3      4230            0.0000000000
     62523      4631  TIP3      OH2             2.4427561303       14.7220555617       37.2261221900  TIP3      4231            0.0000000000
     62524      4631  TIP3      H1              1.6018064429       14.9159695530       36.7795438868  TIP3      4231            0.0000000000
     62525      4631  TIP3      H2              2.1726018341       14.6569467241       38.1503443706  TIP3      4231            0.0000000000
     62526      4632  TIP3      OH2             5.3614357972       15.6981702425       33.4951334557  TIP3      4232            0.0000000000
     62527      4632  TIP3      H1              4.9819142120       16.5395286004       33.2061037336  TIP3      4232            0.0000000000
     62528      4632  TIP3      H2              6.2850739194       15.8023270779       33.1813301807  TIP3      4232            0.0000000000
     62529      4633  TIP3      OH2             9.6774535932       17.1206763138       36.4200722630  TIP3      4233            0.0000000000
     62530      4633  TIP3      H1              9.8563775487       16.7746386852       37.3311206686  TIP3      4233            0.0000000000
     62531      4633  TIP3      H2             10.5623466407       17.4229343171       36.1408689252  TIP3      4233            0.0000000000
     62532      4634  TIP3      OH2            11.9937187426       18.3940191222       35.6881944587  TIP3      4234            0.0000000000
     62533      4634  TIP3      H1             12.7106450015       17.7796933385       35.4591618548  TIP3      4234            0.0000000000
     62534      4634  TIP3      H2             12.3585977926       18.8076432334       36.5018823171  TIP3      4234            0.0000000000
     62535      4635  TIP3      OH2            16.9707191604        1.0035889459       34.7950698331  TIP3      4235            0.0000000000
     62536      4635  TIP3      H1             16.1405968768        1.3054597672       34.3814534236  TIP3      4235            0.0000000000
     62537      4635  TIP3      H2             17.1675290168        0.2075688716       34.2503147962  TIP3      4235            0.0000000000
     62538      4636  TIP3      OH2             2.7889917542       18.9521234814       33.5145063888  TIP3      4236            0.0000000000
     62539      4636  TIP3      H1              2.0532534678       19.4228432631       33.0880006760  TIP3      4236            0.0000000000
     62540      4636  TIP3      H2              2.4331309825       18.7281507842       34.3869402480  TIP3      4236            0.0000000000
     62541      4637  TIP3      OH2             5.2601709631       18.5386664429       32.5669680332  TIP3      4237            0.0000000000
     62542      4637  TIP3      H1              4.3649576650       18.6513178756       32.9656400096  TIP3      4237            0.0000000000
     62543      4637  TIP3      H2              5.1875669679       19.1168734091       31.7813959681  TIP3      4237            0.0000000000
     62544      4638  TIP3      OH2             9.9586860369       18.4396225862       31.7347462481  TIP3      4238            0.0000000000
     62545      4638  TIP3      H1              9.4947576883       18.9873496105       31.0824525477  TIP3      4238            0.0000000000
     62546      4638  TIP3      H2             10.1088465909       19.0695751192       32.4701939482  TIP3      4238            0.0000000000
     62547      4639  TIP3      OH2            12.2812402918       17.2821248623       32.7048831662  TIP3      4239            0.0000000000
     62548      4639  TIP3      H1             11.3842559137       17.5168384436       32.4095821904  TIP3      4239            0.0000000000
     62549      4639  TIP3      H2             12.7148471389       18.1496614278       32.6320250111  TIP3      4239            0.0000000000
     62550      4640  TIP3      OH2            14.8564690224       18.8544822718       32.9965404424  TIP3      4240            0.0000000000
     62551      4640  TIP3      H1             14.7385493666       19.8107996289       32.7553238001  TIP3      4240            0.0000000000
     62552      4640  TIP3      H2             15.0613356017       18.4838287137       32.1164204001  TIP3      4240            0.0000000000
     62553      4641  TIP3      OH2             2.2032670485       17.5971244774       30.4339462348  TIP3      4241            0.0000000000
     62554      4641  TIP3      H1              2.1654209578       17.1489681841       31.3061800555  TIP3      4241            0.0000000000
     62555      4641  TIP3      H2              3.0259996100       17.2475755463       30.0353550091  TIP3      4241            0.0000000000
     62556      4642  TIP3      OH2             4.3183949553       16.3090173768       29.0864991408  TIP3      4242            0.0000000000
     62557      4642  TIP3      H1              4.1297955582       15.3743622650       29.2887981546  TIP3      4242            0.0000000000
     62558      4642  TIP3      H2              5.1731304957       16.4360658702       29.5590350327  TIP3      4242            0.0000000000
     62559      4643  TIP3      OH2             6.8891586623       16.7864339791       29.9505302293  TIP3      4243            0.0000000000
     62560      4643  TIP3      H1              7.0857138212       15.8722717136       29.6764828318  TIP3      4243            0.0000000000
     62561      4643  TIP3      H2              6.9469588742       16.7217563387       30.9130649781  TIP3      4243            0.0000000000
     62562      4644  TIP3      OH2            10.3779796912        2.4397042750       29.0951241834  TIP3      4244            0.0000000000
     62563      4644  TIP3      H1              9.7021321975        1.7946420806       29.3574311976  TIP3      4244            0.0000000000
     62564      4644  TIP3      H2             10.9368105667        1.9278931123       28.4986061704  TIP3      4244            0.0000000000
     62565      4645  TIP3      OH2            15.5140941572        0.5129926565       29.1987225664  TIP3      4245            0.0000000000
     62566      4645  TIP3      H1             16.1330186664        1.0899909725       28.6819013030  TIP3      4245            0.0000000000
     62567      4645  TIP3      H2             14.6377434426        0.8578795224       28.9492340714  TIP3      4245            0.0000000000
     62568      4646  TIP3      OH2            17.2071833392        1.7013647896       27.5049844838  TIP3      4246            0.0000000000
     62569      4646  TIP3      H1             17.8737426952        1.1608414994       27.0166270297  TIP3      4246            0.0000000000
     62570      4646  TIP3      H2             17.6586142435        2.5709713918       27.5580667127  TIP3      4246            0.0000000000
     62571      4647  TIP3      OH2             2.7225096053        1.0770679419       26.9407444811  TIP3      4247            0.0000000000
     62572      4647  TIP3      H1              1.9362540516        0.8404406971       26.4113804997  TIP3      4247            0.0000000000
     62573      4647  TIP3      H2              3.2257529469        0.2418621431       26.9000064105  TIP3      4247            0.0000000000
     62574      4648  TIP3      OH2             1.5307643588        0.8591151149       22.7287755377  TIP3      4248            0.0000000000
     62575      4648  TIP3      H1              1.9863870320        1.4600267183       22.1094266671  TIP3      4248            0.0000000000
     62576      4648  TIP3      H2              0.9080440943        1.4040639787       23.2053177220  TIP3      4248            0.0000000000
     62577      4649  TIP3      OH2             7.2614590749        0.9808824774       26.7180456803  TIP3      4249            0.0000000000
     62578      4649  TIP3      H1              8.1495651376        1.3772503634       26.6945429248  TIP3      4249            0.0000000000
     62579      4649  TIP3      H2              7.1655142694        0.7793657207       27.6512055938  TIP3      4249            0.0000000000
     62580      4650  TIP3      OH2            12.8799103700        1.0242291064       28.3714717789  TIP3      4250            0.0000000000
     62581      4650  TIP3      H1             12.9056086573        1.1138280629       27.4126702759  TIP3      4250            0.0000000000
     62582      4650  TIP3      H2             12.5534799592        0.1027733981       28.4979054583  TIP3      4250            0.0000000000
     62583      4651  TIP3      OH2            14.1961134589        1.0544720826       24.0403405657  TIP3      4251            0.0000000000
     62584      4651  TIP3      H1             13.4726345863        1.6651441661       23.8668866638  TIP3      4251            0.0000000000
     62585      4651  TIP3      H2             13.7552980690        0.1898471022       24.2199785571  TIP3      4251            0.0000000000
     62586      4652  TIP3      OH2             1.4360630703       16.8021368670       23.6474010898  TIP3      4252            0.0000000000
     62587      4652  TIP3      H1              0.7614435924       16.7945050476       22.9722095871  TIP3      4252            0.0000000000
     62588      4652  TIP3      H2              1.4509931183       17.7415727616       23.8910499494  TIP3      4252            0.0000000000
     62589      4653  TIP3      OH2             8.4048815317        3.0367422144       23.5677361460  TIP3      4253            0.0000000000
     62590      4653  TIP3      H1              8.6059016233        2.4429032114       24.3143652114  TIP3      4253            0.0000000000
     62591      4653  TIP3      H2              8.4052474482        3.8904670160       24.0783546960  TIP3      4253            0.0000000000
     62592      4654  TIP3      OH2            17.0293197572       17.5983447043       24.7285308425  TIP3      4254            0.0000000000
     62593      4654  TIP3      H1             16.8100835757       16.8270588519       24.1426112225  TIP3      4254            0.0000000000
     62594      4654  TIP3      H2             16.9564650337       18.3340622495       24.0791631373  TIP3      4254            0.0000000000
     62595      4655  TIP3      OH2             2.6395860280        1.5997699046       36.4086791341  TIP3      4255            0.0000000000
     62596      4655  TIP3      H1              2.2832534661        0.8083254643       36.8564231216  TIP3      4255            0.0000000000
     62597      4655  TIP3      H2              3.5692021041        1.5888656808       36.7451820325  TIP3      4255            0.0000000000
     62598      4656  TIP3      OH2             4.6406067968        0.9740837575       38.0009769458  TIP3      4256            0.0000000000
     62599      4656  TIP3      H1              5.5370599095        0.6426581652       37.7877201505  TIP3      4256            0.0000000000
     62600      4656  TIP3      H2              4.2583849165        0.1840545146       38.4377559111  TIP3      4256            0.0000000000
     62601      4657  TIP3      OH2             3.2360432063       17.7293250239       20.6484567071  TIP3      4257            0.0000000000
     62602      4657  TIP3      H1              3.0066945818       18.0268233024       21.5300003707  TIP3      4257            0.0000000000
     62603      4657  TIP3      H2              4.0313281470       17.1851146047       20.7809064718  TIP3      4257            0.0000000000
     62604      4658  TIP3      OH2            13.0445177918        0.2788999900       38.1643447772  TIP3      4258            0.0000000000
     62605      4658  TIP3      H1             13.1424898675       -0.1815657548       39.0196462334  TIP3      4258            0.0000000000
     62606      4658  TIP3      H2             13.9607889061        0.2653295336       37.8194162222  TIP3      4258            0.0000000000
     62607      4659  TIP3      OH2            16.2475631060       16.3197051237       36.8523721318  TIP3      4259            0.0000000000
     62608      4659  TIP3      H1             15.4446229178       16.1681319078       36.3073461136  TIP3      4259            0.0000000000
     62609      4659  TIP3      H2             16.1481034246       17.2757347159       37.0486845023  TIP3      4259            0.0000000000
     62610      4660  TIP3      OH2            30.6657983249       10.2017161497       26.8653203506  TIP3      4260            0.0000000000
     62611      4660  TIP3      H1             30.7073365056       11.1777459474       26.7476749366  TIP3      4260            0.0000000000
     62612      4660  TIP3      H2             29.9910301483        9.9578916626       26.2100407426  TIP3      4260            0.0000000000
     62613      4661  TIP3      OH2            29.5982896909        9.4620820762       30.3063755932  TIP3      4261            0.0000000000
     62614      4661  TIP3      H1             29.5072177098        8.8177525495       31.0082452612  TIP3      4261            0.0000000000
     62615      4661  TIP3      H2             29.2226282899        8.9967930487       29.5322558713  TIP3      4261            0.0000000000
     62616      4662  TIP3      OH2            21.9172612030        9.1133074441       31.8654834540  TIP3      4262            0.0000000000
     62617      4662  TIP3      H1             21.9891339279        8.4565790606       32.5917231735  TIP3      4262            0.0000000000
     62618      4662  TIP3      H2             22.6491268731        9.7108289469       32.0751673487  TIP3      4262            0.0000000000
     62619      4663  TIP3      OH2            33.2725733471       12.4040670154       28.5880007221  TIP3      4263            0.0000000000
     62620      4663  TIP3      H1             32.8212471311       11.7039038100       29.0593666523  TIP3      4263            0.0000000000
     62621      4663  TIP3      H2             33.2611600707       13.1365775764       29.2367084128  TIP3      4263            0.0000000000
     62622      4664  TIP3      OH2            22.8405023832       13.5769715597       30.3961593414  TIP3      4264            0.0000000000
     62623      4664  TIP3      H1             22.5051568383       12.7287794270       30.0457592158  TIP3      4264            0.0000000000
     62624      4664  TIP3      H2             23.7959473096       13.3790226702       30.4443987713  TIP3      4264            0.0000000000
     62625      4665  TIP3      OH2            19.4900574551        7.1711954512       25.8055487145  TIP3      4265            0.0000000000
     62626      4665  TIP3      H1             19.0270914430        8.0382660110       25.8022057219  TIP3      4265            0.0000000000
     62627      4665  TIP3      H2             18.9023132354        6.6132436024       25.2879023199  TIP3      4265            0.0000000000
     62628      4666  TIP3      OH2            20.1744857476        9.3700491304       27.9484356249  TIP3      4266            0.0000000000
     62629      4666  TIP3      H1             20.4211357835        8.5734352000       28.4510825408  TIP3      4266            0.0000000000
     62630      4666  TIP3      H2             20.9153423909        9.4606318425       27.3300347917  TIP3      4266            0.0000000000
     62631      4667  TIP3      OH2            30.3680853992       17.5512472458       28.8146006589  TIP3      4267            0.0000000000
     62632      4667  TIP3      H1             31.0106808872       16.8474118975       28.5394905510  TIP3      4267            0.0000000000
     62633      4667  TIP3      H2             30.1721322827       17.2734172923       29.7084434467  TIP3      4267            0.0000000000
     62634      4668  TIP3      OH2            27.9317414524       11.8955953086       30.7282616953  TIP3      4268            0.0000000000
     62635      4668  TIP3      H1             28.2643752052       11.2323428907       30.1043003567  TIP3      4268            0.0000000000
     62636      4668  TIP3      H2             28.7026276216       12.0299641677       31.3048378932  TIP3      4268            0.0000000000
     62637      4669  TIP3      OH2            36.5724603566        3.5077073840       31.5321209346  TIP3      4269            0.0000000000
     62638      4669  TIP3      H1             36.6958735322        4.1176044768       32.2891240761  TIP3      4269            0.0000000000
     62639      4669  TIP3      H2             37.0744833985        3.9605361992       30.8384554402  TIP3      4269            0.0000000000
     62640      4670  TIP3      OH2            31.1528307845        6.3546998608       31.0571512169  TIP3      4270            0.0000000000
     62641      4670  TIP3      H1             31.2343958121        5.3653831936       31.0590437942  TIP3      4270            0.0000000000
     62642      4670  TIP3      H2             30.9714868033        6.4738220468       30.0949630102  TIP3      4270            0.0000000000
     62643      4671  TIP3      OH2            24.2378833889        4.4106670949       28.3112866112  TIP3      4271            0.0000000000
     62644      4671  TIP3      H1             24.3035867868        5.2643244462       27.8528386854  TIP3      4271            0.0000000000
     62645      4671  TIP3      H2             23.8001988955        3.8479938956       27.6363556594  TIP3      4271            0.0000000000
     62646      4672  TIP3      OH2            31.9587047326        4.5193663205       26.6888093413  TIP3      4272            0.0000000000
     62647      4672  TIP3      H1             32.6278334611        4.1940706667       27.3369470639  TIP3      4272            0.0000000000
     62648      4672  TIP3      H2             32.5005844926        5.0640487732       26.0993184777  TIP3      4272            0.0000000000
     62649      4673  TIP3      OH2            20.8494719754        6.8213805045       29.0544349875  TIP3      4273            0.0000000000
     62650      4673  TIP3      H1             21.5244625886        6.2589391720       29.4903564398  TIP3      4273            0.0000000000
     62651      4673  TIP3      H2             20.9182036681        6.5201863621       28.1358571240  TIP3      4273            0.0000000000
     62652      4674  TIP3      OH2            26.0181623997        8.3769664579       28.3117300456  TIP3      4274            0.0000000000
     62653      4674  TIP3      H1             26.6552754366        7.8088808939       28.7731490680  TIP3      4274            0.0000000000
     62654      4674  TIP3      H2             25.4568744960        7.7090899558       27.8658146428  TIP3      4274            0.0000000000
     62655      4675  TIP3      OH2            36.9982407749        4.9644445501       33.7764485837  TIP3      4275            0.0000000000
     62656      4675  TIP3      H1             36.3347425930        5.6713018947       33.6956850851  TIP3      4275            0.0000000000
     62657      4675  TIP3      H2             37.0206826044        4.8092880880       34.7311650906  TIP3      4275            0.0000000000
     62658      4676  TIP3      OH2            23.0949237209        3.3137753456       32.3602462070  TIP3      4276            0.0000000000
     62659      4676  TIP3      H1             22.8368991922        3.8716538875       31.6011981658  TIP3      4276            0.0000000000
     62660      4676  TIP3      H2             22.4046454811        3.5536821104       33.0276529516  TIP3      4276            0.0000000000
     62661      4677  TIP3      OH2            30.4348765054       12.8114598558       25.9040559655  TIP3      4277            0.0000000000
     62662      4677  TIP3      H1             30.1287847435       12.5124766615       25.0444826165  TIP3      4277            0.0000000000
     62663      4677  TIP3      H2             30.1034970318       13.7323583314       25.9595862165  TIP3      4277            0.0000000000
     62664      4678  TIP3      OH2            25.6380558793       10.9704405308       32.6302103324  TIP3      4278            0.0000000000
     62665      4678  TIP3      H1             24.9058488059       11.6070733645       32.7812771410  TIP3      4278            0.0000000000
     62666      4678  TIP3      H2             26.3430787280       11.5613426565       32.3270414569  TIP3      4278            0.0000000000
     62667      4679  TIP3      OH2            33.7287521603        3.8504757721       28.6823363722  TIP3      4279            0.0000000000
     62668      4679  TIP3      H1             33.5346246335        3.0619223086       29.2052227622  TIP3      4279            0.0000000000
     62669      4679  TIP3      H2             34.4188832181        4.2819858067       29.2056226316  TIP3      4279            0.0000000000
     62670      4680  TIP3      OH2            22.6572469217        5.1965035376       30.3460539873  TIP3      4280            0.0000000000
     62671      4680  TIP3      H1             23.2989623525        5.8567352985       30.6924736657  TIP3      4280            0.0000000000
     62672      4680  TIP3      H2             23.1907280497        4.7464209349       29.6504776090  TIP3      4280            0.0000000000
     62673      4681  TIP3      OH2            24.0646783548       12.9494786524       33.4233004439  TIP3      4281            0.0000000000
     62674      4681  TIP3      H1             24.0314923791       13.8592717475       33.0678209525  TIP3      4281            0.0000000000
     62675      4681  TIP3      H2             23.1811625789       12.8837585756       33.8673564332  TIP3      4281            0.0000000000
     62676      4682  TIP3      OH2            20.1178589556       12.6158170352       24.2354053801  TIP3      4282            0.0000000000
     62677      4682  TIP3      H1             19.9130551455       12.8812856679       23.3372997081  TIP3      4282            0.0000000000
     62678      4682  TIP3      H2             20.2279871748       13.4632027458       24.6930985130  TIP3      4282            0.0000000000
     62679      4683  TIP3      OH2            33.7864175670       14.2409745495       30.9497736382  TIP3      4283            0.0000000000
     62680      4683  TIP3      H1             32.8207426191       14.3352253515       31.0914484512  TIP3      4283            0.0000000000
     62681      4683  TIP3      H2             34.0538416483       15.1681266115       30.7848597881  TIP3      4283            0.0000000000
     62682      4684  TIP3      OH2            34.0917220180        2.5404439180       32.3588593837  TIP3      4284            0.0000000000
     62683      4684  TIP3      H1             33.3538388082        3.1537634965       32.2961212305  TIP3      4284            0.0000000000
     62684      4684  TIP3      H2             34.7905407604        2.9517840233       31.8227042850  TIP3      4284            0.0000000000
     62685      4685  TIP3      OH2            27.0859570736        0.6422399342       29.8133157326  TIP3      4285            0.0000000000
     62686      4685  TIP3      H1             26.9568634362       -0.3242322808       29.7572397077  TIP3      4285            0.0000000000
     62687      4685  TIP3      H2             26.2096828124        0.9580803462       30.1066408555  TIP3      4285            0.0000000000
     62688      4686  TIP3      OH2            32.0310330151       16.0304579653       27.5689853820  TIP3      4286            0.0000000000
     62689      4686  TIP3      H1             32.4671813990       15.3194241936       27.0612565486  TIP3      4286            0.0000000000
     62690      4686  TIP3      H2             32.3959799320       16.8351066289       27.1454235463  TIP3      4286            0.0000000000
     62691      4687  TIP3      OH2            33.2294224990       13.9558522673       26.0558274862  TIP3      4287            0.0000000000
     62692      4687  TIP3      H1             32.9355818233       13.2428590921       25.4732346947  TIP3      4287            0.0000000000
     62693      4687  TIP3      H2             33.2696322640       13.4814676536       26.9109341335  TIP3      4287            0.0000000000
     62694      4688  TIP3      OH2            34.8671564177       12.5188037286       34.5559518221  TIP3      4288            0.0000000000
     62695      4688  TIP3      H1             35.0263291108       11.9076596866       33.8142223103  TIP3      4288            0.0000000000
     62696      4688  TIP3      H2             35.0543938489       13.3895184025       34.1673418396  TIP3      4288            0.0000000000
     62697      4689  TIP3      OH2            29.3638140213        9.4746120813       24.3456374835  TIP3      4289            0.0000000000
     62698      4689  TIP3      H1             28.6464136294       10.0064832299       23.9590781200  TIP3      4289            0.0000000000
     62699      4689  TIP3      H2             30.0532633667        9.5208830745       23.6562434908  TIP3      4289            0.0000000000
     62700      4690  TIP3      OH2            29.4089562292        7.9546757946       21.3675993749  TIP3      4290            0.0000000000
     62701      4690  TIP3      H1             30.1262958348        7.9496009713       22.0107773823  TIP3      4290            0.0000000000
     62702      4690  TIP3      H2             29.7277613141        7.3094119200       20.7257589108  TIP3      4290            0.0000000000
     62703      4691  TIP3      OH2            36.7136206061        8.8312215273       32.6048920491  TIP3      4291            0.0000000000
     62704      4691  TIP3      H1             36.0882301627        9.5731869143       32.6884943826  TIP3      4291            0.0000000000
     62705      4691  TIP3      H2             37.2182466276        9.0768511362       31.8045944444  TIP3      4291            0.0000000000
     62706      4692  TIP3      OH2            32.7898498597        9.6856644358       25.2579888842  TIP3      4292            0.0000000000
     62707      4692  TIP3      H1             32.0318870891        9.9030773012       25.8503646099  TIP3      4292            0.0000000000
     62708      4692  TIP3      H2             33.2337966185        8.9641222232       25.7383618088  TIP3      4292            0.0000000000
     62709      4693  TIP3      OH2            32.7212750861        7.8400634783       34.3157772500  TIP3      4293            0.0000000000
     62710      4693  TIP3      H1             32.7340489705        8.6161946703       34.9200095975  TIP3      4293            0.0000000000
     62711      4693  TIP3      H2             32.0358513943        8.1328779011       33.6935852419  TIP3      4293            0.0000000000
     62712      4694  TIP3      OH2            24.4117018881       10.3243043174       27.1618220392  TIP3      4294            0.0000000000
     62713      4694  TIP3      H1             24.0839744452        9.9304435051       26.3178485784  TIP3      4294            0.0000000000
     62714      4694  TIP3      H2             25.0136931565        9.6220740925       27.5009014249  TIP3      4294            0.0000000000
     62715      4695  TIP3      OH2            25.7490627251       13.7319583021       29.8437947505  TIP3      4295            0.0000000000
     62716      4695  TIP3      H1             25.7005952687       13.1598139878       29.0664795718  TIP3      4295            0.0000000000
     62717      4695  TIP3      H2             26.5140555897       13.3515316682       30.3161978382  TIP3      4295            0.0000000000
     62718      4696  TIP3      OH2            24.7575842148        9.0629031380       30.8025811479  TIP3      4296            0.0000000000
     62719      4696  TIP3      H1             25.3294902504        9.1868758150       30.0217077330  TIP3      4296            0.0000000000
     62720      4696  TIP3      H2             25.1097765414        9.7220756621       31.4334077992  TIP3      4296            0.0000000000
     62721      4697  TIP3      OH2            31.1128827985       14.6149796098       31.5133377639  TIP3      4297            0.0000000000
     62722      4697  TIP3      H1             30.8501502043       15.2496487150       32.1814154146  TIP3      4297            0.0000000000
     62723      4697  TIP3      H2             30.8846919615       13.7589637426       31.9552809431  TIP3      4297            0.0000000000
     62724      4698  TIP3      OH2            25.6818209954       13.4766000040       35.5144500834  TIP3      4298            0.0000000000
     62725      4698  TIP3      H1             25.3187053614       14.2520320912       35.9837407488  TIP3      4298            0.0000000000
     62726      4698  TIP3      H2             25.0036762853       13.3075581350       34.8152876932  TIP3      4298            0.0000000000
     62727      4699  TIP3      OH2            31.6528832686        8.8312891697       22.9425728514  TIP3      4299            0.0000000000
     62728      4699  TIP3      H1             32.2263283106        8.9966573369       23.7295741324  TIP3      4299            0.0000000000
     62729      4699  TIP3      H2             32.0601017912        9.3238062641       22.2200544683  TIP3      4299            0.0000000000
     62730      4700  TIP3      OH2            22.6083251022        9.6539302800       34.7077498312  TIP3      4300            0.0000000000
     62731      4700  TIP3      H1             22.6523652664       10.3235336457       35.4213987229  TIP3      4300            0.0000000000
     62732      4700  TIP3      H2             21.6867257847        9.7652279787       34.4298411166  TIP3      4300            0.0000000000
     62733      4701  TIP3      OH2            29.3732091551       15.5702382664       26.3940585193  TIP3      4301            0.0000000000
     62734      4701  TIP3      H1             29.8312314523       15.8757255888       27.1850138844  TIP3      4301            0.0000000000
     62735      4701  TIP3      H2             28.8097537737       16.3168576941       26.1627496729  TIP3      4301            0.0000000000
     62736      4702  TIP3      OH2            23.9195883504       15.5413174262       36.2716770109  TIP3      4302            0.0000000000
     62737      4702  TIP3      H1             23.8884668589       15.4169608143       35.3070497190  TIP3      4302            0.0000000000
     62738      4702  TIP3      H2             22.9819905297       15.4166276006       36.5235020313  TIP3      4302            0.0000000000
     62739      4703  TIP3      OH2            35.3697313136        0.5963129287       22.8066829208  TIP3      4303            0.0000000000
     62740      4703  TIP3      H1             34.4222528863        0.7121640315       23.0563035060  TIP3      4303            0.0000000000
     62741      4703  TIP3      H2             35.5821034424        1.4215460413       22.3518610401  TIP3      4303            0.0000000000
     62742      4704  TIP3      OH2            23.3818083469        9.3605637874       24.7690198804  TIP3      4304            0.0000000000
     62743      4704  TIP3      H1             23.1116922280       10.1380867556       24.2477887716  TIP3      4304            0.0000000000
     62744      4704  TIP3      H2             22.7219791831        8.7032092885       24.5558037354  TIP3      4304            0.0000000000
     62745      4705  TIP3      OH2            19.4740746025       11.7630062034       33.6120573034  TIP3      4305            0.0000000000
     62746      4705  TIP3      H1             19.0099790130       11.6879546111       32.7635803514  TIP3      4305            0.0000000000
     62747      4705  TIP3      H2             19.5210219311       10.8211913083       33.8729189000  TIP3      4305            0.0000000000
     62748      4706  TIP3      OH2            19.2280874919       14.5184935948       30.4378151583  TIP3      4306            0.0000000000
     62749      4706  TIP3      H1             20.1853983905       14.3666213217       30.4351629432  TIP3      4306            0.0000000000
     62750      4706  TIP3      H2             19.1444453778       15.3051831411       30.9871532705  TIP3      4306            0.0000000000
     62751      4707  TIP3      OH2            37.4643157759       15.1978272185       36.1136403091  TIP3      4307            0.0000000000
     62752      4707  TIP3      H1             37.3708780095       14.2342106946       36.1070168929  TIP3      4307            0.0000000000
     62753      4707  TIP3      H2             36.6046027833       15.4465089443       36.5380194466  TIP3      4307            0.0000000000
     62754      4708  TIP3      OH2            28.4286475092       14.7488416453       34.9955673008  TIP3      4308            0.0000000000
     62755      4708  TIP3      H1             28.5005701074       15.5918096060       35.5011485018  TIP3      4308            0.0000000000
     62756      4708  TIP3      H2             27.5515181048       14.4112748793       35.2557049095  TIP3      4308            0.0000000000
     62757      4709  TIP3      OH2            28.8489674455       18.5022022845       24.8004987880  TIP3      4309            0.0000000000
     62758      4709  TIP3      H1             28.7619343383       18.4269981227       23.8467397717  TIP3      4309            0.0000000000
     62759      4709  TIP3      H2             28.8776191130       19.4716258192       24.9440069383  TIP3      4309            0.0000000000
     62760      4710  TIP3      OH2            22.4776431858       17.3740649219       26.6164649309  TIP3      4310            0.0000000000
     62761      4710  TIP3      H1             22.6585653568       16.9379157682       27.4768727421  TIP3      4310            0.0000000000
     62762      4710  TIP3      H2             21.6548022794       16.9404460214       26.3381208355  TIP3      4310            0.0000000000
     62763      4711  TIP3      OH2            31.9810368395       17.6902168820       21.8033106500  TIP3      4311            0.0000000000
     62764      4711  TIP3      H1             32.2818686704       16.9284751207       21.3457660540  TIP3      4311            0.0000000000
     62765      4711  TIP3      H2             31.9377143331       17.4309765518       22.7326766968  TIP3      4311            0.0000000000
     62766      4712  TIP3      OH2            31.6145858582       17.6224936331       24.5678266897  TIP3      4312            0.0000000000
     62767      4712  TIP3      H1             30.6583971719       17.7115048796       24.7490126140  TIP3      4312            0.0000000000
     62768      4712  TIP3      H2             31.8753414780       16.8945076258       25.1472558061  TIP3      4312            0.0000000000
     62769      4713  TIP3      OH2            34.6031774435        6.6808696160       36.6041944591  TIP3      4313            0.0000000000
     62770      4713  TIP3      H1             34.1711222607        7.1504826159       35.8861656051  TIP3      4313            0.0000000000
     62771      4713  TIP3      H2             34.6229239900        5.7601054319       36.3012460111  TIP3      4313            0.0000000000
     62772      4714  TIP3      OH2            21.7476368841       13.0772342226       34.6052910738  TIP3      4314            0.0000000000
     62773      4714  TIP3      H1             21.9700636292       12.7022847672       35.4833104753  TIP3      4314            0.0000000000
     62774      4714  TIP3      H2             20.8797428741       12.6804776547       34.3936637888  TIP3      4314            0.0000000000
     62775      4715  TIP3      OH2            24.4038744623        1.5339250026       30.5855557917  TIP3      4315            0.0000000000
     62776      4715  TIP3      H1             23.5043597108        1.4420882214       30.1947483997  TIP3      4315            0.0000000000
     62777      4715  TIP3      H2             24.3211156726        2.3893595932       31.0343503700  TIP3      4315            0.0000000000
     62778      4716  TIP3      OH2            29.0530239870        1.2472783183       33.9504087839  TIP3      4316            0.0000000000
     62779      4716  TIP3      H1             29.4550116716        0.8211365264       34.7284479765  TIP3      4316            0.0000000000
     62780      4716  TIP3      H2             28.0865050959        1.0832599865       34.0866702319  TIP3      4316            0.0000000000
     62781      4717  TIP3      OH2            32.3632426353        5.0378962754       34.8162023809  TIP3      4317            0.0000000000
     62782      4717  TIP3      H1             31.8232527563        4.8601614537       35.6280597756  TIP3      4317            0.0000000000
     62783      4717  TIP3      H2             32.1855214536        5.9550709189       34.5945863056  TIP3      4317            0.0000000000
     62784      4718  TIP3      OH2            24.4956311694        6.4990555309       31.7444118241  TIP3      4318            0.0000000000
     62785      4718  TIP3      H1             23.7988308995        6.4773957907       32.4258825066  TIP3      4318            0.0000000000
     62786      4718  TIP3      H2             24.4806319692        7.4354953000       31.4470816624  TIP3      4318            0.0000000000
     62787      4719  TIP3      OH2            24.4733516729        6.6957002414       26.6422070265  TIP3      4319            0.0000000000
     62788      4719  TIP3      H1             23.5516681434        6.3790924491       26.5386815836  TIP3      4319            0.0000000000
     62789      4719  TIP3      H2             24.8869094946        6.3418426333       25.8282301152  TIP3      4319            0.0000000000
     62790      4720  TIP3      OH2            29.9957393593        7.1259641025       25.4308923698  TIP3      4320            0.0000000000
     62791      4720  TIP3      H1             29.5874569371        7.9629649251       25.1162772802  TIP3      4320            0.0000000000
     62792      4720  TIP3      H2             30.7088406184        6.9904707098       24.7932428648  TIP3      4320            0.0000000000
     62793      4721  TIP3      OH2            29.0857327536        7.3375079510       36.8985764550  TIP3      4321            0.0000000000
     62794      4721  TIP3      H1             28.5304327465        6.5879151226       37.2210296871  TIP3      4321            0.0000000000
     62795      4721  TIP3      H2             29.9175808609        7.2027047298       37.3794930694  TIP3      4321            0.0000000000
     62796      4722  TIP3      OH2            31.0333549456        6.6149979910       28.2791059626  TIP3      4322            0.0000000000
     62797      4722  TIP3      H1             30.7797305498        7.1795842680       27.5220995297  TIP3      4322            0.0000000000
     62798      4722  TIP3      H2             31.1570206440        5.7611588174       27.8010530422  TIP3      4322            0.0000000000
     62799      4723  TIP3      OH2            22.1843473964        6.8069965009       33.5309758255  TIP3      4323            0.0000000000
     62800      4723  TIP3      H1             22.1889988012        7.2077959193       34.4176200262  TIP3      4323            0.0000000000
     62801      4723  TIP3      H2             21.7100739583        5.9756531293       33.6777092437  TIP3      4323            0.0000000000
     62802      4724  TIP3      OH2            25.5523470219        4.2323660664       20.3728086665  TIP3      4324            0.0000000000
     62803      4724  TIP3      H1             25.1139959273        3.7295709580       21.0782103787  TIP3      4324            0.0000000000
     62804      4724  TIP3      H2             24.8253625544        4.5624617225       19.8483674419  TIP3      4324            0.0000000000
     62805      4725  TIP3      OH2            18.8054426478        3.9212725619       27.4358574863  TIP3      4325            0.0000000000
     62806      4725  TIP3      H1             19.4682415851        3.8827571980       28.1512506417  TIP3      4325            0.0000000000
     62807      4725  TIP3      H2             19.2656684868        3.5048741965       26.6839566179  TIP3      4325            0.0000000000
     62808      4726  TIP3      OH2            20.0917219595        4.6577904030       22.8283193318  TIP3      4326            0.0000000000
     62809      4726  TIP3      H1             20.5745436752        5.2653948535       22.2617664424  TIP3      4326            0.0000000000
     62810      4726  TIP3      H2             19.3878200809        5.2299224030       23.1791075562  TIP3      4326            0.0000000000
     62811      4727  TIP3      OH2            30.2971024945        8.2265058289       32.8872032637  TIP3      4327            0.0000000000
     62812      4727  TIP3      H1             30.5671256044        7.5394182201       32.2651508145  TIP3      4327            0.0000000000
     62813      4727  TIP3      H2             29.7975921539        7.6974887240       33.5538933957  TIP3      4327            0.0000000000
     62814      4728  TIP3      OH2            27.0417515220        4.1670518457       27.6880651358  TIP3      4328            0.0000000000
     62815      4728  TIP3      H1             26.1063811072        4.2021145373       27.9886884806  TIP3      4328            0.0000000000
     62816      4728  TIP3      H2             27.5375025065        4.0657499896       28.5131190066  TIP3      4328            0.0000000000
     62817      4729  TIP3      OH2            21.8654739594        5.7712745337       26.5379202038  TIP3      4329            0.0000000000
     62818      4729  TIP3      H1             20.9648341573        5.8753453156       26.1706590201  TIP3      4329            0.0000000000
     62819      4729  TIP3      H2             22.1553043481        4.9215130852       26.1666826640  TIP3      4329            0.0000000000
     62820      4730  TIP3      OH2            25.4896746796        5.7915943052       24.1900496829  TIP3      4330            0.0000000000
     62821      4730  TIP3      H1             26.4482414802        5.8954592032       24.3437479233  TIP3      4330            0.0000000000
     62822      4730  TIP3      H2             25.3046507158        6.4558976115       23.5149512300  TIP3      4330            0.0000000000
     62823      4731  TIP3      OH2            31.4544316255        3.4215201925       30.9406405538  TIP3      4331            0.0000000000
     62824      4731  TIP3      H1             30.7556643952        3.4910058037       31.6276059138  TIP3      4331            0.0000000000
     62825      4731  TIP3      H2             30.9473617421        3.1995675406       30.1440814973  TIP3      4331            0.0000000000
     62826      4732  TIP3      OH2            34.6819274170       19.0581565577       37.2571774965  TIP3      4332            0.0000000000
     62827      4732  TIP3      H1             34.9321040293       19.4680262308       36.4063902856  TIP3      4332            0.0000000000
     62828      4732  TIP3      H2             35.3884251456       19.3883917357       37.8386619016  TIP3      4332            0.0000000000
     62829      4733  TIP3      OH2            22.3400249587       11.5278652258       36.8240659739  TIP3      4333            0.0000000000
     62830      4733  TIP3      H1             23.0525263260       11.7861917413       37.4312338513  TIP3      4333            0.0000000000
     62831      4733  TIP3      H2             21.5446352768       11.6938911413       37.3813147023  TIP3      4333            0.0000000000
     62832      4734  TIP3      OH2            28.3553394236        6.9497681146       29.5908663732  TIP3      4334            0.0000000000
     62833      4734  TIP3      H1             28.9123876785        6.3916822935       29.0318963862  TIP3      4334            0.0000000000
     62834      4734  TIP3      H2             28.1878686697        6.4008287268       30.3669304777  TIP3      4334            0.0000000000
     62835      4735  TIP3      OH2            23.3533307871        3.0964544834       26.0130137852  TIP3      4335            0.0000000000
     62836      4735  TIP3      H1             23.0349076663        2.1725353476       25.9711687371  TIP3      4335            0.0000000000
     62837      4735  TIP3      H2             24.1325466123        3.0530277951       25.4396838199  TIP3      4335            0.0000000000
     62838      4736  TIP3      OH2            26.9778870010        5.2966531379       31.9887928490  TIP3      4336            0.0000000000
     62839      4736  TIP3      H1             26.1406066645        5.7881103108       32.0990887575  TIP3      4336            0.0000000000
     62840      4736  TIP3      H2             27.5148684225        5.6151620141       32.7415541396  TIP3      4336            0.0000000000
     62841      4737  TIP3      OH2            27.5478239551       11.5185869639       23.6711918651  TIP3      4337            0.0000000000
     62842      4737  TIP3      H1             26.7679047050       11.0277540748       23.3701389280  TIP3      4337            0.0000000000
     62843      4737  TIP3      H2             27.3684171845       11.5956421610       24.6287182570  TIP3      4337            0.0000000000
     62844      4738  TIP3      OH2            34.6937789540       10.6328003929       32.4600105707  TIP3      4338            0.0000000000
     62845      4738  TIP3      H1             35.3128458913       11.1560197329       31.9054761973  TIP3      4338            0.0000000000
     62846      4738  TIP3      H2             33.8542646021       10.8201142056       32.0088074810  TIP3      4338            0.0000000000
     62847      4739  TIP3      OH2            29.0457593913       11.7357650643       34.9208536888  TIP3      4339            0.0000000000
     62848      4739  TIP3      H1             28.7004736356       11.3402665452       35.7294705484  TIP3      4339            0.0000000000
     62849      4739  TIP3      H2             28.8268650856       12.6682669660       35.0071017370  TIP3      4339            0.0000000000
     62850      4740  TIP3      OH2            32.1281952768        6.1946525628       23.5396085808  TIP3      4340            0.0000000000
     62851      4740  TIP3      H1             33.0362964443        6.0832332547       23.8743062022  TIP3      4340            0.0000000000
     62852      4740  TIP3      H2             32.1942089743        7.0052856201       23.0068817532  TIP3      4340            0.0000000000
     62853      4741  TIP3      OH2            22.6521036871       10.8616179154       29.4717520232  TIP3      4341            0.0000000000
     62854      4741  TIP3      H1             23.3804333968       10.8197407649       28.8221472552  TIP3      4341            0.0000000000
     62855      4741  TIP3      H2             22.7295422893       10.0111615356       29.9366109609  TIP3      4341            0.0000000000
     62856      4742  TIP3      OH2            29.6802477556       12.9716339707       22.7262554583  TIP3      4342            0.0000000000
     62857      4742  TIP3      H1             29.3369648528       13.8196472734       23.0815152377  TIP3      4342            0.0000000000
     62858      4742  TIP3      H2             28.9305518391       12.3660515131       22.9198396946  TIP3      4342            0.0000000000
     62859      4743  TIP3      OH2            19.6560034184        9.3054341961       34.7557959399  TIP3      4343            0.0000000000
     62860      4743  TIP3      H1             19.8646755493        8.8641594417       35.6035117023  TIP3      4343            0.0000000000
     62861      4743  TIP3      H2             19.0448263508        8.6762500160       34.3313688326  TIP3      4343            0.0000000000
     62862      4744  TIP3      OH2            26.6681283148        8.8356042296       36.9676653177  TIP3      4344            0.0000000000
     62863      4744  TIP3      H1             26.3708164782        8.6095165013       36.0761189478  TIP3      4344            0.0000000000
     62864      4744  TIP3      H2             27.6090122762        8.5685936861       36.9510287488  TIP3      4344            0.0000000000
     62865      4745  TIP3      OH2            31.3250702615       14.1802924899       34.8604617728  TIP3      4345            0.0000000000
     62866      4745  TIP3      H1             30.4013863153       14.3715262268       34.6236782639  TIP3      4345            0.0000000000
     62867      4745  TIP3      H2             31.3197954495       14.4608250940       35.7977009879  TIP3      4345            0.0000000000
     62868      4746  TIP3      OH2            37.0249313027        6.4028869151       23.2721456321  TIP3      4346            0.0000000000
     62869      4746  TIP3      H1             36.4703248837        6.0498460685       22.5536791333  TIP3      4346            0.0000000000
     62870      4746  TIP3      H2             37.1103599525        7.3326214250       22.9742217940  TIP3      4346            0.0000000000
     62871      4747  TIP3      OH2            37.0036797435       12.2332146604       36.0883491128  TIP3      4347            0.0000000000
     62872      4747  TIP3      H1             36.1235963563       12.4621290934       35.7045720427  TIP3      4347            0.0000000000
     62873      4747  TIP3      H2             37.5742914225       12.2068637610       35.2966743241  TIP3      4347            0.0000000000
     62874      4748  TIP3      OH2            35.2965548448       15.2038394511       23.6644318222  TIP3      4348            0.0000000000
     62875      4748  TIP3      H1             34.9522863233       14.3816751621       24.0365874984  TIP3      4348            0.0000000000
     62876      4748  TIP3      H2             35.6272434239       15.0211410090       22.7981108338  TIP3      4348            0.0000000000
     62877      4749  TIP3      OH2            32.4511703236       10.1622242667       30.6612494807  TIP3      4349            0.0000000000
     62878      4749  TIP3      H1             31.5184691882        9.8616446699       30.6586848031  TIP3      4349            0.0000000000
     62879      4749  TIP3      H2             32.9191723488        9.4206710987       30.2560262306  TIP3      4349            0.0000000000
     62880      4750  TIP3      OH2            25.0331143078       14.3421748703       26.8655895874  TIP3      4350            0.0000000000
     62881      4750  TIP3      H1             25.5453812997       15.1377233674       26.6549160021  TIP3      4350            0.0000000000
     62882      4750  TIP3      H2             24.1503495801       14.5786940695       26.5465032865  TIP3      4350            0.0000000000
     62883      4751  TIP3      OH2            26.4659063124       12.0067395302       26.4109210934  TIP3      4351            0.0000000000
     62884      4751  TIP3      H1             26.1826607613       12.9389783910       26.4819062030  TIP3      4351            0.0000000000
     62885      4751  TIP3      H2             25.7139239754       11.5433032163       26.8335875509  TIP3      4351            0.0000000000
     62886      4752  TIP3      OH2            26.9268656354       16.1758036054       32.7660431149  TIP3      4352            0.0000000000
     62887      4752  TIP3      H1             27.3458054314       17.0142075077       32.5138492893  TIP3      4352            0.0000000000
     62888      4752  TIP3      H2             27.5112408822       15.8665409239       33.4834959330  TIP3      4352            0.0000000000
     62889      4753  TIP3      OH2            25.1390724413       17.0237021409       25.9494122426  TIP3      4353            0.0000000000
     62890      4753  TIP3      H1             24.1746159587       17.1457716208       26.0349687158  TIP3      4353            0.0000000000
     62891      4753  TIP3      H2             25.4910820361       17.8578297756       26.3095894156  TIP3      4353            0.0000000000
     62892      4754  TIP3      OH2            30.4824226103       12.2331826854       32.4315278438  TIP3      4354            0.0000000000
     62893      4754  TIP3      H1             30.0857838511       12.0317665217       33.3017169991  TIP3      4354            0.0000000000
     62894      4754  TIP3      H2             31.0893427673       11.5095211069       32.2626335681  TIP3      4354            0.0000000000
     62895      4755  TIP3      OH2            33.2036689988       16.7966142898       34.9293394547  TIP3      4355            0.0000000000
     62896      4755  TIP3      H1             32.5603762543       16.2693166320       34.4167467873  TIP3      4355            0.0000000000
     62897      4755  TIP3      H2             33.4398412848       17.4821744092       34.2690242681  TIP3      4355            0.0000000000
     62898      4756  TIP3      OH2            21.3052201018        4.0437062212       34.3102285309  TIP3      4356            0.0000000000
     62899      4756  TIP3      H1             20.3945395488        4.3852546575       34.2652293568  TIP3      4356            0.0000000000
     62900      4756  TIP3      H2             21.1907991939        3.1872229902       34.7511094898  TIP3      4356            0.0000000000
     62901      4757  TIP3      OH2            33.5590889849       11.8933317670       23.7438891134  TIP3      4357            0.0000000000
     62902      4757  TIP3      H1             33.2985920390       11.1250167013       24.3028742901  TIP3      4357            0.0000000000
     62903      4757  TIP3      H2             34.5028993806       11.9590365803       23.9684156287  TIP3      4357            0.0000000000
     62904      4758  TIP3      OH2            20.9394362884       15.8493084063       32.7345728296  TIP3      4358            0.0000000000
     62905      4758  TIP3      H1             21.1828677543       14.9048131927       32.7392462427  TIP3      4358            0.0000000000
     62906      4758  TIP3      H2             21.1880436455       16.1103534089       33.6347231910  TIP3      4358            0.0000000000
     62907      4759  TIP3      OH2            25.6914537153       13.8766030924       22.4045754894  TIP3      4359            0.0000000000
     62908      4759  TIP3      H1             25.8908304693       13.3448738442       23.1974283837  TIP3      4359            0.0000000000
     62909      4759  TIP3      H2             25.7478682734       14.7903896795       22.7500831941  TIP3      4359            0.0000000000
     62910      4760  TIP3      OH2            30.0372225596        3.8110925737       33.2180624358  TIP3      4360            0.0000000000
     62911      4760  TIP3      H1             30.7328787728        3.8539650328       33.8843665739  TIP3      4360            0.0000000000
     62912      4760  TIP3      H2             29.6491872129        2.9265399176       33.4006220477  TIP3      4360            0.0000000000
     62913      4761  TIP3      OH2            30.8599187686        3.3954721338       24.3511794501  TIP3      4361            0.0000000000
     62914      4761  TIP3      H1             31.0087435903        3.9141756467       23.5468162742  TIP3      4361            0.0000000000
     62915      4761  TIP3      H2             31.3837613324        3.8498850157       25.0084328334  TIP3      4361            0.0000000000
     62916      4762  TIP3      OH2            28.4933124563       15.5647478079       23.1739758924  TIP3      4362            0.0000000000
     62917      4762  TIP3      H1             27.6612034843       16.0610093923       23.2269100156  TIP3      4362            0.0000000000
     62918      4762  TIP3      H2             29.0029653287       16.0526196195       22.5176660912  TIP3      4362            0.0000000000
     62919      4763  TIP3      OH2            28.0044610663        5.1557839180       25.1573051437  TIP3      4363            0.0000000000
     62920      4763  TIP3      H1             28.8198622386        5.6917445570       25.1934300007  TIP3      4363            0.0000000000
     62921      4763  TIP3      H2             27.7567857830        5.0200252224       26.0856468857  TIP3      4363            0.0000000000
     62922      4764  TIP3      OH2            28.5691812564        6.1617325880       34.3263177648  TIP3      4364            0.0000000000
     62923      4764  TIP3      H1             28.6479685171        6.7237495030       35.1209707455  TIP3      4364            0.0000000000
     62924      4764  TIP3      H2             29.2080146086        5.4511537738       34.4533756668  TIP3      4364            0.0000000000
     62925      4765  TIP3      OH2            28.8818269566        2.2138363975       26.0906178715  TIP3      4365            0.0000000000
     62926      4765  TIP3      H1             28.5408743259        2.8627509740       26.7289508062  TIP3      4365            0.0000000000
     62927      4765  TIP3      H2             29.5511059411        2.7547387761       25.6019244752  TIP3      4365            0.0000000000
     62928      4766  TIP3      OH2            25.8323524477       16.6038094079       23.1500330409  TIP3      4366            0.0000000000
     62929      4766  TIP3      H1             25.9927307129       17.4227529892       22.6577485543  TIP3      4366            0.0000000000
     62930      4766  TIP3      H2             25.6068473234       16.9187905697       24.0552650344  TIP3      4366            0.0000000000
     62931      4767  TIP3      OH2            24.5360152645        3.2888616141       22.8042958452  TIP3      4367            0.0000000000
     62932      4767  TIP3      H1             24.4736771221        4.1985764977       23.1259600988  TIP3      4367            0.0000000000
     62933      4767  TIP3      H2             25.4625782036        3.0546251268       22.9959782497  TIP3      4367            0.0000000000
     62934      4768  TIP3      OH2            34.7635135458        4.0384518867       35.1862717456  TIP3      4368            0.0000000000
     62935      4768  TIP3      H1             33.8231437850        4.3220250589       35.0752899432  TIP3      4368            0.0000000000
     62936      4768  TIP3      H2             35.0704853975        4.0322149140       34.2694180659  TIP3      4368            0.0000000000
     62937      4769  TIP3      OH2            33.3371242893        7.8195325686       29.2658835995  TIP3      4369            0.0000000000
     62938      4769  TIP3      H1             32.5447548535        7.3698479838       28.8956337602  TIP3      4369            0.0000000000
     62939      4769  TIP3      H2             33.8420668264        7.0857549956       29.6971931729  TIP3      4369            0.0000000000
     62940      4770  TIP3      OH2            22.7833451551       13.7857389207       21.7786882407  TIP3      4370            0.0000000000
     62941      4770  TIP3      H1             23.4140694955       14.4106344517       22.1442567187  TIP3      4370            0.0000000000
     62942      4770  TIP3      H2             23.2716948951       13.2559774184       21.1502410677  TIP3      4370            0.0000000000
     62943      4771  TIP3      OH2            34.4227215339       17.0563651751       30.8898214641  TIP3      4371            0.0000000000
     62944      4771  TIP3      H1             34.3047121602       17.7505463077       30.2112204094  TIP3      4371            0.0000000000
     62945      4771  TIP3      H2             35.3833896856       17.1356985711       31.0739533510  TIP3      4371            0.0000000000
     62946      4772  TIP3      OH2            21.9313241011        1.1945333444       29.6511584839  TIP3      4372            0.0000000000
     62947      4772  TIP3      H1             21.7039714695        1.2290319455       28.6942710893  TIP3      4372            0.0000000000
     62948      4772  TIP3      H2             21.4889839038        0.3678931341       29.9296287293  TIP3      4372            0.0000000000
     62949      4773  TIP3      OH2            20.8741507395       15.1324537086       25.8227390852  TIP3      4373            0.0000000000
     62950      4773  TIP3      H1             20.0210297342       15.5827363360       25.7868045237  TIP3      4373            0.0000000000
     62951      4773  TIP3      H2             21.3877070337       15.6092826876       25.1563130332  TIP3      4373            0.0000000000
     62952      4774  TIP3      OH2            20.1208033236       17.7528480811       37.1074430880  TIP3      4374            0.0000000000
     62953      4774  TIP3      H1             20.6900836573       17.5332202463       37.8739001760  TIP3      4374            0.0000000000
     62954      4774  TIP3      H2             19.6669767203       16.9133601846       36.9312493095  TIP3      4374            0.0000000000
     62955      4775  TIP3      OH2            24.7480331756       16.6712191573       38.7407649232  TIP3      4375            0.0000000000
     62956      4775  TIP3      H1             25.5221204911       16.1899792380       39.0648633228  TIP3      4375            0.0000000000
     62957      4775  TIP3      H2             24.7330892245       16.4162579411       37.7945349275  TIP3      4375            0.0000000000
     62958      4776  TIP3      OH2            31.2935018300       15.0565307350       37.4547267738  TIP3      4376            0.0000000000
     62959      4776  TIP3      H1             30.9654113707       14.1725142994       37.7178865651  TIP3      4376            0.0000000000
     62960      4776  TIP3      H2             32.0498002950       15.1796575733       38.0591923026  TIP3      4376            0.0000000000
     62961      4777  TIP3      OH2            20.0326426200       11.5422090029       38.0884501160  TIP3      4377            0.0000000000
     62962      4777  TIP3      H1             20.1900546640       10.6310590438       37.7766804831  TIP3      4377            0.0000000000
     62963      4777  TIP3      H2             19.2715210967       11.8196327414       37.5533641904  TIP3      4377            0.0000000000
     62964      4778  TIP3      OH2            26.7164732655       11.5188712284       37.4937108503  TIP3      4378            0.0000000000
     62965      4778  TIP3      H1             26.3754782971       11.8073129859       36.6280112309  TIP3      4378            0.0000000000
     62966      4778  TIP3      H2             26.8362361777       10.5511317176       37.3973361934  TIP3      4378            0.0000000000
     62967      4779  TIP3      OH2            29.7467761343       12.9594034678       19.9356492798  TIP3      4379            0.0000000000
     62968      4779  TIP3      H1             29.4819697423       13.1054754866       20.8518805389  TIP3      4379            0.0000000000
     62969      4779  TIP3      H2             29.5607562837       12.0217323413       19.7845317101  TIP3      4379            0.0000000000
     62970      4780  TIP3      OH2            32.4273216691       11.3960857627       34.8641554113  TIP3      4380            0.0000000000
     62971      4780  TIP3      H1             33.1925400853       12.0137157932       34.7927758236  TIP3      4380            0.0000000000
     62972      4780  TIP3      H2             31.6984956447       12.0339656269       34.9403501855  TIP3      4380            0.0000000000
     62973      4781  TIP3      OH2            20.8997949502        8.7607126377       37.4868266481  TIP3      4381            0.0000000000
     62974      4781  TIP3      H1             21.3074257278        7.8927439703       37.3820516042  TIP3      4381            0.0000000000
     62975      4781  TIP3      H2             20.6483828380        8.7638838310       38.4285870324  TIP3      4381            0.0000000000
     62976      4782  TIP3      OH2            24.8283428371        7.7308902251       34.8611236972  TIP3      4382            0.0000000000
     62977      4782  TIP3      H1             24.2136846038        8.4356600841       35.1287382020  TIP3      4382            0.0000000000
     62978      4782  TIP3      H2             25.1888025109        8.0820112309       34.0290433128  TIP3      4382            0.0000000000
     62979      4783  TIP3      OH2            26.6098057732        8.1606255444       20.7734333314  TIP3      4383            0.0000000000
     62980      4783  TIP3      H1             26.4278601604        7.9450103790       19.8571635148  TIP3      4383            0.0000000000
     62981      4783  TIP3      H2             27.5825759070        8.1982174169       20.8249635312  TIP3      4383            0.0000000000
     62982      4784  TIP3      OH2            29.8660491280       10.2520747382       38.1791653065  TIP3      4384            0.0000000000
     62983      4784  TIP3      H1             30.8256920151       10.2916612347       38.0939015166  TIP3      4384            0.0000000000
     62984      4784  TIP3      H2             29.7029819865        9.5049600399       38.7721730635  TIP3      4384            0.0000000000
     62985      4785  TIP3      OH2            25.1987723388        5.1033967300       35.9324372669  TIP3      4385            0.0000000000
     62986      4785  TIP3      H1             25.3277665759        4.3744013295       35.3045384566  TIP3      4385            0.0000000000
     62987      4785  TIP3      H2             25.1757849158        5.8998139067       35.3669292163  TIP3      4385            0.0000000000
     62988      4786  TIP3      OH2            25.6054698672        3.4736318832       33.4545493709  TIP3      4386            0.0000000000
     62989      4786  TIP3      H1             26.1297259727        3.9355326338       32.7611250128  TIP3      4386            0.0000000000
     62990      4786  TIP3      H2             24.7244652548        3.3797074739       33.0234513454  TIP3      4386            0.0000000000
     62991      4787  TIP3      OH2            27.1630470969        8.9282505844       33.6951843268  TIP3      4387            0.0000000000
     62992      4787  TIP3      H1             27.9110470082        8.7732261513       33.1118037170  TIP3      4387            0.0000000000
     62993      4787  TIP3      H2             26.8179007005        9.7817300697       33.3877515846  TIP3      4387            0.0000000000
     62994      4788  TIP3      OH2            31.5700986597        6.7241486139       38.6901891331  TIP3      4388            0.0000000000
     62995      4788  TIP3      H1             31.7820000560        5.7846159025       38.5899383046  TIP3      4388            0.0000000000
     62996      4788  TIP3      H2             32.4425967094        7.1482646739       38.6849184159  TIP3      4388            0.0000000000
     62997      4789  TIP3      OH2            32.8917205188        9.5044528073       36.8058233975  TIP3      4389            0.0000000000
     62998      4789  TIP3      H1             32.6349682941       10.2411145970       36.2082966086  TIP3      4389            0.0000000000
     62999      4789  TIP3      H2             33.8563758695        9.4659010288       36.6283091907  TIP3      4389            0.0000000000
     63000      4790  TIP3      OH2            23.6694022181        6.3291350563       37.8611968012  TIP3      4390            0.0000000000
     63001      4790  TIP3      H1             22.8934625333        5.7684341755       37.6412815044  TIP3      4390            0.0000000000
     63002      4790  TIP3      H2             24.3298649105        5.9862232846       37.2283954793  TIP3      4390            0.0000000000
     63003      4791  TIP3      OH2            26.4043393774        0.9141787674       33.8754684848  TIP3      4391            0.0000000000
     63004      4791  TIP3      H1             26.2680631733        1.8835284005       33.7583748634  TIP3      4391            0.0000000000
     63005      4791  TIP3      H2             25.6481694162        0.5591806884       33.3729036734  TIP3      4391            0.0000000000
     63006      4792  TIP3      OH2            27.6740384755        5.2428382440       37.4490885443  TIP3      4392            0.0000000000
     63007      4792  TIP3      H1             27.3951851179        5.0260198952       38.3567737346  TIP3      4392            0.0000000000
     63008      4792  TIP3      H2             26.8757976721        5.0471029772       36.9204434193  TIP3      4392            0.0000000000
     63009      4793  TIP3      OH2            30.3892185549        4.3777904665       36.5135655816  TIP3      4393            0.0000000000
     63010      4793  TIP3      H1             29.4258687056        4.4215610680       36.6545087653  TIP3      4393            0.0000000000
     63011      4793  TIP3      H2             30.6777884237        3.7497569137       37.1959027611  TIP3      4393            0.0000000000
     63012      4794  TIP3      OH2            31.9910964277        3.0155310762       38.4880586260  TIP3      4394            0.0000000000
     63013      4794  TIP3      H1             31.9197102442        2.0446987180       38.5033638346  TIP3      4394            0.0000000000
     63014      4794  TIP3      H2             31.6961654005        3.2950331075       39.3848163862  TIP3      4394            0.0000000000
     63015      4795  TIP3      OH2            21.8036444368        4.2565628031       37.5637674643  TIP3      4395            0.0000000000
     63016      4795  TIP3      H1             22.0339751601        3.5236738042       36.9602887684  TIP3      4395            0.0000000000
     63017      4795  TIP3      H2             21.7083155331        3.8022325944       38.4251000670  TIP3      4395            0.0000000000
     63018      4796  TIP3      OH2            26.6123748592        0.2604261307       36.5542772821  TIP3      4396            0.0000000000
     63019      4796  TIP3      H1             27.3203111282       -0.4194433786       36.5267136197  TIP3      4396            0.0000000000
     63020      4796  TIP3      H2             26.5171796812        0.4750534723       35.6071390155  TIP3      4396            0.0000000000
     63021      4797  TIP3      OH2            26.9756648135        1.9084690023       38.6228157903  TIP3      4397            0.0000000000
     63022      4797  TIP3      H1             26.8276871209        1.4158378893       37.7787896668  TIP3      4397            0.0000000000
     63023      4797  TIP3      H2             26.3757856578        2.6709509936       38.5351374265  TIP3      4397            0.0000000000
     63024      4798  TIP3      OH2            18.7891829646       18.8229688534       26.2971549283  TIP3      4398            0.0000000000
     63025      4798  TIP3      H1             18.0773736982       18.3471942362       25.7881122656  TIP3      4398            0.0000000000
     63026      4798  TIP3      H2             19.0612186829       18.1283041486       26.9007470719  TIP3      4398            0.0000000000
     63027      4799  TIP3      OH2            19.6032891863       16.8714974401       28.1118846426  TIP3      4399            0.0000000000
     63028      4799  TIP3      H1             19.2461277055       15.9854913365       28.2961966171  TIP3      4399            0.0000000000
     63029      4799  TIP3      H2             19.7676527002       17.1273700270       29.0233594809  TIP3      4399            0.0000000000
     63030      4800  TIP3      OH2            37.1435630922       17.7109383177       31.0944575792  TIP3      4400            0.0000000000
     63031      4800  TIP3      H1             37.1517905326       17.8949551912       32.0495422937  TIP3      4400            0.0000000000
     63032      4800  TIP3      H2             37.8473131111       18.2894377610       30.7773171440  TIP3      4400            0.0000000000
     63033      4801  TIP3      OH2            36.7195724966       17.3065872008       34.0301246853  TIP3      4401            0.0000000000
     63034      4801  TIP3      H1             36.2363757202       16.5375148676       33.6589913475  TIP3      4401            0.0000000000
     63035      4801  TIP3      H2             37.2459213495       16.8731869695       34.7221740000  TIP3      4401            0.0000000000
     63036      4802  TIP3      OH2            35.1704360490       13.0397838261       38.6725239226  TIP3      4402            0.0000000000
     63037      4802  TIP3      H1             34.2863849616       12.9877237533       39.0758618372  TIP3      4402            0.0000000000
     63038      4802  TIP3      H2             35.5423423515       13.8356795764       39.1230008458  TIP3      4402            0.0000000000
     63039      4803  TIP3      OH2            36.4695609353       11.3424008510       24.1411597617  TIP3      4403            0.0000000000
     63040      4803  TIP3      H1             37.3407801948       11.7474435074       24.3222893473  TIP3      4403            0.0000000000
     63041      4803  TIP3      H2             36.4806966725       10.6057316506       24.8063800004  TIP3      4403            0.0000000000
     63042      4804  TIP3      OH2            36.8557744390        9.4158240697       25.9914358883  TIP3      4404            0.0000000000
     63043      4804  TIP3      H1             36.1193657115        8.9102091797       26.3979016270  TIP3      4404            0.0000000000
     63044      4804  TIP3      H2             37.4438721443        9.5831504250       26.7584785469  TIP3      4404            0.0000000000
     63045      4805  TIP3      OH2            36.5963652269       12.1388634014       30.9829176536  TIP3      4405            0.0000000000
     63046      4805  TIP3      H1             37.4453182832       11.7832503295       30.6502330574  TIP3      4405            0.0000000000
     63047      4805  TIP3      H2             36.7371937484       13.1011454413       30.8317900606  TIP3      4405            0.0000000000
     63048      4806  TIP3      OH2            35.1390109245       15.0407144154       33.2762760679  TIP3      4406            0.0000000000
     63049      4806  TIP3      H1             34.4551908005       15.3745064824       33.8786321203  TIP3      4406            0.0000000000
     63050      4806  TIP3      H2             34.5925848833       14.6204091457       32.5778430937  TIP3      4406            0.0000000000
     63051      4807  TIP3      OH2            37.1335989234        9.2705780881       22.3948934834  TIP3      4407            0.0000000000
     63052      4807  TIP3      H1             36.5971503057        9.6342045039       21.6948497293  TIP3      4407            0.0000000000
     63053      4807  TIP3      H2             37.0935507506        9.9672469557       23.0773013823  TIP3      4407            0.0000000000
     63054      4808  TIP3      OH2            35.3842637138        6.5309880647       20.9694038945  TIP3      4408            0.0000000000
     63055      4808  TIP3      H1             35.5648080253        7.1725494387       20.2759392080  TIP3      4408            0.0000000000
     63056      4808  TIP3      H2             35.3333292162        5.6993159939       20.4610601494  TIP3      4408            0.0000000000
     63057      4809  TIP3      OH2            34.6594835298        7.9097812373       26.5808211170  TIP3      4409            0.0000000000
     63058      4809  TIP3      H1             34.5022872819        6.9525317002       26.5410974185  TIP3      4409            0.0000000000
     63059      4809  TIP3      H2             34.3021191324        8.1636390295       27.4388911007  TIP3      4409            0.0000000000
     63060      4810  TIP3      OH2            19.6606703737        9.9988396852       30.6165592230  TIP3      4410            0.0000000000
     63061      4810  TIP3      H1             19.8637994534        9.9064115599       29.6580294452  TIP3      4410            0.0000000000
     63062      4810  TIP3      H2             20.5471875772        9.8434044957       30.9998864467  TIP3      4410            0.0000000000
     63063      4811  TIP3      OH2            35.4968135250        9.8725502039       36.2257724244  TIP3      4411            0.0000000000
     63064      4811  TIP3      H1             36.1103041733        9.1279207988       36.4036687900  TIP3      4411            0.0000000000
     63065      4811  TIP3      H2             36.0900509349       10.6518260929       36.2603137069  TIP3      4411            0.0000000000
     63066      4812  TIP3      OH2            37.0110402430        7.7801118087       36.9170963931  TIP3      4412            0.0000000000
     63067      4812  TIP3      H1             36.1354791410        7.3767657114       36.7384646377  TIP3      4412            0.0000000000
     63068      4812  TIP3      H2             37.6012757535        7.0145569752       36.8289456436  TIP3      4412            0.0000000000
     63069      4813  TIP3      OH2            34.3378546902        5.4977913848       25.0339408458  TIP3      4413            0.0000000000
     63070      4813  TIP3      H1             34.6422711366        4.5697458393       25.1604698223  TIP3      4413            0.0000000000
     63071      4813  TIP3      H2             35.1268353513        5.9091575438       24.6498922204  TIP3      4413            0.0000000000
     63072      4814  TIP3      OH2            34.9413080182        6.0859816318       30.4766076053  TIP3      4414            0.0000000000
     63073      4814  TIP3      H1             35.9195315081        6.2658359251       30.4478161291  TIP3      4414            0.0000000000
     63074      4814  TIP3      H2             34.7761570250        6.1485908654       31.4249511381  TIP3      4414            0.0000000000
     63075      4815  TIP3      OH2            34.9949536604        6.7832972722       33.2113188917  TIP3      4415            0.0000000000
     63076      4815  TIP3      H1             34.1584624571        7.0608974480       33.6354330203  TIP3      4415            0.0000000000
     63077      4815  TIP3      H2             35.4762889486        7.6313897333       33.0543764488  TIP3      4415            0.0000000000
     63078      4816  TIP3      OH2            19.2742008076        5.2802284292       36.7485223431  TIP3      4416            0.0000000000
     63079      4816  TIP3      H1             20.2132048601        5.1116529342       36.9694913574  TIP3      4416            0.0000000000
     63080      4816  TIP3      H2             18.8298265825        4.4814764585       37.1039697991  TIP3      4416            0.0000000000
     63081      4817  TIP3      OH2            37.2906974197        0.7925973804       38.6022956995  TIP3      4417            0.0000000000
     63082      4817  TIP3      H1             37.6437872416        0.1334258645       37.9881841228  TIP3      4417            0.0000000000
     63083      4817  TIP3      H2             37.4260616566        1.6286485097       38.1249006881  TIP3      4417            0.0000000000
     63084      4818  TIP3      OH2            34.9773774490        2.7680803379       25.0876422584  TIP3      4418            0.0000000000
     63085      4818  TIP3      H1             35.1783196720        2.3054162622       25.9244155105  TIP3      4418            0.0000000000
     63086      4818  TIP3      H2             34.3791865292        2.1465072588       24.6144775075  TIP3      4418            0.0000000000
     63087      4819  TIP3      OH2            20.4860856418        3.5758380981       29.6221338812  TIP3      4419            0.0000000000
     63088      4819  TIP3      H1             20.9505542866        2.7654981743       29.9149355632  TIP3      4419            0.0000000000
     63089      4819  TIP3      H2             20.9923831694        4.2829225446       30.0444017292  TIP3      4419            0.0000000000
     63090      4820  TIP3      OH2            18.7770144758        6.5647093349       30.6893073911  TIP3      4420            0.0000000000
     63091      4820  TIP3      H1             19.3190367077        6.3456617599       29.9020026925  TIP3      4420            0.0000000000
     63092      4820  TIP3      H2             19.1962451693        7.3976082071       30.9557717760  TIP3      4420            0.0000000000
     63093      4821  TIP3      OH2            36.8225712093        2.9069304639       36.9658895442  TIP3      4421            0.0000000000
     63094      4821  TIP3      H1             35.8793331278        3.1698353729       36.9120091813  TIP3      4421            0.0000000000
     63095      4821  TIP3      H2             36.8953087114        2.3645130832       36.1633163347  TIP3      4421            0.0000000000
     63096      4822  TIP3      OH2            19.1272627216        2.8549294391       24.7613293808  TIP3      4422            0.0000000000
     63097      4822  TIP3      H1             18.1905603363        3.0244944747       24.5984352731  TIP3      4422            0.0000000000
     63098      4822  TIP3      H2             19.5722284796        3.3009565915       24.0283214153  TIP3      4422            0.0000000000
     63099      4823  TIP3      OH2            33.8690897046       17.8033526408       26.6929260194  TIP3      4423            0.0000000000
     63100      4823  TIP3      H1             34.5487109578       17.4735346731       26.0786222701  TIP3      4423            0.0000000000
     63101      4823  TIP3      H2             34.4009533553       18.2950582330       27.3360511847  TIP3      4423            0.0000000000
     63102      4824  TIP3      OH2            19.0922776667        1.5342836789       33.0706633392  TIP3      4424            0.0000000000
     63103      4824  TIP3      H1             18.4115798592        1.3146443045       33.7304229350  TIP3      4424            0.0000000000
     63104      4824  TIP3      H2             18.6289939596        2.1881990240       32.5032155501  TIP3      4424            0.0000000000
     63105      4825  TIP3      OH2            21.2987537372       14.7219017225       37.2260559579  TIP3      4425            0.0000000000
     63106      4825  TIP3      H1             20.4578512371       14.9160871501       36.7795880316  TIP3      4425            0.0000000000
     63107      4825  TIP3      H2             21.0286846123       14.6570391508       38.1503747210  TIP3      4425            0.0000000000
     63108      4826  TIP3      OH2            24.2192104151       15.6947546543       33.4947043128  TIP3      4426            0.0000000000
     63109      4826  TIP3      H1             23.8424200436       16.5378027923       33.2119967793  TIP3      4426            0.0000000000
     63110      4826  TIP3      H2             25.1422646434       15.8014599775       33.1810475151  TIP3      4426            0.0000000000
     63111      4827  TIP3      OH2            28.5333456685       17.1202038565       36.4189958771  TIP3      4427            0.0000000000
     63112      4827  TIP3      H1             28.7125054055       16.7748629574       37.3306567453  TIP3      4427            0.0000000000
     63113      4827  TIP3      H2             29.4176422785       17.4233392350       36.1400862802  TIP3      4427            0.0000000000
     63114      4828  TIP3      OH2            30.8495257011       18.3942066264       35.6883085946  TIP3      4428            0.0000000000
     63115      4828  TIP3      H1             31.5668639449       17.7797996295       35.4590585391  TIP3      4428            0.0000000000
     63116      4828  TIP3      H2             31.2146304017       18.8074929158       36.5019152145  TIP3      4428            0.0000000000
     63117      4829  TIP3      OH2            35.8266921023        1.0037160802       34.7950853749  TIP3      4429            0.0000000000
     63118      4829  TIP3      H1             34.9966008398        1.3051713143       34.3819078449  TIP3      4429            0.0000000000
     63119      4829  TIP3      H2             36.0235625568        0.2074970583       34.2503998229  TIP3      4429            0.0000000000
     63120      4830  TIP3      OH2            21.6368643577       18.9503968283       33.5055544880  TIP3      4430            0.0000000000
     63121      4830  TIP3      H1             20.9046666241       19.4337037500       33.0938906221  TIP3      4430            0.0000000000
     63122      4830  TIP3      H2             21.2941800821       18.7303882944       34.3886911225  TIP3      4430            0.0000000000
     63123      4831  TIP3      OH2            24.1125523222       18.5262902245       32.5623410013  TIP3      4431            0.0000000000
     63124      4831  TIP3      H1             23.2263594115       18.6518791413       32.9741464274  TIP3      4431            0.0000000000
     63125      4831  TIP3      H2             24.0530566177       19.1198959786       31.7876439851  TIP3      4431            0.0000000000
     63126      4832  TIP3      OH2            28.8141471976       18.4396887324       31.7346703481  TIP3      4432            0.0000000000
     63127      4832  TIP3      H1             28.3506745154       18.9873940089       31.0823687323  TIP3      4432            0.0000000000
     63128      4832  TIP3      H2             28.9649797880       19.0694507888       32.4701524185  TIP3      4432            0.0000000000
     63129      4833  TIP3      OH2            31.1335659563       17.2898307091       32.7113470961  TIP3      4433            0.0000000000
     63130      4833  TIP3      H1             30.2397982411       17.5122776547       32.4059983516  TIP3      4433            0.0000000000
     63131      4833  TIP3      H2             31.5714262746       18.1553608993       32.6306339739  TIP3      4433            0.0000000000
     63132      4834  TIP3      OH2            33.7208219106       18.8580337004       32.9935040874  TIP3      4434            0.0000000000
     63133      4834  TIP3      H1             33.5861884916       19.8104255204       32.7588626771  TIP3      4434            0.0000000000
     63134      4834  TIP3      H2             33.9129277592       18.4795308571       32.1156593660  TIP3      4434            0.0000000000
     63135      4835  TIP3      OH2            21.1052607998       17.5409216166       30.5241220334  TIP3      4435            0.0000000000
     63136      4835  TIP3      H1             21.0546829339       17.0801290780       31.3981731392  TIP3      4435            0.0000000000
     63137      4835  TIP3      H2             21.9224181166       17.2043477313       30.0859738602  TIP3      4435            0.0000000000
     63138      4836  TIP3      OH2            23.1540606465       16.3223687732       29.0954669767  TIP3      4436            0.0000000000
     63139      4836  TIP3      H1             22.9940251708       15.3731370310       29.2861242395  TIP3      4436            0.0000000000
     63140      4836  TIP3      H2             24.0259708006       16.4375279422       29.5534751505  TIP3      4436            0.0000000000
     63141      4837  TIP3      OH2            25.7334550848       16.7880745696       29.9484971992  TIP3      4437            0.0000000000
     63142      4837  TIP3      H1             25.9408107019       15.8753649944       29.6768263900  TIP3      4437            0.0000000000
     63143      4837  TIP3      H2             25.8051176357       16.7270484964       30.9112383962  TIP3      4437            0.0000000000
     63144      4838  TIP3      OH2            29.2356319912        2.4396124828       29.1004005928  TIP3      4438            0.0000000000
     63145      4838  TIP3      H1             28.5579898743        1.7943290260       29.3572678577  TIP3      4438            0.0000000000
     63146      4838  TIP3      H2             29.7929740329        1.9292609711       28.4981439317  TIP3      4438            0.0000000000
     63147      4839  TIP3      OH2            34.3701850863        0.5134566491       29.1989350658  TIP3      4439            0.0000000000
     63148      4839  TIP3      H1             34.9889696757        1.0897485550       28.6815896345  TIP3      4439            0.0000000000
     63149      4839  TIP3      H2             33.4936388530        0.8577020406       28.9490074265  TIP3      4439            0.0000000000
     63150      4840  TIP3      OH2            36.0607831757        1.7040677526       27.5007069557  TIP3      4440            0.0000000000
     63151      4840  TIP3      H1             36.7296057155        1.1596362011       27.0186461670  TIP3      4440            0.0000000000
     63152      4840  TIP3      H2             36.5162438992        2.5701038112       27.5637741329  TIP3      4440            0.0000000000
     63153      4841  TIP3      OH2            21.5785123599        1.0734204513       26.9415498153  TIP3      4441            0.0000000000
     63154      4841  TIP3      H1             20.7935315057        0.8427639835       26.4057944957  TIP3      4441            0.0000000000
     63155      4841  TIP3      H2             22.0830310049        0.2408623977       26.9006421773  TIP3      4441            0.0000000000
     63156      4842  TIP3      OH2            26.1094623272        0.9855855035       26.7290363967  TIP3      4442            0.0000000000
     63157      4842  TIP3      H1             27.0050855020        1.3719076968       26.6864265392  TIP3      4442            0.0000000000
     63158      4842  TIP3      H2             26.0228294941        0.7798053738       27.6597910990  TIP3      4442            0.0000000000
     63159      4843  TIP3      OH2            31.7353902596        1.0239549057       28.3738148840  TIP3      4443            0.0000000000
     63160      4843  TIP3      H1             31.7623216836        1.1125612384       27.4157842109  TIP3      4443            0.0000000000
     63161      4843  TIP3      H2             31.4101073436        0.1015150729       28.4975266331  TIP3      4443            0.0000000000
     63162      4844  TIP3      OH2            33.0593951489        1.0556286578       24.0508508285  TIP3      4444            0.0000000000
     63163      4844  TIP3      H1             32.3243552867        1.6466998183       23.8569856202  TIP3      4444            0.0000000000
     63164      4844  TIP3      H2             32.6042888021        0.1915837303       24.2130368780  TIP3      4444            0.0000000000
     63165      4845  TIP3      OH2            20.3010903162       16.8013331728       23.6512889276  TIP3      4445            0.0000000000
     63166      4845  TIP3      H1             19.6195554591       16.7792324483       22.9564944178  TIP3      4445            0.0000000000
     63167      4845  TIP3      H2             20.3000961751       17.7380233020       23.8719000474  TIP3      4445            0.0000000000
     63168      4846  TIP3      OH2            27.2316748110        3.0339621355       23.6095615052  TIP3      4446            0.0000000000
     63169      4846  TIP3      H1             27.4759628432        2.4307871284       24.3135928355  TIP3      4446            0.0000000000
     63170      4846  TIP3      H2             27.2651023015        3.9047791253       24.0631095779  TIP3      4446            0.0000000000
     63171      4847  TIP3      OH2            35.8728752918       17.5933104424       24.7171382507  TIP3      4447            0.0000000000
     63172      4847  TIP3      H1             35.6659809182       16.8302779476       24.1370903076  TIP3      4447            0.0000000000
     63173      4847  TIP3      H2             35.8160357378       18.3451508966       24.0873677231  TIP3      4447            0.0000000000
     63174      4848  TIP3      OH2            21.4956372827        1.5997139139       36.4086833061  TIP3      4448            0.0000000000
     63175      4848  TIP3      H1             21.1392155531        0.8083533415       36.8564453142  TIP3      4448            0.0000000000
     63176      4848  TIP3      H2             22.4252926612        1.5890558213       36.7454714058  TIP3      4448            0.0000000000
     63177      4849  TIP3      OH2            23.4970519275        0.9743627709       38.0009058932  TIP3      4449            0.0000000000
     63178      4849  TIP3      H1             24.3932196001        0.6427107280       37.7877096476  TIP3      4449            0.0000000000
     63179      4849  TIP3      H2             23.1144508627        0.1843321902       38.4377196783  TIP3      4449            0.0000000000
     63180      4850  TIP3      OH2            22.0984228320       17.6832803991       20.6277851757  TIP3      4450            0.0000000000
     63181      4850  TIP3      H1             21.8354682503       18.0256212918       21.5060816268  TIP3      4450            0.0000000000
     63182      4850  TIP3      H2             22.9006671620       17.2249335941       20.8311524754  TIP3      4450            0.0000000000
     63183      4851  TIP3      OH2            31.9005594698        0.2785373941       38.1643906432  TIP3      4451            0.0000000000
     63184      4851  TIP3      H1             31.9991574850       -0.1820193787       39.0196106207  TIP3      4451            0.0000000000
     63185      4851  TIP3      H2             32.8167930964        0.2654807164       37.8193386752  TIP3      4451            0.0000000000
     63186      4852  TIP3      OH2            35.1037354854       16.3196211761       36.8519920493  TIP3      4452            0.0000000000
     63187      4852  TIP3      H1             34.3004290552       16.1681133435       36.3080524505  TIP3      4452            0.0000000000
     63188      4852  TIP3      H2             35.0038635151       17.2753196985       37.0485569904  TIP3      4452            0.0000000000
     63189      4853  TIP3      OH2            49.5177367867       10.2034532799       26.8502111381  TIP3      4453            0.0000000000
     63190      4853  TIP3      H1             49.5650235188       11.1791981175       26.7506207868  TIP3      4453            0.0000000000
     63191      4853  TIP3      H2             48.8414804857        9.9635569388       26.1958976120  TIP3      4453            0.0000000000
     63192      4854  TIP3      OH2            48.4142375242        9.4781941558       30.3065561951  TIP3      4454            0.0000000000
     63193      4854  TIP3      H1             48.3881385056        8.8199229814       31.0075657019  TIP3      4454            0.0000000000
     63194      4854  TIP3      H2             48.0905141333        8.9893262130       29.5311857051  TIP3      4454            0.0000000000
     63195      4855  TIP3      OH2            40.7735448456        9.1131949410       31.8656166458  TIP3      4455            0.0000000000
     63196      4855  TIP3      H1             40.8451783220        8.4565913586       32.5917761995  TIP3      4455            0.0000000000
     63197      4855  TIP3      H2             41.5051292850        9.7109469370       32.0752115039  TIP3      4455            0.0000000000
     63198      4856  TIP3      OH2            52.1091256093       12.4166460227       28.5731071533  TIP3      4456            0.0000000000
     63199      4856  TIP3      H1             51.7020753384       11.6984571570       29.0658963336  TIP3      4456            0.0000000000
     63200      4856  TIP3      H2             52.1223455059       13.1293597708       29.2465969360  TIP3      4456            0.0000000000
     63201      4857  TIP3      OH2            41.7005705674       13.5661491971       30.4032551296  TIP3      4457            0.0000000000
     63202      4857  TIP3      H1             41.3618927721       12.7247766353       30.0446557022  TIP3      4457            0.0000000000
     63203      4857  TIP3      H2             42.6558964863       13.3762581929       30.4438541871  TIP3      4457            0.0000000000
     63204      4858  TIP3      OH2            38.3413032680        7.1734617057       25.8300946241  TIP3      4458            0.0000000000
     63205      4858  TIP3      H1             37.8783510343        8.0370611913       25.7924039850  TIP3      4458            0.0000000000
     63206      4858  TIP3      H2             37.7636887480        6.6228393910       25.2889188978  TIP3      4458            0.0000000000
     63207      4859  TIP3      OH2            39.0322516213        9.3715870943       27.9547529407  TIP3      4459            0.0000000000
     63208      4859  TIP3      H1             39.2782285939        8.5727440248       28.4547436996  TIP3      4459            0.0000000000
     63209      4859  TIP3      H2             39.7674872545        9.4589062786       27.3302259266  TIP3      4459            0.0000000000
     63210      4860  TIP3      OH2            49.2236028604       17.5510108854       28.8155740674  TIP3      4460            0.0000000000
     63211      4860  TIP3      H1             49.8667641853       16.8471912639       28.5404285870  TIP3      4460            0.0000000000
     63212      4860  TIP3      H2             49.0258911341       17.2765176174       29.7127975388  TIP3      4460            0.0000000000
     63213      4861  TIP3      OH2            46.7916804635       11.8946077385       30.7277907003  TIP3      4461            0.0000000000
     63214      4861  TIP3      H1             47.1272092823       11.2270973492       30.1076301921  TIP3      4461            0.0000000000
     63215      4861  TIP3      H2             47.5642565362       12.0235126737       31.3048017251  TIP3      4461            0.0000000000
     63216      4862  TIP3      OH2            55.4377910438        3.5069507052       31.5364018500  TIP3      4462            0.0000000000
     63217      4862  TIP3      H1             55.5469756619        4.1260292021       32.2925699608  TIP3      4462            0.0000000000
     63218      4862  TIP3      H2             55.9252458016        3.9641096923       30.8381733517  TIP3      4462            0.0000000000
     63219      4863  TIP3      OH2            49.9525043153        6.3273505205       31.0628122045  TIP3      4463            0.0000000000
     63220      4863  TIP3      H1             50.1030928811        5.3616651151       31.0552510306  TIP3      4463            0.0000000000
     63221      4863  TIP3      H2             49.8491993156        6.4902882459       30.1023709942  TIP3      4463            0.0000000000
     63222      4864  TIP3      OH2            43.0942618034        4.4109490911       28.3120572301  TIP3      4464            0.0000000000
     63223      4864  TIP3      H1             43.1595781575        5.2644534431       27.8529027852  TIP3      4464            0.0000000000
     63224      4864  TIP3      H2             42.6560777114        3.8480559314       27.6394635336  TIP3      4464            0.0000000000
     63225      4865  TIP3      OH2            50.8195880845        4.5271849715       26.6907203811  TIP3      4465            0.0000000000
     63226      4865  TIP3      H1             51.4887188315        4.1926522785       27.3310880790  TIP3      4465            0.0000000000
     63227      4865  TIP3      H2             51.3681872186        5.0547525502       26.0885512971  TIP3      4465            0.0000000000
     63228      4866  TIP3      OH2            39.7051475588        6.8203411591       29.0543999550  TIP3      4466            0.0000000000
     63229      4866  TIP3      H1             40.3806706084        6.2589320611       29.4904295463  TIP3      4466            0.0000000000
     63230      4866  TIP3      H2             39.7759670075        6.5208671238       28.1349235013  TIP3      4466            0.0000000000
     63231      4867  TIP3      OH2            44.8723513973        8.3762627680       28.3165081356  TIP3      4467            0.0000000000
     63232      4867  TIP3      H1             45.5120532618        7.8077573688       28.7737666585  TIP3      4467            0.0000000000
     63233      4867  TIP3      H2             44.3139077122        7.7101855074       27.8637233027  TIP3      4467            0.0000000000
     63234      4868  TIP3      OH2            55.8837005738        4.9701736458       33.7828542497  TIP3      4468            0.0000000000
     63235      4868  TIP3      H1             55.1995982277        5.6670439291       33.6844013137  TIP3      4468            0.0000000000
     63236      4868  TIP3      H2             55.8748626366        4.8096003559       34.7399999418  TIP3      4468            0.0000000000
     63237      4869  TIP3      OH2            41.9509127984        3.3137822923       32.3602603329  TIP3      4469            0.0000000000
     63238      4869  TIP3      H1             41.6929015098        3.8716603945       31.6012040758  TIP3      4469            0.0000000000
     63239      4869  TIP3      H2             41.2606697482        3.5536667903       33.0276637917  TIP3      4469            0.0000000000
     63240      4870  TIP3      OH2            49.2911466634       12.8120235663       25.9146077669  TIP3      4470            0.0000000000
     63241      4870  TIP3      H1             48.9837670817       12.5110860449       25.0480404493  TIP3      4470            0.0000000000
     63242      4870  TIP3      H2             48.9569206266       13.7339052057       25.9448214847  TIP3      4470            0.0000000000
     63243      4871  TIP3      OH2            44.4941302434       10.9706070933       32.6306830491  TIP3      4471            0.0000000000
     63244      4871  TIP3      H1             43.7618042864       11.6072733361       32.7831309870  TIP3      4471            0.0000000000
     63245      4871  TIP3      H2             45.1993672922       11.5610892596       32.3253158925  TIP3      4471            0.0000000000
     63246      4872  TIP3      OH2            52.6096607219        3.8328222457       28.6706155150  TIP3      4472            0.0000000000
     63247      4872  TIP3      H1             52.3914301058        3.0681919206       29.2134645516  TIP3      4472            0.0000000000
     63248      4872  TIP3      H2             53.2729767047        4.2884155611       29.2074025711  TIP3      4472            0.0000000000
     63249      4873  TIP3      OH2            41.5090964858        5.1951267800       30.3465792548  TIP3      4473            0.0000000000
     63250      4873  TIP3      H1             42.1537004605        5.8561545075       30.6925141266  TIP3      4473            0.0000000000
     63251      4873  TIP3      H2             42.0470789696        4.7468928718       29.6506823133  TIP3      4473            0.0000000000
     63252      4874  TIP3      OH2            42.9193368848       12.9484426248       33.4216751624  TIP3      4474            0.0000000000
     63253      4874  TIP3      H1             42.8874172351       13.8591563786       33.0676685692  TIP3      4474            0.0000000000
     63254      4874  TIP3      H2             42.0370153601       12.8835732651       33.8671184396  TIP3      4474            0.0000000000
     63255      4875  TIP3      OH2            38.9833903972       12.6087633381       24.2182417387  TIP3      4475            0.0000000000
     63256      4875  TIP3      H1             38.7795008040       12.8777180736       23.3203540437  TIP3      4475            0.0000000000
     63257      4875  TIP3      H2             39.0792659020       13.4549019318       24.6972084222  TIP3      4475            0.0000000000
     63258      4876  TIP3      OH2            52.6184046398       14.2313245186       30.9094733632  TIP3      4476            0.0000000000
     63259      4876  TIP3      H1             51.6716501153       14.3384233660       31.1049766249  TIP3      4476            0.0000000000
     63260      4876  TIP3      H2             52.9192384021       15.1606406696       30.8075305561  TIP3      4476            0.0000000000
     63261      4877  TIP3      OH2            52.9557412941        2.5387863663       32.3578298447  TIP3      4477            0.0000000000
     63262      4877  TIP3      H1             52.2146983353        3.1581202915       32.2956647622  TIP3      4477            0.0000000000
     63263      4877  TIP3      H2             53.6462031328        2.9624366892       31.8223956534  TIP3      4477            0.0000000000
     63264      4878  TIP3      OH2            45.9417638561        0.6421413676       29.8130674733  TIP3      4478            0.0000000000
     63265      4878  TIP3      H1             45.8131494235       -0.3244254500       29.7575609353  TIP3      4478            0.0000000000
     63266      4878  TIP3      H2             45.0656459862        0.9580379418       30.1066801955  TIP3      4478            0.0000000000
     63267      4879  TIP3      OH2            50.8991659855       16.0339360697       27.5765793396  TIP3      4479            0.0000000000
     63268      4879  TIP3      H1             51.3289865589       15.3198832516       27.0660710444  TIP3      4479            0.0000000000
     63269      4879  TIP3      H2             51.2582250598       16.8345628522       27.1438344297  TIP3      4479            0.0000000000
     63270      4880  TIP3      OH2            52.0659805364       13.9571786336       26.0782723076  TIP3      4480            0.0000000000
     63271      4880  TIP3      H1             51.8008644426       13.2510613045       25.4628671232  TIP3      4480            0.0000000000
     63272      4880  TIP3      H2             52.1255273841       13.4752521272       26.9251569625  TIP3      4480            0.0000000000
     63273      4881  TIP3      OH2            53.4970263093       12.3939915803       34.7337049553  TIP3      4481            0.0000000000
     63274      4881  TIP3      H1             53.8427485496       11.9235827618       33.9220947873  TIP3      4481            0.0000000000
     63275      4881  TIP3      H2             53.8080427161       13.2534795109       34.3450765732  TIP3      4481            0.0000000000
     63276      4882  TIP3      OH2            48.2175724560        9.4502563102       24.3313071942  TIP3      4482            0.0000000000
     63277      4882  TIP3      H1             47.5074687100       10.0172121978       23.9567993896  TIP3      4482            0.0000000000
     63278      4882  TIP3      H2             48.9069150412        9.5267625606       23.6455582945  TIP3      4482            0.0000000000
     63279      4883  TIP3      OH2            48.2857306735        7.9472503768       21.3656890469  TIP3      4483            0.0000000000
     63280      4883  TIP3      H1             48.9867474007        7.9358356164       22.0173584384  TIP3      4483            0.0000000000
     63281      4883  TIP3      H2             48.5553929930        7.2877988819       20.7002917303  TIP3      4483            0.0000000000
     63282      4884  TIP3      OH2            55.5527586084        8.8090208469       32.5958616781  TIP3      4484            0.0000000000
     63283      4884  TIP3      H1             54.9346748007        9.5641788143       32.6914029226  TIP3      4484            0.0000000000
     63284      4884  TIP3      H2             56.0521184093        9.0919247840       31.8032744954  TIP3      4484            0.0000000000
     63285      4885  TIP3      OH2            51.6379787432        9.6685579173       25.2529945145  TIP3      4485            0.0000000000
     63286      4885  TIP3      H1             50.8863003789        9.9046680421       25.8513608382  TIP3      4485            0.0000000000
     63287      4885  TIP3      H2             52.0959136328        8.9722318425       25.7570034825  TIP3      4485            0.0000000000
     63288      4886  TIP3      OH2            51.5568662805        7.8268251719       34.3529108352  TIP3      4486            0.0000000000
     63289      4886  TIP3      H1             51.5818592813        8.6277933310       34.9043748561  TIP3      4486            0.0000000000
     63290      4886  TIP3      H2             50.9241059407        8.1269061258       33.6627339226  TIP3      4486            0.0000000000
     63291      4887  TIP3      OH2            43.2702357835       10.3255183123       27.1620718825  TIP3      4487            0.0000000000
     63292      4887  TIP3      H1             42.9393572403        9.9341851635       26.3184393114  TIP3      4487            0.0000000000
     63293      4887  TIP3      H2             43.8707367462        9.6225630267       27.5014836772  TIP3      4487            0.0000000000
     63294      4888  TIP3      OH2            44.6055604953       13.7310277016       29.8436474832  TIP3      4488            0.0000000000
     63295      4888  TIP3      H1             44.5567113611       13.1595157180       29.0661647112  TIP3      4488            0.0000000000
     63296      4888  TIP3      H2             45.3701495504       13.3519905749       30.3155574422  TIP3      4488            0.0000000000
     63297      4889  TIP3      OH2            43.6136444350        9.0632481707       30.8027705311  TIP3      4489            0.0000000000
     63298      4889  TIP3      H1             44.1874572661        9.1883305222       30.0233825171  TIP3      4489            0.0000000000
     63299      4889  TIP3      H2             43.9657806689        9.7220563298       31.4336666555  TIP3      4489            0.0000000000
     63300      4890  TIP3      OH2            49.9585719588       14.6112150583       31.5091862967  TIP3      4490            0.0000000000
     63301      4890  TIP3      H1             49.7160165445       15.2483123149       32.1828108674  TIP3      4490            0.0000000000
     63302      4890  TIP3      H2             49.7523014045       13.7525167120       31.9570970599  TIP3      4490            0.0000000000
     63303      4891  TIP3      OH2            44.5468477066       13.4857732866       35.4994495639  TIP3      4491            0.0000000000
     63304      4891  TIP3      H1             44.1744611396       14.2512888963       35.9865059053  TIP3      4491            0.0000000000
     63305      4891  TIP3      H2             43.8589286853       13.3066113776       34.8141096331  TIP3      4491            0.0000000000
     63306      4892  TIP3      OH2            50.4936389800        8.8419113819       22.9352979778  TIP3      4492            0.0000000000
     63307      4892  TIP3      H1             51.0686211558        9.0046947508       23.7168736399  TIP3      4492            0.0000000000
     63308      4892  TIP3      H2             50.9147876365        9.3442056670       22.2328801095  TIP3      4492            0.0000000000
     63309      4893  TIP3      OH2            41.4639340097        9.6561328742       34.7111085419  TIP3      4493            0.0000000000
     63310      4893  TIP3      H1             41.5083862970       10.3250328635       35.4302219123  TIP3      4493            0.0000000000
     63311      4893  TIP3      H2             40.5421090690        9.7655086282       34.4282813291  TIP3      4493            0.0000000000
     63312      4894  TIP3      OH2            48.2279057988       15.5685132120       26.4003614027  TIP3      4494            0.0000000000
     63313      4894  TIP3      H1             48.6860853995       15.8794472834       27.1849001432  TIP3      4494            0.0000000000
     63314      4894  TIP3      H2             47.6660293517       16.3152971041       26.1589701864  TIP3      4494            0.0000000000
     63315      4895  TIP3      OH2            42.7775380170       15.5527891729       36.2652794764  TIP3      4495            0.0000000000
     63316      4895  TIP3      H1             42.7455766994       15.4105667029       35.3070248975  TIP3      4495            0.0000000000
     63317      4895  TIP3      H2             41.8441601695       15.4122023606       36.5317407671  TIP3      4495            0.0000000000
     63318      4896  TIP3      OH2            42.2506856952        9.3607592292       24.7406558075  TIP3      4496            0.0000000000
     63319      4896  TIP3      H1             41.9633617909       10.1561318439       24.2583769831  TIP3      4496            0.0000000000
     63320      4896  TIP3      H2             41.5705925622        8.7059776122       24.5731889902  TIP3      4496            0.0000000000
     63321      4897  TIP3      OH2            55.4932583422       15.0641871745       21.7851298283  TIP3      4497            0.0000000000
     63322      4897  TIP3      H1             55.4580768169       15.9424399674       21.3569911725  TIP3      4497            0.0000000000
     63323      4897  TIP3      H2             56.1832685898       14.6866504505       21.2099167691  TIP3      4497            0.0000000000
     63324      4898  TIP3      OH2            38.3420588857       11.7595977154       33.6129111989  TIP3      4498            0.0000000000
     63325      4898  TIP3      H1             37.8621204409       11.6936042663       32.7686289955  TIP3      4498            0.0000000000
     63326      4898  TIP3      H2             38.3703424399       10.8195491709       33.8710866501  TIP3      4498            0.0000000000
     63327      4899  TIP3      OH2            38.0919771418       14.5042569867       30.4471495883  TIP3      4499            0.0000000000
     63328      4899  TIP3      H1             39.0485540837       14.3803196115       30.4294257304  TIP3      4499            0.0000000000
     63329      4899  TIP3      H2             37.9972342160       15.3094131695       30.9739406958  TIP3      4499            0.0000000000
     63330      4900  TIP3      OH2            47.2860511082       14.7487376414       34.9968880264  TIP3      4500            0.0000000000
     63331      4900  TIP3      H1             47.3569210173       15.5923442284       35.5005915290  TIP3      4500            0.0000000000
     63332      4900  TIP3      H2             46.4074762521       14.4165894261       35.2540328968  TIP3      4500            0.0000000000
     63333      4901  TIP3      OH2            47.7080632686       18.4966966535       24.8106989959  TIP3      4501            0.0000000000
     63334      4901  TIP3      H1             47.6220094286       18.4115790096       23.8424409367  TIP3      4501            0.0000000000
     63335      4901  TIP3      H2             47.7212948214       19.4692305551       24.9341687915  TIP3      4501            0.0000000000
     63336      4902  TIP3      OH2            41.3571096276       17.3504670569       26.6003598654  TIP3      4502            0.0000000000
     63337      4902  TIP3      H1             41.4983587562       16.9538553110       27.4849548641  TIP3      4502            0.0000000000
     63338      4902  TIP3      H2             40.5013340106       16.9599437450       26.3590580053  TIP3      4502            0.0000000000
     63339      4903  TIP3      OH2            50.7915860888       17.7087538091       21.8078648306  TIP3      4503            0.0000000000
     63340      4903  TIP3      H1             51.1534481520       16.9434761472       21.3319371510  TIP3      4503            0.0000000000
     63341      4903  TIP3      H2             50.8060369218       17.4090658903       22.7320222428  TIP3      4503            0.0000000000
     63342      4904  TIP3      OH2            50.4676630017       17.6288943416       24.5656155734  TIP3      4504            0.0000000000
     63343      4904  TIP3      H1             49.5096703881       17.7070673408       24.7381724539  TIP3      4504            0.0000000000
     63344      4904  TIP3      H2             50.7322484048       16.8972268967       25.1428216832  TIP3      4504            0.0000000000
     63345      4905  TIP3      OH2            53.4560194237        6.6846524938       36.6071704767  TIP3      4505            0.0000000000
     63346      4905  TIP3      H1             53.0162779483        7.1496785880       35.8815371926  TIP3      4505            0.0000000000
     63347      4905  TIP3      H2             53.4841194077        5.7634630418       36.2960326183  TIP3      4505            0.0000000000
     63348      4906  TIP3      OH2            40.6066220384       13.0754739045       34.6033332346  TIP3      4506            0.0000000000
     63349      4906  TIP3      H1             40.8273321948       12.7055928412       35.4896241043  TIP3      4506            0.0000000000
     63350      4906  TIP3      H2             39.7357270155       12.6802369557       34.3930798946  TIP3      4506            0.0000000000
     63351      4907  TIP3      OH2            43.2599144527        1.5339682339       30.5855107159  TIP3      4507            0.0000000000
     63352      4907  TIP3      H1             42.3603700885        1.4420591604       30.1948220018  TIP3      4507            0.0000000000
     63353      4907  TIP3      H2             43.1771196985        2.3893620097       31.0343784603  TIP3      4507            0.0000000000
     63354      4908  TIP3      OH2            47.9089430081        1.2466469721       33.9504167373  TIP3      4508            0.0000000000
     63355      4908  TIP3      H1             48.3110238264        0.8210773210       34.7285420056  TIP3      4508            0.0000000000
     63356      4908  TIP3      H2             46.9424198609        1.0832846294       34.0867231084  TIP3      4508            0.0000000000
     63357      4909  TIP3      OH2            51.2056314434        5.0307554512       34.8158200149  TIP3      4509            0.0000000000
     63358      4909  TIP3      H1             50.6709381538        4.8663409116       35.6277622252  TIP3      4509            0.0000000000
     63359      4909  TIP3      H2             51.0432513885        5.9559522155       34.5823919212  TIP3      4509            0.0000000000
     63360      4910  TIP3      OH2            43.3519319589        6.4988091670       31.7439332613  TIP3      4510            0.0000000000
     63361      4910  TIP3      H1             42.6558775414        6.4780777269       32.4256976682  TIP3      4510            0.0000000000
     63362      4910  TIP3      H2             43.3435003327        7.4362793473       31.4490171644  TIP3      4510            0.0000000000
     63363      4911  TIP3      OH2            43.3273394538        6.6991249037       26.6515844593  TIP3      4511            0.0000000000
     63364      4911  TIP3      H1             42.4088828776        6.3794018138       26.5375217317  TIP3      4511            0.0000000000
     63365      4911  TIP3      H2             43.7463705439        6.3410009693       25.8439794797  TIP3      4511            0.0000000000
     63366      4912  TIP3      OH2            48.8467153747        7.1242067325       25.4303140747  TIP3      4512            0.0000000000
     63367      4912  TIP3      H1             48.4452100858        7.9650054734       25.1192673442  TIP3      4512            0.0000000000
     63368      4912  TIP3      H2             49.5620198310        6.9964149767       24.7907940930  TIP3      4512            0.0000000000
     63369      4913  TIP3      OH2            47.9398584306        7.3410087624       36.8993259473  TIP3      4513            0.0000000000
     63370      4913  TIP3      H1             47.3863792021        6.5883021907       37.2206242562  TIP3      4513            0.0000000000
     63371      4913  TIP3      H2             48.7730724262        7.2031343144       37.3790181066  TIP3      4513            0.0000000000
     63372      4914  TIP3      OH2            49.8709652661        6.6067774362       28.2734765276  TIP3      4514            0.0000000000
     63373      4914  TIP3      H1             49.6406818319        7.1868223650       27.5279901681  TIP3      4514            0.0000000000
     63374      4914  TIP3      H2             50.0184075662        5.7596565634       27.8041008672  TIP3      4514            0.0000000000
     63375      4915  TIP3      OH2            41.0395403085        6.8068677415       33.5304658966  TIP3      4515            0.0000000000
     63376      4915  TIP3      H1             41.0449296121        7.2077079236       34.4174498429  TIP3      4515            0.0000000000
     63377      4915  TIP3      H2             40.5660507475        5.9754965598       33.6777516473  TIP3      4515            0.0000000000
     63378      4916  TIP3      OH2            37.6593230666        3.9212431436       27.4347640139  TIP3      4516            0.0000000000
     63379      4916  TIP3      H1             38.3218017748        3.8852426387       28.1530316530  TIP3      4516            0.0000000000
     63380      4916  TIP3      H2             38.1233428943        3.5055278597       26.6852464960  TIP3      4516            0.0000000000
     63381      4917  TIP3      OH2            38.9718502577        4.6677740829       22.8962489006  TIP3      4517            0.0000000000
     63382      4917  TIP3      H1             39.4103229173        5.2436919192       22.2661474535  TIP3      4517            0.0000000000
     63383      4917  TIP3      H2             38.2220246647        5.2242934807       23.1738962470  TIP3      4517            0.0000000000
     63384      4918  TIP3      OH2            49.1083877701        8.2296530039       32.8865853531  TIP3      4518            0.0000000000
     63385      4918  TIP3      H1             49.4547226931        7.5629106537       32.2642176116  TIP3      4518            0.0000000000
     63386      4918  TIP3      H2             48.6592226638        7.6842280711       33.5563855154  TIP3      4518            0.0000000000
     63387      4919  TIP3      OH2            45.8970868203        4.1665922219       27.6887176150  TIP3      4519            0.0000000000
     63388      4919  TIP3      H1             44.9620693980        4.2023760583       27.9891829993  TIP3      4519            0.0000000000
     63389      4919  TIP3      H2             46.3935577647        4.0661426784       28.5134487202  TIP3      4519            0.0000000000
     63390      4920  TIP3      OH2            40.7239260675        5.7693612934       26.5228299264  TIP3      4520            0.0000000000
     63391      4920  TIP3      H1             39.8171305177        5.8821489396       26.1710341507  TIP3      4520            0.0000000000
     63392      4920  TIP3      H2             41.0081701555        4.9157536833       26.1587131473  TIP3      4520            0.0000000000
     63393      4921  TIP3      OH2            44.3507425062        5.7942656962       24.1906102148  TIP3      4521            0.0000000000
     63394      4921  TIP3      H1             45.3134897243        5.8911592630       24.3441837569  TIP3      4521            0.0000000000
     63395      4921  TIP3      H2             44.1550418622        6.4487535627       23.5114776058  TIP3      4521            0.0000000000
     63396      4922  TIP3      OH2            50.3076225919        3.4028435609       30.9437143489  TIP3      4522            0.0000000000
     63397      4922  TIP3      H1             49.6122912322        3.5011432778       31.6276170697  TIP3      4522            0.0000000000
     63398      4922  TIP3      H2             49.8026206336        3.2083202132       30.1427467509  TIP3      4522            0.0000000000
     63399      4923  TIP3      OH2            53.5430184643       19.0513819647       37.2603032255  TIP3      4523            0.0000000000
     63400      4923  TIP3      H1             53.7868262705       19.4569650112       36.4025077260  TIP3      4523            0.0000000000
     63401      4923  TIP3      H2             54.2335229052       19.3975865494       37.8371415849  TIP3      4523            0.0000000000
     63402      4924  TIP3      OH2            41.1956462640       11.5365936416       36.8134444546  TIP3      4524            0.0000000000
     63403      4924  TIP3      H1             41.9058067671       11.7847000987       37.4427112134  TIP3      4524            0.0000000000
     63404      4924  TIP3      H2             40.4120663970       11.6961766934       37.3938360226  TIP3      4524            0.0000000000
     63405      4925  TIP3      OH2            47.1953865957        6.9439767635       29.5801298307  TIP3      4525            0.0000000000
     63406      4925  TIP3      H1             47.7784294826        6.3969542849       29.0380551855  TIP3      4525            0.0000000000
     63407      4925  TIP3      H2             47.0551564794        6.4059666684       30.3699688473  TIP3      4525            0.0000000000
     63408      4926  TIP3      OH2            42.2045043702        3.0977300226       26.0012543915  TIP3      4526            0.0000000000
     63409      4926  TIP3      H1             41.8930239506        2.1717460442       25.9743272718  TIP3      4526            0.0000000000
     63410      4926  TIP3      H2             42.9932326363        3.0557654063       25.4444208046  TIP3      4526            0.0000000000
     63411      4927  TIP3      OH2            45.8337784458        5.2963931129       31.9890213277  TIP3      4527            0.0000000000
     63412      4927  TIP3      H1             44.9967463774        5.7881840579       32.0990105596  TIP3      4527            0.0000000000
     63413      4927  TIP3      H2             46.3707389337        5.6151283434       32.7417269712  TIP3      4527            0.0000000000
     63414      4928  TIP3      OH2            46.4000504137       11.5106844118       23.6856378544  TIP3      4528            0.0000000000
     63415      4928  TIP3      H1             45.6188358982       11.0354962175       23.3475867555  TIP3      4528            0.0000000000
     63416      4928  TIP3      H2             46.2211587517       11.6037374628       24.6317528742  TIP3      4528            0.0000000000
     63417      4929  TIP3      OH2            53.5661295431       10.6356322448       32.4693230884  TIP3      4529            0.0000000000
     63418      4929  TIP3      H1             54.1684598804       11.1703346993       31.9148609467  TIP3      4529            0.0000000000
     63419      4929  TIP3      H2             52.7171850325       10.7856932887       32.0079558093  TIP3      4529            0.0000000000
     63420      4930  TIP3      OH2            50.2470032592        4.3298467105       21.8985668965  TIP3      4530            0.0000000000
     63421      4930  TIP3      H1             49.3181019950        4.4686525663       21.7071408055  TIP3      4530            0.0000000000
     63422      4930  TIP3      H2             50.5822749848        5.1939173199       22.1838194858  TIP3      4530            0.0000000000
     63423      4931  TIP3      OH2            47.9081206880       11.7355485611       34.9158299971  TIP3      4531            0.0000000000
     63424      4931  TIP3      H1             47.5575875260       11.3406677957       35.7261498173  TIP3      4531            0.0000000000
     63425      4931  TIP3      H2             47.6861115586       12.6665819497       35.0107425755  TIP3      4531            0.0000000000
     63426      4932  TIP3      OH2            50.9953257993        6.2303902648       23.5530793149  TIP3      4532            0.0000000000
     63427      4932  TIP3      H1             51.9056005932        6.0721598512       23.8749060129  TIP3      4532            0.0000000000
     63428      4932  TIP3      H2             51.0558592670        7.0270850013       23.0068050090  TIP3      4532            0.0000000000
     63429      4933  TIP3      OH2            41.5076371412       10.8611807337       29.4706141966  TIP3      4533            0.0000000000
     63430      4933  TIP3      H1             42.2362548352       10.8193342848       28.8215592741  TIP3      4533            0.0000000000
     63431      4933  TIP3      H2             41.5855252547       10.0113649576       29.9365695378  TIP3      4533            0.0000000000
     63432      4934  TIP3      OH2            38.5128114307        9.3066919281       34.7560723435  TIP3      4534            0.0000000000
     63433      4934  TIP3      H1             38.7211821882        8.8649589612       35.6040437256  TIP3      4534            0.0000000000
     63434      4934  TIP3      H2             37.9071064548        8.6745096555       34.3347798456  TIP3      4534            0.0000000000
     63435      4935  TIP3      OH2            45.5235807264        8.8344131167       36.9691187050  TIP3      4535            0.0000000000
     63436      4935  TIP3      H1             45.2271037955        8.6100431859       36.0762422976  TIP3      4535            0.0000000000
     63437      4935  TIP3      H2             46.4652994959        8.5692007656       36.9509633118  TIP3      4535            0.0000000000
     63438      4936  TIP3      OH2            50.1668085165       14.1779635443       34.8633002439  TIP3      4536            0.0000000000
     63439      4936  TIP3      H1             49.2485295249       14.3750276625       34.6243856933  TIP3      4536            0.0000000000
     63440      4936  TIP3      H2             50.1832530224       14.4615449832       35.7962473558  TIP3      4536            0.0000000000
     63441      4937  TIP3      OH2            55.7979703528        6.4464558633       23.2863280129  TIP3      4537            0.0000000000
     63442      4937  TIP3      H1             55.3169315526        6.0320196218       22.5468870584  TIP3      4537            0.0000000000
     63443      4937  TIP3      H2             55.9796784880        7.3547671200       22.9570518393  TIP3      4537            0.0000000000
     63444      4938  TIP3      OH2            55.8485946193       12.1989642596       36.0899881666  TIP3      4538            0.0000000000
     63445      4938  TIP3      H1             54.9865861341       12.4714559857       35.6941358279  TIP3      4538            0.0000000000
     63446      4938  TIP3      H2             56.4106067182       12.2301737381       35.2894990768  TIP3      4538            0.0000000000
     63447      4939  TIP3      OH2            54.1112206245       15.2258671948       23.7720987354  TIP3      4539            0.0000000000
     63448      4939  TIP3      H1             53.7914230608       14.3653450026       24.0158898559  TIP3      4539            0.0000000000
     63449      4939  TIP3      H2             54.4404075740       15.0408732555       22.8440192932  TIP3      4539            0.0000000000
     63450      4940  TIP3      OH2            51.3419052520       10.0226861609       30.7419906428  TIP3      4540            0.0000000000
     63451      4940  TIP3      H1             50.4044819911        9.7875079991       30.6782677624  TIP3      4540            0.0000000000
     63452      4940  TIP3      H2             51.7871096444        9.2411341784       30.3672323219  TIP3      4540            0.0000000000
     63453      4941  TIP3      OH2            43.8801602760       14.3439719661       26.8712388165  TIP3      4541            0.0000000000
     63454      4941  TIP3      H1             44.4054197027       15.1324946193       26.6520425666  TIP3      4541            0.0000000000
     63455      4941  TIP3      H2             43.0029384642       14.5832658729       26.5456291788  TIP3      4541            0.0000000000
     63456      4942  TIP3      OH2            39.6532937688        9.2316250673       21.4450195305  TIP3      4542            0.0000000000
     63457      4942  TIP3      H1             40.2623846076        9.8710042596       21.8162079336  TIP3      4542            0.0000000000
     63458      4942  TIP3      H2             38.7752693608        9.5196490570       21.7364167440  TIP3      4542            0.0000000000
     63459      4943  TIP3      OH2            45.3268941124       12.0046878350       26.4245371749  TIP3      4543            0.0000000000
     63460      4943  TIP3      H1             45.0426457794       12.9378211463       26.4810634057  TIP3      4543            0.0000000000
     63461      4943  TIP3      H2             44.5664933184       11.5450652365       26.8302975290  TIP3      4543            0.0000000000
     63462      4944  TIP3      OH2            45.7879190252       16.1640878334       32.7561921899  TIP3      4544            0.0000000000
     63463      4944  TIP3      H1             46.1916748721       17.0199258589       32.5201792682  TIP3      4544            0.0000000000
     63464      4944  TIP3      H2             46.3657692911       15.8743758667       33.4859578539  TIP3      4544            0.0000000000
     63465      4945  TIP3      OH2            43.9924899189       17.0109607602       25.9550603302  TIP3      4545            0.0000000000
     63466      4945  TIP3      H1             43.0261929223       17.1456136589       26.0454399672  TIP3      4545            0.0000000000
     63467      4945  TIP3      H2             44.3446055328       17.8544238202       26.2990464330  TIP3      4545            0.0000000000
     63468      4946  TIP3      OH2            49.3359734393       12.2368351439       32.4320499663  TIP3      4546            0.0000000000
     63469      4946  TIP3      H1             48.9452985478       12.0225154875       33.3013244783  TIP3      4546            0.0000000000
     63470      4946  TIP3      H2             49.9527606396       11.5092212332       32.2619592096  TIP3      4546            0.0000000000
     63471      4947  TIP3      OH2            52.0204433617       16.8229670472       34.9553999481  TIP3      4547            0.0000000000
     63472      4947  TIP3      H1             51.4299900983       16.2619947596       34.4111528465  TIP3      4547            0.0000000000
     63473      4947  TIP3      H2             52.3125240713       17.4671102615       34.2720980181  TIP3      4547            0.0000000000
     63474      4948  TIP3      OH2            56.0399293709       17.6956858622       21.6750640966  TIP3      4548            0.0000000000
     63475      4948  TIP3      H1             56.8374647387       18.2523551174       21.6141053764  TIP3      4548            0.0000000000
     63476      4948  TIP3      H2             55.3608190633       18.2648457572       22.0791795370  TIP3      4548            0.0000000000
     63477      4949  TIP3      OH2            40.1608476988        4.0439284082       34.3102572303  TIP3      4549            0.0000000000
     63478      4949  TIP3      H1             39.2505205624        4.3852600904       34.2652566814  TIP3      4549            0.0000000000
     63479      4949  TIP3      H2             40.0468269664        3.1872725191       34.7510975578  TIP3      4549            0.0000000000
     63480      4950  TIP3      OH2            52.4177816924       11.8733687546       23.7496798293  TIP3      4550            0.0000000000
     63481      4950  TIP3      H1             52.1567067721       11.1189029844       24.3046630953  TIP3      4550            0.0000000000
     63482      4950  TIP3      H2             53.3613228067       11.9655242514       23.9470652030  TIP3      4550            0.0000000000
     63483      4951  TIP3      OH2            39.7969967304       15.8451315795       32.7388484621  TIP3      4551            0.0000000000
     63484      4951  TIP3      H1             40.0398166783       14.9053282026       32.7343703539  TIP3      4551            0.0000000000
     63485      4951  TIP3      H2             40.0450505480       16.1143947095       33.6325473774  TIP3      4551            0.0000000000
     63486      4952  TIP3      OH2            44.5714395810       13.8721645695       22.4392910427  TIP3      4552            0.0000000000
     63487      4952  TIP3      H1             44.7591512917       13.3442638430       23.2108283148  TIP3      4552            0.0000000000
     63488      4952  TIP3      H2             44.5872862003       14.7936089540       22.7311103924  TIP3      4552            0.0000000000
     63489      4953  TIP3      OH2            48.8845541032        3.8021277287       33.2240708936  TIP3      4553            0.0000000000
     63490      4953  TIP3      H1             49.5911557778        3.8598296173       33.8794723121  TIP3      4553            0.0000000000
     63491      4953  TIP3      H2             48.5036751379        2.9188947179       33.4041213628  TIP3      4553            0.0000000000
     63492      4954  TIP3      OH2            49.6652978132        3.3998511022       24.3488362709  TIP3      4554            0.0000000000
     63493      4954  TIP3      H1             49.8710336685        3.8857435422       23.5170613637  TIP3      4554            0.0000000000
     63494      4954  TIP3      H2             50.2321170153        3.8395974689       24.9843331670  TIP3      4554            0.0000000000
     63495      4955  TIP3      OH2            47.3453821452       15.5740448568       23.1897217244  TIP3      4555            0.0000000000
     63496      4955  TIP3      H1             46.5067489994       16.0620251720       23.2172456515  TIP3      4555            0.0000000000
     63497      4955  TIP3      H2             47.8674392294       16.0460885436       22.5321137124  TIP3      4555            0.0000000000
     63498      4956  TIP3      OH2            46.8505439397        5.1650224762       25.1526948217  TIP3      4556            0.0000000000
     63499      4956  TIP3      H1             47.6764327247        5.6856143366       25.1880195013  TIP3      4556            0.0000000000
     63500      4956  TIP3      H2             46.6151899547        5.0142952389       26.0812448835  TIP3      4556            0.0000000000
     63501      4957  TIP3      OH2            47.4100200650        6.1516383770       34.3373273368  TIP3      4557            0.0000000000
     63502      4957  TIP3      H1             47.5137174883        6.7313042440       35.1156904923  TIP3      4557            0.0000000000
     63503      4957  TIP3      H2             48.0699307351        5.4569691362       34.4478169971  TIP3      4557            0.0000000000
     63504      4958  TIP3      OH2            47.7347975482        2.2163692596       26.0828459820  TIP3      4558            0.0000000000
     63505      4958  TIP3      H1             47.4014760751        2.8658622208       26.7213719143  TIP3      4558            0.0000000000
     63506      4958  TIP3      H2             48.4132468955        2.7522506830       25.6006352726  TIP3      4558            0.0000000000
     63507      4959  TIP3      OH2            44.6892333923       16.6191874848       23.1597880164  TIP3      4559            0.0000000000
     63508      4959  TIP3      H1             44.8389022531       17.4192493214       22.6508942661  TIP3      4559            0.0000000000
     63509      4959  TIP3      H2             44.4609665877       16.9187507613       24.0584853501  TIP3      4559            0.0000000000
     63510      4960  TIP3      OH2            43.3804097594        3.2933217678       22.7911405431  TIP3      4560            0.0000000000
     63511      4960  TIP3      H1             43.3437585814        4.2015398441       23.1136516023  TIP3      4560            0.0000000000
     63512      4960  TIP3      H2             44.2999292122        3.0410089170       23.0035131092  TIP3      4560            0.0000000000
     63513      4961  TIP3      OH2            53.6116932927        4.0427022445       35.1880149337  TIP3      4561            0.0000000000
     63514      4961  TIP3      H1             52.6733931929        4.3264577608       35.0732613511  TIP3      4561            0.0000000000
     63515      4961  TIP3      H2             53.9272031413        4.0378809786       34.2706795013  TIP3      4561            0.0000000000
     63516      4962  TIP3      OH2            52.1887641256        7.8261246762       29.2519438351  TIP3      4562            0.0000000000
     63517      4962  TIP3      H1             51.3899674285        7.3782972691       28.9336830699  TIP3      4562            0.0000000000
     63518      4962  TIP3      H2             52.6704065370        7.1203984976       29.7456692698  TIP3      4562            0.0000000000
     63519      4963  TIP3      OH2            53.2727779894       17.0672338952       30.8734006734  TIP3      4563            0.0000000000
     63520      4963  TIP3      H1             53.1618075664       17.7538396001       30.2076037534  TIP3      4563            0.0000000000
     63521      4963  TIP3      H2             54.2324675213       17.1295515301       31.0769485167  TIP3      4563            0.0000000000
     63522      4964  TIP3      OH2            40.7875955430        1.1944874882       29.6523072705  TIP3      4564            0.0000000000
     63523      4964  TIP3      H1             40.5610028397        1.2291121858       28.6966121954  TIP3      4564            0.0000000000
     63524      4964  TIP3      H2             40.3449640710        0.3677949154       29.9298591559  TIP3      4564            0.0000000000
     63525      4965  TIP3      OH2            39.7227641659       15.1176375099       25.8084470798  TIP3      4565            0.0000000000
     63526      4965  TIP3      H1             38.8807066953       15.5939690635       25.8032435543  TIP3      4565            0.0000000000
     63527      4965  TIP3      H2             40.2456008210       15.6111397012       25.1587757407  TIP3      4565            0.0000000000
     63528      4966  TIP3      OH2            38.9785790450       17.7473818395       37.1087289830  TIP3      4566            0.0000000000
     63529      4966  TIP3      H1             39.5478426174       17.5319767474       37.8761788751  TIP3      4566            0.0000000000
     63530      4966  TIP3      H2             38.5232701648       16.9112861245       36.9324871389  TIP3      4566            0.0000000000
     63531      4967  TIP3      OH2            43.6287037647       16.6985240971       38.7280553584  TIP3      4567            0.0000000000
     63532      4967  TIP3      H1             44.3614110156       16.1698643723       39.0694735695  TIP3      4567            0.0000000000
     63533      4967  TIP3      H2             43.5842781397       16.4078496161       37.7973489801  TIP3      4567            0.0000000000
     63534      4968  TIP3      OH2            50.1439197675       15.0571959643       37.4581350872  TIP3      4568            0.0000000000
     63535      4968  TIP3      H1             49.8226339514       14.1713290358       37.7185204258  TIP3      4568            0.0000000000
     63536      4968  TIP3      H2             50.9051458140       15.1798550794       38.0581268319  TIP3      4568            0.0000000000
     63537      4969  TIP3      OH2            38.8762678970       11.5394746704       38.0866162088  TIP3      4569            0.0000000000
     63538      4969  TIP3      H1             39.0539245116       10.6333634050       37.7814825995  TIP3      4569            0.0000000000
     63539      4969  TIP3      H2             38.1294100281       11.8265233256       37.5515943078  TIP3      4569            0.0000000000
     63540      4970  TIP3      OH2            45.6601059335       11.5195872326       37.4457235191  TIP3      4570            0.0000000000
     63541      4970  TIP3      H1             45.2257561071       11.8040056687       36.6251847771  TIP3      4570            0.0000000000
     63542      4970  TIP3      H2             45.6815828454       10.5451673073       37.4017604686  TIP3      4570            0.0000000000
     63543      4971  TIP3      OH2            51.2264984034       11.3705405484       34.8844541584  TIP3      4571            0.0000000000
     63544      4971  TIP3      H1             52.0273962380       11.9753911210       34.7901238693  TIP3      4571            0.0000000000
     63545      4971  TIP3      H2             50.5444459352       12.0437020433       34.9326048571  TIP3      4571            0.0000000000
     63546      4972  TIP3      OH2            39.7262882768        8.7430511202       37.4736803306  TIP3      4572            0.0000000000
     63547      4972  TIP3      H1             40.1694761311        7.8950961108       37.3868451863  TIP3      4572            0.0000000000
     63548      4972  TIP3      H2             39.5088052072        8.7678424644       38.4265720768  TIP3      4572            0.0000000000
     63549      4973  TIP3      OH2            44.4302334024        9.8626254677       22.5327503732  TIP3      4573            0.0000000000
     63550      4973  TIP3      H1             43.9285460604        9.3772258783       23.1903979876  TIP3      4573            0.0000000000
     63551      4973  TIP3      H2             44.6718371217        9.2054472437       21.8722534699  TIP3      4573            0.0000000000
     63552      4974  TIP3      OH2            43.6837745382        7.7305921250       34.8607594407  TIP3      4574            0.0000000000
     63553      4974  TIP3      H1             43.0700790124        8.4359555609       35.1288268668  TIP3      4574            0.0000000000
     63554      4974  TIP3      H2             44.0448499655        8.0817510463       34.0288082313  TIP3      4574            0.0000000000
     63555      4975  TIP3      OH2            48.7229720439       10.2519845493       38.1795991883  TIP3      4575            0.0000000000
     63556      4975  TIP3      H1             49.6825274339       10.2918138229       38.0931149027  TIP3      4575            0.0000000000
     63557      4975  TIP3      H2             48.5589955057        9.5053837731       38.7717502018  TIP3      4575            0.0000000000
     63558      4976  TIP3      OH2            54.8429782136       10.4653617159       20.2079961267  TIP3      4576            0.0000000000
     63559      4976  TIP3      H1             54.6166771155       10.0485138924       19.3880362598  TIP3      4576            0.0000000000
     63560      4976  TIP3      H2             54.9096331132       11.4051079689       19.9982299218  TIP3      4576            0.0000000000
     63561      4977  TIP3      OH2            44.0544044604        5.1038159496       35.9328878953  TIP3      4577            0.0000000000
     63562      4977  TIP3      H1             44.1836959823        4.3746833934       35.3055469571  TIP3      4577            0.0000000000
     63563      4977  TIP3      H2             44.0319443279        5.8997763382       35.3668786877  TIP3      4577            0.0000000000
     63564      4978  TIP3      OH2            44.4614444377        3.4735313085       33.4544858998  TIP3      4578            0.0000000000
     63565      4978  TIP3      H1             44.9858424646        3.9356121053       32.7611857951  TIP3      4578            0.0000000000
     63566      4978  TIP3      H2             43.5804602829        3.3797324647       33.0234509062  TIP3      4578            0.0000000000
     63567      4979  TIP3      OH2            46.0219826314        8.9275371937       33.6930024485  TIP3      4579            0.0000000000
     63568      4979  TIP3      H1             46.7753013972        8.7730005235       33.1107218802  TIP3      4579            0.0000000000
     63569      4979  TIP3      H2             45.6792870473        9.7829100157       33.3884427973  TIP3      4579            0.0000000000
     63570      4980  TIP3      OH2            50.4245251116        6.7255559235       38.6906304560  TIP3      4580            0.0000000000
     63571      4980  TIP3      H1             50.6387728678        5.7882033439       38.5881271025  TIP3      4580            0.0000000000
     63572      4980  TIP3      H2             51.2959317022        7.1507323200       38.6860413267  TIP3      4580            0.0000000000
     63573      4981  TIP3      OH2            51.7530136813        9.5103308048       36.8171201931  TIP3      4581            0.0000000000
     63574      4981  TIP3      H1             51.4969436584       10.2369423053       36.1981351771  TIP3      4581            0.0000000000
     63575      4981  TIP3      H2             52.7144403221        9.4700224997       36.6181900558  TIP3      4581            0.0000000000
     63576      4982  TIP3      OH2            42.5248692770        6.3294588286       37.8612545994  TIP3      4582            0.0000000000
     63577      4982  TIP3      H1             41.7492989846        5.7681807324       37.6413410809  TIP3      4582            0.0000000000
     63578      4982  TIP3      H2             43.1856821652        5.9860162594       37.2287084401  TIP3      4582            0.0000000000
     63579      4983  TIP3      OH2            45.2608026478        0.9138829965       33.8752887206  TIP3      4583            0.0000000000
     63580      4983  TIP3      H1             45.1241727652        1.8834037619       33.7584391168  TIP3      4583            0.0000000000
     63581      4983  TIP3      H2             44.5042569876        0.5591767630       33.3729531129  TIP3      4583            0.0000000000
     63582      4984  TIP3      OH2            46.5301432709        5.2426089370       37.4494079017  TIP3      4584            0.0000000000
     63583      4984  TIP3      H1             46.2509277603        5.0260977984       38.3570706014  TIP3      4584            0.0000000000
     63584      4984  TIP3      H2             45.7319044810        5.0471730770       36.9204582177  TIP3      4584            0.0000000000
     63585      4985  TIP3      OH2            49.2447386711        4.3778288009       36.5146196650  TIP3      4585            0.0000000000
     63586      4985  TIP3      H1             48.2815886619        4.4215135281       36.6542113507  TIP3      4585            0.0000000000
     63587      4985  TIP3      H2             49.5338341250        3.7497913860       37.1957408856  TIP3      4585            0.0000000000
     63588      4986  TIP3      OH2            50.8606681184        3.0135589040       38.4897812443  TIP3      4586            0.0000000000
     63589      4986  TIP3      H1             50.7715235067        2.0448161790       38.5022786091  TIP3      4586            0.0000000000
     63590      4986  TIP3      H2             50.5533820630        3.2949281543       39.3828360828  TIP3      4586            0.0000000000
     63591      4987  TIP3      OH2            40.6596929783        4.2565404836       37.5637548795  TIP3      4587            0.0000000000
     63592      4987  TIP3      H1             40.8899722040        3.5236570268       36.9602957711  TIP3      4587            0.0000000000
     63593      4987  TIP3      H2             40.5643135293        3.8022640713       38.4251182498  TIP3      4587            0.0000000000
     63594      4988  TIP3      OH2            45.4684517335        0.2605496425       36.5539997191  TIP3      4588            0.0000000000
     63595      4988  TIP3      H1             46.1793480535       -0.4155174694       36.5223586968  TIP3      4588            0.0000000000
     63596      4988  TIP3      H2             45.3729756656        0.4752556113       35.6071180123  TIP3      4588            0.0000000000
     63597      4989  TIP3      OH2            45.8314821796        1.9082127357       38.6232691762  TIP3      4589            0.0000000000
     63598      4989  TIP3      H1             45.6837339532        1.4158626694       37.7790317163  TIP3      4589            0.0000000000
     63599      4989  TIP3      H2             45.2318568730        2.6709472353       38.5352578685  TIP3      4589            0.0000000000
     63600      4990  TIP3      OH2            37.6218611332       18.8162055894       26.3012673397  TIP3      4590            0.0000000000
     63601      4990  TIP3      H1             36.9342299271       18.3340240881       25.7957579805  TIP3      4590            0.0000000000
     63602      4990  TIP3      H2             37.9354020798       18.1403164868       26.9246669168  TIP3      4590            0.0000000000
     63603      4991  TIP3      OH2            38.4643433688       16.9133165011       28.1280359735  TIP3      4591            0.0000000000
     63604      4991  TIP3      H1             38.1207897528       16.0285907971       28.3211055855  TIP3      4591            0.0000000000
     63605      4991  TIP3      H2             38.6889924119       17.2481954058       29.0150083380  TIP3      4591            0.0000000000
     63606      4992  TIP3      OH2            55.9629414976       17.7269940362       31.1070302509  TIP3      4592            0.0000000000
     63607      4992  TIP3      H1             55.9937469667       17.8838903705       32.0631804581  TIP3      4592            0.0000000000
     63608      4992  TIP3      H2             56.7011711454       18.2649714072       30.7852151618  TIP3      4592            0.0000000000
     63609      4993  TIP3      OH2            55.6001823935       17.3061258025       34.0259367422  TIP3      4593            0.0000000000
     63610      4993  TIP3      H1             55.0778036571       16.5402712592       33.6521060791  TIP3      4593            0.0000000000
     63611      4993  TIP3      H2             56.1076372271       16.8688984255       34.7178619234  TIP3      4593            0.0000000000
     63612      4994  TIP3      OH2            54.0208093513       13.0422701576       38.6784120177  TIP3      4594            0.0000000000
     63613      4994  TIP3      H1             53.1348216913       12.9878528991       39.0753631745  TIP3      4594            0.0000000000
     63614      4994  TIP3      H2             54.4022211680       13.8372991436       39.1277366169  TIP3      4594            0.0000000000
     63615      4995  TIP3      OH2            55.2915291348       11.3263978649       24.1627940614  TIP3      4595            0.0000000000
     63616      4995  TIP3      H1             56.1670097371       11.7483208359       24.3169859024  TIP3      4595            0.0000000000
     63617      4995  TIP3      H2             55.3320374051       10.5986605937       24.8177385703  TIP3      4595            0.0000000000
     63618      4996  TIP3      OH2            55.6982977273        9.4306290629       26.0011455393  TIP3      4596            0.0000000000
     63619      4996  TIP3      H1             54.9684171898        8.9160170408       26.4122847659  TIP3      4596            0.0000000000
     63620      4996  TIP3      H2             56.3041444500        9.5881825889       26.7617797601  TIP3      4596            0.0000000000
     63621      4997  TIP3      OH2            55.4412466142       12.0752262607       30.7680845687  TIP3      4597            0.0000000000
     63622      4997  TIP3      H1             56.3455873130       11.7695810683       30.6684355400  TIP3      4597            0.0000000000
     63623      4997  TIP3      H2             55.5748667318       13.0691765404       30.8604119641  TIP3      4597            0.0000000000
     63624      4998  TIP3      OH2            53.5826633289       15.5782267855       33.1202292562  TIP3      4598            0.0000000000
     63625      4998  TIP3      H1             53.2650978713       15.3520908009       33.9807713156  TIP3      4598            0.0000000000
     63626      4998  TIP3      H2             53.4974913567       14.6944020126       32.6488115531  TIP3      4598            0.0000000000
     63627      4999  TIP3      OH2            55.9866373869        9.2347016690       22.4106791026  TIP3      4599            0.0000000000
     63628      4999  TIP3      H1             55.4836004412        9.6445779019       21.6781740318  TIP3      4599            0.0000000000
     63629      4999  TIP3      H2             55.9672998882        9.9689274350       23.0545382038  TIP3      4599            0.0000000000
     63630      5000  TIP3      OH2            53.5120368058        7.9063203286       26.5617494223  TIP3      4600            0.0000000000
     63631      5000  TIP3      H1             53.3533077797        6.9511435811       26.5589240711  TIP3      4600            0.0000000000
     63632      5000  TIP3      H2             53.1578043300        8.1672549315       27.4319451314  TIP3      4600            0.0000000000
     63633      5001  TIP3      OH2            38.5155423093        9.9861656322       30.6178456283  TIP3      4601            0.0000000000
     63634      5001  TIP3      H1             38.7195923717        9.9056604575       29.6578615533  TIP3      4601            0.0000000000
     63635      5001  TIP3      H2             39.4036720196        9.8429825750       30.9998206497  TIP3      4601            0.0000000000
     63636      5002  TIP3      OH2            54.3475620480        9.8748313633       36.2576712834  TIP3      4602            0.0000000000
     63637      5002  TIP3      H1             54.9684896482        9.1357522242       36.4002600019  TIP3      4602            0.0000000000
     63638      5002  TIP3      H2             54.9364051373       10.6595524403       36.2455607537  TIP3      4602            0.0000000000
     63639      5003  TIP3      OH2            55.8520296772        7.7857044139       36.8956884357  TIP3      4603            0.0000000000
     63640      5003  TIP3      H1             54.9800449613        7.3768875729       36.7374466482  TIP3      4603            0.0000000000
     63641      5003  TIP3      H2             56.4442697775        7.0110065412       36.8293597826  TIP3      4603            0.0000000000
     63642      5004  TIP3      OH2            53.1961629178        5.5004397264       25.0377701056  TIP3      4604            0.0000000000
     63643      5004  TIP3      H1             53.4927707839        4.5671036805       25.1602197766  TIP3      4604            0.0000000000
     63644      5004  TIP3      H2             53.9832506134        5.9066820700       24.6455310360  TIP3      4604            0.0000000000
     63645      5005  TIP3      OH2            53.7732773523        6.0436212170       30.4643850190  TIP3      4605            0.0000000000
     63646      5005  TIP3      H1             54.7464283827        6.2688352186       30.4546347817  TIP3      4605            0.0000000000
     63647      5005  TIP3      H2             53.5993227418        6.1766093900       31.4088391977  TIP3      4605            0.0000000000
     63648      5006  TIP3      OH2            53.8707163894        6.7767600896       33.2506953984  TIP3      4606            0.0000000000
     63649      5006  TIP3      H1             53.0058085596        7.0765771708       33.6007580885  TIP3      4606            0.0000000000
     63650      5006  TIP3      H2             54.3118011660        7.6359830058       33.0403396254  TIP3      4606            0.0000000000
     63651      5007  TIP3      OH2            38.1299008537        5.2800437640       36.7481207280  TIP3      4607            0.0000000000
     63652      5007  TIP3      H1             39.0683027439        5.1131248854       36.9693852745  TIP3      4607            0.0000000000
     63653      5007  TIP3      H2             37.6859121199        4.4814312789       37.1040778381  TIP3      4607            0.0000000000
     63654      5008  TIP3      OH2            53.8202962421        2.7753879773       25.0837293447  TIP3      4608            0.0000000000
     63655      5008  TIP3      H1             54.0204557482        2.3141975072       25.9146136583  TIP3      4608            0.0000000000
     63656      5008  TIP3      H2             53.2216028010        2.1499747821       24.6272185709  TIP3      4608            0.0000000000
     63657      5009  TIP3      OH2            39.3416633081        3.5758575790       29.6221634553  TIP3      4609            0.0000000000
     63658      5009  TIP3      H1             39.8065374956        2.7655344782       29.9148760435  TIP3      4609            0.0000000000
     63659      5009  TIP3      H2             39.8482052288        4.2835969935       30.0434952872  TIP3      4609            0.0000000000
     63660      5010  TIP3      OH2            37.6189536727        6.5721611325       30.6836614833  TIP3      4610            0.0000000000
     63661      5010  TIP3      H1             38.1776150386        6.3432145234       29.9052819821  TIP3      4610            0.0000000000
     63662      5010  TIP3      H2             38.0605183935        7.3939189945       30.9556634664  TIP3      4610            0.0000000000
     63663      5011  TIP3      OH2            55.6726838779        2.8921966297       36.9809501111  TIP3      4611            0.0000000000
     63664      5011  TIP3      H1             54.7366641489        3.1672136776       36.9131969850  TIP3      4611            0.0000000000
     63665      5011  TIP3      H2             55.7586169790        2.3496774326       36.1795283643  TIP3      4611            0.0000000000
     63666      5012  TIP3      OH2            55.6530510412        2.8317347365       21.6414610441  TIP3      4612            0.0000000000
     63667      5012  TIP3      H1             56.1360838943        2.1685921020       21.1383460584  TIP3      4612            0.0000000000
     63668      5012  TIP3      H2             56.3632831948        3.4963568965       21.6666162617  TIP3      4612            0.0000000000
     63669      5013  TIP3      OH2            37.9784580501        2.8392007969       24.7393494676  TIP3      4613            0.0000000000
     63670      5013  TIP3      H1             37.0432423660        3.0351331718       24.6105339350  TIP3      4613            0.0000000000
     63671      5013  TIP3      H2             38.4233431672        3.3184656097       24.0246676075  TIP3      4613            0.0000000000
     63672      5014  TIP3      OH2            52.7352614768       17.8034394334       26.6943529048  TIP3      4614            0.0000000000
     63673      5014  TIP3      H1             53.4015851318       17.4693163018       26.0698982225  TIP3      4614            0.0000000000
     63674      5014  TIP3      H2             53.2705709957       18.2908011721       27.3406594996  TIP3      4614            0.0000000000
     63675      5015  TIP3      OH2            37.9467516645        1.5374981542       33.0705942757  TIP3      4615            0.0000000000
     63676      5015  TIP3      H1             37.2674356609        1.3145672072       33.7304699028  TIP3      4615            0.0000000000
     63677      5015  TIP3      H2             37.4842271398        2.1884507284       32.5038775821  TIP3      4615            0.0000000000
     63678      5016  TIP3      OH2            40.1524199626       14.7222076228       37.2229238821  TIP3      4616            0.0000000000
     63679      5016  TIP3      H1             39.3123910933       14.9117456739       36.7855202102  TIP3      4616            0.0000000000
     63680      5016  TIP3      H2             39.8978950983       14.6507508863       38.1565445618  TIP3      4616            0.0000000000
     63681      5017  TIP3      OH2            43.0735965247       15.6963793055       33.4927569719  TIP3      4617            0.0000000000
     63682      5017  TIP3      H1             42.6953835048       16.5393380716       33.2057830120  TIP3      4617            0.0000000000
     63683      5017  TIP3      H2             43.9981750584       15.8025163260       33.1813155273  TIP3      4617            0.0000000000
     63684      5018  TIP3      OH2            47.3930162176       17.1161496958       36.4275799251  TIP3      4618            0.0000000000
     63685      5018  TIP3      H1             47.5711139506       16.7697298081       37.3304091986  TIP3      4618            0.0000000000
     63686      5018  TIP3      H2             48.2700693891       17.4262166150       36.1310685604  TIP3      4618            0.0000000000
     63687      5019  TIP3      OH2            49.7055666520       18.3843642004       35.7021882283  TIP3      4619            0.0000000000
     63688      5019  TIP3      H1             50.4251261369       17.7809516852       35.4568598296  TIP3      4619            0.0000000000
     63689      5019  TIP3      H2             50.0776891084       18.8099108551       36.4946067743  TIP3      4619            0.0000000000
     63690      5020  TIP3      OH2            54.6558558051        1.0017747869       34.8164558955  TIP3      4620            0.0000000000
     63691      5020  TIP3      H1             53.8414794624        1.3067024406       34.3810865410  TIP3      4620            0.0000000000
     63692      5020  TIP3      H2             54.8730853202        0.2126834233       34.2642298362  TIP3      4620            0.0000000000
     63693      5021  TIP3      OH2            40.5009646916       18.9534727748       33.5161832304  TIP3      4621            0.0000000000
     63694      5021  TIP3      H1             39.7650144290       19.4225858145       33.0872925787  TIP3      4621            0.0000000000
     63695      5021  TIP3      H2             40.1440852262       18.7277794109       34.3872240788  TIP3      4621            0.0000000000
     63696      5022  TIP3      OH2            42.9461257831       18.5146747138       32.5459627129  TIP3      4622            0.0000000000
     63697      5022  TIP3      H1             42.0724708757       18.6585504182       32.9705126533  TIP3      4622            0.0000000000
     63698      5022  TIP3      H2             42.9025188235       19.1234999555       31.7832835603  TIP3      4622            0.0000000000
     63699      5023  TIP3      OH2            47.6828133558       18.4341117883       31.7187187936  TIP3      4623            0.0000000000
     63700      5023  TIP3      H1             47.2016893903       18.9910531041       31.0912189001  TIP3      4623            0.0000000000
     63701      5023  TIP3      H2             47.8118531175       19.0651990135       32.4745172020  TIP3      4623            0.0000000000
     63702      5024  TIP3      OH2            49.9847188551       17.2907043423       32.7125434114  TIP3      4624            0.0000000000
     63703      5024  TIP3      H1             49.0904319504       17.5202269333       32.4109302189  TIP3      4624            0.0000000000
     63704      5024  TIP3      H2             50.4260660506       18.1533481236       32.6297581065  TIP3      4624            0.0000000000
     63705      5025  TIP3      OH2            52.5788982990       18.8690266959       32.9922685760  TIP3      4625            0.0000000000
     63706      5025  TIP3      H1             52.4387860043       19.8118994272       32.7513362465  TIP3      4625            0.0000000000
     63707      5025  TIP3      H2             52.7717636155       18.4630927305       32.1230064566  TIP3      4625            0.0000000000
     63708      5026  TIP3      OH2            39.9150937721       17.5971289018       30.4339250410  TIP3      4626            0.0000000000
     63709      5026  TIP3      H1             39.8778955616       17.1491379668       31.3061068516  TIP3      4626            0.0000000000
     63710      5026  TIP3      H2             40.7373199166       17.2476204326       30.0349568550  TIP3      4626            0.0000000000
     63711      5027  TIP3      OH2            42.0284592994       16.3094242447       29.0858234889  TIP3      4627            0.0000000000
     63712      5027  TIP3      H1             41.8421639819       15.3744695420       29.2889138889  TIP3      4627            0.0000000000
     63713      5027  TIP3      H2             42.8815517230       16.4420870004       29.5589221795  TIP3      4627            0.0000000000
     63714      5028  TIP3      OH2            44.5903245244       16.7879512816       29.9478644629  TIP3      4628            0.0000000000
     63715      5028  TIP3      H1             44.7972497141       15.8747569469       29.6771934370  TIP3      4628            0.0000000000
     63716      5028  TIP3      H2             44.6628657223       16.7269713953       30.9109413896  TIP3      4628            0.0000000000
     63717      5029  TIP3      OH2            48.0911922188        2.4396795374       29.1005339338  TIP3      4629            0.0000000000
     63718      5029  TIP3      H1             47.4138346799        1.7944761221       29.3574630914  TIP3      4629            0.0000000000
     63719      5029  TIP3      H2             48.6474796883        1.9287803494       28.4994626171  TIP3      4629            0.0000000000
     63720      5030  TIP3      OH2            53.2342730922        0.5077339725       29.2045040894  TIP3      4630            0.0000000000
     63721      5030  TIP3      H1             53.8413842664        1.0937611342       28.6836963391  TIP3      4630            0.0000000000
     63722      5030  TIP3      H2             52.3554348457        0.8538989767       28.9525639001  TIP3      4630            0.0000000000
     63723      5031  TIP3      OH2            54.9064036635        1.7128956995       27.5222612162  TIP3      4631            0.0000000000
     63724      5031  TIP3      H1             55.5667806209        1.1749477256       27.0160532230  TIP3      4631            0.0000000000
     63725      5031  TIP3      H2             55.3534645554        2.5831952653       27.5614430553  TIP3      4631            0.0000000000
     63726      5032  TIP3      OH2            40.4374978399        1.0768071542       26.9360553973  TIP3      4632            0.0000000000
     63727      5032  TIP3      H1             39.6498369563        0.8412586716       26.4070581055  TIP3      4632            0.0000000000
     63728      5032  TIP3      H2             40.9380850439        0.2397643408       26.9018926510  TIP3      4632            0.0000000000
     63729      5033  TIP3      OH2            39.2504308617        0.8338926054       22.7161154140  TIP3      4633            0.0000000000
     63730      5033  TIP3      H1             39.6782756348        1.4833522543       22.1176544227  TIP3      4633            0.0000000000
     63731      5033  TIP3      H2             38.6289173780        1.4030247156       23.1911884169  TIP3      4633            0.0000000000
     63732      5034  TIP3      OH2            44.9656351936        0.9855864055       26.7288342487  TIP3      4634            0.0000000000
     63733      5034  TIP3      H1             45.8613490755        1.3723701934       26.6857631906  TIP3      4634            0.0000000000
     63734      5034  TIP3      H2             44.8789281846        0.7798392010       27.6597333034  TIP3      4634            0.0000000000
     63735      5035  TIP3      OH2            50.5942463720        1.0229302347       28.3740953005  TIP3      4635            0.0000000000
     63736      5035  TIP3      H1             50.6256846466        1.1114331790       27.4143279885  TIP3      4635            0.0000000000
     63737      5035  TIP3      H2             50.2668685193        0.1016165943       28.4960140227  TIP3      4635            0.0000000000
     63738      5036  TIP3      OH2            51.8822627898        1.0562676286       24.1459110142  TIP3      4636            0.0000000000
     63739      5036  TIP3      H1             51.1893110238        1.6710732916       23.8633436211  TIP3      4636            0.0000000000
     63740      5036  TIP3      H2             51.4377373641        0.1955368881       24.2322802308  TIP3      4636            0.0000000000
     63741      5037  TIP3      OH2            39.1510796319       16.8019415103       23.6565223509  TIP3      4637            0.0000000000
     63742      5037  TIP3      H1             38.4925301726       16.7783194617       22.9517874017  TIP3      4637            0.0000000000
     63743      5037  TIP3      H2             39.1487869566       17.7468007465       23.8698346723  TIP3      4637            0.0000000000
     63744      5038  TIP3      OH2            41.1005729847        2.7701914471       21.1741826427  TIP3      4638            0.0000000000
     63745      5038  TIP3      H1             41.6141612214        2.1486217867       20.6343974598  TIP3      4638            0.0000000000
     63746      5038  TIP3      H2             41.7570459903        3.0735605613       21.8165865930  TIP3      4638            0.0000000000
     63747      5039  TIP3      OH2            46.0889370913        3.0457215405       23.6058897442  TIP3      4639            0.0000000000
     63748      5039  TIP3      H1             46.3368739269        2.4308147506       24.3030121013  TIP3      4639            0.0000000000
     63749      5039  TIP3      H2             46.1226653764        3.9012253623       24.0737451541  TIP3      4639            0.0000000000
     63750      5040  TIP3      OH2            48.0120443382       18.0012378787       22.0293888785  TIP3      4640            0.0000000000
     63751      5040  TIP3      H1             48.8935365018       18.3702775347       21.8221811781  TIP3      4640            0.0000000000
     63752      5040  TIP3      H2             47.7932811725       17.6052072360       21.1813415211  TIP3      4640            0.0000000000
     63753      5041  TIP3      OH2            54.6924822805       17.5881130784       24.7014678547  TIP3      4641            0.0000000000
     63754      5041  TIP3      H1             54.5331536410       16.8046926475       24.1257351146  TIP3      4641            0.0000000000
     63755      5041  TIP3      H2             54.6777605683       18.3360988453       24.0829540606  TIP3      4641            0.0000000000
     63756      5042  TIP3      OH2            40.3516204178        1.5997205174       36.4086992208  TIP3      4642            0.0000000000
     63757      5042  TIP3      H1             39.9952355645        0.8083605344       36.8564447163  TIP3      4642            0.0000000000
     63758      5042  TIP3      H2             41.2812925646        1.5890540578       36.7454677619  TIP3      4642            0.0000000000
     63759      5043  TIP3      OH2            42.3532361570        0.9742675074       38.0007751378  TIP3      4643            0.0000000000
     63760      5043  TIP3      H1             43.2492165946        0.6426911822       37.7877219298  TIP3      4643            0.0000000000
     63761      5043  TIP3      H2             41.9704652770        0.1843171362       38.4377420503  TIP3      4643            0.0000000000
     63762      5044  TIP3      OH2            40.9633090091       17.7403997625       20.6370483301  TIP3      4644            0.0000000000
     63763      5044  TIP3      H1             40.6993576934       18.0284188346       21.5200555769  TIP3      4644            0.0000000000
     63764      5044  TIP3      H2             41.7331666708       17.1828420656       20.7983628565  TIP3      4644            0.0000000000
     63765      5045  TIP3      OH2            50.7540844661        0.2781833716       38.1643401545  TIP3      4645            0.0000000000
     63766      5045  TIP3      H1             50.8527749111       -0.1819646209       39.0192182144  TIP3      4645            0.0000000000
     63767      5045  TIP3      H2             51.6694061780        0.2616989885       37.8203904607  TIP3      4645            0.0000000000
     63768      5046  TIP3      OH2            53.9632895167       16.3294001900       36.8588197840  TIP3      4646            0.0000000000
     63769      5046  TIP3      H1             53.1728563758       16.1602874111       36.3015425105  TIP3      4646            0.0000000000
     63770      5046  TIP3      H2             53.8574886624       17.2787280604       37.0427288049  TIP3      4646            0.0000000000
     63771      5047  TIP3      OH2           -44.7603259726       29.0597946921       26.8460571071  TIP3      4647            0.0000000000
     63772      5047  TIP3      H1            -44.7116209329       30.0367835010       26.7549577562  TIP3      4647            0.0000000000
     63773      5047  TIP3      H2            -45.4430572878       28.8224949216       26.2227903729  TIP3      4647            0.0000000000
     63774      5048  TIP3      OH2           -45.8646477450       28.3338890852       30.2976317188  TIP3      4648            0.0000000000
     63775      5048  TIP3      H1            -45.8920195056       27.6781301822       31.0039615681  TIP3      4648            0.0000000000
     63776      5048  TIP3      H2            -46.1925347116       27.8446567726       29.5267807173  TIP3      4648            0.0000000000
     63777      5049  TIP3      OH2           -53.5080698265       27.9700538023       31.8623321593  TIP3      4649            0.0000000000
     63778      5049  TIP3      H1            -53.4321616674       27.3144867508       32.5903660022  TIP3      4649            0.0000000000
     63779      5049  TIP3      H2            -52.7759104363       28.5663506971       32.0739045289  TIP3      4649            0.0000000000
     63780      5050  TIP3      OH2           -42.1583738788       31.2647775619       28.5829009861  TIP3      4650            0.0000000000
     63781      5050  TIP3      H1            -42.5959661849       30.5520049514       29.0600480341  TIP3      4650            0.0000000000
     63782      5050  TIP3      H2            -42.1548431995       31.9816116626       29.2453656099  TIP3      4650            0.0000000000
     63783      5051  TIP3      OH2           -52.5831613761       32.4268293192       30.4030036045  TIP3      4651            0.0000000000
     63784      5051  TIP3      H1            -52.9169227830       31.5832153433       30.0463992379  TIP3      4651            0.0000000000
     63785      5051  TIP3      H2            -51.6305505214       32.2319073299       30.4453877552  TIP3      4651            0.0000000000
     63786      5052  TIP3      OH2           -55.9223573977       25.9978170138       25.8323148707  TIP3      4652            0.0000000000
     63787      5052  TIP3      H1            -56.3640334221       26.8851533148       25.7807313025  TIP3      4652            0.0000000000
     63788      5052  TIP3      H2            -56.5146472174       25.4741393995       25.2852199159  TIP3      4652            0.0000000000
     63789      5053  TIP3      OH2           -55.2443618014       28.2275201819       27.9541767628  TIP3      4653            0.0000000000
     63790      5053  TIP3      H1            -55.0097649268       27.4230404001       28.4503158837  TIP3      4653            0.0000000000
     63791      5053  TIP3      H2            -54.5062310055       28.3129760218       27.3369571266  TIP3      4653            0.0000000000
     63792      5054  TIP3      OH2           -44.6031249432       36.5382025771       28.9907707244  TIP3      4654            0.0000000000
     63793      5054  TIP3      H1            -44.2958945401       35.7115913834       28.5322141081  TIP3      4654            0.0000000000
     63794      5054  TIP3      H2            -45.0993791667       36.2103423738       29.7244921678  TIP3      4654            0.0000000000
     63795      5055  TIP3      OH2           -47.4838396338       30.7617002403       30.7189665794  TIP3      4655            0.0000000000
     63796      5055  TIP3      H1            -47.1565627162       30.0787634926       30.1075889987  TIP3      4655            0.0000000000
     63797      5055  TIP3      H2            -46.7173212160       30.8708657386       31.3090633581  TIP3      4655            0.0000000000
     63798      5056  TIP3      OH2           -38.8463080644       22.3594544653       31.5339724106  TIP3      4656            0.0000000000
     63799      5056  TIP3      H1            -38.7325763996       22.9798732999       32.2859363475  TIP3      4656            0.0000000000
     63800      5056  TIP3      H2            -38.3528022926       22.8201377088       30.8386890313  TIP3      4656            0.0000000000
     63801      5057  TIP3      OH2           -44.3267884250       25.1833920900       31.0623781392  TIP3      4657            0.0000000000
     63802      5057  TIP3      H1            -44.1771206447       24.2178677228       31.0552643073  TIP3      4657            0.0000000000
     63803      5057  TIP3      H2            -44.4310893631       25.3463495762       30.1021807653  TIP3      4657            0.0000000000
     63804      5058  TIP3      OH2           -51.1858350182       23.2662286824       28.3096933684  TIP3      4658            0.0000000000
     63805      5058  TIP3      H1            -51.1197509056       24.1218927947       27.8545632462  TIP3      4658            0.0000000000
     63806      5058  TIP3      H2            -51.6221107602       22.7048533532       27.6378442365  TIP3      4658            0.0000000000
     63807      5059  TIP3      OH2           -43.4649629857       23.3752164566       26.6879200884  TIP3      4659            0.0000000000
     63808      5059  TIP3      H1            -42.7962375405       23.0556591188       27.3386145986  TIP3      4659            0.0000000000
     63809      5059  TIP3      H2            -42.9235381159       23.9178395774       26.0956026568  TIP3      4659            0.0000000000
     63810      5060  TIP3      OH2           -54.5724686890       25.6772327213       29.0506817843  TIP3      4660            0.0000000000
     63811      5060  TIP3      H1            -53.8977610901       25.1150995864       29.4892057099  TIP3      4660            0.0000000000
     63812      5060  TIP3      H2            -54.5027873062       25.3703507735       28.1332839565  TIP3      4660            0.0000000000
     63813      5061  TIP3      OH2           -49.4024925347       27.2322846388       28.3100364653  TIP3      4661            0.0000000000
     63814      5061  TIP3      H1            -48.7695109662       26.6640362826       28.7749798336  TIP3      4661            0.0000000000
     63815      5061  TIP3      H2            -49.9663705294       26.5693850741       27.8579680746  TIP3      4661            0.0000000000
     63816      5062  TIP3      OH2           -38.4198616071       23.8179778295       33.7803815883  TIP3      4662            0.0000000000
     63817      5062  TIP3      H1            -39.0901717962       24.5262594465       33.6925080236  TIP3      4662            0.0000000000
     63818      5062  TIP3      H2            -38.4034459964       23.6648025921       34.7340988729  TIP3      4662            0.0000000000
     63819      5063  TIP3      OH2           -52.3318875110       22.1697912637       32.3605420664  TIP3      4663            0.0000000000
     63820      5063  TIP3      H1            -52.5849358222       22.7273317019       31.5998622608  TIP3      4663            0.0000000000
     63821      5063  TIP3      H2            -53.0197481776       22.4127863728       33.0284448173  TIP3      4663            0.0000000000
     63822      5064  TIP3      OH2           -45.0059704527       31.6627611107       25.9185014820  TIP3      4664            0.0000000000
     63823      5064  TIP3      H1            -45.2854211967       31.3724252575       25.0437532500  TIP3      4664            0.0000000000
     63824      5064  TIP3      H2            -45.3128654255       32.5888154856       25.9517303537  TIP3      4664            0.0000000000
     63825      5065  TIP3      OH2           -49.7859107960       29.8265819824       32.6300609544  TIP3      4665            0.0000000000
     63826      5065  TIP3      H1            -50.5182079793       30.4630377775       32.7811105534  TIP3      4665            0.0000000000
     63827      5065  TIP3      H2            -49.0808053068       30.4173975755       32.3272075994  TIP3      4665            0.0000000000
     63828      5066  TIP3      OH2           -41.6864296297       22.6937948096       28.6723790304  TIP3      4666            0.0000000000
     63829      5066  TIP3      H1            -41.8916246155       21.9226474579       29.2113191920  TIP3      4666            0.0000000000
     63830      5066  TIP3      H2            -41.0137197826       23.1471045520       29.2082978646  TIP3      4666            0.0000000000
     63831      5067  TIP3      OH2           -52.7731553376       24.0510567097       30.3469137369  TIP3      4667            0.0000000000
     63832      5067  TIP3      H1            -52.1341380405       24.7098385734       30.6993732987  TIP3      4667            0.0000000000
     63833      5067  TIP3      H2            -52.2323741126       23.6044210111       29.6511712877  TIP3      4667            0.0000000000
     63834      5068  TIP3      OH2           -51.3580561315       31.8067466354       33.4231073794  TIP3      4668            0.0000000000
     63835      5068  TIP3      H1            -51.3927023352       32.7159010815       33.0676130020  TIP3      4668            0.0000000000
     63836      5068  TIP3      H2            -52.2414230023       31.7370622501       33.8641828120  TIP3      4668            0.0000000000
     63837      5069  TIP3      OH2           -55.2359114759       31.4659614038       24.2152638272  TIP3      4669            0.0000000000
     63838      5069  TIP3      H1            -55.5418722971       31.7251800837       23.3227334541  TIP3      4669            0.0000000000
     63839      5069  TIP3      H2            -55.2029401053       32.3200120684       24.6902129229  TIP3      4669            0.0000000000
     63840      5070  TIP3      OH2           -41.6414551003       33.0991781481       30.9421760123  TIP3      4670            0.0000000000
     63841      5070  TIP3      H1            -42.6015803478       33.1887597038       31.0972923488  TIP3      4670            0.0000000000
     63842      5070  TIP3      H2            -41.3647689792       34.0249131608       30.7875733253  TIP3      4670            0.0000000000
     63843      5071  TIP3      OH2           -41.3328566949       21.3926503453       32.3573162510  TIP3      4671            0.0000000000
     63844      5071  TIP3      H1            -42.0680831923       22.0156899756       32.2960091030  TIP3      4671            0.0000000000
     63845      5071  TIP3      H2            -40.6366977569       21.8147085050       31.8234655873  TIP3      4671            0.0000000000
     63846      5072  TIP3      OH2           -48.3280990804       19.4798448651       29.7764602957  TIP3      4672            0.0000000000
     63847      5072  TIP3      H1            -48.5001959704       18.5238197457       29.7885446520  TIP3      4672            0.0000000000
     63848      5072  TIP3      H2            -49.1998096219       19.8196225804       30.1088119703  TIP3      4672            0.0000000000
     63849      5073  TIP3      OH2           -43.4305568679       34.8713928024       27.5411324358  TIP3      4673            0.0000000000
     63850      5073  TIP3      H1            -42.9433248629       34.1686304346       27.0559479006  TIP3      4673            0.0000000000
     63851      5073  TIP3      H2            -43.0139772969       35.6802828564       27.1491067361  TIP3      4673            0.0000000000
     63852      5074  TIP3      OH2           -42.2150300822       32.8238801893       26.0827352385  TIP3      4674            0.0000000000
     63853      5074  TIP3      H1            -42.4713863565       32.1121684858       25.4628931441  TIP3      4674            0.0000000000
     63854      5074  TIP3      H2            -42.1467846081       32.3281694404       26.9162112508  TIP3      4674            0.0000000000
     63855      5075  TIP3      OH2           -40.5499937882       31.3806661569       34.5614198891  TIP3      4675            0.0000000000
     63856      5075  TIP3      H1            -40.4054210751       30.7593694582       33.8147921674  TIP3      4675            0.0000000000
     63857      5075  TIP3      H2            -40.3698327660       32.2463181329       34.1637079513  TIP3      4675            0.0000000000
     63858      5076  TIP3      OH2           -38.6863905237       27.6989542921       32.6195428040  TIP3      4676            0.0000000000
     63859      5076  TIP3      H1            -39.3499203712       28.4150879379       32.6809493177  TIP3      4676            0.0000000000
     63860      5076  TIP3      H2            -38.2164557426       27.9302898300       31.7982767074  TIP3      4676            0.0000000000
     63861      5077  TIP3      OH2           -42.6557176289       28.5276184971       25.2563125425  TIP3      4677            0.0000000000
     63862      5077  TIP3      H1            -43.3827652510       28.7609629531       25.8707497438  TIP3      4677            0.0000000000
     63863      5077  TIP3      H2            -42.1833523897       27.8260785072       25.7409419894  TIP3      4677            0.0000000000
     63864      5078  TIP3      OH2           -42.7192811143       26.6814264325       34.3521479342  TIP3      4678            0.0000000000
     63865      5078  TIP3      H1            -42.6901107307       27.4835211470       34.9028369024  TIP3      4678            0.0000000000
     63866      5078  TIP3      H2            -43.3530620512       26.9845901555       33.6636331275  TIP3      4678            0.0000000000
     63867      5079  TIP3      OH2           -51.0149217730       29.1784864256       27.1637850195  TIP3      4679            0.0000000000
     63868      5079  TIP3      H1            -51.3477047764       28.7824883980       26.3216164369  TIP3      4679            0.0000000000
     63869      5079  TIP3      H2            -50.4112988647       28.4788829989       27.5010320600  TIP3      4679            0.0000000000
     63870      5080  TIP3      OH2           -49.6568029351       32.6046548364       29.8370542949  TIP3      4680            0.0000000000
     63871      5080  TIP3      H1            -49.7321965584       32.0113474701       29.0740902479  TIP3      4680            0.0000000000
     63872      5080  TIP3      H2            -48.9185036310       32.1944254770       30.3221574246  TIP3      4680            0.0000000000
     63873      5081  TIP3      OH2           -50.6660611957       27.9191784147       30.8026766607  TIP3      4681            0.0000000000
     63874      5081  TIP3      H1            -50.0920002413       28.0450042367       30.0239336923  TIP3      4681            0.0000000000
     63875      5081  TIP3      H2            -50.3143664728       28.5779749727       31.4337138202  TIP3      4681            0.0000000000
     63876      5082  TIP3      OH2           -44.3222433340       33.4728767682       31.5032580904  TIP3      4682            0.0000000000
     63877      5082  TIP3      H1            -44.5624008744       34.0975303398       32.1906614812  TIP3      4682            0.0000000000
     63878      5082  TIP3      H2            -44.5294256358       32.6090434399       31.9556297309  TIP3      4682            0.0000000000
     63879      5083  TIP3      OH2           -49.7422347795       32.3328821704       35.5143154595  TIP3      4683            0.0000000000
     63880      5083  TIP3      H1            -50.1053550373       33.1078066808       35.9839326143  TIP3      4683            0.0000000000
     63881      5083  TIP3      H2            -50.4205322350       32.1634821917       34.8153006503  TIP3      4683            0.0000000000
     63882      5084  TIP3      OH2           -43.8174323934       27.7233074894       22.9425065591  TIP3      4684            0.0000000000
     63883      5084  TIP3      H1            -43.2089742712       27.8532141474       23.7150819500  TIP3      4684            0.0000000000
     63884      5084  TIP3      H2            -43.3393986477       28.1836258656       22.2383429524  TIP3      4684            0.0000000000
     63885      5085  TIP3      OH2           -52.8193632645       28.5160359503       34.7035904260  TIP3      4685            0.0000000000
     63886      5085  TIP3      H1            -52.7788233050       29.1805463543       35.4237370641  TIP3      4685            0.0000000000
     63887      5085  TIP3      H2            -53.7414065664       28.6276273060       34.4260126195  TIP3      4685            0.0000000000
     63888      5086  TIP3      OH2           -46.0860992041       34.4313403288       26.4269924862  TIP3      4686            0.0000000000
     63889      5086  TIP3      H1            -45.5409613187       34.7116087121       27.1453624871  TIP3      4686            0.0000000000
     63890      5086  TIP3      H2            -46.6143427360       35.1764098967       26.1231847093  TIP3      4686            0.0000000000
     63891      5087  TIP3      OH2           -51.5129382941       34.3956521775       36.2739817064  TIP3      4687            0.0000000000
     63892      5087  TIP3      H1            -51.5270966317       34.2714171764       35.3113838967  TIP3      4687            0.0000000000
     63893      5087  TIP3      H2            -52.4487930955       34.2736969516       36.5232182713  TIP3      4687            0.0000000000
     63894      5088  TIP3      OH2           -40.0622476827       19.4497302578       22.8033638445  TIP3      4688            0.0000000000
     63895      5088  TIP3      H1            -41.0034864449       19.5762446694       23.0509321394  TIP3      4688            0.0000000000
     63896      5088  TIP3      H2            -39.8636710572       20.2758845753       22.3577988045  TIP3      4688            0.0000000000
     63897      5089  TIP3      OH2           -52.0054781974       28.2130233499       24.7526364706  TIP3      4689            0.0000000000
     63898      5089  TIP3      H1            -52.3211458062       28.9975845602       24.2508778579  TIP3      4689            0.0000000000
     63899      5089  TIP3      H2            -52.7039733943       27.5736718047       24.5726201215  TIP3      4689            0.0000000000
     63900      5090  TIP3      OH2           -55.9021351893       30.6226514283       33.5943283042  TIP3      4690            0.0000000000
     63901      5090  TIP3      H1            -56.4162060852       30.5548524410       32.7659435706  TIP3      4690            0.0000000000
     63902      5090  TIP3      H2            -55.9095457146       29.6793188836       33.8687101248  TIP3      4690            0.0000000000
     63903      5091  TIP3      OH2           -56.1970816077       33.3684422076       30.4426269967  TIP3      4691            0.0000000000
     63904      5091  TIP3      H1            -55.2377716674       33.2353174095       30.4322313511  TIP3      4691            0.0000000000
     63905      5091  TIP3      H2            -56.2879292256       34.1669729892       30.9731185480  TIP3      4691            0.0000000000
     63906      5092  TIP3      OH2           -37.9594561674       34.0538182558       36.1137367392  TIP3      4692            0.0000000000
     63907      5092  TIP3      H1            -38.0532571939       33.0901523383       36.1069124704  TIP3      4692            0.0000000000
     63908      5092  TIP3      H2            -38.8194535789       34.3026897765       36.5376789927  TIP3      4692            0.0000000000
     63909      5093  TIP3      OH2           -46.9958976652       33.6049639493       34.9957468091  TIP3      4693            0.0000000000
     63910      5093  TIP3      H1            -46.9233619436       34.4477224931       35.5012676618  TIP3      4693            0.0000000000
     63911      5093  TIP3      H2            -47.8728109582       33.2670681813       35.2556451793  TIP3      4693            0.0000000000
     63912      5094  TIP3      OH2           -46.5881032941       37.3628426717       24.8174973554  TIP3      4694            0.0000000000
     63913      5094  TIP3      H1            -46.6527367898       37.2805405113       23.8570438966  TIP3      4694            0.0000000000
     63914      5094  TIP3      H2            -46.5424598197       38.3354247530       24.9278968115  TIP3      4694            0.0000000000
     63915      5095  TIP3      OH2           -52.9319170765       36.2102861899       26.5946971130  TIP3      4695            0.0000000000
     63916      5095  TIP3      H1            -52.7793657834       35.8111616712       27.4829988201  TIP3      4695            0.0000000000
     63917      5095  TIP3      H2            -53.7823077188       35.8080629619       26.3575900058  TIP3      4695            0.0000000000
     63918      5096  TIP3      OH2           -43.8194426249       36.5028513326       24.5980899074  TIP3      4696            0.0000000000
     63919      5096  TIP3      H1            -44.7698467986       36.5581360634       24.7325473126  TIP3      4696            0.0000000000
     63920      5096  TIP3      H2            -43.5404279410       35.7446217517       25.1218851677  TIP3      4696            0.0000000000
     63921      5097  TIP3      OH2           -40.8219802106       25.5363015007       36.6092392012  TIP3      4697            0.0000000000
     63922      5097  TIP3      H1            -41.2577324396       26.0036899872       35.8821604671  TIP3      4697            0.0000000000
     63923      5097  TIP3      H2            -40.8024325950       24.6192201475       36.2957024945  TIP3      4697            0.0000000000
     63924      5098  TIP3      OH2           -53.6779747115       31.9410577538       34.6062343065  TIP3      4698            0.0000000000
     63925      5098  TIP3      H1            -53.4669787572       31.5528047673       35.4798194607  TIP3      4698            0.0000000000
     63926      5098  TIP3      H2            -54.5404321026       31.5374212722       34.3870472223  TIP3      4698            0.0000000000
     63927      5099  TIP3      OH2           -51.0107700009       20.3877190198       30.5767287966  TIP3      4699            0.0000000000
     63928      5099  TIP3      H1            -51.9177817133       20.3004178343       30.1958738593  TIP3      4699            0.0000000000
     63929      5099  TIP3      H2            -51.0969526517       21.2424304167       31.0323547799  TIP3      4699            0.0000000000
     63930      5100  TIP3      OH2           -46.3714320445       20.1015597417       33.9496450828  TIP3      4700            0.0000000000
     63931      5100  TIP3      H1            -45.9689528342       19.6773713725       34.7285524907  TIP3      4700            0.0000000000
     63932      5100  TIP3      H2            -47.3378196432       19.9393591822       34.0867187455  TIP3      4700            0.0000000000
     63933      5101  TIP3      OH2           -43.0606539547       23.8884973197       34.8207312362  TIP3      4701            0.0000000000
     63934      5101  TIP3      H1            -43.6039647587       23.7217183573       35.6282466130  TIP3      4701            0.0000000000
     63935      5101  TIP3      H2            -43.2328589777       24.8106371901       34.5839783262  TIP3      4701            0.0000000000
     63936      5102  TIP3      OH2           -50.9278513623       25.3544449646       31.7439518704  TIP3      4702            0.0000000000
     63937      5102  TIP3      H1            -51.6239204660       25.3314786525       32.4269635727  TIP3      4702            0.0000000000
     63938      5102  TIP3      H2            -50.9368946811       26.2920988239       31.4491596469  TIP3      4702            0.0000000000
     63939      5103  TIP3      OH2           -50.9573778389       25.5430826587       26.6525704420  TIP3      4703            0.0000000000
     63940      5103  TIP3      H1            -51.8760930790       25.2323986556       26.5364027185  TIP3      4703            0.0000000000
     63941      5103  TIP3      H2            -50.5341785433       25.2026766913       25.8416496583  TIP3      4703            0.0000000000
     63942      5104  TIP3      OH2           -45.4386715489       25.9995961447       25.4225258710  TIP3      4704            0.0000000000
     63943      5104  TIP3      H1            -45.8330943755       26.8146241626       25.1249268175  TIP3      4704            0.0000000000
     63944      5104  TIP3      H2            -44.7084678005       25.8372765129       24.7974446798  TIP3      4704            0.0000000000
     63945      5105  TIP3      OH2           -46.3379350964       26.1945666156       36.8980651842  TIP3      4705            0.0000000000
     63946      5105  TIP3      H1            -46.8934924250       25.4440687672       37.2206995945  TIP3      4705            0.0000000000
     63947      5105  TIP3      H2            -45.5063829738       26.0586949645       37.3794464844  TIP3      4705            0.0000000000
     63948      5106  TIP3      OH2           -44.4099316116       25.4627212762       28.2698971588  TIP3      4706            0.0000000000
     63949      5106  TIP3      H1            -44.6372529451       26.0405164062       27.5219880616  TIP3      4706            0.0000000000
     63950      5106  TIP3      H2            -44.2593039413       24.6130947811       27.8040006558  TIP3      4706            0.0000000000
     63951      5107  TIP3      OH2           -53.2373931321       25.6634894680       33.5300024495  TIP3      4707            0.0000000000
     63952      5107  TIP3      H1            -53.2405003586       26.0601798068       34.4170328801  TIP3      4707            0.0000000000
     63953      5107  TIP3      H2            -53.7078279153       24.8295881073       33.6760444031  TIP3      4707            0.0000000000
     63954      5108  TIP3      OH2           -56.6032281415       22.7955838974       27.4276881498  TIP3      4708            0.0000000000
     63955      5108  TIP3      H1            -55.9558847790       22.7410371300       28.1582793364  TIP3      4708            0.0000000000
     63956      5108  TIP3      H2            -56.1601621848       22.3619616056       26.6781390624  TIP3      4708            0.0000000000
     63957      5109  TIP3      OH2           -55.3021176659       23.4646705714       22.8111575000  TIP3      4709            0.0000000000
     63958      5109  TIP3      H1            -54.8762061751       24.1334357845       22.2546228198  TIP3      4709            0.0000000000
     63959      5109  TIP3      H2            -56.0244177019       24.0542082399       23.1742509087  TIP3      4709            0.0000000000
     63960      5110  TIP3      OH2           -45.1714928384       27.0858565671       32.8864017175  TIP3      4710            0.0000000000
     63961      5110  TIP3      H1            -44.8253683024       26.4188500329       32.2643290259  TIP3      4710            0.0000000000
     63962      5110  TIP3      H2            -45.6207689620       26.5402643759       33.5563655478  TIP3      4710            0.0000000000
     63963      5111  TIP3      OH2           -48.3814656463       23.0000041973       27.6885664089  TIP3      4711            0.0000000000
     63964      5111  TIP3      H1            -49.3182307519       23.0672308521       27.9866647926  TIP3      4711            0.0000000000
     63965      5111  TIP3      H2            -47.8886965409       22.9337077692       28.5158027384  TIP3      4711            0.0000000000
     63966      5112  TIP3      OH2           -53.5675939980       24.6148466096       26.5441506442  TIP3      4712            0.0000000000
     63967      5112  TIP3      H1            -54.4629039204       24.7417258855       26.1741274462  TIP3      4712            0.0000000000
     63968      5112  TIP3      H2            -53.2754310687       23.7748994247       26.1686215157  TIP3      4712            0.0000000000
     63969      5113  TIP3      OH2           -49.9294093166       24.6408174407       24.1758900695  TIP3      4713            0.0000000000
     63970      5113  TIP3      H1            -48.9744295814       24.7461440564       24.3618852000  TIP3      4713            0.0000000000
     63971      5113  TIP3      H2            -50.1442686522       25.3149649572       23.5200043718  TIP3      4713            0.0000000000
     63972      5114  TIP3      OH2           -43.9750938505       22.2470096992       30.9423434428  TIP3      4714            0.0000000000
     63973      5114  TIP3      H1            -44.6647494454       22.3624673455       31.6305928731  TIP3      4714            0.0000000000
     63974      5114  TIP3      H2            -44.4775872510       22.0728636850       30.1415855089  TIP3      4714            0.0000000000
     63975      5115  TIP3      OH2           -51.2138799466       25.8026752530       21.7640743223  TIP3      4715            0.0000000000
     63976      5115  TIP3      H1            -51.7839211683       25.4895917387       21.0469991179  TIP3      4715            0.0000000000
     63977      5115  TIP3      H2            -50.4137209053       26.0192683441       21.2948339438  TIP3      4715            0.0000000000
     63978      5116  TIP3      OH2           -40.7405117384       37.9150428603       37.2583148039  TIP3      4716            0.0000000000
     63979      5116  TIP3      H1            -40.4920451632       38.3248940853       36.4065575789  TIP3      4716            0.0000000000
     63980      5116  TIP3      H2            -40.0369755050       38.2522129119       37.8423447853  TIP3      4716            0.0000000000
     63981      5117  TIP3      OH2           -53.0879178461       30.3897863679       36.8258470733  TIP3      4717            0.0000000000
     63982      5117  TIP3      H1            -52.3667427820       30.6378492324       37.4325851269  TIP3      4717            0.0000000000
     63983      5117  TIP3      H2            -53.8861014557       30.5531839581       37.3805931117  TIP3      4717            0.0000000000
     63984      5118  TIP3      OH2           -47.0876024802       25.8012219266       29.5720825721  TIP3      4718            0.0000000000
     63985      5118  TIP3      H1            -46.5003561572       25.2484795505       29.0427041034  TIP3      4718            0.0000000000
     63986      5118  TIP3      H2            -47.2252644446       25.2660402716       30.3667473955  TIP3      4718            0.0000000000
     63987      5119  TIP3      OH2           -52.0897618441       21.9473244535       25.9864486326  TIP3      4719            0.0000000000
     63988      5119  TIP3      H1            -52.3880458179       21.0174448465       25.9869224882  TIP3      4719            0.0000000000
     63989      5119  TIP3      H2            -51.2753918199       21.9038353907       25.4659885028  TIP3      4719            0.0000000000
     63990      5120  TIP3      OH2           -48.4461541188       24.1523635977       31.9889302085  TIP3      4720            0.0000000000
     63991      5120  TIP3      H1            -49.2832506775       24.6441873456       32.0990021014  TIP3      4720            0.0000000000
     63992      5120  TIP3      H2            -47.9092988629       24.4711597601       32.7417549466  TIP3      4720            0.0000000000
     63993      5121  TIP3      OH2           -40.7197436810       29.5313304745       32.4880710366  TIP3      4721            0.0000000000
     63994      5121  TIP3      H1            -40.1149322179       30.0053566854       31.8934234565  TIP3      4721            0.0000000000
     63995      5121  TIP3      H2            -41.5682462056       29.6302921898       32.0061668337  TIP3      4721            0.0000000000
     63996      5122  TIP3      OH2           -46.3779985839       30.5918222291       34.9204316453  TIP3      4722            0.0000000000
     63997      5122  TIP3      H1            -46.7229950476       30.1959191687       35.7284788937  TIP3      4722            0.0000000000
     63998      5122  TIP3      H2            -46.5970939515       31.5242992583       35.0069333130  TIP3      4722            0.0000000000
     63999      5123  TIP3      OH2           -43.2915293047       25.0739431434       23.5477953506  TIP3      4723            0.0000000000
     64000      5123  TIP3      H1            -42.3839121584       24.9416946046       23.8733455374  TIP3      4723            0.0000000000
     64001      5123  TIP3      H2            -43.2234919319       25.8641746692       22.9931806804  TIP3      4723            0.0000000000
     64002      5124  TIP3      OH2           -52.7623017419       29.7255044872       29.4684067905  TIP3      4724            0.0000000000
     64003      5124  TIP3      H1            -52.0413394119       29.6775472761       28.8158038467  TIP3      4724            0.0000000000
     64004      5124  TIP3      H2            -52.6966458312       28.8688853470       29.9283817378  TIP3      4724            0.0000000000
     64005      5125  TIP3      OH2           -45.7793305711       31.8183727470       22.7269318605  TIP3      4725            0.0000000000
     64006      5125  TIP3      H1            -46.0763232061       32.6866363833       23.0769630243  TIP3      4725            0.0000000000
     64007      5125  TIP3      H2            -46.4996157820       31.2477791435       22.9360827057  TIP3      4725            0.0000000000
     64008      5126  TIP3      OH2           -55.7598852814       28.1619704571       34.7617666193  TIP3      4726            0.0000000000
     64009      5126  TIP3      H1            -55.5620242444       27.7193883755       35.6069659155  TIP3      4726            0.0000000000
     64010      5126  TIP3      H2            -56.3772053470       27.5404464302       34.3271049969  TIP3      4726            0.0000000000
     64011      5127  TIP3      OH2           -48.7553101793       27.6920957301       36.9681144674  TIP3      4727            0.0000000000
     64012      5127  TIP3      H1            -49.0530269198       27.4654816341       36.0763268398  TIP3      4727            0.0000000000
     64013      5127  TIP3      H2            -47.8148259342       27.4244436871       36.9510371724  TIP3      4727            0.0000000000
     64014      5128  TIP3      OH2           -44.0990294639       33.0369648779       34.8598065359  TIP3      4728            0.0000000000
     64015      5128  TIP3      H1            -45.0229302023       33.2274128103       34.6235340162  TIP3      4728            0.0000000000
     64016      5128  TIP3      H2            -44.1041371446       33.3165833973       35.7975219544  TIP3      4728            0.0000000000
     64017      5129  TIP3      OH2           -38.4065686772       25.2577031744       23.2738187283  TIP3      4729            0.0000000000
     64018      5129  TIP3      H1            -38.9550410362       24.9067464729       22.5380397349  TIP3      4729            0.0000000000
     64019      5129  TIP3      H2            -38.3037029941       26.1742447890       22.9632682073  TIP3      4729            0.0000000000
     64020      5130  TIP3      OH2           -38.4193376358       31.0889248288       36.0890898966  TIP3      4730            0.0000000000
     64021      5130  TIP3      H1            -39.2999983209       31.3181640609       35.7047537137  TIP3      4730            0.0000000000
     64022      5130  TIP3      H2            -37.8498754288       31.0627095031       35.2965168593  TIP3      4730            0.0000000000
     64023      5131  TIP3      OH2           -40.0867891850       34.0685942286       23.6938754882  TIP3      4731            0.0000000000
     64024      5131  TIP3      H1            -40.4802213650       33.2408410401       24.0015105054  TIP3      4731            0.0000000000
     64025      5131  TIP3      H2            -39.8348674488       33.8766964937       22.7749078193  TIP3      4731            0.0000000000
     64026      5132  TIP3      OH2           -42.9222857322       28.8840010026       30.7480386661  TIP3      4732            0.0000000000
     64027      5132  TIP3      H1            -43.8653249115       28.6490483472       30.6805737501  TIP3      4732            0.0000000000
     64028      5132  TIP3      H2            -42.4867021123       28.0993082939       30.3693054185  TIP3      4732            0.0000000000
     64029      5133  TIP3      OH2           -50.3906264693       33.2030038201       26.8756028317  TIP3      4733            0.0000000000
     64030      5133  TIP3      H1            -49.8878318696       33.9949200363       26.6467807802  TIP3      4733            0.0000000000
     64031      5133  TIP3      H2            -51.2755107033       33.4293647068       26.5476151103  TIP3      4733            0.0000000000
     64032      5134  TIP3      OH2           -54.5484162743       27.9397350135       21.7296787376  TIP3      4734            0.0000000000
     64033      5134  TIP3      H1            -54.0009728233       28.7322017344       21.8201844236  TIP3      4734            0.0000000000
     64034      5134  TIP3      H2            -55.4452380654       28.3694470417       21.6882049116  TIP3      4734            0.0000000000
     64035      5135  TIP3      OH2           -48.9503004502       30.8675335449       26.4275963232  TIP3      4735            0.0000000000
     64036      5135  TIP3      H1            -49.2474487731       31.7896985742       26.4726503878  TIP3      4735            0.0000000000
     64037      5135  TIP3      H2            -49.7100632429       30.4016512245       26.8305550867  TIP3      4735            0.0000000000
     64038      5136  TIP3      OH2           -48.4844758252       35.0270998524       32.7475382997  TIP3      4736            0.0000000000
     64039      5136  TIP3      H1            -48.0826022477       35.8771974244       32.5259097357  TIP3      4736            0.0000000000
     64040      5136  TIP3      H2            -47.9201758754       34.7223566856       33.4886833858  TIP3      4736            0.0000000000
     64041      5137  TIP3      OH2           -50.2572182695       35.8731102474       25.9779537128  TIP3      4737            0.0000000000
     64042      5137  TIP3      H1            -51.2378223841       35.9934832076       26.0389511971  TIP3      4737            0.0000000000
     64043      5137  TIP3      H2            -49.9466755817       36.7282359317       26.3089201798  TIP3      4737            0.0000000000
     64044      5138  TIP3      OH2           -44.9409999626       31.0956870010       32.4339858596  TIP3      4738            0.0000000000
     64045      5138  TIP3      H1            -45.3345548816       30.8791577066       33.3004441322  TIP3      4738            0.0000000000
     64046      5138  TIP3      H2            -44.3348923084       30.3607276585       32.2594947134  TIP3      4738            0.0000000000
     64047      5139  TIP3      OH2           -42.2226879137       35.6532273850       34.9245837789  TIP3      4739            0.0000000000
     64048      5139  TIP3      H1            -42.8653058522       35.1270590658       34.4106617555  TIP3      4739            0.0000000000
     64049      5139  TIP3      H2            -41.9868969880       36.3381867060       34.2635580461  TIP3      4739            0.0000000000
     64050      5140  TIP3      OH2           -38.1639843400       36.5130114048       21.7848124978  TIP3      4740            0.0000000000
     64051      5140  TIP3      H1            -37.4663417038       37.1476631108       21.5459455563  TIP3      4740            0.0000000000
     64052      5140  TIP3      H2            -38.9055285221       37.1021023014       22.0331662842  TIP3      4740            0.0000000000
     64053      5141  TIP3      OH2           -54.1179152845       22.9006179435       34.2987821145  TIP3      4741            0.0000000000
     64054      5141  TIP3      H1            -55.0282532366       23.2402132598       34.2563851991  TIP3      4741            0.0000000000
     64055      5141  TIP3      H2            -54.2209164689       22.0435710411       34.7448602050  TIP3      4741            0.0000000000
     64056      5142  TIP3      OH2           -41.8697099396       30.7343863908       23.7654978435  TIP3      4742            0.0000000000
     64057      5142  TIP3      H1            -42.1087457183       29.9711475853       24.3077670259  TIP3      4742            0.0000000000
     64058      5142  TIP3      H2            -40.9162702993       30.8253727450       23.9374872505  TIP3      4742            0.0000000000
     64059      5143  TIP3      OH2           -54.4733507748       34.7013987482       32.7347412300  TIP3      4743            0.0000000000
     64060      5143  TIP3      H1            -54.2340409399       33.7614309944       32.7330407122  TIP3      4743            0.0000000000
     64061      5143  TIP3      H2            -54.2293290632       34.9726972878       33.6292981596  TIP3      4743            0.0000000000
     64062      5144  TIP3      OH2           -49.6856439500       32.7152716756       22.4353589923  TIP3      4744            0.0000000000
     64063      5144  TIP3      H1            -49.5403999928       32.2094846430       23.2321587742  TIP3      4744            0.0000000000
     64064      5144  TIP3      H2            -49.6911386530       33.6510222274       22.7261583077  TIP3      4744            0.0000000000
     64065      5145  TIP3      OH2           -53.1984887461       29.9669407743       22.9609804503  TIP3      4745            0.0000000000
     64066      5145  TIP3      H1            -53.9239119053       30.3455775988       23.4876813166  TIP3      4745            0.0000000000
     64067      5145  TIP3      H2            -52.7217792679       30.7620298691       22.6779783720  TIP3      4745            0.0000000000
     64068      5146  TIP3      OH2           -45.3950462432       22.6582975296       33.2238315910  TIP3      4746            0.0000000000
     64069      5146  TIP3      H1            -44.6890022823       22.7155678356       33.8796036561  TIP3      4746            0.0000000000
     64070      5146  TIP3      H2            -45.7762144858       21.7750084131       33.4039383002  TIP3      4746            0.0000000000
     64071      5147  TIP3      OH2           -44.6094823650       22.2576476352       24.3220608999  TIP3      4747            0.0000000000
     64072      5147  TIP3      H1            -44.4046232818       22.7627159022       23.5176798859  TIP3      4747            0.0000000000
     64073      5147  TIP3      H2            -44.0521955734       22.6989250177       24.9762688031  TIP3      4747            0.0000000000
     64074      5148  TIP3      OH2           -46.9347154413       34.4390231508       23.1953727676  TIP3      4748            0.0000000000
     64075      5148  TIP3      H1            -47.7827231185       34.9210539068       23.2067874990  TIP3      4748            0.0000000000
     64076      5148  TIP3      H2            -46.4154229203       34.8975097399       22.5228611935  TIP3      4748            0.0000000000
     64077      5149  TIP3      OH2           -47.4288947013       24.0241576028       25.1441353413  TIP3      4749            0.0000000000
     64078      5149  TIP3      H1            -46.6022777161       24.5375558349       25.1936082590  TIP3      4749            0.0000000000
     64079      5149  TIP3      H2            -47.6663359013       23.8656429861       26.0757463938  TIP3      4749            0.0000000000
     64080      5150  TIP3      OH2           -46.8700951084       25.0070598370       34.3365378683  TIP3      4750            0.0000000000
     64081      5150  TIP3      H1            -46.7698774996       25.5833939379       35.1167056637  TIP3      4750            0.0000000000
     64082      5150  TIP3      H2            -46.2100996735       24.3128646307       34.4478747205  TIP3      4750            0.0000000000
     64083      5151  TIP3      OH2           -46.5250351090       21.0588051886       26.1106438956  TIP3      4751            0.0000000000
     64084      5151  TIP3      H1            -46.8814631195       21.7347170019       26.7168280313  TIP3      4751            0.0000000000
     64085      5151  TIP3      H2            -45.8749012119       21.6155700828       25.5967252587  TIP3      4751            0.0000000000
     64086      5152  TIP3      OH2           -49.5721759846       35.4488235214       23.1671421797  TIP3      4752            0.0000000000
     64087      5152  TIP3      H1            -49.4571899773       36.2581402710       22.6522510182  TIP3      4752            0.0000000000
     64088      5152  TIP3      H2            -49.8268828427       35.7881244673       24.0441647112  TIP3      4752            0.0000000000
     64089      5153  TIP3      OH2           -40.6615593195       22.8967986613       35.1883546826  TIP3      4753            0.0000000000
     64090      5153  TIP3      H1            -41.6013966512       23.1852567887       35.0705937219  TIP3      4753            0.0000000000
     64091      5153  TIP3      H2            -40.3572905232       22.8953937371       34.2677866310  TIP3      4753            0.0000000000
     64092      5154  TIP3      OH2           -42.0700198702       26.6741431171       29.2403900000  TIP3      4754            0.0000000000
     64093      5154  TIP3      H1            -42.8810643519       26.2342923907       28.9380509603  TIP3      4754            0.0000000000
     64094      5154  TIP3      H2            -41.6081017724       25.9714740147       29.7493283816  TIP3      4754            0.0000000000
     64095      5155  TIP3      OH2           -52.6290371450       32.5705376289       21.8339762533  TIP3      4755            0.0000000000
     64096      5155  TIP3      H1            -52.0182473510       33.2717094061       22.0935920251  TIP3      4755            0.0000000000
     64097      5155  TIP3      H2            -52.1443449291       32.1628132101       21.0931496874  TIP3      4755            0.0000000000
     64098      5156  TIP3      OH2           -41.0085130815       35.9111629635       30.8859430478  TIP3      4756            0.0000000000
     64099      5156  TIP3      H1            -41.1147934584       36.6094978862       30.2114616123  TIP3      4756            0.0000000000
     64100      5156  TIP3      H2            -40.0462398894       35.9904831499       31.0737068375  TIP3      4756            0.0000000000
     64101      5157  TIP3      OH2           -53.4917859370       20.0535331281       29.6508236148  TIP3      4757            0.0000000000
     64102      5157  TIP3      H1            -53.7202201277       20.0826565899       28.6963214035  TIP3      4757            0.0000000000
     64103      5157  TIP3      H2            -53.9325076906       19.2248310187       29.9246895552  TIP3      4757            0.0000000000
     64104      5158  TIP3      OH2           -54.5574309812       33.9704194618       25.7951446309  TIP3      4758            0.0000000000
     64105      5158  TIP3      H1            -55.3997383261       34.4484843086       25.7975371672  TIP3      4758            0.0000000000
     64106      5158  TIP3      H2            -54.0307489715       34.4709405293       25.1618167817  TIP3      4758            0.0000000000
     64107      5159  TIP3      OH2           -55.2641988666       36.5954307889       37.0794712164  TIP3      4759            0.0000000000
     64108      5159  TIP3      H1            -54.7361884161       36.3947269255       37.8758656932  TIP3      4759            0.0000000000
     64109      5159  TIP3      H2            -55.7588285779       35.7834556930       36.9362629225  TIP3      4759            0.0000000000
     64110      5160  TIP3      OH2           -50.6788781766       35.5261326690       38.7411238608  TIP3      4760            0.0000000000
     64111      5160  TIP3      H1            -49.9035743462       35.0472363998       39.0648020463  TIP3      4760            0.0000000000
     64112      5160  TIP3      H2            -50.6929542672       35.2720744354       37.7953472249  TIP3      4760            0.0000000000
     64113      5161  TIP3      OH2           -44.1303188893       33.9126265220       37.4549578737  TIP3      4761            0.0000000000
     64114      5161  TIP3      H1            -44.4584966360       33.0284524550       37.7178424443  TIP3      4761            0.0000000000
     64115      5161  TIP3      H2            -43.3741306115       34.0355498376       38.0603774383  TIP3      4761            0.0000000000
     64116      5162  TIP3      OH2           -55.3794185098       30.3944394580       38.0986349671  TIP3      4762            0.0000000000
     64117      5162  TIP3      H1            -55.2394438674       29.4816873085       37.7798129045  TIP3      4762            0.0000000000
     64118      5162  TIP3      H2            -56.1448817583       30.6863481167       37.5535138169  TIP3      4762            0.0000000000
     64119      5163  TIP3      OH2           -48.7074852399       30.3748374890       37.4937798077  TIP3      4763            0.0000000000
     64120      5163  TIP3      H1            -49.0481807471       30.6632794454       36.6280466035  TIP3      4763            0.0000000000
     64121      5163  TIP3      H2            -48.5879148335       29.4070767331       37.3972677991  TIP3      4763            0.0000000000
     64122      5164  TIP3      OH2           -45.5893811949       31.8066349812       19.9511889721  TIP3      4764            0.0000000000
     64123      5164  TIP3      H1            -45.9139042275       32.0029487771       20.8454046332  TIP3      4764            0.0000000000
     64124      5164  TIP3      H2            -45.8768167475       30.9093218316       19.7896556958  TIP3      4764            0.0000000000
     64125      5165  TIP3      OH2           -42.9965704619       30.2582346632       34.8849447282  TIP3      4765            0.0000000000
     64126      5165  TIP3      H1            -42.2299901110       30.8656192024       34.7848485231  TIP3      4765            0.0000000000
     64127      5165  TIP3      H2            -43.7276128892       30.8893171446       34.9343548088  TIP3      4765            0.0000000000
     64128      5166  TIP3      OH2           -54.5274943890       27.6206446626       37.4848486821  TIP3      4766            0.0000000000
     64129      5166  TIP3      H1            -54.1137440253       26.7527289568       37.3820148876  TIP3      4766            0.0000000000
     64130      5166  TIP3      H2            -54.7700061250       27.6332809629       38.4285664664  TIP3      4766            0.0000000000
     64131      5167  TIP3      OH2           -49.8383489995       28.7299075512       22.5244388882  TIP3      4767            0.0000000000
     64132      5167  TIP3      H1            -50.3588141103       28.2494880756       23.1971220305  TIP3      4767            0.0000000000
     64133      5167  TIP3      H2            -49.6523183324       28.0581568378       21.8690445917  TIP3      4767            0.0000000000
     64134      5168  TIP3      OH2           -50.5956747176       26.5870758382       34.8610973080  TIP3      4768            0.0000000000
     64135      5168  TIP3      H1            -51.2100340650       27.2918553050       35.1285797309  TIP3      4768            0.0000000000
     64136      5168  TIP3      H2            -50.2351127056       26.9379473317       34.0289773720  TIP3      4768            0.0000000000
     64137      5169  TIP3      OH2           -45.5580055531       29.1081500524       38.1792271898  TIP3      4769            0.0000000000
     64138      5169  TIP3      H1            -44.5982162383       29.1476314704       38.0938154693  TIP3      4769            0.0000000000
     64139      5169  TIP3      H2            -45.7209371563       28.3609320949       38.7721291907  TIP3      4769            0.0000000000
     64140      5170  TIP3      OH2           -50.2252698596       23.9594639763       35.9324439572  TIP3      4770            0.0000000000
     64141      5170  TIP3      H1            -50.0961216282       23.2304534370       35.3047005563  TIP3      4770            0.0000000000
     64142      5170  TIP3      H2            -50.2480829819       24.7557924361       35.3669333091  TIP3      4770            0.0000000000
     64143      5171  TIP3      OH2           -49.8186260788       22.3293014942       33.4542029944  TIP3      4771            0.0000000000
     64144      5171  TIP3      H1            -49.2941222917       22.7921357380       32.7616974933  TIP3      4771            0.0000000000
     64145      5171  TIP3      H2            -50.6996353015       22.2358449211       33.0234563827  TIP3      4771            0.0000000000
     64146      5172  TIP3      OH2           -48.2579218874       27.7836895662       33.6928343488  TIP3      4772            0.0000000000
     64147      5172  TIP3      H1            -47.5048015257       27.6289586049       33.1105089037  TIP3      4772            0.0000000000
     64148      5172  TIP3      H2            -48.6054083037       28.6372254400       33.3873765855  TIP3      4772            0.0000000000
     64149      5173  TIP3      OH2           -43.8539968151       25.5801201478       38.6904319784  TIP3      4773            0.0000000000
     64150      5173  TIP3      H1            -43.6419118046       24.6406532523       38.5898245273  TIP3      4773            0.0000000000
     64151      5173  TIP3      H2            -42.9814230474       26.0042825781       38.6847319610  TIP3      4773            0.0000000000
     64152      5174  TIP3      OH2           -42.5318218428       28.3634813047       36.8180937524  TIP3      4774            0.0000000000
     64153      5174  TIP3      H1            -42.7892166371       29.0891577275       36.2026312760  TIP3      4774            0.0000000000
     64154      5174  TIP3      H2            -41.5739841829       28.3184752785       36.6194752632  TIP3      4774            0.0000000000
     64155      5175  TIP3      OH2           -51.7547837012       25.1851147974       37.8608560411  TIP3      4775            0.0000000000
     64156      5175  TIP3      H1            -52.5319214022       24.6256812042       37.6372131178  TIP3      4775            0.0000000000
     64157      5175  TIP3      H2            -51.0937953996       24.8419908434       37.2285726158  TIP3      4775            0.0000000000
     64158      5176  TIP3      OH2           -49.0189285133       19.7698189982       33.8750379008  TIP3      4776            0.0000000000
     64159      5176  TIP3      H1            -49.1555427256       20.7393433956       33.7586234469  TIP3      4776            0.0000000000
     64160      5176  TIP3      H2            -49.7760196166       19.4150306167       33.3730164779  TIP3      4776            0.0000000000
     64161      5177  TIP3      OH2           -47.7491934720       24.1000570163       37.4494245092  TIP3      4777            0.0000000000
     64162      5177  TIP3      H1            -48.0287721967       23.8820551422       38.3567230881  TIP3      4777            0.0000000000
     64163      5177  TIP3      H2            -48.5475579914       23.9032957719       36.9205888902  TIP3      4777            0.0000000000
     64164      5178  TIP3      OH2           -45.0353519372       23.2342566836       36.5143594405  TIP3      4778            0.0000000000
     64165      5178  TIP3      H1            -45.9982648557       23.2775344600       36.6542133155  TIP3      4778            0.0000000000
     64166      5178  TIP3      H2            -44.7461772435       22.6057490176       37.1959071092  TIP3      4778            0.0000000000
     64167      5179  TIP3      OH2           -43.4333837326       21.8707908477       38.4880880404  TIP3      4779            0.0000000000
     64168      5179  TIP3      H1            -43.5043889142       20.8999680090       38.5032467551  TIP3      4779            0.0000000000
     64169      5179  TIP3      H2            -43.7277232130       22.1509158253       39.3847554637  TIP3      4779            0.0000000000
     64170      5180  TIP3      OH2           -53.5889769772       23.1098331510       37.5535892089  TIP3      4780            0.0000000000
     64171      5180  TIP3      H1            -53.3881374070       22.3679947680       36.9542385185  TIP3      4780            0.0000000000
     64172      5180  TIP3      H2            -53.7060083869       22.6600411062       38.4165060464  TIP3      4780            0.0000000000
     64173      5181  TIP3      OH2           -48.8115717804       19.1165289154       36.5539631680  TIP3      4781            0.0000000000
     64174      5181  TIP3      H1            -48.1006326533       18.4405067229       36.5224232181  TIP3      4781            0.0000000000
     64175      5181  TIP3      H2            -48.9070409650       19.3312881573       35.6071785838  TIP3      4781            0.0000000000
     64176      5182  TIP3      OH2           -48.4484681606       20.7641840627       38.6232747813  TIP3      4782            0.0000000000
     64177      5182  TIP3      H1            -48.5963063042       20.2719004877       37.7790523122  TIP3      4782            0.0000000000
     64178      5182  TIP3      H2            -49.0481784727       21.5268889040       38.5352355475  TIP3      4782            0.0000000000
     64179      5183  TIP3      OH2           -55.3196885245       32.3289806883       21.2567515435  TIP3      4783            0.0000000000
     64180      5183  TIP3      H1            -54.3806940680       32.3460034458       21.5106958677  TIP3      4783            0.0000000000
     64181      5183  TIP3      H2            -55.3119713139       31.5979839180       20.5952811028  TIP3      4783            0.0000000000
     64182      5184  TIP3      OH2            56.2144900457       37.6597058380       26.2832329364  TIP3      4784            0.0000000000
     64183      5184  TIP3      H1             55.4908831104       37.1908201639       25.8055719176  TIP3      4784            0.0000000000
     64184      5184  TIP3      H2             56.4978620425       36.9911611449       26.9305594581  TIP3      4784            0.0000000000
     64185      5185  TIP3      OH2           -55.8188295011       35.7677639063       28.1286043798  TIP3      4785            0.0000000000
     64186      5185  TIP3      H1            -56.1685684383       34.8835727047       28.3228468638  TIP3      4785            0.0000000000
     64187      5185  TIP3      H2            -55.6046345375       36.1051925540       29.0179877661  TIP3      4785            0.0000000000
     64188      5186  TIP3      OH2           -38.2808993568       36.5670248966       31.0944632163  TIP3      4786            0.0000000000
     64189      5186  TIP3      H1            -38.2722000888       36.7509488745       32.0495612880  TIP3      4786            0.0000000000
     64190      5186  TIP3      H2            -37.5768224866       37.1452851941       30.7772944002  TIP3      4786            0.0000000000
     64191      5187  TIP3      OH2           -38.7034258511       36.1653612102       34.0330815144  TIP3      4787            0.0000000000
     64192      5187  TIP3      H1            -39.1869815312       35.3947496031       33.6594558283  TIP3      4787            0.0000000000
     64193      5187  TIP3      H2            -38.1778536452       35.7293393850       34.7225055614  TIP3      4787            0.0000000000
     64194      5188  TIP3      OH2           -40.2534344883       31.8958783475       38.6726963502  TIP3      4788            0.0000000000
     64195      5188  TIP3      H1            -41.1375741744       31.8438460748       39.0758020502  TIP3      4788            0.0000000000
     64196      5188  TIP3      H2            -39.8816570752       32.6916231002       39.1230617969  TIP3      4788            0.0000000000
     64197      5189  TIP3      OH2           -38.9607088483       30.2061052855       24.1690609402  TIP3      4789            0.0000000000
     64198      5189  TIP3      H1            -38.0937243952       30.6005136489       24.3167471049  TIP3      4789            0.0000000000
     64199      5189  TIP3      H2            -38.9435962497       29.4518189825       24.7930773543  TIP3      4789            0.0000000000
     64200      5190  TIP3      OH2           -38.5708631459       28.2628018486       25.9997779321  TIP3      4790            0.0000000000
     64201      5190  TIP3      H1            -39.3124279633       27.7651962205       26.4074939462  TIP3      4790            0.0000000000
     64202      5190  TIP3      H2            -37.9782509149       28.4404190509       26.7587937505  TIP3      4790            0.0000000000
     64203      5191  TIP3      OH2           -38.8206045192       31.0009887660       30.9806707844  TIP3      4791            0.0000000000
     64204      5191  TIP3      H1            -37.9794938396       30.6353522512       30.6498094452  TIP3      4791            0.0000000000
     64205      5191  TIP3      H2            -38.6828755566       31.9621918682       30.8304224815  TIP3      4791            0.0000000000
     64206      5192  TIP3      OH2           -40.2861809698       33.8962420031       33.2743957506  TIP3      4792            0.0000000000
     64207      5192  TIP3      H1            -40.9687189178       34.2302086121       33.8784816163  TIP3      4792            0.0000000000
     64208      5192  TIP3      H2            -40.8326587368       33.4715259203       32.5772052236  TIP3      4792            0.0000000000
     64209      5193  TIP3      OH2           -39.9429809776       25.3455195578       20.9696883675  TIP3      4793            0.0000000000
     64210      5193  TIP3      H1            -39.8269243321       26.0284083775       20.2880083628  TIP3      4793            0.0000000000
     64211      5193  TIP3      H2            -40.0758325261       24.5430345094       20.4569010417  TIP3      4793            0.0000000000
     64212      5194  TIP3      OH2           -40.7703687073       26.7680157717       26.5717630106  TIP3      4794            0.0000000000
     64213      5194  TIP3      H1            -40.9280979589       25.8116092012       26.5482689817  TIP3      4794            0.0000000000
     64214      5194  TIP3      H2            -41.1180352948       27.0180511528       27.4433320794  TIP3      4794            0.0000000000
     64215      5195  TIP3      OH2           -55.7439049929       28.8333449628       30.6175849002  TIP3      4795            0.0000000000
     64216      5195  TIP3      H1            -55.5622093409       28.7613849218       29.6538839035  TIP3      4795            0.0000000000
     64217      5195  TIP3      H2            -54.8646136197       28.6920689768       31.0093284510  TIP3      4795            0.0000000000
     64218      5196  TIP3      OH2           -39.9240763164       28.7325667732       36.2413849542  TIP3      4796            0.0000000000
     64219      5196  TIP3      H1            -39.3133706035       27.9829763283       36.4017149521  TIP3      4796            0.0000000000
     64220      5196  TIP3      H2            -39.3307919566       29.5099880698       36.2611193565  TIP3      4796            0.0000000000
     64221      5197  TIP3      OH2           -38.4119068503       26.6360692883       36.9171558907  TIP3      4797            0.0000000000
     64222      5197  TIP3      H1            -39.2882925826       26.2328785573       36.7387453870  TIP3      4797            0.0000000000
     64223      5197  TIP3      H2            -37.8229402448       25.8699655404       36.8287731081  TIP3      4797            0.0000000000
     64224      5198  TIP3      OH2           -41.0777253618       24.3527943562       25.0467317939  TIP3      4798            0.0000000000
     64225      5198  TIP3      H1            -40.7826540584       23.4204506744       25.1632961452  TIP3      4798            0.0000000000
     64226      5198  TIP3      H2            -40.2981637913       24.7631606086       24.6443098116  TIP3      4798            0.0000000000
     64227      5199  TIP3      OH2           -40.4641226219       24.8985335884       30.4709022974  TIP3      4799            0.0000000000
     64228      5199  TIP3      H1            -39.5068076569       25.1354987803       30.4527692186  TIP3      4799            0.0000000000
     64229      5199  TIP3      H2            -40.6684939292       25.0334215590       31.4096740706  TIP3      4799            0.0000000000
     64230      5200  TIP3      OH2           -40.4030404875       25.6274669573       33.2540074324  TIP3      4800            0.0000000000
     64231      5200  TIP3      H1            -41.2727133237       25.9228232315       33.6029694023  TIP3      4800            0.0000000000
     64232      5200  TIP3      H2            -39.9696592129       26.4875846640       33.0370937953  TIP3      4800            0.0000000000
     64233      5201  TIP3      OH2           -56.1261071534       24.1308812176       36.7400273780  TIP3      4801            0.0000000000
     64234      5201  TIP3      H1            -55.1953179913       23.9647372439       36.9723717658  TIP3      4801            0.0000000000
     64235      5201  TIP3      H2            -56.5753218532       23.3314517686       37.1021310893  TIP3      4801            0.0000000000
     64236      5202  TIP3      OH2           -38.1656086151       19.6418386526       38.5795253404  TIP3      4802            0.0000000000
     64237      5202  TIP3      H1            -37.7705589103       18.9885359011       37.9940353322  TIP3      4802            0.0000000000
     64238      5202  TIP3      H2            -37.9899315147       20.4853661081       38.1342266797  TIP3      4802            0.0000000000
     64239      5203  TIP3      OH2           -40.4380051600       21.6221320044       25.0841018016  TIP3      4803            0.0000000000
     64240      5203  TIP3      H1            -40.2476550105       21.1622021620       25.9229458227  TIP3      4803            0.0000000000
     64241      5203  TIP3      H2            -41.0535284433       21.0057874548       24.6226838199  TIP3      4803            0.0000000000
     64242      5204  TIP3      OH2           -54.9291241542       22.4367487224       29.6109764713  TIP3      4804            0.0000000000
     64243      5204  TIP3      H1            -54.4825910964       21.6237704240       29.9225651993  TIP3      4804            0.0000000000
     64244      5204  TIP3      H2            -54.4386282433       23.1450952848       30.0477158920  TIP3      4804            0.0000000000
     64245      5205  TIP3      OH2           -56.5899662618       25.4133134914       30.7124036702  TIP3      4805            0.0000000000
     64246      5205  TIP3      H1            -56.0926977135       25.2051364625       29.9001156141  TIP3      4805            0.0000000000
     64247      5205  TIP3      H2            -56.2233946201       26.2693949412       30.9531085452  TIP3      4805            0.0000000000
     64248      5206  TIP3      OH2           -38.5989321462       21.7670531634       36.9648069542  TIP3      4806            0.0000000000
     64249      5206  TIP3      H1            -39.5426908156       22.0227102642       36.9179772888  TIP3      4806            0.0000000000
     64250      5206  TIP3      H2            -38.5262432275       21.2172035066       36.1694596428  TIP3      4806            0.0000000000
     64251      5207  TIP3      OH2            56.5461887817       21.6950419616       24.7426506190  TIP3      4807            0.0000000000
     64252      5207  TIP3      H1             55.5940310865       21.8863272492       24.6202192796  TIP3      4807            0.0000000000
     64253      5207  TIP3      H2             56.9767311463       22.1838325995       24.0360584928  TIP3      4807            0.0000000000
     64254      5208  TIP3      OH2           -41.5606931638       36.6498161436       26.7026258116  TIP3      4808            0.0000000000
     64255      5208  TIP3      H1            -40.8796508490       36.3296829785       26.0780183653  TIP3      4808            0.0000000000
     64256      5208  TIP3      H2            -41.0220674492       37.1517846816       27.3342122925  TIP3      4808            0.0000000000
     64257      5209  TIP3      OH2            56.5289511163       20.3805952238       33.0534207042  TIP3      4809            0.0000000000
     64258      5209  TIP3      H1             55.8547300626       20.1819088520       33.7334723001  TIP3      4809            0.0000000000
     64259      5209  TIP3      H2             56.0529206782       21.0406095854       32.5025816508  TIP3      4809            0.0000000000
     64260      5210  TIP3      OH2           -54.1381348834       33.5912542796       37.2229632841  TIP3      4810            0.0000000000
     64261      5210  TIP3      H1            -54.9708704315       33.7512292179       36.7836869127  TIP3      4810            0.0000000000
     64262      5210  TIP3      H2            -54.3877277094       33.5058593448       38.1530161866  TIP3      4810            0.0000000000
     64263      5211  TIP3      OH2           -51.2115575038       34.5554635623       33.4936185653  TIP3      4811            0.0000000000
     64264      5211  TIP3      H1            -51.5991623182       35.3951971379       33.2051496838  TIP3      4811            0.0000000000
     64265      5211  TIP3      H2            -50.2857741766       34.6584039751       33.1816682059  TIP3      4811            0.0000000000
     64266      5212  TIP3      OH2           -46.8907162918       35.9762091285       36.4189119823  TIP3      4812            0.0000000000
     64267      5212  TIP3      H1            -46.7114852403       35.6308670909       37.3306426236  TIP3      4812            0.0000000000
     64268      5212  TIP3      H2            -46.0063394713       36.2793290909       36.1402243088  TIP3      4812            0.0000000000
     64269      5213  TIP3      OH2           -44.5744336890       37.2501683538       35.6878950789  TIP3      4813            0.0000000000
     64270      5213  TIP3      H1            -43.8570195666       36.6356858927       35.4594115064  TIP3      4813            0.0000000000
     64271      5213  TIP3      H2            -44.2094283511       37.6635622848       36.5018598355  TIP3      4813            0.0000000000
     64272      5214  TIP3      OH2           -39.5972480291       19.8597182323       34.7949289769  TIP3      4814            0.0000000000
     64273      5214  TIP3      H1            -40.4274171799       20.1614810059       34.3815132681  TIP3      4814            0.0000000000
     64274      5214  TIP3      H2            -39.4004468074       19.0634872492       34.2503947070  TIP3      4814            0.0000000000
     64275      5215  TIP3      OH2           -53.7887571977       37.7935816656       33.5093954039  TIP3      4815            0.0000000000
     64276      5215  TIP3      H1            -54.5222212517       38.2807367850       33.0875815094  TIP3      4815            0.0000000000
     64277      5215  TIP3      H2            -54.1466342293       37.5926148939       34.3904524245  TIP3      4815            0.0000000000
     64278      5216  TIP3      OH2           -51.2966653711       37.3986484094       32.5703316167  TIP3      4816            0.0000000000
     64279      5216  TIP3      H1            -52.1943439774       37.5071352232       32.9649705348  TIP3      4816            0.0000000000
     64280      5216  TIP3      H2            -51.3788544176       37.9723354964       31.7816744852  TIP3      4816            0.0000000000
     64281      5217  TIP3      OH2           -46.6042466706       37.2910920873       31.7092696398  TIP3      4817            0.0000000000
     64282      5217  TIP3      H1            -47.0834015593       37.8634736260       31.0976904952  TIP3      4817            0.0000000000
     64283      5217  TIP3      H2            -46.4588646685       37.9139290783       32.4682764187  TIP3      4817            0.0000000000
     64284      5218  TIP3      OH2           -44.2919746936       36.1426797265       32.6925634596  TIP3      4818            0.0000000000
     64285      5218  TIP3      H1            -45.1866890250       36.3752343612       32.4198447950  TIP3      4818            0.0000000000
     64286      5218  TIP3      H2            -43.8480133832       37.0105093613       32.6387585885  TIP3      4818            0.0000000000
     64287      5219  TIP3      OH2           -41.7027103616       37.7137417197       32.9942199485  TIP3      4819            0.0000000000
     64288      5219  TIP3      H1            -41.8375785310       38.6653978044       32.7576013981  TIP3      4819            0.0000000000
     64289      5219  TIP3      H2            -41.5121617055       37.3353855837       32.1156625379  TIP3      4819            0.0000000000
     64290      5220  TIP3      OH2           -54.3268311743       36.4687779887       30.4295838161  TIP3      4820            0.0000000000
     64291      5220  TIP3      H1            -54.3836825095       36.0069084078       31.2979652774  TIP3      4820            0.0000000000
     64292      5220  TIP3      H2            -53.5276573902       36.0973547553       30.0261738357  TIP3      4820            0.0000000000
     64293      5221  TIP3      OH2           -52.2424053065       35.1643923665       29.0793567778  TIP3      4821            0.0000000000
     64294      5221  TIP3      H1            -52.4345730955       34.2306675101       29.2863270544  TIP3      4821            0.0000000000
     64295      5221  TIP3      H2            -51.4093561747       35.2995438229       29.5678210384  TIP3      4821            0.0000000000
     64296      5222  TIP3      OH2           -49.6351645930       35.6482492849       29.9401684883  TIP3      4822            0.0000000000
     64297      5222  TIP3      H1            -49.5099618245       34.7150324402       29.6828066414  TIP3      4822            0.0000000000
     64298      5222  TIP3      H2            -49.6344309307       35.5815524782       30.9121320001  TIP3      4822            0.0000000000
     64299      5223  TIP3      OH2           -46.1958127318       21.2883873390       29.0815432880  TIP3      4823            0.0000000000
     64300      5223  TIP3      H1            -46.8731224069       20.6667593061       29.3729255426  TIP3      4823            0.0000000000
     64301      5223  TIP3      H2            -45.6136638234       20.8019186720       28.4976178189  TIP3      4823            0.0000000000
     64302      5224  TIP3      OH2           -41.0615569836       19.3647113556       29.1944532758  TIP3      4824            0.0000000000
     64303      5224  TIP3      H1            -40.4370325820       19.9435992306       28.6834288375  TIP3      4824            0.0000000000
     64304      5224  TIP3      H2            -41.9272324210       19.7206971283       28.9499935188  TIP3      4824            0.0000000000
     64305      5225  TIP3      OH2           -39.3635136015       20.5569478141       27.5050351155  TIP3      4825            0.0000000000
     64306      5225  TIP3      H1            -38.6948498672       20.0155995724       27.0188231487  TIP3      4825            0.0000000000
     64307      5225  TIP3      H2            -38.9089069124       21.4249510347       27.5640326503  TIP3      4825            0.0000000000
     64308      5226  TIP3      OH2           -53.8478253627       19.9326252784       26.9339434932  TIP3      4826            0.0000000000
     64309      5226  TIP3      H1            -54.6400103342       19.6859065631       26.4159875712  TIP3      4826            0.0000000000
     64310      5226  TIP3      H2            -53.3399853862       19.0967222340       26.9078284385  TIP3      4826            0.0000000000
     64311      5227  TIP3      OH2           -55.0413844219       19.7004772225       22.7049561182  TIP3      4827            0.0000000000
     64312      5227  TIP3      H1            -54.5863657598       20.3182434738       22.1379891496  TIP3      4827            0.0000000000
     64313      5227  TIP3      H2            -55.6578504913       20.2459803097       23.2220168662  TIP3      4827            0.0000000000
     64314      5228  TIP3      OH2           -49.2934470190       19.8253609111       26.7311182904  TIP3      4828            0.0000000000
     64315      5228  TIP3      H1            -48.4255223404       20.2544839547       26.6779750096  TIP3      4828            0.0000000000
     64316      5228  TIP3      H2            -49.4245514022       19.6480179487       27.6592291299  TIP3      4828            0.0000000000
     64317      5229  TIP3      OH2           -43.7274684143       19.8830979851       28.3642396016  TIP3      4829            0.0000000000
     64318      5229  TIP3      H1            -43.6406002976       19.9772041993       27.4088020424  TIP3      4829            0.0000000000
     64319      5229  TIP3      H2            -43.9751211158       18.9474211582       28.5023387424  TIP3      4829            0.0000000000
     64320      5230  TIP3      OH2           -42.3664424048       19.9190358369       24.0896304576  TIP3      4830            0.0000000000
     64321      5230  TIP3      H1            -43.0898517022       20.5129693516       23.8438983688  TIP3      4830            0.0000000000
     64322      5230  TIP3      H2            -42.8106427730       19.0454477224       24.1993329875  TIP3      4830            0.0000000000
     64323      5231  TIP3      OH2           -55.0839953296       35.6574287052       23.6173789300  TIP3      4831            0.0000000000
     64324      5231  TIP3      H1            -55.8202461008       35.6141793867       22.9703530482  TIP3      4831            0.0000000000
     64325      5231  TIP3      H2            -55.1306346865       36.5688473314       23.9162835239  TIP3      4831            0.0000000000
     64326      5232  TIP3      OH2           -48.1939975205       21.9031430439       23.5945650487  TIP3      4832            0.0000000000
     64327      5232  TIP3      H1            -47.9538611057       21.2905834239       24.2952628960  TIP3      4832            0.0000000000
     64328      5232  TIP3      H2            -48.1584559127       22.7511353801       24.0773065255  TIP3      4832            0.0000000000
     64329      5233  TIP3      OH2           -39.5623271807       36.4549685778       24.7217079575  TIP3      4833            0.0000000000
     64330      5233  TIP3      H1            -39.7495983248       35.6760529391       24.1351584642  TIP3      4833            0.0000000000
     64331      5233  TIP3      H2            -39.6071207954       37.1950911596       24.0790071309  TIP3      4833            0.0000000000
     64332      5234  TIP3      OH2           -53.9263933916       20.4622891980       36.4004171392  TIP3      4834            0.0000000000
     64333      5234  TIP3      H1            -54.2844400535       19.6720831362       36.8516209680  TIP3      4834            0.0000000000
     64334      5234  TIP3      H2            -53.0018094318       20.4469303583       36.7378713908  TIP3      4834            0.0000000000
     64335      5235  TIP3      OH2           -51.9248642821       19.8378728461       38.0021935310  TIP3      4835            0.0000000000
     64336      5235  TIP3      H1            -51.0335829252       19.4987819722       37.7858966219  TIP3      4835            0.0000000000
     64337      5235  TIP3      H2            -52.3188093146       19.0489824259       38.4336424252  TIP3      4835            0.0000000000
     64338      5236  TIP3      OH2           -43.5262333440       19.1339151297       38.1627797501  TIP3      4836            0.0000000000
     64339      5236  TIP3      H1            -43.4261749395       18.6748393130       39.0187146744  TIP3      4836            0.0000000000
     64340      5236  TIP3      H2            -42.6089123429       19.1214952196       37.8194441945  TIP3      4836            0.0000000000
     64341      5237  TIP3      OH2           -40.3203801315       35.1756623326       36.8520123577  TIP3      4837            0.0000000000
     64342      5237  TIP3      H1            -41.1235240607       35.0240604166       36.3080992381  TIP3      4837            0.0000000000
     64343      5237  TIP3      H2            -40.4199950905       36.1314979701       37.0486058255  TIP3      4837            0.0000000000
     64344      5238  TIP3      OH2           -25.8970951789       29.0605262884       26.8451653668  TIP3      4838            0.0000000000
     64345      5238  TIP3      H1            -25.8609890846       30.0361687653       26.7528823589  TIP3      4838            0.0000000000
     64346      5238  TIP3      H2            -26.5835494568       28.8135898868       26.2103397009  TIP3      4838            0.0000000000
     64347      5239  TIP3      OH2           -27.0088263056       28.3340221055       30.3052123295  TIP3      4839            0.0000000000
     64348      5239  TIP3      H1            -27.0361946513       27.6755728746       31.0070103118  TIP3      4839            0.0000000000
     64349      5239  TIP3      H2            -27.3348362262       27.8462733551       29.5297661013  TIP3      4839            0.0000000000
     64350      5240  TIP3      OH2           -34.6500951292       27.9690145840       31.8655841175  TIP3      4840            0.0000000000
     64351      5240  TIP3      H1            -34.5788657181       27.3125401070       32.5918756377  TIP3      4840            0.0000000000
     64352      5240  TIP3      H2            -33.9188201879       28.5669542907       32.0752617220  TIP3      4840            0.0000000000
     64353      5241  TIP3      OH2           -23.3022509960       31.2671850487       28.5830358481  TIP3      4841            0.0000000000
     64354      5241  TIP3      H1            -23.7387209893       30.5539080188       29.0610612444  TIP3      4841            0.0000000000
     64355      5241  TIP3      H2            -23.3065908566       31.9867888861       29.2430199534  TIP3      4841            0.0000000000
     64356      5242  TIP3      OH2           -33.7232058077       32.4225947535       30.4033951211  TIP3      4842            0.0000000000
     64357      5242  TIP3      H1            -34.0616858433       31.5810073601       30.0450982582  TIP3      4842            0.0000000000
     64358      5242  TIP3      H2            -32.7680117018       32.2322248547       30.4438924652  TIP3      4842            0.0000000000
     64359      5243  TIP3      OH2           -37.0854402630       26.0257865809       25.8315619729  TIP3      4843            0.0000000000
     64360      5243  TIP3      H1            -37.5419246181       26.8942447560       25.7915836936  TIP3      4843            0.0000000000
     64361      5243  TIP3      H2            -37.6590934010       25.4781826600       25.2827102382  TIP3      4843            0.0000000000
     64362      5244  TIP3      OH2           -36.3943032578       28.2253199598       27.9529568345  TIP3      4844            0.0000000000
     64363      5244  TIP3      H1            -36.1480363586       27.4275119122       28.4546953189  TIP3      4844            0.0000000000
     64364      5244  TIP3      H2            -35.6539190332       28.3142868627       27.3318623525  TIP3      4844            0.0000000000
     64365      5245  TIP3      OH2           -26.2001690140       36.4072686687       28.8143674165  TIP3      4845            0.0000000000
     64366      5245  TIP3      H1            -25.5574112992       35.7033685687       28.5395574962  TIP3      4845            0.0000000000
     64367      5245  TIP3      H2            -26.3959503725       36.1297751822       29.7083525646  TIP3      4845            0.0000000000
     64368      5246  TIP3      OH2           -28.6321047567       30.7504095034       30.7270649868  TIP3      4846            0.0000000000
     64369      5246  TIP3      H1            -28.2977834948       30.0840928456       30.1039527296  TIP3      4846            0.0000000000
     64370      5246  TIP3      H2            -27.8598425066       30.8791264368       31.3044863390  TIP3      4846            0.0000000000
     64371      5247  TIP3      OH2           -19.9903314488       22.3593076331       31.5339885695  TIP3      4847            0.0000000000
     64372      5247  TIP3      H1            -19.8786696854       22.9796949669       32.2865133874  TIP3      4847            0.0000000000
     64373      5247  TIP3      H2            -19.4970475417       22.8205160820       30.8391466871  TIP3      4847            0.0000000000
     64374      5248  TIP3      OH2           -25.4706850600       25.1836729507       31.0625702236  TIP3      4848            0.0000000000
     64375      5248  TIP3      H1            -25.3211115581       24.2177152601       31.0552753798  TIP3      4848            0.0000000000
     64376      5248  TIP3      H2            -25.5750807460       25.3461188955       30.1022303780  TIP3      4848            0.0000000000
     64377      5249  TIP3      OH2           -32.3299382550       23.2662986934       28.3111388012  TIP3      4849            0.0000000000
     64378      5249  TIP3      H1            -32.2645007701       24.1205241665       27.8530838169  TIP3      4849            0.0000000000
     64379      5249  TIP3      H2            -32.7682599386       22.7039979733       27.6366419630  TIP3      4849            0.0000000000
     64380      5250  TIP3      OH2           -24.6117210671       23.3773207967       26.6874196138  TIP3      4850            0.0000000000
     64381      5250  TIP3      H1            -23.9415534830       23.0540254204       27.3374813418  TIP3      4850            0.0000000000
     64382      5250  TIP3      H2            -24.0642560889       23.9184265679       26.1005656186  TIP3      4850            0.0000000000
     64383      5251  TIP3      OH2           -35.7183715619       25.6774573760       29.0544873826  TIP3      4851            0.0000000000
     64384      5251  TIP3      H1            -35.0435562676       25.1148618661       29.4903381772  TIP3      4851            0.0000000000
     64385      5251  TIP3      H2            -35.6500444064       25.3760556380       28.1357605670  TIP3      4851            0.0000000000
     64386      5252  TIP3      OH2           -30.5494141186       27.2338796256       28.3121354789  TIP3      4852            0.0000000000
     64387      5252  TIP3      H1            -29.9110407442       26.6659472434       28.7709801166  TIP3      4852            0.0000000000
     64388      5252  TIP3      H2            -31.1086719572       26.5695714657       27.8599092169  TIP3      4852            0.0000000000
     64389      5253  TIP3      OH2           -19.5648718698       23.8176248476       33.7806005155  TIP3      4853            0.0000000000
     64390      5253  TIP3      H1            -20.2343031235       24.5264191361       33.6925345626  TIP3      4853            0.0000000000
     64391      5253  TIP3      H2            -19.5474476532       23.6649065382       34.7342058657  TIP3      4853            0.0000000000
     64392      5254  TIP3      OH2           -33.4730515785       22.1697750671       32.3602543733  TIP3      4854            0.0000000000
     64393      5254  TIP3      H1            -33.7311434768       22.7276466577       31.6011679780  TIP3      4854            0.0000000000
     64394      5254  TIP3      H2            -34.1633564313       22.4096793117       33.0276501418  TIP3      4854            0.0000000000
     64395      5255  TIP3      OH2           -26.1255395014       31.6682924781       25.8967788305  TIP3      4855            0.0000000000
     64396      5255  TIP3      H1            -26.4524128026       31.3639826277       25.0557113335  TIP3      4855            0.0000000000
     64397      5255  TIP3      H2            -26.4659858245       32.5862600621       25.9631318627  TIP3      4855            0.0000000000
     64398      5256  TIP3      OH2           -30.9299116725       29.8264824167       32.6303525356  TIP3      4856            0.0000000000
     64399      5256  TIP3      H1            -31.6621592065       30.4631485290       32.7802573167  TIP3      4856            0.0000000000
     64400      5256  TIP3      H2            -30.2248119368       30.4171926364       32.3268987232  TIP3      4856            0.0000000000
     64401      5257  TIP3      OH2           -22.8304971891       22.6939842343       28.6719724023  TIP3      4857            0.0000000000
     64402      5257  TIP3      H1            -23.0356154762       21.9227644216       29.2112397689  TIP3      4857            0.0000000000
     64403      5257  TIP3      H2            -22.1578550183       23.1469908647       29.2083132601  TIP3      4857            0.0000000000
     64404      5258  TIP3      OH2           -33.9150447292       24.0510538507       30.3467438917  TIP3      4858            0.0000000000
     64405      5258  TIP3      H1            -33.2717210611       24.7130616736       30.6925682165  TIP3      4858            0.0000000000
     64406      5258  TIP3      H2            -33.3778494830       23.6027414162       29.6509612753  TIP3      4858            0.0000000000
     64407      5259  TIP3      OH2           -32.5019440685       31.8062109418       33.4245506756  TIP3      4859            0.0000000000
     64408      5259  TIP3      H1            -32.5364611238       32.7151003510       33.0677343962  TIP3      4859            0.0000000000
     64409      5259  TIP3      H2            -33.3867849190       31.7398446009       33.8671221980  TIP3      4859            0.0000000000
     64410      5260  TIP3      OH2           -36.3959472395       31.4654401643       24.2189111439  TIP3      4860            0.0000000000
     64411      5260  TIP3      H1            -36.6956085504       31.7344415671       23.3291055450  TIP3      4860            0.0000000000
     64412      5260  TIP3      H2            -36.3593711009       32.3199165006       24.6992823045  TIP3      4860            0.0000000000
     64413      5261  TIP3      OH2           -22.7812893517       33.0980682518       30.9492247641  TIP3      4861            0.0000000000
     64414      5261  TIP3      H1            -23.7469689475       33.1901998742       31.0917105830  TIP3      4861            0.0000000000
     64415      5261  TIP3      H2            -22.5146322563       34.0249552081       30.7844187636  TIP3      4861            0.0000000000
     64416      5262  TIP3      OH2           -22.4768789723       21.3926903393       32.3575039009  TIP3      4862            0.0000000000
     64417      5262  TIP3      H1            -23.2120968213       22.0157874489       32.2959035487  TIP3      4862            0.0000000000
     64418      5262  TIP3      H2            -21.7807691468       21.8146102275       31.8233783556  TIP3      4862            0.0000000000
     64419      5263  TIP3      OH2           -29.4820809935       19.4982565585       29.8131289212  TIP3      4863            0.0000000000
     64420      5263  TIP3      H1            -29.6107480584       18.5315917441       29.7576375072  TIP3      4863            0.0000000000
     64421      5263  TIP3      H2            -30.3583105360       19.8139949516       30.1067078568  TIP3      4863            0.0000000000
     64422      5264  TIP3      OH2           -24.5386045858       34.8875818143       27.5690636604  TIP3      4864            0.0000000000
     64423      5264  TIP3      H1            -24.0958942972       34.1768315526       27.0651266724  TIP3      4864            0.0000000000
     64424      5264  TIP3      H2            -24.1729237557       35.6906330421       27.1469490207  TIP3      4864            0.0000000000
     64425      5265  TIP3      OH2           -23.3561649579       32.8134913323       26.0599742920  TIP3      4865            0.0000000000
     64426      5265  TIP3      H1            -23.6192077267       32.1010242503       25.4614145561  TIP3      4865            0.0000000000
     64427      5265  TIP3      H2            -23.2957142578       32.3360329773       26.9120874312  TIP3      4865            0.0000000000
     64428      5266  TIP3      OH2           -21.6939157935       31.3806051994       34.5615033159  TIP3      4866            0.0000000000
     64429      5266  TIP3      H1            -21.5494715713       30.7594313352       33.8147632377  TIP3      4866            0.0000000000
     64430      5266  TIP3      H2            -21.5139286537       32.2463202365       34.1636653603  TIP3      4866            0.0000000000
     64431      5267  TIP3      OH2           -27.2042329697       28.3276969879       24.3281047233  TIP3      4867            0.0000000000
     64432      5267  TIP3      H1            -27.9426062045       28.8407965787       23.9714328711  TIP3      4867            0.0000000000
     64433      5267  TIP3      H2            -26.5130324230       28.3800449300       23.6535636861  TIP3      4867            0.0000000000
     64434      5268  TIP3      OH2           -27.1356048412       26.8012766310       21.3546049984  TIP3      4868            0.0000000000
     64435      5268  TIP3      H1            -26.4417329282       26.7930299999       22.0232752020  TIP3      4868            0.0000000000
     64436      5268  TIP3      H2            -26.8573555824       26.1427132827       20.7128579113  TIP3      4868            0.0000000000
     64437      5269  TIP3      OH2           -19.8304978995       27.6988818046       32.6195036014  TIP3      4869            0.0000000000
     64438      5269  TIP3      H1            -20.4938778494       28.4151250904       32.6809209541  TIP3      4869            0.0000000000
     64439      5269  TIP3      H2            -19.3602268802       27.9302202982       31.7983492496  TIP3      4869            0.0000000000
     64440      5270  TIP3      OH2           -23.7879610597       28.5307433643       25.2439347723  TIP3      4870            0.0000000000
     64441      5270  TIP3      H1            -24.5308361640       28.7564009403       25.8570837788  TIP3      4870            0.0000000000
     64442      5270  TIP3      H2            -23.3346839877       27.8275542316       25.7495240316  TIP3      4870            0.0000000000
     64443      5271  TIP3      OH2           -23.8632922817       26.6814579091       34.3522118346  TIP3      4871            0.0000000000
     64444      5271  TIP3      H1            -23.8340882301       27.4835378297       34.9028078789  TIP3      4871            0.0000000000
     64445      5271  TIP3      H2            -24.4970571824       26.9845523781       33.6635985264  TIP3      4871            0.0000000000
     64446      5272  TIP3      OH2           -32.1613847918       29.1759617986       27.1694861878  TIP3      4872            0.0000000000
     64447      5272  TIP3      H1            -32.4821769528       28.7829027071       26.3177829095  TIP3      4872            0.0000000000
     64448      5272  TIP3      H2            -31.5522623296       28.4786460989       27.5018805498  TIP3      4872            0.0000000000
     64449      5273  TIP3      OH2           -30.8186321534       32.5873849414       29.8471478790  TIP3      4873            0.0000000000
     64450      5273  TIP3      H1            -30.8678219656       32.0179183421       29.0665246278  TIP3      4873            0.0000000000
     64451      5273  TIP3      H2            -30.0534240322       32.2075395673       30.3166259041  TIP3      4873            0.0000000000
     64452      5274  TIP3      OH2           -31.8103933121       27.9190247218       30.8026962421  TIP3      4874            0.0000000000
     64453      5274  TIP3      H1            -31.2377097009       28.0434056765       30.0223661501  TIP3      4874            0.0000000000
     64454      5274  TIP3      H2            -31.4581522985       28.5780610303       31.4334922861  TIP3      4874            0.0000000000
     64455      5275  TIP3      OH2           -25.4540771780       33.4686109139       31.5132470003  TIP3      4875            0.0000000000
     64456      5275  TIP3      H1            -25.7163351903       34.1029218845       32.1816920820  TIP3      4875            0.0000000000
     64457      5275  TIP3      H2            -25.6801412410       32.6093013676       31.9540442209  TIP3      4875            0.0000000000
     64458      5276  TIP3      OH2           -30.8861584214       32.3326446873       35.5145013851  TIP3      4876            0.0000000000
     64459      5276  TIP3      H1            -31.2492475450       33.1080058858       35.9838123970  TIP3      4876            0.0000000000
     64460      5276  TIP3      H2            -31.5643188105       32.1634993061       34.8152761160  TIP3      4876            0.0000000000
     64461      5277  TIP3      OH2           -24.9147751610       27.6629607149       22.9685425781  TIP3      4877            0.0000000000
     64462      5277  TIP3      H1            -24.3373217902       27.8573183140       23.7429085428  TIP3      4877            0.0000000000
     64463      5277  TIP3      H2            -24.4932080431       28.1651155814       22.2625767968  TIP3      4877            0.0000000000
     64464      5278  TIP3      OH2           -33.9596979529       28.5098517835       34.7078148448  TIP3      4878            0.0000000000
     64465      5278  TIP3      H1            -33.9156844206       29.1795705684       35.4213596547  TIP3      4878            0.0000000000
     64466      5278  TIP3      H2            -34.8813156700       28.6213206773       34.4297480163  TIP3      4878            0.0000000000
     64467      5279  TIP3      OH2           -27.1944147241       34.4228475009       26.3809040328  TIP3      4879            0.0000000000
     64468      5279  TIP3      H1            -26.7414928568       34.7265510723       27.1804899521  TIP3      4879            0.0000000000
     64469      5279  TIP3      H2            -27.7578884136       35.1760992754       26.1673267506  TIP3      4879            0.0000000000
     64470      5280  TIP3      OH2           -32.6480056627       34.3974543560       36.2739489283  TIP3      4880            0.0000000000
     64471      5280  TIP3      H1            -32.6762348925       34.2698585722       35.3111289332  TIP3      4880            0.0000000000
     64472      5280  TIP3      H2            -33.5861625398       34.2726571878       36.5234107853  TIP3      4880            0.0000000000
     64473      5281  TIP3      OH2           -33.1844204066       28.2216514493       24.7721325707  TIP3      4881            0.0000000000
     64474      5281  TIP3      H1            -33.4642925963       28.9920634984       24.2466649499  TIP3      4881            0.0000000000
     64475      5281  TIP3      H2            -33.8377447000       27.5537397470       24.5637623133  TIP3      4881            0.0000000000
     64476      5282  TIP3      OH2           -20.0388393540       33.8131754550       21.1989429296  TIP3      4882            0.0000000000
     64477      5282  TIP3      H1            -19.9502603992       34.7491490798       21.2944740808  TIP3      4882            0.0000000000
     64478      5282  TIP3      H2            -19.1392024225       33.4809161357       21.0721015987  TIP3      4882            0.0000000000
     64479      5283  TIP3      OH2           -37.0815696075       30.6151090618       33.6123874310  TIP3      4883            0.0000000000
     64480      5283  TIP3      H1            -37.5639949353       30.5489027479       32.7681116689  TIP3      4883            0.0000000000
     64481      5283  TIP3      H2            -37.0539383858       29.6752067470       33.8708784917  TIP3      4883            0.0000000000
     64482      5284  TIP3      OH2           -37.3304711264       33.3589958287       30.4507995933  TIP3      4884            0.0000000000
     64483      5284  TIP3      H1            -36.3742231092       33.2363419179       30.4293758207  TIP3      4884            0.0000000000
     64484      5284  TIP3      H2            -37.4264896869       34.1657030386       30.9742721269  TIP3      4884            0.0000000000
     64485      5285  TIP3      OH2           -19.1034374453       34.0538027127       36.1137111004  TIP3      4885            0.0000000000
     64486      5285  TIP3      H1            -19.1972478381       33.0901460113       36.1069164193  TIP3      4885            0.0000000000
     64487      5285  TIP3      H2            -19.9633409097       34.3025646590       36.5378793799  TIP3      4885            0.0000000000
     64488      5286  TIP3      OH2           -28.1393812292       33.6048150580       34.9956563792  TIP3      4886            0.0000000000
     64489      5286  TIP3      H1            -28.0674109120       34.4478283803       35.5011198517  TIP3      4886            0.0000000000
     64490      5286  TIP3      H2            -29.0165018450       33.2672921094       35.2556773647  TIP3      4886            0.0000000000
     64491      5287  TIP3      OH2           -27.7311100709       37.3603807540       24.7910554276  TIP3      4887            0.0000000000
     64492      5287  TIP3      H1            -27.7996227608       37.2955531648       23.8465908189  TIP3      4887            0.0000000000
     64493      5287  TIP3      H2            -27.6838701101       38.3282757585       24.9445394591  TIP3      4887            0.0000000000
     64494      5288  TIP3      OH2           -34.0681538102       36.2094118598       26.6082730470  TIP3      4888            0.0000000000
     64495      5288  TIP3      H1            -33.9244075865       35.8066970915       27.4905966602  TIP3      4888            0.0000000000
     64496      5288  TIP3      H2            -34.9210702127       35.8171572217       26.3583711864  TIP3      4888            0.0000000000
     64497      5289  TIP3      OH2           -24.6843644051       36.5460085131       21.7951843144  TIP3      4889            0.0000000000
     64498      5289  TIP3      H1            -24.2386900277       35.8074886198       21.3266299628  TIP3      4889            0.0000000000
     64499      5289  TIP3      H2            -24.6073141556       36.2795123974       22.7206229554  TIP3      4889            0.0000000000
     64500      5290  TIP3      OH2           -24.9654128351       36.4724757059       24.5533343326  TIP3      4890            0.0000000000
     64501      5290  TIP3      H1            -25.9097848862       36.5633577699       24.7565230326  TIP3      4890            0.0000000000
     64502      5290  TIP3      H2            -24.6920120480       35.7534721645       25.1408882290  TIP3      4890            0.0000000000
     64503      5291  TIP3      OH2           -21.9658767215       25.5359428911       36.6092633883  TIP3      4891            0.0000000000
     64504      5291  TIP3      H1            -22.4008439220       26.0029510688       35.8812117880  TIP3      4891            0.0000000000
     64505      5291  TIP3      H2            -21.9463821476       24.6189809098       36.2955818915  TIP3      4891            0.0000000000
     64506      5292  TIP3      OH2           -34.8204473038       31.9339597023       34.6039668504  TIP3      4892            0.0000000000
     64507      5292  TIP3      H1            -34.6000602826       31.5593307505       35.4802755411  TIP3      4892            0.0000000000
     64508      5292  TIP3      H2            -35.6882849687       31.5364144105       34.3931411544  TIP3      4892            0.0000000000
     64509      5293  TIP3      OH2           -32.1640453285       20.3899773661       30.5854941236  TIP3      4893            0.0000000000
     64510      5293  TIP3      H1            -33.0636510209       20.2980729731       30.1948009243  TIP3      4893            0.0000000000
     64511      5293  TIP3      H2            -32.2469066295       21.2453578353       31.0343769387  TIP3      4893            0.0000000000
     64512      5294  TIP3      OH2           -27.5150856697       20.1026800015       33.9503896925  TIP3      4894            0.0000000000
     64513      5294  TIP3      H1            -27.1129553194       19.6770926778       34.7285449498  TIP3      4894            0.0000000000
     64514      5294  TIP3      H2            -28.4815975733       19.9391836435       34.0864777461  TIP3      4894            0.0000000000
     64515      5295  TIP3      OH2           -24.2045968294       23.8884847366       34.8209408061  TIP3      4895            0.0000000000
     64516      5295  TIP3      H1            -24.7480023215       23.7217245551       35.6282380877  TIP3      4895            0.0000000000
     64517      5295  TIP3      H2            -24.3768674401       24.8106043359       34.5839227937  TIP3      4895            0.0000000000
     64518      5296  TIP3      OH2           -32.0721983734       25.3548394040       31.7442514821  TIP3      4896            0.0000000000
     64519      5296  TIP3      H1            -32.7691490771       25.3337600886       32.4257362436  TIP3      4896            0.0000000000
     64520      5296  TIP3      H2            -32.0805658138       26.2922465133       31.4490109278  TIP3      4896            0.0000000000
     64521      5297  TIP3      OH2           -32.0955117471       25.5458174034       26.6500879873  TIP3      4897            0.0000000000
     64522      5297  TIP3      H1            -33.0172513847       25.2349029506       26.5365677629  TIP3      4897            0.0000000000
     64523      5297  TIP3      H2            -31.6783038049       25.2048868151       25.8334047627  TIP3      4897            0.0000000000
     64524      5298  TIP3      OH2           -26.5758334936       25.9775925062       25.4342576490  TIP3      4898            0.0000000000
     64525      5298  TIP3      H1            -26.9793718322       26.8176053655       25.1300844048  TIP3      4898            0.0000000000
     64526      5298  TIP3      H2            -25.8571435483       25.8531556538       24.8052625211  TIP3      4898            0.0000000000
     64527      5299  TIP3      OH2           -27.4820153200       26.1946588136       36.8985206433  TIP3      4899            0.0000000000
     64528      5299  TIP3      H1            -28.0375604085       25.4439398602       37.2205067168  TIP3      4899            0.0000000000
     64529      5299  TIP3      H2            -26.6502776983       26.0585451705       37.3792782595  TIP3      4899            0.0000000000
     64530      5300  TIP3      OH2           -25.5523725330       25.4625615557       28.2720227448  TIP3      4900            0.0000000000
     64531      5300  TIP3      H1            -25.7825351332       26.0415500423       27.5255477074  TIP3      4900            0.0000000000
     64532      5300  TIP3      H2            -25.4053628795       24.6156178849       27.8014581253  TIP3      4900            0.0000000000
     64533      5301  TIP3      OH2           -34.3835447333       25.6629280248       33.5310186574  TIP3      4901            0.0000000000
     64534      5301  TIP3      H1            -34.3790496107       26.0638194707       34.4176013191  TIP3      4901            0.0000000000
     64535      5301  TIP3      H2            -34.8579771838       24.8316699960       33.6777005657  TIP3      4901            0.0000000000
     64536      5302  TIP3      OH2           -37.7647191714       22.7771803642       27.4348969996  TIP3      4902            0.0000000000
     64537      5302  TIP3      H1            -37.1022106189       22.7412670554       28.1531167263  TIP3      4902            0.0000000000
     64538      5302  TIP3      H2            -37.3007876084       22.3613648945       26.6852826333  TIP3      4902            0.0000000000
     64539      5303  TIP3      OH2           -36.4547171575       23.5125638730       22.8750855272  TIP3      4903            0.0000000000
     64540      5303  TIP3      H1            -36.0272125353       24.1176999557       22.2547720861  TIP3      4903            0.0000000000
     64541      5303  TIP3      H2            -37.1932135002       24.0857607312       23.1584029490  TIP3      4903            0.0000000000
     64542      5304  TIP3      OH2           -26.3152897490       27.0857868250       32.8866689373  TIP3      4904            0.0000000000
     64543      5304  TIP3      H1            -25.9694251252       26.4188533052       32.2643004886  TIP3      4904            0.0000000000
     64544      5304  TIP3      H2            -26.7648334686       26.5402010403       33.5563175499  TIP3      4904            0.0000000000
     64545      5305  TIP3      OH2           -29.5270124685       23.0224519569       27.6884789541  TIP3      4905            0.0000000000
     64546      5305  TIP3      H1            -30.4619074899       23.0584302446       27.9893128093  TIP3      4905            0.0000000000
     64547      5305  TIP3      H2            -29.0304689527       22.9222445934       28.5133828970  TIP3      4905            0.0000000000
     64548      5306  TIP3      OH2           -34.7082498269       24.6201737729       26.5435619622  TIP3      4906            0.0000000000
     64549      5306  TIP3      H1            -35.6031963197       24.7363450272       26.1683919571  TIP3      4906            0.0000000000
     64550      5306  TIP3      H2            -34.4142085772       23.7781618363       26.1614239962  TIP3      4906            0.0000000000
     64551      5307  TIP3      OH2           -31.0693475404       24.6352491937       24.1807325998  TIP3      4907            0.0000000000
     64552      5307  TIP3      H1            -30.1161638620       24.7487489429       24.3536369309  TIP3      4907            0.0000000000
     64553      5307  TIP3      H2            -31.2828406022       25.3187884636       23.5196300354  TIP3      4907            0.0000000000
     64554      5308  TIP3      OH2           -25.1152263681       22.2585155685       30.9429824716  TIP3      4908            0.0000000000
     64555      5308  TIP3      H1            -25.8100504053       22.3574438223       31.6294708444  TIP3      4908            0.0000000000
     64556      5308  TIP3      H2            -25.6212213261       22.0642005977       30.1426449772  TIP3      4908            0.0000000000
     64557      5309  TIP3      OH2           -32.3905947167       25.8054439389       21.7486996158  TIP3      4909            0.0000000000
     64558      5309  TIP3      H1            -32.9260350537       25.4590472270       21.0458475056  TIP3      4909            0.0000000000
     64559      5309  TIP3      H2            -31.5510781739       26.0522753965       21.3286179118  TIP3      4909            0.0000000000
     64560      5310  TIP3      OH2           -21.8845071684       37.9150641293       37.2583092029  TIP3      4910            0.0000000000
     64561      5310  TIP3      H1            -21.6360786260       38.3248699411       36.4065549591  TIP3      4910            0.0000000000
     64562      5310  TIP3      H2            -21.1809743188       38.2522012833       37.8423501138  TIP3      4910            0.0000000000
     64563      5311  TIP3      OH2           -34.2278830156       30.3837863931       36.8241156292  TIP3      4911            0.0000000000
     64564      5311  TIP3      H1            -33.5155224345       30.6422902165       37.4310088936  TIP3      4911            0.0000000000
     64565      5311  TIP3      H2            -35.0234402672       30.5498971093       37.3812208589  TIP3      4911            0.0000000000
     64566      5312  TIP3      OH2           -28.2285713060       25.8000832350       29.5801319820  TIP3      4912            0.0000000000
     64567      5312  TIP3      H1            -27.6459433721       25.2525005302       29.0383342721  TIP3      4912            0.0000000000
     64568      5312  TIP3      H2            -28.3689419276       25.2620139015       30.3699910889  TIP3      4912            0.0000000000
     64569      5313  TIP3      OH2           -33.2207349827       21.9453853865       26.0162054883  TIP3      4913            0.0000000000
     64570      5313  TIP3      H1            -33.5316141941       21.0228385303       25.9750042528  TIP3      4913            0.0000000000
     64571      5313  TIP3      H2            -32.4339319006       21.9107297531       25.4515360462  TIP3      4913            0.0000000000
     64572      5314  TIP3      OH2           -29.5902325675       24.1523873000       31.9890148176  TIP3      4914            0.0000000000
     64573      5314  TIP3      H1            -30.4272608115       24.6441798458       32.0990001259  TIP3      4914            0.0000000000
     64574      5314  TIP3      H2            -29.0532677182       24.4711396792       32.7417231578  TIP3      4914            0.0000000000
     64575      5315  TIP3      OH2           -21.8637020912       29.5312161539       32.4880414054  TIP3      4915            0.0000000000
     64576      5315  TIP3      H1            -21.2589514934       30.0054042735       31.8934392062  TIP3      4915            0.0000000000
     64577      5315  TIP3      H2            -22.7122361529       29.6303720745       32.0062064820  TIP3      4915            0.0000000000
     64578      5316  TIP3      OH2           -27.5218714565       30.5918573534       34.9205834013  TIP3      4916            0.0000000000
     64579      5316  TIP3      H1            -27.8674516293       30.1960729042       35.7281719056  TIP3      4916            0.0000000000
     64580      5316  TIP3      H2            -27.7411337145       31.5243178429       35.0069117265  TIP3      4916            0.0000000000
     64581      5317  TIP3      OH2           -24.4348482408       25.0438534270       23.5076679494  TIP3      4917            0.0000000000
     64582      5317  TIP3      H1            -23.5361020326       24.9408615862       23.8927474875  TIP3      4917            0.0000000000
     64583      5317  TIP3      H2            -24.3630870174       25.8782191436       23.0139404295  TIP3      4917            0.0000000000
     64584      5318  TIP3      OH2           -33.9149933615       29.7176763760       29.4710914093  TIP3      4918            0.0000000000
     64585      5318  TIP3      H1            -33.1843951128       29.6753382339       28.8232654895  TIP3      4918            0.0000000000
     64586      5318  TIP3      H2            -33.8385748425       28.8672138849       29.9366542107  TIP3      4918            0.0000000000
     64587      5319  TIP3      OH2           -36.9163679626       28.1607283039       34.7562149037  TIP3      4919            0.0000000000
     64588      5319  TIP3      H1            -36.7034992586       27.7201246132       35.6034005615  TIP3      4919            0.0000000000
     64589      5319  TIP3      H2            -37.5236869984       27.5315969058       34.3307903169  TIP3      4919            0.0000000000
     64590      5320  TIP3      OH2           -29.8998990830       27.6914363098       36.9679937641  TIP3      4920            0.0000000000
     64591      5320  TIP3      H1            -30.1971563776       27.4654812667       36.0762025646  TIP3      4920            0.0000000000
     64592      5320  TIP3      H2            -28.9590218270       27.4245219356       36.9509333842  TIP3      4920            0.0000000000
     64593      5321  TIP3      OH2           -25.2430609165       33.0367012158       34.8600415314  TIP3      4921            0.0000000000
     64594      5321  TIP3      H1            -26.1667547823       33.2275368439       34.6235772854  TIP3      4921            0.0000000000
     64595      5321  TIP3      H2            -25.2482080993       33.3163905637       35.7976981086  TIP3      4921            0.0000000000
     64596      5322  TIP3      OH2           -19.5602046764       25.2798449667       23.2727041260  TIP3      4922            0.0000000000
     64597      5322  TIP3      H1            -20.0851647046       24.9027585279       22.5575639770  TIP3      4922            0.0000000000
     64598      5322  TIP3      H2            -19.4502231094       26.2036890453       22.9670374129  TIP3      4922            0.0000000000
     64599      5323  TIP3      OH2           -19.5633484753       31.0888901720       36.0890970292  TIP3      4923            0.0000000000
     64600      5323  TIP3      H1            -20.4439899814       31.3181755731       35.7047259722  TIP3      4923            0.0000000000
     64601      5323  TIP3      H2            -18.9938503647       31.0626894503       35.2965205592  TIP3      4923            0.0000000000
     64602      5324  TIP3      OH2           -21.2282023533       34.0756202057       23.6942658915  TIP3      4924            0.0000000000
     64603      5324  TIP3      H1            -21.6218847676       33.2448762677       24.0085420870  TIP3      4924            0.0000000000
     64604      5324  TIP3      H2            -20.9738841200       33.8624350577       22.7747452939  TIP3      4924            0.0000000000
     64605      5325  TIP3      OH2           -24.0663814691       28.8841703188       30.7478611403  TIP3      4925            0.0000000000
     64606      5325  TIP3      H1            -25.0093665230       28.6489871729       30.6808088495  TIP3      4925            0.0000000000
     64607      5325  TIP3      H2            -23.6306197719       28.0994812610       30.3696546134  TIP3      4925            0.0000000000
     64608      5326  TIP3      OH2           -31.5437905463       33.2025510018       26.8724583487  TIP3      4926            0.0000000000
     64609      5326  TIP3      H1            -31.0179929537       33.9901210237       26.6563569770  TIP3      4926            0.0000000000
     64610      5326  TIP3      H2            -32.4207675299       33.4388819475       26.5461996640  TIP3      4926            0.0000000000
     64611      5327  TIP3      OH2           -35.7873811108       28.0550763392       21.4645946879  TIP3      4927            0.0000000000
     64612      5327  TIP3      H1            -35.1660062967       28.7064478749       21.8256106105  TIP3      4927            0.0000000000
     64613      5327  TIP3      H2            -36.6516471691       28.3879115044       21.6981807269  TIP3      4927            0.0000000000
     64614      5328  TIP3      OH2           -30.0942650486       30.8662138203       26.4359521551  TIP3      4928            0.0000000000
     64615      5328  TIP3      H1            -30.3830624161       31.7950870720       26.4767202291  TIP3      4928            0.0000000000
     64616      5328  TIP3      H2            -30.8561279647       30.4007693010       26.8268942939  TIP3      4928            0.0000000000
     64617      5329  TIP3      OH2           -29.6414076170       35.0314180171       32.7660993408  TIP3      4929            0.0000000000
     64618      5329  TIP3      H1            -29.2249702349       35.8705123834       32.5124459190  TIP3      4929            0.0000000000
     64619      5329  TIP3      H2            -29.0564920872       34.7227781331       33.4834731500  TIP3      4929            0.0000000000
     64620      5330  TIP3      OH2           -31.4236740762       35.8774171515       25.9442778500  TIP3      4930            0.0000000000
     64621      5330  TIP3      H1            -32.3931469604       35.9943542098       26.0562234874  TIP3      4930            0.0000000000
     64622      5330  TIP3      H2            -31.0856484628       36.7125347649       26.3145545415  TIP3      4930            0.0000000000
     64623      5331  TIP3      OH2           -26.0859806853       31.0951629557       32.4335037167  TIP3      4931            0.0000000000
     64624      5331  TIP3      H1            -26.4785425571       30.8790209500       33.3005563876  TIP3      4931            0.0000000000
     64625      5331  TIP3      H2            -25.4788811450       30.3607255153       32.2596269820  TIP3      4931            0.0000000000
     64626      5332  TIP3      OH2           -23.3643433664       35.6526685978       34.9293262987  TIP3      4932            0.0000000000
     64627      5332  TIP3      H1            -24.0076136469       35.1252916243       34.4167749498  TIP3      4932            0.0000000000
     64628      5332  TIP3      H2            -23.1281374237       36.3381682125       34.2690009354  TIP3      4932            0.0000000000
     64629      5333  TIP3      OH2           -35.2628036487       22.8997022641       34.3102081945  TIP3      4933            0.0000000000
     64630      5333  TIP3      H1            -36.1735091480       23.2412694421       34.2652184330  TIP3      4933            0.0000000000
     64631      5333  TIP3      H2            -35.3772030774       22.0432167886       34.7510767860  TIP3      4933            0.0000000000
     64632      5334  TIP3      OH2           -23.0188840717       30.7289213518       23.7361953011  TIP3      4934            0.0000000000
     64633      5334  TIP3      H1            -23.2533792258       29.9758711710       24.3107738382  TIP3      4934            0.0000000000
     64634      5334  TIP3      H2            -22.0695988745       30.8253010481       23.9460774554  TIP3      4934            0.0000000000
     64635      5335  TIP3      OH2           -35.6300586190       34.7014836566       32.7401332520  TIP3      4935            0.0000000000
     64636      5335  TIP3      H1            -35.3845314090       33.7617081513       32.7342835013  TIP3      4935            0.0000000000
     64637      5335  TIP3      H2            -35.3789844782       34.9705885764       33.6326476363  TIP3      4935            0.0000000000
     64638      5336  TIP3      OH2           -34.4595797954       29.9452526200       22.9460229766  TIP3      4936            0.0000000000
     64639      5336  TIP3      H1            -35.0920612803       30.3599335160       23.5384568942  TIP3      4936            0.0000000000
     64640      5336  TIP3      H2            -33.8861301528       30.6967773543       22.7046302967  TIP3      4936            0.0000000000
     64641      5337  TIP3      OH2           -26.5387488232       22.6588640933       33.2234790967  TIP3      4937            0.0000000000
     64642      5337  TIP3      H1            -25.8329739018       22.7156048422       33.8795279179  TIP3      4937            0.0000000000
     64643      5337  TIP3      H2            -26.9203064090       21.7750085057       33.4040629222  TIP3      4937            0.0000000000
     64644      5338  TIP3      OH2           -25.7485582975       22.2694178628       24.3071268802  TIP3      4938            0.0000000000
     64645      5338  TIP3      H1            -25.5470665914       22.7838692422       23.5369081985  TIP3      4938            0.0000000000
     64646      5338  TIP3      H2            -25.2011957601       22.6828023429       24.9956889652  TIP3      4938            0.0000000000
     64647      5339  TIP3      OH2           -28.5568448453       24.0058536933       25.1501515567  TIP3      4939            0.0000000000
     64648      5339  TIP3      H1            -27.7530793919       24.5535666204       25.2013776618  TIP3      4939            0.0000000000
     64649      5339  TIP3      H2            -28.8158343700       23.8750025183       26.0783486264  TIP3      4939            0.0000000000
     64650      5340  TIP3      OH2           -28.0141334220       25.0070200430       34.3365807680  TIP3      4940            0.0000000000
     64651      5340  TIP3      H1            -27.9138310679       25.5833652695       35.1166157937  TIP3      4940            0.0000000000
     64652      5340  TIP3      H2            -27.3540799259       24.3128665743       34.4478193360  TIP3      4940            0.0000000000
     64653      5341  TIP3      OH2           -27.6862992713       21.0669528788       26.0663640228  TIP3      4941            0.0000000000
     64654      5341  TIP3      H1            -28.0237602362       21.7107642854       26.7209803268  TIP3      4941            0.0000000000
     64655      5341  TIP3      H2            -27.0074780265       21.6116447726       25.6072201128  TIP3      4941            0.0000000000
     64656      5342  TIP3      OH2           -30.7238487452       35.4640987768       23.1508470620  TIP3      4942            0.0000000000
     64657      5342  TIP3      H1            -30.6073473060       36.2738606703       22.6659565108  TIP3      4942            0.0000000000
     64658      5342  TIP3      H2            -30.9638910677       35.7660821513       24.0567039189  TIP3      4942            0.0000000000
     64659      5343  TIP3      OH2           -32.0288503049       22.1565414676       22.7696706046  TIP3      4943            0.0000000000
     64660      5343  TIP3      H1            -32.0926208948       23.0528261614       23.1283197441  TIP3      4943            0.0000000000
     64661      5343  TIP3      H2            -31.1203366392       21.9018083814       23.0099392143  TIP3      4943            0.0000000000
     64662      5344  TIP3      OH2           -21.8054775736       22.8966687324       35.1885419842  TIP3      4944            0.0000000000
     64663      5344  TIP3      H1            -22.7453513996       23.1852321884       35.0705677594  TIP3      4944            0.0000000000
     64664      5344  TIP3      H2            -21.5013233764       22.8954498611       34.2678093279  TIP3      4944            0.0000000000
     64665      5345  TIP3      OH2           -23.2149325139       26.6741427039       29.2393515197  TIP3      4945            0.0000000000
     64666      5345  TIP3      H1            -24.0277037259       26.2368206504       28.9335088584  TIP3      4945            0.0000000000
     64667      5345  TIP3      H2            -22.7532173151       25.9713691377       29.7493965541  TIP3      4945            0.0000000000
     64668      5346  TIP3      OH2           -22.1452385653       35.9125357498       30.8897933918  TIP3      4946            0.0000000000
     64669      5346  TIP3      H1            -22.2633517853       36.6066295800       30.2112619834  TIP3      4946            0.0000000000
     64670      5346  TIP3      H2            -21.1845808313       35.9916457259       31.0739922010  TIP3      4946            0.0000000000
     64671      5347  TIP3      OH2           -34.6363214061       20.0505028969       29.6527462433  TIP3      4947            0.0000000000
     64672      5347  TIP3      H1            -34.8629265164       20.0850665976       28.6966443476  TIP3      4947            0.0000000000
     64673      5347  TIP3      H2            -35.0790512696       19.2237801529       29.9298251392  TIP3      4947            0.0000000000
     64674      5348  TIP3      OH2           -35.7046975887       33.9698569605       25.8031661769  TIP3      4948            0.0000000000
     64675      5348  TIP3      H1            -36.5463366173       34.4475696221       25.8036721160  TIP3      4948            0.0000000000
     64676      5348  TIP3      H2            -35.1832833729       34.4768362164       25.1644416744  TIP3      4948            0.0000000000
     64677      5349  TIP3      OH2           -36.4472851720       36.6091402187       37.1076103246  TIP3      4949            0.0000000000
     64678      5349  TIP3      H1            -35.8779032172       36.3892281807       37.8738795479  TIP3      4949            0.0000000000
     64679      5349  TIP3      H2            -36.9010222396       35.7693355776       36.9311918061  TIP3      4949            0.0000000000
     64680      5350  TIP3      OH2           -31.8195262553       35.5268557438       38.7413302237  TIP3      4950            0.0000000000
     64681      5350  TIP3      H1            -31.0451323475       35.0454477750       39.0650037307  TIP3      4950            0.0000000000
     64682      5350  TIP3      H2            -31.8347606319       35.2721453765       37.7945820901  TIP3      4950            0.0000000000
     64683      5351  TIP3      OH2           -25.2748195037       33.9122719708       37.4550665566  TIP3      4951            0.0000000000
     64684      5351  TIP3      H1            -25.6020867484       33.0278997023       37.7181842585  TIP3      4951            0.0000000000
     64685      5351  TIP3      H2            -24.5181491594       34.0356695397       38.0590894327  TIP3      4951            0.0000000000
     64686      5352  TIP3      OH2           -23.1190099463       34.8486989143       20.3961752098  TIP3      4952            0.0000000000
     64687      5352  TIP3      H1            -22.8232683632       34.0197900615       20.7737916362  TIP3      4952            0.0000000000
     64688      5352  TIP3      H2            -22.4077928917       35.0638041575       19.7608642785  TIP3      4952            0.0000000000
     64689      5353  TIP3      OH2           -36.5348725036       30.3983071348       38.0885697426  TIP3      4953            0.0000000000
     64690      5353  TIP3      H1            -36.3781609885       29.4870978725       37.7767195542  TIP3      4953            0.0000000000
     64691      5353  TIP3      H2            -37.2965592911       30.6755384296       37.5534023821  TIP3      4953            0.0000000000
     64692      5354  TIP3      OH2           -29.8515165773       30.3748685588       37.4936014236  TIP3      4954            0.0000000000
     64693      5354  TIP3      H1            -30.1925454788       30.6633426236       36.6279718066  TIP3      4954            0.0000000000
     64694      5354  TIP3      H2            -29.7316799336       29.4071402255       37.3972705485  TIP3      4954            0.0000000000
     64695      5355  TIP3      OH2           -24.1405878847       30.2581589843       34.8851302946  TIP3      4955            0.0000000000
     64696      5355  TIP3      H1            -23.3740132612       30.8656296714       34.7847615789  TIP3      4955            0.0000000000
     64697      5355  TIP3      H2            -24.8715561157       30.8893804946       34.9341230034  TIP3      4955            0.0000000000
     64698      5356  TIP3      OH2           -35.6680917203       27.6166777191       37.4868087477  TIP3      4956            0.0000000000
     64699      5356  TIP3      H1            -35.2606096052       26.7486936618       37.3820885544  TIP3      4956            0.0000000000
     64700      5356  TIP3      H2            -35.9197528869       27.6199297276       38.4285721749  TIP3      4956            0.0000000000
     64701      5357  TIP3      OH2           -31.7396830049       26.5869929269       34.8611102843  TIP3      4957            0.0000000000
     64702      5357  TIP3      H1            -32.3543561056       27.2916904468       35.1287257992  TIP3      4957            0.0000000000
     64703      5357  TIP3      H2            -31.3791092206       26.9379580990       34.0290036512  TIP3      4957            0.0000000000
     64704      5358  TIP3      OH2           -29.9554445074       26.9280366722       20.7532471198  TIP3      4958            0.0000000000
     64705      5358  TIP3      H1            -30.1094187886       26.8262646871       19.8226110128  TIP3      4958            0.0000000000
     64706      5358  TIP3      H2            -28.9957281996       27.0721194910       20.8309418278  TIP3      4958            0.0000000000
     64707      5359  TIP3      OH2           -26.7033236713       29.1123675370       38.1902121449  TIP3      4959            0.0000000000
     64708      5359  TIP3      H1            -25.7435517607       29.1472851468       38.0849424411  TIP3      4959            0.0000000000
     64709      5359  TIP3      H2            -26.8656037729       28.3548325763       38.7654289173  TIP3      4959            0.0000000000
     64710      5360  TIP3      OH2           -31.3693772843       23.9594178177       35.9324409557  TIP3      4960            0.0000000000
     64711      5360  TIP3      H1            -31.2401402663       23.2304300184       35.3045634605  TIP3      4960            0.0000000000
     64712      5360  TIP3      H2            -31.3920771103       24.7557901586       35.3668821250  TIP3      4960            0.0000000000
     64713      5361  TIP3      OH2           -30.9625588422       22.3295807958       33.4544954916  TIP3      4961            0.0000000000
     64714      5361  TIP3      H1            -30.4381629542       22.7915233017       32.7610278551  TIP3      4961            0.0000000000
     64715      5361  TIP3      H2            -31.8435364027       22.2357176085       33.0234521982  TIP3      4961            0.0000000000
     64716      5362  TIP3      OH2           -29.4018867802       27.7836847006       33.6929610716  TIP3      4962            0.0000000000
     64717      5362  TIP3      H1            -28.6488543005       27.6290225892       33.1104179989  TIP3      4962            0.0000000000
     64718      5362  TIP3      H2            -29.7493911723       28.6372214416       33.3872752376  TIP3      4962            0.0000000000
     64719      5363  TIP3      OH2           -24.9978996833       25.5802013416       38.6911120119  TIP3      4963            0.0000000000
     64720      5363  TIP3      H1            -24.7860676962       24.6406828153       38.5895772742  TIP3      4963            0.0000000000
     64721      5363  TIP3      H2            -24.1254171070       26.0043023826       38.6843089484  TIP3      4963            0.0000000000
     64722      5364  TIP3      OH2           -23.6755550681       28.3637872379       36.8189241397  TIP3      4964            0.0000000000
     64723      5364  TIP3      H1            -23.9331913742       29.0890628140       36.2027690033  TIP3      4964            0.0000000000
     64724      5364  TIP3      H2            -22.7179043926       28.3188278942       36.6187256933  TIP3      4964            0.0000000000
     64725      5365  TIP3      OH2           -32.8982427806       25.1856431636       37.8611411174  TIP3      4965            0.0000000000
     64726      5365  TIP3      H1            -33.6738832317       24.6250433206       37.6412611216  TIP3      4965            0.0000000000
     64727      5365  TIP3      H2            -32.2380773748       24.8421042635       37.2284225665  TIP3      4965            0.0000000000
     64728      5366  TIP3      OH2           -30.1636670111       19.7701415761       33.8754232319  TIP3      4966            0.0000000000
     64729      5366  TIP3      H1            -30.2999089580       20.7395469081       33.7584072670  TIP3      4966            0.0000000000
     64730      5366  TIP3      H2            -30.9198633534       19.4151817847       33.3729096486  TIP3      4966            0.0000000000
     64731      5367  TIP3      OH2           -28.8946941633       24.0987840763       37.4493950266  TIP3      4967            0.0000000000
     64732      5367  TIP3      H1            -29.1728978389       23.8818089467       38.3570988621  TIP3      4967            0.0000000000
     64733      5367  TIP3      H2            -29.6947718306       23.9016724150       36.9226028204  TIP3      4967            0.0000000000
     64734      5368  TIP3      OH2           -26.1793630553       23.2343678700       36.5144665995  TIP3      4968            0.0000000000
     64735      5368  TIP3      H1            -27.1422866943       23.2774520186       36.6541637738  TIP3      4968            0.0000000000
     64736      5368  TIP3      H2            -25.8902029163       22.6056992728       37.1958564568  TIP3      4968            0.0000000000
     64737      5369  TIP3      OH2           -24.5769098116       21.8705078379       38.4878601871  TIP3      4969            0.0000000000
     64738      5369  TIP3      H1            -24.6483747233       20.8989399463       38.5022303543  TIP3      4969            0.0000000000
     64739      5369  TIP3      H2            -24.8719905639       22.1495233246       39.3844927371  TIP3      4969            0.0000000000
     64740      5370  TIP3      OH2           -34.7630231595       23.1114904310       37.5667675516  TIP3      4970            0.0000000000
     64741      5370  TIP3      H1            -34.5351313932       22.3794881738       36.9610576711  TIP3      4970            0.0000000000
     64742      5370  TIP3      H2            -34.8607651332       22.6539645549       38.4301288484  TIP3      4970            0.0000000000
     64743      5371  TIP3      OH2           -29.9555143875       19.1166026116       36.5540436157  TIP3      4971            0.0000000000
     64744      5371  TIP3      H1            -29.2456738932       18.4390840475       36.5248704237  TIP3      4971            0.0000000000
     64745      5371  TIP3      H2            -30.0510137995       19.3312123170       35.6071082243  TIP3      4971            0.0000000000
     64746      5372  TIP3      OH2           -29.5924955552       20.7643863519       38.6231408092  TIP3      4972            0.0000000000
     64747      5372  TIP3      H1            -29.7402810999       20.2718630606       37.7790627487  TIP3      4972            0.0000000000
     64748      5372  TIP3      H2            -30.1922577251       21.5269755479       38.5353289680  TIP3      4972            0.0000000000
     64749      5373  TIP3      OH2           -36.4718893312       32.2726059979       21.2845991161  TIP3      4973            0.0000000000
     64750      5373  TIP3      H1            -35.5541851859       32.3768457774       21.5036191108  TIP3      4973            0.0000000000
     64751      5373  TIP3      H2            -36.4922792390       31.6208685289       20.5720066649  TIP3      4973            0.0000000000
     64752      5374  TIP3      OH2           -37.8055971903       37.6716784095       26.3059609897  TIP3      4974            0.0000000000
     64753      5374  TIP3      H1            -38.4892381096       37.1905870965       25.7914792237  TIP3      4974            0.0000000000
     64754      5374  TIP3      H2            -37.4890976370       36.9954296385       26.9247677479  TIP3      4974            0.0000000000
     64755      5375  TIP3      OH2           -36.9594657613       35.7665292606       28.1314874841  TIP3      4975            0.0000000000
     64756      5375  TIP3      H1            -37.3037917128       34.8829011689       28.3224623638  TIP3      4975            0.0000000000
     64757      5375  TIP3      H2            -36.7360081144       36.1040821162       29.0165820297  TIP3      4975            0.0000000000
     64758      5376  TIP3      OH2           -19.4245589991       36.5670823762       31.0944221121  TIP3      4976            0.0000000000
     64759      5376  TIP3      H1            -19.4162361880       36.7509365300       32.0495433946  TIP3      4976            0.0000000000
     64760      5376  TIP3      H2            -18.7206961432       37.1453553907       30.7773722278  TIP3      4976            0.0000000000
     64761      5377  TIP3      OH2           -19.8473849061       36.1653689007       34.0331161201  TIP3      4977            0.0000000000
     64762      5377  TIP3      H1            -20.3310432118       35.3947705990       33.6594188623  TIP3      4977            0.0000000000
     64763      5377  TIP3      H2            -19.3218558685       35.7293082728       34.7225061374  TIP3      4977            0.0000000000
     64764      5378  TIP3      OH2           -21.3974898478       31.8958983317       38.6727146868  TIP3      4978            0.0000000000
     64765      5378  TIP3      H1            -22.2816107563       31.8437095577       39.0758826756  TIP3      4978            0.0000000000
     64766      5378  TIP3      H2            -21.0256315777       32.6916057920       39.1230656353  TIP3      4978            0.0000000000
     64767      5379  TIP3      OH2           -20.1006158279       30.1982938254       24.1513831817  TIP3      4979            0.0000000000
     64768      5379  TIP3      H1            -19.2325354999       30.6018106625       24.3181052524  TIP3      4979            0.0000000000
     64769      5379  TIP3      H2            -20.0861061031       29.4600409264       24.8025695373  TIP3      4979            0.0000000000
     64770      5380  TIP3      OH2           -19.7176748525       28.2628985371       25.9904015794  TIP3      4980            0.0000000000
     64771      5380  TIP3      H1            -20.4539365303       27.7658208787       26.4076800331  TIP3      4980            0.0000000000
     64772      5380  TIP3      H2            -19.1234680842       28.4394960999       26.7524165266  TIP3      4980            0.0000000000
     64773      5381  TIP3      OH2           -19.9644884042       31.0009924352       30.9807297610  TIP3      4981            0.0000000000
     64774      5381  TIP3      H1            -19.1234386638       30.6352716662       30.6497705069  TIP3      4981            0.0000000000
     64775      5381  TIP3      H2            -19.8273819255       31.9618899079       30.8312036088  TIP3      4981            0.0000000000
     64776      5382  TIP3      OH2           -21.4299555494       33.8962268555       33.2747367825  TIP3      4982            0.0000000000
     64777      5382  TIP3      H1            -22.1128106494       34.2301987105       33.8784018424  TIP3      4982            0.0000000000
     64778      5382  TIP3      H2            -21.9765927595       33.4717104726       32.5769457564  TIP3      4982            0.0000000000
     64779      5383  TIP3      OH2           -19.4495761941       28.1009514427       22.4177427518  TIP3      4983            0.0000000000
     64780      5383  TIP3      H1            -19.9419680087       28.4926639489       21.6799504717  TIP3      4983            0.0000000000
     64781      5383  TIP3      H2            -19.4710396339       28.8282236907       23.0635783446  TIP3      4983            0.0000000000
     64782      5384  TIP3      OH2           -21.9089755128       26.7652964031       26.5648287993  TIP3      4984            0.0000000000
     64783      5384  TIP3      H1            -22.0678680631       25.8106032232       26.5554367189  TIP3      4984            0.0000000000
     64784      5384  TIP3      H2            -22.2619390456       27.0194886978       27.4346921066  TIP3      4984            0.0000000000
     64785      5385  TIP3      OH2           -36.9004417791       28.8471496887       30.6143691932  TIP3      4985            0.0000000000
     64786      5385  TIP3      H1            -36.7016381164       28.7615692101       29.6558817323  TIP3      4985            0.0000000000
     64787      5385  TIP3      H2            -36.0155119495       28.6982812224       31.0003625727  TIP3      4985            0.0000000000
     64788      5386  TIP3      OH2           -21.0680164744       28.7323919099       36.2415996528  TIP3      4986            0.0000000000
     64789      5386  TIP3      H1            -20.4573734653       27.9829792052       36.4016878619  TIP3      4986            0.0000000000
     64790      5386  TIP3      H2            -20.4748056755       29.5099693803       36.2610844778  TIP3      4986            0.0000000000
     64791      5387  TIP3      OH2           -19.5559255372       26.6361231819       36.9171879797  TIP3      4987            0.0000000000
     64792      5387  TIP3      H1            -20.4322732013       26.2328962589       36.7387156647  TIP3      4987            0.0000000000
     64793      5387  TIP3      H2            -18.9669297203       25.8700251706       36.8287362998  TIP3      4987            0.0000000000
     64794      5388  TIP3      OH2           -22.2374245841       24.3526613791       25.0319495061  TIP3      4988            0.0000000000
     64795      5388  TIP3      H1            -21.9202920397       23.4240814042       25.1564421591  TIP3      4988            0.0000000000
     64796      5388  TIP3      H2            -21.4417506276       24.7598857730       24.6557320697  TIP3      4988            0.0000000000
     64797      5389  TIP3      OH2           -21.6079113164       24.8984924934       30.4709335928  TIP3      4989            0.0000000000
     64798      5389  TIP3      H1            -20.6508301605       25.1355295939       30.4528391022  TIP3      4989            0.0000000000
     64799      5389  TIP3      H2            -21.8125620933       25.0333960391       31.4095772662  TIP3      4989            0.0000000000
     64800      5390  TIP3      OH2           -21.5469983788       25.6274789985       33.2540611216  TIP3      4990            0.0000000000
     64801      5390  TIP3      H1            -22.4167215654       25.9228128824       33.6029377460  TIP3      4990            0.0000000000
     64802      5390  TIP3      H2            -21.1136353102       26.4876009288       33.0370798950  TIP3      4990            0.0000000000
     64803      5391  TIP3      OH2           -37.2929647049       24.1352877160       36.7493235981  TIP3      4991            0.0000000000
     64804      5391  TIP3      H1            -36.3560639447       23.9638914114       36.9745096267  TIP3      4991            0.0000000000
     64805      5391  TIP3      H2            -37.7387281318       23.3367432235       37.1045989235  TIP3      4991            0.0000000000
     64806      5392  TIP3      OH2           -19.2771705741       19.6487825770       38.6021422043  TIP3      4992            0.0000000000
     64807      5392  TIP3      H1            -18.9242251444       18.9896052877       37.9883421547  TIP3      4992            0.0000000000
     64808      5392  TIP3      H2            -19.1423722210       20.4850085447       38.1248053072  TIP3      4992            0.0000000000
     64809      5393  TIP3      OH2           -21.5841750860       21.6250971163       25.0737057508  TIP3      4993            0.0000000000
     64810      5393  TIP3      H1            -21.3835059214       21.1682548820       25.9130473483  TIP3      4993            0.0000000000
     64811      5393  TIP3      H2            -22.1934750451       20.9968104113       24.6237486302  TIP3      4993            0.0000000000
     64812      5394  TIP3      OH2           -36.0822049412       22.4317735118       29.6220897253  TIP3      4994            0.0000000000
     64813      5394  TIP3      H1            -35.6174257390       21.6215572640       29.9149157648  TIP3      4994            0.0000000000
     64814      5394  TIP3      H2            -35.5759709098       23.1396684276       30.0434836589  TIP3      4994            0.0000000000
     64815      5395  TIP3      OH2           -37.7908817236       25.4202725507       30.6891781089  TIP3      4995            0.0000000000
     64816      5395  TIP3      H1            -37.2488096537       25.2016897001       29.9018299389  TIP3      4995            0.0000000000
     64817      5395  TIP3      H2            -37.3719801386       26.2535639127       30.9558209239  TIP3      4995            0.0000000000
     64818      5396  TIP3      OH2           -19.7453924018       21.7628625071       36.9659133224  TIP3      4996            0.0000000000
     64819      5396  TIP3      H1            -20.6886655837       22.0259431341       36.9119963555  TIP3      4996            0.0000000000
     64820      5396  TIP3      H2            -19.6729851195       21.2210020456       36.1630416991  TIP3      4996            0.0000000000
     64821      5397  TIP3      OH2           -37.4443794482       21.6948084502       24.7516500522  TIP3      4997            0.0000000000
     64822      5397  TIP3      H1            -38.3815787691       21.8916004539       24.6102827214  TIP3      4997            0.0000000000
     64823      5397  TIP3      H2            -37.0017396074       22.1763058641       24.0341155836  TIP3      4997            0.0000000000
     64824      5398  TIP3      OH2           -22.6900165804       36.6596733028       26.6860983371  TIP3      4998            0.0000000000
     64825      5398  TIP3      H1            -22.0156252983       36.3225821209       26.0772282652  TIP3      4998            0.0000000000
     64826      5398  TIP3      H2            -22.1692586453       37.1495650099       27.3404487432  TIP3      4998            0.0000000000
     64827      5399  TIP3      OH2           -37.4761473748       20.3916914244       33.0714186553  TIP3      4999            0.0000000000
     64828      5399  TIP3      H1            -38.1565791456       20.1706647649       33.7305664427  TIP3      4999            0.0000000000
     64829      5399  TIP3      H2            -37.9395558014       21.0445153444       32.5039467471  TIP3      4999            0.0000000000
     64830      5400  TIP3      OH2           -35.2692368870       33.5779951565       37.2260690986  TIP3      5000            0.0000000000
     64831      5400  TIP3      H1            -36.1102208450       33.7719740828       36.7795286302  TIP3      5000            0.0000000000
     64832      5400  TIP3      H2            -35.5393659250       33.5129629972       38.1503485351  TIP3      5000            0.0000000000
     64833      5401  TIP3      OH2           -32.3501012759       34.5529185680       33.4933619356  TIP3      5001            0.0000000000
     64834      5401  TIP3      H1            -32.7296599814       35.3948453653       33.2062177205  TIP3      5001            0.0000000000
     64835      5401  TIP3      H2            -31.4260183103       34.6577471551       33.1812278457  TIP3      5001            0.0000000000
     64836      5402  TIP3      OH2           -28.0346582183       35.9761876687       36.4189991090  TIP3      5002            0.0000000000
     64837      5402  TIP3      H1            -27.8554905603       35.6309152915       37.3306406300  TIP3      5002            0.0000000000
     64838      5402  TIP3      H2            -27.1503610722       36.2793903486       36.1400862251  TIP3      5002            0.0000000000
     64839      5403  TIP3      OH2           -25.7184366191       37.2501764597       35.6882893281  TIP3      5003            0.0000000000
     64840      5403  TIP3      H1            -25.0011274985       36.6357926157       35.4590696582  TIP3      5003            0.0000000000
     64841      5403  TIP3      H2            -25.3533673024       37.6636157744       36.5019061606  TIP3      5003            0.0000000000
     64842      5404  TIP3      OH2           -20.7439447248       19.8614469685       34.7969064023  TIP3      5004            0.0000000000
     64843      5404  TIP3      H1            -21.5724195515       20.1619559771       34.3810890740  TIP3      5004            0.0000000000
     64844      5404  TIP3      H2            -20.5447637872       19.0648112144       34.2513077722  TIP3      5004            0.0000000000
     64845      5405  TIP3      OH2           -34.9230253051       37.8081147536       33.5145650167  TIP3      5005            0.0000000000
     64846      5405  TIP3      H1            -35.6587397370       38.2788370896       33.0879943612  TIP3      5005            0.0000000000
     64847      5405  TIP3      H2            -35.2789202234       37.5842241018       34.3870018361  TIP3      5005            0.0000000000
     64848      5406  TIP3      OH2           -32.4517849673       37.3945779136       32.5670652732  TIP3      5006            0.0000000000
     64849      5406  TIP3      H1            -33.3470511308       37.5073200898       32.9656112268  TIP3      5006            0.0000000000
     64850      5406  TIP3      H2            -32.5244654551       37.9729089318       31.7813933186  TIP3      5006            0.0000000000
     64851      5407  TIP3      OH2           -27.7539411210       37.2956485854       31.7347813883  TIP3      5007            0.0000000000
     64852      5407  TIP3      H1            -28.2171733657       37.8434881239       31.0822358463  TIP3      5007            0.0000000000
     64853      5407  TIP3      H2            -27.6030275743       37.9255168188       32.4701195983  TIP3      5007            0.0000000000
     64854      5408  TIP3      OH2           -25.4344756500       36.1457495211       32.7114247583  TIP3      5008            0.0000000000
     64855      5408  TIP3      H1            -26.3282120226       36.3682411051       32.4059466404  TIP3      5008            0.0000000000
     64856      5408  TIP3      H2            -24.9966505702       37.0113254557       32.6312554932  TIP3      5008            0.0000000000
     64857      5409  TIP3      OH2           -22.8472292060       37.7140441435       32.9934951738  TIP3      5009            0.0000000000
     64858      5409  TIP3      H1            -22.9818202652       38.6664178482       32.7588470461  TIP3      5009            0.0000000000
     64859      5409  TIP3      H2            -22.6550792747       37.3354877599       32.1157277317  TIP3      5009            0.0000000000
     64860      5410  TIP3      OH2           -35.5086729611       36.4532365741       30.4341425001  TIP3      5010            0.0000000000
     64861      5410  TIP3      H1            -35.5465578128       36.0049269205       31.3062002881  TIP3      5010            0.0000000000
     64862      5410  TIP3      H2            -34.6861192463       36.1036065406       30.0352689698  TIP3      5010            0.0000000000
     64863      5411  TIP3      OH2           -33.3950714441       35.1652359000       29.0855554652  TIP3      5011            0.0000000000
     64864      5411  TIP3      H1            -33.5819512831       34.2303638537       29.2889596169  TIP3      5011            0.0000000000
     64865      5411  TIP3      H2            -32.5427199566       35.2976640495       29.5586604084  TIP3      5011            0.0000000000
     64866      5412  TIP3      OH2           -30.8231681307       35.6427494631       29.9494864376  TIP3      5012            0.0000000000
     64867      5412  TIP3      H1            -30.6267077932       34.7284730300       29.6768832952  TIP3      5012            0.0000000000
     64868      5412  TIP3      H2            -30.7617668582       35.5813762279       30.9119075786  TIP3      5012            0.0000000000
     64869      5413  TIP3      OH2           -27.3334837606       21.2952652043       29.0980887219  TIP3      5013            0.0000000000
     64870      5413  TIP3      H1            -28.0100862454       20.6501588822       29.3575383279  TIP3      5013            0.0000000000
     64871      5413  TIP3      H2            -26.7749448934       20.7842808253       28.4985101337  TIP3      5013            0.0000000000
     64872      5414  TIP3      OH2           -22.1982950472       19.3682319802       29.1992867237  TIP3      5014            0.0000000000
     64873      5414  TIP3      H1            -21.5791525720       19.9468051252       28.6850647043  TIP3      5014            0.0000000000
     64874      5414  TIP3      H2            -23.0737383423       19.7136154628       28.9454718857  TIP3      5014            0.0000000000
     64875      5415  TIP3      OH2           -20.5036999759       20.5586324944       27.5024482281  TIP3      5015            0.0000000000
     64876      5415  TIP3      H1            -19.8371985194       20.0203684264       27.0105906857  TIP3      5015            0.0000000000
     64877      5415  TIP3      H2            -20.0536210508       21.4280432549       27.5658534729  TIP3      5015            0.0000000000
     64878      5416  TIP3      OH2           -34.9883188421       19.9296431640       26.9442332464  TIP3      5016            0.0000000000
     64879      5416  TIP3      H1            -35.7742248429       19.6965497560       26.4116725810  TIP3      5016            0.0000000000
     64880      5416  TIP3      H2            -34.4842735933       19.0960017374       26.8987138878  TIP3      5016            0.0000000000
     64881      5417  TIP3      OH2           -36.1881219825       19.7107721725       22.7105523492  TIP3      5017            0.0000000000
     64882      5417  TIP3      H1            -35.7301175712       20.3279406607       22.1258290704  TIP3      5017            0.0000000000
     64883      5417  TIP3      H2            -36.8023673362       20.2614553432       23.2027772142  TIP3      5017            0.0000000000
     64884      5418  TIP3      OH2           -30.4522755791       19.8351349639       26.7215897116  TIP3      5018            0.0000000000
     64885      5418  TIP3      H1            -29.5633353253       20.2327090770       26.6924751642  TIP3      5018            0.0000000000
     64886      5418  TIP3      H2            -30.5459224160       19.6361285998       27.6555511090  TIP3      5018            0.0000000000
     64887      5419  TIP3      OH2           -24.8326968090       19.8801160643       28.3771467852  TIP3      5019            0.0000000000
     64888      5419  TIP3      H1            -24.8086181230       19.9726170770       27.4184032720  TIP3      5019            0.0000000000
     64889      5419  TIP3      H2            -25.1590597036       18.9586819841       28.5005355908  TIP3      5019            0.0000000000
     64890      5420  TIP3      OH2           -23.5203644077       19.9138840004       24.0691319326  TIP3      5020            0.0000000000
     64891      5420  TIP3      H1            -24.2356672309       20.5097950985       23.8620550248  TIP3      5020            0.0000000000
     64892      5420  TIP3      H2            -23.9605320593       19.0490823584       24.2124691796  TIP3      5020            0.0000000000
     64893      5421  TIP3      OH2           -36.2575398167       35.6527291721       23.6574556484  TIP3      5021            0.0000000000
     64894      5421  TIP3      H1            -36.9511340285       35.6371128389       22.9474827783  TIP3      5021            0.0000000000
     64895      5421  TIP3      H2            -36.2778318186       36.5906214326       23.8771534826  TIP3      5021            0.0000000000
     64896      5422  TIP3      OH2           -29.3008231536       21.9052157509       23.5764866391  TIP3      5022            0.0000000000
     64897      5422  TIP3      H1            -29.1081947044       21.2819722538       24.2934262590  TIP3      5022            0.0000000000
     64898      5422  TIP3      H2            -29.3151654119       22.7568352107       24.0757026089  TIP3      5022            0.0000000000
     64899      5423  TIP3      OH2           -20.6732512885       36.4620824117       24.6951839634  TIP3      5023            0.0000000000
     64900      5423  TIP3      H1            -20.9166165985       35.6694472548       24.1501437988  TIP3      5023            0.0000000000
     64901      5423  TIP3      H2            -20.7827965171       37.1986256060       24.1062336507  TIP3      5023            0.0000000000
     64902      5424  TIP3      OH2           -35.0713322299       20.4550647394       36.4070689755  TIP3      5024            0.0000000000
     64903      5424  TIP3      H1            -35.4301552523       19.6655334306       36.8571370144  TIP3      5024            0.0000000000
     64904      5424  TIP3      H2            -34.1430507312       20.4450417956       36.7459473327  TIP3      5024            0.0000000000
     64905      5425  TIP3      OH2           -33.0690981314       19.8262227109       37.9968444269  TIP3      5025            0.0000000000
     64906      5425  TIP3      H1            -32.1727493173       19.4967298529       37.7865761399  TIP3      5025            0.0000000000
     64907      5425  TIP3      H2            -33.4562156766       19.0433950202       38.4445448770  TIP3      5025            0.0000000000
     64908      5426  TIP3      OH2           -24.6672530393       19.1348747562       38.1642380875  TIP3      5026            0.0000000000
     64909      5426  TIP3      H1            -24.5695238560       18.6744405038       39.0196307633  TIP3      5026            0.0000000000
     64910      5426  TIP3      H2            -23.7510219552       19.1195961955       37.8183720784  TIP3      5026            0.0000000000
     64911      5427  TIP3      OH2           -21.4642984300       35.1756108891       36.8521669045  TIP3      5027            0.0000000000
     64912      5427  TIP3      H1            -22.2675092512       35.0240908634       36.3080410593  TIP3      5027            0.0000000000
     64913      5427  TIP3      H2            -21.5640057690       36.1314849689       37.0485875169  TIP3      5027            0.0000000000
     64914      5428  TIP3      OH2            -7.0237357256       29.0653000434       26.8301887945  TIP3      5028            0.0000000000
     64915      5428  TIP3      H1             -7.0101873231       30.0395487238       26.7630835838  TIP3      5028            0.0000000000
     64916      5428  TIP3      H2             -7.7352126800       28.8230125129       26.2165767732  TIP3      5028            0.0000000000
     64917      5429  TIP3      OH2            -7.7382570765       28.2147401151       30.2414053479  TIP3      5029            0.0000000000
     64918      5429  TIP3      H1             -8.1792663339       27.7465094352       30.9807794131  TIP3      5029            0.0000000000
     64919      5429  TIP3      H2             -8.4446562675       27.9221422482       29.5969661159  TIP3      5029            0.0000000000
     64920      5430  TIP3      OH2           -15.8112865847       27.9754179230       31.8755738722  TIP3      5030            0.0000000000
     64921      5430  TIP3      H1            -15.7148448291       27.3118303003       32.5894853184  TIP3      5030            0.0000000000
     64922      5430  TIP3      H2            -15.0576292203       28.5594886225       32.0660486975  TIP3      5030            0.0000000000
     64923      5431  TIP3      OH2            -4.4461030507       31.2678864634       28.5819832767  TIP3      5031            0.0000000000
     64924      5431  TIP3      H1             -4.8826393698       30.5529669778       29.0591586219  TIP3      5031            0.0000000000
     64925      5431  TIP3      H2             -4.4506582126       31.9863670191       29.2431720851  TIP3      5031            0.0000000000
     64926      5432  TIP3      OH2           -14.8630021252       32.4189086333       30.4028667007  TIP3      5032            0.0000000000
     64927      5432  TIP3      H1            -15.1996962724       31.5758075804       30.0452666542  TIP3      5032            0.0000000000
     64928      5432  TIP3      H2            -13.9072030878       32.2253702269       30.4440656811  TIP3      5032            0.0000000000
     64929      5433  TIP3      OH2           -18.2309140233       26.0244477297       25.8256719224  TIP3      5033            0.0000000000
     64930      5433  TIP3      H1            -18.6785546888       26.8974905902       25.7955663716  TIP3      5033            0.0000000000
     64931      5433  TIP3      H2            -18.8081260530       25.4723778634       25.2879227314  TIP3      5033            0.0000000000
     64932      5434  TIP3      OH2           -17.5379409261       28.2259612238       27.9580347507  TIP3      5034            0.0000000000
     64933      5434  TIP3      H1            -17.2901527080       27.4272944867       28.4583722440  TIP3      5034            0.0000000000
     64934      5434  TIP3      H2            -16.8019107925       28.3142585068       27.3314173775  TIP3      5034            0.0000000000
     64935      5435  TIP3      OH2            -7.3440178767       36.4071608875       28.8144043421  TIP3      5035            0.0000000000
     64936      5435  TIP3      H1             -6.7010041220       35.7041016292       28.5363970228  TIP3      5035            0.0000000000
     64937      5435  TIP3      H2             -7.5394853334       36.1278278566       29.7089511286  TIP3      5035            0.0000000000
     64938      5436  TIP3      OH2            -9.6980686165       30.9316858074       30.6835332133  TIP3      5036            0.0000000000
     64939      5436  TIP3      H1             -9.5018579904       30.1025980050       30.1557461037  TIP3      5036            0.0000000000
     64940      5436  TIP3      H2             -8.9917191076       30.8677315944       31.3249741685  TIP3      5036            0.0000000000
     64941      5437  TIP3      OH2            -1.1344915642       22.3594483245       31.5342030739  TIP3      5037            0.0000000000
     64942      5437  TIP3      H1             -1.0216796631       22.9796848724       32.2868513078  TIP3      5037            0.0000000000
     64943      5437  TIP3      H2             -0.6410245856       22.8204980431       30.8392299715  TIP3      5037            0.0000000000
     64944      5438  TIP3      OH2            -6.5975212362       25.1799045819       31.0717290472  TIP3      5038            0.0000000000
     64945      5438  TIP3      H1             -6.4630565171       24.2192709850       31.0569782835  TIP3      5038            0.0000000000
     64946      5438  TIP3      H2             -6.7221863766       25.3616145487       30.1185113890  TIP3      5038            0.0000000000
     64947      5439  TIP3      OH2           -13.4346706539       23.2568849117       28.2996666619  TIP3      5039            0.0000000000
     64948      5439  TIP3      H1            -13.4216640051       24.1329272718       27.8630006502  TIP3      5039            0.0000000000
     64949      5439  TIP3      H2            -13.9205093083       22.7128765959       27.6388543307  TIP3      5039            0.0000000000
     64950      5440  TIP3      OH2            -5.7849107539       23.3588759199       26.6664540188  TIP3      5040            0.0000000000
     64951      5440  TIP3      H1             -5.0943167897       23.0617788845       27.3343385787  TIP3      5040            0.0000000000
     64952      5440  TIP3      H2             -5.2049381143       23.9201539646       26.1143513414  TIP3      5040            0.0000000000
     64953      5441  TIP3      OH2           -16.8625951597       25.6770329769       29.0542021278  TIP3      5041            0.0000000000
     64954      5441  TIP3      H1            -16.1876810125       25.1152271704       29.4906566863  TIP3      5041            0.0000000000
     64955      5441  TIP3      H2            -16.7940414287       25.3761717405       28.1356200251  TIP3      5041            0.0000000000
     64956      5442  TIP3      OH2           -11.7088836588       27.1941996666       28.2020032862  TIP3      5042            0.0000000000
     64957      5442  TIP3      H1            -11.0768363248       26.7127452907       28.7893452645  TIP3      5042            0.0000000000
     64958      5442  TIP3      H2            -12.2845836954       26.5237662026       27.8559983138  TIP3      5042            0.0000000000
     64959      5443  TIP3      OH2            -0.7070886290       23.8202699143       33.7811108230  TIP3      5043            0.0000000000
     64960      5443  TIP3      H1             -1.3784950389       24.5266992372       33.6925415553  TIP3      5043            0.0000000000
     64961      5443  TIP3      H2             -0.6913760039       23.6649933897       34.7342321177  TIP3      5043            0.0000000000
     64962      5444  TIP3      OH2           -14.6175534909       22.1695126430       32.3596451169  TIP3      5044            0.0000000000
     64963      5444  TIP3      H1            -14.8751191714       22.7278848549       31.6012516439  TIP3      5044            0.0000000000
     64964      5444  TIP3      H2            -15.3074094090       22.4100129882       33.0276790670  TIP3      5044            0.0000000000
     64965      5445  TIP3      OH2            -7.2765864774       31.6633877016       25.9089243396  TIP3      5045            0.0000000000
     64966      5445  TIP3      H1             -7.5996642668       31.3688304014       25.0542251484  TIP3      5045            0.0000000000
     64967      5445  TIP3      H2             -7.6073296565       32.5889402286       25.9545626908  TIP3      5045            0.0000000000
     64968      5446  TIP3      OH2           -12.0849135791       29.8426260061       32.6754757819  TIP3      5046            0.0000000000
     64969      5446  TIP3      H1            -12.8163667643       30.4740227815       32.7771861150  TIP3      5046            0.0000000000
     64970      5446  TIP3      H2            -11.3700484310       30.3930994176       32.3120002860  TIP3      5046            0.0000000000
     64971      5447  TIP3      OH2            -3.9870219744       22.6946528049       28.6667385827  TIP3      5047            0.0000000000
     64972      5447  TIP3      H1             -4.1738851558       21.9183566217       29.2114447247  TIP3      5047            0.0000000000
     64973      5447  TIP3      H2             -3.3070466047       23.1458896326       29.2013226073  TIP3      5047            0.0000000000
     64974      5448  TIP3      OH2           -15.0593377438       24.0542461404       30.3464479679  TIP3      5048            0.0000000000
     64975      5448  TIP3      H1            -14.4116287693       24.7171280134       30.6911600438  TIP3      5048            0.0000000000
     64976      5448  TIP3      H2            -14.5255779172       23.6074907340       29.6510840212  TIP3      5048            0.0000000000
     64977      5449  TIP3      OH2           -13.6534840876       31.8149447517       33.4318993084  TIP3      5049            0.0000000000
     64978      5449  TIP3      H1            -13.6828313324       32.7190610761       33.0676858776  TIP3      5049            0.0000000000
     64979      5449  TIP3      H2            -14.5363395455       31.7417833549       33.8693398016  TIP3      5049            0.0000000000
     64980      5450  TIP3      OH2           -17.5731023999       31.4637037538       24.2236043105  TIP3      5050            0.0000000000
     64981      5450  TIP3      H1            -17.8073040110       31.7276375110       23.3229738954  TIP3      5050            0.0000000000
     64982      5450  TIP3      H2            -17.4899603496       32.3154287640       24.6902087006  TIP3      5050            0.0000000000
     64983      5451  TIP3      OH2            -3.9253094675       33.0980564152       30.9491535424  TIP3      5051            0.0000000000
     64984      5451  TIP3      H1             -4.8910999726       33.1896608228       31.0916055699  TIP3      5051            0.0000000000
     64985      5451  TIP3      H2             -3.6587126672       34.0249503100       30.7844063000  TIP3      5051            0.0000000000
     64986      5452  TIP3      OH2            -3.6225035657       21.3919384499       32.3562800595  TIP3      5052            0.0000000000
     64987      5452  TIP3      H1             -4.3561302641       22.0160648610       32.2958363046  TIP3      5052            0.0000000000
     64988      5452  TIP3      H2             -2.9248472082       21.8146660525       31.8237573984  TIP3      5052            0.0000000000
     64989      5453  TIP3      OH2           -10.8078982305       19.2163911396       30.2586745390  TIP3      5053            0.0000000000
     64990      5453  TIP3      H1            -10.8642122818       18.3808169515       29.7250530408  TIP3      5053            0.0000000000
     64991      5453  TIP3      H2            -11.6326327710       19.7438186705       30.1236621607  TIP3      5053            0.0000000000
     64992      5454  TIP3      OH2            -5.6741926536       34.8868577446       27.5801449490  TIP3      5054            0.0000000000
     64993      5454  TIP3      H1             -5.2442566831       34.1773870002       27.0624349526  TIP3      5054            0.0000000000
     64994      5454  TIP3      H2             -5.3188690527       35.6887325864       27.1423848887  TIP3      5054            0.0000000000
     64995      5455  TIP3      OH2            -4.4847572442       32.8113537223       26.0658313461  TIP3      5055            0.0000000000
     64996      5455  TIP3      H1             -4.7705375134       32.1025012478       25.4715913260  TIP3      5055            0.0000000000
     64997      5455  TIP3      H2             -4.4399100204       32.3365323134       26.9173258964  TIP3      5055            0.0000000000
     64998      5456  TIP3      OH2            -2.8377360010       31.3806492811       34.5615957349  TIP3      5056            0.0000000000
     64999      5456  TIP3      H1             -2.6935518976       30.7594289418       33.8147122784  TIP3      5056            0.0000000000
     65000      5456  TIP3      H2             -2.6579892688       32.2463084937       34.1636120156  TIP3      5056            0.0000000000
     65001      5457  TIP3      OH2            -8.3515468399       28.3001066473       24.3340947229  TIP3      5057            0.0000000000
     65002      5457  TIP3      H1             -9.0718003986       28.8648584147       23.9653786552  TIP3      5057            0.0000000000
     65003      5457  TIP3      H2             -7.6584959977       28.3794903422       23.6613389269  TIP3      5057            0.0000000000
     65004      5458  TIP3      OH2            -8.3280482653       26.6897288335       21.4990069468  TIP3      5058            0.0000000000
     65005      5458  TIP3      H1             -7.5586821908       26.8039238179       22.0349471727  TIP3      5058            0.0000000000
     65006      5458  TIP3      H2             -8.0135188270       26.1704526053       20.7309722533  TIP3      5058            0.0000000000
     65007      5459  TIP3      OH2            -0.9745146537       27.6989715309       32.6196917997  TIP3      5059            0.0000000000
     65008      5459  TIP3      H1             -1.6380147463       28.4150999986       32.6810231749  TIP3      5059            0.0000000000
     65009      5459  TIP3      H2             -0.5054093291       27.9309806975       31.7983771125  TIP3      5059            0.0000000000
     65010      5460  TIP3      OH2            -4.9284193073       28.5208889843       25.2298684500  TIP3      5060            0.0000000000
     65011      5460  TIP3      H1             -5.6658707341       28.7571835704       25.8539432759  TIP3      5060            0.0000000000
     65012      5460  TIP3      H2             -4.4708622137       27.8367403490       25.7554177509  TIP3      5060            0.0000000000
     65013      5461  TIP3      OH2            -5.0094968809       26.6822571579       34.3499966166  TIP3      5061            0.0000000000
     65014      5461  TIP3      H1             -4.9783622168       27.4836501357       34.9019006149  TIP3      5061            0.0000000000
     65015      5461  TIP3      H2             -5.6467377189       26.9853445085       33.6605555907  TIP3      5061            0.0000000000
     65016      5462  TIP3      OH2           -13.3076895837       29.1823876531       27.1577609055  TIP3      5062            0.0000000000
     65017      5462  TIP3      H1            -13.6199407323       28.7735812815       26.3201069216  TIP3      5062            0.0000000000
     65018      5462  TIP3      H2            -12.6939195093       28.4849889821       27.5104222271  TIP3      5062            0.0000000000
     65019      5463  TIP3      OH2           -11.9587498823       32.5946936505       29.8406241515  TIP3      5063            0.0000000000
     65020      5463  TIP3      H1            -12.0075610990       32.0072193148       29.0735970607  TIP3      5063            0.0000000000
     65021      5463  TIP3      H2            -11.1984687203       32.1983973314       30.3149366231  TIP3      5063            0.0000000000
     65022      5464  TIP3      OH2           -13.1184850854       27.9361764071       30.8052182245  TIP3      5064            0.0000000000
     65023      5464  TIP3      H1            -12.4011202928       28.0212002860       30.0891134117  TIP3      5064            0.0000000000
     65024      5464  TIP3      H2            -12.6047908537       28.5387349868       31.4100003987  TIP3      5064            0.0000000000
     65025      5465  TIP3      OH2            -6.5996479904       33.4652328450       31.5128518601  TIP3      5065            0.0000000000
     65026      5465  TIP3      H1             -6.8605669382       34.1013705819       32.1811664311  TIP3      5065            0.0000000000
     65027      5465  TIP3      H2             -6.8293213437       32.6040234922       31.9509759462  TIP3      5065            0.0000000000
     65028      5466  TIP3      OH2           -12.0300528878       32.3325661798       35.5148097082  TIP3      5066            0.0000000000
     65029      5466  TIP3      H1            -12.3932772404       33.1079554193       35.9837678196  TIP3      5066            0.0000000000
     65030      5466  TIP3      H2            -12.7084135884       32.1635183800       34.8152890583  TIP3      5066            0.0000000000
     65031      5467  TIP3      OH2            -6.0603853129       27.6750162551       22.9287923867  TIP3      5067            0.0000000000
     65032      5467  TIP3      H1             -5.5018575866       27.8687367357       23.7288475865  TIP3      5067            0.0000000000
     65033      5467  TIP3      H2             -5.6511762685       28.1844321102       22.2382460991  TIP3      5067            0.0000000000
     65034      5468  TIP3      OH2           -15.1034153383       28.5097374783       34.7084622135  TIP3      5068            0.0000000000
     65035      5468  TIP3      H1            -15.0597628998       29.1793714787       35.4220971462  TIP3      5068            0.0000000000
     65036      5468  TIP3      H2            -16.0250030322       28.6214027305       34.4293347332  TIP3      5068            0.0000000000
     65037      5469  TIP3      OH2            -8.3388495563       34.4235352375       26.4037690438  TIP3      5069            0.0000000000
     65038      5469  TIP3      H1             -7.8777408010       34.7371953672       27.1851898364  TIP3      5069            0.0000000000
     65039      5469  TIP3      H2             -8.8995319665       35.1694731131       26.1532389039  TIP3      5069            0.0000000000
     65040      5470  TIP3      OH2           -13.7919785842       34.3974344360       36.2738843080  TIP3      5070            0.0000000000
     65041      5470  TIP3      H1            -13.8200365895       34.2696353242       35.3109289866  TIP3      5070            0.0000000000
     65042      5470  TIP3      H2            -14.7301484329       34.2726395761       36.5233447328  TIP3      5070            0.0000000000
     65043      5471  TIP3      OH2            -2.3437827860       19.4325133183       22.7813061533  TIP3      5071            0.0000000000
     65044      5471  TIP3      H1             -3.2803945212       19.5719214360       23.0644994869  TIP3      5071            0.0000000000
     65045      5471  TIP3      H2             -2.1413802994       20.2640137595       22.3645047717  TIP3      5071            0.0000000000
     65046      5472  TIP3      OH2           -14.3195741022       28.2251281747       24.7829184589  TIP3      5072            0.0000000000
     65047      5472  TIP3      H1            -14.6111174823       28.9973626865       24.2507209124  TIP3      5072            0.0000000000
     65048      5472  TIP3      H2            -14.9857422758       27.5671055682       24.5631851491  TIP3      5072            0.0000000000
     65049      5473  TIP3      OH2           -18.2256555413       30.6151992324       33.6124244218  TIP3      5073            0.0000000000
     65050      5473  TIP3      H1            -18.7079577103       30.5488130427       32.7680931494  TIP3      5073            0.0000000000
     65051      5473  TIP3      H2            -18.1978499971       29.6751787103       33.8707949191  TIP3      5073            0.0000000000
     65052      5474  TIP3      OH2           -18.4756168993       33.3655755626       30.4414071619  TIP3      5074            0.0000000000
     65053      5474  TIP3      H1            -17.5185336580       33.2364232486       30.4285042263  TIP3      5074            0.0000000000
     65054      5474  TIP3      H2            -18.5707075337       34.1661055992       30.9744384436  TIP3      5074            0.0000000000
     65055      5475  TIP3      OH2            -0.2471808043       34.0536789266       36.1138408732  TIP3      5075            0.0000000000
     65056      5475  TIP3      H1             -0.3413888444       33.0901349866       36.1068624120  TIP3      5075            0.0000000000
     65057      5475  TIP3      H2             -1.1072460815       34.3025793853       36.5378520845  TIP3      5075            0.0000000000
     65058      5476  TIP3      OH2            -9.2836983511       33.6031236883       34.9936494611  TIP3      5076            0.0000000000
     65059      5476  TIP3      H1             -9.2115446724       34.4460634860       35.4985470409  TIP3      5076            0.0000000000
     65060      5476  TIP3      H2            -10.1605441324       33.2672239656       35.2556157076  TIP3      5076            0.0000000000
     65061      5477  TIP3      OH2            -8.8712317511       37.3558642888       24.8020764104  TIP3      5077            0.0000000000
     65062      5477  TIP3      H1             -8.9604973637       37.2762515136       23.8528493163  TIP3      5077            0.0000000000
     65063      5477  TIP3      H2             -8.8364741149       38.3226919521       24.9543351209  TIP3      5077            0.0000000000
     65064      5478  TIP3      OH2           -15.2095277499       36.2085332845       26.6065392092  TIP3      5078            0.0000000000
     65065      5478  TIP3      H1            -15.0671699032       35.8094550611       27.4919327781  TIP3      5078            0.0000000000
     65066      5478  TIP3      H2            -16.0611572698       35.8100736615       26.3634351092  TIP3      5078            0.0000000000
     65067      5479  TIP3      OH2            -6.1092598013       36.4895022539       24.5644963887  TIP3      5079            0.0000000000
     65068      5479  TIP3      H1             -7.0571263192       36.5621501509       24.7580491613  TIP3      5079            0.0000000000
     65069      5479  TIP3      H2             -5.8393860392       35.7542803684       25.1331091137  TIP3      5079            0.0000000000
     65070      5480  TIP3      OH2            -3.1097077879       25.5358682896       36.6093494893  TIP3      5080            0.0000000000
     65071      5480  TIP3      H1             -3.5456028306       26.0035619601       35.8823901583  TIP3      5080            0.0000000000
     65072      5480  TIP3      H2             -3.0905059947       24.6190557341       36.2955411664  TIP3      5080            0.0000000000
     65073      5481  TIP3      OH2           -15.9655135358       31.9339091904       34.6057425869  TIP3      5081            0.0000000000
     65074      5481  TIP3      H1            -15.7423780565       31.5582933552       35.4828493884  TIP3      5081            0.0000000000
     65075      5481  TIP3      H2            -16.8325567192       31.5360674785       34.3933221410  TIP3      5081            0.0000000000
     65076      5482  TIP3      OH2           -13.2958523115       20.4096442128       30.5535312025  TIP3      5082            0.0000000000
     65077      5482  TIP3      H1            -14.2177239681       20.2944086437       30.2056479066  TIP3      5082            0.0000000000
     65078      5482  TIP3      H2            -13.4033833949       21.2429321157       31.0454219437  TIP3      5082            0.0000000000
     65079      5483  TIP3      OH2            -8.6625765211       20.0859639252       33.9290135364  TIP3      5083            0.0000000000
     65080      5483  TIP3      H1             -8.2550610333       19.6975359529       34.7233066974  TIP3      5083            0.0000000000
     65081      5483  TIP3      H2             -9.6278657906       19.9465936746       34.0950108270  TIP3      5083            0.0000000000
     65082      5484  TIP3      OH2            -5.3491483916       23.8890998677       34.8204239334  TIP3      5084            0.0000000000
     65083      5484  TIP3      H1             -5.8919407978       23.7220124324       35.6282824360  TIP3      5084            0.0000000000
     65084      5484  TIP3      H2             -5.5221384421       24.8121147501       34.5814066522  TIP3      5084            0.0000000000
     65085      5485  TIP3      OH2           -13.2254504949       25.3469349465       31.7427688566  TIP3      5085            0.0000000000
     65086      5485  TIP3      H1            -13.9111438970       25.3416462059       32.4279843191  TIP3      5085            0.0000000000
     65087      5485  TIP3      H2            -13.2178644346       26.2907121528       31.4447190182  TIP3      5085            0.0000000000
     65088      5486  TIP3      OH2           -13.2395920049       25.5375962427       26.6388034608  TIP3      5086            0.0000000000
     65089      5486  TIP3      H1            -14.1618574464       25.2346713026       26.5364148711  TIP3      5086            0.0000000000
     65090      5486  TIP3      H2            -12.8277199555       25.1977023299       25.8270676155  TIP3      5086            0.0000000000
     65091      5487  TIP3      OH2            -7.7408618913       25.9289403967       25.4117530154  TIP3      5087            0.0000000000
     65092      5487  TIP3      H1             -8.1179464709       26.8129446670       25.1390533609  TIP3      5087            0.0000000000
     65093      5487  TIP3      H2             -6.9951574849       25.8794473971       24.8033004728  TIP3      5087            0.0000000000
     65094      5488  TIP3      OH2            -8.6259922029       26.1949364919       36.8980654704  TIP3      5088            0.0000000000
     65095      5488  TIP3      H1             -9.1813921432       25.4441954366       37.2204038020  TIP3      5088            0.0000000000
     65096      5488  TIP3      H2             -7.7943844536       26.0587535262       37.3793101898  TIP3      5088            0.0000000000
     65097      5489  TIP3      OH2            -6.6971820274       25.4530897046       28.2609693050  TIP3      5089            0.0000000000
     65098      5489  TIP3      H1             -6.9264244729       26.0637957945       27.5418316206  TIP3      5089            0.0000000000
     65099      5489  TIP3      H2             -6.5311924262       24.6201337436       27.8077934684  TIP3      5089            0.0000000000
     65100      5490  TIP3      OH2           -15.5277718929       25.6625357367       33.5308025237  TIP3      5090            0.0000000000
     65101      5490  TIP3      H1            -15.5232735227       26.0639757369       34.4174551487  TIP3      5090            0.0000000000
     65102      5490  TIP3      H2            -16.0020976370       24.8316669355       33.6775077872  TIP3      5090            0.0000000000
     65103      5491  TIP3      OH2           -18.9073588069       22.7748489296       27.4310005049  TIP3      5091            0.0000000000
     65104      5491  TIP3      H1            -18.2450197405       22.7387396888       28.1486107131  TIP3      5091            0.0000000000
     65105      5491  TIP3      H2            -18.4468771332       22.3597472659       26.6771158762  TIP3      5091            0.0000000000
     65106      5492  TIP3      OH2           -17.6001384174       23.5321802614       22.8811270940  TIP3      5092            0.0000000000
     65107      5492  TIP3      H1            -17.1466582993       24.1187263437       22.2526034990  TIP3      5092            0.0000000000
     65108      5492  TIP3      H2            -18.3470279528       24.0786111022       23.1712419933  TIP3      5092            0.0000000000
     65109      5493  TIP3      OH2            -7.4373618960       27.0832530056       32.9070691606  TIP3      5093            0.0000000000
     65110      5493  TIP3      H1             -7.1253318481       26.4277337299       32.2547139670  TIP3      5093            0.0000000000
     65111      5493  TIP3      H2             -7.9159647246       26.5402760089       33.5514224514  TIP3      5093            0.0000000000
     65112      5494  TIP3      OH2           -10.6455295595       22.9393788037       27.6886776516  TIP3      5094            0.0000000000
     65113      5494  TIP3      H1            -11.5959602200       23.0899911216       27.9751663646  TIP3      5094            0.0000000000
     65114      5494  TIP3      H2            -10.1844816002       22.9855028741       28.5321319782  TIP3      5094            0.0000000000
     65115      5495  TIP3      OH2           -15.8490533945       24.6212052910       26.5412557378  TIP3      5095            0.0000000000
     65116      5495  TIP3      H1            -16.7450474595       24.7388494630       26.1670022285  TIP3      5095            0.0000000000
     65117      5495  TIP3      H2            -15.5561009407       23.7785662795       26.1572848166  TIP3      5095            0.0000000000
     65118      5496  TIP3      OH2           -12.2350272475       24.6487577458       24.1777663245  TIP3      5096            0.0000000000
     65119      5496  TIP3      H1            -11.2784802171       24.7619918494       24.3547954495  TIP3      5096            0.0000000000
     65120      5496  TIP3      H2            -12.4415843454       25.3146505537       23.5103355331  TIP3      5096            0.0000000000
     65121      5497  TIP3      OH2            -6.2622740788       22.2551430811       30.9411001080  TIP3      5097            0.0000000000
     65122      5497  TIP3      H1             -6.9490988796       22.3635112476       31.6346466583  TIP3      5097            0.0000000000
     65123      5497  TIP3      H2             -6.7580539606       22.0708657031       30.1423281463  TIP3      5097            0.0000000000
     65124      5498  TIP3      OH2           -13.5203338675       25.8373953848       21.7402417257  TIP3      5098            0.0000000000
     65125      5498  TIP3      H1            -14.0689085539       25.4341640057       21.0645834086  TIP3      5098            0.0000000000
     65126      5498  TIP3      H2            -12.6703015606       26.0148100539       21.3185710409  TIP3      5098            0.0000000000
     65127      5499  TIP3      OH2            -3.0284711125       37.9150403640       37.2583102840  TIP3      5099            0.0000000000
     65128      5499  TIP3      H1             -2.7800950475       38.3248788907       36.4065487371  TIP3      5099            0.0000000000
     65129      5499  TIP3      H2             -2.3250000373       38.2522202639       37.8423456809  TIP3      5099            0.0000000000
     65130      5500  TIP3      OH2           -15.3719554084       30.3838139254       36.8241701186  TIP3      5100            0.0000000000
     65131      5500  TIP3      H1            -14.6594293598       30.6422221989       37.4311799819  TIP3      5100            0.0000000000
     65132      5500  TIP3      H2            -16.1674567871       30.5498958190       37.3812862169  TIP3      5100            0.0000000000
     65133      5501  TIP3      OH2            -9.3763221223       25.7093768762       29.5326019070  TIP3      5101            0.0000000000
     65134      5501  TIP3      H1             -8.7500630427       25.2328279336       29.0395903383  TIP3      5101            0.0000000000
     65135      5501  TIP3      H2             -9.5074020727       25.2924847210       30.3881172905  TIP3      5101            0.0000000000
     65136      5502  TIP3      OH2           -14.3451691281       21.9329039060       26.0363131252  TIP3      5102            0.0000000000
     65137      5502  TIP3      H1            -14.6890015040       21.0257080040       25.9739128941  TIP3      5102            0.0000000000
     65138      5502  TIP3      H2            -13.5873971994       21.9223118446       25.4404835634  TIP3      5102            0.0000000000
     65139      5503  TIP3      OH2           -10.7399643476       24.1226336098       31.9926430368  TIP3      5103            0.0000000000
     65140      5503  TIP3      H1            -11.5604479990       24.6560122716       32.0922849198  TIP3      5103            0.0000000000
     65141      5503  TIP3      H2            -10.1993502655       24.4830177060       32.7317605328  TIP3      5103            0.0000000000
     65142      5504  TIP3      OH2           -10.1500065286       30.3714045384       23.6905139952  TIP3      5104            0.0000000000
     65143      5504  TIP3      H1            -10.9422360737       29.8900540581       23.3513361770  TIP3      5104            0.0000000000
     65144      5504  TIP3      H2            -10.3451676317       30.4581343494       24.6371343001  TIP3      5104            0.0000000000
     65145      5505  TIP3      OH2            -3.0080549783       29.5318731664       32.4894172890  TIP3      5105            0.0000000000
     65146      5505  TIP3      H1             -2.4079816413       30.0040758351       31.8909185571  TIP3      5105            0.0000000000
     65147      5505  TIP3      H2             -3.8568273677       29.6288217321       32.0059734502  TIP3      5105            0.0000000000
     65148      5506  TIP3      OH2            -6.2876322275       23.1979339517       21.8935263285  TIP3      5106            0.0000000000
     65149      5506  TIP3      H1             -7.2323922442       23.3031845649       21.6954114412  TIP3      5106            0.0000000000
     65150      5506  TIP3      H2             -6.0054132240       24.0728356682       22.1936093930  TIP3      5106            0.0000000000
     65151      5507  TIP3      OH2            -8.6548521804       30.5953042117       34.9283476622  TIP3      5107            0.0000000000
     65152      5507  TIP3      H1             -9.0159147152       30.1927157795       35.7238738487  TIP3      5107            0.0000000000
     65153      5507  TIP3      H2             -8.8893429373       31.5232230623       35.0015543551  TIP3      5107            0.0000000000
     65154      5508  TIP3      OH2            -5.5725843957       25.0712035638       23.5301221171  TIP3      5108            0.0000000000
     65155      5508  TIP3      H1             -4.6776140668       24.9548930589       23.9032672847  TIP3      5108            0.0000000000
     65156      5508  TIP3      H2             -5.5203109457       25.8902133438       23.0073131705  TIP3      5108            0.0000000000
     65157      5509  TIP3      OH2           -15.0743177540       29.7164059680       29.4622208840  TIP3      5109            0.0000000000
     65158      5509  TIP3      H1            -14.3235299806       29.6734005824       28.8339402066  TIP3      5109            0.0000000000
     65159      5509  TIP3      H2            -14.9703407842       28.8706401743       29.9388814228  TIP3      5109            0.0000000000
     65160      5510  TIP3      OH2           -18.0604981274       28.1607395401       34.7564230404  TIP3      5110            0.0000000000
     65161      5510  TIP3      H1            -17.8474717358       27.7201301722       35.6033430974  TIP3      5110            0.0000000000
     65162      5510  TIP3      H2            -18.6676119720       27.5316202139       34.3306986641  TIP3      5110            0.0000000000
     65163      5511  TIP3      OH2           -11.0440477052       27.6910721979       36.9655642125  TIP3      5111            0.0000000000
     65164      5511  TIP3      H1            -11.3381574222       27.4679722091       36.0692484445  TIP3      5111            0.0000000000
     65165      5511  TIP3      H2            -10.1030329027       27.4245971980       36.9508354157  TIP3      5111            0.0000000000
     65166      5512  TIP3      OH2            -6.3868027678       33.0371232522       34.8604101723  TIP3      5112            0.0000000000
     65167      5512  TIP3      H1             -7.3105768280       33.2272691385       34.6233214212  TIP3      5112            0.0000000000
     65168      5512  TIP3      H2             -6.3922351315       33.3166005398       35.7977472742  TIP3      5112            0.0000000000
     65169      5513  TIP3      OH2            -0.7047616698       25.2660083534       23.2363440045  TIP3      5113            0.0000000000
     65170      5513  TIP3      H1             -1.2286822036       24.8913215124       22.5500379449  TIP3      5113            0.0000000000
     65171      5513  TIP3      H2             -0.5757547602       26.1940751354       22.9945632396  TIP3      5113            0.0000000000
     65172      5514  TIP3      OH2            -0.7072495338       31.0890327046       36.0891493847  TIP3      5114            0.0000000000
     65173      5514  TIP3      H1             -1.5879968989       31.3181379725       35.7047289514  TIP3      5114            0.0000000000
     65174      5514  TIP3      H2             -0.1378644610       31.0628758979       35.2965464650  TIP3      5114            0.0000000000
     65175      5515  TIP3      OH2            -2.3876215647       34.0699851022       23.6750802736  TIP3      5115            0.0000000000
     65176      5515  TIP3      H1             -2.7581518960       33.2500529392       24.0194736288  TIP3      5115            0.0000000000
     65177      5515  TIP3      H2             -2.1047152512       33.8761710312       22.7815627683  TIP3      5115            0.0000000000
     65178      5516  TIP3      OH2            -5.1926558644       28.8886716146       30.7545537937  TIP3      5116            0.0000000000
     65179      5516  TIP3      H1             -6.1558475326       28.6512520521       30.6753264132  TIP3      5116            0.0000000000
     65180      5516  TIP3      H2             -4.7816623911       28.0980123954       30.3690919768  TIP3      5116            0.0000000000
     65181      5517  TIP3      OH2           -12.6882677391       33.2035531638       26.8771265188  TIP3      5117            0.0000000000
     65182      5517  TIP3      H1            -12.1616708631       33.9894897915       26.6521906603  TIP3      5117            0.0000000000
     65183      5517  TIP3      H2            -13.5647796098       33.4381489615       26.5470578131  TIP3      5117            0.0000000000
     65184      5518  TIP3      OH2           -11.2511729566       30.8672522891       26.3983701650  TIP3      5118            0.0000000000
     65185      5518  TIP3      H1            -11.5265389675       31.7970403417       26.4826343967  TIP3      5118            0.0000000000
     65186      5518  TIP3      H2            -11.9931306665       30.4000189310       26.8365392853  TIP3      5118            0.0000000000
     65187      5519  TIP3      OH2           -10.7859344339       35.0317899117       32.7666296307  TIP3      5119            0.0000000000
     65188      5519  TIP3      H1            -10.3687940436       35.8702569689       32.5121537950  TIP3      5119            0.0000000000
     65189      5519  TIP3      H2            -10.2003221636       34.7226370124       33.4831768157  TIP3      5119            0.0000000000
     65190      5520  TIP3      OH2           -12.5663364197       35.8821194096       25.9348389118  TIP3      5120            0.0000000000
     65191      5520  TIP3      H1            -13.5346576809       35.9905478808       26.0535091912  TIP3      5120            0.0000000000
     65192      5520  TIP3      H2            -12.2270337836       36.7128123542       26.3166919417  TIP3      5120            0.0000000000
     65193      5521  TIP3      OH2            -7.2126665411       31.1077278341       32.4466068016  TIP3      5121            0.0000000000
     65194      5521  TIP3      H1             -7.6301391650       30.8714756925       33.2947847661  TIP3      5121            0.0000000000
     65195      5521  TIP3      H2             -6.6299767851       30.3583658894       32.2550246487  TIP3      5121            0.0000000000
     65196      5522  TIP3      OH2            -4.5083390777       35.6527092640       34.9293431643  TIP3      5122            0.0000000000
     65197      5522  TIP3      H1             -5.1516107524       35.1252274694       34.4167978032  TIP3      5122            0.0000000000
     65198      5522  TIP3      H2             -4.2721383302       36.3381785350       34.2689993666  TIP3      5122            0.0000000000
     65199      5523  TIP3      OH2           -16.4017714532       22.8960852149       34.3091925533  TIP3      5123            0.0000000000
     65200      5523  TIP3      H1            -17.3141541773       23.2405459610       34.2652107609  TIP3      5123            0.0000000000
     65201      5523  TIP3      H2            -16.5208536457       22.0420766141       34.7516150606  TIP3      5123            0.0000000000
     65202      5524  TIP3      OH2            -4.1567277849       30.7077446155       23.7034530955  TIP3      5124            0.0000000000
     65203      5524  TIP3      H1             -4.4083049854       29.9830363911       24.3177235998  TIP3      5124            0.0000000000
     65204      5524  TIP3      H2             -3.2203463490       30.8314306610       23.9652617403  TIP3      5124            0.0000000000
     65205      5525  TIP3      OH2           -16.7712221353       34.7007728241       32.7385958956  TIP3      5125            0.0000000000
     65206      5525  TIP3      H1            -16.5282946639       33.7611510435       32.7343912817  TIP3      5125            0.0000000000
     65207      5525  TIP3      H2            -16.5230088614       34.9704471689       33.6323053136  TIP3      5125            0.0000000000
     65208      5526  TIP3      OH2           -12.0048460650       32.7364568890       22.4396291027  TIP3      5126            0.0000000000
     65209      5526  TIP3      H1            -11.8111665015       32.1985443916       23.2180903227  TIP3      5126            0.0000000000
     65210      5526  TIP3      H2            -11.9642851003       33.6619347803       22.7416990482  TIP3      5126            0.0000000000
     65211      5527  TIP3      OH2           -15.5004084647       29.9654703990       22.9640073857  TIP3      5127            0.0000000000
     65212      5527  TIP3      H1            -16.2196719895       30.3513982027       23.4863778364  TIP3      5127            0.0000000000
     65213      5527  TIP3      H2            -15.0089589231       30.7473702549       22.6711503692  TIP3      5127            0.0000000000
     65214      5528  TIP3      OH2            -7.6859472737       22.6478231058       33.2098908970  TIP3      5128            0.0000000000
     65215      5528  TIP3      H1             -6.9820434766       22.7174625416       33.8729926689  TIP3      5128            0.0000000000
     65216      5528  TIP3      H2             -8.0635807011       21.7731161296       33.4144379808  TIP3      5128            0.0000000000
     65217      5529  TIP3      OH2            -6.8234224195       22.2238902293       24.3068736120  TIP3      5129            0.0000000000
     65218      5529  TIP3      H1             -6.6654810379       22.7292198323       23.4776274671  TIP3      5129            0.0000000000
     65219      5529  TIP3      H2             -6.2691197565       22.6702492859       24.9638822795  TIP3      5129            0.0000000000
     65220      5530  TIP3      OH2            -9.2133492753       34.4346210097       23.1894587169  TIP3      5130            0.0000000000
     65221      5530  TIP3      H1            -10.0573385371       34.9103505960       23.2178685515  TIP3      5130            0.0000000000
     65222      5530  TIP3      H2             -8.7278893498       34.9071930308       22.5071049577  TIP3      5130            0.0000000000
     65223      5531  TIP3      OH2            -9.9515957899       24.2642914455       25.1644822557  TIP3      5131            0.0000000000
     65224      5531  TIP3      H1             -9.0498652988       24.6501110254       25.1462029639  TIP3      5131            0.0000000000
     65225      5531  TIP3      H2            -10.0586197844       23.9150123531       26.0644716353  TIP3      5131            0.0000000000
     65226      5532  TIP3      OH2            -9.1664073300       24.9999430356       34.3421412280  TIP3      5132            0.0000000000
     65227      5532  TIP3      H1             -9.0584728790       25.5891800597       35.1104560401  TIP3      5132            0.0000000000
     65228      5532  TIP3      H2             -8.4967678730       24.3157988991       34.4449274496  TIP3      5132            0.0000000000
     65229      5533  TIP3      OH2            -8.8427969443       21.0749422637       26.1007723770  TIP3      5133            0.0000000000
     65230      5533  TIP3      H1             -9.1774739243       21.7247367143       26.7328882611  TIP3      5133            0.0000000000
     65231      5533  TIP3      H2             -8.1235091568       21.5170422912       25.6035706738  TIP3      5133            0.0000000000
     65232      5534  TIP3      OH2           -11.8873080914       35.4644248234       23.1640391798  TIP3      5134            0.0000000000
     65233      5534  TIP3      H1            -11.7246489696       36.2656633206       22.6538884392  TIP3      5134            0.0000000000
     65234      5534  TIP3      H2            -12.1039518901       35.7832153070       24.0606861084  TIP3      5134            0.0000000000
     65235      5535  TIP3      OH2            -2.9542596614       22.8886246027       35.1901184047  TIP3      5135            0.0000000000
     65236      5535  TIP3      H1             -3.8904442139       23.1855462410       35.0705912375  TIP3      5135            0.0000000000
     65237      5535  TIP3      H2             -2.6458320889       22.8953617768       34.2688712411  TIP3      5135            0.0000000000
     65238      5536  TIP3      OH2            -4.3552267932       26.6739566805       29.2370397675  TIP3      5136            0.0000000000
     65239      5536  TIP3      H1             -5.1761916481       26.2469412034       28.9440470323  TIP3      5136            0.0000000000
     65240      5536  TIP3      H2             -3.9002176732       25.9716145964       29.7530536066  TIP3      5136            0.0000000000
     65241      5537  TIP3      OH2           -14.9029798521       32.5900222467       21.8540945966  TIP3      5137            0.0000000000
     65242      5537  TIP3      H1            -14.2902851815       33.2822163594       22.1051286244  TIP3      5137            0.0000000000
     65243      5537  TIP3      H2            -14.4624138256       32.1698040052       21.1113322451  TIP3      5137            0.0000000000
     65244      5538  TIP3      OH2           -16.5877913982       25.2572574898       20.9492434273  TIP3      5138            0.0000000000
     65245      5538  TIP3      H1            -16.6268624946       26.2082332752       21.1263879810  TIP3      5138            0.0000000000
     65246      5538  TIP3      H2            -17.4766012347       25.0335273950       20.6553005333  TIP3      5138            0.0000000000
     65247      5539  TIP3      OH2            -3.2892573821       35.9125937587       30.8899280973  TIP3      5139            0.0000000000
     65248      5539  TIP3      H1             -3.4073255638       36.6065355316       30.2111340708  TIP3      5139            0.0000000000
     65249      5539  TIP3      H2             -2.3285830719       35.9916797913       31.0739418111  TIP3      5139            0.0000000000
     65250      5540  TIP3      OH2           -15.7656078942       20.0478902955       29.6468689970  TIP3      5140            0.0000000000
     65251      5540  TIP3      H1            -16.0121706883       20.0855752547       28.6950128520  TIP3      5140            0.0000000000
     65252      5540  TIP3      H2            -16.2199408965       19.2268178678       29.9300145587  TIP3      5140            0.0000000000
     65253      5541  TIP3      OH2           -16.8428419723       33.9690971173       25.7963940377  TIP3      5141            0.0000000000
     65254      5541  TIP3      H1            -17.6851593887       34.4430915178       25.8058861501  TIP3      5141            0.0000000000
     65255      5541  TIP3      H2            -16.3161327352       34.4698456812       25.1652077002  TIP3      5141            0.0000000000
     65256      5542  TIP3      OH2           -17.5912915009       36.6091559228       37.1076112676  TIP3      5142            0.0000000000
     65257      5542  TIP3      H1            -17.0218956747       36.3892256322       37.8738752987  TIP3      5142            0.0000000000
     65258      5542  TIP3      H2            -18.0450143606       35.7693395830       36.9311903572  TIP3      5142            0.0000000000
     65259      5543  TIP3      OH2           -12.9639746171       35.5273060436       38.7408358543  TIP3      5143            0.0000000000
     65260      5543  TIP3      H1            -12.1898909509       35.0459578446       39.0648452305  TIP3      5143            0.0000000000
     65261      5543  TIP3      H2            -12.9789639195       35.2722685017       37.7945224655  TIP3      5143            0.0000000000
     65262      5544  TIP3      OH2            -6.4186164053       33.9126962685       37.4549274592  TIP3      5144            0.0000000000
     65263      5544  TIP3      H1             -6.7464894366       33.0284057436       37.7177501464  TIP3      5144            0.0000000000
     65264      5544  TIP3      H2             -5.6621634621       34.0355740955       38.0592044487  TIP3      5144            0.0000000000
     65265      5545  TIP3      OH2           -17.6788977501       30.3982774089       38.0886177129  TIP3      5145            0.0000000000
     65266      5545  TIP3      H1            -17.5221576361       29.4871045311       37.7766873807  TIP3      5145            0.0000000000
     65267      5545  TIP3      H2            -18.4405396407       30.6755591903       37.5533847150  TIP3      5145            0.0000000000
     65268      5546  TIP3      OH2           -10.9956450283       30.3748274282       37.4938402989  TIP3      5146            0.0000000000
     65269      5546  TIP3      H1            -11.3365131648       30.6632659712       36.6279639154  TIP3      5146            0.0000000000
     65270      5546  TIP3      H2            -10.8757560257       29.4071431518       37.3971869206  TIP3      5146            0.0000000000
     65271      5547  TIP3      OH2            -5.2845981123       30.2584002303       34.8860823820  TIP3      5147            0.0000000000
     65272      5547  TIP3      H1             -4.5181394566       30.8656672191       34.7846817648  TIP3      5147            0.0000000000
     65273      5547  TIP3      H2             -6.0155495717       30.8895508334       34.9336709920  TIP3      5147            0.0000000000
     65274      5548  TIP3      OH2           -16.8121332957       27.6166569388       37.4868561359  TIP3      5148            0.0000000000
     65275      5548  TIP3      H1            -16.4045605475       26.7487446853       37.3820305244  TIP3      5148            0.0000000000
     65276      5548  TIP3      H2            -17.0637019034       27.6199423172       38.4285743029  TIP3      5148            0.0000000000
     65277      5549  TIP3      OH2           -12.1581339495       28.7492735938       22.5174236426  TIP3      5149            0.0000000000
     65278      5549  TIP3      H1            -12.6332319939       28.2328373960       23.1930368843  TIP3      5149            0.0000000000
     65279      5549  TIP3      H2            -11.8874819833       28.0446905700       21.8904929389  TIP3      5149            0.0000000000
     65280      5550  TIP3      OH2           -12.8881930852       26.5833533946       34.8669627480  TIP3      5150            0.0000000000
     65281      5550  TIP3      H1            -13.4959939368       27.2953705555       35.1233371712  TIP3      5150            0.0000000000
     65282      5550  TIP3      H2            -12.5242936225       26.9356663561       34.0307559895  TIP3      5150            0.0000000000
     65283      5551  TIP3      OH2           -11.1143044178       26.9657050876       20.7670712547  TIP3      5151            0.0000000000
     65284      5551  TIP3      H1            -11.2520127386       26.8192453152       19.8247350726  TIP3      5151            0.0000000000
     65285      5551  TIP3      H2            -10.1375236853       27.0559099046       20.8149788028  TIP3      5151            0.0000000000
     65286      5552  TIP3      OH2            -7.8460192089       29.1082442386       38.1794093207  TIP3      5152            0.0000000000
     65287      5552  TIP3      H1             -6.8862362541       29.1476457482       38.0936890512  TIP3      5152            0.0000000000
     65288      5552  TIP3      H2             -8.0092423629       28.3606846892       38.7711582173  TIP3      5152            0.0000000000
     65289      5553  TIP3      OH2           -12.5133854519       23.9589823623       35.9323660160  TIP3      5153            0.0000000000
     65290      5553  TIP3      H1            -12.3840514362       23.2305144554       35.3045789063  TIP3      5153            0.0000000000
     65291      5553  TIP3      H2            -12.5363860058       24.7558946217       35.3673657567  TIP3      5153            0.0000000000
     65292      5554  TIP3      OH2           -12.1025503726       22.3184045955       33.4451191087  TIP3      5154            0.0000000000
     65293      5554  TIP3      H1            -11.5822462378       22.7989779027       32.7637217524  TIP3      5154            0.0000000000
     65294      5554  TIP3      H2            -12.9919072065       22.2377450785       33.0288581498  TIP3      5154            0.0000000000
     65295      5555  TIP3      OH2           -10.5332508614       27.7908796464       33.7240591398  TIP3      5155            0.0000000000
     65296      5555  TIP3      H1             -9.8134527775       27.6314220222       33.0908496994  TIP3      5155            0.0000000000
     65297      5555  TIP3      H2            -10.8924696581       28.6240098080       33.3666789247  TIP3      5155            0.0000000000
     65298      5556  TIP3      OH2            -6.1419683587       25.5805539409       38.6905172944  TIP3      5156            0.0000000000
     65299      5556  TIP3      H1             -5.9286386590       24.6416542482       38.5938504289  TIP3      5156            0.0000000000
     65300      5556  TIP3      H2             -5.2694239730       26.0044479540       38.6847398909  TIP3      5156            0.0000000000
     65301      5557  TIP3      OH2            -4.8197712643       28.3634838957       36.8182263334  TIP3      5157            0.0000000000
     65302      5557  TIP3      H1             -5.0772618782       29.0891245013       36.2025734383  TIP3      5157            0.0000000000
     65303      5557  TIP3      H2             -3.8620145022       28.3184699340       36.6194165726  TIP3      5157            0.0000000000
     65304      5558  TIP3      OH2           -14.0425738161       25.1850379021       37.8612887955  TIP3      5158            0.0000000000
     65305      5558  TIP3      H1            -14.8185385221       24.6244542957       37.6412570901  TIP3      5158            0.0000000000
     65306      5558  TIP3      H2            -13.3821017848       24.8423189805       37.2283442094  TIP3      5158            0.0000000000
     65307      5559  TIP3      OH2           -11.3037254194       19.7646624492       33.8604892187  TIP3      5159            0.0000000000
     65308      5559  TIP3      H1            -11.4461194763       20.7358565522       33.7670842243  TIP3      5159            0.0000000000
     65309      5559  TIP3      H2            -12.0779062143       19.4167982890       33.3838581531  TIP3      5159            0.0000000000
     65310      5560  TIP3      OH2           -10.0380187013       24.0984438594       37.4498831458  TIP3      5160            0.0000000000
     65311      5560  TIP3      H1            -10.3173151699       23.8825213092       38.3575249846  TIP3      5160            0.0000000000
     65312      5560  TIP3      H2            -10.8360570998       23.9033131962       36.9204904195  TIP3      5160            0.0000000000
     65313      5561  TIP3      OH2            -7.3231466307       23.2333524250       36.5136264165  TIP3      5161            0.0000000000
     65314      5561  TIP3      H1             -8.2862620895       23.2778718365       36.6542641589  TIP3      5161            0.0000000000
     65315      5561  TIP3      H2             -7.0340005863       22.6063817523       37.1962254414  TIP3      5161            0.0000000000
     65316      5562  TIP3      OH2            -5.7208382490       21.8721819954       38.4879915341  TIP3      5162            0.0000000000
     65317      5562  TIP3      H1             -5.7920039587       20.9039397298       38.5042605306  TIP3      5162            0.0000000000
     65318      5562  TIP3      H2             -6.0158330735       22.1513201679       39.3847639427  TIP3      5162            0.0000000000
     65319      5563  TIP3      OH2           -15.9083655612       23.1125712289       37.5637671224  TIP3      5163            0.0000000000
     65320      5563  TIP3      H1            -15.6780981876       22.3796730994       36.9602858086  TIP3      5163            0.0000000000
     65321      5563  TIP3      H2            -16.0036771131       22.6582265555       38.4250972474  TIP3      5163            0.0000000000
     65322      5564  TIP3      OH2           -11.0987429478       19.0990613732       36.5491367815  TIP3      5164            0.0000000000
     65323      5564  TIP3      H1            -10.3827115536       18.4500260419       36.5200182097  TIP3      5164            0.0000000000
     65324      5564  TIP3      H2            -11.2005720333       19.3440876949       35.6085041460  TIP3      5164            0.0000000000
     65325      5565  TIP3      OH2           -10.7369627622       20.7648755723       38.6226667973  TIP3      5165            0.0000000000
     65326      5565  TIP3      H1            -10.8883605174       20.2784430803       37.7787225416  TIP3      5165            0.0000000000
     65327      5565  TIP3      H2            -11.3361752655       21.5277264520       38.5363065528  TIP3      5165            0.0000000000
     65328      5566  TIP3      OH2           -18.9370917488       37.6622294862       26.2773805811  TIP3      5166            0.0000000000
     65329      5566  TIP3      H1            -19.6441550691       37.1785406153       25.8107644239  TIP3      5166            0.0000000000
     65330      5566  TIP3      H2            -18.6342933847       37.0019055561       26.9298301748  TIP3      5166            0.0000000000
     65331      5567  TIP3      OH2           -18.1040136521       35.7672530723       28.1314937595  TIP3      5167            0.0000000000
     65332      5567  TIP3      H1            -18.4476599587       34.8829919870       28.3224599017  TIP3      5167            0.0000000000
     65333      5567  TIP3      H2            -17.8799007584       36.1038971230       29.0167257352  TIP3      5167            0.0000000000
     65334      5568  TIP3      OH2            -0.5684941191       36.5669499553       31.0944711875  TIP3      5168            0.0000000000
     65335      5568  TIP3      H1             -0.5602397760       36.7509675532       32.0495361415  TIP3      5168            0.0000000000
     65336      5568  TIP3      H2              0.1352337906       37.1454054419       30.7773044093  TIP3      5168            0.0000000000
     65337      5569  TIP3      OH2            -0.9913943800       36.1648702800       34.0328508276  TIP3      5169            0.0000000000
     65338      5569  TIP3      H1             -1.4750405022       35.3947629817       33.6594016402  TIP3      5169            0.0000000000
     65339      5569  TIP3      H2             -0.4658565146       35.7292839339       34.7224844572  TIP3      5169            0.0000000000
     65340      5570  TIP3      OH2            -2.5413358882       31.8957595835       38.6727313967  TIP3      5170            0.0000000000
     65341      5570  TIP3      H1             -3.4255806409       31.8438459382       39.0757717533  TIP3      5170            0.0000000000
     65342      5570  TIP3      H2             -2.1698193476       32.6917067654       39.1230139301  TIP3      5170            0.0000000000
     65343      5571  TIP3      OH2            -1.2496524039       30.1850842142       24.1480760275  TIP3      5171            0.0000000000
     65344      5571  TIP3      H1             -0.3820859255       30.6011501159       24.3156311568  TIP3      5171            0.0000000000
     65345      5571  TIP3      H2             -1.2246194329       29.4613448854       24.8132931425  TIP3      5171            0.0000000000
     65346      5572  TIP3      OH2            -0.8607359555       28.2512668004       25.9821368684  TIP3      5172            0.0000000000
     65347      5572  TIP3      H1             -1.5994238408       27.7709666559       26.4177208486  TIP3      5172            0.0000000000
     65348      5572  TIP3      H2             -0.2705638342       28.4407013829       26.7503622042  TIP3      5172            0.0000000000
     65349      5573  TIP3      OH2            -1.1086107681       31.0011362793       30.9809129810  TIP3      5173            0.0000000000
     65350      5573  TIP3      H1             -0.2674691423       30.6353574089       30.6498208005  TIP3      5173            0.0000000000
     65351      5573  TIP3      H2             -0.9715836994       31.9616881585       30.8320291785  TIP3      5173            0.0000000000
     65352      5574  TIP3      OH2            -2.5739390210       33.8962929839       33.2747011441  TIP3      5174            0.0000000000
     65353      5574  TIP3      H1             -3.2568371912       34.2301461621       33.8783963580  TIP3      5174            0.0000000000
     65354      5574  TIP3      H2             -3.1206220882       33.4716530015       32.5769765859  TIP3      5174            0.0000000000
     65355      5575  TIP3      OH2            -3.0578212567       26.7619312337       26.5552934566  TIP3      5175            0.0000000000
     65356      5575  TIP3      H1             -3.2064923283       25.8116139897       26.5713724756  TIP3      5175            0.0000000000
     65357      5575  TIP3      H2             -3.4046271849       27.0208684443       27.4321474680  TIP3      5175            0.0000000000
     65358      5576  TIP3      OH2           -18.0436775733       28.8489957221       30.6151773703  TIP3      5176            0.0000000000
     65359      5576  TIP3      H1            -17.8451905024       28.7616459010       29.6561893994  TIP3      5176            0.0000000000
     65360      5576  TIP3      H2            -17.1591739187       28.6981262412       31.0006968794  TIP3      5176            0.0000000000
     65361      5577  TIP3      OH2            -2.2119447186       28.7323708157       36.2414290931  TIP3      5177            0.0000000000
     65362      5577  TIP3      H1             -1.6013587798       27.9829836143       36.4017064983  TIP3      5177            0.0000000000
     65363      5577  TIP3      H2             -1.6188088969       29.5099671038       36.2610882329  TIP3      5177            0.0000000000
     65364      5578  TIP3      OH2            -0.6999115393       26.6361118782       36.9171784045  TIP3      5178            0.0000000000
     65365      5578  TIP3      H1             -1.5762725855       26.2329231639       36.7387146837  TIP3      5178            0.0000000000
     65366      5578  TIP3      H2             -0.1109272593       25.8700177384       36.8287340799  TIP3      5178            0.0000000000
     65367      5579  TIP3      OH2            -3.3906916579       24.3376862981       24.9837508120  TIP3      5179            0.0000000000
     65368      5579  TIP3      H1             -3.0685131562       23.4223583911       25.1858367341  TIP3      5179            0.0000000000
     65369      5579  TIP3      H2             -2.5777479206       24.7706097001       24.6942530149  TIP3      5179            0.0000000000
     65370      5580  TIP3      OH2            -2.7516246534       24.8979098154       30.4705000756  TIP3      5180            0.0000000000
     65371      5580  TIP3      H1             -1.7948519444       25.1355051136       30.4533067609  TIP3      5180            0.0000000000
     65372      5580  TIP3      H2             -2.9610230840       25.0366031079       31.4082126262  TIP3      5180            0.0000000000
     65373      5581  TIP3      OH2            -2.6923153080       25.6280184496       33.2545398526  TIP3      5181            0.0000000000
     65374      5581  TIP3      H1             -3.5644889814       25.9249608096       33.5993993563  TIP3      5181            0.0000000000
     65375      5581  TIP3      H2             -2.2577378751       26.4875114334       33.0370970956  TIP3      5181            0.0000000000
     65376      5582  TIP3      OH2           -18.4379296650       24.1362096437       36.7484267948  TIP3      5182            0.0000000000
     65377      5582  TIP3      H1            -17.4996212656       23.9689475547       36.9693665887  TIP3      5182            0.0000000000
     65378      5582  TIP3      H2            -18.8821704544       23.3374658703       37.1040441999  TIP3      5182            0.0000000000
     65379      5583  TIP3      OH2            -0.4212111100       19.6487032154       38.6021182197  TIP3      5183            0.0000000000
     65380      5583  TIP3      H1             -0.0681757769       18.9896115677       37.9883280641  TIP3      5183            0.0000000000
     65381      5583  TIP3      H2             -0.2863839124       20.4849944761       38.1248346699  TIP3      5183            0.0000000000
     65382      5584  TIP3      OH2            -2.7403806708       21.6378458903       25.0764267270  TIP3      5184            0.0000000000
     65383      5584  TIP3      H1             -2.5391051520       21.1673540947       25.9191027654  TIP3      5184            0.0000000000
     65384      5584  TIP3      H2             -3.3352408800       20.9916693233       24.6324045628  TIP3      5184            0.0000000000
     65385      5585  TIP3      OH2           -17.2259071008       22.4314558751       29.6220327154  TIP3      5185            0.0000000000
     65386      5585  TIP3      H1            -16.7613712836       21.6219226093       29.9149306605  TIP3      5185            0.0000000000
     65387      5585  TIP3      H2            -16.7205242320       23.1393987671       30.0437857505  TIP3      5185            0.0000000000
     65388      5586  TIP3      OH2           -18.9349084144       25.4203594588       30.6891422393  TIP3      5186            0.0000000000
     65389      5586  TIP3      H1            -18.3928403371       25.2017095840       29.9018873102  TIP3      5186            0.0000000000
     65390      5586  TIP3      H2            -18.5157317184       26.2536524342       30.9558767615  TIP3      5186            0.0000000000
     65391      5587  TIP3      OH2            -0.8893842595       21.7628987785       36.9658797774  TIP3      5187            0.0000000000
     65392      5587  TIP3      H1             -1.8326858262       22.0259148132       36.9119838544  TIP3      5187            0.0000000000
     65393      5587  TIP3      H2             -0.8169770803       21.2209890356       36.1630524857  TIP3      5187            0.0000000000
     65394      5588  TIP3      OH2           -18.5821059956       21.7150801064       24.7786273958  TIP3      5188            0.0000000000
     65395      5588  TIP3      H1            -19.5178023449       21.8770117742       24.5919875829  TIP3      5188            0.0000000000
     65396      5588  TIP3      H2            -18.1486075379       22.1482036330       24.0205167362  TIP3      5188            0.0000000000
     65397      5589  TIP3      OH2            -3.8429699076       36.6601861094       26.6909597701  TIP3      5189            0.0000000000
     65398      5589  TIP3      H1             -3.1621769612       36.3294515436       26.0758675900  TIP3      5189            0.0000000000
     65399      5589  TIP3      H2             -3.3117440514       37.1513336672       27.3333108802  TIP3      5189            0.0000000000
     65400      5590  TIP3      OH2           -18.6205209453       20.3922138494       33.0710080324  TIP3      5190            0.0000000000
     65401      5590  TIP3      H1            -19.3005410464       20.1707145625       33.7304483958  TIP3      5190            0.0000000000
     65402      5590  TIP3      H2            -19.0832154257       21.0445804227       32.5023748221  TIP3      5190            0.0000000000
     65403      5591  TIP3      OH2           -16.4132521535       33.5780046788       37.2261025540  TIP3      5191            0.0000000000
     65404      5591  TIP3      H1            -17.2542050022       33.7719649080       36.7795111023  TIP3      5191            0.0000000000
     65405      5591  TIP3      H2            -16.6833676939       33.5129683934       38.1503550326  TIP3      5191            0.0000000000
     65406      5592  TIP3      OH2           -13.4946699298       34.5543284555       33.4944553588  TIP3      5192            0.0000000000
     65407      5592  TIP3      H1            -13.8740082604       35.3956557256       33.2059763086  TIP3      5192            0.0000000000
     65408      5592  TIP3      H2            -12.5706225148       34.6577263744       33.1814318380  TIP3      5192            0.0000000000
     65409      5593  TIP3      OH2            -9.1786850605       35.9762287669       36.4189915418  TIP3      5193            0.0000000000
     65410      5593  TIP3      H1             -8.9994754318       35.6308355095       37.3306350574  TIP3      5193            0.0000000000
     65411      5593  TIP3      H2             -8.2943554838       36.2793297879       36.1400990654  TIP3      5193            0.0000000000
     65412      5594  TIP3      OH2            -6.8624443501       37.2502298505       35.6882730546  TIP3      5194            0.0000000000
     65413      5594  TIP3      H1             -6.1451456400       36.6357860730       35.4590693692  TIP3      5194            0.0000000000
     65414      5594  TIP3      H2             -6.4973495930       37.6635828182       36.5019329919  TIP3      5194            0.0000000000
     65415      5595  TIP3      OH2            -1.8852831674       19.8596575483       34.7951568030  TIP3      5195            0.0000000000
     65416      5595  TIP3      H1             -2.7153437557       20.1614912163       34.3815044667  TIP3      5195            0.0000000000
     65417      5595  TIP3      H2             -1.6883208542       19.0635935217       34.2504015113  TIP3      5195            0.0000000000
     65418      5596  TIP3      OH2           -16.0670232347       37.8080933586       33.5145706070  TIP3      5196            0.0000000000
     65419      5596  TIP3      H1            -16.8027401979       38.2788372073       33.0880163569  TIP3      5196            0.0000000000
     65420      5596  TIP3      H2            -16.4227373381       37.5842975604       34.3871054570  TIP3      5196            0.0000000000
     65421      5597  TIP3      OH2           -13.5957867710       37.3946157939       32.5670596754  TIP3      5197            0.0000000000
     65422      5597  TIP3      H1            -14.4910450086       37.5073072249       32.9656231969  TIP3      5197            0.0000000000
     65423      5597  TIP3      H2            -13.6684448223       37.9728946748       31.7813930372  TIP3      5197            0.0000000000
     65424      5598  TIP3      OH2            -8.8979424594       37.2956320284       31.7348153271  TIP3      5198            0.0000000000
     65425      5598  TIP3      H1             -9.3611330822       37.8434223905       31.0822223397  TIP3      5198            0.0000000000
     65426      5598  TIP3      H2             -8.7470124383       37.9255028874       32.4701080197  TIP3      5198            0.0000000000
     65427      5599  TIP3      OH2            -6.5783608439       36.1460122106       32.7114468204  TIP3      5199            0.0000000000
     65428      5599  TIP3      H1             -7.4721366082       36.3682735460       32.4059692257  TIP3      5199            0.0000000000
     65429      5599  TIP3      H2             -6.1402889911       37.0114216502       32.6304987556  TIP3      5199            0.0000000000
     65430      5600  TIP3      OH2            -3.9911585583       37.7139106714       32.9935972806  TIP3      5200            0.0000000000
     65431      5600  TIP3      H1             -4.1252128505       38.6657887003       32.7582354998  TIP3      5200            0.0000000000
     65432      5600  TIP3      H2             -3.7990793862       37.3354688964       32.1158240755  TIP3      5200            0.0000000000
     65433      5601  TIP3      OH2           -16.6526651672       36.4533500272       30.4340414871  TIP3      5201            0.0000000000
     65434      5601  TIP3      H1            -16.6905586846       36.0049279199       31.3061617094  TIP3      5201            0.0000000000
     65435      5601  TIP3      H2            -15.8300625458       36.1035153028       30.0353446618  TIP3      5201            0.0000000000
     65436      5602  TIP3      OH2           -14.5392873899       35.1654239706       29.0855872981  TIP3      5202            0.0000000000
     65437      5602  TIP3      H1            -14.7258726189       34.2304097982       29.2888688504  TIP3      5202            0.0000000000
     65438      5602  TIP3      H2            -13.6866934895       35.2976035631       29.5585525721  TIP3      5202            0.0000000000
     65439      5603  TIP3      OH2           -11.9677042147       35.6429894391       29.9494772500  TIP3      5203            0.0000000000
     65440      5603  TIP3      H1            -11.7701056471       34.7286936511       29.6769560052  TIP3      5203            0.0000000000
     65441      5603  TIP3      H2            -11.9055175718       35.5811783976       30.9117733017  TIP3      5203            0.0000000000
     65442      5604  TIP3      OH2            -8.2658876031       21.4297938331       29.0628420960  TIP3      5204            0.0000000000
     65443      5604  TIP3      H1             -8.8088751840       20.7998399080       29.5257887302  TIP3      5204            0.0000000000
     65444      5604  TIP3      H2             -7.8136910639       20.8101380416       28.4805062853  TIP3      5204            0.0000000000
     65445      5605  TIP3      OH2            -3.3443454034       19.3577908585       29.1890090186  TIP3      5205            0.0000000000
     65446      5605  TIP3      H1             -2.7235462793       19.9435348870       28.6832040162  TIP3      5205            0.0000000000
     65447      5605  TIP3      H2             -4.2107329067       19.7212970797       28.9531454538  TIP3      5205            0.0000000000
     65448      5606  TIP3      OH2            -1.6451807675       20.5670966003       27.5060845525  TIP3      5206            0.0000000000
     65449      5606  TIP3      H1             -0.9873236483       20.0129728128       27.0199502727  TIP3      5206            0.0000000000
     65450      5606  TIP3      H2             -1.1914774809       21.4309887984       27.5633260586  TIP3      5206            0.0000000000
     65451      5607  TIP3      OH2           -16.1295090235       19.9320160616       26.9269429088  TIP3      5207            0.0000000000
     65452      5607  TIP3      H1            -16.9252131441       19.7024292829       26.4091230086  TIP3      5207            0.0000000000
     65453      5607  TIP3      H2            -15.6319011016       19.0943769957       26.9066363749  TIP3      5207            0.0000000000
     65454      5608  TIP3      OH2           -11.5794296476       19.8720060236       26.7444421691  TIP3      5208            0.0000000000
     65455      5608  TIP3      H1            -10.6945687242       20.2177268659       26.6561610151  TIP3      5208            0.0000000000
     65456      5608  TIP3      H2            -11.7361447674       19.5935927170       27.6403294074  TIP3      5208            0.0000000000
     65457      5609  TIP3      OH2            -6.0217618612       19.8857119359       28.3612454216  TIP3      5209            0.0000000000
     65458      5609  TIP3      H1             -5.9178413805       19.9635385622       27.4119301497  TIP3      5209            0.0000000000
     65459      5609  TIP3      H2             -6.2777562601       18.9495970734       28.5033992274  TIP3      5209            0.0000000000
     65460      5610  TIP3      OH2            -4.6532171707       19.9117249142       24.0691590953  TIP3      5210            0.0000000000
     65461      5610  TIP3      H1             -5.3794589731       20.4995381109       23.8459785392  TIP3      5210            0.0000000000
     65462      5610  TIP3      H2             -5.1109292939       19.0511889384       24.2028388111  TIP3      5210            0.0000000000
     65463      5611  TIP3      OH2           -17.4070043923       35.6714087568       23.6231977999  TIP3      5211            0.0000000000
     65464      5611  TIP3      H1            -18.0941611221       35.6139569917       22.9550389522  TIP3      5211            0.0000000000
     65465      5611  TIP3      H2            -17.4123868493       36.5850098907       23.9072144271  TIP3      5211            0.0000000000
     65466      5612  TIP3      OH2           -15.4820010142       21.6470976195       21.1827042613  TIP3      5212            0.0000000000
     65467      5612  TIP3      H1            -15.0204351976       21.0034023511       20.6475324697  TIP3      5212            0.0000000000
     65468      5612  TIP3      H2            -14.8625491436       21.9499285152       21.8364561369  TIP3      5212            0.0000000000
     65469      5613  TIP3      OH2           -10.4064029020       21.9081045845       23.6029524560  TIP3      5213            0.0000000000
     65470      5613  TIP3      H1            -10.2580853327       21.2717249460       24.2942881649  TIP3      5213            0.0000000000
     65471      5613  TIP3      H2            -10.5083281808       22.7620780759       24.0595271102  TIP3      5213            0.0000000000
     65472      5614  TIP3      OH2            -1.8329765465       36.4506597998       24.7193232479  TIP3      5214            0.0000000000
     65473      5614  TIP3      H1             -2.0456832222       35.6851329045       24.1334307692  TIP3      5214            0.0000000000
     65474      5614  TIP3      H2             -1.9045219823       37.1964351672       24.0842860327  TIP3      5214            0.0000000000
     65475      5615  TIP3      OH2           -16.2162551031       20.4557151949       36.4086665262  TIP3      5215            0.0000000000
     65476      5615  TIP3      H1            -16.5729495924       19.6644704975       36.8564216930  TIP3      5215            0.0000000000
     65477      5615  TIP3      H2            -15.2867340351       20.4450515882       36.7455367979  TIP3      5215            0.0000000000
     65478      5616  TIP3      OH2           -14.2145985738       19.8302873996       38.0006784971  TIP3      5216            0.0000000000
     65479      5616  TIP3      H1            -13.3188490108       19.4984188405       37.7878635478  TIP3      5216            0.0000000000
     65480      5616  TIP3      H2            -14.5975449423       19.0404715565       38.4377425297  TIP3      5216            0.0000000000
     65481      5617  TIP3      OH2           -15.6482375844       36.5703983796       20.6596715934  TIP3      5217            0.0000000000
     65482      5617  TIP3      H1            -15.8474256793       36.8811197690       21.5307392253  TIP3      5217            0.0000000000
     65483      5617  TIP3      H2            -14.8349253398       36.0618766817       20.7856775954  TIP3      5217            0.0000000000
     65484      5618  TIP3      OH2            -5.8132791129       19.1183134618       38.1600393162  TIP3      5218            0.0000000000
     65485      5618  TIP3      H1             -5.7052693484       18.6832609120       39.0260754332  TIP3      5218            0.0000000000
     65486      5618  TIP3      H2             -4.8928514092       19.1280842544       37.8201246170  TIP3      5218            0.0000000000
     65487      5619  TIP3      OH2            -2.6082247113       35.1756161441       36.8520922078  TIP3      5219            0.0000000000
     65488      5619  TIP3      H1             -3.4115170234       35.0240666895       36.3080732140  TIP3      5219            0.0000000000
     65489      5619  TIP3      H2             -2.7080425073       36.1314669341       37.0486067966  TIP3      5219            0.0000000000
     65490      5620  TIP3      OH2            11.7907099784       29.0530327270       26.8639688335  TIP3      5220            0.0000000000
     65491      5620  TIP3      H1             11.8609722022       30.0319056991       26.7520854300  TIP3      5220            0.0000000000
     65492      5620  TIP3      H2             11.1332366980       28.8207140280       26.1950998274  TIP3      5220            0.0000000000
     65493      5621  TIP3      OH2            10.6897301440       28.3348183926       30.3035811765  TIP3      5221            0.0000000000
     65494      5621  TIP3      H1             10.6862227331       27.6818185066       31.0210948107  TIP3      5221            0.0000000000
     65495      5621  TIP3      H2             10.4007641433       27.8573357892       29.5407817901  TIP3      5221            0.0000000000
     65496      5622  TIP3      OH2             3.0625912485       27.9686937668       31.8652584752  TIP3      5222            0.0000000000
     65497      5622  TIP3      H1              3.1316500030       27.3128971073       32.5929063286  TIP3      5222            0.0000000000
     65498      5622  TIP3      H2              3.7929257148       28.5671928360       32.0757297378  TIP3      5222            0.0000000000
     65499      5623  TIP3      OH2            14.4096522154       31.2664148030       28.5836221517  TIP3      5223            0.0000000000
     65500      5623  TIP3      H1             13.9723329095       30.5525715589       29.0602082024  TIP3      5223            0.0000000000
     65501      5623  TIP3      H2             14.4051434322       31.9873065971       29.2431467252  TIP3      5223            0.0000000000
     65502      5624  TIP3      OH2             3.9885811487       32.4221535871       30.4031001537  TIP3      5224            0.0000000000
     65503      5624  TIP3      H1              3.6495854863       31.5808081764       30.0446329257  TIP3      5224            0.0000000000
     65504      5624  TIP3      H2              4.9439046844       32.2323001294       30.4438833924  TIP3      5224            0.0000000000
     65505      5625  TIP3      OH2             0.6355330244       26.0324463681       25.8107783058  TIP3      5225            0.0000000000
     65506      5625  TIP3      H1              0.1720457026       26.8977664415       25.8066143006  TIP3      5225            0.0000000000
     65507      5625  TIP3      H2              0.0498957302       25.4695881743       25.3038738912  TIP3      5225            0.0000000000
     65508      5626  TIP3      OH2             1.3160135943       28.2247589343       27.9531687782  TIP3      5226            0.0000000000
     65509      5626  TIP3      H1              1.5640546061       27.4276468766       28.4554350281  TIP3      5226            0.0000000000
     65510      5626  TIP3      H2              2.0563258308       28.3145510089       27.3336782365  TIP3      5226            0.0000000000
     65511      5627  TIP3      OH2            11.5050651939       36.4050708363       28.8037540999  TIP3      5227            0.0000000000
     65512      5627  TIP3      H1             12.1557587760       35.7051573432       28.5373394748  TIP3      5227            0.0000000000
     65513      5627  TIP3      H2             11.3246158253       36.1346014700       29.7134843044  TIP3      5227            0.0000000000
     65514      5628  TIP3      OH2             9.0776734852       30.7421173241       30.7273360522  TIP3      5228            0.0000000000
     65515      5628  TIP3      H1              9.4225497760       30.0897838625       30.1086770696  TIP3      5228            0.0000000000
     65516      5628  TIP3      H2              9.8484804291       30.8856138982       31.3104294711  TIP3      5228            0.0000000000
     65517      5629  TIP3      OH2            17.6113990682       22.3970532500       31.8135754885  TIP3      5229            0.0000000000
     65518      5629  TIP3      H1             17.8565774994       23.0821360572       32.3943203869  TIP3      5229            0.0000000000
     65519      5629  TIP3      H2             18.1043955592       22.7477088104       30.9821833495  TIP3      5229            0.0000000000
     65520      5630  TIP3      OH2            12.2582711662       25.1830506348       31.0631719783  TIP3      5230            0.0000000000
     65521      5630  TIP3      H1             12.3957423261       24.2154109979       31.0627065734  TIP3      5230            0.0000000000
     65522      5630  TIP3      H2             12.1444144545       25.3412174768       30.1087872192  TIP3      5230            0.0000000000
     65523      5631  TIP3      OH2             5.3950738906       23.2690573777       28.3066653885  TIP3      5231            0.0000000000
     65524      5631  TIP3      H1              5.4346279536       24.1192309566       27.8470611610  TIP3      5231            0.0000000000
     65525      5631  TIP3      H2              4.9371680888       22.7005838033       27.6407997199  TIP3      5231            0.0000000000
     65526      5632  TIP3      OH2            13.0983737193       23.3890430236       26.6999822178  TIP3      5232            0.0000000000
     65527      5632  TIP3      H1             13.7795577666       23.0504425457       27.3373415341  TIP3      5232            0.0000000000
     65528      5632  TIP3      H2             13.6478066504       23.9127693259       26.0948445975  TIP3      5232            0.0000000000
     65529      5633  TIP3      OH2             1.9936629313       25.6776772843       29.0544721966  TIP3      5233            0.0000000000
     65530      5633  TIP3      H1              2.6683631508       25.1148793559       29.4903708412  TIP3      5233            0.0000000000
     65531      5633  TIP3      H2              2.0621811334       25.3759760669       28.1361160514  TIP3      5233            0.0000000000
     65532      5634  TIP3      OH2             7.1976627790       27.2187683513       28.2793447544  TIP3      5234            0.0000000000
     65533      5634  TIP3      H1              7.7040241570       26.6575851545       28.8420019519  TIP3      5234            0.0000000000
     65534      5634  TIP3      H2              6.5686849443       26.5773756700       27.8605691395  TIP3      5234            0.0000000000
     65535      5635  TIP3      OH2            18.1729765993       23.8481821526       33.8117215206  TIP3      5235            0.0000000000
     65536      5635  TIP3      H1             17.4756078947       24.5228484806       33.6891952312  TIP3      5235            0.0000000000
     65537      5635  TIP3      H2             18.1578675261       23.6625225301       34.7483980197  TIP3      5235            0.0000000000
     65538      5636  TIP3      OH2             4.2387919443       22.1698858273       32.3603484554  TIP3      5236            0.0000000000
     65539      5636  TIP3      H1              3.9776292380       22.7261997417       31.6015521792  TIP3      5236            0.0000000000
     65540      5636  TIP3      H2              3.5486644306       22.4095032504       33.0279045083  TIP3      5236            0.0000000000
     65541      5637  TIP3      OH2            11.5791866654       31.6658171524       25.9057046848  TIP3      5237            0.0000000000
     65542      5637  TIP3      H1             11.2625309423       31.3637538333       25.0529531793  TIP3      5237            0.0000000000
     65543      5637  TIP3      H2             11.2495992567       32.5930751622       25.9534284634  TIP3      5237            0.0000000000
     65544      5638  TIP3      OH2             6.7804283589       29.8267979747       32.6288838714  TIP3      5238            0.0000000000
     65545      5638  TIP3      H1              6.0494847715       30.4636866695       32.7806254960  TIP3      5238            0.0000000000
     65546      5638  TIP3      H2              7.4873496087       30.4175452457       32.3285955610  TIP3      5238            0.0000000000
     65547      5639  TIP3      OH2            14.8685754515       22.7026409318       28.6763007166  TIP3      5239            0.0000000000
     65548      5639  TIP3      H1             14.6850482659       21.9225026901       29.2099503237  TIP3      5239            0.0000000000
     65549      5639  TIP3      H2             15.5652853935       23.1345734527       29.2067283933  TIP3      5239            0.0000000000
     65550      5640  TIP3      OH2             3.7979808231       24.0507150153       30.3464483598  TIP3      5240            0.0000000000
     65551      5640  TIP3      H1              4.4360414956       24.7101904725       30.6963714347  TIP3      5240            0.0000000000
     65552      5640  TIP3      H2              4.3296873819       23.5980284245       29.6516910176  TIP3      5240            0.0000000000
     65553      5641  TIP3      OH2             5.2092003915       31.8058623625       33.4236771021  TIP3      5241            0.0000000000
     65554      5641  TIP3      H1              5.1756139882       32.7152283003       33.0677043678  TIP3      5241            0.0000000000
     65555      5641  TIP3      H2              4.3252798534       31.7398507338       33.8671893777  TIP3      5241            0.0000000000
     65556      5642  TIP3      OH2             1.2783607306       31.4566014068       24.2152476705  TIP3      5242            0.0000000000
     65557      5642  TIP3      H1              1.0549439922       31.7422387300       23.3218440352  TIP3      5242            0.0000000000
     65558      5642  TIP3      H2              1.3662824085       32.3122032732       24.6891117552  TIP3      5242            0.0000000000
     65559      5643  TIP3      OH2            14.9327935978       33.0944136102       30.9383190438  TIP3      5243            0.0000000000
     65560      5643  TIP3      H1             13.9662143892       33.1939740329       31.0988939070  TIP3      5243            0.0000000000
     65561      5643  TIP3      H2             15.1907760885       34.0277839764       30.7929008264  TIP3      5243            0.0000000000
     65562      5644  TIP3      OH2            15.2185621192       21.3859877615       32.3638367376  TIP3      5244            0.0000000000
     65563      5644  TIP3      H1             14.5026941178       22.0221117177       32.2899811820  TIP3      5244            0.0000000000
     65564      5644  TIP3      H2             15.9368406527       21.8064914548       31.8289076704  TIP3      5244            0.0000000000
     65565      5645  TIP3      OH2             8.2299871706       19.4986216462       29.8130025363  TIP3      5245            0.0000000000
     65566      5645  TIP3      H1              8.0998361483       18.5328623092       29.7572278727  TIP3      5245            0.0000000000
     65567      5645  TIP3      H2              7.3536251868       19.8138830031       30.1067286365  TIP3      5245            0.0000000000
     65568      5646  TIP3      OH2            13.1804631456       34.8876182980       27.5801600729  TIP3      5246            0.0000000000
     65569      5646  TIP3      H1             13.6121187385       34.1785818423       27.0683682620  TIP3      5246            0.0000000000
     65570      5646  TIP3      H2             13.5369713371       35.6890563041       27.1433723512  TIP3      5246            0.0000000000
     65571      5647  TIP3      OH2            14.3669547556       32.8111005935       26.0633853456  TIP3      5247            0.0000000000
     65572      5647  TIP3      H1             14.0841014772       32.1016497065       25.4688732447  TIP3      5247            0.0000000000
     65573      5647  TIP3      H2             14.4153979144       32.3360657553       26.9143028895  TIP3      5247            0.0000000000
     65574      5648  TIP3      OH2            16.0319138401       31.3741401702       34.5625753372  TIP3      5248            0.0000000000
     65575      5648  TIP3      H1             16.1631318176       30.7575041358       33.8119596642  TIP3      5248            0.0000000000
     65576      5648  TIP3      H2             16.1900413342       32.2467001427       34.1660775669  TIP3      5248            0.0000000000
     65577      5649  TIP3      OH2            10.4988598952       28.3179213189       24.3584910320  TIP3      5249            0.0000000000
     65578      5649  TIP3      H1              9.7881561206       28.8623548233       23.9589005849  TIP3      5249            0.0000000000
     65579      5649  TIP3      H2             11.1943705476       28.3686598767       23.6596073865  TIP3      5249            0.0000000000
     65580      5650  TIP3      OH2            10.5660648233       26.8155306894       21.3802019372  TIP3      5250            0.0000000000
     65581      5650  TIP3      H1             11.2824275345       26.7888321813       22.0127389375  TIP3      5250            0.0000000000
     65582      5650  TIP3      H2             10.8632281212       26.1635924326       20.7271258315  TIP3      5250            0.0000000000
     65583      5651  TIP3      OH2            17.8817379708       27.6991341681       32.6192152153  TIP3      5251            0.0000000000
     65584      5651  TIP3      H1             17.2182411824       28.4152041060       32.6810562809  TIP3      5251            0.0000000000
     65585      5651  TIP3      H2             18.3515984799       27.9303162897       31.7981314981  TIP3      5251            0.0000000000
     65586      5652  TIP3      OH2            13.9254630866       28.5258355945       25.2516233161  TIP3      5252            0.0000000000
     65587      5652  TIP3      H1             13.1846520496       28.7604021038       25.8545648102  TIP3      5252            0.0000000000
     65588      5652  TIP3      H2             14.3856821697       27.8233074251       25.7400463286  TIP3      5252            0.0000000000
     65589      5653  TIP3      OH2            13.8472240004       26.6818599797       34.3518412870  TIP3      5253            0.0000000000
     65590      5653  TIP3      H1             13.8779088700       27.4839727422       34.9028419031  TIP3      5253            0.0000000000
     65591      5653  TIP3      H2             13.2141419993       26.9872245331       33.6635603449  TIP3      5253            0.0000000000
     65592      5654  TIP3      OH2             5.5665909517       29.1702119295       27.1666053866  TIP3      5254            0.0000000000
     65593      5654  TIP3      H1              5.2201422806       28.7883431316       26.3213660179  TIP3      5254            0.0000000000
     65594      5654  TIP3      H2              6.1544039945       28.4734386945       27.5008887861  TIP3      5254            0.0000000000
     65595      5655  TIP3      OH2             6.8932887325       32.5868998940       29.8441113203  TIP3      5255            0.0000000000
     65596      5655  TIP3      H1              6.8447490445       32.0158293276       29.0664857038  TIP3      5255            0.0000000000
     65597      5655  TIP3      H2              7.6577130755       32.2078555107       30.3160483240  TIP3      5255            0.0000000000
     65598      5656  TIP3      OH2             5.9163260180       27.9085973478       30.7996057281  TIP3      5256            0.0000000000
     65599      5656  TIP3      H1              6.4673379707       28.0610269635       30.0230280263  TIP3      5256            0.0000000000
     65600      5656  TIP3      H2              6.2447273146       28.5794812040       31.4380095695  TIP3      5256            0.0000000000
     65601      5657  TIP3      OH2            12.2542987284       33.4607035324       31.5079304771  TIP3      5257            0.0000000000
     65602      5657  TIP3      H1             12.0004846646       34.1046047046       32.1842413642  TIP3      5257            0.0000000000
     65603      5657  TIP3      H2             12.0299787179       32.6098701772       31.9605975565  TIP3      5257            0.0000000000
     65604      5658  TIP3      OH2             6.8141387064       32.3210133065       35.5186409326  TIP3      5258            0.0000000000
     65605      5658  TIP3      H1              6.4725900402       33.1136437462       35.9711422312  TIP3      5258            0.0000000000
     65606      5658  TIP3      H2              6.1444043098       32.1628637202       34.8127265905  TIP3      5258            0.0000000000
     65607      5659  TIP3      OH2            12.7772814589       27.7047937415       22.9457992737  TIP3      5259            0.0000000000
     65608      5659  TIP3      H1             13.3651687802       27.8528495472       23.7176544765  TIP3      5259            0.0000000000
     65609      5659  TIP3      H2             13.2192419034       28.1837482953       22.2367424321  TIP3      5259            0.0000000000
     65610      5660  TIP3      OH2             3.7523258288       28.5097597911       34.7076905801  TIP3      5260            0.0000000000
     65611      5660  TIP3      H1              3.7962817378       29.1796448532       35.4210880628  TIP3      5260            0.0000000000
     65612      5660  TIP3      H2              2.8304809134       28.6210571515       34.4297354437  TIP3      5260            0.0000000000
     65613      5661  TIP3      OH2            10.5222573436       34.4287767705       26.3814163130  TIP3      5261            0.0000000000
     65614      5661  TIP3      H1             10.9743492227       34.7364285881       27.1768263627  TIP3      5261            0.0000000000
     65615      5661  TIP3      H2              9.9514030479       35.1739167348       26.1581106254  TIP3      5261            0.0000000000
     65616      5662  TIP3      OH2             5.0636561830       34.3990103612       36.2850900806  TIP3      5262            0.0000000000
     65617      5662  TIP3      H1              5.0389033038       34.2710558688       35.3148976934  TIP3      5262            0.0000000000
     65618      5662  TIP3      H2              4.1210302051       34.2708214124       36.5126988630  TIP3      5262            0.0000000000
     65619      5663  TIP3      OH2            16.5201639371       19.4711184095       22.8288527845  TIP3      5263            0.0000000000
     65620      5663  TIP3      H1             15.5760014927       19.5764473486       23.0720765662  TIP3      5263            0.0000000000
     65621      5663  TIP3      H2             16.7165222573       20.2673466745       22.3567065457  TIP3      5263            0.0000000000
     65622      5664  TIP3      OH2             4.5355413154       28.2175267961       24.7669621217  TIP3      5264            0.0000000000
     65623      5664  TIP3      H1              4.2442730829       28.9989134994       24.2472569392  TIP3      5264            0.0000000000
     65624      5664  TIP3      H2              3.8636494885       27.5619432202       24.5746054905  TIP3      5264            0.0000000000
     65625      5665  TIP3      OH2             0.6303467083       30.6149933356       33.6122512934  TIP3      5265            0.0000000000
     65626      5665  TIP3      H1              0.1470075360       30.5484094935       32.7678054548  TIP3      5265            0.0000000000
     65627      5665  TIP3      H2              0.6579981982       29.6750498336       33.8708388020  TIP3      5265            0.0000000000
     65628      5666  TIP3      OH2             0.3810833229       33.3603907420       30.4484052383  TIP3      5266            0.0000000000
     65629      5666  TIP3      H1              1.3384669453       33.2363809417       30.4286666106  TIP3      5266            0.0000000000
     65630      5666  TIP3      H2              0.2854570383       34.1657080314       30.9743135721  TIP3      5266            0.0000000000
     65631      5667  TIP3      OH2            18.6089617527       34.0536988629       36.1139494408  TIP3      5267            0.0000000000
     65632      5667  TIP3      H1             18.5146947085       33.0902355811       36.1067241771  TIP3      5267            0.0000000000
     65633      5667  TIP3      H2             17.7483130818       34.3029173322       36.5370518603  TIP3      5267            0.0000000000
     65634      5668  TIP3      OH2             9.5159700403       33.5536405455       35.0103993878  TIP3      5268            0.0000000000
     65635      5668  TIP3      H1              9.6717188550       34.4318794735       35.4709140450  TIP3      5268            0.0000000000
     65636      5668  TIP3      H2              8.6576079060       33.2684092277       35.2714670154  TIP3      5268            0.0000000000
     65637      5669  TIP3      OH2             9.9905223749       37.3618376985       24.8040074123  TIP3      5269            0.0000000000
     65638      5669  TIP3      H1              9.9094374311       37.2684736183       23.8480495894  TIP3      5269            0.0000000000
     65639      5669  TIP3      H2             10.0193765283       38.3273114405       24.9452438122  TIP3      5269            0.0000000000
     65640      5670  TIP3      OH2             3.6434768947       36.2113633662       26.6011426239  TIP3      5270            0.0000000000
     65641      5670  TIP3      H1              3.7886306410       35.8106242664       27.4870715309  TIP3      5270            0.0000000000
     65642      5670  TIP3      H2              2.7914731367       35.8113593624       26.3620428807  TIP3      5270            0.0000000000
     65643      5671  TIP3      OH2            12.7556337511       36.4925844943       24.5484635336  TIP3      5271            0.0000000000
     65644      5671  TIP3      H1             11.8046187390       36.5557019979       24.7417348074  TIP3      5271            0.0000000000
     65645      5671  TIP3      H2             13.0227992154       35.7555048783       25.1215385722  TIP3      5271            0.0000000000
     65646      5672  TIP3      OH2            15.7460286664       25.5353569596       36.6091825147  TIP3      5272            0.0000000000
     65647      5672  TIP3      H1             15.3139429137       26.0008840717       35.8787825748  TIP3      5272            0.0000000000
     65648      5672  TIP3      H2             15.7659996922       24.6186580034       36.2953531910  TIP3      5272            0.0000000000
     65649      5673  TIP3      OH2             2.8914569951       31.9341749477       34.6043795006  TIP3      5273            0.0000000000
     65650      5673  TIP3      H1              3.1127900924       31.5588308100       35.4814875421  TIP3      5273            0.0000000000
     65651      5673  TIP3      H2              2.0237575997       31.5363366162       34.3930871056  TIP3      5273            0.0000000000
     65652      5674  TIP3      OH2             5.5499522713       20.3926298179       30.5845774850  TIP3      5274            0.0000000000
     65653      5674  TIP3      H1              4.6491046471       20.2981553895       30.1951801959  TIP3      5274            0.0000000000
     65654      5674  TIP3      H2              5.4648628517       21.2460058190       31.0347600371  TIP3      5274            0.0000000000
     65655      5675  TIP3      OH2            10.1968425640       20.1025426402       33.9502909559  TIP3      5275            0.0000000000
     65656      5675  TIP3      H1             10.5990273979       19.6771759066       34.7285837092  TIP3      5275            0.0000000000
     65657      5675  TIP3      H2              9.2304055101       19.9393021028       34.0871531584  TIP3      5275            0.0000000000
     65658      5676  TIP3      OH2            13.5066978628       23.8896374415       34.8204707852  TIP3      5276            0.0000000000
     65659      5676  TIP3      H1             12.9638318234       23.7221004016       35.6282309588  TIP3      5276            0.0000000000
     65660      5676  TIP3      H2             13.3306530766       24.8104443825       34.5781188328  TIP3      5276            0.0000000000
     65661      5677  TIP3      OH2             5.6473027849       25.3571432931       31.7345208262  TIP3      5277            0.0000000000
     65662      5677  TIP3      H1              4.9506061246       25.3314162562       32.4208615927  TIP3      5277            0.0000000000
     65663      5677  TIP3      H2              5.6236759328       26.2963727849       31.4563274911  TIP3      5277            0.0000000000
     65664      5678  TIP3      OH2             5.6294708658       25.5494876408       26.6529799820  TIP3      5278            0.0000000000
     65665      5678  TIP3      H1              4.6968654546       25.2401486222       26.5348528187  TIP3      5278            0.0000000000
     65666      5678  TIP3      H2              6.0217880639       25.1880060628       25.8269564137  TIP3      5278            0.0000000000
     65667      5679  TIP3      OH2            11.1254767401       25.9892264562       25.4553792441  TIP3      5279            0.0000000000
     65668      5679  TIP3      H1             10.7420433843       26.8216126270       25.1048141544  TIP3      5279            0.0000000000
     65669      5679  TIP3      H2             11.8438436756       25.8455215940       24.8031156267  TIP3      5279            0.0000000000
     65670      5680  TIP3      OH2            10.2297886507       26.1934297105       36.8989318877  TIP3      5280            0.0000000000
     65671      5680  TIP3      H1              9.6744240215       25.4438558101       37.2207733686  TIP3      5280            0.0000000000
     65672      5680  TIP3      H2             11.0616545370       26.0586298160       37.3795231619  TIP3      5280            0.0000000000
     65673      5681  TIP3      OH2            12.0980498091       25.4638365372       28.2644737582  TIP3      5281            0.0000000000
     65674      5681  TIP3      H1             11.9684809841       26.0434730839       27.5045348032  TIP3      5281            0.0000000000
     65675      5681  TIP3      H2             12.3234656414       24.6164777237       27.8078150884  TIP3      5281            0.0000000000
     65676      5682  TIP3      OH2             3.3287357727       25.6628351532       33.5309177446  TIP3      5282            0.0000000000
     65677      5682  TIP3      H1              3.3329433585       26.0638071362       34.4175183862  TIP3      5282            0.0000000000
     65678      5682  TIP3      H2              2.8540055344       24.8317246891       33.6776816528  TIP3      5282            0.0000000000
     65679      5683  TIP3      OH2            -0.0530883231       22.7803600029       27.4302189994  TIP3      5283            0.0000000000
     65680      5683  TIP3      H1              0.6074513198       22.7417116768       28.1520572184  TIP3      5283            0.0000000000
     65681      5683  TIP3      H2              0.4148964802       22.3593164493       26.6885047594  TIP3      5283            0.0000000000
     65682      5684  TIP3      OH2             1.2120508866       23.5017572469       22.8227149370  TIP3      5284            0.0000000000
     65683      5684  TIP3      H1              1.7430110698       24.1176363870       22.2789907425  TIP3      5284            0.0000000000
     65684      5684  TIP3      H2              0.5375301400       24.0852253294       23.2051054189  TIP3      5284            0.0000000000
     65685      5685  TIP3      OH2            11.3867113241       27.0864201589       32.8762738051  TIP3      5285            0.0000000000
     65686      5685  TIP3      H1             11.7465238615       26.4145386201       32.2694723886  TIP3      5285            0.0000000000
     65687      5685  TIP3      H2             10.9514290419       26.5424070089       33.5598494854  TIP3      5285            0.0000000000
     65688      5686  TIP3      OH2             8.1916744189       23.0749076732       27.6997645664  TIP3      5286            0.0000000000
     65689      5686  TIP3      H1              7.2460108433       23.0402156053       27.9845088252  TIP3      5286            0.0000000000
     65690      5686  TIP3      H2              8.6788788973       22.8916973137       28.5154727018  TIP3      5286            0.0000000000
     65691      5687  TIP3      OH2             3.0058305044       24.6226795650       26.5459995978  TIP3      5287            0.0000000000
     65692      5687  TIP3      H1              2.1105013772       24.7384869546       26.1696493901  TIP3      5287            0.0000000000
     65693      5687  TIP3      H2              3.3000606638       23.7812273469       26.1597889967  TIP3      5287            0.0000000000
     65694      5688  TIP3      OH2             6.6419830660       24.6782571195       24.2243655467  TIP3      5288            0.0000000000
     65695      5688  TIP3      H1              7.6006717622       24.7403382434       24.3354386841  TIP3      5288            0.0000000000
     65696      5688  TIP3      H2              6.4196502314       25.2911966621       23.5087604631  TIP3      5288            0.0000000000
     65697      5689  TIP3      OH2            12.6015757811       22.2598311120       30.9373772788  TIP3      5289            0.0000000000
     65698      5689  TIP3      H1             11.9079960802       22.3523286256       31.6295042988  TIP3      5289            0.0000000000
     65699      5689  TIP3      H2             12.0925292459       22.0566859994       30.1430391979  TIP3      5289            0.0000000000
     65700      5690  TIP3      OH2             5.3432050361       25.8447226964       21.7450050761  TIP3      5290            0.0000000000
     65701      5690  TIP3      H1              4.7992634193       25.4487746270       21.0532764250  TIP3      5290            0.0000000000
     65702      5690  TIP3      H2              6.1699241672       26.0072043013       21.2935300828  TIP3      5290            0.0000000000
     65703      5691  TIP3      OH2            15.8365641926       37.9195330898       37.2649237489  TIP3      5291            0.0000000000
     65704      5691  TIP3      H1             16.0694949538       38.3208406456       36.4050003326  TIP3      5291            0.0000000000
     65705      5691  TIP3      H2             16.5364881608       38.2620229038       37.8460249785  TIP3      5291            0.0000000000
     65706      5692  TIP3      OH2             3.4820236992       30.3822455016       36.8219864200  TIP3      5292            0.0000000000
     65707      5692  TIP3      H1              4.1962294604       30.6353124645       37.4260179280  TIP3      5292            0.0000000000
     65708      5692  TIP3      H2              2.6886123650       30.5501700267       37.3814190724  TIP3      5292            0.0000000000
     65709      5693  TIP3      OH2             9.7675191030       25.6824726830       30.0149759936  TIP3      5293            0.0000000000
     65710      5693  TIP3      H1             10.0747108302       25.1893062218       29.2401546628  TIP3      5293            0.0000000000
     65711      5693  TIP3      H2              9.2323962660       25.0534212471       30.5263654351  TIP3      5293            0.0000000000
     65712      5694  TIP3      OH2             4.4906495862       21.9434561316       26.0225645780  TIP3      5294            0.0000000000
     65713      5694  TIP3      H1              4.1879085576       21.0216327780       25.9717634832  TIP3      5294            0.0000000000
     65714      5694  TIP3      H2              5.2793857675       21.9197628598       25.4492796555  TIP3      5294            0.0000000000
     65715      5695  TIP3      OH2             8.1259681917       24.1658578887       31.9700399020  TIP3      5295            0.0000000000
     65716      5695  TIP3      H1              7.2802013496       24.6384883859       32.1111987073  TIP3      5295            0.0000000000
     65717      5695  TIP3      H2              8.6565059060       24.4642600705       32.7442617053  TIP3      5295            0.0000000000
     65718      5696  TIP3      OH2             8.7013778055       30.3850069001       23.6706672195  TIP3      5296            0.0000000000
     65719      5696  TIP3      H1              7.9110505358       29.8841117712       23.3611713041  TIP3      5296            0.0000000000
     65720      5696  TIP3      H2              8.5129733412       30.4636152186       24.6246903605  TIP3      5296            0.0000000000
     65721      5697  TIP3      OH2            15.8482752790       29.5309847148       32.4874540205  TIP3      5297            0.0000000000
     65722      5697  TIP3      H1             16.4530165513       30.0054972316       31.8934927032  TIP3      5297            0.0000000000
     65723      5697  TIP3      H2             14.9996561753       29.6304409832       32.0064557971  TIP3      5297            0.0000000000
     65724      5698  TIP3      OH2            10.1776394812       30.5806442246       34.9165321965  TIP3      5298            0.0000000000
     65725      5698  TIP3      H1              9.8463499732       30.2031348036       35.7337187864  TIP3      5298            0.0000000000
     65726      5698  TIP3      H2              9.9814628618       31.5255254809       35.0056062216  TIP3      5298            0.0000000000
     65727      5699  TIP3      OH2            13.2742920288       25.0717537333       23.5579421329  TIP3      5299            0.0000000000
     65728      5699  TIP3      H1             14.1782378247       24.9418121559       23.8765333931  TIP3      5299            0.0000000000
     65729      5699  TIP3      H2             13.3314615619       25.8564108461       22.9907552944  TIP3      5299            0.0000000000
     65730      5700  TIP3      OH2             3.7938166458       29.7178541062       29.4735547934  TIP3      5300            0.0000000000
     65731      5700  TIP3      H1              4.5206265253       29.6809944199       28.8256310854  TIP3      5300            0.0000000000
     65732      5700  TIP3      H2              3.8732156226       28.8669014589       29.9367431979  TIP3      5300            0.0000000000
     65733      5701  TIP3      OH2             0.7956696667       28.1606672680       34.7563026690  TIP3      5301            0.0000000000
     65734      5701  TIP3      H1              1.0084881115       27.7201543999       35.6033595739  TIP3      5301            0.0000000000
     65735      5701  TIP3      H2              0.1882998215       27.5316028052       34.3307778082  TIP3      5301            0.0000000000
     65736      5702  TIP3      OH2             7.8121663234       27.6918466411       36.9676476213  TIP3      5302            0.0000000000
     65737      5702  TIP3      H1              7.5148241313       27.4653661029       36.0761455412  TIP3      5302            0.0000000000
     65738      5702  TIP3      H2              8.7530325622       27.4245218577       36.9510141175  TIP3      5302            0.0000000000
     65739      5703  TIP3      OH2            12.4670674614       32.7494364990       34.9342067556  TIP3      5303            0.0000000000
     65740      5703  TIP3      H1             11.6313462774       33.2281185284       34.6233325343  TIP3      5303            0.0000000000
     65741      5703  TIP3      H2             12.4767357592       33.3111900375       35.7541313641  TIP3      5303            0.0000000000
     65742      5704  TIP3      OH2            18.2399242009       25.2394130525       23.2442906548  TIP3      5304            0.0000000000
     65743      5704  TIP3      H1             17.5896568679       24.9177313075       22.5817049747  TIP3      5304            0.0000000000
     65744      5704  TIP3      H2             18.2385202210       26.1947553614       22.9789331287  TIP3      5304            0.0000000000
     65745      5705  TIP3      OH2            18.1526887316       31.0810847172       36.0906030563  TIP3      5305            0.0000000000
     65746      5705  TIP3      H1             17.2706788445       31.3169957137       35.7061455262  TIP3      5305            0.0000000000
     65747      5705  TIP3      H2             18.7191308791       31.0625956656       35.2962963399  TIP3      5305            0.0000000000
     65748      5706  TIP3      OH2            16.4845479967       34.0712910474       23.6961636345  TIP3      5306            0.0000000000
     65749      5706  TIP3      H1             16.0795100869       33.2522724394       24.0005244546  TIP3      5306            0.0000000000
     65750      5706  TIP3      H2             16.7290155548       33.8856199226       22.7783718887  TIP3      5306            0.0000000000
     65751      5707  TIP3      OH2            13.6425605024       28.8844608021       30.7397786695  TIP3      5307            0.0000000000
     65752      5707  TIP3      H1             12.7036476227       28.6527425668       30.6907869654  TIP3      5307            0.0000000000
     65753      5707  TIP3      H2             14.0869783707       28.0989854284       30.3728297764  TIP3      5307            0.0000000000
     65754      5708  TIP3      OH2             6.1683052612       33.2021418019       26.8769451098  TIP3      5308            0.0000000000
     65755      5708  TIP3      H1              6.6937467283       33.9895690912       26.6521778795  TIP3      5308            0.0000000000
     65756      5708  TIP3      H2              5.2916649572       33.4382709148       26.5471926507  TIP3      5308            0.0000000000
     65757      5709  TIP3      OH2             1.9150226675       27.9997822741       21.5053328283  TIP3      5309            0.0000000000
     65758      5709  TIP3      H1              2.5479250724       28.7020016558       21.7975936274  TIP3      5309            0.0000000000
     65759      5709  TIP3      H2              1.1121390951       28.4400151076       21.7164536778  TIP3      5309            0.0000000000
     65760      5710  TIP3      OH2             7.6166594722       30.8552074891       26.4164398070  TIP3      5310            0.0000000000
     65761      5710  TIP3      H1              7.3303281801       31.7917350401       26.4789692816  TIP3      5310            0.0000000000
     65762      5710  TIP3      H2              6.8481868491       30.4118303237       26.8252549691  TIP3      5310            0.0000000000
     65763      5711  TIP3      OH2             8.0600873248       35.0325282655       32.7642444831  TIP3      5311            0.0000000000
     65764      5711  TIP3      H1              8.4976051830       35.8659337844       32.5178432065  TIP3      5311            0.0000000000
     65765      5711  TIP3      H2              8.6624203001       34.7239518578       33.4756141080  TIP3      5311            0.0000000000
     65766      5712  TIP3      OH2             6.2880256056       35.8727787551       25.9661913116  TIP3      5312            0.0000000000
     65767      5712  TIP3      H1              5.3201884542       35.9918137433       26.0529257446  TIP3      5312            0.0000000000
     65768      5712  TIP3      H2              6.6352207960       36.7151195535       26.3088944893  TIP3      5312            0.0000000000
     65769      5713  TIP3      OH2            11.6158987902       31.0819571871       32.4179440133  TIP3      5313            0.0000000000
     65770      5713  TIP3      H1             11.2388081613       30.8936724516       33.3014451361  TIP3      5313            0.0000000000
     65771      5713  TIP3      H2             12.2376892254       30.3618523426       32.2646601620  TIP3      5313            0.0000000000
     65772      5714  TIP3      OH2            13.8421021488       32.0442941225       21.5260721972  TIP3      5314            0.0000000000
     65773      5714  TIP3      H1             14.2104024106       31.6562989750       22.3318157543  TIP3      5314            0.0000000000
     65774      5714  TIP3      H2             12.9154505294       31.9525344240       21.6242995264  TIP3      5314            0.0000000000
     65775      5715  TIP3      OH2            14.5099994953       35.6269365359       34.9119904995  TIP3      5315            0.0000000000
     65776      5715  TIP3      H1             13.7262268614       35.1670074178       34.4833344249  TIP3      5315            0.0000000000
     65777      5715  TIP3      H2             14.5823758949       36.3532980278       34.2662928564  TIP3      5315            0.0000000000
     65778      5716  TIP3      OH2            18.3822034993       36.5073872758       21.7247580331  TIP3      5316            0.0000000000
     65779      5716  TIP3      H1             19.0964748457       37.1284611293       21.5760617588  TIP3      5316            0.0000000000
     65780      5716  TIP3      H2             17.6620790095       37.0876929027       22.0485742496  TIP3      5316            0.0000000000
     65781      5717  TIP3      OH2             2.4490952739       22.8997978725       34.3102168967  TIP3      5317            0.0000000000
     65782      5717  TIP3      H1              1.5385206078       23.2412847349       34.2652322048  TIP3      5317            0.0000000000
     65783      5717  TIP3      H2              2.3348074357       22.0432337448       34.7511127449  TIP3      5317            0.0000000000
     65784      5718  TIP3      OH2            14.7012583292       30.7204775220       23.7494439692  TIP3      5318            0.0000000000
     65785      5718  TIP3      H1             14.4591320267       29.9642908822       24.3085776241  TIP3      5318            0.0000000000
     65786      5718  TIP3      H2             15.6467538158       30.8252679573       23.9517575175  TIP3      5318            0.0000000000
     65787      5719  TIP3      OH2             2.0830512915       34.7006942809       32.7390267852  TIP3      5319            0.0000000000
     65788      5719  TIP3      H1              2.3276087556       33.7611214570       32.7341653051  TIP3      5319            0.0000000000
     65789      5719  TIP3      H2              2.3328201870       34.9704706124       33.6319662115  TIP3      5319            0.0000000000
     65790      5720  TIP3      OH2             6.7943405350       32.7291896429       22.4950909430  TIP3      5320            0.0000000000
     65791      5720  TIP3      H1              7.0369629877       32.2143983866       23.2573771381  TIP3      5320            0.0000000000
     65792      5720  TIP3      H2              6.8684536502       33.6683555475       22.7501851083  TIP3      5320            0.0000000000
     65793      5721  TIP3      OH2             3.3420974501       29.9545445591       22.9320802434  TIP3      5321            0.0000000000
     65794      5721  TIP3      H1              2.6564783952       30.3561756901       23.4980416963  TIP3      5321            0.0000000000
     65795      5721  TIP3      H2              3.8491632682       30.7551238710       22.6683958432  TIP3      5321            0.0000000000
     65796      5722  TIP3      OH2            11.1729600772       22.6567997628       33.2242986716  TIP3      5322            0.0000000000
     65797      5722  TIP3      H1             11.8792393918       22.7161725918       33.8794146393  TIP3      5322            0.0000000000
     65798      5722  TIP3      H2             10.7917097109       21.7744973440       33.4044197770  TIP3      5322            0.0000000000
     65799      5723  TIP3      OH2            11.9777339607       22.2521788854       24.3148338503  TIP3      5323            0.0000000000
     65800      5723  TIP3      H1             12.1521190786       22.7745046106       23.5133040213  TIP3      5323            0.0000000000
     65801      5723  TIP3      H2             12.5209132051       22.6893185064       24.9783540837  TIP3      5323            0.0000000000
     65802      5724  TIP3      OH2             9.6104804719       34.3962307944       23.1473507878  TIP3      5324            0.0000000000
     65803      5724  TIP3      H1              8.7971040483       34.9300388721       23.2342545592  TIP3      5324            0.0000000000
     65804      5724  TIP3      H2             10.1540543482       34.9179598657       22.5509061734  TIP3      5324            0.0000000000
     65805      5725  TIP3      OH2             9.1345607203       24.0484183522       25.1687973134  TIP3      5325            0.0000000000
     65806      5725  TIP3      H1              9.9768327722       24.5304378265       25.1722666716  TIP3      5325            0.0000000000
     65807      5725  TIP3      H2              8.8970169600       23.8436560849       26.0760219361  TIP3      5325            0.0000000000
     65808      5726  TIP3      OH2             9.6955465106       25.0054500073       34.3397052285  TIP3      5326            0.0000000000
     65809      5726  TIP3      H1              9.7986745776       25.5835420620       35.1185387808  TIP3      5326            0.0000000000
     65810      5726  TIP3      H2             10.3584005393       24.3134379823       34.4468946955  TIP3      5326            0.0000000000
     65811      5727  TIP3      OH2            10.0329243033       21.0757547879       26.0920177959  TIP3      5327            0.0000000000
     65812      5727  TIP3      H1              9.6896541688       21.7185454115       26.7286333278  TIP3      5327            0.0000000000
     65813      5727  TIP3      H2             10.6972734469       21.6074201834       25.5858043922  TIP3      5327            0.0000000000
     65814      5728  TIP3      OH2             6.9911737895       35.4462942168       23.1768977633  TIP3      5328            0.0000000000
     65815      5728  TIP3      H1              7.1241317660       36.2692542562       22.6511766736  TIP3      5328            0.0000000000
     65816      5728  TIP3      H2              6.7454626599       35.7898253361       24.0546165290  TIP3      5328            0.0000000000
     65817      5729  TIP3      OH2            15.9082235163       22.8966343390       35.1847032845  TIP3      5329            0.0000000000
     65818      5729  TIP3      H1             14.9673876552       23.1849132109       35.0695931410  TIP3      5329            0.0000000000
     65819      5729  TIP3      H2             16.2137650552       22.8924623384       34.2608577966  TIP3      5329            0.0000000000
     65820      5730  TIP3      OH2            14.4916549544       26.6717474916       29.2376057235  TIP3      5330            0.0000000000
     65821      5730  TIP3      H1             13.6897631345       26.2302199135       28.9351719648  TIP3      5330            0.0000000000
     65822      5730  TIP3      H2             14.9671495384       25.9694927482       29.7487546065  TIP3      5330            0.0000000000
     65823      5731  TIP3      OH2             3.9491212753       32.5930525291       21.8721935164  TIP3      5331            0.0000000000
     65824      5731  TIP3      H1              4.5727935760       33.2829025086       22.0940348831  TIP3      5331            0.0000000000
     65825      5731  TIP3      H2              4.3863288441       32.1555779356       21.1053138628  TIP3      5331            0.0000000000
     65826      5732  TIP3      OH2             2.2435319098       25.2304409971       20.9421553242  TIP3      5332            0.0000000000
     65827      5732  TIP3      H1              2.2559384519       26.2058726343       21.1214427186  TIP3      5332            0.0000000000
     65828      5732  TIP3      H2              1.3684530813       25.0511571164       20.6445979585  TIP3      5332            0.0000000000
     65829      5733  TIP3      OH2            15.5791775211       35.9128468498       30.8826532766  TIP3      5333            0.0000000000
     65830      5733  TIP3      H1             15.4362076137       36.6049797631       30.2136481153  TIP3      5333            0.0000000000
     65831      5733  TIP3      H2             16.5312974662       35.9881739895       31.0753447359  TIP3      5333            0.0000000000
     65832      5734  TIP3      OH2             3.0757110407       20.0503805069       29.6522049725  TIP3      5334            0.0000000000
     65833      5734  TIP3      H1              2.8489898462       20.0851872735       28.6966557587  TIP3      5334            0.0000000000
     65834      5734  TIP3      H2              2.6329299296       19.2237640352       29.9299128759  TIP3      5334            0.0000000000
     65835      5735  TIP3      OH2             2.0073890389       33.9726618656       25.8008265304  TIP3      5335            0.0000000000
     65836      5735  TIP3      H1              1.1669413625       34.4447106340       25.8063202274  TIP3      5335            0.0000000000
     65837      5735  TIP3      H2              2.5345573443       34.4712644869       25.1649925198  TIP3      5335            0.0000000000
     65838      5736  TIP3      OH2             1.2709848894       36.6060201917       37.1097776327  TIP3      5336            0.0000000000
     65839      5736  TIP3      H1              1.8305033231       36.3892598828       37.8749418030  TIP3      5336            0.0000000000
     65840      5736  TIP3      H2              0.8110693467       35.7694383388       36.9314914408  TIP3      5336            0.0000000000
     65841      5737  TIP3      OH2             5.8835439480       35.4880112722       38.7711081931  TIP3      5337            0.0000000000
     65842      5737  TIP3      H1              6.7075407076       35.0517635500       39.0228672372  TIP3      5337            0.0000000000
     65843      5737  TIP3      H2              5.8767751814       35.2863404708       37.7944682153  TIP3      5337            0.0000000000
     65844      5738  TIP3      OH2            12.4381575393       33.9068317907       37.4835946868  TIP3      5338            0.0000000000
     65845      5738  TIP3      H1             12.1086345914       33.0207026376       37.7163377003  TIP3      5338            0.0000000000
     65846      5738  TIP3      H2             13.2007874398       34.0328977105       38.0645111688  TIP3      5338            0.0000000000
     65847      5739  TIP3      OH2             1.1768217495       30.3983578086       38.0890653129  TIP3      5339            0.0000000000
     65848      5739  TIP3      H1              1.3337475696       29.4872438094       37.7766166476  TIP3      5339            0.0000000000
     65849      5739  TIP3      H2              0.4156769653       30.6764015015       37.5532575854  TIP3      5339            0.0000000000
     65850      5740  TIP3      OH2             5.5529355983       30.7440485300       20.2150765481  TIP3      5340            0.0000000000
     65851      5740  TIP3      H1              5.6071034620       29.9301043292       20.7155313748  TIP3      5340            0.0000000000
     65852      5740  TIP3      H2              6.1954063957       30.6166857037       19.5027342196  TIP3      5340            0.0000000000
     65853      5741  TIP3      OH2             7.8617836073       30.3778006029       37.4932704376  TIP3      5341            0.0000000000
     65854      5741  TIP3      H1              7.5194813637       30.6638234057       36.6278097673  TIP3      5341            0.0000000000
     65855      5741  TIP3      H2              7.9804716332       29.4078881984       37.3968008966  TIP3      5341            0.0000000000
     65856      5742  TIP3      OH2            13.5769081189       30.2441982289       34.8843550618  TIP3      5342            0.0000000000
     65857      5742  TIP3      H1             14.3296416209       30.8706757914       34.7855193781  TIP3      5342            0.0000000000
     65858      5742  TIP3      H2             12.8448720891       30.8931677466       34.9363459444  TIP3      5342            0.0000000000
     65859      5743  TIP3      OH2             2.0440197136       27.6167843425       37.4868911481  TIP3      5343            0.0000000000
     65860      5743  TIP3      H1              2.4513502532       26.7487438083       37.3820295086  TIP3      5343            0.0000000000
     65861      5743  TIP3      H2              1.7922040814       27.6199053230       38.4285250224  TIP3      5343            0.0000000000
     65862      5744  TIP3      OH2             6.7231101532       28.7361674577       22.5213449397  TIP3      5344            0.0000000000
     65863      5744  TIP3      H1              6.2154878375       28.2352909266       23.1872009113  TIP3      5344            0.0000000000
     65864      5744  TIP3      H2              6.9467531965       28.0556899361       21.8673522650  TIP3      5344            0.0000000000
     65865      5745  TIP3      OH2             5.9723421839       26.5866926343       34.8609942298  TIP3      5345            0.0000000000
     65866      5745  TIP3      H1              5.3577772706       27.2916044994       35.1285913024  TIP3      5345            0.0000000000
     65867      5745  TIP3      H2              6.3340392334       26.9378514368       34.0291525903  TIP3      5345            0.0000000000
     65868      5746  TIP3      OH2            11.0101579186       29.1079330367       38.1793416989  TIP3      5346            0.0000000000
     65869      5746  TIP3      H1             11.9701608584       29.1463950197       38.0985926805  TIP3      5346            0.0000000000
     65870      5746  TIP3      H2             10.8471761593       28.3619237575       38.7718063254  TIP3      5346            0.0000000000
     65871      5747  TIP3      OH2             6.3424573797       23.9597079187       35.9331190122  TIP3      5347            0.0000000000
     65872      5747  TIP3      H1              6.4701215329       23.2290997623       35.3073464464  TIP3      5347            0.0000000000
     65873      5747  TIP3      H2              6.3198440261       24.7557470252       35.3669989566  TIP3      5347            0.0000000000
     65874      5748  TIP3      OH2             6.7498953300       22.3302842201       33.4538660654  TIP3      5348            0.0000000000
     65875      5748  TIP3      H1              7.2750149072       22.7909600586       32.7619194051  TIP3      5348            0.0000000000
     65876      5748  TIP3      H2              5.8702280304       22.2376817444       33.0205055289  TIP3      5348            0.0000000000
     65877      5749  TIP3      OH2             8.3045158145       27.7785279136       33.6810302761  TIP3      5349            0.0000000000
     65878      5749  TIP3      H1              9.0692261527       27.6312445993       33.1166405312  TIP3      5349            0.0000000000
     65879      5749  TIP3      H2              7.9631627034       28.6409964031       33.3944193356  TIP3      5349            0.0000000000
     65880      5750  TIP3      OH2            12.7140073673       25.5801128244       38.6904535108  TIP3      5350            0.0000000000
     65881      5750  TIP3      H1             12.9260547864       24.6406645857       38.5898188133  TIP3      5350            0.0000000000
     65882      5750  TIP3      H2             13.5865799600       26.0043349182       38.6846957864  TIP3      5350            0.0000000000
     65883      5751  TIP3      OH2            14.0386425411       28.3629860068       36.8185842776  TIP3      5351            0.0000000000
     65884      5751  TIP3      H1             13.7789280954       29.0890512049       36.2025914603  TIP3      5351            0.0000000000
     65885      5751  TIP3      H2             14.9983437218       28.3182323028       36.6205394937  TIP3      5351            0.0000000000
     65886      5752  TIP3      OH2             4.8133797749       25.1852179654       37.8612011917  TIP3      5352            0.0000000000
     65887      5752  TIP3      H1              4.0374737275       24.6244481033       37.6412837044  TIP3      5352            0.0000000000
     65888      5752  TIP3      H2              5.4738822426       24.8422117188       37.2284234807  TIP3      5352            0.0000000000
     65889      5753  TIP3      OH2             7.5477922606       19.7677283370       33.8767229438  TIP3      5353            0.0000000000
     65890      5753  TIP3      H1              7.4121697619       20.7383405282       33.7588028727  TIP3      5353            0.0000000000
     65891      5753  TIP3      H2              6.7919477661       19.4148164727       33.3728096217  TIP3      5353            0.0000000000
     65892      5754  TIP3      OH2             8.8179802078       24.0988834649       37.4493865281  TIP3      5354            0.0000000000
     65893      5754  TIP3      H1              8.5390913128       23.8819379999       38.3568801984  TIP3      5354            0.0000000000
     65894      5754  TIP3      H2              8.0199461880       23.9031236917       36.9203700230  TIP3      5354            0.0000000000
     65895      5755  TIP3      OH2            11.5324685483       23.2349015318       36.5149338439  TIP3      5355            0.0000000000
     65896      5755  TIP3      H1             10.5698072166       23.2773564603       36.6538195491  TIP3      5355            0.0000000000
     65897      5755  TIP3      H2             11.8218513888       22.6056697618       37.1957281897  TIP3      5355            0.0000000000
     65898      5756  TIP3      OH2            13.1349932277       21.8710946647       38.4881707988  TIP3      5356            0.0000000000
     65899      5756  TIP3      H1             13.0636403296       20.9002136960       38.5033000731  TIP3      5356            0.0000000000
     65900      5756  TIP3      H2             12.8401785056       22.1509857042       39.3847920918  TIP3      5356            0.0000000000
     65901      5757  TIP3      OH2             2.9476535760       23.1125587613       37.5637806930  TIP3      5357            0.0000000000
     65902      5757  TIP3      H1              3.1779715005       22.3796805236       36.9602852215  TIP3      5357            0.0000000000
     65903      5757  TIP3      H2              2.8523168214       22.6582324085       38.4250986837  TIP3      5357            0.0000000000
     65904      5758  TIP3      OH2             7.7564566041       19.1164388973       36.5539497310  TIP3      5358            0.0000000000
     65905      5758  TIP3      H1              8.4676273062       18.4408223378       36.5212815964  TIP3      5358            0.0000000000
     65906      5758  TIP3      H2              7.6608688183       19.3312730874       35.6070904930  TIP3      5358            0.0000000000
     65907      5759  TIP3      OH2             8.1204782669       20.7653907900       38.6210229012  TIP3      5359            0.0000000000
     65908      5759  TIP3      H1              7.9709890014       20.2726596902       37.7772846296  TIP3      5359            0.0000000000
     65909      5759  TIP3      H2              7.5195316633       21.5272240859       38.5348492141  TIP3      5359            0.0000000000
     65910      5760  TIP3      OH2             7.6423714273       37.6628517190       21.8026025945  TIP3      5360            0.0000000000
     65911      5760  TIP3      H1              8.5932999537       37.8029516311       21.9070087067  TIP3      5360            0.0000000000
     65912      5760  TIP3      H2              7.3891630085       38.3052800018       21.1257152065  TIP3      5360            0.0000000000
     65913      5761  TIP3      OH2            -0.0860443391       37.6680741447       26.2994564407  TIP3      5361            0.0000000000
     65914      5761  TIP3      H1             -0.7818316482       37.1915610972       25.7963154420  TIP3      5361            0.0000000000
     65915      5761  TIP3      H2              0.2193521597       36.9961235312       26.9312339730  TIP3      5361            0.0000000000
     65916      5762  TIP3      OH2             0.7524270211       35.7665648632       28.1315373230  TIP3      5362            0.0000000000
     65917      5762  TIP3      H1              0.4081464000       34.8828905820       28.3225401335  TIP3      5362            0.0000000000
     65918      5762  TIP3      H2              0.9770519157       36.1039447703       29.0167703775  TIP3      5362            0.0000000000
     65919      5763  TIP3      OH2            18.2811614361       36.5916027743       31.0925914332  TIP3      5363            0.0000000000
     65920      5763  TIP3      H1             18.2867478581       36.7345511958       32.0559354273  TIP3      5363            0.0000000000
     65921      5763  TIP3      H2             19.0043026229       37.1256392459       30.7762740817  TIP3      5363            0.0000000000
     65922      5764  TIP3      OH2            17.8717874607       36.1712803640       34.0215995939  TIP3      5364            0.0000000000
     65923      5764  TIP3      H1             17.3707126056       35.3966271953       33.6662334600  TIP3      5364            0.0000000000
     65924      5764  TIP3      H2             18.3870963405       35.7309697419       34.7210990079  TIP3      5364            0.0000000000
     65925      5765  TIP3      OH2            16.3141641539       31.8948764317       38.6722526654  TIP3      5365            0.0000000000
     65926      5765  TIP3      H1             15.4303023622       31.8433989435       39.0755447845  TIP3      5365            0.0000000000
     65927      5765  TIP3      H2             16.6832671809       32.6922507375       39.1190282393  TIP3      5365            0.0000000000
     65928      5766  TIP3      OH2            17.6415467088       30.1654439112       24.1408407178  TIP3      5366            0.0000000000
     65929      5766  TIP3      H1             18.4522057493       30.6333075869       24.3494280022  TIP3      5366            0.0000000000
     65930      5766  TIP3      H2             17.6026208232       29.4616380256       24.8267128338  TIP3      5366            0.0000000000
     65931      5767  TIP3      OH2            18.0184406580       28.2535300569       25.9856775944  TIP3      5367            0.0000000000
     65932      5767  TIP3      H1             17.2571381209       27.7774516527       26.4049142111  TIP3      5367            0.0000000000
     65933      5767  TIP3      H2             18.5784125447       28.4425325365       26.7707427021  TIP3      5367            0.0000000000
     65934      5768  TIP3      OH2            17.7475822053       31.0009006309       30.9806740148  TIP3      5368            0.0000000000
     65935      5768  TIP3      H1             18.5885925834       30.6354911863       30.6498502848  TIP3      5368            0.0000000000
     65936      5768  TIP3      H2             17.8848067747       31.9621825803       30.8304015371  TIP3      5368            0.0000000000
     65937      5769  TIP3      OH2            16.2825436255       33.8969356322       33.2772087984  TIP3      5369            0.0000000000
     65938      5769  TIP3      H1             15.5926071714       34.2364991749       33.8790099900  TIP3      5369            0.0000000000
     65939      5769  TIP3      H2             15.7286552174       33.4774753921       32.5819717774  TIP3      5369            0.0000000000
     65940      5770  TIP3      OH2            18.3128607114       28.1387908837       22.3879171320  TIP3      5370            0.0000000000
     65941      5770  TIP3      H1             17.7281172442       28.5037104072       21.6977901210  TIP3      5370            0.0000000000
     65942      5770  TIP3      H2             18.1805857768       28.8271388293       23.0726376886  TIP3      5370            0.0000000000
     65943      5771  TIP3      OH2            16.6944113268       25.3465297241       20.9355140082  TIP3      5371            0.0000000000
     65944      5771  TIP3      H1             16.6855213010       26.0478557547       20.2896594563  TIP3      5371            0.0000000000
     65945      5771  TIP3      H2             16.4415832561       24.5524222225       20.4671985814  TIP3      5371            0.0000000000
     65946      5772  TIP3      OH2            15.8165120580       26.7606959671       26.5772362136  TIP3      5372            0.0000000000
     65947      5772  TIP3      H1             15.6422686035       25.8077670190       26.5553432421  TIP3      5372            0.0000000000
     65948      5772  TIP3      H2             15.4428223398       27.0232645264       27.4376883491  TIP3      5372            0.0000000000
     65949      5773  TIP3      OH2             0.8120089475       28.8473507403       30.6146330441  TIP3      5373            0.0000000000
     65950      5773  TIP3      H1              1.0104654211       28.7616318725       29.6559627025  TIP3      5373            0.0000000000
     65951      5773  TIP3      H2              1.6963681079       28.6983130214       31.0003789258  TIP3      5373            0.0000000000
     65952      5774  TIP3      OH2            16.6469452063       28.7288383711       36.2428310678  TIP3      5374            0.0000000000
     65953      5774  TIP3      H1             17.2567410639       27.9818846668       36.4020619193  TIP3      5374            0.0000000000
     65954      5774  TIP3      H2             17.2331771271       29.5124410959       36.2598370246  TIP3      5374            0.0000000000
     65955      5775  TIP3      OH2            18.1556397601       26.6357442276       36.9173008439  TIP3      5375            0.0000000000
     65956      5775  TIP3      H1             17.2796271615       26.2328078687       36.7386278285  TIP3      5375            0.0000000000
     65957      5775  TIP3      H2             18.7452237469       25.8701746522       36.8286991858  TIP3      5375            0.0000000000
     65958      5776  TIP3      OH2            15.4895546796       24.3530859063       25.0385405240  TIP3      5376            0.0000000000
     65959      5776  TIP3      H1             15.7727634900       23.4175101694       25.1680172117  TIP3      5376            0.0000000000
     65960      5776  TIP3      H2             16.2632158819       24.7667501108       24.6521371560  TIP3      5376            0.0000000000
     65961      5777  TIP3      OH2            16.0934162632       24.9211205818       30.4731297420  TIP3      5377            0.0000000000
     65962      5777  TIP3      H1             17.0621387797       25.1185857525       30.4479188716  TIP3      5377            0.0000000000
     65963      5777  TIP3      H2             15.8995066955       25.0271046246       31.4143648741  TIP3      5377            0.0000000000
     65964      5778  TIP3      OH2            16.1629321742       25.6347402170       33.2655001758  TIP3      5378            0.0000000000
     65965      5778  TIP3      H1             15.2911617026       25.9259446998       33.6049490692  TIP3      5378            0.0000000000
     65966      5778  TIP3      H2             16.5975683582       26.4901417246       33.0378077184  TIP3      5378            0.0000000000
     65967      5779  TIP3      OH2             0.4180263074       24.1362160203       36.7484760750  TIP3      5379            0.0000000000
     65968      5779  TIP3      H1              1.3563678718       23.9689418202       36.9693312440  TIP3      5379            0.0000000000
     65969      5779  TIP3      H2             -0.0261264859       23.3373891612       37.1039778037  TIP3      5379            0.0000000000
     65970      5780  TIP3      OH2            18.4347906389       19.6487693352       38.6021909520  TIP3      5380            0.0000000000
     65971      5780  TIP3      H1             18.7877769084       18.9896048996       37.9883303681  TIP3      5380            0.0000000000
     65972      5780  TIP3      H2             18.5696116747       20.4850117638       38.1248445114  TIP3      5380            0.0000000000
     65973      5781  TIP3      OH2            16.1360882086       21.6252539876       25.0562068281  TIP3      5381            0.0000000000
     65974      5781  TIP3      H1             16.3018348305       21.1656582632       25.9122154032  TIP3      5381            0.0000000000
     65975      5781  TIP3      H2             15.5069869544       21.0026308481       24.6206904519  TIP3      5381            0.0000000000
     65976      5782  TIP3      OH2             1.6299398427       22.4318021506       29.6218288872  TIP3      5382            0.0000000000
     65977      5782  TIP3      H1              2.0947127745       21.6218663710       29.9153869107  TIP3      5382            0.0000000000
     65978      5782  TIP3      H2              2.1362438908       23.1388616557       30.0445322068  TIP3      5382            0.0000000000
     65979      5783  TIP3      OH2            -0.0789816727       25.4203305424       30.6891090854  TIP3      5383            0.0000000000
     65980      5783  TIP3      H1              0.4630685547       25.2017576011       29.9018466249  TIP3      5383            0.0000000000
     65981      5783  TIP3      H2              0.3400184582       26.2535431284       30.9559084189  TIP3      5383            0.0000000000
     65982      5784  TIP3      OH2            17.9666723245       21.7626114658       36.9662994093  TIP3      5384            0.0000000000
     65983      5784  TIP3      H1             17.0234628372       22.0260096605       36.9116328003  TIP3      5384            0.0000000000
     65984      5784  TIP3      H2             18.0388637730       21.2212644638       36.1629968034  TIP3      5384            0.0000000000
     65985      5785  TIP3      OH2             0.2644234125       21.6859758439       24.7294806798  TIP3      5385            0.0000000000
     65986      5785  TIP3      H1             -0.6700520709       21.8867876160       24.6217325238  TIP3      5385            0.0000000000
     65987      5785  TIP3      H2              0.7246029930       22.1818719039       24.0465701496  TIP3      5385            0.0000000000
     65988      5786  TIP3      OH2            15.0139635398       36.6577259039       26.6913642123  TIP3      5386            0.0000000000
     65989      5786  TIP3      H1             15.6928584579       36.3254007226       26.0776118438  TIP3      5386            0.0000000000
     65990      5786  TIP3      H2             15.5382003001       37.1483075230       27.3389466599  TIP3      5386            0.0000000000
     65991      5787  TIP3      OH2             0.2357869639       20.3916397858       33.0715845813  TIP3      5387            0.0000000000
     65992      5787  TIP3      H1             -0.4445367722       20.1705849716       33.7306464493  TIP3      5387            0.0000000000
     65993      5787  TIP3      H2             -0.2276983159       21.0445090433       32.5046748463  TIP3      5387            0.0000000000
     65994      5788  TIP3      OH2             2.4494059803       33.5884066010       37.2350811902  TIP3      5388            0.0000000000
     65995      5788  TIP3      H1              1.6054214185       33.7682813394       36.7760280202  TIP3      5388            0.0000000000
     65996      5788  TIP3      H2              2.1594919137       33.5067920415       38.1478700998  TIP3      5388            0.0000000000
     65997      5789  TIP3      OH2             5.3646582025       34.5525317665       33.4932289940  TIP3      5389            0.0000000000
     65998      5789  TIP3      H1              4.9831994200       35.3942022056       33.2061721791  TIP3      5389            0.0000000000
     65999      5789  TIP3      H2              6.2919025594       34.6579689307       33.1839305077  TIP3      5389            0.0000000000
     66000      5790  TIP3      OH2             9.6288006567       36.0306846057       36.4750132898  TIP3      5390            0.0000000000
     66001      5790  TIP3      H1              9.8737798321       35.6221697709       37.3282681239  TIP3      5390            0.0000000000
     66002      5790  TIP3      H2             10.5360755973       36.2394348580       36.1168191447  TIP3      5390            0.0000000000
     66003      5791  TIP3      OH2            12.1127668331       37.6782227037       35.7904005058  TIP3      5391            0.0000000000
     66004      5791  TIP3      H1             12.5757780844       36.8152789675       35.5133146408  TIP3      5391            0.0000000000
     66005      5791  TIP3      H2             12.4201108959       37.7100808471       36.6861357360  TIP3      5391            0.0000000000
     66006      5792  TIP3      OH2            16.9649686378       19.8522376709       34.8062429800  TIP3      5392            0.0000000000
     66007      5792  TIP3      H1             16.1463108055       20.1648548227       34.3764735397  TIP3      5392            0.0000000000
     66008      5792  TIP3      H2             17.1707191974       19.0698467491       34.2437832834  TIP3      5392            0.0000000000
     66009      5793  TIP3      OH2             2.7889899611       37.8080894763       33.5145354138  TIP3      5393            0.0000000000
     66010      5793  TIP3      H1              2.0532602920       38.2788368149       33.0879923098  TIP3      5393            0.0000000000
     66011      5793  TIP3      H2              2.4332369260       37.5842899202       34.3870639334  TIP3      5393            0.0000000000
     66012      5794  TIP3      OH2             5.2613220868       37.3928448070       32.5679826450  TIP3      5394            0.0000000000
     66013      5794  TIP3      H1              4.3653005571       37.5071653997       32.9656176931  TIP3      5394            0.0000000000
     66014      5794  TIP3      H2              5.1878304047       37.9724651753       31.7819186651  TIP3      5394            0.0000000000
     66015      5795  TIP3      OH2             9.9325456100       37.2961181383       31.7362496542  TIP3      5395            0.0000000000
     66016      5795  TIP3      H1              9.4956125254       37.8490083358       31.0807978922  TIP3      5395            0.0000000000
     66017      5795  TIP3      H2             10.1146862433       37.9191421227       32.4707360641  TIP3      5395            0.0000000000
     66018      5796  TIP3      OH2            12.3879880479       36.3084912634       32.1449947391  TIP3      5396            0.0000000000
     66019      5796  TIP3      H1             11.4340330501       36.3528616056       32.4257209335  TIP3      5396            0.0000000000
     66020      5796  TIP3      H2             12.7248678723       37.0464297738       32.6565500435  TIP3      5396            0.0000000000
     66021      5797  TIP3      OH2            14.8966922906       37.7205896698       32.9926326746  TIP3      5397            0.0000000000
     66022      5797  TIP3      H1             14.7123472660       38.6612313580       32.7604492982  TIP3      5397            0.0000000000
     66023      5797  TIP3      H2             15.0376719323       37.3238042126       32.1158890125  TIP3      5397            0.0000000000
     66024      5798  TIP3      OH2             2.2033619872       36.4532678181       30.4340867659  TIP3      5398            0.0000000000
     66025      5798  TIP3      H1              2.1654303617       36.0049245177       31.3061631091  TIP3      5398            0.0000000000
     66026      5798  TIP3      H2              3.0259769476       36.1035583508       30.0352866010  TIP3      5398            0.0000000000
     66027      5799  TIP3      OH2             4.3162695207       35.1653387158       29.0852595701  TIP3      5399            0.0000000000
     66028      5799  TIP3      H1              4.1301290241       34.2304561523       29.2889434010  TIP3      5399            0.0000000000
     66029      5799  TIP3      H2              5.1692720484       35.2977866008       29.5584235235  TIP3      5399            0.0000000000
     66030      5800  TIP3      OH2             6.8784019852       35.6407882578       29.9470100658  TIP3      5400            0.0000000000
     66031      5800  TIP3      H1              7.0851040832       34.7285811254       29.6764259884  TIP3      5400            0.0000000000
     66032      5800  TIP3      H2              6.9501623495       35.5820671617       30.9100237186  TIP3      5400            0.0000000000
     66033      5801  TIP3      OH2            10.3715647507       21.3067779734       29.0868110945  TIP3      5401            0.0000000000
     66034      5801  TIP3      H1              9.7073826901       20.6480794474       29.3595798054  TIP3      5401            0.0000000000
     66035      5801  TIP3      H2             10.9375841994       20.7811602309       28.5032890007  TIP3      5401            0.0000000000
     66036      5802  TIP3      OH2            15.5322583248       19.3562992772       29.1936475909  TIP3      5402            0.0000000000
     66037      5802  TIP3      H1             16.1363809635       19.9613419120       28.6886279375  TIP3      5402            0.0000000000
     66038      5802  TIP3      H2             14.6493449318       19.7150290484       28.9571917962  TIP3      5402            0.0000000000
     66039      5803  TIP3      OH2            17.1395525015       20.5257768012       27.3787363372  TIP3      5403            0.0000000000
     66040      5803  TIP3      H1             17.8736834833       20.0063084418       27.0103337929  TIP3      5403            0.0000000000
     66041      5803  TIP3      H2             17.6199562776       21.3810359819       27.6107034627  TIP3      5403            0.0000000000
     66042      5804  TIP3      OH2             2.7220598976       19.9330159089       26.9330137608  TIP3      5404            0.0000000000
     66043      5804  TIP3      H1              1.9302835486       19.6945743365       26.4153625226  TIP3      5404            0.0000000000
     66044      5804  TIP3      H2              3.2263061449       19.0981724770       26.9032680029  TIP3      5404            0.0000000000
     66045      5805  TIP3      OH2             1.5117042103       19.6896046179       22.6946897917  TIP3      5405            0.0000000000
     66046      5805  TIP3      H1              1.9823254551       20.3239101716       22.1375097140  TIP3      5405            0.0000000000
     66047      5805  TIP3      H2              0.9216500567       20.2544857668       23.2156139157  TIP3      5405            0.0000000000
     66048      5806  TIP3      OH2             7.2576547534       19.8391456766       26.7238473225  TIP3      5406            0.0000000000
     66049      5806  TIP3      H1              8.1491421530       20.2308127985       26.6890824821  TIP3      5406            0.0000000000
     66050      5806  TIP3      H2              7.1664285171       19.6355887390       27.6543843008  TIP3      5406            0.0000000000
     66051      5807  TIP3      OH2            12.8757200122       19.8787892796       28.3715072471  TIP3      5407            0.0000000000
     66052      5807  TIP3      H1             12.9056182096       19.9699979904       27.4128251073  TIP3      5407            0.0000000000
     66053      5807  TIP3      H2             12.5539134369       18.9570790744       28.4973477448  TIP3      5407            0.0000000000
     66054      5808  TIP3      OH2            14.1961033628       19.9113731525       24.0468896322  TIP3      5408            0.0000000000
     66055      5808  TIP3      H1             13.4710639922       20.5217444591       23.8725396944  TIP3      5408            0.0000000000
     66056      5808  TIP3      H2             13.7531586858       19.0490839719       24.2120625375  TIP3      5408            0.0000000000
     66057      5809  TIP3      OH2             1.4590357044       35.6705508974       23.6311583835  TIP3      5409            0.0000000000
     66058      5809  TIP3      H1              0.7613735670       35.6118396134       22.9580922122  TIP3      5409            0.0000000000
     66059      5809  TIP3      H2              1.4237552972       36.5873538700       23.8955325107  TIP3      5409            0.0000000000
     66060      5810  TIP3      OH2             8.4409582755       21.8898357520       23.5959828560  TIP3      5410            0.0000000000
     66061      5810  TIP3      H1              8.6139635094       21.2893673613       24.3125271791  TIP3      5410            0.0000000000
     66062      5810  TIP3      H2              8.3958892652       22.7500981884       24.0483568338  TIP3      5410            0.0000000000
     66063      5811  TIP3      OH2            10.3190158438       36.8765276803       22.0149504396  TIP3      5411            0.0000000000
     66064      5811  TIP3      H1             11.1950422284       37.2311484464       21.8257752335  TIP3      5411            0.0000000000
     66065      5811  TIP3      H2             10.0651393920       36.4400393676       21.1950946016  TIP3      5411            0.0000000000
     66066      5812  TIP3      OH2            17.0171358614       36.4559003731       24.7199109089  TIP3      5412            0.0000000000
     66067      5812  TIP3      H1             16.8147410846       35.6772264324       24.1337083913  TIP3      5412            0.0000000000
     66068      5812  TIP3      H2             16.9548438179       37.1928269167       24.0859476876  TIP3      5412            0.0000000000
     66069      5813  TIP3      OH2             2.6396427691       20.4557216000       36.4086865219  TIP3      5413            0.0000000000
     66070      5813  TIP3      H1              2.2832196114       19.6643612843       36.8564491964  TIP3      5413            0.0000000000
     66071      5813  TIP3      H2              3.5692953209       20.4450505465       36.7454670493  TIP3      5413            0.0000000000
     66072      5814  TIP3      OH2             4.6412413092       19.8302741695       38.0008034221  TIP3      5414            0.0000000000
     66073      5814  TIP3      H1              5.5371943464       19.4987188487       37.7876917352  TIP3      5414            0.0000000000
     66074      5814  TIP3      H2              4.2584508383       19.0403275659       38.4377424632  TIP3      5414            0.0000000000
     66075      5815  TIP3      OH2            13.0445857010       19.1348038202       38.1645440027  TIP3      5415            0.0000000000
     66076      5815  TIP3      H1             13.1428149461       18.6736660498       39.0195220900  TIP3      5415            0.0000000000
     66077      5815  TIP3      H2             13.9607867943       19.1214476004       37.8194026054  TIP3      5415            0.0000000000
     66078      5816  TIP3      OH2            16.2518607423       35.1740026354       36.8579042368  TIP3      5416            0.0000000000
     66079      5816  TIP3      H1             15.4443807374       35.0278317388       36.3029691471  TIP3      5416            0.0000000000
     66080      5816  TIP3      H2             16.1454596908       36.1298126860       37.0486199909  TIP3      5416            0.0000000000
     66081      5817  TIP3      OH2            30.6551851513       29.0591223076       26.8644735563  TIP3      5417            0.0000000000
     66082      5817  TIP3      H1             30.7089060323       30.0317678996       26.7485651143  TIP3      5417            0.0000000000
     66083      5817  TIP3      H2             29.9919789812       28.8225689832       26.2038867656  TIP3      5417            0.0000000000
     66084      5818  TIP3      OH2            29.5498435058       28.3307299545       30.3042590371  TIP3      5418            0.0000000000
     66085      5818  TIP3      H1             29.5384061170       27.6798387853       31.0134247868  TIP3      5418            0.0000000000
     66086      5818  TIP3      H2             29.2411339833       27.8461372992       29.5299568496  TIP3      5418            0.0000000000
     66087      5819  TIP3      OH2            21.9186629724       27.9700582028       31.8653195994  TIP3      5419            0.0000000000
     66088      5819  TIP3      H1             21.9917381853       27.3143670819       32.5919626944  TIP3      5419            0.0000000000
     66089      5819  TIP3      H2             22.6490458378       28.5694668326       32.0762426398  TIP3      5419            0.0000000000
     66090      5820  TIP3      OH2            33.2645731323       31.2644629479       28.5871775176  TIP3      5420            0.0000000000
     66091      5820  TIP3      H1             32.8274413613       30.5512158097       29.0616489312  TIP3      5420            0.0000000000
     66092      5820  TIP3      H2             33.2609416900       31.9867562298       29.2440119657  TIP3      5420            0.0000000000
     66093      5821  TIP3      OH2            22.8448406798       32.4225055681       30.4032537579  TIP3      5421            0.0000000000
     66094      5821  TIP3      H1             22.5065050214       31.5810217014       30.0451847977  TIP3      5421            0.0000000000
     66095      5821  TIP3      H2             23.8000992352       32.2321892839       30.4438762683  TIP3      5421            0.0000000000
     66096      5822  TIP3      OH2            19.5036096203       26.0444407807       25.7823795745  TIP3      5422            0.0000000000
     66097      5822  TIP3      H1             19.0259183678       26.9076824881       25.8185682286  TIP3      5422            0.0000000000
     66098      5822  TIP3      H2             18.8434241920       25.5384282140       25.3178524198  TIP3      5422            0.0000000000
     66099      5823  TIP3      OH2            20.1669608800       28.2098232832       27.9282167330  TIP3      5423            0.0000000000
     66100      5823  TIP3      H1             20.4215552539       27.4319655113       28.4669741106  TIP3      5423            0.0000000000
     66101      5823  TIP3      H2             20.9264332331       28.3201750265       27.3444861934  TIP3      5423            0.0000000000
     66102      5824  TIP3      OH2            30.3676356863       36.4072313778       28.8141328508  TIP3      5424            0.0000000000
     66103      5824  TIP3      H1             31.0110847049       35.7042796225       28.5363919386  TIP3      5424            0.0000000000
     66104      5824  TIP3      H2             30.1725540238       36.1291062127       29.7082670491  TIP3      5424            0.0000000000
     66105      5825  TIP3      OH2            27.9356356658       30.7526811298       30.7295269435  TIP3      5425            0.0000000000
     66106      5825  TIP3      H1             28.2747850964       30.0891242841       30.1099298948  TIP3      5425            0.0000000000
     66107      5825  TIP3      H2             28.7081930574       30.8801126304       31.3055574792  TIP3      5425            0.0000000000
     66108      5826  TIP3      OH2            36.5775794486       22.3594521795       31.5340352640  TIP3      5426            0.0000000000
     66109      5826  TIP3      H1             36.6905923619       22.9798319853       32.2858077820  TIP3      5426            0.0000000000
     66110      5826  TIP3      H2             37.0711686375       22.8201648252       30.8389079305  TIP3      5426            0.0000000000
     66111      5827  TIP3      OH2            31.0966233140       25.1835102311       31.0638307965  TIP3      5427            0.0000000000
     66112      5827  TIP3      H1             31.2468283841       24.2174544419       31.0556882560  TIP3      5427            0.0000000000
     66113      5827  TIP3      H2             31.0025125738       25.3464898885       30.1051890378  TIP3      5427            0.0000000000
     66114      5828  TIP3      OH2            24.2719117602       23.2774636726       28.2903558128  TIP3      5428            0.0000000000
     66115      5828  TIP3      H1             24.2632049166       24.1223352882       27.8505953707  TIP3      5428            0.0000000000
     66116      5828  TIP3      H2             23.7922925063       22.6982238587       27.6534804670  TIP3      5428            0.0000000000
     66117      5829  TIP3      OH2            31.9556930069       23.3783133057       26.6853189345  TIP3      5429            0.0000000000
     66118      5829  TIP3      H1             32.6253334939       23.0551927777       27.3341947588  TIP3      5429            0.0000000000
     66119      5829  TIP3      H2             32.5002777765       23.9197627722       26.0955235190  TIP3      5429            0.0000000000
     66120      5830  TIP3      OH2            20.8706078449       25.6960905197       29.0452404084  TIP3      5430            0.0000000000
     66121      5830  TIP3      H1             21.5105133055       25.1039372197       29.5006387298  TIP3      5430            0.0000000000
     66122      5830  TIP3      H2             20.9121023302       25.3656733407       28.1461742743  TIP3      5430            0.0000000000
     66123      5831  TIP3      OH2            26.0155703893       27.2935679401       28.3507893106  TIP3      5431            0.0000000000
     66124      5831  TIP3      H1             26.6574599896       26.7374198704       28.8269533782  TIP3      5431            0.0000000000
     66125      5831  TIP3      H2             25.3887560340       26.6887881172       27.9207122079  TIP3      5431            0.0000000000
     66126      5832  TIP3      OH2            37.0034751944       23.8187667104       33.7811996336  TIP3      5432            0.0000000000
     66127      5832  TIP3      H1             36.3333685304       24.5266018464       33.6921108369  TIP3      5432            0.0000000000
     66128      5832  TIP3      H2             37.0200333791       23.6651113850       34.7341891071  TIP3      5432            0.0000000000
     66129      5833  TIP3      OH2            23.0938828970       22.1643781202       32.3599749011  TIP3      5433            0.0000000000
     66130      5833  TIP3      H1             22.8340028981       22.7274503990       31.6002067755  TIP3      5433            0.0000000000
     66131      5833  TIP3      H2             22.4044116039       22.4127341164       33.0255948983  TIP3      5433            0.0000000000
     66132      5834  TIP3      OH2            30.4312738189       31.6655211189       25.9051922722  TIP3      5434            0.0000000000
     66133      5834  TIP3      H1             30.1324444519       31.3719579572       25.0389545533  TIP3      5434            0.0000000000
     66134      5834  TIP3      H2             30.1056244921       32.5908173552       25.9457962970  TIP3      5434            0.0000000000
     66135      5835  TIP3      OH2            25.6365993313       29.8266032013       32.6289288131  TIP3      5435            0.0000000000
     66136      5835  TIP3      H1             24.9058539513       30.4639680424       32.7796184797  TIP3      5435            0.0000000000
     66137      5835  TIP3      H2             26.3435632324       30.4166977505       32.3270505937  TIP3      5435            0.0000000000
     66138      5836  TIP3      OH2            33.7373934874       22.6941614946       28.6720885340  TIP3      5436            0.0000000000
     66139      5836  TIP3      H1             33.5324697820       21.9227835725       29.2112375322  TIP3      5436            0.0000000000
     66140      5836  TIP3      H2             34.4102669404       23.1468983658       29.2082810817  TIP3      5436            0.0000000000
     66141      5837  TIP3      OH2            22.6973890104       24.1080075375       30.3627935991  TIP3      5437            0.0000000000
     66142      5837  TIP3      H1             23.3245685896       24.7361355339       30.7108264090  TIP3      5437            0.0000000000
     66143      5837  TIP3      H2             23.1842860971       23.6022529641       29.6677712152  TIP3      5437            0.0000000000
     66144      5838  TIP3      OH2            24.0656745736       31.8054060619       33.4242488876  TIP3      5438            0.0000000000
     66145      5838  TIP3      H1             24.0320251109       32.7149071877       33.0680706782  TIP3      5438            0.0000000000
     66146      5838  TIP3      H2             23.1809549187       31.7402572247       33.8671590640  TIP3      5438            0.0000000000
     66147      5839  TIP3      OH2            20.1231099269       31.5013098040       24.2183376446  TIP3      5439            0.0000000000
     66148      5839  TIP3      H1             19.8698138753       31.7927476940       23.3285108630  TIP3      5439            0.0000000000
     66149      5839  TIP3      H2             20.2185071571       32.3519190242       24.7136147739  TIP3      5439            0.0000000000
     66150      5840  TIP3      OH2            33.7868081431       33.0981404720       30.9496990849  TIP3      5440            0.0000000000
     66151      5840  TIP3      H1             32.8210193184       33.1902033858       31.0915700812  TIP3      5440            0.0000000000
     66152      5840  TIP3      H2             34.0533195150       34.0249307497       30.7842439581  TIP3      5440            0.0000000000
     66153      5841  TIP3      OH2            34.0911457010       21.3926603899       32.3574967599  TIP3      5441            0.0000000000
     66154      5841  TIP3      H1             33.3560809825       22.0157247058       32.2957430868  TIP3      5441            0.0000000000
     66155      5841  TIP3      H2             34.7872116435       21.8146130853       31.8233589285  TIP3      5441            0.0000000000
     66156      5842  TIP3      OH2            27.0833114356       19.4983994635       29.8135217102  TIP3      5442            0.0000000000
     66157      5842  TIP3      H1             26.9524236729       18.5314334818       29.7586175761  TIP3      5442            0.0000000000
     66158      5842  TIP3      H2             26.2050659154       19.8162545224       30.1052134445  TIP3      5442            0.0000000000
     66159      5843  TIP3      OH2            32.0390838322       34.8864585228       27.5844728754  TIP3      5443            0.0000000000
     66160      5843  TIP3      H1             32.4660569397       34.1782384884       27.0608203434  TIP3      5443            0.0000000000
     66161      5843  TIP3      H2             32.3912648182       35.6877690105       27.1403596665  TIP3      5443            0.0000000000
     66162      5844  TIP3      OH2            33.2270714207       32.8070624727       26.0767350817  TIP3      5444            0.0000000000
     66163      5844  TIP3      H1             32.9475680878       32.1026960307       25.4624790772  TIP3      5444            0.0000000000
     66164      5844  TIP3      H2             33.2671402477       32.3301394402       26.9191010012  TIP3      5444            0.0000000000
     66165      5845  TIP3      OH2            34.8807919169       31.3803682825       34.5626928220  TIP3      5445            0.0000000000
     66166      5845  TIP3      H1             35.0184865636       30.7594623656       33.8145978583  TIP3      5445            0.0000000000
     66167      5845  TIP3      H2             35.0544493474       32.2462962509       34.1634915606  TIP3      5445            0.0000000000
     66168      5846  TIP3      OH2            29.3357404337       28.2667097561       24.3149767449  TIP3      5446            0.0000000000
     66169      5846  TIP3      H1             28.6567914259       28.8822976484       23.9703695202  TIP3      5446            0.0000000000
     66170      5846  TIP3      H2             30.0610318628       28.3920655391       23.6677777479  TIP3      5446            0.0000000000
     66171      5847  TIP3      OH2            36.7380942148       27.6992896930       32.6203884937  TIP3      5447            0.0000000000
     66172      5847  TIP3      H1             36.0739897811       28.4150368006       32.6807318709  TIP3      5447            0.0000000000
     66173      5847  TIP3      H2             37.2076285321       27.9301403585       31.7981829274  TIP3      5447            0.0000000000
     66174      5848  TIP3      OH2            32.7825264778       28.5239983466       25.2496334889  TIP3      5448            0.0000000000
     66175      5848  TIP3      H1             32.0422144519       28.7606805696       25.8567791774  TIP3      5448            0.0000000000
     66176      5848  TIP3      H2             33.2397320016       27.8244032181       25.7445376033  TIP3      5448            0.0000000000
     66177      5849  TIP3      OH2            32.7046794619       26.6809552225       34.3516677408  TIP3      5449            0.0000000000
     66178      5849  TIP3      H1             32.7357527260       27.4815453249       34.9060239291  TIP3      5449            0.0000000000
     66179      5849  TIP3      H2             32.0710387459       26.9846647658       33.6636683870  TIP3      5449            0.0000000000
     66180      5850  TIP3      OH2            24.3901088899       29.1701419113       27.1710718514  TIP3      5450            0.0000000000
     66181      5850  TIP3      H1             24.0839124953       28.7883492500       26.3164651146  TIP3      5450            0.0000000000
     66182      5850  TIP3      H2             25.0164231007       28.4975955100       27.4928870200  TIP3      5450            0.0000000000
     66183      5851  TIP3      OH2            25.7493461275       32.5867292446       29.8428649434  TIP3      5451            0.0000000000
     66184      5851  TIP3      H1             25.7011744185       32.0164558748       29.0633049939  TIP3      5451            0.0000000000
     66185      5851  TIP3      H2             26.5137791681       32.2077255807       30.3157072528  TIP3      5451            0.0000000000
     66186      5852  TIP3      OH2            24.7657018028       27.9098303319       30.7985631196  TIP3      5452            0.0000000000
     66187      5852  TIP3      H1             25.3337243547       28.0623984208       30.0273231076  TIP3      5452            0.0000000000
     66188      5852  TIP3      H2             25.1031137612       28.5771560635       31.4365875262  TIP3      5452            0.0000000000
     66189      5853  TIP3      OH2            31.1131995246       33.4687024693       31.5130546991  TIP3      5453            0.0000000000
     66190      5853  TIP3      H1             30.8516885772       34.1028081187       32.1816114268  TIP3      5453            0.0000000000
     66191      5853  TIP3      H2             30.8877795274       32.6091556810       31.9541331063  TIP3      5453            0.0000000000
     66192      5854  TIP3      OH2            25.6874786938       32.3491519064       35.4986985383  TIP3      5454            0.0000000000
     66193      5854  TIP3      H1             25.3166147655       33.1030079843       35.9905067234  TIP3      5454            0.0000000000
     66194      5854  TIP3      H2             25.0002749624       32.1572928305       34.8191631665  TIP3      5454            0.0000000000
     66195      5855  TIP3      OH2            31.6326931272       27.6858504715       22.9455946136  TIP3      5455            0.0000000000
     66196      5855  TIP3      H1             32.2275743273       27.8586342798       23.7097511974  TIP3      5455            0.0000000000
     66197      5855  TIP3      H2             32.0687808990       28.1812046195       22.2232825925  TIP3      5455            0.0000000000
     66198      5856  TIP3      OH2            22.6037621609       28.5141162203       34.6971897271  TIP3      5456            0.0000000000
     66199      5856  TIP3      H1             22.6609660975       29.1716238627       35.4270717023  TIP3      5456            0.0000000000
     66200      5856  TIP3      H2             21.6826370219       28.6226649187       34.4332172324  TIP3      5456            0.0000000000
     66201      5857  TIP3      OH2            29.3789911769       34.4292846061       26.3809323772  TIP3      5457            0.0000000000
     66202      5857  TIP3      H1             29.8332169324       34.7356079258       27.1726590238  TIP3      5457            0.0000000000
     66203      5857  TIP3      H2             28.8081223023       35.1735725704       26.1582948747  TIP3      5457            0.0000000000
     66204      5858  TIP3      OH2            23.9195355312       34.3976071510       36.2739950024  TIP3      5458            0.0000000000
     66205      5858  TIP3      H1             23.8920201058       34.2700905650       35.3109823183  TIP3      5458            0.0000000000
     66206      5858  TIP3      H2             22.9816963297       34.2726080469       36.5235601406  TIP3      5458            0.0000000000
     66207      5859  TIP3      OH2            35.3700731216       19.4404184754       22.8036479910  TIP3      5459            0.0000000000
     66208      5859  TIP3      H1             34.4320863319       19.5854176570       23.0561483911  TIP3      5459            0.0000000000
     66209      5859  TIP3      H2             35.5778245144       20.2720597285       22.3524634672  TIP3      5459            0.0000000000
     66210      5860  TIP3      OH2            23.3696247449       28.2229186528       24.7814697637  TIP3      5460            0.0000000000
     66211      5860  TIP3      H1             23.1418696561       28.9974066122       24.2585514525  TIP3      5460            0.0000000000
     66212      5860  TIP3      H2             22.7342525772       27.5487801407       24.5695247539  TIP3      5460            0.0000000000
     66213      5861  TIP3      OH2            19.4867274908       30.6177208217       33.6147179917  TIP3      5461            0.0000000000
     66214      5861  TIP3      H1             19.0044798883       30.5494952107       32.7690061663  TIP3      5461            0.0000000000
     66215      5861  TIP3      H2             19.5129890715       29.6740987065       33.8707290212  TIP3      5461            0.0000000000
     66216      5862  TIP3      OH2            19.2364844634       33.3596029077       30.4476441506  TIP3      5462            0.0000000000
     66217      5862  TIP3      H1             20.1926785330       33.2360113358       30.4296119441  TIP3      5462            0.0000000000
     66218      5862  TIP3      H2             19.1409784548       34.1629409448       30.9744065417  TIP3      5462            0.0000000000
     66219      5863  TIP3      OH2            37.4647703319       34.0538096310       36.1139046726  TIP3      5463            0.0000000000
     66220      5863  TIP3      H1             37.3708216784       33.0901955258       36.1070304423  TIP3      5463            0.0000000000
     66221      5863  TIP3      H2             36.6046789733       34.3025423198       36.5379537614  TIP3      5463            0.0000000000
     66222      5864  TIP3      OH2            28.4284172660       33.6058543141       34.9945550105  TIP3      5464            0.0000000000
     66223      5864  TIP3      H1             28.5004395753       34.4474841112       35.5015504677  TIP3      5464            0.0000000000
     66224      5864  TIP3      H2             27.5519108605       33.2650608219       35.2560961780  TIP3      5464            0.0000000000
     66225      5865  TIP3      OH2            28.8454025025       37.3658158123       24.8037708757  TIP3      5465            0.0000000000
     66226      5865  TIP3      H1             28.7590623439       37.2643214059       23.8469142337  TIP3      5465            0.0000000000
     66227      5865  TIP3      H2             28.8786301738       38.3302738599       24.9429757972  TIP3      5465            0.0000000000
     66228      5866  TIP3      OH2            22.4974845048       36.2120536325       26.6061348061  TIP3      5466            0.0000000000
     66229      5866  TIP3      H1             22.6419518075       35.8091812018       27.4868214845  TIP3      5466            0.0000000000
     66230      5866  TIP3      H2             21.6479482294       35.8146756847       26.3553236149  TIP3      5466            0.0000000000
     66231      5867  TIP3      OH2            31.6142851159       36.5129260464       24.5935379546  TIP3      5467            0.0000000000
     66232      5867  TIP3      H1             30.6534949595       36.5540923814       24.7243110692  TIP3      5467            0.0000000000
     66233      5867  TIP3      H2             31.8671436813       35.7448926771       25.1185810469  TIP3      5467            0.0000000000
     66234      5868  TIP3      OH2            34.6039695948       25.5304332496       36.6191563517  TIP3      5468            0.0000000000
     66235      5868  TIP3      H1             34.1685456533       26.0038270786       35.8849170514  TIP3      5468            0.0000000000
     66236      5868  TIP3      H2             34.6196384868       24.6200739684       36.2861489554  TIP3      5468            0.0000000000
     66237      5869  TIP3      OH2            21.7539919160       31.9294802146       34.6114259286  TIP3      5469            0.0000000000
     66238      5869  TIP3      H1             21.9753010144       31.5524358395       35.4882454715  TIP3      5469            0.0000000000
     66239      5869  TIP3      H2             20.8811714801       31.5373341549       34.3944506919  TIP3      5469            0.0000000000
     66240      5870  TIP3      OH2            24.3991317717       20.3843741513       30.5863778741  TIP3      5470            0.0000000000
     66241      5870  TIP3      H1             23.5051729985       20.3093756456       30.1963954648  TIP3      5470            0.0000000000
     66242      5870  TIP3      H2             24.3244564242       21.2409055959       31.0398357647  TIP3      5470            0.0000000000
     66243      5871  TIP3      OH2            29.0529172257       20.1023824842       33.9501081457  TIP3      5471            0.0000000000
     66244      5871  TIP3      H1             29.4550760392       19.6771582629       34.7284907495  TIP3      5471            0.0000000000
     66245      5871  TIP3      H2             28.0864692212       19.9392197854       34.0866360760  TIP3      5471            0.0000000000
     66246      5872  TIP3      OH2            32.3550235128       23.8838718903       34.8120172378  TIP3      5472            0.0000000000
     66247      5872  TIP3      H1             31.8212081846       23.7212339766       35.6264394055  TIP3      5472            0.0000000000
     66248      5872  TIP3      H2             32.1951553080       24.8117910659       34.5890476295  TIP3      5472            0.0000000000
     66249      5873  TIP3      OH2            33.1215635344       28.7276700635       20.6213478684  TIP3      5473            0.0000000000
     66250      5873  TIP3      H1             33.1330244674       28.5070948824       19.6730808584  TIP3      5473            0.0000000000
     66251      5873  TIP3      H2             33.9611009568       29.1457206850       20.7823773841  TIP3      5473            0.0000000000
     66252      5874  TIP3      OH2            24.4975201066       25.3557871026       31.7279779325  TIP3      5474            0.0000000000
     66253      5874  TIP3      H1             23.8043050879       25.3298038039       32.4240214540  TIP3      5474            0.0000000000
     66254      5874  TIP3      H2             24.4866839255       26.2998982312       31.4657141578  TIP3      5474            0.0000000000
     66255      5875  TIP3      OH2            24.4041375892       25.5776691016       26.5931606504  TIP3      5475            0.0000000000
     66256      5875  TIP3      H1             23.4941358214       25.2165026672       26.5176899551  TIP3      5475            0.0000000000
     66257      5875  TIP3      H2             24.8322334363       25.1921169258       25.7971945976  TIP3      5475            0.0000000000
     66258      5876  TIP3      OH2            29.9677475863       25.9643031239       25.4098518971  TIP3      5476            0.0000000000
     66259      5876  TIP3      H1             29.6041727445       26.8306041808       25.1245090772  TIP3      5476            0.0000000000
     66260      5876  TIP3      H2             30.7240200082       25.8578413363       24.8001888644  TIP3      5476            0.0000000000
     66261      5877  TIP3      OH2            29.1198648570       26.1676921783       36.8843195750  TIP3      5477            0.0000000000
     66262      5877  TIP3      H1             28.5243159729       25.4551396455       37.2256740244  TIP3      5477            0.0000000000
     66263      5877  TIP3      H2             29.9277163553       26.0562195557       37.3963031627  TIP3      5477            0.0000000000
     66264      5878  TIP3      OH2            30.9904304963       25.4592256954       28.2721466029  TIP3      5478            0.0000000000
     66265      5878  TIP3      H1             30.7993546236       26.0471661219       27.5239227821  TIP3      5478            0.0000000000
     66266      5878  TIP3      H2             31.1732147339       24.6158919161       27.8052889267  TIP3      5478            0.0000000000
     66267      5879  TIP3      OH2            22.1801103340       25.6638352592       33.5315573846  TIP3      5479            0.0000000000
     66268      5879  TIP3      H1             22.1947216307       26.0663283650       34.4213017566  TIP3      5479            0.0000000000
     66269      5879  TIP3      H2             21.7104598859       24.8317255098       33.6785534763  TIP3      5479            0.0000000000
     66270      5880  TIP3      OH2            18.9995318714       23.0611084664       27.0348253279  TIP3      5480            0.0000000000
     66271      5880  TIP3      H1             19.3253153095       22.8221390165       27.9826529248  TIP3      5480            0.0000000000
     66272      5880  TIP3      H2             19.2921209587       22.2472082012       26.6411391463  TIP3      5480            0.0000000000
     66273      5881  TIP3      OH2            30.2521755339       27.0869411240       32.8876086628  TIP3      5481            0.0000000000
     66274      5881  TIP3      H1             30.5949111319       26.4184582915       32.2682727290  TIP3      5481            0.0000000000
     66275      5881  TIP3      H2             29.8023566302       26.5410636741       33.5573250867  TIP3      5481            0.0000000000
     66276      5882  TIP3      OH2            27.0314974092       23.1029981165       27.6937775695  TIP3      5482            0.0000000000
     66277      5882  TIP3      H1             26.1001990062       23.0076425036       27.9981015283  TIP3      5482            0.0000000000
     66278      5882  TIP3      H2             27.5431876093       22.8965073583       28.5064812218  TIP3      5482            0.0000000000
     66279      5883  TIP3      OH2            21.8771398592       24.6266793724       26.4937925321  TIP3      5483            0.0000000000
     66280      5883  TIP3      H1             20.9686654811       24.7453548494       26.2153947718  TIP3      5483            0.0000000000
     66281      5883  TIP3      H2             22.1625306001       23.7522721420       26.1888591906  TIP3      5483            0.0000000000
     66282      5884  TIP3      OH2            25.4975761936       24.6703064181       24.2250329589  TIP3      5484            0.0000000000
     66283      5884  TIP3      H1             26.4556891388       24.7456572876       24.3445034441  TIP3      5484            0.0000000000
     66284      5884  TIP3      H2             25.2755299719       25.3084504051       23.5158792791  TIP3      5484            0.0000000000
     66285      5885  TIP3      OH2            31.4519178183       22.2585717873       30.9433166692  TIP3      5485            0.0000000000
     66286      5885  TIP3      H1             30.7576809384       22.3574427898       31.6290785720  TIP3      5485            0.0000000000
     66287      5885  TIP3      H2             30.9467839193       22.0646254865       30.1425511969  TIP3      5485            0.0000000000
     66288      5886  TIP3      OH2            24.1812486450       25.8279315874       21.7629141932  TIP3      5486            0.0000000000
     66289      5886  TIP3      H1             23.6573691968       25.4514047683       21.0343697108  TIP3      5486            0.0000000000
     66290      5886  TIP3      H2             24.9966302816       26.0308393055       21.3050712947  TIP3      5486            0.0000000000
     66291      5887  TIP3      OH2            34.6834913225       37.9150659137       37.2583007227  TIP3      5487            0.0000000000
     66292      5887  TIP3      H1             34.9319396366       38.3248715739       36.4065599211  TIP3      5487            0.0000000000
     66293      5887  TIP3      H2             35.3870251442       38.2521994336       37.8423493740  TIP3      5487            0.0000000000
     66294      5888  TIP3      OH2            22.3283198990       30.4017151300       36.8161458791  TIP3      5488            0.0000000000
     66295      5888  TIP3      H1             23.0569081110       30.6258188196       37.4288176958  TIP3      5488            0.0000000000
     66296      5888  TIP3      H2             21.5436814245       30.5503097441       37.3875369096  TIP3      5488            0.0000000000
     66297      5889  TIP3      OH2            28.2955299291       25.7761347130       29.5429218532  TIP3      5489            0.0000000000
     66298      5889  TIP3      H1             28.9453961766       25.2525898196       29.0534751793  TIP3      5489            0.0000000000
     66299      5889  TIP3      H2             28.2129398190       25.2735225535       30.3764282610  TIP3      5489            0.0000000000
     66300      5890  TIP3      OH2            23.3420631573       21.9547988565       26.0106678111  TIP3      5490            0.0000000000
     66301      5890  TIP3      H1             23.0458665671       21.0279343103       25.9746065054  TIP3      5490            0.0000000000
     66302      5890  TIP3      H2             24.1372832370       21.9016840825       25.4519515742  TIP3      5490            0.0000000000
     66303      5891  TIP3      OH2            26.9807042550       24.1577654932       31.9647767013  TIP3      5491            0.0000000000
     66304      5891  TIP3      H1             26.1411761337       24.6394673929       32.1088187306  TIP3      5491            0.0000000000
     66305      5891  TIP3      H2             27.5120325150       24.4627000057       32.7379783292  TIP3      5491            0.0000000000
     66306      5892  TIP3      OH2            27.5614164254       30.3642945802       23.6793636855  TIP3      5492            0.0000000000
     66307      5892  TIP3      H1             26.7679070200       29.9056475598       23.3557107545  TIP3      5492            0.0000000000
     66308      5892  TIP3      H2             27.3712810105       30.4838629741       24.6270977515  TIP3      5492            0.0000000000
     66309      5893  TIP3      OH2            34.7043485667       29.5313205652       32.4881814652  TIP3      5493            0.0000000000
     66310      5893  TIP3      H1             35.3089841689       30.0053694493       31.8933337920  TIP3      5493            0.0000000000
     66311      5893  TIP3      H2             33.8558042038       29.6303432193       32.0062267577  TIP3      5493            0.0000000000
     66312      5894  TIP3      OH2            31.4169971595       23.1310274752       21.9519445503  TIP3      5494            0.0000000000
     66313      5894  TIP3      H1             30.5092495271       23.2759575757       21.7152460843  TIP3      5494            0.0000000000
     66314      5894  TIP3      H2             31.7460366938       24.0280791318       22.1798429501  TIP3      5494            0.0000000000
     66315      5895  TIP3      OH2            29.0583751931       30.5970781086       34.9159115391  TIP3      5495            0.0000000000
     66316      5895  TIP3      H1             28.6924860727       30.1942634789       35.7229110632  TIP3      5495            0.0000000000
     66317      5895  TIP3      H2             28.8203042122       31.5217231964       35.0125917552  TIP3      5495            0.0000000000
     66318      5896  TIP3      OH2            32.1273789693       25.0814311769       23.5471284950  TIP3      5496            0.0000000000
     66319      5896  TIP3      H1             33.0371940652       24.9443009027       23.8832392522  TIP3      5496            0.0000000000
     66320      5896  TIP3      H2             32.2082873336       25.8839939500       23.0046968052  TIP3      5496            0.0000000000
     66321      5897  TIP3      OH2            22.6506361277       29.7158023867       29.4695347521  TIP3      5497            0.0000000000
     66322      5897  TIP3      H1             23.3798339908       29.6815952507       28.8219331508  TIP3      5497            0.0000000000
     66323      5897  TIP3      H2             22.7254836812       28.8697431965       29.9414274831  TIP3      5497            0.0000000000
     66324      5898  TIP3      OH2            19.6503940586       28.1542360810       34.7553323547  TIP3      5498            0.0000000000
     66325      5898  TIP3      H1             19.8629511022       27.7200746365       35.6044463032  TIP3      5498            0.0000000000
     66326      5898  TIP3      H2             19.0433354438       27.5250182139       34.3284941299  TIP3      5498            0.0000000000
     66327      5899  TIP3      OH2            26.8794154897       27.6019440989       36.6606472299  TIP3      5499            0.0000000000
     66328      5899  TIP3      H1             26.4035431862       27.3894208962       35.8669082973  TIP3      5499            0.0000000000
     66329      5899  TIP3      H2             27.7757260153       27.3421737332       36.8461144397  TIP3      5499            0.0000000000
     66330      5900  TIP3      OH2            31.3254594323       33.0374384969       34.8596858557  TIP3      5500            0.0000000000
     66331      5900  TIP3      H1             30.4010947821       33.2269584457       34.6238493510  TIP3      5500            0.0000000000
     66332      5900  TIP3      H2             31.3192607924       33.3162946020       35.7975897281  TIP3      5500            0.0000000000
     66333      5901  TIP3      OH2            37.0356935195       25.2657493746       23.2566363853  TIP3      5501            0.0000000000
     66334      5901  TIP3      H1             36.4578129147       24.8998719918       22.5562507669  TIP3      5501            0.0000000000
     66335      5901  TIP3      H2             37.1170799509       26.1899991708       22.9787323030  TIP3      5501            0.0000000000
     66336      5902  TIP3      OH2            37.0021339079       31.0829242273       36.0913653319  TIP3      5502            0.0000000000
     66337      5902  TIP3      H1             36.1234038305       31.3180089939       35.7059137371  TIP3      5502            0.0000000000
     66338      5902  TIP3      H2             37.5672732483       31.0623790378       35.2959088895  TIP3      5502            0.0000000000
     66339      5903  TIP3      OH2            35.3445142928       34.0655845767       23.7059606174  TIP3      5503            0.0000000000
     66340      5903  TIP3      H1             34.9444880939       33.2416360014       24.0092634432  TIP3      5503            0.0000000000
     66341      5903  TIP3      H2             35.5942628925       33.8759310891       22.7927168968  TIP3      5503            0.0000000000
     66342      5904  TIP3      OH2            32.5014798951       28.8839033948       30.7479141452  TIP3      5504            0.0000000000
     66343      5904  TIP3      H1             31.5586854002       28.6492001085       30.6810262186  TIP3      5504            0.0000000000
     66344      5904  TIP3      H2             32.9374538480       28.0994660570       30.3695066812  TIP3      5504            0.0000000000
     66345      5905  TIP3      OH2            25.0262723611       33.2020721641       26.8741172135  TIP3      5505            0.0000000000
     66346      5905  TIP3      H1             25.5495597676       33.9890513984       26.6472113644  TIP3      5505            0.0000000000
     66347      5905  TIP3      H2             24.1479978322       33.4367286276       26.5448824685  TIP3      5505            0.0000000000
     66348      5906  TIP3      OH2            20.7825814705       28.0416713793       21.4977764985  TIP3      5506            0.0000000000
     66349      5906  TIP3      H1             21.4288463120       28.6917085127       21.7485290732  TIP3      5506            0.0000000000
     66350      5906  TIP3      H2             19.8919767838       28.3758478509       21.6741336120  TIP3      5506            0.0000000000
     66351      5907  TIP3      OH2            26.4766717482       30.8547296991       26.4243444860  TIP3      5507            0.0000000000
     66352      5907  TIP3      H1             26.1873090101       31.7875748299       26.4769642642  TIP3      5507            0.0000000000
     66353      5907  TIP3      H2             25.7081503299       30.4078744471       26.8219255539  TIP3      5507            0.0000000000
     66354      5908  TIP3      OH2            26.9266367489       35.0315583649       32.7660059601  TIP3      5508            0.0000000000
     66355      5908  TIP3      H1             27.3436429805       35.8700789807       32.5114271547  TIP3      5508            0.0000000000
     66356      5908  TIP3      H2             27.5114617072       34.7225507774       33.4836574597  TIP3      5508            0.0000000000
     66357      5909  TIP3      OH2            25.1475861685       35.8647055137       25.9739822968  TIP3      5509            0.0000000000
     66358      5909  TIP3      H1             24.1752425474       35.9993570092       26.0381436010  TIP3      5509            0.0000000000
     66359      5909  TIP3      H2             25.4839649567       36.7159309647       26.3027543096  TIP3      5509            0.0000000000
     66360      5910  TIP3      OH2            30.4812469545       31.0957878652       32.4304601311  TIP3      5510            0.0000000000
     66361      5910  TIP3      H1             30.0896233422       30.8806017755       33.2992558345  TIP3      5510            0.0000000000
     66362      5910  TIP3      H2             31.0904881674       30.3628222045       32.2606390214  TIP3      5510            0.0000000000
     66363      5911  TIP3      OH2            33.2037118855       35.6526142415       34.9292568445  TIP3      5511            0.0000000000
     66364      5911  TIP3      H1             32.5603397658       35.1252791908       34.4167979244  TIP3      5511            0.0000000000
     66365      5911  TIP3      H2             33.4398487845       36.3382057828       34.2690238028  TIP3      5511            0.0000000000
     66366      5912  TIP3      OH2            37.2288474672       36.5099864938       21.7333468968  TIP3      5512            0.0000000000
     66367      5912  TIP3      H1             37.9479080131       37.1353007517       21.5776207630  TIP3      5512            0.0000000000
     66368      5912  TIP3      H2             36.5098812232       37.1020423437       22.0387515574  TIP3      5512            0.0000000000
     66369      5913  TIP3      OH2            21.3085459379       22.9050694396       34.3239230877  TIP3      5513            0.0000000000
     66370      5913  TIP3      H1             20.3940747800       23.2400280238       34.2589943819  TIP3      5513            0.0000000000
     66371      5913  TIP3      H2             21.1904803540       22.0421854065       34.7502395131  TIP3      5513            0.0000000000
     66372      5914  TIP3      OH2            33.5657577271       30.7325869909       23.7510176995  TIP3      5514            0.0000000000
     66373      5914  TIP3      H1             33.3014768701       29.9762325594       24.3041139593  TIP3      5514            0.0000000000
     66374      5914  TIP3      H2             34.5076667298       30.8273613423       23.9457572584  TIP3      5514            0.0000000000
     66375      5915  TIP3      OH2            20.9399378085       34.7037364348       32.7371657954  TIP3      5515            0.0000000000
     66376      5915  TIP3      H1             21.1835672024       33.7614865190       32.7343979305  TIP3      5515            0.0000000000
     66377      5915  TIP3      H2             21.1887746183       34.9705582299       33.6320324313  TIP3      5515            0.0000000000
     66378      5916  TIP3      OH2            26.7732506084       33.1533517377       19.9725983686  TIP3      5516            0.0000000000
     66379      5916  TIP3      H1             27.0376924757       32.4108602097       19.4235088265  TIP3      5516            0.0000000000
     66380      5916  TIP3      H2             26.5382830683       32.7750859874       20.8111486011  TIP3      5516            0.0000000000
     66381      5917  TIP3      OH2            30.0285798987       22.6584997414       33.2246605374  TIP3      5517            0.0000000000
     66382      5917  TIP3      H1             30.7354431381       22.7157799242       33.8800198656  TIP3      5517            0.0000000000
     66383      5917  TIP3      H2             29.6478818676       21.7750652554       33.4042977903  TIP3      5517            0.0000000000
     66384      5918  TIP3      OH2            30.7756961935       22.2876727514       24.3461638483  TIP3      5518            0.0000000000
     66385      5918  TIP3      H1             31.0478778216       22.7324708841       23.5132489674  TIP3      5518            0.0000000000
     66386      5918  TIP3      H2             31.3741416967       22.6870433264       24.9883901684  TIP3      5518            0.0000000000
     66387      5919  TIP3      OH2            27.9783573162       24.0584853593       25.1467440326  TIP3      5519            0.0000000000
     66388      5919  TIP3      H1             28.8352298593       24.5337456776       25.1967490393  TIP3      5519            0.0000000000
     66389      5919  TIP3      H2             27.7780908841       23.8337937817       26.0677441156  TIP3      5519            0.0000000000
     66390      5920  TIP3      OH2            28.5531409883       25.0085426131       34.3374953183  TIP3      5520            0.0000000000
     66391      5920  TIP3      H1             28.6465940839       25.5871244768       35.1212938894  TIP3      5520            0.0000000000
     66392      5920  TIP3      H2             29.2139492037       24.3143026917       34.4492775310  TIP3      5520            0.0000000000
     66393      5921  TIP3      OH2            28.8752602039       21.0734740911       26.0694198098  TIP3      5521            0.0000000000
     66394      5921  TIP3      H1             28.5541578965       21.7110275409       26.7260725633  TIP3      5521            0.0000000000
     66395      5921  TIP3      H2             29.5652930350       21.6044155162       25.5987373494  TIP3      5521            0.0000000000
     66396      5922  TIP3      OH2            25.8197924065       35.4709706725       23.1631611789  TIP3      5522            0.0000000000
     66397      5922  TIP3      H1             25.9830460632       36.2658872867       22.6474703010  TIP3      5522            0.0000000000
     66398      5922  TIP3      H2             25.6135563685       35.7751806350       24.0599584751  TIP3      5522            0.0000000000
     66399      5923  TIP3      OH2            24.5238003786       22.1632825698       22.8285342988  TIP3      5523            0.0000000000
     66400      5923  TIP3      H1             24.4856798859       23.0729989993       23.1190167261  TIP3      5523            0.0000000000
     66401      5923  TIP3      H2             25.4449147143       21.8920499818       22.9875867497  TIP3      5523            0.0000000000
     66402      5924  TIP3      OH2            34.7615201016       22.8966439537       35.1911794815  TIP3      5524            0.0000000000
     66403      5924  TIP3      H1             33.8222060314       23.1853157148       35.0705992892  TIP3      5524            0.0000000000
     66404      5924  TIP3      H2             35.0679123851       22.8986244949       34.2725305016  TIP3      5524            0.0000000000
     66405      5925  TIP3      OH2            33.3522551727       26.6737189643       29.2392176729  TIP3      5525            0.0000000000
     66406      5925  TIP3      H1             32.5403783276       26.2368527939       28.9335986876  TIP3      5525            0.0000000000
     66407      5925  TIP3      H2             33.8150116851       25.9714483067       29.7492288696  TIP3      5525            0.0000000000
     66408      5926  TIP3      OH2            34.4227647392       35.9125895041       30.8900367856  TIP3      5526            0.0000000000
     66409      5926  TIP3      H1             34.3046668962       36.6064889799       30.2111021209  TIP3      5526            0.0000000000
     66410      5926  TIP3      H2             35.3834311478       35.9917067263       31.0739024196  TIP3      5526            0.0000000000
     66411      5927  TIP3      OH2            21.9645637247       20.0074022769       29.6487135962  TIP3      5527            0.0000000000
     66412      5927  TIP3      H1             21.7344306979       20.1318859431       28.6971433447  TIP3      5527            0.0000000000
     66413      5927  TIP3      H2             21.5335844290       19.2312084056       29.9930153505  TIP3      5527            0.0000000000
     66414      5928  TIP3      OH2            20.8576159852       33.9505270310       25.7866246708  TIP3      5528            0.0000000000
     66415      5928  TIP3      H1             20.0283047837       34.4552594125       25.8072670850  TIP3      5528            0.0000000000
     66416      5928  TIP3      H2             21.3898913845       34.4784539333       25.1693587173  TIP3      5528            0.0000000000
     66417      5929  TIP3      OH2            20.1206247246       36.6086890422       37.1072482171  TIP3      5529            0.0000000000
     66418      5929  TIP3      H1             20.6900149078       36.3892274375       37.8739072506  TIP3      5529            0.0000000000
     66419      5929  TIP3      H2             19.6675474131       35.7678940993       36.9311120632  TIP3      5529            0.0000000000
     66420      5930  TIP3      OH2            24.7477879652       35.5278032525       38.7406838748  TIP3      5530            0.0000000000
     66421      5930  TIP3      H1             25.5220082706       35.0483192161       39.0657235063  TIP3      5530            0.0000000000
     66422      5930  TIP3      H2             24.7333066880       35.2719944156       37.7946435925  TIP3      5530            0.0000000000
     66423      5931  TIP3      OH2            31.2937693433       33.9129147767       37.4548061413  TIP3      5531            0.0000000000
     66424      5931  TIP3      H1             30.9651831964       33.0284913191       37.7176049013  TIP3      5531            0.0000000000
     66425      5931  TIP3      H2             32.0499473469       34.0355503633       38.0593493141  TIP3      5531            0.0000000000
     66426      5932  TIP3      OH2            20.0223592779       30.3993951868       38.0908666305  TIP3      5532            0.0000000000
     66427      5932  TIP3      H1             20.1978026072       29.4891211138       37.7781047276  TIP3      5532            0.0000000000
     66428      5932  TIP3      H2             19.2672806866       30.6755796671       37.5496946940  TIP3      5532            0.0000000000
     66429      5933  TIP3      OH2            26.8870000438       30.4901305485       37.3817092599  TIP3      5533            0.0000000000
     66430      5933  TIP3      H1             26.3500644632       30.6681612006       36.6055566745  TIP3      5533            0.0000000000
     66431      5933  TIP3      H2             26.8099583606       29.4854625609       37.4377138320  TIP3      5533            0.0000000000
     66432      5934  TIP3      OH2            32.4274858574       30.2583266448       34.8849376669  TIP3      5534            0.0000000000
     66433      5934  TIP3      H1             33.1938431996       30.8656707225       34.7848605630  TIP3      5534            0.0000000000
     66434      5934  TIP3      H2             31.6960535208       30.8893725942       34.9343444899  TIP3      5534            0.0000000000
     66435      5935  TIP3      OH2            20.8828726880       27.6107924758       37.4795466760  TIP3      5535            0.0000000000
     66436      5935  TIP3      H1             21.3191642187       26.7548632597       37.3843240614  TIP3      5535            0.0000000000
     66437      5935  TIP3      H2             20.6605580720       27.6229636755       38.4286089073  TIP3      5535            0.0000000000
     66438      5936  TIP3      OH2            24.8103181776       26.5766811674       34.8440616486  TIP3      5536            0.0000000000
     66439      5936  TIP3      H1             24.2241138032       27.2946126159       35.1438049786  TIP3      5536            0.0000000000
     66440      5936  TIP3      H2             25.1937413090       26.9455765389       34.0343615552  TIP3      5536            0.0000000000
     66441      5937  TIP3      OH2            29.8778288054       29.1107641195       38.1805011032  TIP3      5537            0.0000000000
     66442      5937  TIP3      H1             30.8324128864       29.1390935108       38.1007018321  TIP3      5537            0.0000000000
     66443      5937  TIP3      H2             29.6919020707       28.3626457601       38.7682259473  TIP3      5537            0.0000000000
     66444      5938  TIP3      OH2            25.1937869990       23.9494188697       35.9260776251  TIP3      5538            0.0000000000
     66445      5938  TIP3      H1             25.3299147161       23.2265260211       35.2976363390  TIP3      5538            0.0000000000
     66446      5938  TIP3      H2             25.1784846549       24.7602546670       35.3762110300  TIP3      5538            0.0000000000
     66447      5939  TIP3      OH2            25.6044578951       22.3293047039       33.4560710966  TIP3      5539            0.0000000000
     66448      5939  TIP3      H1             26.1309980141       22.7883739295       32.7661728323  TIP3      5539            0.0000000000
     66449      5939  TIP3      H2             24.7245503925       22.2360791298       33.0222639927  TIP3      5539            0.0000000000
     66450      5940  TIP3      OH2            27.1616600011       27.7749048943       33.6698897981  TIP3      5540            0.0000000000
     66451      5940  TIP3      H1             27.9259766053       27.6312552927       33.1065208294  TIP3      5540            0.0000000000
     66452      5940  TIP3      H2             26.8190017867       28.6402164020       33.3973494223  TIP3      5540            0.0000000000
     66453      5941  TIP3      OH2            31.5779728275       25.5762262239       38.7042693284  TIP3      5541            0.0000000000
     66454      5941  TIP3      H1             31.7747550949       24.6389036588       38.5801838148  TIP3      5541            0.0000000000
     66455      5941  TIP3      H2             32.4415554302       26.0108397652       38.6765165568  TIP3      5541            0.0000000000
     66456      5942  TIP3      OH2            32.8908996549       28.3636850236       36.8178762051  TIP3      5542            0.0000000000
     66457      5942  TIP3      H1             32.6286288757       29.0877988601       36.2027199857  TIP3      5542            0.0000000000
     66458      5942  TIP3      H2             33.8491771985       28.3181087332       36.6205266195  TIP3      5542            0.0000000000
     66459      5943  TIP3      OH2            23.6626274303       25.1691260650       37.8646688493  TIP3      5543            0.0000000000
     66460      5943  TIP3      H1             22.8903326825       24.6225997789       37.6368336676  TIP3      5543            0.0000000000
     66461      5943  TIP3      H2             24.3343128983       24.8541262415       37.2316537708  TIP3      5543            0.0000000000
     66462      5944  TIP3      OH2            26.4045050189       19.7699684372       33.8750350961  TIP3      5544            0.0000000000
     66463      5944  TIP3      H1             26.2679082351       20.7393488647       33.7580034803  TIP3      5544            0.0000000000
     66464      5944  TIP3      H2             25.6484038624       19.4149764240       33.3729523992  TIP3      5544            0.0000000000
     66465      5945  TIP3      OH2            27.6854628508       24.0764449920       37.4429510159  TIP3      5545            0.0000000000
     66466      5945  TIP3      H1             27.3939516893       23.8915319984       38.3549013861  TIP3      5545            0.0000000000
     66467      5945  TIP3      H2             26.8738514612       23.9155546650       36.9237550708  TIP3      5545            0.0000000000
     66468      5946  TIP3      OH2            30.3940589462       23.2248889737       36.5077289385  TIP3      5546            0.0000000000
     66469      5946  TIP3      H1             29.4286097102       23.2788181826       36.6537967386  TIP3      5546            0.0000000000
     66470      5946  TIP3      H2             30.6783263670       22.6047629377       37.1965824693  TIP3      5546            0.0000000000
     66471      5947  TIP3      OH2            32.0125636075       21.8729218370       38.4981011712  TIP3      5547            0.0000000000
     66472      5947  TIP3      H1             31.9130763340       20.9008030683       38.4981674874  TIP3      5547            0.0000000000
     66473      5947  TIP3      H2             31.6855781797       22.1477644306       39.3834572888  TIP3      5547            0.0000000000
     66474      5948  TIP3      OH2            21.8026713342       23.1120268413       37.5637542639  TIP3      5548            0.0000000000
     66475      5948  TIP3      H1             22.0340537614       22.3797310542       36.9601364229  TIP3      5548            0.0000000000
     66476      5948  TIP3      H2             21.7084013740       22.6581425867       38.4252034831  TIP3      5548            0.0000000000
     66477      5949  TIP3      OH2            26.6122135886       19.1161548337       36.5536201712  TIP3      5549            0.0000000000
     66478      5949  TIP3      H1             27.3234035657       18.4405164312       36.5223791052  TIP3      5549            0.0000000000
     66479      5949  TIP3      H2             26.5170628618       19.3313276156       35.6070660783  TIP3      5549            0.0000000000
     66480      5950  TIP3      OH2            26.9751315070       20.7566851460       38.6225201776  TIP3      5550            0.0000000000
     66481      5950  TIP3      H1             26.8272830512       20.2706445760       37.7768992734  TIP3      5550            0.0000000000
     66482      5950  TIP3      H2             26.3778702147       21.5254220876       38.5360630824  TIP3      5550            0.0000000000
     66483      5951  TIP3      OH2            18.7576664221       37.6793117783       26.3160484730  TIP3      5551            0.0000000000
     66484      5951  TIP3      H1             18.0823219751       37.1905612540       25.7891567652  TIP3      5551            0.0000000000
     66485      5951  TIP3      H2             19.0799037345       36.9882518570       26.9173560489  TIP3      5551            0.0000000000
     66486      5952  TIP3      OH2            19.6034597077       35.7773263767       28.1329476466  TIP3      5552            0.0000000000
     66487      5952  TIP3      H1             19.2667599586       34.8832454430       28.3152671928  TIP3      5552            0.0000000000
     66488      5952  TIP3      H2             19.8364623005       36.0944155000       29.0176807264  TIP3      5552            0.0000000000
     66489      5953  TIP3      OH2            37.1436409592       36.5668196535       31.0945188490  TIP3      5553            0.0000000000
     66490      5953  TIP3      H1             37.1517136773       36.7510331860       32.0495514926  TIP3      5553            0.0000000000
     66491      5953  TIP3      H2             37.8471740641       37.1454839071       30.7772722903  TIP3      5553            0.0000000000
     66492      5954  TIP3      OH2            36.7207027655       36.1648959520       34.0327993531  TIP3      5554            0.0000000000
     66493      5954  TIP3      H1             36.2369399147       35.3947358399       33.6594378951  TIP3      5554            0.0000000000
     66494      5954  TIP3      H2             37.2460504355       35.7293376165       34.7225271248  TIP3      5554            0.0000000000
     66495      5955  TIP3      OH2            35.1708852124       31.8949124893       38.6731130458  TIP3      5555            0.0000000000
     66496      5955  TIP3      H1             34.2863926020       31.8440452785       39.0757426990  TIP3      5555            0.0000000000
     66497      5955  TIP3      H2             35.5422702956       32.6915062929       39.1228523114  TIP3      5555            0.0000000000
     66498      5956  TIP3      OH2            36.4573431823       30.2131182199       24.1699351818  TIP3      5556            0.0000000000
     66499      5956  TIP3      H1             37.3350423734       30.5970743684       24.3093253844  TIP3      5556            0.0000000000
     66500      5956  TIP3      H2             36.4824620768       29.4522703404       24.7889918097  TIP3      5556            0.0000000000
     66501      5957  TIP3      OH2            36.8528204758       28.2613912094       25.9953264529  TIP3      5557            0.0000000000
     66502      5957  TIP3      H1             36.1124688109       27.7650936764       26.4043802554  TIP3      5557            0.0000000000
     66503      5957  TIP3      H2             37.4442265135       28.4404906860       26.7557495194  TIP3      5557            0.0000000000
     66504      5958  TIP3      OH2            36.6048605686       31.0011091753       30.9809226466  TIP3      5558            0.0000000000
     66505      5958  TIP3      H1             37.4489522611       30.6368684894       30.6526987002  TIP3      5558            0.0000000000
     66506      5958  TIP3      H2             36.7409146784       31.9621469607       30.8303436942  TIP3      5558            0.0000000000
     66507      5959  TIP3      OH2            35.1443343007       33.8922232845       33.2773382974  TIP3      5559            0.0000000000
     66508      5959  TIP3      H1             34.4573899199       34.2302082509       33.8773646125  TIP3      5559            0.0000000000
     66509      5959  TIP3      H2             34.5931207002       33.4719285497       32.5781609169  TIP3      5559            0.0000000000
     66510      5960  TIP3      OH2            35.5366149096       25.3659511811       20.9411607497  TIP3      5560            0.0000000000
     66511      5960  TIP3      H1             35.5374802615       26.0315271388       20.2728742050  TIP3      5560            0.0000000000
     66512      5960  TIP3      H2             35.3135407913       24.5495054797       20.4666590801  TIP3      5560            0.0000000000
     66513      5961  TIP3      OH2            34.6558980495       26.7645556059       26.5700534471  TIP3      5561            0.0000000000
     66514      5961  TIP3      H1             34.5012845480       25.8091562714       26.5540361225  TIP3      5561            0.0000000000
     66515      5961  TIP3      H2             34.3036521272       27.0186634003       27.4397768201  TIP3      5561            0.0000000000
     66516      5962  TIP3      OH2            19.6676292042       28.8466419511       30.6132436814  TIP3      5562            0.0000000000
     66517      5962  TIP3      H1             19.8664365727       28.7618086715       29.6558622873  TIP3      5562            0.0000000000
     66518      5962  TIP3      H2             20.5524295915       28.6982395947       31.0003769255  TIP3      5562            0.0000000000
     66519      5963  TIP3      OH2            35.5004108863       28.7326990220       36.2400716936  TIP3      5563            0.0000000000
     66520      5963  TIP3      H1             36.1106621053       27.9842588620       36.3997734494  TIP3      5563            0.0000000000
     66521      5963  TIP3      H2             36.0929945369       29.5106653844       36.2612346354  TIP3      5563            0.0000000000
     66522      5964  TIP3      OH2            37.0069447657       26.6318061553       36.9332318313  TIP3      5564            0.0000000000
     66523      5964  TIP3      H1             36.1347580574       26.2365733632       36.7263486422  TIP3      5564            0.0000000000
     66524      5964  TIP3      H2             37.6043744912       25.8735526093       36.8176347554  TIP3      5564            0.0000000000
     66525      5965  TIP3      OH2            34.3389530293       24.3508518243       25.0385100549  TIP3      5565            0.0000000000
     66526      5965  TIP3      H1             34.6398486185       23.4200025773       25.1628853657  TIP3      5565            0.0000000000
     66527      5965  TIP3      H2             35.1230645663       24.7629090097       24.6511966921  TIP3      5565            0.0000000000
     66528      5966  TIP3      OH2            34.9599137245       24.8986149803       30.4708270924  TIP3      5566            0.0000000000
     66529      5966  TIP3      H1             35.9175861197       25.1355753625       30.4524515554  TIP3      5566            0.0000000000
     66530      5966  TIP3      H2             34.7554579068       25.0333335640       31.4096006409  TIP3      5566            0.0000000000
     66531      5967  TIP3      OH2            35.0216223150       25.6280229704       33.2548297651  TIP3      5567            0.0000000000
     66532      5967  TIP3      H1             34.1511362808       25.9228889329       33.6023527424  TIP3      5567            0.0000000000
     66533      5967  TIP3      H2             35.4541081726       26.4878912624       33.0339284930  TIP3      5567            0.0000000000
     66534      5968  TIP3      OH2            19.2739478500       24.1365817841       36.7495044369  TIP3      5568            0.0000000000
     66535      5968  TIP3      H1             20.2118223888       23.9681244388       36.9671865165  TIP3      5568            0.0000000000
     66536      5968  TIP3      H2             18.8296697865       23.3376439905       37.1039439305  TIP3      5568            0.0000000000
     66537      5969  TIP3      OH2            37.2869410040       19.6587926672       38.6077319178  TIP3      5569            0.0000000000
     66538      5969  TIP3      H1             37.6405240891       18.9931840058       37.9947510261  TIP3      5569            0.0000000000
     66539      5969  TIP3      H2             37.4296114587       20.4833584073       38.1171160451  TIP3      5569            0.0000000000
     66540      5970  TIP3      OH2            34.9821075461       21.6295806740       25.0929308291  TIP3      5570            0.0000000000
     66541      5970  TIP3      H1             35.1772279348       21.1642272174       25.9243842567  TIP3      5570            0.0000000000
     66542      5970  TIP3      H2             34.3747382959       21.0083897715       24.6239264749  TIP3      5570            0.0000000000
     66543      5971  TIP3      OH2            21.1063784497       22.4587331074       29.4727265602  TIP3      5571            0.0000000000
     66544      5971  TIP3      H1             20.9378897205       21.6349823912       29.9753505574  TIP3      5571            0.0000000000
     66545      5971  TIP3      H2             20.9840607854       23.1701398081       30.1322514778  TIP3      5571            0.0000000000
     66546      5972  TIP3      OH2            18.7736446015       25.4307057158       30.6825023780  TIP3      5572            0.0000000000
     66547      5972  TIP3      H1             19.3159124415       25.1873710599       29.9071800837  TIP3      5572            0.0000000000
     66548      5972  TIP3      H2             19.2017623203       26.2534275050       30.9519749637  TIP3      5572            0.0000000000
     66549      5973  TIP3      OH2            36.8182430126       21.7670928944       36.9753856853  TIP3      5573            0.0000000000
     66550      5973  TIP3      H1             35.8776256151       22.0231013060       36.9024034439  TIP3      5573            0.0000000000
     66551      5973  TIP3      H2             36.8983757939       21.2230042164       36.1661706214  TIP3      5573            0.0000000000
     66552      5974  TIP3      OH2            19.1354742653       21.7252338518       24.7290990409  TIP3      5574            0.0000000000
     66553      5974  TIP3      H1             18.1707119855       21.8548744512       24.6208113223  TIP3      5574            0.0000000000
     66554      5974  TIP3      H2             19.5615335857       22.1196416410       23.9936232173  TIP3      5574            0.0000000000
     66555      5975  TIP3      OH2            33.8682447050       36.6575545030       26.6940822293  TIP3      5575            0.0000000000
     66556      5975  TIP3      H1             34.5451293353       36.3262830681       26.0757428417  TIP3      5575            0.0000000000
     66557      5975  TIP3      H2             34.3984585847       37.1508204709       27.3367432324  TIP3      5575            0.0000000000
     66558      5976  TIP3      OH2            19.0928898875       20.3788783974       33.0629048651  TIP3      5576            0.0000000000
     66559      5976  TIP3      H1             18.4103009589       20.1785902699       33.7285472470  TIP3      5576            0.0000000000
     66560      5976  TIP3      H2             18.6276738847       21.0504810231       32.5041413193  TIP3      5576            0.0000000000
     66561      5977  TIP3      OH2            21.2986085413       33.5782300973       37.2259097538  TIP3      5577            0.0000000000
     66562      5977  TIP3      H1             20.4579005290       33.7716729556       36.7793405646  TIP3      5577            0.0000000000
     66563      5977  TIP3      H2             21.0289711719       33.5129259841       38.1504115322  TIP3      5577            0.0000000000
     66564      5978  TIP3      OH2            24.2177151578       34.5530488296       33.4931122820  TIP3      5578            0.0000000000
     66565      5978  TIP3      H1             23.8382672784       35.3948775183       33.2061880572  TIP3      5578            0.0000000000
     66566      5978  TIP3      H2             25.1420461255       34.6576049923       33.1814026692  TIP3      5578            0.0000000000
     66567      5979  TIP3      OH2            28.5332725438       35.9769396621       36.4192039909  TIP3      5579            0.0000000000
     66568      5979  TIP3      H1             28.7124836001       35.6304806595       37.3304674169  TIP3      5579            0.0000000000
     66569      5979  TIP3      H2             29.4177149417       36.2793633815       36.1400639486  TIP3      5579            0.0000000000
     66570      5980  TIP3      OH2            30.8495810839       37.2502318715       35.6882692723  TIP3      5580            0.0000000000
     66571      5980  TIP3      H1             31.5668568163       36.6357812367       35.4590730310  TIP3      5580            0.0000000000
     66572      5980  TIP3      H2             31.2146482342       37.6635786184       36.5019282092  TIP3      5580            0.0000000000
     66573      5981  TIP3      OH2            35.8267271636       19.8598201784       34.7953492849  TIP3      5581            0.0000000000
     66574      5981  TIP3      H1             34.9965967385       20.1613981533       34.3813543316  TIP3      5581            0.0000000000
     66575      5981  TIP3      H2             36.0234479784       19.0635839732       34.2504085174  TIP3      5581            0.0000000000
     66576      5982  TIP3      OH2            21.6402954374       37.8148055363       33.5100871428  TIP3      5582            0.0000000000
     66577      5982  TIP3      H1             20.9047071943       38.2725729574       33.0976545251  TIP3      5582            0.0000000000
     66578      5982  TIP3      H2             21.2967488377       37.5794168137       34.3895477617  TIP3      5582            0.0000000000
     66579      5983  TIP3      OH2            24.1116402235       37.3962717054       32.5648866333  TIP3      5583            0.0000000000
     66580      5983  TIP3      H1             23.2228062009       37.5044343415       32.9702077014  TIP3      5583            0.0000000000
     66581      5983  TIP3      H2             24.0496350198       37.9724799537       31.7801004061  TIP3      5583            0.0000000000
     66582      5984  TIP3      OH2            28.8139766250       37.2956506145       31.7348034753  TIP3      5584            0.0000000000
     66583      5984  TIP3      H1             28.3508725018       37.8434859708       31.0822040217  TIP3      5584            0.0000000000
     66584      5984  TIP3      H2             28.9649973732       37.9255073967       32.4701156510  TIP3      5584            0.0000000000
     66585      5985  TIP3      OH2            31.1335975828       36.1458391470       32.7114185167  TIP3      5585            0.0000000000
     66586      5985  TIP3      H1             30.2398132939       36.3682425036       32.4059487110  TIP3      5585            0.0000000000
     66587      5985  TIP3      H2             31.5716643123       37.0112479328       32.6305161588  TIP3      5585            0.0000000000
     66588      5986  TIP3      OH2            33.7204488729       37.7133207826       32.9934964676  TIP3      5586            0.0000000000
     66589      5986  TIP3      H1             33.5867923014       38.6657709055       32.7582530300  TIP3      5586            0.0000000000
     66590      5986  TIP3      H2             33.9128532146       37.3355518779       32.1156998190  TIP3      5586            0.0000000000
     66591      5987  TIP3      OH2            21.0609625755       36.4694363146       30.4400554384  TIP3      5587            0.0000000000
     66592      5987  TIP3      H1             21.0237991683       35.9969600782       31.3035950694  TIP3      5587            0.0000000000
     66593      5987  TIP3      H2             21.8784681655       36.0994471811       30.0356164510  TIP3      5587            0.0000000000
     66594      5988  TIP3      OH2            23.1708251809       35.1638472927       29.0831904108  TIP3      5588            0.0000000000
     66595      5988  TIP3      H1             22.9856585741       34.2298282355       29.2890984485  TIP3      5588            0.0000000000
     66596      5988  TIP3      H2             24.0243821838       35.2972806046       29.5570644014  TIP3      5588            0.0000000000
     66597      5989  TIP3      OH2            25.7440670524       35.6426718515       29.9497298877  TIP3      5589            0.0000000000
     66598      5989  TIP3      H1             25.9415287837       34.7289393834       29.6766733434  TIP3      5589            0.0000000000
     66599      5989  TIP3      H2             25.8058868016       35.5814592442       30.9121463909  TIP3      5589            0.0000000000
     66600      5990  TIP3      OH2            29.2228164030       21.3014246342       29.0849563744  TIP3      5590            0.0000000000
     66601      5990  TIP3      H1             28.5633929781       20.6441836757       29.3616280005  TIP3      5590            0.0000000000
     66602      5990  TIP3      H2             29.7958190349       20.7829232594       28.5027397670  TIP3      5590            0.0000000000
     66603      5991  TIP3      OH2            34.3698991525       19.3688517533       29.1990160994  TIP3      5591            0.0000000000
     66604      5991  TIP3      H1             34.9889224990       19.9458927046       28.6819144971  TIP3      5591            0.0000000000
     66605      5991  TIP3      H2             33.4937574424       19.7138867066       28.9491731028  TIP3      5591            0.0000000000
     66606      5992  TIP3      OH2            36.0620071461       20.5576922988       27.5099084067  TIP3      5592            0.0000000000
     66607      5992  TIP3      H1             36.7281619461       20.0168913295       27.0188986861  TIP3      5592            0.0000000000
     66608      5992  TIP3      H2             36.5154281754       21.4259462706       27.5644040974  TIP3      5592            0.0000000000
     66609      5993  TIP3      OH2            21.5571780823       19.9091445024       26.9645674589  TIP3      5593            0.0000000000
     66610      5993  TIP3      H1             20.7936811392       19.6989372773       26.3940535504  TIP3      5593            0.0000000000
     66611      5993  TIP3      H2             22.1026378078       19.1026206625       26.8802851929  TIP3      5593            0.0000000000
     66612      5994  TIP3      OH2            20.4036379231       19.7080194971       22.7225808457  TIP3      5594            0.0000000000
     66613      5994  TIP3      H1             20.8435433354       20.3175561891       22.1191706542  TIP3      5594            0.0000000000
     66614      5994  TIP3      H2             19.7616541642       20.2345816334       23.1974596705  TIP3      5594            0.0000000000
     66615      5995  TIP3      OH2            26.1126613863       19.8547865225       26.7250384384  TIP3      5595            0.0000000000
     66616      5995  TIP3      H1             27.0108496098       20.2232537281       26.6896690014  TIP3      5595            0.0000000000
     66617      5995  TIP3      H2             26.0286351406       19.6289762440       27.6543935465  TIP3      5595            0.0000000000
     66618      5996  TIP3      OH2            31.7352143320       19.8808346473       28.3742358999  TIP3      5596            0.0000000000
     66619      5996  TIP3      H1             31.7641588500       19.9696549204       27.4168393494  TIP3      5596            0.0000000000
     66620      5996  TIP3      H2             31.4092434617       18.9594549118       28.5011372476  TIP3      5596            0.0000000000
     66621      5997  TIP3      OH2            33.0610760988       19.9098677850       24.0564574490  TIP3      5597            0.0000000000
     66622      5997  TIP3      H1             32.3290394773       20.5099165351       23.8520438978  TIP3      5597            0.0000000000
     66623      5997  TIP3      H2             32.6004409849       19.0527910954       24.1972543375  TIP3      5597            0.0000000000
     66624      5998  TIP3      OH2            20.2962339794       35.6528972187       23.6563673476  TIP3      5598            0.0000000000
     66625      5998  TIP3      H1             19.6182207263       35.6322020702       22.9536190582  TIP3      5598            0.0000000000
     66626      5998  TIP3      H2             20.3044893203       36.5941827422       23.8748491857  TIP3      5598            0.0000000000
     66627      5999  TIP3      OH2            27.2606103808       21.9217255848       23.6044958260  TIP3      5599            0.0000000000
     66628      5999  TIP3      H1             27.4688120943       21.2787181572       24.2993266720  TIP3      5599            0.0000000000
     66629      5999  TIP3      H2             27.2533136130       22.7549397271       24.0876813725  TIP3      5599            0.0000000000
     66630      6000  TIP3      OH2            35.8779138250       36.4516408993       24.7272910532  TIP3      5600            0.0000000000
     66631      6000  TIP3      H1             35.6686008470       35.6791026661       24.1370383446  TIP3      5600            0.0000000000
     66632      6000  TIP3      H2             35.8113858758       37.1912308081       24.0907683992  TIP3      5600            0.0000000000
     66633      6001  TIP3      OH2            21.4956543100       20.4551190699       36.4084233935  TIP3      5601            0.0000000000
     66634      6001  TIP3      H1             21.1391617693       19.6641440456       36.8567296895  TIP3      5601            0.0000000000
     66635      6001  TIP3      H2             22.4253065561       20.4451316553       36.7456767404  TIP3      5601            0.0000000000
     66636      6002  TIP3      OH2            23.4957933809       19.8290796080       38.0005768112  TIP3      5602            0.0000000000
     66637      6002  TIP3      H1             24.3929300267       19.4988596628       37.7879177103  TIP3      5602            0.0000000000
     66638      6002  TIP3      H2             23.1142271922       19.0396084384       38.4381585316  TIP3      5602            0.0000000000
     66639      6003  TIP3      OH2            31.9004419575       19.1359213967       38.1642355167  TIP3      5603            0.0000000000
     66640      6003  TIP3      H1             31.9982220658       18.6746714103       39.0194575372  TIP3      5603            0.0000000000
     66641      6003  TIP3      H2             32.8170366558       19.1205960896       37.8199094847  TIP3      5603            0.0000000000
     66642      6004  TIP3      OH2            35.1037746839       35.1756506407       36.8521266332  TIP3      5604            0.0000000000
     66643      6004  TIP3      H1             34.3005065438       35.0240755175       36.3080818382  TIP3      5604            0.0000000000
     66644      6004  TIP3      H2             35.0039651126       36.1314919535       37.0485949205  TIP3      5604            0.0000000000
     66645      6005  TIP3      OH2            49.5273750088       29.0684764033       26.8603417861  TIP3      5605            0.0000000000
     66646      6005  TIP3      H1             49.5565580975       30.0288869058       26.7408449762  TIP3      5605            0.0000000000
     66647      6005  TIP3      H2             48.8426962805       28.8074469465       26.2177154704  TIP3      5605            0.0000000000
     66648      6006  TIP3      OH2            48.4141928573       28.3341418901       30.3068991368  TIP3      5606            0.0000000000
     66649      6006  TIP3      H1             48.3881448599       27.6756413661       31.0076695525  TIP3      5606            0.0000000000
     66650      6006  TIP3      H2             48.0916945715       27.8438504891       29.5313222435  TIP3      5606            0.0000000000
     66651      6007  TIP3      OH2            40.7699044265       27.9707911537       31.8731860152  TIP3      5607            0.0000000000
     66652      6007  TIP3      H1             40.8459946322       27.2995346878       32.5865175813  TIP3      5607            0.0000000000
     66653      6007  TIP3      H2             41.5052322468       28.5600732076       32.0642241496  TIP3      5607            0.0000000000
     66654      6008  TIP3      OH2            52.0831259098       31.2940498389       28.5675850293  TIP3      5608            0.0000000000
     66655      6008  TIP3      H1             51.7113931713       30.5484424085       29.0669638697  TIP3      5608            0.0000000000
     66656      6008  TIP3      H2             52.1289844880       31.9807532663       29.2599826055  TIP3      5608            0.0000000000
     66657      6009  TIP3      OH2            41.6989751626       32.4220247041       30.4067620042  TIP3      5609            0.0000000000
     66658      6009  TIP3      H1             41.3614870154       31.5836471445       30.0387345872  TIP3      5609            0.0000000000
     66659      6009  TIP3      H2             42.6548160488       32.2337590400       30.4379060156  TIP3      5609            0.0000000000
     66660      6010  TIP3      OH2            38.3416369372       26.0285453389       25.8293982717  TIP3      5610            0.0000000000
     66661      6010  TIP3      H1             37.8828893261       26.8957216810       25.7877766353  TIP3      5610            0.0000000000
     66662      6010  TIP3      H2             37.7628526519       25.4761643275       25.2887318463  TIP3      5610            0.0000000000
     66663      6011  TIP3      OH2            39.0287703155       28.2252301296       27.9535029433  TIP3      5611            0.0000000000
     66664      6011  TIP3      H1             39.2757741230       27.4274060777       28.4547608196  TIP3      5611            0.0000000000
     66665      6011  TIP3      H2             39.7682073918       28.3152518057       27.3330516439  TIP3      5611            0.0000000000
     66666      6012  TIP3      OH2            49.2158158133       36.3906509849       28.8044618693  TIP3      5612            0.0000000000
     66667      6012  TIP3      H1             49.8772539082       35.7122241992       28.5506855531  TIP3      5612            0.0000000000
     66668      6012  TIP3      H2             49.0269644105       36.1405874758       29.7128716062  TIP3      5612            0.0000000000
     66669      6013  TIP3      OH2            46.7918282783       30.7567593379       30.7295707276  TIP3      5613            0.0000000000
     66670      6013  TIP3      H1             47.1197497855       30.0789641780       30.1148248154  TIP3      5613            0.0000000000
     66671      6013  TIP3      H2             47.5668005788       30.8759642734       31.3059716798  TIP3      5613            0.0000000000
     66672      6014  TIP3      OH2            55.4371461864       22.3631769471       31.5365603666  TIP3      5614            0.0000000000
     66673      6014  TIP3      H1             55.5467047615       22.9820875328       32.2926084037  TIP3      5614            0.0000000000
     66674      6014  TIP3      H2             55.9253888750       22.8198985870       30.8382895475  TIP3      5614            0.0000000000
     66675      6015  TIP3      OH2            49.9528940855       25.1835937963       31.0625376750  TIP3      5615            0.0000000000
     66676      6015  TIP3      H1             50.1031112836       24.2176474743       31.0553551102  TIP3      5615            0.0000000000
     66677      6015  TIP3      H2             49.8490544751       25.3462409932       30.1023736636  TIP3      5615            0.0000000000
     66678      6016  TIP3      OH2            43.0952223095       23.2667748220       28.3154710358  TIP3      5616            0.0000000000
     66679      6016  TIP3      H1             43.1612236674       24.1196000986       27.8569135866  TIP3      5616            0.0000000000
     66680      6016  TIP3      H2             42.6577343955       22.7030939325       27.6447964268  TIP3      5616            0.0000000000
     66681      6017  TIP3      OH2            50.8218077124       23.3738346630       26.6863571933  TIP3      5617            0.0000000000
     66682      6017  TIP3      H1             51.4888930139       23.0524816260       27.3369890858  TIP3      5617            0.0000000000
     66683      6017  TIP3      H2             51.3631755611       23.9188034741       26.0937480740  TIP3      5617            0.0000000000
     66684      6018  TIP3      OH2            39.7057216875       25.6777413742       29.0543293139  TIP3      5618            0.0000000000
     66685      6018  TIP3      H1             40.3806425818       25.1146384898       29.4905872527  TIP3      5618            0.0000000000
     66686      6018  TIP3      H2             39.7739500517       25.3759684826       28.1358758251  TIP3      5618            0.0000000000
     66687      6019  TIP3      OH2            44.8719587457       27.2331177213       28.3092482314  TIP3      5619            0.0000000000
     66688      6019  TIP3      H1             45.5108168066       26.6649321833       28.7725357395  TIP3      5619            0.0000000000
     66689      6019  TIP3      H2             44.3135853523       26.5642866486       27.8603742109  TIP3      5619            0.0000000000
     66690      6020  TIP3      OH2            55.8842559351       23.8267858937       33.7830035469  TIP3      5620            0.0000000000
     66691      6020  TIP3      H1             55.1994867638       24.5229440629       33.6845082214  TIP3      5620            0.0000000000
     66692      6020  TIP3      H2             55.8748277523       23.6654998913       34.7399861721  TIP3      5620            0.0000000000
     66693      6021  TIP3      OH2            41.9030831853       22.1400687782       32.3344881222  TIP3      5621            0.0000000000
     66694      6021  TIP3      H1             41.6938928705       22.7375532606       31.5994585973  TIP3      5621            0.0000000000
     66695      6021  TIP3      H2             41.2634481581       22.4148790600       33.0339990700  TIP3      5621            0.0000000000
     66696      6022  TIP3      OH2            49.1583072390       31.5459543335       25.8672692764  TIP3      5622            0.0000000000
     66697      6022  TIP3      H1             48.9518682416       31.3104259915       24.9532997625  TIP3      5622            0.0000000000
     66698      6022  TIP3      H2             48.8573545200       32.4768088033       25.8976017964  TIP3      5622            0.0000000000
     66699      6023  TIP3      OH2            44.4936910072       29.8493656419       32.6907938915  TIP3      5623            0.0000000000
     66700      6023  TIP3      H1             43.7503804049       30.4694151325       32.7178562966  TIP3      5623            0.0000000000
     66701      6023  TIP3      H2             45.2024670966       30.4042910391       32.3103245692  TIP3      5623            0.0000000000
     66702      6024  TIP3      OH2            52.6093482111       22.6889342420       28.6707028875  TIP3      5624            0.0000000000
     66703      6024  TIP3      H1             52.3915901173       21.9241511892       29.2135449391  TIP3      5624            0.0000000000
     66704      6024  TIP3      H2             53.2731406576       23.1443991395       29.2073926809  TIP3      5624            0.0000000000
     66705      6025  TIP3      OH2            41.5070865965       24.0541042965       30.3433338661  TIP3      5625            0.0000000000
     66706      6025  TIP3      H1             42.1520920612       24.7131339319       30.6951331270  TIP3      5625            0.0000000000
     66707      6025  TIP3      H2             42.0466714319       23.6028447086       29.6516067095  TIP3      5625            0.0000000000
     66708      6026  TIP3      OH2            42.7906428085       31.8598225036       33.0732415781  TIP3      5626            0.0000000000
     66709      6026  TIP3      H1             42.8871278911       32.8338917279       33.0096475909  TIP3      5626            0.0000000000
     66710      6026  TIP3      H2             42.0218928752       31.7989206195       33.6914575603  TIP3      5626            0.0000000000
     66711      6027  TIP3      OH2            39.0023876015       31.4654384865       24.2324836294  TIP3      5627            0.0000000000
     66712      6027  TIP3      H1             38.7583436501       31.7338773368       23.3221670689  TIP3      5627            0.0000000000
     66713      6027  TIP3      H2             39.0697371267       32.3241038897       24.6913816738  TIP3      5627            0.0000000000
     66714      6028  TIP3      OH2            52.6304031239       33.0940107877       30.9306771612  TIP3      5628            0.0000000000
     66715      6028  TIP3      H1             51.6732105542       33.1933202754       31.1120211060  TIP3      5628            0.0000000000
     66716      6028  TIP3      H2             52.9197329699       34.0209106585       30.7994024453  TIP3      5628            0.0000000000
     66717      6029  TIP3      OH2            52.9546027571       21.4036261859       32.3575768129  TIP3      5629            0.0000000000
     66718      6029  TIP3      H1             52.2130939150       22.0164279802       32.2943818476  TIP3      5629            0.0000000000
     66719      6029  TIP3      H2             53.6466257239       21.8201084288       31.8215886035  TIP3      5629            0.0000000000
     66720      6030  TIP3      OH2            45.9397355294       19.4970534237       29.7968043768  TIP3      5630            0.0000000000
     66721      6030  TIP3      H1             45.8130378904       18.5300619570       29.7599247790  TIP3      5630            0.0000000000
     66722      6030  TIP3      H2             45.0712725156       19.8150972893       30.1155892122  TIP3      5630            0.0000000000
     66723      6031  TIP3      OH2            50.8995790203       34.8983868604       27.5676413656  TIP3      5631            0.0000000000
     66724      6031  TIP3      H1             51.4230946750       34.2337914159       27.0901074275  TIP3      5631            0.0000000000
     66725      6031  TIP3      H2             51.2681535062       35.7190433810       27.1653875061  TIP3      5631            0.0000000000
     66726      6032  TIP3      OH2            52.1231393428       32.7879550839       26.0637298347  TIP3      5632            0.0000000000
     66727      6032  TIP3      H1             51.8576193437       32.0796706497       25.4367775592  TIP3      5632            0.0000000000
     66728      6032  TIP3      H2             52.1845431922       32.3115448611       26.9202823226  TIP3      5632            0.0000000000
     66729      6033  TIP3      OH2            53.7312851967       31.3758463308       34.5618969572  TIP3      5633            0.0000000000
     66730      6033  TIP3      H1             53.8672236630       30.7584748569       33.8136829906  TIP3      5633            0.0000000000
     66731      6033  TIP3      H2             53.9195220572       32.2424087232       34.1654776658  TIP3      5633            0.0000000000
     66732      6034  TIP3      OH2            48.2166303871       28.3306965741       24.3450442133  TIP3      5634            0.0000000000
     66733      6034  TIP3      H1             47.4981871682       28.8589201952       23.9550583218  TIP3      5634            0.0000000000
     66734      6034  TIP3      H2             48.9084236588       28.3724650181       23.6477445834  TIP3      5634            0.0000000000
     66735      6035  TIP3      OH2            55.5549656599       27.6781230014       32.5985907370  TIP3      5635            0.0000000000
     66736      6035  TIP3      H1             54.9280211116       28.4205297954       32.6900366209  TIP3      5635            0.0000000000
     66737      6035  TIP3      H2             56.0526515916       27.9389969043       31.7989113757  TIP3      5635            0.0000000000
     66738      6036  TIP3      OH2            51.6378464781       28.5431564578       25.2655646788  TIP3      5636            0.0000000000
     66739      6036  TIP3      H1             50.8869943286       28.7461883882       25.8654361529  TIP3      5636            0.0000000000
     66740      6036  TIP3      H2             52.0961955884       27.8206719315       25.7441508534  TIP3      5636            0.0000000000
     66741      6037  TIP3      OH2            51.5536949280       26.6790971057       34.3540156522  TIP3      5637            0.0000000000
     66742      6037  TIP3      H1             51.5826739687       27.4810820236       34.9045363866  TIP3      5637            0.0000000000
     66743      6037  TIP3      H2             50.9254155179       26.9845544027       33.6624540088  TIP3      5637            0.0000000000
     66744      6038  TIP3      OH2            43.2695488710       29.1816901288       27.1651615597  TIP3      5638            0.0000000000
     66745      6038  TIP3      H1             42.9397858207       28.7834817240       26.3246048647  TIP3      5638            0.0000000000
     66746      6038  TIP3      H2             43.8708214908       28.4784125482       27.5016285708  TIP3      5638            0.0000000000
     66747      6039  TIP3      OH2            44.6021828819       32.5807282893       29.8536169437  TIP3      5639            0.0000000000
     66748      6039  TIP3      H1             44.5556234543       32.0173758746       29.0687744098  TIP3      5639            0.0000000000
     66749      6039  TIP3      H2             45.3763858486       32.2091997131       30.3094507171  TIP3      5639            0.0000000000
     66750      6040  TIP3      OH2            43.6091209183       27.9341862550       30.8038177967  TIP3      5640            0.0000000000
     66751      6040  TIP3      H1             44.1838472776       28.0381257008       30.0182492627  TIP3      5640            0.0000000000
     66752      6040  TIP3      H2             43.9731723710       28.5775893609       31.4291117802  TIP3      5640            0.0000000000
     66753      6041  TIP3      OH2            49.9683062430       33.4658680401       31.5007795842  TIP3      5641            0.0000000000
     66754      6041  TIP3      H1             49.7103845900       34.0998578941       32.1815312721  TIP3      5641            0.0000000000
     66755      6041  TIP3      H2             49.7448913075       32.6109894743       31.9588877734  TIP3      5641            0.0000000000
     66756      6042  TIP3      OH2            44.5871130263       32.3862556516       35.5292049527  TIP3      5642            0.0000000000
     66757      6042  TIP3      H1             44.2041221818       33.1528855693       36.0124781831  TIP3      5642            0.0000000000
     66758      6042  TIP3      H2             43.9818267819       32.3110325585       34.7912725911  TIP3      5642            0.0000000000
     66759      6043  TIP3      OH2            50.4889450192       27.7121133239       22.9429382855  TIP3      5643            0.0000000000
     66760      6043  TIP3      H1             51.0730478589       27.8605736736       23.7131653593  TIP3      5643            0.0000000000
     66761      6043  TIP3      H2             50.9246643823       28.1830686556       22.2200351137  TIP3      5643            0.0000000000
     66762      6044  TIP3      OH2            41.4833376617       28.5582936654       34.6928959269  TIP3      5644            0.0000000000
     66763      6044  TIP3      H1             41.4774809437       29.1557008151       35.4538031065  TIP3      5644            0.0000000000
     66764      6044  TIP3      H2             40.5426984668       28.6045965511       34.4308068548  TIP3      5644            0.0000000000
     66765      6045  TIP3      OH2            48.2727366939       34.4258956319       26.3834912333  TIP3      5645            0.0000000000
     66766      6045  TIP3      H1             48.6506859805       34.7672268239       27.2037529385  TIP3      5645            0.0000000000
     66767      6045  TIP3      H2             47.6585849878       35.1581667315       26.1657287430  TIP3      5645            0.0000000000
     66768      6046  TIP3      OH2            42.7794865155       34.3489818111       36.2685339588  TIP3      5646            0.0000000000
     66769      6046  TIP3      H1             42.7407428917       34.3028128863       35.3029824095  TIP3      5646            0.0000000000
     66770      6046  TIP3      H2             41.8344801607       34.2917617635       36.5295435994  TIP3      5646            0.0000000000
     66771      6047  TIP3      OH2            54.2078991987       19.4377727659       22.7603543398  TIP3      5647            0.0000000000
     66772      6047  TIP3      H1             53.2754900837       19.5759173890       23.0642416861  TIP3      5647            0.0000000000
     66773      6047  TIP3      H2             54.4363631511       20.3054635544       22.4019233953  TIP3      5647            0.0000000000
     66774      6048  TIP3      OH2            42.2528132298       28.2206903854       24.7883287532  TIP3      5648            0.0000000000
     66775      6048  TIP3      H1             41.9572352135       28.9941735903       24.2522975996  TIP3      5648            0.0000000000
     66776      6048  TIP3      H2             41.5806592457       27.5663769461       24.5764995161  TIP3      5648            0.0000000000
     66777      6049  TIP3      OH2            55.3612517731       33.8376539951       21.1592028351  TIP3      5649            0.0000000000
     66778      6049  TIP3      H1             55.4697772019       34.7721053657       21.3238351960  TIP3      5649            0.0000000000
     66779      6049  TIP3      H2             56.2703754659       33.4750424652       21.1043932670  TIP3      5649            0.0000000000
     66780      6050  TIP3      OH2            38.3595913936       30.6134999575       33.6117014632  TIP3      5650            0.0000000000
     66781      6050  TIP3      H1             37.8574302727       30.5509684277       32.7720289217  TIP3      5650            0.0000000000
     66782      6050  TIP3      H2             38.3608371250       29.6719134127       33.8688638288  TIP3      5650            0.0000000000
     66783      6051  TIP3      OH2            38.0932978019       33.3598804687       30.4501056909  TIP3      5651            0.0000000000
     66784      6051  TIP3      H1             39.0496461710       33.2357172695       30.4298685120  TIP3      5651            0.0000000000
     66785      6051  TIP3      H2             37.9978003219       34.1656675906       30.9742799227  TIP3      5651            0.0000000000
     66786      6052  TIP3      OH2            47.2777751918       33.6028298457       34.9936973278  TIP3      5652            0.0000000000
     66787      6052  TIP3      H1             47.3640125594       34.4485354193       35.4990768011  TIP3      5652            0.0000000000
     66788      6052  TIP3      H2             46.4093201166       33.2728685295       35.2627983839  TIP3      5652            0.0000000000
     66789      6053  TIP3      OH2            47.7106691482       37.3508447270       24.7898356496  TIP3      5653            0.0000000000
     66790      6053  TIP3      H1             47.6146721973       37.2943338124       23.8525780735  TIP3      5653            0.0000000000
     66791      6053  TIP3      H2             47.7349444645       38.3252407329       24.9585253348  TIP3      5653            0.0000000000
     66792      6054  TIP3      OH2            41.3599400400       36.2091682382       26.6012420420  TIP3      5654            0.0000000000
     66793      6054  TIP3      H1             41.4975792604       35.8110454105       27.4874083007  TIP3      5654            0.0000000000
     66794      6054  TIP3      H2             40.5020065313       35.8166623108       26.3604897732  TIP3      5654            0.0000000000
     66795      6055  TIP3      OH2            50.4468590845       36.4734747588       24.5580995676  TIP3      5655            0.0000000000
     66796      6055  TIP3      H1             49.5082236051       36.5734524248       24.7649146088  TIP3      5655            0.0000000000
     66797      6055  TIP3      H2             50.7499758670       35.7718139013       25.1395872052  TIP3      5655            0.0000000000
     66798      6056  TIP3      OH2            53.4556889601       25.5418526502       36.6068226994  TIP3      5656            0.0000000000
     66799      6056  TIP3      H1             53.0156572647       26.0059650669       35.8805084389  TIP3      5656            0.0000000000
     66800      6056  TIP3      H2             53.4839842246       24.6210056454       36.2961464244  TIP3      5656            0.0000000000
     66801      6057  TIP3      OH2            40.6540463424       31.8997909926       34.6016235079  TIP3      5657            0.0000000000
     66802      6057  TIP3      H1             40.7696340268       31.5669674565       35.5060657186  TIP3      5657            0.0000000000
     66803      6057  TIP3      H2             39.7457544769       31.5561412494       34.3876373709  TIP3      5657            0.0000000000
     66804      6058  TIP3      OH2            43.2568759820       20.3900633956       30.5763250164  TIP3      5658            0.0000000000
     66805      6058  TIP3      H1             42.3554863868       20.2992649257       30.1933087358  TIP3      5658            0.0000000000
     66806      6058  TIP3      H2             43.1823844070       21.2421437930       31.0394433049  TIP3      5658            0.0000000000
     66807      6059  TIP3      OH2            47.9729274441       19.9774430028       33.8712702511  TIP3      5659            0.0000000000
     66808      6059  TIP3      H1             48.3083663436       19.6875079201       34.7320535106  TIP3      5659            0.0000000000
     66809      6059  TIP3      H2             46.9859299429       19.9837771690       34.0849348228  TIP3      5659            0.0000000000
     66810      6060  TIP3      OH2            51.2177012217       23.8921096148       34.8220713893  TIP3      5660            0.0000000000
     66811      6060  TIP3      H1             50.6639570838       23.7185169152       35.6224421463  TIP3      5660            0.0000000000
     66812      6060  TIP3      H2             51.0408985083       24.8119468110       34.5819028231  TIP3      5660            0.0000000000
     66813      6061  TIP3      OH2            43.3428490163       25.3616434267       31.7303156820  TIP3      5661            0.0000000000
     66814      6061  TIP3      H1             42.6644033903       25.3273306335       32.4300722852  TIP3      5661            0.0000000000
     66815      6061  TIP3      H2             43.3414890392       26.2962770460       31.4455439660  TIP3      5661            0.0000000000
     66816      6062  TIP3      OH2            43.3287006946       25.5531084051       26.6469108208  TIP3      5662            0.0000000000
     66817      6062  TIP3      H1             42.4083661862       25.2370604382       26.5400921802  TIP3      5662            0.0000000000
     66818      6062  TIP3      H2             43.7452982191       25.1916218654       25.8368197619  TIP3      5662            0.0000000000
     66819      6063  TIP3      OH2            48.8469078772       25.9840280817       25.4291554782  TIP3      5663            0.0000000000
     66820      6063  TIP3      H1             48.4481253188       26.8247822422       25.1150031792  TIP3      5663            0.0000000000
     66821      6063  TIP3      H2             49.5657886519       25.8446091035       24.7884216329  TIP3      5663            0.0000000000
     66822      6064  TIP3      OH2            47.9415241702       26.2081338300       36.9055011896  TIP3      5664            0.0000000000
     66823      6064  TIP3      H1             47.3848169825       25.4455833650       37.2076568541  TIP3      5664            0.0000000000
     66824      6064  TIP3      H2             48.7724965125       26.0511543923       37.3776019589  TIP3      5664            0.0000000000
     66825      6065  TIP3      OH2            49.8708743902       25.4629008580       28.2697605741  TIP3      5665            0.0000000000
     66826      6065  TIP3      H1             49.6409807774       26.0413657119       27.5214563305  TIP3      5665            0.0000000000
     66827      6065  TIP3      H2             50.0186453987       24.6155355653       27.8008820436  TIP3      5665            0.0000000000
     66828      6066  TIP3      OH2            41.0381464404       25.6686310764       33.5309982568  TIP3      5666            0.0000000000
     66829      6066  TIP3      H1             41.0420295137       26.0543324720       34.4204959895  TIP3      5666            0.0000000000
     66830      6066  TIP3      H2             40.5682081179       24.8325299861       33.6755650977  TIP3      5666            0.0000000000
     66831      6067  TIP3      OH2            37.6593261330       22.7774191792       27.4347804602  TIP3      5667            0.0000000000
     66832      6067  TIP3      H1             38.3218097539       22.7411719408       28.1531343774  TIP3      5667            0.0000000000
     66833      6067  TIP3      H2             38.1233392362       22.3613559426       26.6851391732  TIP3      5667            0.0000000000
     66834      6068  TIP3      OH2            38.9382563658       23.4985461807       22.8718727394  TIP3      5668            0.0000000000
     66835      6068  TIP3      H1             39.4348564710       24.0905604235       22.2595069956  TIP3      5668            0.0000000000
     66836      6068  TIP3      H2             38.2261027659       24.0922480636       23.1615466458  TIP3      5668            0.0000000000
     66837      6069  TIP3      OH2            49.1070600566       27.0837885958       32.8886407279  TIP3      5669            0.0000000000
     66838      6069  TIP3      H1             49.4544604392       26.4190263740       32.2644682098  TIP3      5669            0.0000000000
     66839      6069  TIP3      H2             48.6555113596       26.5335626933       33.5567976078  TIP3      5669            0.0000000000
     66840      6070  TIP3      OH2            45.8968337994       23.0213025220       27.6884297924  TIP3      5670            0.0000000000
     66841      6070  TIP3      H1             44.9619713516       23.0590795760       27.9885285654  TIP3      5670            0.0000000000
     66842      6070  TIP3      H2             46.3929725037       22.9220076323       28.5120231111  TIP3      5670            0.0000000000
     66843      6071  TIP3      OH2            40.7193665783       24.6207376385       26.5405307545  TIP3      5671            0.0000000000
     66844      6071  TIP3      H1             39.8205022807       24.7399679599       26.1730104067  TIP3      5671            0.0000000000
     66845      6071  TIP3      H2             41.0106283418       23.7785161184       26.1553928748  TIP3      5671            0.0000000000
     66846      6072  TIP3      OH2            44.3571854470       24.6751268616       24.2133809656  TIP3      5672            0.0000000000
     66847      6072  TIP3      H1             45.3163781200       24.7490604096       24.3539722045  TIP3      5672            0.0000000000
     66848      6072  TIP3      H2             44.1402068930       25.2969797079       23.5029899330  TIP3      5672            0.0000000000
     66849      6073  TIP3      OH2            50.3068305610       22.2604139903       30.9433622602  TIP3      5673            0.0000000000
     66850      6073  TIP3      H1             49.6096193690       22.3544530368       31.6315470466  TIP3      5673            0.0000000000
     66851      6073  TIP3      H2             49.8027741864       22.0640746313       30.1425005857  TIP3      5673            0.0000000000
     66852      6074  TIP3      OH2            43.0643983555       25.8301051298       21.7672667337  TIP3      5674            0.0000000000
     66853      6074  TIP3      H1             42.4945825858       25.4610943011       21.0646982270  TIP3      5674            0.0000000000
     66854      6074  TIP3      H2             43.8679166900       26.0143397080       21.2919878530  TIP3      5674            0.0000000000
     66855      6075  TIP3      OH2            53.5434791271       37.9062833753       37.2592531329  TIP3      5675            0.0000000000
     66856      6075  TIP3      H1             53.7874842812       38.3135359435       36.4028984460  TIP3      5675            0.0000000000
     66857      6075  TIP3      H2             54.2331537853       38.2533879854       37.8368733871  TIP3      5675            0.0000000000
     66858      6076  TIP3      OH2            41.2215544824       30.4135436436       36.8011323895  TIP3      5676            0.0000000000
     66859      6076  TIP3      H1             41.8975349854       30.6334128942       37.4635744364  TIP3      5676            0.0000000000
     66860      6076  TIP3      H2             40.4053827666       30.5393119904       37.3727479592  TIP3      5676            0.0000000000
     66861      6077  TIP3      OH2            47.1948664090       25.7990507859       29.5809220120  TIP3      5677            0.0000000000
     66862      6077  TIP3      H1             47.7786763429       25.2532099483       29.0382586592  TIP3      5677            0.0000000000
     66863      6077  TIP3      H2             47.0529621996       25.2595163397       30.3715763706  TIP3      5677            0.0000000000
     66864      6078  TIP3      OH2            42.2013706868       21.9456261241       26.0272716984  TIP3      5678            0.0000000000
     66865      6078  TIP3      H1             41.8954871782       21.0236276367       25.9735859327  TIP3      5678            0.0000000000
     66866      6078  TIP3      H2             42.9901996063       21.9184923541       25.4589102970  TIP3      5678            0.0000000000
     66867      6079  TIP3      OH2            45.8556624273       24.1865893410       31.9539658877  TIP3      5679            0.0000000000
     66868      6079  TIP3      H1             44.9967039913       24.6286523561       32.1105087997  TIP3      5679            0.0000000000
     66869      6079  TIP3      H2             46.3649346514       24.4531036762       32.7491303379  TIP3      5679            0.0000000000
     66870      6080  TIP3      OH2            46.4147079466       30.3827001932       23.6780080571  TIP3      5680            0.0000000000
     66871      6080  TIP3      H1             45.6282081372       29.8907850997       23.3452239212  TIP3      5680            0.0000000000
     66872      6080  TIP3      H2             46.2214507113       30.4526867020       24.6306252100  TIP3      5680            0.0000000000
     66873      6081  TIP3      OH2            53.5680445099       29.5250305262       32.4822008579  TIP3      5681            0.0000000000
     66874      6081  TIP3      H1             54.1681275273       30.0100766572       31.8943944201  TIP3      5681            0.0000000000
     66875      6081  TIP3      H2             52.7150276661       29.6299349174       32.0073715342  TIP3      5681            0.0000000000
     66876      6082  TIP3      OH2            47.8771013940       30.5915550969       34.9141839462  TIP3      5682            0.0000000000
     66877      6082  TIP3      H1             47.5685378435       30.1946433440       35.7342605037  TIP3      5682            0.0000000000
     66878      6082  TIP3      H2             47.6999062045       31.5312972146       35.0101739265  TIP3      5682            0.0000000000
     66879      6083  TIP3      OH2            50.9946032664       25.0715907260       23.5605593277  TIP3      5683            0.0000000000
     66880      6083  TIP3      H1             51.9047456734       24.9364605303       23.8699778384  TIP3      5683            0.0000000000
     66881      6083  TIP3      H2             51.0446918787       25.8515745914       22.9812483128  TIP3      5683            0.0000000000
     66882      6084  TIP3      OH2            41.5142527696       29.7226182238       29.4805752042  TIP3      5684            0.0000000000
     66883      6084  TIP3      H1             42.2363823265       29.6765958902       28.8246842216  TIP3      5684            0.0000000000
     66884      6084  TIP3      H2             41.5827602476       28.8630952979       29.9297588867  TIP3      5684            0.0000000000
     66885      6085  TIP3      OH2            48.5481522239       31.8562057494       22.7735927845  TIP3      5685            0.0000000000
     66886      6085  TIP3      H1             48.1675531108       32.6798345252       23.0825528228  TIP3      5685            0.0000000000
     66887      6085  TIP3      H2             47.7981475325       31.2214422197       22.8797846678  TIP3      5685            0.0000000000
     66888      6086  TIP3      OH2            38.5214139087       28.1619581980       34.7601546286  TIP3      5686            0.0000000000
     66889      6086  TIP3      H1             38.7135285784       27.7151919355       35.6064901522  TIP3      5686            0.0000000000
     66890      6086  TIP3      H2             37.9053077045       27.5378281726       34.3315664192  TIP3      5686            0.0000000000
     66891      6087  TIP3      OH2            45.5236148450       27.7091135068       36.9597037753  TIP3      5687            0.0000000000
     66892      6087  TIP3      H1             45.2323047251       27.4481860528       36.0756706873  TIP3      5687            0.0000000000
     66893      6087  TIP3      H2             46.4632062661       27.4206296143       36.9564436690  TIP3      5687            0.0000000000
     66894      6088  TIP3      OH2            50.1765147230       33.0339924217       34.8591104699  TIP3      5688            0.0000000000
     66895      6088  TIP3      H1             49.2545267453       33.2282957817       34.6237192041  TIP3      5688            0.0000000000
     66896      6088  TIP3      H2             50.1806493298       33.3171359685       35.7966820640  TIP3      5688            0.0000000000
     66897      6089  TIP3      OH2            55.8307821385       25.2982831903       23.2917640162  TIP3      5689            0.0000000000
     66898      6089  TIP3      H1             55.3112755125       24.9228993734       22.5476364599  TIP3      5689            0.0000000000
     66899      6089  TIP3      H2             55.9729213979       26.1972726077       22.9473394433  TIP3      5689            0.0000000000
     66900      6090  TIP3      OH2            55.8514791901       31.0684070260       36.0866602656  TIP3      5690            0.0000000000
     66901      6090  TIP3      H1             54.9794561670       31.3236663553       35.7023184075  TIP3      5690            0.0000000000
     66902      6090  TIP3      H2             56.4228510014       31.0768728073       35.2965209413  TIP3      5690            0.0000000000
     66903      6091  TIP3      OH2            54.1722068847       34.0794079202       23.7032064537  TIP3      5691            0.0000000000
     66904      6091  TIP3      H1             53.8130021200       33.2377080991       23.9993764514  TIP3      5691            0.0000000000
     66905      6091  TIP3      H2             54.4543816050       33.8779535660       22.7845480359  TIP3      5691            0.0000000000
     66906      6092  TIP3      OH2            51.3498576084       28.8850838280       30.7488898416  TIP3      5692            0.0000000000
     66907      6092  TIP3      H1             50.4091136619       28.6458456006       30.6791254525  TIP3      5692            0.0000000000
     66908      6092  TIP3      H2             51.7889250765       28.1015711614       30.3699960895  TIP3      5692            0.0000000000
     66909      6093  TIP3      OH2            43.8864595342       33.1976628033       26.8651255679  TIP3      5693            0.0000000000
     66910      6093  TIP3      H1             44.3957518400       33.9952527516       26.6626044409  TIP3      5693            0.0000000000
     66911      6093  TIP3      H2             43.0035619282       33.4365103862       26.5483300715  TIP3      5693            0.0000000000
     66912      6094  TIP3      OH2            45.3328027570       30.8711890878       26.4124657423  TIP3      5694            0.0000000000
     66913      6094  TIP3      H1             45.0290876227       31.7951198595       26.4814880262  TIP3      5694            0.0000000000
     66914      6094  TIP3      H2             44.5767351472       30.4012407541       26.8262196407  TIP3      5694            0.0000000000
     66915      6095  TIP3      OH2            45.7763106788       35.0250766113       32.7745224530  TIP3      5695            0.0000000000
     66916      6095  TIP3      H1             46.1960247055       35.8656211142       32.5122543975  TIP3      5695            0.0000000000
     66917      6095  TIP3      H2             46.3767299435       34.7285267453       33.4822314396  TIP3      5695            0.0000000000
     66918      6096  TIP3      OH2            44.0038935566       35.8844254201       25.9328411685  TIP3      5696            0.0000000000
     66919      6096  TIP3      H1             43.0320728344       35.9971631323       26.0508629902  TIP3      5696            0.0000000000
     66920      6096  TIP3      H2             44.3428610524       36.7122902996       26.3221424603  TIP3      5696            0.0000000000
     66921      6097  TIP3      OH2            49.3369702108       31.0956391399       32.4350723552  TIP3      5697            0.0000000000
     66922      6097  TIP3      H1             48.9446520038       30.8780016092       33.3009325594  TIP3      5697            0.0000000000
     66923      6097  TIP3      H2             49.9447604563       30.3608803869       32.2592966066  TIP3      5697            0.0000000000
     66924      6098  TIP3      OH2            51.5498292835       32.1244865659       21.5579925719  TIP3      5698            0.0000000000
     66925      6098  TIP3      H1             51.9144140326       31.6383947832       22.3134227060  TIP3      5698            0.0000000000
     66926      6098  TIP3      H2             50.6108126360       31.9230982014       21.5940021330  TIP3      5698            0.0000000000
     66927      6099  TIP3      OH2            52.0505983477       35.6498009419       34.9269798156  TIP3      5699            0.0000000000
     66928      6099  TIP3      H1             51.4122649186       35.1218893700       34.4149260866  TIP3      5699            0.0000000000
     66929      6099  TIP3      H2             52.3006795410       36.3397395042       34.2764496364  TIP3      5699            0.0000000000
     66930      6100  TIP3      OH2            55.8995741106       36.4488353123       21.9015311371  TIP3      5700            0.0000000000
     66931      6100  TIP3      H1             56.6755741948       36.9712069719       21.6195761228  TIP3      5700            0.0000000000
     66932      6100  TIP3      H2             55.2598511987       37.1515653793       22.0926894562  TIP3      5700            0.0000000000
     66933      6101  TIP3      OH2            40.1644977387       22.8969713015       34.3095923272  TIP3      5701            0.0000000000
     66934      6101  TIP3      H1             39.2515583553       23.2398314217       34.2650230664  TIP3      5701            0.0000000000
     66935      6101  TIP3      H2             40.0535578356       22.0418512376       34.7514957292  TIP3      5701            0.0000000000
     66936      6102  TIP3      OH2            52.3936983215       30.7546681929       23.7910736688  TIP3      5702            0.0000000000
     66937      6102  TIP3      H1             52.1750763409       29.9564500408       24.2978761846  TIP3      5702            0.0000000000
     66938      6102  TIP3      H2             53.3577341499       30.8115035355       23.9274932527  TIP3      5702            0.0000000000
     66939      6103  TIP3      OH2            39.8014114536       34.6977284916       32.7446745550  TIP3      5703            0.0000000000
     66940      6103  TIP3      H1             40.0342606156       33.7603212174       32.7289058028  TIP3      5703            0.0000000000
     66941      6103  TIP3      H2             40.0397299483       34.9776889202       33.6343619931  TIP3      5703            0.0000000000
     66942      6104  TIP3      OH2            45.7278696982       33.1845338983       19.9821865753  TIP3      5704            0.0000000000
     66943      6104  TIP3      H1             45.8815192724       32.4162720295       19.4230447532  TIP3      5704            0.0000000000
     66944      6104  TIP3      H2             45.3561413689       32.7659973608       20.7899795517  TIP3      5704            0.0000000000
     66945      6105  TIP3      OH2            44.5750009518       32.7416821241       22.4370759859  TIP3      5705            0.0000000000
     66946      6105  TIP3      H1             44.7567638246       32.1956779134       23.2088840644  TIP3      5705            0.0000000000
     66947      6105  TIP3      H2             44.6015087713       33.6504547261       22.7544233104  TIP3      5705            0.0000000000
     66948      6106  TIP3      OH2            41.0784127310       29.9744353820       22.9675048903  TIP3      5706            0.0000000000
     66949      6106  TIP3      H1             40.3537881847       30.3498397051       23.4933566401  TIP3      5706            0.0000000000
     66950      6106  TIP3      H2             41.5606800485       30.7622799613       22.6594054021  TIP3      5706            0.0000000000
     66951      6107  TIP3      OH2            48.9042127597       22.6507612402       33.2041599965  TIP3      5707            0.0000000000
     66952      6107  TIP3      H1             49.5794540733       22.7124498191       33.8877054166  TIP3      5707            0.0000000000
     66953      6107  TIP3      H2             48.4851654578       21.7864574776       33.4141437196  TIP3      5707            0.0000000000
     66954      6108  TIP3      OH2            49.6848584045       22.2654513726       24.3230975660  TIP3      5708            0.0000000000
     66955      6108  TIP3      H1             49.8644813280       22.7667791324       23.5099133364  TIP3      5708            0.0000000000
     66956      6108  TIP3      H2             50.2307775028       22.6957932387       24.9851090123  TIP3      5708            0.0000000000
     66957      6109  TIP3      OH2            47.3438966709       34.4451317085       23.1975757956  TIP3      5709            0.0000000000
     66958      6109  TIP3      H1             46.4884848148       34.9041864439       23.2303213268  TIP3      5709            0.0000000000
     66959      6109  TIP3      H2             47.8665189072       34.8809164090       22.5571263828  TIP3      5709            0.0000000000
     66960      6110  TIP3      OH2            46.8607289898       24.0272164469       25.1597451515  TIP3      5710            0.0000000000
     66961      6110  TIP3      H1             47.6818670131       24.5467054970       25.1971453875  TIP3      5710            0.0000000000
     66962      6110  TIP3      H2             46.6085984413       23.8620272577       26.0807342942  TIP3      5710            0.0000000000
     66963      6111  TIP3      OH2            47.4264271296       25.0255566667       34.3222027935  TIP3      5711            0.0000000000
     66964      6111  TIP3      H1             47.5047946751       25.5737056341       35.1204829988  TIP3      5711            0.0000000000
     66965      6111  TIP3      H2             48.0516185871       24.2994982460       34.4494584077  TIP3      5711            0.0000000000
     66966      6112  TIP3      OH2            47.7411029906       21.0683601106       26.0849141456  TIP3      5712            0.0000000000
     66967      6112  TIP3      H1             47.3987092184       21.7191932360       26.7238700714  TIP3      5712            0.0000000000
     66968      6112  TIP3      H2             48.4102903973       21.6115383737       25.6006842092  TIP3      5712            0.0000000000
     66969      6113  TIP3      OH2            44.6923674045       35.4785790504       23.1576325245  TIP3      5713            0.0000000000
     66970      6113  TIP3      H1             44.8528384134       36.2716800483       22.6747227839  TIP3      5713            0.0000000000
     66971      6113  TIP3      H2             44.4630561803       35.7698798805       24.0697190294  TIP3      5713            0.0000000000
     66972      6114  TIP3      OH2            53.6125423911       22.8981547856       35.1883479047  TIP3      5714            0.0000000000
     66973      6114  TIP3      H1             52.6739356094       23.1826839821       35.0733079533  TIP3      5714            0.0000000000
     66974      6114  TIP3      H2             53.9269692669       22.8933336656       34.2708316557  TIP3      5714            0.0000000000
     66975      6115  TIP3      OH2            52.1886658179       26.6823220937       29.2525025064  TIP3      5715            0.0000000000
     66976      6115  TIP3      H1             51.3901010350       26.2342266833       28.9338914559  TIP3      5715            0.0000000000
     66977      6115  TIP3      H2             52.6690579130       25.9747670193       29.7452291351  TIP3      5715            0.0000000000
     66978      6116  TIP3      OH2            41.6443971077       32.5754422506       21.8501770663  TIP3      5716            0.0000000000
     66979      6116  TIP3      H1             42.2599620789       33.2727294559       22.0944760126  TIP3      5716            0.0000000000
     66980      6116  TIP3      H2             42.1284947907       32.1578745401       21.0985978658  TIP3      5716            0.0000000000
     66981      6117  TIP3      OH2            39.9719235393       25.2534763489       20.9748481583  TIP3      5717            0.0000000000
     66982      6117  TIP3      H1             39.9610827431       26.2101203938       21.1121564973  TIP3      5717            0.0000000000
     66983      6117  TIP3      H2             39.1071624146       25.0302695082       20.6425985884  TIP3      5717            0.0000000000
     66984      6118  TIP3      OH2            53.2772355525       35.9101326370       30.8865688713  TIP3      5718            0.0000000000
     66985      6118  TIP3      H1             53.1618090904       36.6116664048       30.2168777290  TIP3      5718            0.0000000000
     66986      6118  TIP3      H2             54.2380798257       35.9937339586       31.0702667482  TIP3      5718            0.0000000000
     66987      6119  TIP3      OH2            40.7847371698       20.0510259547       29.6505224919  TIP3      5719            0.0000000000
     66988      6119  TIP3      H1             40.5607923629       20.0851250794       28.6957954337  TIP3      5719            0.0000000000
     66989      6119  TIP3      H2             40.3448096851       19.2236630247       29.9297104390  TIP3      5719            0.0000000000
     66990      6120  TIP3      OH2            39.7266595663       33.9676069887       25.8059847107  TIP3      5720            0.0000000000
     66991      6120  TIP3      H1             38.8840512540       34.4457835483       25.8026378690  TIP3      5720            0.0000000000
     66992      6120  TIP3      H2             40.2404874444       34.4706515402       25.1625978427  TIP3      5720            0.0000000000
     66993      6121  TIP3      OH2            38.9772640845       36.6097661446       37.1076642790  TIP3      5721            0.0000000000
     66994      6121  TIP3      H1             39.5459752013       36.3895121974       37.8740972495  TIP3      5721            0.0000000000
     66995      6121  TIP3      H2             38.5228817397       35.7695385675       36.9311850866  TIP3      5721            0.0000000000
     66996      6122  TIP3      OH2            43.5992120371       35.5180177558       38.7389329922  TIP3      5722            0.0000000000
     66997      6122  TIP3      H1             44.3804541809       35.0512738989       39.0693487258  TIP3      5722            0.0000000000
     66998      6122  TIP3      H2             43.5932245272       35.2789454231       37.7940407895  TIP3      5722            0.0000000000
     66999      6123  TIP3      OH2            50.1433422056       33.9136961986       37.4571186554  TIP3      5723            0.0000000000
     67000      6123  TIP3      H1             49.8238918311       33.0272517201       37.7175009897  TIP3      5723            0.0000000000
     67001      6123  TIP3      H2             50.9052207743       34.0355245718       38.0575191009  TIP3      5723            0.0000000000
     67002      6124  TIP3      OH2            38.9061262730       30.4039198275       38.0741642840  TIP3      5724            0.0000000000
     67003      6124  TIP3      H1             39.0361909836       29.4818870502       37.7829850380  TIP3      5724            0.0000000000
     67004      6124  TIP3      H2             38.1221377538       30.6735603351       37.5609593109  TIP3      5724            0.0000000000
     67005      6125  TIP3      OH2            43.2522282916       30.7594486094       20.2054682399  TIP3      5725            0.0000000000
     67006      6125  TIP3      H1             43.3072964157       29.9392354926       20.7148274311  TIP3      5725            0.0000000000
     67007      6125  TIP3      H2             43.8969001712       30.6147262631       19.5007741196  TIP3      5725            0.0000000000
     67008      6126  TIP3      OH2            45.5509031270       30.3736908728       37.4909892381  TIP3      5726            0.0000000000
     67009      6126  TIP3      H1             45.2541604525       30.6603268409       36.6257160365  TIP3      5726            0.0000000000
     67010      6126  TIP3      H2             45.7029323828       29.4050102552       37.4066073350  TIP3      5726            0.0000000000
     67011      6127  TIP3      OH2            51.2797775270       30.2535006714       34.8836128601  TIP3      5727            0.0000000000
     67012      6127  TIP3      H1             52.0483050546       30.8626399657       34.7862073770  TIP3      5727            0.0000000000
     67013      6127  TIP3      H2             50.5518007994       30.8881452421       34.9355750051  TIP3      5727            0.0000000000
     67014      6128  TIP3      OH2            39.7687019567       27.6232138758       37.4830878296  TIP3      5728            0.0000000000
     67015      6128  TIP3      H1             40.1579243437       26.7442541718       37.3847236475  TIP3      5728            0.0000000000
     67016      6128  TIP3      H2             39.5091145592       27.6255127541       38.4240612814  TIP3      5728            0.0000000000
     67017      6129  TIP3      OH2            44.4018143764       28.7310475849       22.5115614361  TIP3      5729            0.0000000000
     67018      6129  TIP3      H1             43.9248707922       28.2298409596       23.1946197997  TIP3      5729            0.0000000000
     67019      6129  TIP3      H2             44.6735923362       28.0580450382       21.8711720680  TIP3      5729            0.0000000000
     67020      6130  TIP3      OH2            43.6856881910       26.6120290855       34.8667588159  TIP3      5730            0.0000000000
     67021      6130  TIP3      H1             43.0593264723       27.2923895203       35.1286668801  TIP3      5730            0.0000000000
     67022      6130  TIP3      H2             44.0481118841       26.9241164967       34.0225173053  TIP3      5730            0.0000000000
     67023      6131  TIP3      OH2            48.7217762066       29.1079341502       38.1800738268  TIP3      5731            0.0000000000
     67024      6131  TIP3      H1             49.6815533265       29.1474083782       38.0940144521  TIP3      5731            0.0000000000
     67025      6131  TIP3      H2             48.5590434120       28.3598264876       38.7718432158  TIP3      5731            0.0000000000
     67026      6132  TIP3      OH2            44.0188186175       23.9752446149       35.9379390193  TIP3      5732            0.0000000000
     67027      6132  TIP3      H1             44.2133572130       23.2215549532       35.3213173632  TIP3      5732            0.0000000000
     67028      6132  TIP3      H2             44.0417253343       24.7482391497       35.3562035967  TIP3      5732            0.0000000000
     67029      6133  TIP3      OH2            44.2415621623       22.5934618169       33.3217208946  TIP3      5733            0.0000000000
     67030      6133  TIP3      H1             44.9813909683       22.7796191348       32.7079905214  TIP3      5733            0.0000000000
     67031      6133  TIP3      H2             43.4806381147       22.1976175730       32.9000837433  TIP3      5733            0.0000000000
     67032      6134  TIP3      OH2            46.0183896933       27.7918591875       33.6976429449  TIP3      5734            0.0000000000
     67033      6134  TIP3      H1             46.7743287455       27.6222930599       33.1135742624  TIP3      5734            0.0000000000
     67034      6134  TIP3      H2             45.6828115811       28.6363454483       33.3764511371  TIP3      5734            0.0000000000
     67035      6135  TIP3      OH2            50.4204649078       25.5743661239       38.6974196884  TIP3      5735            0.0000000000
     67036      6135  TIP3      H1             50.6464823098       24.6456380024       38.5865756971  TIP3      5735            0.0000000000
     67037      6135  TIP3      H2             51.2910951254       26.0057940984       38.6862893838  TIP3      5735            0.0000000000
     67038      6136  TIP3      OH2            51.7510110079       28.3642171683       36.8193212966  TIP3      5736            0.0000000000
     67039      6136  TIP3      H1             51.4907707423       29.0879122127       36.2026192422  TIP3      5736            0.0000000000
     67040      6136  TIP3      H2             52.7120954652       28.3196397722       36.6220181600  TIP3      5736            0.0000000000
     67041      6137  TIP3      OH2            42.5209745860       25.1909562207       37.8631039412  TIP3      5737            0.0000000000
     67042      6137  TIP3      H1             41.7546236430       24.6205210199       37.6379558487  TIP3      5737            0.0000000000
     67043      6137  TIP3      H2             43.1859549635       24.8394738205       37.2277485938  TIP3      5737            0.0000000000
     67044      6138  TIP3      OH2            45.2278253683       19.4846672602       33.6106391958  TIP3      5738            0.0000000000
     67045      6138  TIP3      H1             45.1395889364       20.4734946139       33.6651776522  TIP3      5738            0.0000000000
     67046      6138  TIP3      H2             44.3378124537       19.3394949994       33.3071098734  TIP3      5738            0.0000000000
     67047      6139  TIP3      OH2            46.5311939950       24.1036396262       37.4619150251  TIP3      5739            0.0000000000
     67048      6139  TIP3      H1             46.2362549706       23.8830245675       38.3508591127  TIP3      5739            0.0000000000
     67049      6139  TIP3      H2             45.7461585667       23.8881798071       36.9023449855  TIP3      5739            0.0000000000
     67050      6140  TIP3      OH2            49.2463907695       23.2421198610       36.5278550915  TIP3      5740            0.0000000000
     67051      6140  TIP3      H1             48.2719836964       23.2693972953       36.6304714844  TIP3      5740            0.0000000000
     67052      6140  TIP3      H2             49.5261213824       22.5966080986       37.1842918057  TIP3      5740            0.0000000000
     67053      6141  TIP3      OH2            50.8454311096       21.8659022105       38.4962568960  TIP3      5741            0.0000000000
     67054      6141  TIP3      H1             50.7841072080       20.8973121022       38.4923326135  TIP3      5741            0.0000000000
     67055      6141  TIP3      H2             50.5708664545       22.1611409133       39.3884368978  TIP3      5741            0.0000000000
     67056      6142  TIP3      OH2            40.6613965776       23.1122066411       37.5630458020  TIP3      5742            0.0000000000
     67057      6142  TIP3      H1             40.8946117159       22.3819801680       36.9591166091  TIP3      5742            0.0000000000
     67058      6142  TIP3      H2             40.5774260852       22.6533227138       38.4221934412  TIP3      5742            0.0000000000
     67059      6143  TIP3      OH2            45.4464756771       19.0596836952       36.5764124907  TIP3      5743            0.0000000000
     67060      6143  TIP3      H1             46.1865574655       18.4357926550       36.5046165312  TIP3      5743            0.0000000000
     67061      6143  TIP3      H2             45.3836486582       19.3589726540       35.6356228711  TIP3      5743            0.0000000000
     67062      6144  TIP3      OH2            45.8548280924       20.7586607507       38.6549264508  TIP3      5744            0.0000000000
     67063      6144  TIP3      H1             45.6886020382       20.2916187450       37.7730816748  TIP3      5744            0.0000000000
     67064      6144  TIP3      H2             45.2366593149       21.5183574723       38.5139191214  TIP3      5744            0.0000000000
     67065      6145  TIP3      OH2            38.9084056428       32.2737226531       21.2747895219  TIP3      5745            0.0000000000
     67066      6145  TIP3      H1             39.8635700471       32.3683208336       21.5055419703  TIP3      5745            0.0000000000
     67067      6145  TIP3      H2             38.9615575907       31.6107643505       20.5785242779  TIP3      5745            0.0000000000
     67068      6146  TIP3      OH2            37.6177349581       37.6736087641       26.3067764872  TIP3      5746            0.0000000000
     67069      6146  TIP3      H1             36.9356229392       37.1886428492       25.7933159876  TIP3      5746            0.0000000000
     67070      6146  TIP3      H2             37.9352053531       36.9954780670       26.9246909480  TIP3      5746            0.0000000000
     67071      6147  TIP3      OH2            38.4647589998       35.7691563630       28.1279845353  TIP3      5747            0.0000000000
     67072      6147  TIP3      H1             38.1206682321       34.8846078742       28.3210588478  TIP3      5747            0.0000000000
     67073      6147  TIP3      H2             38.6888544517       36.1042620265       29.0150058425  TIP3      5747            0.0000000000
     67074      6148  TIP3      OH2            55.9662357554       36.5676740441       31.1112384163  TIP3      5748            0.0000000000
     67075      6148  TIP3      H1             55.9973976873       36.7522627385       32.0615874276  TIP3      5748            0.0000000000
     67076      6148  TIP3      H2             56.6965902211       37.1221743446       30.7819991687  TIP3      5748            0.0000000000
     67077      6149  TIP3      OH2            55.5911411792       36.1585784462       34.0256530430  TIP3      5749            0.0000000000
     67078      6149  TIP3      H1             55.0847051858       35.3945660619       33.6584236305  TIP3      5749            0.0000000000
     67079      6149  TIP3      H2             56.1092983865       35.7399247931       34.7231588111  TIP3      5749            0.0000000000
     67080      6150  TIP3      OH2            54.0187870349       31.8965129087       38.6808253372  TIP3      5750            0.0000000000
     67081      6150  TIP3      H1             53.1340310659       31.8442748824       39.0762180998  TIP3      5750            0.0000000000
     67082      6150  TIP3      H2             54.3978028560       32.6963356949       39.1199351537  TIP3      5750            0.0000000000
     67083      6151  TIP3      OH2            55.2668641150       30.2135915123       24.2040354637  TIP3      5751            0.0000000000
     67084      6151  TIP3      H1             56.1659770497       30.5922911466       24.2963396469  TIP3      5751            0.0000000000
     67085      6151  TIP3      H2             55.3367585034       29.4465265225       24.8018331429  TIP3      5751            0.0000000000
     67086      6152  TIP3      OH2            55.6984455581       28.2880382853       26.0063305456  TIP3      5752            0.0000000000
     67087      6152  TIP3      H1             54.9672785516       27.7701854726       26.4023730404  TIP3      5752            0.0000000000
     67088      6152  TIP3      H2             56.3056971947       28.4463474446       26.7614468157  TIP3      5752            0.0000000000
     67089      6153  TIP3      OH2            55.4693760666       30.9970566529       30.9952114338  TIP3      5753            0.0000000000
     67090      6153  TIP3      H1             56.3097035187       30.6299615352       30.6625441882  TIP3      5753            0.0000000000
     67091      6153  TIP3      H2             55.5914705291       31.9609364142       30.8247045514  TIP3      5753            0.0000000000
     67092      6154  TIP3      OH2            53.9802396132       33.8781576537       33.2751633531  TIP3      5754            0.0000000000
     67093      6154  TIP3      H1             53.3112555548       34.2319606716       33.8838115008  TIP3      5754            0.0000000000
     67094      6154  TIP3      H2             53.4338530254       33.4658659277       32.5776105557  TIP3      5754            0.0000000000
     67095      6155  TIP3      OH2            54.3624985813       25.3691742083       20.9547514543  TIP3      5755            0.0000000000
     67096      6155  TIP3      H1             54.4274434345       26.0429951149       20.2622747118  TIP3      5755            0.0000000000
     67097      6155  TIP3      H2             54.1747017108       24.5603068021       20.4648391599  TIP3      5755            0.0000000000
     67098      6156  TIP3      OH2            53.5164006056       26.7646525104       26.5739892995  TIP3      5756            0.0000000000
     67099      6156  TIP3      H1             53.3516071536       25.8084763130       26.5497654788  TIP3      5756            0.0000000000
     67100      6156  TIP3      H2             53.1541655910       27.0224049141       27.4399589377  TIP3      5756            0.0000000000
     67101      6157  TIP3      OH2            38.5163476266       28.8394990679       30.6106346233  TIP3      5757            0.0000000000
     67102      6157  TIP3      H1             38.7212081163       28.7614039230       29.6535181907  TIP3      5757            0.0000000000
     67103      6157  TIP3      H2             39.4015520276       28.6954852529       30.9947655753  TIP3      5757            0.0000000000
     67104      6158  TIP3      OH2            54.3487491946       28.7309290821       36.2513523917  TIP3      5758            0.0000000000
     67105      6158  TIP3      H1             54.9644244533       27.9873252605       36.4052401887  TIP3      5758            0.0000000000
     67106      6158  TIP3      H2             54.9412432434       29.5103243017       36.2554689444  TIP3      5758            0.0000000000
     67107      6159  TIP3      OH2            55.8528261268       26.6424396951       36.8974288502  TIP3      5759            0.0000000000
     67108      6159  TIP3      H1             54.9806371720       26.2330541858       36.7372436920  TIP3      5759            0.0000000000
     67109      6159  TIP3      H2             56.4439376386       25.8669095195       36.8294705542  TIP3      5759            0.0000000000
     67110      6160  TIP3      OH2            53.2062857162       24.3521950050       25.0577316178  TIP3      5760            0.0000000000
     67111      6160  TIP3      H1             53.4930571365       23.4166216312       25.1542363487  TIP3      5760            0.0000000000
     67112      6160  TIP3      H2             53.9755503555       24.7656734994       24.6441140414  TIP3      5760            0.0000000000
     67113      6161  TIP3      OH2            53.7734129437       24.8999234799       30.4644618079  TIP3      5761            0.0000000000
     67114      6161  TIP3      H1             54.7477212068       25.1242605666       30.4535809338  TIP3      5761            0.0000000000
     67115      6161  TIP3      H2             53.5992553655       25.0323552388       31.4089139120  TIP3      5761            0.0000000000
     67116      6162  TIP3      OH2            53.8701273399       25.6303962832       33.2509373700  TIP3      5762            0.0000000000
     67117      6162  TIP3      H1             53.0058642293       25.9315966500       33.6010397897  TIP3      5762            0.0000000000
     67118      6162  TIP3      H2             54.3121576633       26.4865713148       33.0395266042  TIP3      5762            0.0000000000
     67119      6163  TIP3      OH2            38.1251496783       24.1409595540       36.7671570525  TIP3      5763            0.0000000000
     67120      6163  TIP3      H1             39.0712088537       23.9684504981       36.9603426058  TIP3      5763            0.0000000000
     67121      6163  TIP3      H2             37.6899221974       23.3297122492       37.0939171743  TIP3      5763            0.0000000000
     67122      6164  TIP3      OH2            53.8301513354       21.6313446881       25.0837295413  TIP3      5764            0.0000000000
     67123      6164  TIP3      H1             54.0227398568       21.1686959109       25.9211741835  TIP3      5764            0.0000000000
     67124      6164  TIP3      H2             53.2214564903       21.0143439652       24.6200501085  TIP3      5764            0.0000000000
     67125      6165  TIP3      OH2            39.3419700565       22.4320305524       29.6220870979  TIP3      5765            0.0000000000
     67126      6165  TIP3      H1             39.8063388814       21.6218352321       29.9151700590  TIP3      5765            0.0000000000
     67127      6165  TIP3      H2             39.8484580770       23.1396239789       30.0439272400  TIP3      5765            0.0000000000
     67128      6166  TIP3      OH2            37.6331239954       25.4206382225       30.6893341570  TIP3      5766            0.0000000000
     67129      6166  TIP3      H1             38.1750946288       25.2016673358       29.9019940930  TIP3      5766            0.0000000000
     67130      6166  TIP3      H2             38.0521162112       26.2539138135       30.9557799543  TIP3      5766            0.0000000000
     67131      6167  TIP3      OH2            55.6724129617       21.7485980303       36.9806085082  TIP3      5767            0.0000000000
     67132      6167  TIP3      H1             54.7366583285       22.0232750361       36.9131248072  TIP3      5767            0.0000000000
     67133      6167  TIP3      H2             55.7586364978       21.2057055438       36.1795030959  TIP3      5767            0.0000000000
     67134      6168  TIP3      OH2            55.7176034371       21.6519308037       21.6545423069  TIP3      5768            0.0000000000
     67135      6168  TIP3      H1             56.1309228269       20.9542370980       21.1426331124  TIP3      5768            0.0000000000
     67136      6168  TIP3      H2             56.3759504774       22.3690038624       21.6743305660  TIP3      5768            0.0000000000
     67137      6169  TIP3      OH2            37.9859746572       21.6918475039       24.7547300055  TIP3      5769            0.0000000000
     67138      6169  TIP3      H1             37.0492083540       21.8890287805       24.6074440540  TIP3      5769            0.0000000000
     67139      6169  TIP3      H2             38.4244693735       22.1762545638       24.0351487858  TIP3      5769            0.0000000000
     67140      6170  TIP3      OH2            52.7214076060       36.6421537577       26.7053168988  TIP3      5770            0.0000000000
     67141      6170  TIP3      H1             53.3996447063       36.3341140858       26.0730949517  TIP3      5770            0.0000000000
     67142      6170  TIP3      H2             53.2645234642       37.1524829263       27.3355952473  TIP3      5770            0.0000000000
     67143      6171  TIP3      OH2            37.9477971901       20.3918408519       33.0716685561  TIP3      5771            0.0000000000
     67144      6171  TIP3      H1             37.2673794690       20.1705974185       33.7304358855  TIP3      5771            0.0000000000
     67145      6171  TIP3      H2             37.4846833496       21.0444218625       32.5038924262  TIP3      5771            0.0000000000
     67146      6172  TIP3      OH2            40.1591874497       33.5617890299       37.2205397924  TIP3      5772            0.0000000000
     67147      6172  TIP3      H1             39.3133867511       33.7762263689       36.7832814043  TIP3      5772            0.0000000000
     67148      6172  TIP3      H2             39.8809699948       33.5208304544       38.1520759297  TIP3      5772            0.0000000000
     67149      6173  TIP3      OH2            43.0792267928       34.5368796996       33.5068423613  TIP3      5773            0.0000000000
     67150      6173  TIP3      H1             42.6959005749       35.3874923600       33.2082256690  TIP3      5773            0.0000000000
     67151      6173  TIP3      H2             43.9970358709       34.6685846701       33.1747454526  TIP3      5773            0.0000000000
     67152      6174  TIP3      OH2            47.3893978253       35.9762670346       36.4187568498  TIP3      5774            0.0000000000
     67153      6174  TIP3      H1             47.5681314823       35.6306578368       37.3302784904  TIP3      5774            0.0000000000
     67154      6174  TIP3      H2             48.2734816318       36.2794923534       36.1398620279  TIP3      5774            0.0000000000
     67155      6175  TIP3      OH2            49.7067425180       37.2492779926       35.6880122848  TIP3      5775            0.0000000000
     67156      6175  TIP3      H1             50.4257970043       36.6348165786       35.4601932549  TIP3      5775            0.0000000000
     67157      6175  TIP3      H2             50.0705156813       37.6635795636       36.5018693295  TIP3      5775            0.0000000000
     67158      6176  TIP3      OH2            54.6574086464       19.8554104705       34.8151669222  TIP3      5776            0.0000000000
     67159      6176  TIP3      H1             53.8416711907       20.1609222828       34.3804955518  TIP3      5776            0.0000000000
     67160      6176  TIP3      H2             54.8711662920       19.0610266083       34.2635424682  TIP3      5776            0.0000000000
     67161      6177  TIP3      OH2            40.4994012748       37.8019154926       33.5148806776  TIP3      5777            0.0000000000
     67162      6177  TIP3      H1             39.7661339705       38.2782824276       33.0884824896  TIP3      5777            0.0000000000
     67163      6177  TIP3      H2             40.1448051996       37.5842067616       34.3880301755  TIP3      5777            0.0000000000
     67164      6178  TIP3      OH2            42.9726166219       37.3943726889       32.5676776053  TIP3      5778            0.0000000000
     67165      6178  TIP3      H1             42.0774126269       37.5107788540       32.9643694725  TIP3      5778            0.0000000000
     67166      6178  TIP3      H2             42.8998831602       37.9727553299       31.7816798314  TIP3      5778            0.0000000000
     67167      6179  TIP3      OH2            47.6701849736       37.2955856358       31.7345966951  TIP3      5779            0.0000000000
     67168      6179  TIP3      H1             47.2067089394       37.8435566093       31.0823414082  TIP3      5779            0.0000000000
     67169      6179  TIP3      H2             47.8208987705       37.9254444628       32.4701222837  TIP3      5779            0.0000000000
     67170      6180  TIP3      OH2            49.9890525051       36.1450596646       32.7111385727  TIP3      5780            0.0000000000
     67171      6180  TIP3      H1             49.0954450454       36.3678241556       32.4060211864  TIP3      5780            0.0000000000
     67172      6180  TIP3      H2             50.4249328071       37.0105856969       32.6297980165  TIP3      5780            0.0000000000
     67173      6181  TIP3      OH2            52.5816870504       37.7179706583       32.9918023721  TIP3      5781            0.0000000000
     67174      6181  TIP3      H1             52.4381501998       38.6676017507       32.7561243468  TIP3      5781            0.0000000000
     67175      6181  TIP3      H2             52.7674865341       37.3312501602       32.1167073594  TIP3      5781            0.0000000000
     67176      6182  TIP3      OH2            39.9155830788       36.4528426211       30.4341467385  TIP3      5782            0.0000000000
     67177      6182  TIP3      H1             39.8780244236       36.0045461254       31.3058657014  TIP3      5782            0.0000000000
     67178      6182  TIP3      H2             40.7378175332       36.1029552336       30.0352060015  TIP3      5782            0.0000000000
     67179      6183  TIP3      OH2            42.0288698547       35.1655317882       29.0849119003  TIP3      5783            0.0000000000
     67180      6183  TIP3      H1             41.8420789351       34.2303815659       29.2896113251  TIP3      5783            0.0000000000
     67181      6183  TIP3      H2             42.8810016007       35.2970634619       29.5589258749  TIP3      5783            0.0000000000
     67182      6184  TIP3      OH2            44.5938610114       35.6392411425       29.9535310152  TIP3      5784            0.0000000000
     67183      6184  TIP3      H1             44.7957235373       34.7264884834       29.6777924046  TIP3      5784            0.0000000000
     67184      6184  TIP3      H2             44.6621791540       35.5804933641       30.9136866594  TIP3      5784            0.0000000000
     67185      6185  TIP3      OH2            48.0909498719       21.2976368039       29.0999497130  TIP3      5785            0.0000000000
     67186      6185  TIP3      H1             47.4139826738       20.6513538266       29.3608179287  TIP3      5785            0.0000000000
     67187      6185  TIP3      H2             48.6475647771       20.7847742871       28.4993053724  TIP3      5785            0.0000000000
     67188      6186  TIP3      OH2            53.2344731726       19.3692607692       29.1982260947  TIP3      5786            0.0000000000
     67189      6186  TIP3      H1             53.8426455374       19.9514070425       28.6785081657  TIP3      5786            0.0000000000
     67190      6186  TIP3      H2             52.3536909130       19.7112374053       28.9554970997  TIP3      5786            0.0000000000
     67191      6187  TIP3      OH2            54.9020942168       20.5693631161       27.5154326989  TIP3      5787            0.0000000000
     67192      6187  TIP3      H1             55.5657099825       20.0269231068       27.0169164337  TIP3      5787            0.0000000000
     67193      6187  TIP3      H2             55.3556951722       21.4363246269       27.5596648356  TIP3      5787            0.0000000000
     67194      6188  TIP3      OH2            40.4392314575       19.9320157810       26.9292614027  TIP3      5788            0.0000000000
     67195      6188  TIP3      H1             39.6447442888       19.6962681331       26.4125758799  TIP3      5788            0.0000000000
     67196      6188  TIP3      H2             40.9384200140       19.0946076431       26.9063719120  TIP3      5788            0.0000000000
     67197      6189  TIP3      OH2            39.2721077982       19.6971306923       22.7244564101  TIP3      5789            0.0000000000
     67198      6189  TIP3      H1             39.6865991375       20.3367614432       22.1141368239  TIP3      5789            0.0000000000
     67199      6189  TIP3      H2             38.6309059935       20.2551740510       23.1875246243  TIP3      5789            0.0000000000
     67200      6190  TIP3      OH2            44.9659232147       19.8362602070       26.7373772142  TIP3      5790            0.0000000000
     67201      6190  TIP3      H1             45.8583206589       20.2300369206       26.6799412387  TIP3      5790            0.0000000000
     67202      6190  TIP3      H2             44.8815949947       19.6341640909       27.6671603267  TIP3      5790            0.0000000000
     67203      6191  TIP3      OH2            50.5985938698       19.8781283023       28.3713553152  TIP3      5791            0.0000000000
     67204      6191  TIP3      H1             50.6279884742       19.9676143726       27.4128264918  TIP3      5791            0.0000000000
     67205      6191  TIP3      H2             50.2609950501       18.9599899218       28.5041777625  TIP3      5791            0.0000000000
     67206      6192  TIP3      OH2            51.9256652249       19.9064022375       24.0572242279  TIP3      5792            0.0000000000
     67207      6192  TIP3      H1             51.1940971330       20.5152456821       23.8624947974  TIP3      5792            0.0000000000
     67208      6192  TIP3      H2             51.4545195731       19.0554218525       24.2061950233  TIP3      5792            0.0000000000
     67209      6193  TIP3      OH2            39.1590748139       35.6494093727       23.6463430168  TIP3      5793            0.0000000000
     67210      6193  TIP3      H1             38.4718400628       35.6312234295       22.9448278220  TIP3      5793            0.0000000000
     67211      6193  TIP3      H2             39.1491919379       36.5859937593       23.8763010728  TIP3      5793            0.0000000000
     67212      6194  TIP3      OH2            41.0634384590       21.5894925925       21.1898229417  TIP3      5794            0.0000000000
     67213      6194  TIP3      H1             41.6107934909       21.0173184468       20.6466840745  TIP3      5794            0.0000000000
     67214      6194  TIP3      H2             41.7346740251       21.9362982214       21.7955417115  TIP3      5794            0.0000000000
     67215      6195  TIP3      OH2            46.1272857938       21.8986063422       23.6077340888  TIP3      5795            0.0000000000
     67216      6195  TIP3      H1             46.3281572909       21.2853963142       24.3080498115  TIP3      5795            0.0000000000
     67217      6195  TIP3      H2             46.1096846670       22.7553424815       24.0643569931  TIP3      5795            0.0000000000
     67218      6196  TIP3      OH2            54.6957638797       36.4360964487       24.6993020765  TIP3      5796            0.0000000000
     67219      6196  TIP3      H1             54.5236105746       35.6615996588       24.1191313664  TIP3      5796            0.0000000000
     67220      6196  TIP3      H2             54.6607337610       37.1890647373       24.0846615381  TIP3      5796            0.0000000000
     67221      6197  TIP3      OH2            40.3441763482       20.4559439770       36.4127383989  TIP3      5797            0.0000000000
     67222      6197  TIP3      H1             39.9929592470       19.6622600921       36.8571261221  TIP3      5797            0.0000000000
     67223      6197  TIP3      H2             41.2828099579       20.4475267998       36.7395993305  TIP3      5797            0.0000000000
     67224      6198  TIP3      OH2            42.3456118464       19.8390420768       38.0055948192  TIP3      5798            0.0000000000
     67225      6198  TIP3      H1             43.2399172431       19.5003715300       37.7774400547  TIP3      5798            0.0000000000
     67226      6198  TIP3      H2             41.9733874045       19.0404052492       38.4363074608  TIP3      5798            0.0000000000
     67227      6199  TIP3      OH2            50.7459032334       19.1455197560       38.1783294103  TIP3      5799            0.0000000000
     67228      6199  TIP3      H1             50.8656157925       18.6639218380       39.0158273108  TIP3      5799            0.0000000000
     67229      6199  TIP3      H2             51.6635070733       19.1152044682       37.8162616566  TIP3      5799            0.0000000000
     67230      6200  TIP3      OH2            53.9695916768       35.1845437508       36.8438748052  TIP3      5800            0.0000000000
     67231      6200  TIP3      H1             53.1656693092       35.0191985120       36.3087690195  TIP3      5800            0.0000000000
     67232      6200  TIP3      H2             53.8578680436       36.1326217334       37.0491310349  TIP3      5800            0.0000000000
     67233      6201  TIP3      OH2           -44.7548221190       47.9139362870       26.8489510597  TIP3      5801            0.0000000000
     67234      6201  TIP3      H1            -44.7113616224       48.8863458124       26.7476447195  TIP3      5801            0.0000000000
     67235      6201  TIP3      H2            -45.4407892927       47.6691389521       26.2094841851  TIP3      5801            0.0000000000
     67236      6202  TIP3      OH2           -45.8660090765       47.1905082783       30.3069840768  TIP3      5802            0.0000000000
     67237      6202  TIP3      H1            -45.8917010099       46.5316719096       31.0073787850  TIP3      5802            0.0000000000
     67238      6202  TIP3      H2            -46.1892547795       46.7018635075       29.5309648479  TIP3      5802            0.0000000000
     67239      6203  TIP3      OH2           -53.5080672805       46.8260366430       31.8623454278  TIP3      5803            0.0000000000
     67240      6203  TIP3      H1            -53.4321670036       46.1704750837       32.5903689834  TIP3      5803            0.0000000000
     67241      6203  TIP3      H2            -52.7759301118       47.4223166960       32.0739107336  TIP3      5803            0.0000000000
     67242      6204  TIP3      OH2           -42.1568499240       50.1223890577       28.5809339863  TIP3      5804            0.0000000000
     67243      6204  TIP3      H1            -42.5946057800       49.4099775961       29.0590880585  TIP3      5804            0.0000000000
     67244      6204  TIP3      H2            -42.1526351858       50.8358133708       29.2459367997  TIP3      5804            0.0000000000
     67245      6205  TIP3      OH2           -52.5849867220       51.2817709452       30.4025839061  TIP3      5805            0.0000000000
     67246      6205  TIP3      H1            -52.9182082519       50.4389608223       30.0459667965  TIP3      5805            0.0000000000
     67247      6205  TIP3      H2            -51.6376707508       51.0794417715       30.4509107499  TIP3      5805            0.0000000000
     67248      6206  TIP3      OH2           -55.9204923288       44.8536899958       25.8247198448  TIP3      5806            0.0000000000
     67249      6206  TIP3      H1            -56.3646660403       45.7386370573       25.7876009291  TIP3      5806            0.0000000000
     67250      6206  TIP3      H2            -56.5126498018       44.3215693956       25.2882792757  TIP3      5806            0.0000000000
     67251      6207  TIP3      OH2           -55.2419567149       47.0844931109       27.9577882906  TIP3      5807            0.0000000000
     67252      6207  TIP3      H1            -55.0079951630       46.2788114858       28.4536296480  TIP3      5807            0.0000000000
     67253      6207  TIP3      H2            -54.5067558272       47.1675720457       27.3331613123  TIP3      5807            0.0000000000
     67254      6208  TIP3      OH2           -45.1376891995       55.1835008717       28.7900762639  TIP3      5808            0.0000000000
     67255      6208  TIP3      H1            -44.3960526859       54.5643876004       28.5475768146  TIP3      5808            0.0000000000
     67256      6208  TIP3      H2            -45.2246579237       55.0038672540       29.7306751917  TIP3      5808            0.0000000000
     67257      6209  TIP3      OH2           -47.4811397493       49.6274686009       30.7124341542  TIP3      5809            0.0000000000
     67258      6209  TIP3      H1            -47.1554806981       48.9311678392       30.1147181505  TIP3      5809            0.0000000000
     67259      6209  TIP3      H2            -46.7181537746       49.7263739393       31.3109785506  TIP3      5809            0.0000000000
     67260      6210  TIP3      OH2           -38.8461070811       41.2153190053       31.5337773663  TIP3      5810            0.0000000000
     67261      6210  TIP3      H1            -38.7334203569       41.8358108902       32.2858728954  TIP3      5810            0.0000000000
     67262      6210  TIP3      H2            -38.3528533042       41.6763454970       30.8388450107  TIP3      5810            0.0000000000
     67263      6211  TIP3      OH2           -44.3268525752       44.0396907354       31.0626097892  TIP3      5811            0.0000000000
     67264      6211  TIP3      H1            -44.1770234884       43.0737553695       31.0553363961  TIP3      5811            0.0000000000
     67265      6211  TIP3      H2            -44.4309929260       44.2021443020       30.1021960012  TIP3      5811            0.0000000000
     67266      6212  TIP3      OH2           -51.1848567622       42.1231886359       28.3120446008  TIP3      5812            0.0000000000
     67267      6212  TIP3      H1            -51.1206199108       42.9766257428       27.8530455174  TIP3      5812            0.0000000000
     67268      6212  TIP3      H2            -51.6219508972       41.5604785486       27.6394539862  TIP3      5812            0.0000000000
     67269      6213  TIP3      OH2           -43.4703956942       42.2307744516       26.6857277767  TIP3      5813            0.0000000000
     67270      6213  TIP3      H1            -42.8022902845       41.9043075716       27.3356707955  TIP3      5813            0.0000000000
     67271      6213  TIP3      H2            -42.9220472516       42.7743808715       26.0993534094  TIP3      5813            0.0000000000
     67272      6214  TIP3      OH2           -54.5726132281       44.5331372522       29.0508533600  TIP3      5814            0.0000000000
     67273      6214  TIP3      H1            -53.8977527249       43.9711634152       29.4893237847  TIP3      5814            0.0000000000
     67274      6214  TIP3      H2            -54.5017065505       44.2267670545       28.1335489191  TIP3      5814            0.0000000000
     67275      6215  TIP3      OH2           -49.4062685123       46.0891429398       28.3119279690  TIP3      5815            0.0000000000
     67276      6215  TIP3      H1            -48.7684973703       45.5208036507       28.7733087809  TIP3      5815            0.0000000000
     67277      6215  TIP3      H2            -49.9671245354       45.4211301454       27.8660275608  TIP3      5815            0.0000000000
     67278      6216  TIP3      OH2           -38.4195386695       42.6743768793       33.7804643923  TIP3      5816            0.0000000000
     67279      6216  TIP3      H1            -39.0901587250       43.3822099797       33.6924849618  TIP3      5816            0.0000000000
     67280      6216  TIP3      H2            -38.4034093889       42.5208660178       34.7340842638  TIP3      5816            0.0000000000
     67281      6217  TIP3      OH2           -52.3319721100       41.0262152468       32.3608203394  TIP3      5817            0.0000000000
     67282      6217  TIP3      H1            -52.5849657861       41.5833147159       31.5998659168  TIP3      5817            0.0000000000
     67283      6217  TIP3      H2            -53.0191915630       41.2699477776       33.0288905014  TIP3      5817            0.0000000000
     67284      6218  TIP3      OH2           -45.0032107859       50.5218329969       25.9269940033  TIP3      5818            0.0000000000
     67285      6218  TIP3      H1            -45.2908108397       50.2181901926       25.0514211539  TIP3      5818            0.0000000000
     67286      6218  TIP3      H2            -45.3190150856       51.4438614830       25.9306587599  TIP3      5818            0.0000000000
     67287      6219  TIP3      OH2           -49.7857752989       48.6826125755       32.6297950176  TIP3      5819            0.0000000000
     67288      6219  TIP3      H1            -50.5181980262       49.3189885524       32.7806797656  TIP3      5819            0.0000000000
     67289      6219  TIP3      H2            -49.0807638463       49.2734432909       32.3273137165  TIP3      5819            0.0000000000
     67290      6220  TIP3      OH2           -41.6817916632       41.5579791896       28.6720393876  TIP3      5820            0.0000000000
     67291      6220  TIP3      H1            -41.8911212596       40.7820379039       29.2081613390  TIP3      5820            0.0000000000
     67292      6220  TIP3      H2            -41.0107486590       42.0053930371       29.2107097575  TIP3      5820            0.0000000000
     67293      6221  TIP3      OH2           -52.7748675244       42.9065934840       30.3471674840  TIP3      5821            0.0000000000
     67294      6221  TIP3      H1            -52.1344627689       43.5655245193       30.6991560228  TIP3      5821            0.0000000000
     67295      6221  TIP3      H2            -52.2325880337       42.4604724558       29.6513892053  TIP3      5821            0.0000000000
     67296      6222  TIP3      OH2           -51.3578455770       50.6608986892       33.4235242554  TIP3      5822            0.0000000000
     67297      6222  TIP3      H1            -51.3915267638       51.5687687872       33.0672654243  TIP3      5822            0.0000000000
     67298      6222  TIP3      H2            -52.2414980222       50.5932214817       33.8642610006  TIP3      5822            0.0000000000
     67299      6223  TIP3      OH2           -55.2429755916       50.3228368052       24.2111839144  TIP3      5823            0.0000000000
     67300      6223  TIP3      H1            -55.5186393594       50.5908971894       23.3297662708  TIP3      5823            0.0000000000
     67301      6223  TIP3      H2            -55.1957286735       51.1714753347       24.6961516374  TIP3      5823            0.0000000000
     67302      6224  TIP3      OH2           -41.6341122758       51.9557916895       30.9484957192  TIP3      5824            0.0000000000
     67303      6224  TIP3      H1            -42.5969934959       52.0443912942       31.0959070501  TIP3      5824            0.0000000000
     67304      6224  TIP3      H2            -41.3707066426       52.8830802712       30.7804261244  TIP3      5824            0.0000000000
     67305      6225  TIP3      OH2           -41.3267013240       40.2560264333       32.3668596903  TIP3      5825            0.0000000000
     67306      6225  TIP3      H1            -42.0675938210       40.8718830251       32.2958172272  TIP3      5825            0.0000000000
     67307      6225  TIP3      H2            -40.6357709489       40.6717344295       31.8227015825  TIP3      5825            0.0000000000
     67308      6226  TIP3      OH2           -48.3310237554       38.3358371944       29.7996926804  TIP3      5826            0.0000000000
     67309      6226  TIP3      H1            -48.5029365734       37.3871083727       29.7743286599  TIP3      5826            0.0000000000
     67310      6226  TIP3      H2            -49.2046326219       38.6789059034       30.1061348829  TIP3      5826            0.0000000000
     67311      6227  TIP3      OH2           -43.4241375157       53.7281398056       27.5605663132  TIP3      5827            0.0000000000
     67312      6227  TIP3      H1            -42.9428943619       53.0273746553       27.0692854624  TIP3      5827            0.0000000000
     67313      6227  TIP3      H2            -43.0187806188       54.5325330295       27.1511284771  TIP3      5827            0.0000000000
     67314      6228  TIP3      OH2           -42.2163110214       51.6703376526       26.0644896001  TIP3      5828            0.0000000000
     67315      6228  TIP3      H1            -42.4960896379       50.9594165338       25.4671714602  TIP3      5828            0.0000000000
     67316      6228  TIP3      H2            -42.1429382637       51.1842559871       26.9115190191  TIP3      5828            0.0000000000
     67317      6229  TIP3      OH2           -40.5501378671       50.2350790937       34.5620333340  TIP3      5829            0.0000000000
     67318      6229  TIP3      H1            -40.4054535556       49.6150670298       33.8147469242  TIP3      5829            0.0000000000
     67319      6229  TIP3      H2            -40.3689021733       51.0996142196       34.1633884908  TIP3      5829            0.0000000000
     67320      6230  TIP3      OH2           -46.0489995514       47.1650297720       24.3527011197  TIP3      5830            0.0000000000
     67321      6230  TIP3      H1            -46.7694426264       47.7197394612       23.9737034664  TIP3      5830            0.0000000000
     67322      6230  TIP3      H2            -45.3773395015       47.2269754295       23.6427851258  TIP3      5830            0.0000000000
     67323      6231  TIP3      OH2           -45.9892538867       45.6609656804       21.3793243597  TIP3      5831            0.0000000000
     67324      6231  TIP3      H1            -45.2852296881       45.6610710519       22.0132278072  TIP3      5831            0.0000000000
     67325      6231  TIP3      H2            -45.7173548026       45.0085795408       20.7204928771  TIP3      5831            0.0000000000
     67326      6232  TIP3      OH2           -38.6863845870       46.5549571467       32.6195609147  TIP3      5832            0.0000000000
     67327      6232  TIP3      H1            -39.3499208731       47.2710997835       32.6809452381  TIP3      5832            0.0000000000
     67328      6232  TIP3      H2            -38.2164495717       46.7863016526       31.7982959604  TIP3      5832            0.0000000000
     67329      6233  TIP3      OH2           -42.6370540567       47.3867537366       25.2542566801  TIP3      5833            0.0000000000
     67330      6233  TIP3      H1            -43.3877677406       47.6138673356       25.8577618959  TIP3      5833            0.0000000000
     67331      6233  TIP3      H2            -42.1896887239       46.6801075079       25.7539779331  TIP3      5833            0.0000000000
     67332      6234  TIP3      OH2           -42.7192544296       45.5374396486       34.3521822270  TIP3      5834            0.0000000000
     67333      6234  TIP3      H1            -42.6900521202       46.3394506373       34.9029745493  TIP3      5834            0.0000000000
     67334      6234  TIP3      H2            -43.3530699278       45.8405767868       33.6636370805  TIP3      5834            0.0000000000
     67335      6235  TIP3      OH2           -51.0143347036       48.0371517211       27.1639823609  TIP3      5835            0.0000000000
     67336      6235  TIP3      H1            -51.3455468264       47.6384283174       26.3226190449  TIP3      5835            0.0000000000
     67337      6235  TIP3      H2            -50.4109390492       47.3343921804       27.5003494464  TIP3      5835            0.0000000000
     67338      6236  TIP3      OH2           -49.6501027111       51.4737781544       29.8221650167  TIP3      5836            0.0000000000
     67339      6236  TIP3      H1            -49.7377183271       50.8596988175       29.0755845981  TIP3      5836            0.0000000000
     67340      6236  TIP3      H2            -48.9211262173       51.0578653839       30.3249044673  TIP3      5836            0.0000000000
     67341      6237  TIP3      OH2           -50.6661337267       46.7752330881       30.8027216731  TIP3      5837            0.0000000000
     67342      6237  TIP3      H1            -50.0923981898       46.9006076246       30.0235030656  TIP3      5837            0.0000000000
     67343      6237  TIP3      H2            -50.3143297657       47.4339373027       31.4337219598  TIP3      5837            0.0000000000
     67344      6238  TIP3      OH2           -44.3206795225       52.3213332082       31.5103596001  TIP3      5838            0.0000000000
     67345      6238  TIP3      H1            -44.5663911460       52.9650144909       32.1794717797  TIP3      5838            0.0000000000
     67346      6238  TIP3      H2            -44.5337074719       51.4620339245       31.9597032010  TIP3      5838            0.0000000000
     67347      6239  TIP3      OH2           -49.7433088714       51.1929444531       35.5163769251  TIP3      5839            0.0000000000
     67348      6239  TIP3      H1            -50.1058345430       51.9745627993       35.9815067316  TIP3      5839            0.0000000000
     67349      6239  TIP3      H2            -50.4200580341       51.0226290174       34.8166711216  TIP3      5839            0.0000000000
     67350      6240  TIP3      OH2           -43.7701426114       46.5426044444       22.9515298529  TIP3      5840            0.0000000000
     67351      6240  TIP3      H1            -43.2049088621       46.7235680509       23.7319426969  TIP3      5840            0.0000000000
     67352      6240  TIP3      H2            -43.3578191896       47.0316283899       22.2320471484  TIP3      5840            0.0000000000
     67353      6241  TIP3      OH2           -52.8193703860       47.3720841320       34.7035779104  TIP3      5841            0.0000000000
     67354      6241  TIP3      H1            -52.7788140442       48.0365438260       35.4237702049  TIP3      5841            0.0000000000
     67355      6241  TIP3      H2            -53.7414209664       47.4835975257       34.4260198744  TIP3      5841            0.0000000000
     67356      6242  TIP3      OH2           -46.0754920215       53.2851262150       26.4225850951  TIP3      5842            0.0000000000
     67357      6242  TIP3      H1            -45.5100572160       53.6028385032       27.1373085078  TIP3      5842            0.0000000000
     67358      6242  TIP3      H2            -46.5873104024       54.0462598144       26.1016472128  TIP3      5842            0.0000000000
     67359      6243  TIP3      OH2           -51.5120002257       53.2510247679       36.2692003982  TIP3      5843            0.0000000000
     67360      6243  TIP3      H1            -51.5316392074       53.1191917797       35.3101893637  TIP3      5843            0.0000000000
     67361      6243  TIP3      H2            -52.4472085593       53.1349005869       36.5208263439  TIP3      5843            0.0000000000
     67362      6244  TIP3      OH2           -40.0497597573       38.2971665868       22.7983984044  TIP3      5844            0.0000000000
     67363      6244  TIP3      H1            -40.9915797287       38.4283163631       23.0449146840  TIP3      5844            0.0000000000
     67364      6244  TIP3      H2            -39.8498497693       39.1315702912       22.3607941102  TIP3      5844            0.0000000000
     67365      6245  TIP3      OH2           -52.0238204402       47.0797399028       24.7906421873  TIP3      5845            0.0000000000
     67366      6245  TIP3      H1            -52.3100611776       47.8430970229       24.2375067653  TIP3      5845            0.0000000000
     67367      6245  TIP3      H2            -52.6885375724       46.4203325815       24.5695169505  TIP3      5845            0.0000000000
     67368      6246  TIP3      OH2           -55.9020600072       49.4783789551       33.5942775456  TIP3      5846            0.0000000000
     67369      6246  TIP3      H1            -56.4171232193       49.4090505625       32.7663656120  TIP3      5846            0.0000000000
     67370      6246  TIP3      H2            -55.9094635880       48.5351327403       33.8688267948  TIP3      5846            0.0000000000
     67371      6247  TIP3      OH2           -56.1916378703       52.2090845614       30.4576981967  TIP3      5847            0.0000000000
     67372      6247  TIP3      H1            -55.2353641604       52.0875095687       30.4326161525  TIP3      5847            0.0000000000
     67373      6247  TIP3      H2            -56.2863765251       53.0177380632       30.9729718440  TIP3      5847            0.0000000000
     67374      6248  TIP3      OH2           -37.9628950358       52.8979588045       36.1183231667  TIP3      5848            0.0000000000
     67375      6248  TIP3      H1            -38.0556359085       51.9383653778       36.1059613278  TIP3      5848            0.0000000000
     67376      6248  TIP3      H2            -38.8157811737       53.1602631644       36.5373931563  TIP3      5848            0.0000000000
     67377      6249  TIP3      OH2           -46.9952021010       52.4612152301       34.9958968808  TIP3      5849            0.0000000000
     67378      6249  TIP3      H1            -46.9233524797       53.3046191959       35.5016185595  TIP3      5849            0.0000000000
     67379      6249  TIP3      H2            -47.8754845224       52.1330612143       35.2516115690  TIP3      5849            0.0000000000
     67380      6250  TIP3      OH2           -46.5919473318      -56.6393300251       24.8049905530  TIP3      5850            0.0000000000
     67381      6250  TIP3      H1            -46.6499814971      -56.7243604848       23.8409153453  TIP3      5850            0.0000000000
     67382      6250  TIP3      H2            -46.5574050605      -55.6602521373       24.9505354337  TIP3      5850            0.0000000000
     67383      6251  TIP3      OH2           -52.9128522467       55.0217246114       26.5800582761  TIP3      5851            0.0000000000
     67384      6251  TIP3      H1            -52.7910786502       54.6674579348       27.4878030781  TIP3      5851            0.0000000000
     67385      6251  TIP3      H2            -53.7841327709       54.6543812866       26.3577466637  TIP3      5851            0.0000000000
     67386      6252  TIP3      OH2           -43.4860788009       55.3933294648       21.7916116632  TIP3      5852            0.0000000000
     67387      6252  TIP3      H1            -43.1265548518       54.6265468436       21.3460529287  TIP3      5852            0.0000000000
     67388      6252  TIP3      H2            -43.4838995223       55.1264826435       22.7338590785  TIP3      5852            0.0000000000
     67389      6253  TIP3      OH2           -43.8364243647       55.2940030257       24.5483451273  TIP3      5853            0.0000000000
     67390      6253  TIP3      H1            -44.7761467273       55.4167895832       24.7564032080  TIP3      5853            0.0000000000
     67391      6253  TIP3      H2            -43.5389446690       54.5936595846       25.1403858576  TIP3      5853            0.0000000000
     67392      6254  TIP3      OH2           -40.8218077086       44.3919379772       36.6093853015  TIP3      5854            0.0000000000
     67393      6254  TIP3      H1            -41.2575804759       44.8595519651       35.8823966366  TIP3      5854            0.0000000000
     67394      6254  TIP3      H2            -40.8024157430       43.4750106766       36.2955059397  TIP3      5854            0.0000000000
     67395      6255  TIP3      OH2           -53.6789596935       50.8024411597       34.6042682755  TIP3      5855            0.0000000000
     67396      6255  TIP3      H1            -53.4686733602       50.4109607169       35.4754764219  TIP3      5855            0.0000000000
     67397      6255  TIP3      H2            -54.5399201010       50.3942901090       34.3864246149  TIP3      5855            0.0000000000
     67398      6256  TIP3      OH2           -51.0210081242       39.2464088376       30.5853342022  TIP3      5856            0.0000000000
     67399      6256  TIP3      H1            -51.9219702159       39.1581602012       30.1955686082  TIP3      5856            0.0000000000
     67400      6256  TIP3      H2            -51.0993560966       40.1026873875       31.0341113883  TIP3      5856            0.0000000000
     67401      6257  TIP3      OH2           -46.3718932162       38.9569846155       33.9491804816  TIP3      5857            0.0000000000
     67402      6257  TIP3      H1            -45.9691878236       38.5334028904       34.7284328196  TIP3      5857            0.0000000000
     67403      6257  TIP3      H2            -47.3381837060       38.7952053306       34.0867275426  TIP3      5857            0.0000000000
     67404      6258  TIP3      OH2           -43.0607413278       42.7444313075       34.8211430762  TIP3      5858            0.0000000000
     67405      6258  TIP3      H1            -43.6039133645       42.5777339849       35.6281233670  TIP3      5858            0.0000000000
     67406      6258  TIP3      H2            -43.2328526202       43.6666513410       34.5838905723  TIP3      5858            0.0000000000
     67407      6259  TIP3      OH2           -46.7115344680       41.4739685092       21.2501388090  TIP3      5859            0.0000000000
     67408      6259  TIP3      H1            -46.9871367409       41.4601510305       22.1806416910  TIP3      5859            0.0000000000
     67409      6259  TIP3      H2            -46.9945529028       40.6086221285       20.9563134006  TIP3      5859            0.0000000000
     67410      6260  TIP3      OH2           -50.9279369594       44.2103964973       31.7439084846  TIP3      5860            0.0000000000
     67411      6260  TIP3      H1            -51.6239221561       44.1874762837       32.4269819572  TIP3      5860            0.0000000000
     67412      6260  TIP3      H2            -50.9368764267       45.1480930732       31.4491565414  TIP3      5860            0.0000000000
     67413      6261  TIP3      OH2           -50.9518946053       44.4096889134       26.6464486112  TIP3      5861            0.0000000000
     67414      6261  TIP3      H1            -51.8731486865       44.0940773477       26.5415970360  TIP3      5861            0.0000000000
     67415      6261  TIP3      H2            -50.5345046070       44.0568644669       25.8389272973  TIP3      5861            0.0000000000
     67416      6262  TIP3      OH2           -45.4289743202       44.8365530150       25.4350188054  TIP3      5862            0.0000000000
     67417      6262  TIP3      H1            -45.8392128150       45.6709874685       25.1127812336  TIP3      5862            0.0000000000
     67418      6262  TIP3      H2            -44.7158594979       44.7025851780       24.7871841816  TIP3      5862            0.0000000000
     67419      6263  TIP3      OH2           -46.3379309167       45.0505273015       36.8980480785  TIP3      5863            0.0000000000
     67420      6263  TIP3      H1            -46.8934857305       44.3000792334       37.2207038004  TIP3      5863            0.0000000000
     67421      6263  TIP3      H2            -45.5063793594       44.9147035514       37.3794635049  TIP3      5863            0.0000000000
     67422      6264  TIP3      OH2           -44.4084992202       44.3189231419       28.2736646716  TIP3      5864            0.0000000000
     67423      6264  TIP3      H1            -44.6393192177       44.8987495321       27.5278173247  TIP3      5864            0.0000000000
     67424      6264  TIP3      H2            -44.2619018324       43.4717339069       27.8040861003  TIP3      5864            0.0000000000
     67425      6265  TIP3      OH2           -53.2373940257       44.5194865632       33.5299951858  TIP3      5865            0.0000000000
     67426      6265  TIP3      H1            -53.2404979083       44.9161755438       34.4170288950  TIP3      5865            0.0000000000
     67427      6265  TIP3      H2            -53.7078237178       43.6855900888       33.6760484236  TIP3      5865            0.0000000000
     67428      6266  TIP3      OH2           -56.6019567077       41.6497541587       27.4249607375  TIP3      5866            0.0000000000
     67429      6266  TIP3      H1            -55.9546459401       41.5946688000       28.1548643616  TIP3      5866            0.0000000000
     67430      6266  TIP3      H2            -56.1581645831       41.2191201446       26.6753546932  TIP3      5866            0.0000000000
     67431      6267  TIP3      OH2           -55.3159500167       42.3331046900       22.8249407879  TIP3      5867            0.0000000000
     67432      6267  TIP3      H1            -54.8654540126       42.9777276514       22.2683364286  TIP3      5867            0.0000000000
     67433      6267  TIP3      H2            -56.0327016491       42.9146338312       23.1825708040  TIP3      5867            0.0000000000
     67434      6268  TIP3      OH2           -45.1714274349       45.9418174407       32.8865523154  TIP3      5868            0.0000000000
     67435      6268  TIP3      H1            -44.8253757574       45.2748200735       32.2643331756  TIP3      5868            0.0000000000
     67436      6268  TIP3      H2            -45.6207754510       45.3962087593       33.5563714063  TIP3      5868            0.0000000000
     67437      6269  TIP3      OH2           -48.3795883491       41.8775953171       27.6828720055  TIP3      5869            0.0000000000
     67438      6269  TIP3      H1            -49.3114308720       41.9140606898       27.9843231632  TIP3      5869            0.0000000000
     67439      6269  TIP3      H2            -47.8864626867       41.7782848546       28.5109050320  TIP3      5869            0.0000000000
     67440      6270  TIP3      OH2           -53.5656520818       43.4742374931       26.5377150594  TIP3      5870            0.0000000000
     67441      6270  TIP3      H1            -54.4631405049       43.5898137818       26.1668350679  TIP3      5870            0.0000000000
     67442      6270  TIP3      H2            -53.2788902150       42.6280880521       26.1624388371  TIP3      5870            0.0000000000
     67443      6271  TIP3      OH2           -49.9283700953       43.4990821999       24.1689374673  TIP3      5871            0.0000000000
     67444      6271  TIP3      H1            -48.9731687132       43.6115493439       24.3552417552  TIP3      5871            0.0000000000
     67445      6271  TIP3      H2            -50.1230639061       44.1828769683       23.5140386803  TIP3      5871            0.0000000000
     67446      6272  TIP3      OH2           -43.9696007762       41.1166511001       30.9444092341  TIP3      5872            0.0000000000
     67447      6272  TIP3      H1            -44.6667351382       41.2123622317       31.6272007137  TIP3      5872            0.0000000000
     67448      6272  TIP3      H2            -44.4733371325       40.9279484514       30.1430099255  TIP3      5872            0.0000000000
     67449      6273  TIP3      OH2           -53.0879863277       49.2458339065       36.8256949455  TIP3      5873            0.0000000000
     67450      6273  TIP3      H1            -52.3667830214       49.4938889272       37.4324984516  TIP3      5873            0.0000000000
     67451      6273  TIP3      H2            -53.8860899532       49.4092144826       37.3805588821  TIP3      5873            0.0000000000
     67452      6274  TIP3      OH2           -47.0868516044       44.6552178042       29.5800518816  TIP3      5874            0.0000000000
     67453      6274  TIP3      H1            -46.5026625567       44.1085663277       29.0387874656  TIP3      5874            0.0000000000
     67454      6274  TIP3      H2            -47.2250267243       44.1178192725       30.3704249062  TIP3      5874            0.0000000000
     67455      6275  TIP3      OH2           -52.0832903040       40.8056475320       26.0018013009  TIP3      5875            0.0000000000
     67456      6275  TIP3      H1            -52.3939374107       39.8816133344       25.9786943863  TIP3      5875            0.0000000000
     67457      6275  TIP3      H2            -51.2882247532       40.7668954073       25.4534614205  TIP3      5875            0.0000000000
     67458      6276  TIP3      OH2           -48.4462404885       43.0082370445       31.9890009791  TIP3      5876            0.0000000000
     67459      6276  TIP3      H1            -49.2832194722       43.5002293501       32.0989872680  TIP3      5876            0.0000000000
     67460      6276  TIP3      H2            -47.9092692121       43.3271753476       32.7417104376  TIP3      5876            0.0000000000
     67461      6277  TIP3      OH2           -47.8812474451       49.2071366304       23.6896755421  TIP3      5877            0.0000000000
     67462      6277  TIP3      H1            -48.6563573383       48.7415580711       23.3597200288  TIP3      5877            0.0000000000
     67463      6277  TIP3      H2            -48.0571733844       49.3016204213       24.6334315201  TIP3      5877            0.0000000000
     67464      6278  TIP3      OH2           -40.7197472436       48.3871912005       32.4880248023  TIP3      5878            0.0000000000
     67465      6278  TIP3      H1            -40.1149302710       48.8614645015       31.8935565429  TIP3      5878            0.0000000000
     67466      6278  TIP3      H2            -41.5682338414       48.4863496908       32.0062037466  TIP3      5878            0.0000000000
     67467      6279  TIP3      OH2           -44.0222653695       42.0327719415       21.9080914611  TIP3      5879            0.0000000000
     67468      6279  TIP3      H1            -44.9561036292       42.1886417293       21.6960108383  TIP3      5879            0.0000000000
     67469      6279  TIP3      H2            -43.7026530776       42.9102161992       22.1707326663  TIP3      5879            0.0000000000
     67470      6280  TIP3      OH2           -46.3774489615       49.4464531983       34.9203013553  TIP3      5880            0.0000000000
     67471      6280  TIP3      H1            -46.7230636829       49.0517666662       35.7285758963  TIP3      5880            0.0000000000
     67472      6280  TIP3      H2            -46.5965514005       50.3780608774       35.0059431778  TIP3      5880            0.0000000000
     67473      6281  TIP3      OH2           -43.2921064028       43.9407492533       23.5598057466  TIP3      5881            0.0000000000
     67474      6281  TIP3      H1            -42.3850432379       43.7960213030       23.8785880907  TIP3      5881            0.0000000000
     67475      6281  TIP3      H2            -43.2270177867       44.7267299857       22.9931570259  TIP3      5881            0.0000000000
     67476      6282  TIP3      OH2           -52.7628285325       48.5817642391       29.4696637880  TIP3      5882            0.0000000000
     67477      6282  TIP3      H1            -52.0419090974       48.5335178962       28.8184757645  TIP3      5882            0.0000000000
     67478      6282  TIP3      H2            -52.6969057546       47.7248120007       29.9284717472  TIP3      5882            0.0000000000
     67479      6283  TIP3      OH2           -55.7598417106       47.0173968628       34.7615806129  TIP3      5883            0.0000000000
     67480      6283  TIP3      H1            -55.5620502825       46.5753688102       35.6069943134  TIP3      5883            0.0000000000
     67481      6283  TIP3      H2            -56.3772371025       46.3964417284       34.3270822968  TIP3      5883            0.0000000000
     67482      6284  TIP3      OH2           -48.7553247052       46.5480985303       36.9680733077  TIP3      5884            0.0000000000
     67483      6284  TIP3      H1            -49.0530167364       46.3214982125       36.0763198964  TIP3      5884            0.0000000000
     67484      6284  TIP3      H2            -47.8148237969       46.2804581718       36.9510574012  TIP3      5884            0.0000000000
     67485      6285  TIP3      OH2           -44.0973543788       51.9104794820       34.8610322282  TIP3      5885            0.0000000000
     67486      6285  TIP3      H1            -45.0245046712       52.0819254206       34.6277113124  TIP3      5885            0.0000000000
     67487      6285  TIP3      H2            -44.1110009480       52.1616926768       35.8039364225  TIP3      5885            0.0000000000
     67488      6286  TIP3      OH2           -38.4203870519       44.1242504253       23.2534801798  TIP3      5886            0.0000000000
     67489      6286  TIP3      H1            -38.9579449778       43.7502338919       22.5467364467  TIP3      5886            0.0000000000
     67490      6286  TIP3      H2            -38.2920949520       45.0521805120       22.9585860717  TIP3      5886            0.0000000000
     67491      6287  TIP3      OH2           -38.4193110895       49.9446193164       36.0891228482  TIP3      5887            0.0000000000
     67492      6287  TIP3      H1            -39.2999491111       50.1742054778       35.7047205596  TIP3      5887            0.0000000000
     67493      6287  TIP3      H2            -37.8502566886       49.9174203540       35.2960973830  TIP3      5887            0.0000000000
     67494      6288  TIP3      OH2           -40.1199788477       52.9315362757       23.6682558349  TIP3      5888            0.0000000000
     67495      6288  TIP3      H1            -40.4781423340       52.1008681012       24.0263179524  TIP3      5888            0.0000000000
     67496      6288  TIP3      H2            -39.8104074369       52.6941005888       22.8099520061  TIP3      5888            0.0000000000
     67497      6289  TIP3      OH2           -42.9223125420       47.7401024563       30.7480126760  TIP3      5889            0.0000000000
     67498      6289  TIP3      H1            -43.8653320373       47.5050891480       30.6807130626  TIP3      5889            0.0000000000
     67499      6289  TIP3      H2            -42.4866216296       46.9554755826       30.3696043879  TIP3      5889            0.0000000000
     67500      6290  TIP3      OH2           -50.3895721420       52.0688714144       26.8932567219  TIP3      5890            0.0000000000
     67501      6290  TIP3      H1            -49.8904637014       52.8521400628       26.6332237594  TIP3      5890            0.0000000000
     67502      6290  TIP3      H2            -51.2750970160       52.2814916681       26.5476611208  TIP3      5890            0.0000000000
     67503      6291  TIP3      OH2           -54.5805272012       46.8904609841       21.4435720458  TIP3      5891            0.0000000000
     67504      6291  TIP3      H1            -54.0165969433       47.5778507899       21.8140469902  TIP3      5891            0.0000000000
     67505      6291  TIP3      H2            -55.4766671606       47.2147040787       21.6907011113  TIP3      5891            0.0000000000
     67506      6292  TIP3      OH2           -48.9498217293       49.7289386851       26.4287802051  TIP3      5892            0.0000000000
     67507      6292  TIP3      H1            -49.2545593390       50.6479717469       26.4729657389  TIP3      5892            0.0000000000
     67508      6292  TIP3      H2            -49.7085397327       49.2503500883       26.8281690831  TIP3      5892            0.0000000000
     67509      6293  TIP3      OH2           -48.4870985020       53.8839087879       32.7474394656  TIP3      5893            0.0000000000
     67510      6293  TIP3      H1            -48.0825244876       54.7340742787       32.5283551036  TIP3      5893            0.0000000000
     67511      6293  TIP3      H2            -47.9194491102       53.5766300894       33.4845830515  TIP3      5893            0.0000000000
     67512      6294  TIP3      OH2           -50.2670720155       54.7235715697       25.9775578705  TIP3      5894            0.0000000000
     67513      6294  TIP3      H1            -51.2401792129       54.8556075591       26.0411160550  TIP3      5894            0.0000000000
     67514      6294  TIP3      H2            -49.9395460009       55.5851996976       26.3018651982  TIP3      5894            0.0000000000
     67515      6295  TIP3      OH2           -44.9417235639       49.9506663778       32.4342416288  TIP3      5895            0.0000000000
     67516      6295  TIP3      H1            -45.3346439622       49.7348883959       33.3007222722  TIP3      5895            0.0000000000
     67517      6295  TIP3      H2            -44.3347894666       49.2165919066       32.2595350542  TIP3      5895            0.0000000000
     67518      6296  TIP3      OH2           -42.6877385403       50.9273777979       21.5039223284  TIP3      5896            0.0000000000
     67519      6296  TIP3      H1            -42.3863923983       50.5059039591       22.3288428165  TIP3      5896            0.0000000000
     67520      6296  TIP3      H2            -43.6673104343       50.8184624427       21.5876401048  TIP3      5896            0.0000000000
     67521      6297  TIP3      OH2           -42.2251229932       54.5285018075       34.9290627093  TIP3      5897            0.0000000000
     67522      6297  TIP3      H1            -42.8591886782       53.9741528725       34.4204574468  TIP3      5897            0.0000000000
     67523      6297  TIP3      H2            -41.9804838402       55.1898870268       34.2677284554  TIP3      5897            0.0000000000
     67524      6298  TIP3      OH2           -54.1179479488       41.7566430520       34.2988027233  TIP3      5898            0.0000000000
     67525      6298  TIP3      H1            -55.0282622822       42.0962172676       34.2563945478  TIP3      5898            0.0000000000
     67526      6298  TIP3      H2            -54.2208757506       40.8995947608       34.7448726804  TIP3      5898            0.0000000000
     67527      6299  TIP3      OH2           -41.8603658199       49.5975199943       23.7422858949  TIP3      5899            0.0000000000
     67528      6299  TIP3      H1            -42.1253630874       48.8310680725       24.2983916979  TIP3      5899            0.0000000000
     67529      6299  TIP3      H2            -40.9207245685       49.6751317909       23.9622879056  TIP3      5899            0.0000000000
     67530      6300  TIP3      OH2           -54.4686954511       53.5548973693       32.7356857891  TIP3      5900            0.0000000000
     67531      6300  TIP3      H1            -54.2340825835       52.6164828086       32.7293394212  TIP3      5900            0.0000000000
     67532      6300  TIP3      H2            -54.2290053497       53.8290196912       33.6317673631  TIP3      5900            0.0000000000
     67533      6301  TIP3      OH2           -49.7576262515       51.6008001955       22.4493271594  TIP3      5901            0.0000000000
     67534      6301  TIP3      H1            -49.5079597080       51.0554686671       23.2010245457  TIP3      5901            0.0000000000
     67535      6301  TIP3      H2            -49.6687518400       52.5153120104       22.7504087544  TIP3      5901            0.0000000000
     67536      6302  TIP3      OH2           -53.2024643619       48.8155666877       22.9600671440  TIP3      5902            0.0000000000
     67537      6302  TIP3      H1            -53.9220936040       49.1988301793       23.4961246568  TIP3      5902            0.0000000000
     67538      6302  TIP3      H2            -52.7187195955       49.6074391818       22.6638154761  TIP3      5902            0.0000000000
     67539      6303  TIP3      OH2           -45.3954020316       41.5140867739       33.2241713361  TIP3      5903            0.0000000000
     67540      6303  TIP3      H1            -44.6889489734       41.5716422512       33.8794941104  TIP3      5903            0.0000000000
     67541      6303  TIP3      H2            -45.7763487769       40.6309537816       33.4041306717  TIP3      5903            0.0000000000
     67542      6304  TIP3      OH2           -44.6394009286       41.1321485436       24.3483635917  TIP3      5904            0.0000000000
     67543      6304  TIP3      H1            -44.3904707111       41.5979790750       23.5120985166  TIP3      5904            0.0000000000
     67544      6304  TIP3      H2            -44.0471046990       41.5429664241       24.9848778185  TIP3      5904            0.0000000000
     67545      6305  TIP3      OH2           -46.9388302161       53.2802704783       23.2005858045  TIP3      5905            0.0000000000
     67546      6305  TIP3      H1            -47.7738147766       53.7605997988       23.2204070709  TIP3      5905            0.0000000000
     67547      6305  TIP3      H2            -46.4182335929       53.7437401372       22.5350833309  TIP3      5905            0.0000000000
     67548      6306  TIP3      OH2           -47.4229151265       42.8636126654       25.1486646809  TIP3      5906            0.0000000000
     67549      6306  TIP3      H1            -46.6070398699       43.4027661062       25.1889409197  TIP3      5906            0.0000000000
     67550      6306  TIP3      H2            -47.6655324101       42.7294109805       26.0790702934  TIP3      5906            0.0000000000
     67551      6307  TIP3      OH2           -46.8701504205       43.8629901412       34.3365650947  TIP3      5907            0.0000000000
     67552      6307  TIP3      H1            -46.7698193861       44.4393917293       35.1166573841  TIP3      5907            0.0000000000
     67553      6307  TIP3      H2            -46.2100692212       43.1688662742       34.4478220061  TIP3      5907            0.0000000000
     67554      6308  TIP3      OH2           -46.5434880933       39.9160527572       26.0845143133  TIP3      5908            0.0000000000
     67555      6308  TIP3      H1            -46.8779980371       40.5795092158       26.7143120362  TIP3      5908            0.0000000000
     67556      6308  TIP3      H2            -45.8704845284       40.4710130208       25.6031793673  TIP3      5908            0.0000000000
     67557      6309  TIP3      OH2           -49.5985258586       54.3296688850       23.1620730022  TIP3      5909            0.0000000000
     67558      6309  TIP3      H1            -49.4413700867       55.1271040077       22.6656169500  TIP3      5909            0.0000000000
     67559      6309  TIP3      H2            -49.8246403945       54.6346270703       24.0586039418  TIP3      5909            0.0000000000
     67560      6310  TIP3      OH2           -50.9059044704       41.0005822240       22.7861460997  TIP3      5910            0.0000000000
     67561      6310  TIP3      H1            -50.9391656468       41.9069236513       23.1275229583  TIP3      5910            0.0000000000
     67562      6310  TIP3      H2            -49.9822966757       40.7657842564       22.9971791066  TIP3      5910            0.0000000000
     67563      6311  TIP3      OH2           -40.6614497835       41.7527560389       35.1885941066  TIP3      5911            0.0000000000
     67564      6311  TIP3      H1            -41.6013400869       42.0411223433       35.0702144950  TIP3      5911            0.0000000000
     67565      6311  TIP3      H2            -40.3573666739       41.7513233501       34.2677494796  TIP3      5911            0.0000000000
     67566      6312  TIP3      OH2           -42.0709061444       45.5301723409       29.2394535680  TIP3      5912            0.0000000000
     67567      6312  TIP3      H1            -42.8836005481       45.0932256577       28.9328336095  TIP3      5912            0.0000000000
     67568      6312  TIP3      H2            -41.6095155084       44.8272778470       29.7494162783  TIP3      5912            0.0000000000
     67569      6313  TIP3      OH2           -52.6233784426       51.4477751358       21.8571363041  TIP3      5913            0.0000000000
     67570      6313  TIP3      H1            -52.0011590638       52.1374059126       22.0999089305  TIP3      5913            0.0000000000
     67571      6313  TIP3      H2            -52.1747541329       51.0148241144       21.1075786033  TIP3      5913            0.0000000000
     67572      6314  TIP3      OH2           -41.0037423687       54.7360648776       30.8996986527  TIP3      5914            0.0000000000
     67573      6314  TIP3      H1            -41.1235643372       55.4525726076       30.2282208489  TIP3      5914            0.0000000000
     67574      6314  TIP3      H2            -40.0476803374       54.8500290819       31.0772000893  TIP3      5914            0.0000000000
     67575      6315  TIP3      OH2           -53.4928165241       38.9088125856       29.6494216981  TIP3      5915            0.0000000000
     67576      6315  TIP3      H1            -53.7211685912       38.9386845977       28.6937328455  TIP3      5915            0.0000000000
     67577      6315  TIP3      H2            -53.9328255929       38.0810065002       29.9244796291  TIP3      5915            0.0000000000
     67578      6316  TIP3      OH2           -54.5633110460       52.8213103573       25.8017101516  TIP3      5916            0.0000000000
     67579      6316  TIP3      H1            -55.3990291170       53.3163445500       25.8017795001  TIP3      5916            0.0000000000
     67580      6316  TIP3      H2            -54.0319581274       53.3246763675       25.1686681102  TIP3      5916            0.0000000000
     67581      6317  TIP3      OH2           -55.2619469512       55.4571968646       37.0891607426  TIP3      5917            0.0000000000
     67582      6317  TIP3      H1            -54.7337530326       55.2453560996       37.8811764963  TIP3      5917            0.0000000000
     67583      6317  TIP3      H2            -55.7601344435       54.6489139986       36.9441994380  TIP3      5917            0.0000000000
     67584      6318  TIP3      OH2           -50.6715488834       54.3712641449       38.7502055271  TIP3      5918            0.0000000000
     67585      6318  TIP3      H1            -49.8943590115       53.8913658406       39.0586687485  TIP3      5918            0.0000000000
     67586      6318  TIP3      H2            -50.6969854936       54.1259170535       37.8021017468  TIP3      5918            0.0000000000
     67587      6319  TIP3      OH2           -44.1289520088       52.7705635229       37.4563054108  TIP3      5919            0.0000000000
     67588      6319  TIP3      H1            -44.4585305146       51.8860824105       37.7172619127  TIP3      5919            0.0000000000
     67589      6319  TIP3      H2            -43.3731876043       52.8868463576       38.0614635247  TIP3      5919            0.0000000000
     67590      6320  TIP3      OH2           -55.3796055482       49.2504600129       38.0985862331  TIP3      5920            0.0000000000
     67591      6320  TIP3      H1            -55.2394458649       48.3377124436       37.7798077767  TIP3      5920            0.0000000000
     67592      6320  TIP3      H2            -56.1449124926       49.5425217208       37.5532456663  TIP3      5920            0.0000000000
     67593      6321  TIP3      OH2           -48.7074121883       49.2308744628       37.4938736475  TIP3      5921            0.0000000000
     67594      6321  TIP3      H1            -49.0481865157       49.5193412136       36.6281032630  TIP3      5921            0.0000000000
     67595      6321  TIP3      H2            -48.5879224079       48.2630755715       37.3972310413  TIP3      5921            0.0000000000
     67596      6322  TIP3      OH2           -42.9966641282       49.1144671290       34.8850554134  TIP3      5922            0.0000000000
     67597      6322  TIP3      H1            -42.2298425910       49.7216176564       34.7847781939  TIP3      5922            0.0000000000
     67598      6322  TIP3      H2            -43.7276233744       49.7451003851       34.9340047415  TIP3      5922            0.0000000000
     67599      6323  TIP3      OH2           -54.5274478999       46.4766886138       37.4848713255  TIP3      5923            0.0000000000
     67600      6323  TIP3      H1            -54.1137540177       45.6087964355       37.3819597318  TIP3      5923            0.0000000000
     67601      6323  TIP3      H2            -54.7700521224       46.4893955413       38.4285154530  TIP3      5923            0.0000000000
     67602      6324  TIP3      OH2           -50.5956718501       45.4430677894       34.8610990897  TIP3      5924            0.0000000000
     67603      6324  TIP3      H1            -51.2100262803       46.1478565995       35.1285799898  TIP3      5924            0.0000000000
     67604      6324  TIP3      H2            -50.2351169762       45.7939373490       34.0289761586  TIP3      5924            0.0000000000
     67605      6325  TIP3      OH2           -45.5596891845       47.9639005586       38.1732630947  TIP3      5925            0.0000000000
     67606      6325  TIP3      H1            -44.5989761296       48.0039860351       38.0935225786  TIP3      5925            0.0000000000
     67607      6325  TIP3      H2            -45.7212536488       47.2182449311       38.7709821603  TIP3      5925            0.0000000000
     67608      6326  TIP3      OH2           -50.2252717896       42.8154660146       35.9324493324  TIP3      5926            0.0000000000
     67609      6326  TIP3      H1            -50.0961316425       42.0864499558       35.3046950608  TIP3      5926            0.0000000000
     67610      6326  TIP3      H2            -50.2480832198       43.6117926683       35.3669322660  TIP3      5926            0.0000000000
     67611      6327  TIP3      OH2           -49.8186136390       41.1853374208       33.4542626596  TIP3      5927            0.0000000000
     67612      6327  TIP3      H1            -49.2941362173       41.6479613791       32.7615287678  TIP3      5927            0.0000000000
     67613      6327  TIP3      H2            -50.6996155226       41.0917808147       33.0234997355  TIP3      5927            0.0000000000
     67614      6328  TIP3      OH2           -48.2579204496       46.6397004187       33.6928258142  TIP3      5928            0.0000000000
     67615      6328  TIP3      H1            -47.5047883485       46.4849208988       33.1105078576  TIP3      5928            0.0000000000
     67616      6328  TIP3      H2            -48.6054018475       47.4931923329       33.3874232145  TIP3      5928            0.0000000000
     67617      6329  TIP3      OH2           -43.8539987958       44.4361271491       38.6902008213  TIP3      5929            0.0000000000
     67618      6329  TIP3      H1            -43.6419441586       43.4966426507       38.5899492284  TIP3      5929            0.0000000000
     67619      6329  TIP3      H2            -42.9814483931       44.8602916743       38.6848215824  TIP3      5929            0.0000000000
     67620      6330  TIP3      OH2           -42.5319348267       47.2195539660       36.8180936619  TIP3      5930            0.0000000000
     67621      6330  TIP3      H1            -42.7890957597       47.9452207067       36.2025404565  TIP3      5930            0.0000000000
     67622      6330  TIP3      H2            -41.5740761535       47.1742159642       36.6199733990  TIP3      5930            0.0000000000
     67623      6331  TIP3      OH2           -51.7547788312       44.0411165638       37.8608555589  TIP3      5931            0.0000000000
     67624      6331  TIP3      H1            -52.5319186806       43.4816716492       37.6372064265  TIP3      5931            0.0000000000
     67625      6331  TIP3      H2            -51.0938017759       43.6979855936       37.2285649958  TIP3      5931            0.0000000000
     67626      6332  TIP3      OH2           -49.0190095473       38.6257765523       33.8752132975  TIP3      5932            0.0000000000
     67627      6332  TIP3      H1            -49.1555334873       39.5953080979       33.7585674304  TIP3      5932            0.0000000000
     67628      6332  TIP3      H2            -49.7759240568       38.2711106516       33.3728982532  TIP3      5932            0.0000000000
     67629      6333  TIP3      OH2           -47.7492071455       42.9560649555       37.4494397188  TIP3      5933            0.0000000000
     67630      6333  TIP3      H1            -48.0287684316       42.7380415848       38.3567259152  TIP3      5933            0.0000000000
     67631      6333  TIP3      H2            -48.5475533580       42.7592893697       36.9205817994  TIP3      5933            0.0000000000
     67632      6334  TIP3      OH2           -45.0353484685       42.0902519690       36.5143887864  TIP3      5934            0.0000000000
     67633      6334  TIP3      H1            -45.9982734155       42.1335338944       36.6542053878  TIP3      5934            0.0000000000
     67634      6334  TIP3      H2            -44.7461885389       41.4617570470       37.1959376507  TIP3      5934            0.0000000000
     67635      6335  TIP3      OH2           -43.4330107618       40.7270637455       38.4880502229  TIP3      5935            0.0000000000
     67636      6335  TIP3      H1            -43.5043552183       39.7562638761       38.5035848835  TIP3      5935            0.0000000000
     67637      6335  TIP3      H2            -43.7277715706       41.0069824794       39.3847733525  TIP3      5935            0.0000000000
     67638      6336  TIP3      OH2           -53.5889884596       41.9658611171       37.5535981801  TIP3      5936            0.0000000000
     67639      6336  TIP3      H1            -53.3881452836       41.2240060860       36.9542493929  TIP3      5936            0.0000000000
     67640      6336  TIP3      H2            -53.7060076970       41.5159926516       38.4164839195  TIP3      5936            0.0000000000
     67641      6337  TIP3      OH2           -48.8115625013       37.9724309778       36.5539108875  TIP3      5937            0.0000000000
     67642      6337  TIP3      H1            -48.1006044318       37.2965354450       36.5224488747  TIP3      5937            0.0000000000
     67643      6337  TIP3      H2            -48.9070572727       38.1873483612       35.6071641333  TIP3      5937            0.0000000000
     67644      6338  TIP3      OH2           -48.4484640114       39.6201656860       38.6232629338  TIP3      5938            0.0000000000
     67645      6338  TIP3      H1            -48.5963151992       39.1279044634       37.7790459706  TIP3      5938            0.0000000000
     67646      6338  TIP3      H2            -49.0481699399       40.3828834145       38.5352416517  TIP3      5938            0.0000000000
     67647      6339  TIP3      OH2           -55.8084729198       54.6167612140       28.1165270408  TIP3      5939            0.0000000000
     67648      6339  TIP3      H1            -56.1745233430       53.7422631181       28.3202441173  TIP3      5939            0.0000000000
     67649      6339  TIP3      H2            -55.6139036595       54.9604445582       29.0052120961  TIP3      5939            0.0000000000
     67650      6340  TIP3      OH2           -38.2797632116       55.4252550262       31.0986215217  TIP3      5940            0.0000000000
     67651      6340  TIP3      H1            -38.2723971514       55.6064258159       32.0535480461  TIP3      5940            0.0000000000
     67652      6340  TIP3      H2            -37.5745117615       55.9950162193       30.7774412112  TIP3      5940            0.0000000000
     67653      6341  TIP3      OH2           -38.6975072271       54.9942507832       34.0214070712  TIP3      5941            0.0000000000
     67654      6341  TIP3      H1            -39.1872061365       54.2377358739       33.6522259753  TIP3      5941            0.0000000000
     67655      6341  TIP3      H2            -38.1706218251       54.5793209688       34.7229116263  TIP3      5941            0.0000000000
     67656      6342  TIP3      OH2           -40.2508472971       50.7542881617       38.6741229507  TIP3      5942            0.0000000000
     67657      6342  TIP3      H1            -41.1360862591       50.6945951216       39.0753208568  TIP3      5942            0.0000000000
     67658      6342  TIP3      H2            -39.8768171361       51.5497997349       39.1279532270  TIP3      5942            0.0000000000
     67659      6343  TIP3      OH2           -38.9531591712       49.0505948826       24.1433489042  TIP3      5943            0.0000000000
     67660      6343  TIP3      H1            -38.0927807879       49.4574804329       24.3335153618  TIP3      5943            0.0000000000
     67661      6343  TIP3      H2            -38.9480638407       48.3191601876       24.8081065768  TIP3      5943            0.0000000000
     67662      6344  TIP3      OH2           -38.5750876468       47.1195979082       25.9895899936  TIP3      5944            0.0000000000
     67663      6344  TIP3      H1            -39.3107062457       46.6224385987       26.4108349863  TIP3      5944            0.0000000000
     67664      6344  TIP3      H2            -37.9799038028       47.2948031222       26.7518666409  TIP3      5944            0.0000000000
     67665      6345  TIP3      OH2           -38.8207261573       49.8566946585       30.9805135824  TIP3      5945            0.0000000000
     67666      6345  TIP3      H1            -37.9794466915       49.4913570913       30.6498393623  TIP3      5945            0.0000000000
     67667      6345  TIP3      H2            -38.6828206298       50.8181975288       30.8305981713  TIP3      5945            0.0000000000
     67668      6346  TIP3      OH2           -40.2901846294       52.7433126115       33.2824202650  TIP3      5946            0.0000000000
     67669      6346  TIP3      H1            -40.9688328121       53.1019740733       33.8691447982  TIP3      5946            0.0000000000
     67670      6346  TIP3      H2            -40.8338517461       52.3272840033       32.5758297323  TIP3      5946            0.0000000000
     67671      6347  TIP3      OH2           -38.2986257221       46.9814388804       22.4166837946  TIP3      5947            0.0000000000
     67672      6347  TIP3      H1            -38.8163354067       47.3379736117       21.6947067599  TIP3      5947            0.0000000000
     67673      6347  TIP3      H2            -38.3396854079       47.6888421380       23.0753800773  TIP3      5947            0.0000000000
     67674      6348  TIP3      OH2           -40.7688519306       45.6192837445       26.5602374442  TIP3      5948            0.0000000000
     67675      6348  TIP3      H1            -40.9230296068       44.6641417484       26.5603628309  TIP3      5948            0.0000000000
     67676      6348  TIP3      H2            -41.1175054808       45.8755045272       27.4324811289  TIP3      5948            0.0000000000
     67677      6349  TIP3      OH2           -55.7438904498       47.6892370131       30.6185208725  TIP3      5949            0.0000000000
     67678      6349  TIP3      H1            -55.5608110251       47.6165036220       29.6565583523  TIP3      5949            0.0000000000
     67679      6349  TIP3      H2            -54.8645367084       47.5481254598       31.0095395784  TIP3      5949            0.0000000000
     67680      6350  TIP3      OH2           -39.9239453402       47.5883361272       36.2414561140  TIP3      5950            0.0000000000
     67681      6350  TIP3      H1            -39.3133449885       46.8389599532       36.4017137228  TIP3      5950            0.0000000000
     67682      6350  TIP3      H2            -39.3308278376       48.3659750629       36.2610461505  TIP3      5950            0.0000000000
     67683      6351  TIP3      OH2           -38.4119221369       45.4921302282       36.9171197612  TIP3      5951            0.0000000000
     67684      6351  TIP3      H1            -39.2882685195       45.0888995455       36.7387308990  TIP3      5951            0.0000000000
     67685      6351  TIP3      H2            -37.8229312246       44.7260114192       36.8287638928  TIP3      5951            0.0000000000
     67686      6352  TIP3      OH2           -41.0830312430       43.2074568265       25.0409265078  TIP3      5952            0.0000000000
     67687      6352  TIP3      H1            -40.7794761314       42.2773752102       25.1599376808  TIP3      5952            0.0000000000
     67688      6352  TIP3      H2            -40.2998598437       43.6167472761       24.6446024533  TIP3      5952            0.0000000000
     67689      6353  TIP3      OH2           -40.4638930544       43.7545463728       30.4709919071  TIP3      5953            0.0000000000
     67690      6353  TIP3      H1            -39.5068257232       43.9915014208       30.4528338456  TIP3      5953            0.0000000000
     67691      6353  TIP3      H2            -40.6685537119       43.8893792018       31.4096271094  TIP3      5953            0.0000000000
     67692      6354  TIP3      OH2           -40.4029843538       44.4834905569       33.2540624480  TIP3      5954            0.0000000000
     67693      6354  TIP3      H1            -41.2727222563       44.7787910876       33.6029388184  TIP3      5954            0.0000000000
     67694      6354  TIP3      H2            -39.9696629460       45.3435965803       33.0370879877  TIP3      5954            0.0000000000
     67695      6355  TIP3      OH2           -56.1261880831       42.9871680896       36.7404814027  TIP3      5955            0.0000000000
     67696      6355  TIP3      H1            -55.1953284606       42.8207251468       36.9723412894  TIP3      5955            0.0000000000
     67697      6355  TIP3      H2            -56.5753255730       42.1874591209       37.1021207938  TIP3      5955            0.0000000000
     67698      6356  TIP3      OH2           -38.1331858289       38.5047750831       38.6021569180  TIP3      5956            0.0000000000
     67699      6356  TIP3      H1            -37.7802297244       37.8455953055       37.9883293391  TIP3      5956            0.0000000000
     67700      6356  TIP3      H2            -37.9983737050       39.3410164588       38.1248213638  TIP3      5956            0.0000000000
     67701      6357  TIP3      OH2           -40.4466929191       40.4815460019       25.0807111147  TIP3      5957            0.0000000000
     67702      6357  TIP3      H1            -40.2494126636       40.0207093425       25.9185215349  TIP3      5957            0.0000000000
     67703      6357  TIP3      H2            -41.0513850612       39.8575349547       24.6167364578  TIP3      5957            0.0000000000
     67704      6358  TIP3      OH2           -54.9291476863       41.2926786290       29.6109058306  TIP3      5958            0.0000000000
     67705      6358  TIP3      H1            -54.4825196220       40.4798067593       29.9225484486  TIP3      5958            0.0000000000
     67706      6358  TIP3      H2            -54.4385082644       42.0007792636       30.0480602779  TIP3      5958            0.0000000000
     67707      6359  TIP3      OH2           -56.5900707053       44.2694263559       30.7123931515  TIP3      5959            0.0000000000
     67708      6359  TIP3      H1            -56.0923700715       44.0611710965       29.9004000554  TIP3      5959            0.0000000000
     67709      6359  TIP3      H2            -56.2234580080       45.1253967444       30.9537754745  TIP3      5959            0.0000000000
     67710      6360  TIP3      OH2           -38.6014060667       40.6188374632       36.9659161536  TIP3      5960            0.0000000000
     67711      6360  TIP3      H1            -39.5446613499       40.8819519730       36.9119853418  TIP3      5960            0.0000000000
     67712      6360  TIP3      H2            -38.5289668461       40.0770075110       36.1630242370  TIP3      5960            0.0000000000
     67713      6361  TIP3      OH2            56.5386535070       40.5499962770       24.7447416783  TIP3      5961            0.0000000000
     67714      6361  TIP3      H1             55.5962920967       40.7441384414       24.6114637749  TIP3      5961            0.0000000000
     67715      6361  TIP3      H2             56.9800710104       41.0321331922       24.0343336909  TIP3      5961            0.0000000000
     67716      6362  TIP3      OH2           -41.5486487513       55.5087388311       26.6763138015  TIP3      5962            0.0000000000
     67717      6362  TIP3      H1            -40.8617568687       55.1679864096       26.0778093842  TIP3      5962            0.0000000000
     67718      6362  TIP3      H2            -41.0250883652       56.0003525095       27.3339069362  TIP3      5962            0.0000000000
     67719      6363  TIP3      OH2            56.5276756263       39.2354869903       33.0526272751  TIP3      5963            0.0000000000
     67720      6363  TIP3      H1             55.8553110163       39.0386846342       33.7343036273  TIP3      5963            0.0000000000
     67721      6363  TIP3      H2             56.0526678821       39.8967777921       32.5026248898  TIP3      5963            0.0000000000
     67722      6364  TIP3      OH2           -54.1393842029       52.4533670861       37.2191991650  TIP3      5964            0.0000000000
     67723      6364  TIP3      H1            -54.9751466772       52.6111326565       36.7812134360  TIP3      5964            0.0000000000
     67724      6364  TIP3      H2            -54.3887936357       52.3746082546       38.1512712258  TIP3      5964            0.0000000000
     67725      6365  TIP3      OH2           -51.2190249402       53.4084237530       33.4936055648  TIP3      5965            0.0000000000
     67726      6365  TIP3      H1            -51.5989249795       54.2529287645       33.2088729775  TIP3      5965            0.0000000000
     67727      6365  TIP3      H2            -50.2910931572       53.5092099811       33.1889914499  TIP3      5965            0.0000000000
     67728      6366  TIP3      OH2           -46.8767083097       54.8130345501       36.4140019458  TIP3      5966            0.0000000000
     67729      6366  TIP3      H1            -46.7081551692       54.4928878195       37.3366358414  TIP3      5966            0.0000000000
     67730      6366  TIP3      H2            -46.0033420264       55.1386891920       36.1381261994  TIP3      5966            0.0000000000
     67731      6367  TIP3      OH2           -44.5738343624       56.1061734557       35.6937880930  TIP3      5967            0.0000000000
     67732      6367  TIP3      H1            -43.8543694093       55.4966482410       35.4607396393  TIP3      5967            0.0000000000
     67733      6367  TIP3      H2            -44.2167905011       56.5069919279       36.5166471302  TIP3      5967            0.0000000000
     67734      6368  TIP3      OH2           -39.5973186696       38.7156587564       34.7951600067  TIP3      5968            0.0000000000
     67735      6368  TIP3      H1            -40.4273668569       39.0175838568       34.3814234491  TIP3      5968            0.0000000000
     67736      6368  TIP3      H2            -39.4004277135       37.9195443236       34.2503866636  TIP3      5968            0.0000000000
     67737      6369  TIP3      OH2           -51.3230910964      -56.5975804977       32.6062584736  TIP3      5969            0.0000000000
     67738      6369  TIP3      H1            -52.2012464469      -56.4649999331       32.9670415866  TIP3      5969            0.0000000000
     67739      6369  TIP3      H2            -51.3664610533      -56.0286282936       31.7947857797  TIP3      5969            0.0000000000
     67740      6370  TIP3      OH2           -46.6121096839      -56.7073154838       31.7189344767  TIP3      5970            0.0000000000
     67741      6370  TIP3      H1            -47.0763867663      -56.1379732089       31.0849600783  TIP3      5970            0.0000000000
     67742      6370  TIP3      H2            -46.4597158711      -56.0674496512       32.4653825085  TIP3      5970            0.0000000000
     67743      6371  TIP3      OH2           -44.2991282020       55.0020454839       32.7005041303  TIP3      5971            0.0000000000
     67744      6371  TIP3      H1            -45.1909328480       55.2306228570       32.4114095251  TIP3      5971            0.0000000000
     67745      6371  TIP3      H2            -43.8648022613       55.8671364697       32.6182424502  TIP3      5971            0.0000000000
     67746      6372  TIP3      OH2           -54.3382734838       55.2804715635       30.4377681137  TIP3      5972            0.0000000000
     67747      6372  TIP3      H1            -54.3955464015       54.8526710361       31.3140477700  TIP3      5972            0.0000000000
     67748      6372  TIP3      H2            -53.5289570331       54.9403038698       30.0279805125  TIP3      5972            0.0000000000
     67749      6373  TIP3      OH2           -52.2458560978       54.0247732381       29.0805008614  TIP3      5973            0.0000000000
     67750      6373  TIP3      H1            -52.4440781866       53.0893768842       29.2781103643  TIP3      5973            0.0000000000
     67751      6373  TIP3      H2            -51.4116417312       54.1518374998       29.5667690674  TIP3      5973            0.0000000000
     67752      6374  TIP3      OH2           -49.6396462948       54.4885295585       29.9429185235  TIP3      5974            0.0000000000
     67753      6374  TIP3      H1            -49.5151632613       53.5599390883       29.6959126029  TIP3      5974            0.0000000000
     67754      6374  TIP3      H2            -49.6329151454       54.4479964017       30.9150184867  TIP3      5974            0.0000000000
     67755      6375  TIP3      OH2           -46.1903289818       40.1426308614       29.0955314820  TIP3      5975            0.0000000000
     67756      6375  TIP3      H1            -46.8730394655       39.5159890349       29.3610012451  TIP3      5975            0.0000000000
     67757      6375  TIP3      H2            -45.6234594270       39.6517219076       28.4944390646  TIP3      5975            0.0000000000
     67758      6376  TIP3      OH2           -41.0574553923       38.2211542115       29.1961351805  TIP3      5976            0.0000000000
     67759      6376  TIP3      H1            -40.4374354243       38.7995232234       28.6834042716  TIP3      5976            0.0000000000
     67760      6376  TIP3      H2            -41.9283213483       38.5752960153       28.9494468549  TIP3      5976            0.0000000000
     67761      6377  TIP3      OH2           -39.3627461166       39.4142222079       27.4983660227  TIP3      5977            0.0000000000
     67762      6377  TIP3      H1            -38.6954643065       38.8684022994       27.0138437658  TIP3      5977            0.0000000000
     67763      6377  TIP3      H2            -38.9090552770       40.2821217777       27.5651545040  TIP3      5977            0.0000000000
     67764      6378  TIP3      OH2           -53.8417121864       38.7860327182       26.9357838676  TIP3      5978            0.0000000000
     67765      6378  TIP3      H1            -54.6344349099       38.5481637586       26.4154926084  TIP3      5978            0.0000000000
     67766      6378  TIP3      H2            -53.3352761243       37.9514590501       26.9055513062  TIP3      5978            0.0000000000
     67767      6379  TIP3      OH2           -49.2928934232       38.6721752177       26.7223748412  TIP3      5979            0.0000000000
     67768      6379  TIP3      H1            -48.4223484533       39.1031726606       26.6915207465  TIP3      5979            0.0000000000
     67769      6379  TIP3      H2            -49.4140752258       38.5051973749       27.6554624695  TIP3      5979            0.0000000000
     67770      6380  TIP3      OH2           -43.6898901338       38.7936904215       28.3518555199  TIP3      5980            0.0000000000
     67771      6380  TIP3      H1            -43.6468789194       38.8410722512       27.3969367484  TIP3      5980            0.0000000000
     67772      6380  TIP3      H2            -43.9620291140       37.8520480034       28.5011113072  TIP3      5980            0.0000000000
     67773      6381  TIP3      OH2           -42.3699503588       38.7637631716       24.0481584341  TIP3      5981            0.0000000000
     67774      6381  TIP3      H1            -43.0989938994       39.3721904539       23.8619012943  TIP3      5981            0.0000000000
     67775      6381  TIP3      H2            -42.8182592077       37.8999351597       24.2166122122  TIP3      5981            0.0000000000
     67776      6382  TIP3      OH2           -55.1033705611       54.4997511027       23.6365627736  TIP3      5982            0.0000000000
     67777      6382  TIP3      H1            -55.8090306072       54.4961342319       22.9599627709  TIP3      5982            0.0000000000
     67778      6382  TIP3      H2            -55.1160486633       55.4380171113       23.8797043204  TIP3      5982            0.0000000000
     67779      6383  TIP3      OH2           -53.2101608900       40.4647926590       21.1598731592  TIP3      5983            0.0000000000
     67780      6383  TIP3      H1            -52.6577710832       39.8653485453       20.6328367795  TIP3      5983            0.0000000000
     67781      6383  TIP3      H2            -52.5372774549       40.7851936261       21.8049490757  TIP3      5983            0.0000000000
     67782      6384  TIP3      OH2           -48.1659244167       40.7587404176       23.5892749846  TIP3      5984            0.0000000000
     67783      6384  TIP3      H1            -47.9504936731       40.1504528749       24.3153463352  TIP3      5984            0.0000000000
     67784      6384  TIP3      H2            -48.1689145573       41.6201991994       24.0748545536  TIP3      5984            0.0000000000
     67785      6385  TIP3      OH2           -46.2744102575       55.7752766975       21.9843854419  TIP3      5985            0.0000000000
     67786      6385  TIP3      H1            -45.3616553052       56.0761411849       21.8201886884  TIP3      5985            0.0000000000
     67787      6385  TIP3      H2            -46.4824368075       55.2746554976       21.1965134685  TIP3      5985            0.0000000000
     67788      6386  TIP3      OH2           -39.5415732069       55.2873934084       24.7267421470  TIP3      5986            0.0000000000
     67789      6386  TIP3      H1            -39.7556018027       54.5307667818       24.1460718566  TIP3      5986            0.0000000000
     67790      6386  TIP3      H2            -39.6066060943       56.0478730063       24.1117043866  TIP3      5986            0.0000000000
     67791      6387  TIP3      OH2           -53.9263824630       39.3182524835       36.4003204863  TIP3      5987            0.0000000000
     67792      6387  TIP3      H1            -54.2844513670       38.5280756933       36.8516728565  TIP3      5987            0.0000000000
     67793      6387  TIP3      H2            -53.0018177089       39.3029542867       36.7378813349  TIP3      5987            0.0000000000
     67794      6388  TIP3      OH2           -51.9248668798       38.6938716949       38.0021974352  TIP3      5988            0.0000000000
     67795      6388  TIP3      H1            -51.0335877990       38.3548008871       37.7858872459  TIP3      5988            0.0000000000
     67796      6388  TIP3      H2            -52.3188015073       37.9050114965       38.4336442422  TIP3      5988            0.0000000000
     67797      6389  TIP3      OH2           -53.3051508574       55.4605327587       20.6458212675  TIP3      5989            0.0000000000
     67798      6389  TIP3      H1            -53.5727088344       55.7286172661       21.5300684193  TIP3      5989            0.0000000000
     67799      6389  TIP3      H2            -52.5407848916       54.8988862268       20.7916006146  TIP3      5989            0.0000000000
     67800      6390  TIP3      OH2           -43.5235095464       37.9908072396       38.1642878425  TIP3      5990            0.0000000000
     67801      6390  TIP3      H1            -43.4254785020       37.5304801216       39.0196376039  TIP3      5990            0.0000000000
     67802      6390  TIP3      H2            -42.6071982234       37.9773624664       37.8194484139  TIP3      5990            0.0000000000
     67803      6391  TIP3      OH2           -40.3264275189       54.0438184763       36.8592648583  TIP3      5991            0.0000000000
     67804      6391  TIP3      H1            -41.1213371701       53.8783104796       36.3074418743  TIP3      5991            0.0000000000
     67805      6391  TIP3      H2            -40.4044467836       54.9869873245       37.0449961729  TIP3      5991            0.0000000000
     67806      6392  TIP3      OH2           -25.9064119530       47.9184509916       26.8604573777  TIP3      5992            0.0000000000
     67807      6392  TIP3      H1            -25.8578200356       48.8907308355       26.7460823081  TIP3      5992            0.0000000000
     67808      6392  TIP3      H2            -26.5794220635       47.6740409522       26.2059449380  TIP3      5992            0.0000000000
     67809      6393  TIP3      OH2           -27.0092686675       47.1903464906       30.3067625309  TIP3      5993            0.0000000000
     67810      6393  TIP3      H1            -27.0359550454       46.5317709407       31.0074678509  TIP3      5993            0.0000000000
     67811      6393  TIP3      H2            -27.3334282933       46.7016101117       29.5311962060  TIP3      5993            0.0000000000
     67812      6394  TIP3      OH2           -34.6501044682       46.8249820572       31.8656143515  TIP3      5994            0.0000000000
     67813      6394  TIP3      H1            -34.5788378655       46.1685489723       32.5918839750  TIP3      5994            0.0000000000
     67814      6394  TIP3      H2            -33.9188119624       47.4229278865       32.0752610821  TIP3      5994            0.0000000000
     67815      6395  TIP3      OH2           -23.3020114817       50.1218944450       28.5829420039  TIP3      5995            0.0000000000
     67816      6395  TIP3      H1            -23.7394475416       49.4081769469       29.0589498117  TIP3      5995            0.0000000000
     67817      6395  TIP3      H2            -23.3051557366       50.8400139274       29.2432071273  TIP3      5995            0.0000000000
     67818      6396  TIP3      OH2           -33.7236990412       51.2782879258       30.4026946105  TIP3      5996            0.0000000000
     67819      6396  TIP3      H1            -34.0628724134       50.4368859435       30.0445846155  TIP3      5996            0.0000000000
     67820      6396  TIP3      H2            -32.7698785942       51.0848987028       30.4446340981  TIP3      5996            0.0000000000
     67821      6397  TIP3      OH2           -37.0862870232       44.8805865048       25.8252063010  TIP3      5997            0.0000000000
     67822      6397  TIP3      H1            -37.5351056386       45.7527865925       25.7960013565  TIP3      5997            0.0000000000
     67823      6397  TIP3      H2            -37.6643671996       44.3283845561       25.2884639965  TIP3      5997            0.0000000000
     67824      6398  TIP3      OH2           -36.3934881793       47.0822111335       27.9584713060  TIP3      5998            0.0000000000
     67825      6398  TIP3      H1            -36.1464219631       46.2829753247       28.4582588030  TIP3      5998            0.0000000000
     67826      6398  TIP3      H2            -35.6579049844       47.1693137345       27.3316103111  TIP3      5998            0.0000000000
     67827      6399  TIP3      OH2           -26.2376049127       55.2256392288       28.8058274915  TIP3      5999            0.0000000000
     67828      6399  TIP3      H1            -25.5644614399       54.5489476395       28.5420434372  TIP3      5999            0.0000000000
     67829      6399  TIP3      H2            -26.3966741185       54.9817404353       29.7160870887  TIP3      5999            0.0000000000
     67830      6400  TIP3      OH2           -28.6322484966       49.6067801460       30.7279281720  TIP3      6000            0.0000000000
     67831      6400  TIP3      H1            -28.2969460060       48.9391035580       30.1075553955  TIP3      6000            0.0000000000
     67832      6400  TIP3      H2            -27.8597884275       49.7352862371       31.3045841061  TIP3      6000            0.0000000000
     67833      6401  TIP3      OH2           -19.9903398280       41.2153651083       31.5339703545  TIP3      6001            0.0000000000
     67834      6401  TIP3      H1            -19.8773844346       41.8358615012       32.2858986638  TIP3      6001            0.0000000000
     67835      6401  TIP3      H2            -19.4971554273       41.6766261783       30.8393255968  TIP3      6001            0.0000000000
     67836      6402  TIP3      OH2           -25.4706884815       44.0396097321       31.0625861029  TIP3      6002            0.0000000000
     67837      6402  TIP3      H1            -25.3210738029       43.0737079133       31.0552710952  TIP3      6002            0.0000000000
     67838      6402  TIP3      H2            -25.5750935429       44.2022036982       30.1022098232  TIP3      6002            0.0000000000
     67839      6403  TIP3      OH2           -32.3301493861       42.1226360501       28.3106395583  TIP3      6003            0.0000000000
     67840      6403  TIP3      H1            -32.2645017025       42.9763573278       27.8530850803  TIP3      6003            0.0000000000
     67841      6403  TIP3      H2            -32.7681017881       41.5601013747       27.6365108335  TIP3      6003            0.0000000000
     67842      6404  TIP3      OH2           -24.6169295357       42.2365497213       26.6891566054  TIP3      6004            0.0000000000
     67843      6404  TIP3      H1            -23.9429042373       41.9087662516       27.3316336350  TIP3      6004            0.0000000000
     67844      6404  TIP3      H2            -24.0681443536       42.7733620523       26.0970306913  TIP3      6004            0.0000000000
     67845      6405  TIP3      OH2           -35.7182851870       44.5331445374       29.0541081660  TIP3      6005            0.0000000000
     67846      6405  TIP3      H1            -35.0435298316       43.9709211295       29.4905263900  TIP3      6005            0.0000000000
     67847      6405  TIP3      H2            -35.6500900474       44.2323959980       28.1357112863  TIP3      6005            0.0000000000
     67848      6406  TIP3      OH2           -30.5511808952       46.0882281993       28.3140778244  TIP3      6006            0.0000000000
     67849      6406  TIP3      H1            -29.9116686776       45.5195892845       28.7751922886  TIP3      6006            0.0000000000
     67850      6406  TIP3      H2            -31.1101448378       45.4223300414       27.8637782109  TIP3      6006            0.0000000000
     67851      6407  TIP3      OH2           -19.5627982697       42.6743138214       33.7801256870  TIP3      6007            0.0000000000
     67852      6407  TIP3      H1            -20.2341892040       43.3822885340       33.6925507610  TIP3      6007            0.0000000000
     67853      6407  TIP3      H2            -19.5474386187       42.5209524725       34.7340548361  TIP3      6007            0.0000000000
     67854      6408  TIP3      OH2           -33.4730602284       41.0257630714       32.3602791204  TIP3      6008            0.0000000000
     67855      6408  TIP3      H1            -33.7311370245       41.5836394617       31.6012327946  TIP3      6008            0.0000000000
     67856      6408  TIP3      H2            -34.1633576227       41.2656811778       33.0276474994  TIP3      6008            0.0000000000
     67857      6409  TIP3      OH2           -26.1426854528       50.5228366060       25.9114227172  TIP3      6009            0.0000000000
     67858      6409  TIP3      H1            -26.4392238805       50.2235106756       25.0422918097  TIP3      6009            0.0000000000
     67859      6409  TIP3      H2            -26.4641380259       51.4487156631       25.9450201278  TIP3      6009            0.0000000000
     67860      6410  TIP3      OH2           -30.9298945853       48.6826219954       32.6304151902  TIP3      6010            0.0000000000
     67861      6410  TIP3      H1            -31.6622305687       49.3190923831       32.7806468601  TIP3      6010            0.0000000000
     67862      6410  TIP3      H2            -30.2248466739       49.2731485513       32.3267764901  TIP3      6010            0.0000000000
     67863      6411  TIP3      OH2           -22.8299778358       41.5497693632       28.6715478138  TIP3      6011            0.0000000000
     67864      6411  TIP3      H1            -23.0358974445       40.7789120919       29.2112502419  TIP3      6011            0.0000000000
     67865      6411  TIP3      H2            -22.1579908512       42.0030212087       29.2085106909  TIP3      6011            0.0000000000
     67866      6412  TIP3      OH2           -33.9148500823       42.9072369536       30.3465395980  TIP3      6012            0.0000000000
     67867      6412  TIP3      H1            -33.2717720974       43.5692381442       30.6929255912  TIP3      6012            0.0000000000
     67868      6412  TIP3      H2            -33.3776857919       42.4587053858       29.6511093416  TIP3      6012            0.0000000000
     67869      6413  TIP3      OH2           -32.5013949560       50.6606158453       33.4258557024  TIP3      6013            0.0000000000
     67870      6413  TIP3      H1            -32.5354864628       51.5678475058       33.0670778261  TIP3      6013            0.0000000000
     67871      6413  TIP3      H2            -33.3868644166       50.5959337003       33.8671085895  TIP3      6013            0.0000000000
     67872      6414  TIP3      OH2           -36.4096591014       50.3197773747       24.2194399955  TIP3      6014            0.0000000000
     67873      6414  TIP3      H1            -36.6772559429       50.5900666090       23.3325243335  TIP3      6014            0.0000000000
     67874      6414  TIP3      H2            -36.3551219268       51.1687964241       24.7036161837  TIP3      6014            0.0000000000
     67875      6415  TIP3      OH2           -22.7806114542       51.9564882904       30.9494325039  TIP3      6015            0.0000000000
     67876      6415  TIP3      H1            -23.7464445742       52.0471083839       31.0904511088  TIP3      6015            0.0000000000
     67877      6415  TIP3      H2            -22.5146931846       52.8831229534       30.7803987976  TIP3      6015            0.0000000000
     67878      6416  TIP3      OH2           -22.4768572797       40.2486915873       32.3575355788  TIP3      6016            0.0000000000
     67879      6416  TIP3      H1            -23.2121079668       40.8717763822       32.2958947925  TIP3      6016            0.0000000000
     67880      6416  TIP3      H2            -21.7807789221       40.6706318298       31.8233869459  TIP3      6016            0.0000000000
     67881      6417  TIP3      OH2           -29.4820787346       38.3541508472       29.8130742843  TIP3      6017            0.0000000000
     67882      6417  TIP3      H1            -29.6107762468       37.3875969909       29.7577443069  TIP3      6017            0.0000000000
     67883      6417  TIP3      H2            -30.3582759713       38.6700581624       30.1066992590  TIP3      6017            0.0000000000
     67884      6418  TIP3      OH2           -24.5426350237       53.7249007945       27.5745126798  TIP3      6018            0.0000000000
     67885      6418  TIP3      H1            -24.0971474622       53.0221752537       27.0630694810  TIP3      6018            0.0000000000
     67886      6418  TIP3      H2            -24.1704578392       54.5348315715       27.1529821246  TIP3      6018            0.0000000000
     67887      6419  TIP3      OH2           -23.3479175870       51.6645182243       26.0661987227  TIP3      6019            0.0000000000
     67888      6419  TIP3      H1            -23.6278974051       50.9590483977       25.4561526498  TIP3      6019            0.0000000000
     67889      6419  TIP3      H2            -23.2986594283       51.1822649187       26.9133558521  TIP3      6019            0.0000000000
     67890      6420  TIP3      OH2           -21.6943034411       50.2325360119       34.5619251160  TIP3      6020            0.0000000000
     67891      6420  TIP3      H1            -21.5494777361       49.6142847055       33.8142704003  TIP3      6020            0.0000000000
     67892      6420  TIP3      H2            -21.5205987110       51.0962722000       34.1601374881  TIP3      6020            0.0000000000
     67893      6421  TIP3      OH2           -27.2045135044       47.1654346120       24.3386322082  TIP3      6021            0.0000000000
     67894      6421  TIP3      H1            -27.9137517029       47.7243378884       23.9668030612  TIP3      6021            0.0000000000
     67895      6421  TIP3      H2            -26.5126556997       47.2349500135       23.6470484925  TIP3      6021            0.0000000000
     67896      6422  TIP3      OH2           -19.8301690100       46.5552469030       32.6197852027  TIP3      6022            0.0000000000
     67897      6422  TIP3      H1            -20.4939893094       47.2710605948       32.6808178553  TIP3      6022            0.0000000000
     67898      6422  TIP3      H2            -19.3606861619       46.7862510302       31.7981644573  TIP3      6022            0.0000000000
     67899      6423  TIP3      OH2           -23.7821777356       47.3805578563       25.2519912095  TIP3      6023            0.0000000000
     67900      6423  TIP3      H1            -24.5284628151       47.6163218987       25.8568078039  TIP3      6023            0.0000000000
     67901      6423  TIP3      H2            -23.3309864624       46.6820951015       25.7558783140  TIP3      6023            0.0000000000
     67902      6424  TIP3      OH2           -23.8610268653       45.5365132323       34.3495854559  TIP3      6024            0.0000000000
     67903      6424  TIP3      H1            -23.8327803290       46.3372650912       34.8993710751  TIP3      6024            0.0000000000
     67904      6424  TIP3      H2            -24.4980573502       45.8400927303       33.6644570789  TIP3      6024            0.0000000000
     67905      6425  TIP3      OH2           -32.1624526347       48.0329029607       27.1716650166  TIP3      6025            0.0000000000
     67906      6425  TIP3      H1            -32.4859774655       47.6420327669       26.3275165756  TIP3      6025            0.0000000000
     67907      6425  TIP3      H2            -31.5514831401       47.3356265080       27.4992740867  TIP3      6025            0.0000000000
     67908      6426  TIP3      OH2           -30.8154117738       51.4489476138       29.8399834023  TIP3      6026            0.0000000000
     67909      6426  TIP3      H1            -30.8669241222       50.8728641747       29.0643195381  TIP3      6026            0.0000000000
     67910      6426  TIP3      H2            -30.0525530844       51.0710412739       30.3152957582  TIP3      6026            0.0000000000
     67911      6427  TIP3      OH2           -31.8104938724       46.7750092139       30.8027100516  TIP3      6027            0.0000000000
     67912      6427  TIP3      H1            -31.2379185751       46.8991327856       30.0221236037  TIP3      6027            0.0000000000
     67913      6427  TIP3      H2            -31.4581598836       47.4339061081       31.4336161748  TIP3      6027            0.0000000000
     67914      6428  TIP3      OH2           -25.4528647362       52.3203327079       31.5202669749  TIP3      6028            0.0000000000
     67915      6428  TIP3      H1            -25.7199155975       52.9687025226       32.1727201754  TIP3      6028            0.0000000000
     67916      6428  TIP3      H2            -25.6827608265       51.4618182911       31.9557520246  TIP3      6028            0.0000000000
     67917      6429  TIP3      OH2           -30.8816777990       51.1843513978       35.5233837182  TIP3      6029            0.0000000000
     67918      6429  TIP3      H1            -31.2457828130       51.9715313528       35.9813821757  TIP3      6029            0.0000000000
     67919      6429  TIP3      H2            -31.5596077844       51.0221226049       34.8190702463  TIP3      6029            0.0000000000
     67920      6430  TIP3      OH2           -24.9116643930       46.5425560668       22.9474874671  TIP3      6030            0.0000000000
     67921      6430  TIP3      H1            -24.3420844275       46.7260560896       23.7231545269  TIP3      6030            0.0000000000
     67922      6430  TIP3      H2            -24.5182953275       47.0533729725       22.2240152360  TIP3      6030            0.0000000000
     67923      6431  TIP3      OH2           -33.9600176683       47.3659043198       34.7078213295  TIP3      6031            0.0000000000
     67924      6431  TIP3      H1            -33.9157782808       48.0355930307       35.4212942530  TIP3      6031            0.0000000000
     67925      6431  TIP3      H2            -34.8823165237       47.4768279144       34.4291244138  TIP3      6031            0.0000000000
     67926      6432  TIP3      OH2           -27.2003306152       53.2834599539       26.3996619192  TIP3      6032            0.0000000000
     67927      6432  TIP3      H1            -26.7249437485       53.5955475115       27.1761045061  TIP3      6032            0.0000000000
     67928      6432  TIP3      H2            -27.7585623224       54.0314383560       26.1630171255  TIP3      6032            0.0000000000
     67929      6433  TIP3      OH2           -32.6463924853       53.2536366116       36.2683272697  TIP3      6033            0.0000000000
     67930      6433  TIP3      H1            -32.6805346001       53.1180022920       35.3089002553  TIP3      6033            0.0000000000
     67931      6433  TIP3      H2            -33.5838148700       53.1340773289       36.5207874380  TIP3      6033            0.0000000000
     67932      6434  TIP3      OH2           -33.1581296525       47.0549627821       24.7441595165  TIP3      6034            0.0000000000
     67933      6434  TIP3      H1            -33.4653794381       47.8513393838       24.2577198791  TIP3      6034            0.0000000000
     67934      6434  TIP3      H2            -33.8538159225       46.4208137112       24.5779630122  TIP3      6034            0.0000000000
     67935      6435  TIP3      OH2           -37.0813947141       49.4712895291       33.6123101724  TIP3      6035            0.0000000000
     67936      6435  TIP3      H1            -37.5640319031       49.4049897017       32.7681305338  TIP3      6035            0.0000000000
     67937      6435  TIP3      H2            -37.0542339816       48.5315314814       33.8709834895  TIP3      6035            0.0000000000
     67938      6436  TIP3      OH2           -37.3339511176       52.2085879565       30.4558792743  TIP3      6036            0.0000000000
     67939      6436  TIP3      H1            -36.3782725051       52.0887404472       30.4294167218  TIP3      6036            0.0000000000
     67940      6436  TIP3      H2            -37.4256767183       53.0185823165       30.9747620896  TIP3      6036            0.0000000000
     67941      6437  TIP3      OH2           -19.0825120689       52.8997878839       36.1387218161  TIP3      6037            0.0000000000
     67942      6437  TIP3      H1            -19.2227510218       51.9327211863       36.1015448905  TIP3      6037            0.0000000000
     67943      6437  TIP3      H2            -19.9699637076       53.1573997610       36.5306563957  TIP3      6037            0.0000000000
     67944      6438  TIP3      OH2           -28.1300438083       52.4447017285       35.0167377898  TIP3      6038            0.0000000000
     67945      6438  TIP3      H1            -28.0697283698       53.3081802182       35.4950024350  TIP3      6038            0.0000000000
     67946      6438  TIP3      H2            -29.0248609577       52.1382720531       35.2448666561  TIP3      6038            0.0000000000
     67947      6439  TIP3      OH2           -27.7243316988      -56.6322230412       24.7999842846  TIP3      6039            0.0000000000
     67948      6439  TIP3      H1            -27.7994216798      -56.7222447097       23.8420951931  TIP3      6039            0.0000000000
     67949      6439  TIP3      H2            -27.6987722644      -55.6592850257       24.9549288590  TIP3      6039            0.0000000000
     67950      6440  TIP3      OH2           -34.0556467543       55.0275561336       26.5891525192  TIP3      6040            0.0000000000
     67951      6440  TIP3      H1            -33.9268920593       54.6644244954       27.4901701921  TIP3      6040            0.0000000000
     67952      6440  TIP3      H2            -34.9233390318       54.6564607697       26.3640304018  TIP3      6040            0.0000000000
     67953      6441  TIP3      OH2           -24.7792616176       55.4087684616       21.8567852742  TIP3      6041            0.0000000000
     67954      6441  TIP3      H1            -24.2905209291       54.6867293400       21.3794094032  TIP3      6041            0.0000000000
     67955      6441  TIP3      H2            -24.6188028792       55.1103067923       22.7652275705  TIP3      6041            0.0000000000
     67956      6442  TIP3      OH2           -24.9805972615       55.2926400026       24.5525894135  TIP3      6042            0.0000000000
     67957      6442  TIP3      H1            -25.9218964162       55.4179408240       24.7652536081  TIP3      6042            0.0000000000
     67958      6442  TIP3      H2            -24.6883137610       54.5921554985       25.1476852305  TIP3      6042            0.0000000000
     67959      6443  TIP3      OH2           -21.9541726662       44.3877766846       36.6049899741  TIP3      6043            0.0000000000
     67960      6443  TIP3      H1            -22.4009462645       44.8574659966       35.8839569950  TIP3      6043            0.0000000000
     67961      6443  TIP3      H2            -21.9460864148       43.4715037849       36.2939772513  TIP3      6043            0.0000000000
     67962      6444  TIP3      OH2           -34.8210369862       50.7946693748       34.6033145297  TIP3      6044            0.0000000000
     67963      6444  TIP3      H1            -34.6000066991       50.4163864354       35.4787468677  TIP3      6044            0.0000000000
     67964      6444  TIP3      H2            -35.6879732479       50.3936444615       34.3924842090  TIP3      6044            0.0000000000
     67965      6445  TIP3      OH2           -32.1640983678       39.2459262958       30.5854675874  TIP3      6045            0.0000000000
     67966      6445  TIP3      H1            -33.0636732333       39.1540752419       30.1948143927  TIP3      6045            0.0000000000
     67967      6445  TIP3      H2            -32.2468870321       40.1013350258       31.0343774390  TIP3      6045            0.0000000000
     67968      6446  TIP3      OH2           -27.5151036556       38.9585772448       33.9503282482  TIP3      6046            0.0000000000
     67969      6446  TIP3      H1            -27.1129325702       38.5331761181       34.7285670132  TIP3      6046            0.0000000000
     67970      6446  TIP3      H2            -28.4815770899       38.7953109805       34.0868048215  TIP3      6046            0.0000000000
     67971      6447  TIP3      OH2           -24.2060001382       42.7472906471       34.8223604884  TIP3      6047            0.0000000000
     67972      6447  TIP3      H1            -24.7496749281       42.5810930057       35.6294538040  TIP3      6047            0.0000000000
     67973      6447  TIP3      H2            -24.3792369236       43.6705513094       34.5879421891  TIP3      6047            0.0000000000
     67974      6448  TIP3      OH2           -27.8870728301       41.5059314370       21.2864498036  TIP3      6048            0.0000000000
     67975      6448  TIP3      H1            -28.1532646826       41.4651310434       22.2041811117  TIP3      6048            0.0000000000
     67976      6448  TIP3      H2            -28.1222112821       40.6185709769       20.9457865627  TIP3      6048            0.0000000000
     67977      6449  TIP3      OH2           -32.0722682970       44.2107912902       31.7441270008  TIP3      6049            0.0000000000
     67978      6449  TIP3      H1            -32.7691313253       44.1897726053       32.4257529462  TIP3      6049            0.0000000000
     67979      6449  TIP3      H2            -32.0805303636       45.1482894081       31.4490660274  TIP3      6049            0.0000000000
     67980      6450  TIP3      OH2           -32.0980372451       44.4143298757       26.6358905939  TIP3      6050            0.0000000000
     67981      6450  TIP3      H1            -33.0183357722       44.0899054416       26.5445507001  TIP3      6050            0.0000000000
     67982      6450  TIP3      H2            -31.6763261892       44.0493649883       25.8424503038  TIP3      6050            0.0000000000
     67983      6451  TIP3      OH2           -26.5717560303       44.8452209216       25.4494041735  TIP3      6051            0.0000000000
     67984      6451  TIP3      H1            -26.9757507992       45.6747897951       25.1083627909  TIP3      6051            0.0000000000
     67985      6451  TIP3      H2            -25.8660244064       44.7000324450       24.7982821449  TIP3      6051            0.0000000000
     67986      6452  TIP3      OH2           -27.4902550820       45.0420892835       36.8979726202  TIP3      6052            0.0000000000
     67987      6452  TIP3      H1            -28.0398466951       44.2923370155       37.2182993323  TIP3      6052            0.0000000000
     67988      6452  TIP3      H2            -26.6527285915       44.9061145780       37.3715632887  TIP3      6052            0.0000000000
     67989      6453  TIP3      OH2           -25.5525050741       44.3198851415       28.2725068823  TIP3      6053            0.0000000000
     67990      6453  TIP3      H1            -25.7838738882       44.8985293713       27.5245526771  TIP3      6053            0.0000000000
     67991      6453  TIP3      H2            -25.4060159956       43.4718068602       27.8043387665  TIP3      6053            0.0000000000
     67992      6454  TIP3      OH2           -34.3815205127       44.5191009835       33.5321883411  TIP3      6054            0.0000000000
     67993      6454  TIP3      H1            -34.3790602522       44.9201290417       34.4182891794  TIP3      6054            0.0000000000
     67994      6454  TIP3      H2            -34.8576360495       43.6882362090       33.6776310802  TIP3      6054            0.0000000000
     67995      6455  TIP3      OH2           -37.7636996009       41.6316607157       27.4326251648  TIP3      6055            0.0000000000
     67996      6455  TIP3      H1            -37.1013864815       41.5950073487       28.1497106842  TIP3      6055            0.0000000000
     67997      6455  TIP3      H2            -37.3007609650       41.2163212913       26.6835423304  TIP3      6055            0.0000000000
     67998      6456  TIP3      OH2           -36.4458445517       42.3889567974       22.8742106479  TIP3      6056            0.0000000000
     67999      6456  TIP3      H1            -36.0254503366       42.9800702028       22.2567619105  TIP3      6056            0.0000000000
     68000      6456  TIP3      H2            -37.2050031817       42.9298855755       23.1648962556  TIP3      6056            0.0000000000
     68001      6457  TIP3      OH2           -26.3158692706       45.9419808572       32.8851248787  TIP3      6057            0.0000000000
     68002      6457  TIP3      H1            -25.9693545350       45.2744145559       32.2639884825  TIP3      6057            0.0000000000
     68003      6457  TIP3      H2            -26.7641343689       45.3971285729       33.5574207458  TIP3      6057            0.0000000000
     68004      6458  TIP3      OH2           -29.5235346456       41.8779174130       27.6828682664  TIP3      6058            0.0000000000
     68005      6458  TIP3      H1            -30.4554266065       41.9139734959       27.9848159967  TIP3      6058            0.0000000000
     68006      6458  TIP3      H2            -29.0305958860       41.7782963463       28.5110089204  TIP3      6058            0.0000000000
     68007      6459  TIP3      OH2           -34.6971410594       43.4902873205       26.5203799202  TIP3      6059            0.0000000000
     68008      6459  TIP3      H1            -35.6085313828       43.5867370568       26.1714959018  TIP3      6059            0.0000000000
     68009      6459  TIP3      H2            -34.4189424220       42.6299498112       26.1698499727  TIP3      6059            0.0000000000
     68010      6460  TIP3      OH2           -31.0714927569       43.4935926504       24.1486070080  TIP3      6060            0.0000000000
     68011      6460  TIP3      H1            -30.1147366642       43.6046108791       24.3635250541  TIP3      6060            0.0000000000
     68012      6460  TIP3      H2            -31.2555168660       44.2025141377       23.5446108919  TIP3      6060            0.0000000000
     68013      6461  TIP3      OH2           -25.1136994308       41.1136262411       30.9417444201  TIP3      6061            0.0000000000
     68014      6461  TIP3      H1            -25.8099547519       41.2127602289       31.6264264520  TIP3      6061            0.0000000000
     68015      6461  TIP3      H2            -25.6210152909       40.9201800418       30.1422695299  TIP3      6061            0.0000000000
     68016      6462  TIP3      OH2           -34.2277143071       49.2398345654       36.8242946007  TIP3      6062            0.0000000000
     68017      6462  TIP3      H1            -33.5156298675       49.4984163050       37.4309061619  TIP3      6062            0.0000000000
     68018      6462  TIP3      H2            -35.0235767110       49.4059224164       37.3810924071  TIP3      6062            0.0000000000
     68019      6463  TIP3      OH2           -28.2289472690       44.6558357751       29.5802396174  TIP3      6063            0.0000000000
     68020      6463  TIP3      H1            -27.6456517737       44.1087214143       29.0385944456  TIP3      6063            0.0000000000
     68021      6463  TIP3      H2            -28.3688880791       44.1179965751       30.3700939400  TIP3      6063            0.0000000000
     68022      6464  TIP3      OH2           -33.2226617306       40.8101584897       26.0027326150  TIP3      6064            0.0000000000
     68023      6464  TIP3      H1            -33.5321058897       39.8838882787       25.9775582520  TIP3      6064            0.0000000000
     68024      6464  TIP3      H2            -32.4324664470       40.7629742103       25.4515936003  TIP3      6064            0.0000000000
     68025      6465  TIP3      OH2           -29.5902137179       43.0084082001       31.9890197496  TIP3      6065            0.0000000000
     68026      6465  TIP3      H1            -30.4272539768       43.5001915399       32.0990104305  TIP3      6065            0.0000000000
     68027      6465  TIP3      H2            -29.0532541528       43.3271102505       32.7416724738  TIP3      6065            0.0000000000
     68028      6466  TIP3      OH2           -29.0286185194       49.2365398065       23.6918388004  TIP3      6066            0.0000000000
     68029      6466  TIP3      H1            -29.7974115350       48.7385092714       23.3486553790  TIP3      6066            0.0000000000
     68030      6466  TIP3      H2            -29.2048583090       49.3139606322       24.6430006197  TIP3      6066            0.0000000000
     68031      6467  TIP3      OH2           -21.8639234722       48.3872955740       32.4882375395  TIP3      6067            0.0000000000
     68032      6467  TIP3      H1            -21.2589567709       48.8613933083       31.8934536487  TIP3      6067            0.0000000000
     68033      6467  TIP3      H2            -22.7121604502       48.4863259859       32.0059791629  TIP3      6067            0.0000000000
     68034      6468  TIP3      OH2           -25.1226067570       42.0794646263       21.8509900723  TIP3      6068            0.0000000000
     68035      6468  TIP3      H1            -26.0917967500       42.1539559644       21.7173118997  TIP3      6068            0.0000000000
     68036      6468  TIP3      H2            -24.8736897123       42.9385957896       22.2100690668  TIP3      6068            0.0000000000
     68037      6469  TIP3      OH2           -27.5015084760       49.4500183344       34.9401636676  TIP3      6069            0.0000000000
     68038      6469  TIP3      H1            -27.8879003707       49.0445192234       35.7153039167  TIP3      6069            0.0000000000
     68039      6469  TIP3      H2            -27.7477642629       50.3809842469       34.9917707478  TIP3      6069            0.0000000000
     68040      6470  TIP3      OH2           -24.4263753246       43.9297164440       23.5306379577  TIP3      6070            0.0000000000
     68041      6470  TIP3      H1            -23.5305537194       43.7951223658       23.8938855532  TIP3      6070            0.0000000000
     68042      6470  TIP3      H2            -24.3808784902       44.7495170402       23.0039315223  TIP3      6070            0.0000000000
     68043      6471  TIP3      OH2           -33.9156390626       48.5742446705       29.4720350492  TIP3      6071            0.0000000000
     68044      6471  TIP3      H1            -33.1856258165       48.5311158508       28.8255300079  TIP3      6071            0.0000000000
     68045      6471  TIP3      H2            -33.8387845700       47.7231764794       29.9368871574  TIP3      6071            0.0000000000
     68046      6472  TIP3      OH2           -26.9064266158       50.6822326754       22.7438071733  TIP3      6072            0.0000000000
     68047      6472  TIP3      H1            -27.2305528768       51.5332473908       23.0741251445  TIP3      6072            0.0000000000
     68048      6472  TIP3      H2            -27.6452527995       50.0764598141       22.9085220980  TIP3      6072            0.0000000000
     68049      6473  TIP3      OH2           -36.9162423774       47.0164902673       34.7566454232  TIP3      6073            0.0000000000
     68050      6473  TIP3      H1            -36.7035080749       46.5761528298       35.6033618659  TIP3      6073            0.0000000000
     68051      6473  TIP3      H2            -37.5236985037       46.3876013747       34.3307755653  TIP3      6073            0.0000000000
     68052      6474  TIP3      OH2           -29.8914848466       46.5636011469       36.9669736172  TIP3      6074            0.0000000000
     68053      6474  TIP3      H1            -30.2008239918       46.3173647015       36.0795030201  TIP3      6074            0.0000000000
     68054      6474  TIP3      H2            -28.9591294068       46.2682598972       36.9449253565  TIP3      6074            0.0000000000
     68055      6475  TIP3      OH2           -25.2472737013       51.8931325060       34.8713377377  TIP3      6075            0.0000000000
     68056      6475  TIP3      H1            -26.1662614727       52.0884852666       34.6203952074  TIP3      6075            0.0000000000
     68057      6475  TIP3      H2            -25.2533817833       52.1721828365       35.8023803032  TIP3      6075            0.0000000000
     68058      6476  TIP3      OH2           -19.5640352419       44.1242138223       23.2626094128  TIP3      6076            0.0000000000
     68059      6476  TIP3      H1            -20.1023944209       43.7602023202       22.5624545407  TIP3      6076            0.0000000000
     68060      6476  TIP3      H2            -19.4518346654       45.0635396186       22.9882712720  TIP3      6076            0.0000000000
     68061      6477  TIP3      OH2           -19.5527244411       49.9694091210       36.0865070792  TIP3      6077            0.0000000000
     68062      6477  TIP3      H1            -20.4478576732       50.1641747446       35.7055789577  TIP3      6077            0.0000000000
     68063      6477  TIP3      H2            -18.9988698545       49.8993236152       35.2883410033  TIP3      6077            0.0000000000
     68064      6478  TIP3      OH2           -21.2483501926       52.9292789647       23.6888640463  TIP3      6078            0.0000000000
     68065      6478  TIP3      H1            -21.6225296423       52.0954854502       24.0074584302  TIP3      6078            0.0000000000
     68066      6478  TIP3      H2            -20.9816281795       52.7268414295       22.7862232065  TIP3      6078            0.0000000000
     68067      6479  TIP3      OH2           -24.0661978795       47.7400120054       30.7479993073  TIP3      6079            0.0000000000
     68068      6479  TIP3      H1            -25.0089478687       47.5047391210       30.6797904793  TIP3      6079            0.0000000000
     68069      6479  TIP3      H2            -23.6309125338       46.9549439578       30.3690150013  TIP3      6079            0.0000000000
     68070      6480  TIP3      OH2           -31.5369142586       52.0535216923       26.8591182162  TIP3      6080            0.0000000000
     68071      6480  TIP3      H1            -31.0201866995       52.8528623092       26.6599652796  TIP3      6080            0.0000000000
     68072      6480  TIP3      H2            -32.4182642295       52.2931815303       26.5506569624  TIP3      6080            0.0000000000
     68073      6481  TIP3      OH2           -35.8044881989       46.8755725459       21.5302735524  TIP3      6081            0.0000000000
     68074      6481  TIP3      H1            -35.1887030529       47.5653974936       21.8130394210  TIP3      6081            0.0000000000
     68075      6481  TIP3      H2            -36.6728824370       47.2338237259       21.7132268882  TIP3      6081            0.0000000000
     68076      6482  TIP3      OH2           -30.0972932219       49.7159398596       26.4210175212  TIP3      6082            0.0000000000
     68077      6482  TIP3      H1            -30.3806130325       50.6490481082       26.4846327789  TIP3      6082            0.0000000000
     68078      6482  TIP3      H2            -30.8559820408       49.2576830020       26.8301653613  TIP3      6082            0.0000000000
     68079      6483  TIP3      OH2           -29.6419541741       53.8899538564       32.7664189658  TIP3      6083            0.0000000000
     68080      6483  TIP3      H1            -29.2252872135       54.7273994414       32.5151433767  TIP3      6083            0.0000000000
     68081      6483  TIP3      H2            -29.0569623992       53.5752339953       33.4798839322  TIP3      6083            0.0000000000
     68082      6484  TIP3      OH2           -31.4258750864       54.7189749742       25.9503912565  TIP3      6084            0.0000000000
     68083      6484  TIP3      H1            -32.3856457533       54.8652299935       26.0480232357  TIP3      6084            0.0000000000
     68084      6484  TIP3      H2            -31.0750841784       55.5647888811       26.3040468603  TIP3      6084            0.0000000000
     68085      6485  TIP3      OH2           -26.0850235856       49.9511557682       32.4304572769  TIP3      6085            0.0000000000
     68086      6485  TIP3      H1            -26.4795732254       49.7358993973       33.2927270228  TIP3      6085            0.0000000000
     68087      6485  TIP3      H2            -25.4785091285       49.2163897662       32.2591501383  TIP3      6085            0.0000000000
     68088      6486  TIP3      OH2           -23.3690118359       54.5282086789       34.9294376247  TIP3      6086            0.0000000000
     68089      6486  TIP3      H1            -24.0031609511       53.9745526801       34.4204583468  TIP3      6086            0.0000000000
     68090      6486  TIP3      H2            -23.1246820708       55.1898481998       34.2679875104  TIP3      6086            0.0000000000
     68091      6487  TIP3      OH2           -19.3307096826       55.3576708421       21.7108115736  TIP3      6087            0.0000000000
     68092      6487  TIP3      H1            -18.6071676512       55.9931171922       21.5828902281  TIP3      6087            0.0000000000
     68093      6487  TIP3      H2            -20.0518864222       55.9366218722       22.0610448451  TIP3      6087            0.0000000000
     68094      6488  TIP3      OH2           -35.2630361244       41.7558794949       34.3102752494  TIP3      6088            0.0000000000
     68095      6488  TIP3      H1            -36.1736076837       42.0973007963       34.2652204552  TIP3      6088            0.0000000000
     68096      6488  TIP3      H2            -35.3772189473       40.8992665166       34.7510896958  TIP3      6088            0.0000000000
     68097      6489  TIP3      OH2           -23.0052302776       49.6091519719       23.7663835486  TIP3      6089            0.0000000000
     68098      6489  TIP3      H1            -23.2634795998       48.8296838808       24.2907636315  TIP3      6089            0.0000000000
     68099      6489  TIP3      H2            -22.0593647127       49.6758806222       23.9425373471  TIP3      6089            0.0000000000
     68100      6490  TIP3      OH2           -35.6229957047       53.5509921667       32.7405553534  TIP3      6090            0.0000000000
     68101      6490  TIP3      H1            -35.3813513650       52.6139520466       32.7317403459  TIP3      6090            0.0000000000
     68102      6490  TIP3      H2            -35.3782238563       53.8270077895       33.6345911453  TIP3      6090            0.0000000000
     68103      6491  TIP3      OH2           -34.3590672103       48.8176355134       22.9435348339  TIP3      6091            0.0000000000
     68104      6491  TIP3      H1            -35.0706772388       49.2051921609       23.4898062361  TIP3      6091            0.0000000000
     68105      6491  TIP3      H2            -33.8475939165       49.5874817501       22.6831480587  TIP3      6091            0.0000000000
     68106      6492  TIP3      OH2           -26.5390812999       41.5141589434       33.2237829731  TIP3      6092            0.0000000000
     68107      6492  TIP3      H1            -25.8330740080       41.5715409566       33.8796050317  TIP3      6092            0.0000000000
     68108      6492  TIP3      H2            -26.9203192781       40.6309962283       33.4041564397  TIP3      6092            0.0000000000
     68109      6493  TIP3      OH2           -25.7787363529       41.1367767114       24.3368582195  TIP3      6093            0.0000000000
     68110      6493  TIP3      H1            -25.5475469132       41.6072819930       23.5069385064  TIP3      6093            0.0000000000
     68111      6493  TIP3      H2            -25.1925372904       41.5427599427       24.9858477135  TIP3      6093            0.0000000000
     68112      6494  TIP3      OH2           -28.0845699217       53.2638919770       23.1605498299  TIP3      6094            0.0000000000
     68113      6494  TIP3      H1            -28.9042045501       53.7704618884       23.2390742050  TIP3      6094            0.0000000000
     68114      6494  TIP3      H2            -27.5526087095       53.7720019166       22.5359494224  TIP3      6094            0.0000000000
     68115      6495  TIP3      OH2           -28.5777805959       42.8755952020       25.1410435149  TIP3      6095            0.0000000000
     68116      6495  TIP3      H1            -27.7491314301       43.4002805484       25.1859100032  TIP3      6095            0.0000000000
     68117      6495  TIP3      H2            -28.8053105987       42.7238211403       26.0782347524  TIP3      6095            0.0000000000
     68118      6496  TIP3      OH2           -28.0133405594       43.8662233802       34.3387526269  TIP3      6096            0.0000000000
     68119      6496  TIP3      H1            -27.9130138319       44.4419831940       35.1186419844  TIP3      6096            0.0000000000
     68120      6496  TIP3      H2            -27.3521294309       43.1749154900       34.4528940495  TIP3      6096            0.0000000000
     68121      6497  TIP3      OH2           -27.6859176211       39.9255514029       26.0743920990  TIP3      6097            0.0000000000
     68122      6497  TIP3      H1            -28.0212221956       40.5714832513       26.7205815301  TIP3      6097            0.0000000000
     68123      6497  TIP3      H2            -27.0053295141       40.4668358112       25.6021959963  TIP3      6097            0.0000000000
     68124      6498  TIP3      OH2           -30.7712800440       54.3210542165       23.1253760278  TIP3      6098            0.0000000000
     68125      6498  TIP3      H1            -30.5789072508       55.1516483025       22.6728429405  TIP3      6098            0.0000000000
     68126      6498  TIP3      H2            -30.9563284000       54.6228841243       24.0497378905  TIP3      6098            0.0000000000
     68127      6499  TIP3      OH2           -32.0336153854       41.0325241188       22.7597847133  TIP3      6099            0.0000000000
     68128      6499  TIP3      H1            -32.0874133464       41.9052350507       23.1528257113  TIP3      6099            0.0000000000
     68129      6499  TIP3      H2            -31.1264709298       40.7558685704       23.0073025238  TIP3      6099            0.0000000000
     68130      6500  TIP3      OH2           -21.8056447428       41.7540632798       35.1888160407  TIP3      6100            0.0000000000
     68131      6500  TIP3      H1            -22.7457746274       42.0414302170       35.0705535068  TIP3      6100            0.0000000000
     68132      6500  TIP3      H2            -21.5012457908       41.7512661096       34.2677344089  TIP3      6100            0.0000000000
     68133      6501  TIP3      OH2           -23.2146868744       45.5301793201       29.2393137703  TIP3      6101            0.0000000000
     68134      6501  TIP3      H1            -24.0275811744       45.0941461385       28.9318051538  TIP3      6101            0.0000000000
     68135      6501  TIP3      H2            -22.7547089145       44.8273004035       29.7506417215  TIP3      6101            0.0000000000
     68136      6502  TIP3      OH2           -22.1458370947       54.7372160546       30.9017605479  TIP3      6102            0.0000000000
     68137      6502  TIP3      H1            -22.2680846252       55.4521947563       30.2282100443  TIP3      6102            0.0000000000
     68138      6502  TIP3      H2            -21.1912112603       54.8530210128       31.0761309920  TIP3      6102            0.0000000000
     68139      6503  TIP3      OH2           -34.6366034158       38.9065395497       29.6512135923  TIP3      6103            0.0000000000
     68140      6503  TIP3      H1            -34.8640564200       38.9410017115       28.6943025518  TIP3      6103            0.0000000000
     68141      6503  TIP3      H2            -35.0790422339       38.0799253443       29.9296604593  TIP3      6103            0.0000000000
     68142      6504  TIP3      OH2           -35.7116844667       52.8225245718       25.7917588981  TIP3      6104            0.0000000000
     68143      6504  TIP3      H1            -36.5452213558       53.3188044657       25.8109749949  TIP3      6104            0.0000000000
     68144      6504  TIP3      H2            -35.1788228042       53.3325288604       25.1695247032  TIP3      6104            0.0000000000
     68145      6505  TIP3      OH2           -36.4398079311       55.4670020398       37.1114476926  TIP3      6105            0.0000000000
     68146      6505  TIP3      H1            -35.8760917560       55.2405778577       37.8775384943  TIP3      6105            0.0000000000
     68147      6505  TIP3      H2            -36.8990686289       54.6299390969       36.9343167159  TIP3      6105            0.0000000000
     68148      6506  TIP3      OH2           -31.8142262682       54.3732564537       38.7481969361  TIP3      6106            0.0000000000
     68149      6506  TIP3      H1            -31.0373315431       53.8913522527       39.0588880749  TIP3      6106            0.0000000000
     68150      6506  TIP3      H2            -31.8342416237       54.1243813089       37.8011088690  TIP3      6106            0.0000000000
     68151      6507  TIP3      OH2           -25.2652495068       52.7690944380       37.4525054912  TIP3      6107            0.0000000000
     68152      6507  TIP3      H1            -25.6032704701       51.8996245882       37.7174959870  TIP3      6107            0.0000000000
     68153      6507  TIP3      H2            -24.5122522147       52.8992787096       38.0589394733  TIP3      6107            0.0000000000
     68154      6508  TIP3      OH2           -36.5348689437       49.2545230757       38.0890847001  TIP3      6108            0.0000000000
     68155      6508  TIP3      H1            -36.3781832427       48.3432690161       37.7768178119  TIP3      6108            0.0000000000
     68156      6508  TIP3      H2            -37.2964992912       49.5313840654       37.5534589254  TIP3      6108            0.0000000000
     68157      6509  TIP3      OH2           -29.8055957313       49.2310718336       37.4928943948  TIP3      6109            0.0000000000
     68158      6509  TIP3      H1            -30.1995568898       49.5192029828       36.6371740927  TIP3      6109            0.0000000000
     68159      6509  TIP3      H2            -29.7516139287       48.2552210216       37.3896096218  TIP3      6109            0.0000000000
     68160      6510  TIP3      OH2           -24.1441072109       49.1172530447       34.9093973887  TIP3      6110            0.0000000000
     68161      6510  TIP3      H1            -23.3723719267       49.7180007386       34.7768561614  TIP3      6110            0.0000000000
     68162      6510  TIP3      H2            -24.8706633505       49.7509890277       34.9198501843  TIP3      6110            0.0000000000
     68163      6511  TIP3      OH2           -35.6680138199       46.4727481180       37.4868564014  TIP3      6111            0.0000000000
     68164      6511  TIP3      H1            -35.2606547540       45.6047320097       37.3820534387  TIP3      6111            0.0000000000
     68165      6511  TIP3      H2            -35.9197894591       46.4758985383       38.4285731792  TIP3      6111            0.0000000000
     68166      6512  TIP3      OH2           -31.0213639654       47.6053680205       22.5268661437  TIP3      6112            0.0000000000
     68167      6512  TIP3      H1            -31.4783527181       47.1036585420       23.2106197752  TIP3      6112            0.0000000000
     68168      6512  TIP3      H2            -30.7477095131       46.9204158158       21.8713823423  TIP3      6112            0.0000000000
     68169      6513  TIP3      OH2           -31.7392816866       45.4432285917       34.8616385287  TIP3      6113            0.0000000000
     68170      6513  TIP3      H1            -32.3544714594       46.1476857749       35.1285667479  TIP3      6113            0.0000000000
     68171      6513  TIP3      H2            -31.3791426333       45.7938838879       34.0289881504  TIP3      6113            0.0000000000
     68172      6514  TIP3      OH2           -29.9481820704       45.8000739266       20.7821504963  TIP3      6114            0.0000000000
     68173      6514  TIP3      H1            -30.1039873655       45.6905637522       19.8251769007  TIP3      6114            0.0000000000
     68174      6514  TIP3      H2            -28.9682798931       45.9267930671       20.7919030222  TIP3      6114            0.0000000000
     68175      6515  TIP3      OH2           -26.6480399732       47.3800247977       37.8690072095  TIP3      6115            0.0000000000
     68176      6515  TIP3      H1            -25.7980325426       47.8393046187       37.9690086497  TIP3      6115            0.0000000000
     68177      6515  TIP3      H2            -26.9035443623       47.1034777690       38.7671833581  TIP3      6115            0.0000000000
     68178      6516  TIP3      OH2           -20.5127380683       48.1552196739       20.1856848272  TIP3      6116            0.0000000000
     68179      6516  TIP3      H1            -20.8648550383       47.7678051642       19.3829124521  TIP3      6116            0.0000000000
     68180      6516  TIP3      H2            -20.5652305020       49.1188339034       20.0039174925  TIP3      6116            0.0000000000
     68181      6517  TIP3      OH2           -31.3693317697       42.8156294891       35.9326279801  TIP3      6117            0.0000000000
     68182      6517  TIP3      H1            -31.2401426818       42.0864675216       35.3047324142  TIP3      6117            0.0000000000
     68183      6517  TIP3      H2            -31.3921811197       43.6117164940       35.3667331231  TIP3      6117            0.0000000000
     68184      6518  TIP3      OH2           -30.9625825113       41.1855894925       33.4544991952  TIP3      6118            0.0000000000
     68185      6518  TIP3      H1            -30.4381531358       41.6475010896       32.7610371429  TIP3      6118            0.0000000000
     68186      6518  TIP3      H2            -31.8435438685       41.0917253787       33.0234456713  TIP3      6118            0.0000000000
     68187      6519  TIP3      OH2           -29.4033119793       46.6396978492       33.6908399519  TIP3      6119            0.0000000000
     68188      6519  TIP3      H1            -28.6482943360       46.4846431293       33.1115398286  TIP3      6119            0.0000000000
     68189      6519  TIP3      H2            -29.7490352999       47.4933915942       33.3872010537  TIP3      6119            0.0000000000
     68190      6520  TIP3      OH2           -24.9970231552       44.4404166768       38.6956570046  TIP3      6120            0.0000000000
     68191      6520  TIP3      H1            -24.7880666514       43.4971426742       38.5891824925  TIP3      6120            0.0000000000
     68192      6520  TIP3      H2            -24.1215998492       44.8543352670       38.6825872407  TIP3      6120            0.0000000000
     68193      6521  TIP3      OH2           -23.6758990446       47.2374553367       36.8339864916  TIP3      6121            0.0000000000
     68194      6521  TIP3      H1            -23.9238381350       47.9387740820       36.1874345875  TIP3      6121            0.0000000000
     68195      6521  TIP3      H2            -22.7139488846       47.1637932589       36.6171373194  TIP3      6121            0.0000000000
     68196      6522  TIP3      OH2           -32.8984063527       44.0411962546       37.8612271970  TIP3      6122            0.0000000000
     68197      6522  TIP3      H1            -33.6745431775       43.4805027247       37.6413081952  TIP3      6122            0.0000000000
     68198      6522  TIP3      H2            -32.2382485146       43.6980559815       37.2282593630  TIP3      6122            0.0000000000
     68199      6523  TIP3      OH2           -30.1634318110       38.6259763123       33.8753567107  TIP3      6123            0.0000000000
     68200      6523  TIP3      H1            -30.2998375525       39.5954728519       33.7584306395  TIP3      6123            0.0000000000
     68201      6523  TIP3      H2            -30.9198120694       38.2711817883       33.3729121781  TIP3      6123            0.0000000000
     68202      6524  TIP3      OH2           -28.8930405974       42.9527682313       37.4506435346  TIP3      6124            0.0000000000
     68203      6524  TIP3      H1            -29.1728241361       42.7380877820       38.3572668303  TIP3      6124            0.0000000000
     68204      6524  TIP3      H2            -29.6901234666       42.7654192314       36.9204261368  TIP3      6124            0.0000000000
     68205      6525  TIP3      OH2           -26.1784424747       42.0773282748       36.5078252099  TIP3      6125            0.0000000000
     68206      6525  TIP3      H1            -27.1402172258       42.1416102263       36.6566193724  TIP3      6125            0.0000000000
     68207      6525  TIP3      H2            -25.8899025430       41.4577769273       37.1969983509  TIP3      6125            0.0000000000
     68208      6526  TIP3      OH2           -24.5770744024       40.7269890882       38.4883021432  TIP3      6126            0.0000000000
     68209      6526  TIP3      H1            -24.6483952043       39.7557390760       38.5028722944  TIP3      6126            0.0000000000
     68210      6526  TIP3      H2            -24.8718020961       41.0066016261       39.3848765099  TIP3      6126            0.0000000000
     68211      6527  TIP3      OH2           -34.7643695417       41.9685948774       37.5638040951  TIP3      6127            0.0000000000
     68212      6527  TIP3      H1            -34.5340301789       41.2356632273       36.9603424603  TIP3      6127            0.0000000000
     68213      6527  TIP3      H2            -34.8598992227       41.5144707015       38.4252504520  TIP3      6127            0.0000000000
     68214      6528  TIP3      OH2           -29.9555864332       37.9725052467       36.5540071895  TIP3      6128            0.0000000000
     68215      6528  TIP3      H1            -29.2446372339       37.2965158589       36.5223440615  TIP3      6128            0.0000000000
     68216      6528  TIP3      H2            -30.0510060611       38.1872814973       35.6071233056  TIP3      6128            0.0000000000
     68217      6529  TIP3      OH2           -29.5925958589       39.6201731588       38.6233490951  TIP3      6129            0.0000000000
     68218      6529  TIP3      H1            -29.7402066127       39.1279004087       37.7790271634  TIP3      6129            0.0000000000
     68219      6529  TIP3      H2            -30.1920925566       40.3828791951       38.5351567527  TIP3      6129            0.0000000000
     68220      6530  TIP3      OH2           -36.9492950565       54.6167259637       28.1218415307  TIP3      6130            0.0000000000
     68221      6530  TIP3      H1            -37.3077370733       53.7396996704       28.3155372716  TIP3      6130            0.0000000000
     68222      6530  TIP3      H2            -36.7513216262       54.9625919947       29.0092484585  TIP3      6130            0.0000000000
     68223      6531  TIP3      OH2           -19.4178604510       55.4194228302       31.1047788006  TIP3      6131            0.0000000000
     68224      6531  TIP3      H1            -19.4197830849       55.6106117918       32.0532255513  TIP3      6131            0.0000000000
     68225      6531  TIP3      H2            -18.7188191785       55.9946798198       30.7783740869  TIP3      6131            0.0000000000
     68226      6532  TIP3      OH2           -19.8303846351       54.9895667814       34.0213598308  TIP3      6132            0.0000000000
     68227      6532  TIP3      H1            -20.3403083164       54.2442447624       33.6457536286  TIP3      6132            0.0000000000
     68228      6532  TIP3      H2            -19.3309522007       54.5766418164       34.7227992500  TIP3      6132            0.0000000000
     68229      6533  TIP3      OH2           -21.3969525194       50.7580652385       38.6662249645  TIP3      6133            0.0000000000
     68230      6533  TIP3      H1            -22.2720388221       50.6977710991       39.0767573347  TIP3      6133            0.0000000000
     68231      6533  TIP3      H2            -21.0236508587       51.5469872536       39.1315140410  TIP3      6133            0.0000000000
     68232      6534  TIP3      OH2           -20.0863201344       49.0395544533       24.1482275644  TIP3      6134            0.0000000000
     68233      6534  TIP3      H1            -19.2358488445       49.4628507584       24.3270862753  TIP3      6134            0.0000000000
     68234      6534  TIP3      H2            -20.0889210882       48.3140941268       24.8089432772  TIP3      6134            0.0000000000
     68235      6535  TIP3      OH2           -19.7148674001       47.1157217141       25.9946732361  TIP3      6135            0.0000000000
     68236      6535  TIP3      H1            -20.4540273516       46.6217170515       26.4090321246  TIP3      6135            0.0000000000
     68237      6535  TIP3      H2            -19.1221794275       47.2955850227       26.7552320249  TIP3      6135            0.0000000000
     68238      6536  TIP3      OH2           -19.9647713892       49.8564897876       30.9805049981  TIP3      6136            0.0000000000
     68239      6536  TIP3      H1            -19.1234599744       49.4914826992       30.6497689865  TIP3      6136            0.0000000000
     68240      6536  TIP3      H2            -19.8268040759       50.8181519013       30.8307264877  TIP3      6136            0.0000000000
     68241      6537  TIP3      OH2           -21.4264845890       52.7448240937       33.2901201287  TIP3      6137            0.0000000000
     68242      6537  TIP3      H1            -22.1181833295       53.1009212992       33.8652227144  TIP3      6137            0.0000000000
     68243      6537  TIP3      H2            -21.9713152785       52.3299725856       32.5790465697  TIP3      6137            0.0000000000
     68244      6538  TIP3      OH2           -19.4022325911       46.9819917888       22.3914808130  TIP3      6138            0.0000000000
     68245      6538  TIP3      H1            -19.9877208317       47.3424656722       21.6917432365  TIP3      6138            0.0000000000
     68246      6538  TIP3      H2            -19.4846702677       47.6772733744       23.0737409807  TIP3      6138            0.0000000000
     68247      6539  TIP3      OH2           -21.9125866285       45.6196156575       26.5607692382  TIP3      6139            0.0000000000
     68248      6539  TIP3      H1            -22.0660253676       44.6658836883       26.5592461445  TIP3      6139            0.0000000000
     68249      6539  TIP3      H2            -22.2614622373       45.8755060245       27.4329482844  TIP3      6139            0.0000000000
     68250      6540  TIP3      OH2           -36.9001417546       47.7035140407       30.6147494088  TIP3      6140            0.0000000000
     68251      6540  TIP3      H1            -36.7015975013       47.6176220900       29.6559889410  TIP3      6140            0.0000000000
     68252      6540  TIP3      H2            -36.0153812584       47.5542845163       31.0004285738  TIP3      6140            0.0000000000
     68253      6541  TIP3      OH2           -21.0668624881       47.5891650096       36.2410200166  TIP3      6141            0.0000000000
     68254      6541  TIP3      H1            -20.4572484146       46.8390451677       36.4016521192  TIP3      6141            0.0000000000
     68255      6541  TIP3      H2            -20.4746748978       48.3661492801       36.2616916747  TIP3      6141            0.0000000000
     68256      6542  TIP3      OH2           -19.5556129635       45.4926193575       36.9173328928  TIP3      6142            0.0000000000
     68257      6542  TIP3      H1            -20.4319701601       45.0886630943       36.7385963024  TIP3      6142            0.0000000000
     68258      6542  TIP3      H2            -18.9669757449       44.7260647332       36.8287901665  TIP3      6142            0.0000000000
     68259      6543  TIP3      OH2           -22.2266128771       43.2017247044       25.0188049458  TIP3      6143            0.0000000000
     68260      6543  TIP3      H1            -21.9256805948       42.2763382380       25.1696475525  TIP3      6143            0.0000000000
     68261      6543  TIP3      H2            -21.4333954563       43.6218663131       24.6624682650  TIP3      6143            0.0000000000
     68262      6544  TIP3      OH2           -21.6079938821       43.7545375099       30.4707634919  TIP3      6144            0.0000000000
     68263      6544  TIP3      H1            -20.6508052606       43.9915671844       30.4529037909  TIP3      6144            0.0000000000
     68264      6544  TIP3      H2            -21.8125637493       43.8894009755       31.4095842827  TIP3      6144            0.0000000000
     68265      6545  TIP3      OH2           -21.5467130630       44.4837220783       33.2540658197  TIP3      6145            0.0000000000
     68266      6545  TIP3      H1            -22.4166763317       44.7786920145       33.6029042693  TIP3      6145            0.0000000000
     68267      6545  TIP3      H2            -21.1135378507       45.3438357124       33.0369916903  TIP3      6145            0.0000000000
     68268      6546  TIP3      OH2           -37.2939660067       42.9922107335       36.7484303669  TIP3      6146            0.0000000000
     68269      6546  TIP3      H1            -36.3556420754       42.8249460491       36.9693541663  TIP3      6146            0.0000000000
     68270      6546  TIP3      H2            -37.7381254309       42.1934081787       37.1039872415  TIP3      6146            0.0000000000
     68271      6547  TIP3      OH2           -19.2771678256       38.5048406068       38.6021570932  TIP3      6147            0.0000000000
     68272      6547  TIP3      H1            -18.9242346536       37.8456166310       37.9882934764  TIP3      6147            0.0000000000
     68273      6547  TIP3      H2            -19.1424769900       39.3411001766       38.1247712325  TIP3      6147            0.0000000000
     68274      6548  TIP3      OH2           -21.5671104419       40.4697251803       25.0606246439  TIP3      6148            0.0000000000
     68275      6548  TIP3      H1            -21.3991598232       40.0329521961       25.9226507969  TIP3      6148            0.0000000000
     68276      6548  TIP3      H2            -22.2112659440       39.8595891069       24.6325419893  TIP3      6148            0.0000000000
     68277      6549  TIP3      OH2           -36.0819977785       41.2878284360       29.6218736517  TIP3      6149            0.0000000000
     68278      6549  TIP3      H1            -35.6174732317       40.4775298329       29.9149712905  TIP3      6149            0.0000000000
     68279      6549  TIP3      H2            -35.5759938364       41.9955689613       30.0437262540  TIP3      6149            0.0000000000
     68280      6550  TIP3      OH2           -37.7908580370       44.2762927053       30.6890849582  TIP3      6150            0.0000000000
     68281      6550  TIP3      H1            -37.2487983002       44.0576892565       29.9018718407  TIP3      6150            0.0000000000
     68282      6550  TIP3      H2            -37.3719868880       45.1095800965       30.9558821131  TIP3      6150            0.0000000000
     68283      6551  TIP3      OH2           -19.7454183326       40.6188055278       36.9659091480  TIP3      6151            0.0000000000
     68284      6551  TIP3      H1            -20.6886381954       40.8819980847       36.9119973333  TIP3      6151            0.0000000000
     68285      6551  TIP3      H2            -19.6729366223       40.0770074644       36.1630253945  TIP3      6151            0.0000000000
     68286      6552  TIP3      OH2           -37.4460592841       40.5673220563       24.7651086776  TIP3      6152            0.0000000000
     68287      6552  TIP3      H1            -38.3817422215       40.7392256728       24.6103880795  TIP3      6152            0.0000000000
     68288      6552  TIP3      H2            -37.0025584127       41.0086613484       24.0256214352  TIP3      6152            0.0000000000
     68289      6553  TIP3      OH2           -22.6899396423       55.5102721168       26.6797672574  TIP3      6153            0.0000000000
     68290      6553  TIP3      H1            -22.0071519116       55.1673734106       26.0772919812  TIP3      6153            0.0000000000
     68291      6553  TIP3      H2            -22.1676535923       56.0015624033       27.3372735856  TIP3      6153            0.0000000000
     68292      6554  TIP3      OH2           -37.4764334876       39.2480847244       33.0710372050  TIP3      6154            0.0000000000
     68293      6554  TIP3      H1            -38.1565988977       39.0267198474       33.7304849352  TIP3      6154            0.0000000000
     68294      6554  TIP3      H2            -37.9392174391       39.9005534505       32.5027395006  TIP3      6154            0.0000000000
     68295      6555  TIP3      OH2           -35.2682933733       52.4396757443       37.2226777240  TIP3      6155            0.0000000000
     68296      6555  TIP3      H1            -36.1108916792       52.6205667572       36.7755048534  TIP3      6155            0.0000000000
     68297      6555  TIP3      H2            -35.5396372394       52.3831761453       38.1491977899  TIP3      6155            0.0000000000
     68298      6556  TIP3      OH2           -32.3548931609       53.4065929083       33.4926810684  TIP3      6156            0.0000000000
     68299      6556  TIP3      H1            -32.7293994884       54.2524766403       33.2100408737  TIP3      6156            0.0000000000
     68300      6556  TIP3      H2            -31.4292588098       53.5084591143       33.1811492327  TIP3      6156            0.0000000000
     68301      6557  TIP3      OH2           -28.0212563138       54.8142770808       36.4118672932  TIP3      6157            0.0000000000
     68302      6557  TIP3      H1            -27.8540240594       54.4998805257       37.3358513002  TIP3      6157            0.0000000000
     68303      6557  TIP3      H2            -27.1469530085       55.1384940080       36.1382520092  TIP3      6157            0.0000000000
     68304      6558  TIP3      OH2           -25.7177322813       56.1057696116       35.6939405342  TIP3      6158            0.0000000000
     68305      6558  TIP3      H1            -25.0010342124       55.4912102885       35.4648744460  TIP3      6158            0.0000000000
     68306      6558  TIP3      H2            -25.3607230911       56.5070512011       36.5166101210  TIP3      6158            0.0000000000
     68307      6559  TIP3      OH2           -20.7413468881       38.7157513048       34.7950957128  TIP3      6159            0.0000000000
     68308      6559  TIP3      H1            -21.5714291474       39.0174619535       34.3814409142  TIP3      6159            0.0000000000
     68309      6559  TIP3      H2            -20.5444344918       37.9195301226       34.2503846376  TIP3      6159            0.0000000000
     68310      6560  TIP3      OH2           -32.4792195242      -56.6008864398       32.6034261930  TIP3      6160            0.0000000000
     68311      6560  TIP3      H1            -33.3545148430      -56.4656594075       32.9679352722  TIP3      6160            0.0000000000
     68312      6560  TIP3      H2            -32.5151222237      -56.0278444871       31.7952815126  TIP3      6160            0.0000000000
     68313      6561  TIP3      OH2           -27.7552867968      -56.7023870944       31.7291608832  TIP3      6161            0.0000000000
     68314      6561  TIP3      H1            -28.2192374025      -56.1495158656       31.0777323174  TIP3      6161            0.0000000000
     68315      6561  TIP3      H2            -27.6033690867      -56.0625198898       32.4662572249  TIP3      6161            0.0000000000
     68316      6562  TIP3      OH2           -25.4412612682       55.0063256372       32.7155883515  TIP3      6162            0.0000000000
     68317      6562  TIP3      H1            -26.3323673060       55.2252318244       32.4027054797  TIP3      6162            0.0000000000
     68318      6562  TIP3      H2            -25.0097327077       55.8691634279       32.6189978124  TIP3      6162            0.0000000000
     68319      6563  TIP3      OH2           -35.5182079503       55.2675740413       30.4438414015  TIP3      6163            0.0000000000
     68320      6563  TIP3      H1            -35.5496741847       54.8511041639       31.3262959719  TIP3      6163            0.0000000000
     68321      6563  TIP3      H2            -34.6867085780       54.9455196091       30.0394336321  TIP3      6163            0.0000000000
     68322      6564  TIP3      OH2           -33.4018618837       54.0290237705       29.0908265587  TIP3      6164            0.0000000000
     68323      6564  TIP3      H1            -33.5826050373       53.0894988173       29.2782851700  TIP3      6164            0.0000000000
     68324      6564  TIP3      H2            -32.5437510874       54.1482703647       29.5542218533  TIP3      6164            0.0000000000
     68325      6565  TIP3      OH2           -30.8228127502       54.4920393265       29.9574001744  TIP3      6165            0.0000000000
     68326      6565  TIP3      H1            -30.6249762975       53.5781745322       29.6805277879  TIP3      6165            0.0000000000
     68327      6565  TIP3      H2            -30.7656902133       54.4406735404       30.9170771396  TIP3      6165            0.0000000000
     68328      6566  TIP3      OH2           -27.3338191820       40.1504118896       29.0967978748  TIP3      6166            0.0000000000
     68329      6566  TIP3      H1            -28.0102604586       39.5060817245       29.3574760950  TIP3      6166            0.0000000000
     68330      6566  TIP3      H2            -26.7760499882       39.6399244483       28.4990525946  TIP3      6166            0.0000000000
     68331      6567  TIP3      OH2           -22.1980444780       38.2248038413       29.1984258377  TIP3      6167            0.0000000000
     68332      6567  TIP3      H1            -21.5793403643       38.8028917764       28.6848054773  TIP3      6167            0.0000000000
     68333      6567  TIP3      H2            -23.0737755676       38.5696190750       28.9455290735  TIP3      6167            0.0000000000
     68334      6568  TIP3      OH2           -20.5066647196       39.4151813235       27.4929518808  TIP3      6168            0.0000000000
     68335      6568  TIP3      H1            -19.8368778116       38.8686563812       27.0203058728  TIP3      6168            0.0000000000
     68336      6568  TIP3      H2            -20.0540604935       40.2834382698       27.5696313552  TIP3      6168            0.0000000000
     68337      6569  TIP3      OH2           -34.9887054221       38.7859018465       26.9435031090  TIP3      6169            0.0000000000
     68338      6569  TIP3      H1            -35.7766477256       38.5546002586       26.4121391571  TIP3      6169            0.0000000000
     68339      6569  TIP3      H2            -34.4864073693       37.9526756300       26.9005905929  TIP3      6169            0.0000000000
     68340      6570  TIP3      OH2           -30.4543228410       38.7008590990       26.7216543937  TIP3      6170            0.0000000000
     68341      6570  TIP3      H1            -29.5611879505       39.0847226040       26.6927186271  TIP3      6170            0.0000000000
     68342      6570  TIP3      H2            -30.5448296478       38.4897821464       27.6527718358  TIP3      6170            0.0000000000
     68343      6571  TIP3      OH2           -24.8281083102       38.7337707311       28.3747231579  TIP3      6171            0.0000000000
     68344      6571  TIP3      H1            -24.8086345561       38.8288466037       27.4174194188  TIP3      6171            0.0000000000
     68345      6571  TIP3      H2            -25.1588507250       37.8139520255       28.4984439002  TIP3      6171            0.0000000000
     68346      6572  TIP3      OH2           -23.4947111007       38.7700932700       24.0746702931  TIP3      6172            0.0000000000
     68347      6572  TIP3      H1            -24.2338390251       39.3571332169       23.8516826374  TIP3      6172            0.0000000000
     68348      6572  TIP3      H2            -23.9589273356       37.9150442091       24.2141093235  TIP3      6172            0.0000000000
     68349      6573  TIP3      OH2           -36.2686220876       54.4965308889       23.6281547270  TIP3      6173            0.0000000000
     68350      6573  TIP3      H1            -36.9416548745       54.4928800514       22.9474141898  TIP3      6173            0.0000000000
     68351      6573  TIP3      H2            -36.2663895674       55.4330515874       23.8710860636  TIP3      6173            0.0000000000
     68352      6574  TIP3      OH2           -29.3239120555       40.7592246551       23.5892276338  TIP3      6174            0.0000000000
     68353      6574  TIP3      H1            -29.0946995370       40.1451726131       24.2998342701  TIP3      6174            0.0000000000
     68354      6574  TIP3      H2            -29.3009840947       41.6098123214       24.0802352651  TIP3      6174            0.0000000000
     68355      6575  TIP3      OH2           -27.4452054340       55.7852768463       21.9923766877  TIP3      6175            0.0000000000
     68356      6575  TIP3      H1            -26.5114485376       56.0515083331       21.8394108820  TIP3      6175            0.0000000000
     68357      6575  TIP3      H2            -27.6254026244       55.2753990444       21.1905342672  TIP3      6175            0.0000000000
     68358      6576  TIP3      OH2           -20.6847876888       55.2956381702       24.7334410657  TIP3      6176            0.0000000000
     68359      6576  TIP3      H1            -20.8969052397       54.5264696857       24.1451328840  TIP3      6176            0.0000000000
     68360      6576  TIP3      H2            -20.7467231676       56.0436517900       24.1019724473  TIP3      6176            0.0000000000
     68361      6577  TIP3      OH2           -35.0723527645       39.3117148301       36.4086763615  TIP3      6177            0.0000000000
     68362      6577  TIP3      H1            -35.4287883378       38.5203572567       36.8564455116  TIP3      6177            0.0000000000
     68363      6577  TIP3      H2            -34.1427047365       39.3010529234       36.7454765507  TIP3      6177            0.0000000000
     68364      6578  TIP3      OH2           -33.0707581682       38.6862714787       38.0007953139  TIP3      6178            0.0000000000
     68365      6578  TIP3      H1            -32.1747804047       38.3547010195       37.7877134957  TIP3      6178            0.0000000000
     68366      6578  TIP3      H2            -33.4535473021       37.8963214914       38.4377387159  TIP3      6178            0.0000000000
     68367      6579  TIP3      OH2           -34.4653321170       55.4278203406       20.6686565756  TIP3      6179            0.0000000000
     68368      6579  TIP3      H1            -34.7251283488       55.7374000646       21.5310929053  TIP3      6179            0.0000000000
     68369      6579  TIP3      H2            -33.6831251961       54.9153270483       20.7902506473  TIP3      6179            0.0000000000
     68370      6580  TIP3      OH2           -24.6674667733       37.9909088745       38.1643583959  TIP3      6180            0.0000000000
     68371      6580  TIP3      H1            -24.5695220959       37.5304441026       39.0196477974  TIP3      6180            0.0000000000
     68372      6580  TIP3      H2            -23.7512185956       37.9773349079       37.8194043084  TIP3      6180            0.0000000000
     68373      6581  TIP3      OH2           -21.4532252602       54.0464493375       36.8463439737  TIP3      6181            0.0000000000
     68374      6581  TIP3      H1            -22.2702645536       53.8743994339       36.3168770718  TIP3      6181            0.0000000000
     68375      6581  TIP3      H2            -21.5588603725       54.9861350700       37.0482833315  TIP3      6181            0.0000000000
     68376      6582  TIP3      OH2            -7.0529248991       47.9153274786       26.8561735344  TIP3      6182            0.0000000000
     68377      6582  TIP3      H1             -6.9929526636       48.8927803239       26.7516300923  TIP3      6182            0.0000000000
     68378      6582  TIP3      H2             -7.7232338258       47.6917463537       26.2075507740  TIP3      6182            0.0000000000
     68379      6583  TIP3      OH2            -8.1658752959       47.1956011524       30.3158239161  TIP3      6183            0.0000000000
     68380      6583  TIP3      H1             -8.1709083569       46.5238195148       31.0022671345  TIP3      6183            0.0000000000
     68381      6583  TIP3      H2             -8.4708174921       46.7026407245       29.5358069927  TIP3      6183            0.0000000000
     68382      6584  TIP3      OH2           -15.7884258302       46.8249980050       31.8682080311  TIP3      6184            0.0000000000
     68383      6584  TIP3      H1            -15.7272067221       46.1644326732       32.5904333835  TIP3      6184            0.0000000000
     68384      6584  TIP3      H2            -15.0660301009       47.4258466730       32.0719313297  TIP3      6184            0.0000000000
     68385      6585  TIP3      OH2            -4.4471617658       50.1207403295       28.5844529615  TIP3      6185            0.0000000000
     68386      6585  TIP3      H1             -4.8834863681       49.4083635089       29.0603938645  TIP3      6185            0.0000000000
     68387      6585  TIP3      H2             -4.4480831274       50.8413401673       29.2411830024  TIP3      6185            0.0000000000
     68388      6586  TIP3      OH2           -14.8699684083       51.2787716837       30.4038134585  TIP3      6186            0.0000000000
     68389      6586  TIP3      H1            -15.2063885418       50.4366447647       30.0448514496  TIP3      6186            0.0000000000
     68390      6586  TIP3      H2            -13.9159108851       51.0895178871       30.4367283570  TIP3      6186            0.0000000000
     68391      6587  TIP3      OH2           -18.2251277126       44.8828460424       25.8212835363  TIP3      6187            0.0000000000
     68392      6587  TIP3      H1            -18.6852731851       45.7503844394       25.7984193087  TIP3      6187            0.0000000000
     68393      6587  TIP3      H2            -18.8092255011       44.3308307709       25.2895622307  TIP3      6187            0.0000000000
     68394      6588  TIP3      OH2           -17.5371960028       47.0824070803       27.9587114442  TIP3      6188            0.0000000000
     68395      6588  TIP3      H1            -17.2904980998       46.2828658702       28.4581300570  TIP3      6188            0.0000000000
     68396      6588  TIP3      H2            -16.8023211481       47.1699674843       27.3310310305  TIP3      6188            0.0000000000
     68397      6589  TIP3      OH2            -7.3809892032       55.2252607389       28.8056030036  TIP3      6189            0.0000000000
     68398      6589  TIP3      H1             -6.7077073621       54.5496887459       28.5412134146  TIP3      6189            0.0000000000
     68399      6589  TIP3      H2             -7.5406305996       54.9818029094       29.7159971216  TIP3      6189            0.0000000000
     68400      6590  TIP3      OH2            -9.7849512334       49.5880916403       30.7527853348  TIP3      6190            0.0000000000
     68401      6590  TIP3      H1             -9.4403400752       48.9474268142       30.1004471179  TIP3      6190            0.0000000000
     68402      6590  TIP3      H2             -8.9919062688       49.7420885590       31.2930341988  TIP3      6190            0.0000000000
     68403      6591  TIP3      OH2            -1.1343630660       41.2153307865       31.5340339737  TIP3      6191            0.0000000000
     68404      6591  TIP3      H1             -1.0214508433       41.8358551650       32.2858844936  TIP3      6191            0.0000000000
     68405      6591  TIP3      H2             -0.6412889809       41.6768286302       30.8394893753  TIP3      6191            0.0000000000
     68406      6592  TIP3      OH2            -6.6153007970       44.0427208539       31.0623695491  TIP3      6192            0.0000000000
     68407      6592  TIP3      H1             -6.4716351237       43.0777581745       31.0519794278  TIP3      6192            0.0000000000
     68408      6592  TIP3      H2             -6.7195115378       44.2030165539       30.1018931873  TIP3      6192            0.0000000000
     68409      6593  TIP3      OH2           -13.4736724984       42.1210833208       28.3128223496  TIP3      6193            0.0000000000
     68410      6593  TIP3      H1            -13.4139228101       42.9748358746       27.8573971499  TIP3      6193            0.0000000000
     68411      6593  TIP3      H2            -13.9122412952       41.5596661780       27.6395798989  TIP3      6193            0.0000000000
     68412      6594  TIP3      OH2            -5.7636452748       42.2368661687       26.6844441191  TIP3      6194            0.0000000000
     68413      6594  TIP3      H1             -5.0910979587       41.9135582084       27.3352103823  TIP3      6194            0.0000000000
     68414      6594  TIP3      H2             -5.2072822005       42.7723838638       26.1008135611  TIP3      6194            0.0000000000
     68415      6595  TIP3      OH2           -16.8620893675       44.5334812682       29.0543162135  TIP3      6195            0.0000000000
     68416      6595  TIP3      H1            -16.1876595087       43.9707614827       29.4904533020  TIP3      6195            0.0000000000
     68417      6595  TIP3      H2            -16.7940580459       44.2321880827       28.1358539059  TIP3      6195            0.0000000000
     68418      6596  TIP3      OH2           -11.6808397397       46.0847335282       28.2938281991  TIP3      6196            0.0000000000
     68419      6596  TIP3      H1            -11.0626033972       45.5200671543       28.7859132511  TIP3      6196            0.0000000000
     68420      6596  TIP3      H2            -12.2644121750       45.4204719596       27.8721487286  TIP3      6196            0.0000000000
     68421      6597  TIP3      OH2            -0.7082176553       42.6734589910       33.7803450946  TIP3      6197            0.0000000000
     68422      6597  TIP3      H1             -1.3781282048       43.3822463038       33.6924840075  TIP3      6197            0.0000000000
     68423      6597  TIP3      H2             -0.6913655187       42.5208974856       34.7340917013  TIP3      6197            0.0000000000
     68424      6598  TIP3      OH2           -14.6169647501       41.0260204586       32.3603187018  TIP3      6198            0.0000000000
     68425      6598  TIP3      H1            -14.8752207374       41.5835047098       31.6011501373  TIP3      6198            0.0000000000
     68426      6598  TIP3      H2            -15.3074222196       41.2655286171       33.0276667489  TIP3      6198            0.0000000000
     68427      6599  TIP3      OH2            -7.2818484255       50.5178357650       25.9020640226  TIP3      6199            0.0000000000
     68428      6599  TIP3      H1             -7.5729481485       50.2275823303       25.0355241598  TIP3      6199            0.0000000000
     68429      6599  TIP3      H2             -7.6152876207       51.4402015999       25.9557895799  TIP3      6199            0.0000000000
     68430      6600  TIP3      OH2           -12.1324419336       48.7192644406       32.4824092309  TIP3      6200            0.0000000000
     68431      6600  TIP3      H1            -12.8454625617       49.3571338110       32.7395603158  TIP3      6200            0.0000000000
     68432      6600  TIP3      H2            -11.3824224951       49.3067029900       32.2694411595  TIP3      6200            0.0000000000
     68433      6601  TIP3      OH2            -3.9746201872       41.5496647779       28.6719711755  TIP3      6201            0.0000000000
     68434      6601  TIP3      H1             -4.1795296419       40.7786408674       29.2113649159  TIP3      6201            0.0000000000
     68435      6601  TIP3      H2             -3.3018193381       42.0028832070       29.2081489871  TIP3      6201            0.0000000000
     68436      6602  TIP3      OH2           -15.0581659479       42.9077683938       30.3477549191  TIP3      6202            0.0000000000
     68437      6602  TIP3      H1            -14.4155692108       43.5697017440       30.6928867359  TIP3      6202            0.0000000000
     68438      6602  TIP3      H2            -14.5218115261       42.4588316377       29.6513475435  TIP3      6202            0.0000000000
     68439      6603  TIP3      OH2           -13.6381783635       50.6566012682       33.4440538767  TIP3      6203            0.0000000000
     68440      6603  TIP3      H1            -13.6809204415       51.5619516529       33.0620139020  TIP3      6203            0.0000000000
     68441      6603  TIP3      H2            -14.5366006543       50.5951921639       33.8586659307  TIP3      6203            0.0000000000
     68442      6604  TIP3      OH2           -17.5399461903       50.3161041157       24.2142666333  TIP3      6204            0.0000000000
     68443      6604  TIP3      H1            -17.8368030053       50.5987420632       23.3318760797  TIP3      6204            0.0000000000
     68444      6604  TIP3      H2            -17.4969608293       51.1691385515       24.7004200670  TIP3      6204            0.0000000000
     68445      6605  TIP3      OH2            -3.9245499819       51.9562327142       30.9485410805  TIP3      6205            0.0000000000
     68446      6605  TIP3      H1             -4.8891624975       52.0483673995       31.0889675872  TIP3      6205            0.0000000000
     68447      6605  TIP3      H2             -3.6585948713       52.8829132930       30.7804294185  TIP3      6205            0.0000000000
     68448      6606  TIP3      OH2            -3.6208656845       40.2486716753       32.3575355081  TIP3      6206            0.0000000000
     68449      6606  TIP3      H1             -4.3558957092       40.8717029793       32.2956630230  TIP3      6206            0.0000000000
     68450      6606  TIP3      H2             -2.9247683118       40.6706108886       31.8233737616  TIP3      6206            0.0000000000
     68451      6607  TIP3      OH2           -10.6261681428       38.3543005012       29.8129539469  TIP3      6207            0.0000000000
     68452      6607  TIP3      H1            -10.7544575923       37.3874970307       29.7579710687  TIP3      6207            0.0000000000
     68453      6607  TIP3      H2            -11.5023337391       38.6699294877       30.1068082449  TIP3      6207            0.0000000000
     68454      6608  TIP3      OH2            -5.6856078092       53.7279716945       27.5619579361  TIP3      6208            0.0000000000
     68455      6608  TIP3      H1             -5.2405714827       53.0187286631       27.0637944583  TIP3      6208            0.0000000000
     68456      6608  TIP3      H2             -5.3119647043       54.5377590958       27.1507995632  TIP3      6208            0.0000000000
     68457      6609  TIP3      OH2            -4.4886841651       51.6706488058       26.0582160596  TIP3      6209            0.0000000000
     68458      6609  TIP3      H1             -4.7739396069       50.9514391617       25.4686963809  TIP3      6209            0.0000000000
     68459      6609  TIP3      H2             -4.4413404135       51.1874988041       26.9095376699  TIP3      6209            0.0000000000
     68460      6610  TIP3      OH2            -2.8383174683       50.2350873693       34.5620337509  TIP3      6210            0.0000000000
     68461      6610  TIP3      H1             -2.6934235383       49.6150783195       33.8147596399  TIP3      6210            0.0000000000
     68462      6610  TIP3      H2             -2.6569011821       51.0996316803       34.1633992213  TIP3      6210            0.0000000000
     68463      6611  TIP3      OH2            -8.3271274380       47.2392781432       24.3438956770  TIP3      6211            0.0000000000
     68464      6611  TIP3      H1             -9.0435428946       47.7807343824       23.9443047078  TIP3      6211            0.0000000000
     68465      6611  TIP3      H2             -7.6203098959       47.2798122209       23.6478242315  TIP3      6211            0.0000000000
     68466      6612  TIP3      OH2            -0.9743757741       46.5549689198       32.6195594107  TIP3      6212            0.0000000000
     68467      6612  TIP3      H1             -1.6379069162       47.2711082918       32.6809393705  TIP3      6212            0.0000000000
     68468      6612  TIP3      H2             -0.5044579013       46.7862742370       31.7982685545  TIP3      6212            0.0000000000
     68469      6613  TIP3      OH2            -4.9409048153       47.3689507092       25.2512394108  TIP3      6213            0.0000000000
     68470      6613  TIP3      H1             -5.6657302344       47.6243546510       25.8615149620  TIP3      6213            0.0000000000
     68471      6613  TIP3      H2             -4.4676979286       46.6851968099       25.7522745900  TIP3      6213            0.0000000000
     68472      6614  TIP3      OH2            -5.0075069420       45.5375351400       34.3519371230  TIP3      6214            0.0000000000
     68473      6614  TIP3      H1             -4.9781811480       46.3394075918       34.9028789861  TIP3      6214            0.0000000000
     68474      6614  TIP3      H2             -5.6409080668       45.8407647990       33.6637847392  TIP3      6214            0.0000000000
     68475      6615  TIP3      OH2           -13.2967883680       48.0328755039       27.1611713004  TIP3      6215            0.0000000000
     68476      6615  TIP3      H1            -13.6321204190       47.6387399987       26.3244722837  TIP3      6215            0.0000000000
     68477      6615  TIP3      H2            -12.7049955953       47.3360916641       27.5102316994  TIP3      6215            0.0000000000
     68478      6616  TIP3      OH2           -11.9674371797       51.4403361330       29.8533136135  TIP3      6216            0.0000000000
     68479      6616  TIP3      H1            -12.0121060739       50.8797221584       29.0609155128  TIP3      6216            0.0000000000
     68480      6616  TIP3      H2            -11.1909533681       51.0742851008       30.3070948095  TIP3      6216            0.0000000000
     68481      6617  TIP3      OH2           -12.9455232415       46.7649202777       30.8094499741  TIP3      6217            0.0000000000
     68482      6617  TIP3      H1            -12.3896660417       46.8950101276       30.0142211389  TIP3      6217            0.0000000000
     68483      6617  TIP3      H2            -12.6089385031       47.4436738066       31.4175067747  TIP3      6217            0.0000000000
     68484      6618  TIP3      OH2            -6.5960497167       52.3204497988       31.5199269286  TIP3      6218            0.0000000000
     68485      6618  TIP3      H1             -6.8641108940       52.9684971748       32.1728544769  TIP3      6218            0.0000000000
     68486      6618  TIP3      H2             -6.8240336100       51.4625313270       31.9549227353  TIP3      6218            0.0000000000
     68487      6619  TIP3      OH2           -12.0384551828       51.1662142515       35.5127671065  TIP3      6219            0.0000000000
     68488      6619  TIP3      H1            -12.3798457121       51.9679425606       35.9814861461  TIP3      6219            0.0000000000
     68489      6619  TIP3      H2            -12.7184750666       51.0405883311       34.8120982785  TIP3      6219            0.0000000000
     68490      6620  TIP3      OH2            -6.1140406832       46.5647152073       22.9576631164  TIP3      6220            0.0000000000
     68491      6620  TIP3      H1             -5.4793095757       46.7106071179       23.7044373208  TIP3      6220            0.0000000000
     68492      6620  TIP3      H2             -5.6385395437       47.0251135902       22.2160268507  TIP3      6220            0.0000000000
     68493      6621  TIP3      OH2           -15.0854172022       47.3838762702       34.7008353097  TIP3      6221            0.0000000000
     68494      6621  TIP3      H1            -15.0733304158       48.0346241232       35.4304427920  TIP3      6221            0.0000000000
     68495      6621  TIP3      H2            -16.0225353654       47.4712655261       34.4330412120  TIP3      6221            0.0000000000
     68496      6622  TIP3      OH2            -8.3445923788       53.2830451307       26.4038752462  TIP3      6222            0.0000000000
     68497      6622  TIP3      H1             -7.8703471208       53.5989383646       27.1802876943  TIP3      6222            0.0000000000
     68498      6622  TIP3      H2             -8.9039837941       54.0297470319       26.1605625468  TIP3      6222            0.0000000000
     68499      6623  TIP3      OH2           -13.8012336905       53.2587545063       36.2597001756  TIP3      6223            0.0000000000
     68500      6623  TIP3      H1            -13.8090347835       53.1200699233       35.3002366289  TIP3      6223            0.0000000000
     68501      6623  TIP3      H2            -14.7024719558       53.1079370860       36.5327409260  TIP3      6223            0.0000000000
     68502      6624  TIP3      OH2            -2.3435786935       38.2843503350       22.8137382070  TIP3      6224            0.0000000000
     68503      6624  TIP3      H1             -3.2724390300       38.4497534502       23.0566367412  TIP3      6224            0.0000000000
     68504      6624  TIP3      H2             -2.1324187930       39.1188835964       22.3539883745  TIP3      6224            0.0000000000
     68505      6625  TIP3      OH2           -14.2955513869       47.0610392931       24.7327352573  TIP3      6225            0.0000000000
     68506      6625  TIP3      H1            -14.6198364394       47.8585826276       24.2639874249  TIP3      6225            0.0000000000
     68507      6625  TIP3      H2            -14.9974969700       46.4217126337       24.5772853059  TIP3      6225            0.0000000000
     68508      6626  TIP3      OH2           -18.2248031191       49.4774504060       33.6171767608  TIP3      6226            0.0000000000
     68509      6626  TIP3      H1            -18.7068683697       49.4011782132       32.7682405453  TIP3      6226            0.0000000000
     68510      6626  TIP3      H2            -18.1984359305       48.5315320647       33.8692038389  TIP3      6226            0.0000000000
     68511      6627  TIP3      OH2           -18.4782549712       52.2069240807       30.4544451929  TIP3      6227            0.0000000000
     68512      6627  TIP3      H1            -17.5226090052       52.0879474072       30.4258050763  TIP3      6227            0.0000000000
     68513      6627  TIP3      H2            -18.5747639171       53.0196776219       30.9673714413  TIP3      6227            0.0000000000
     68514      6628  TIP3      OH2            -0.2508984778       52.8979131658       36.1181757946  TIP3      6228            0.0000000000
     68515      6628  TIP3      H1             -0.3436660796       51.9383750591       36.1060519388  TIP3      6228            0.0000000000
     68516      6628  TIP3      H2             -1.1037290400       53.1602948163       36.5375187012  TIP3      6228            0.0000000000
     68517      6629  TIP3      OH2            -9.2862078138       52.4500829397       34.9977496767  TIP3      6229            0.0000000000
     68518      6629  TIP3      H1             -9.2068785959       53.3040403359       35.4971226008  TIP3      6229            0.0000000000
     68519      6629  TIP3      H2            -10.1671276627       52.1445922340       35.2574109093  TIP3      6229            0.0000000000
     68520      6630  TIP3      OH2            -8.8702026685      -56.6329592271       24.8048161795  TIP3      6230            0.0000000000
     68521      6630  TIP3      H1             -8.9484882332      -56.7097324823       23.8365371201  TIP3      6230            0.0000000000
     68522      6630  TIP3      H2             -8.8381013631      -55.6575239993       24.9456974147  TIP3      6230            0.0000000000
     68523      6631  TIP3      OH2           -15.2011177390       55.0330446038       26.5963271536  TIP3      6231            0.0000000000
     68524      6631  TIP3      H1            -15.0718433148       54.6656423661       27.4950462537  TIP3      6231            0.0000000000
     68525      6631  TIP3      H2            -16.0646568801       54.6564773442       26.3621585182  TIP3      6231            0.0000000000
     68526      6632  TIP3      OH2            -5.7568837058       55.3861185459       21.7959399320  TIP3      6232            0.0000000000
     68527      6632  TIP3      H1             -5.4159237161       54.6366126739       21.3244343185  TIP3      6232            0.0000000000
     68528      6632  TIP3      H2             -5.7739421175       55.1202249200       22.7350374028  TIP3      6232            0.0000000000
     68529      6633  TIP3      OH2            -6.1157460100       55.2751356058       24.5372370809  TIP3      6233            0.0000000000
     68530      6633  TIP3      H1             -7.0592891314       55.4256202638       24.7555658607  TIP3      6233            0.0000000000
     68531      6633  TIP3      H2             -5.8424026837       54.5945575202       25.1653462617  TIP3      6233            0.0000000000
     68532      6634  TIP3      OH2            -3.1098245389       44.3919072159       36.6093909047  TIP3      6234            0.0000000000
     68533      6634  TIP3      H1             -3.5455456850       44.8595649489       35.8824085306  TIP3      6234            0.0000000000
     68534      6634  TIP3      H2             -3.0903303712       43.4749966543       36.2955812356  TIP3      6234            0.0000000000
     68535      6635  TIP3      OH2           -15.9739642059       50.8223947020       34.6224463287  TIP3      6235            0.0000000000
     68536      6635  TIP3      H1            -15.7448190913       50.4003628400       35.4789468215  TIP3      6235            0.0000000000
     68537      6635  TIP3      H2            -16.8269919450       50.3856320412       34.3855367627  TIP3      6235            0.0000000000
     68538      6636  TIP3      OH2           -13.3081063556       39.2460270427       30.5853301188  TIP3      6236            0.0000000000
     68539      6636  TIP3      H1            -14.2076823533       39.1540601577       30.1948415834  TIP3      6236            0.0000000000
     68540      6636  TIP3      H2            -13.3909054442       40.1012940992       31.0344496152  TIP3      6236            0.0000000000
     68541      6637  TIP3      OH2            -8.6591254927       38.9587663606       33.9504229130  TIP3      6237            0.0000000000
     68542      6637  TIP3      H1             -8.2569498803       38.5330669866       34.7285309774  TIP3      6237            0.0000000000
     68543      6637  TIP3      H2             -9.6256011136       38.7951245417       34.0864677516  TIP3      6237            0.0000000000
     68544      6638  TIP3      OH2            -5.3498060994       42.7453403047       34.8203130273  TIP3      6238            0.0000000000
     68545      6638  TIP3      H1             -5.8919586993       42.5777231044       35.6282682039  TIP3      6238            0.0000000000
     68546      6638  TIP3      H2             -5.5209734286       43.6667702269       34.5839044289  TIP3      6238            0.0000000000
     68547      6639  TIP3      OH2            -4.6046512833       47.5839657076       20.6267476615  TIP3      6239            0.0000000000
     68548      6639  TIP3      H1             -4.5717577342       47.3549552787       19.6860829903  TIP3      6239            0.0000000000
     68549      6639  TIP3      H2             -3.7433526157       47.9765198440       20.7816750896  TIP3      6239            0.0000000000
     68550      6640  TIP3      OH2           -13.2074414898       44.2182576222       31.7565287889  TIP3      6240            0.0000000000
     68551      6640  TIP3      H1            -13.9207243342       44.1825331294       32.4212162099  TIP3      6240            0.0000000000
     68552      6640  TIP3      H2            -13.2315965436       45.1458367447       31.4396886583  TIP3      6240            0.0000000000
     68553      6641  TIP3      OH2           -13.2331822606       44.4139237273       26.6417940194  TIP3      6241            0.0000000000
     68554      6641  TIP3      H1            -14.1592367352       44.0946959796       26.5474146648  TIP3      6241            0.0000000000
     68555      6641  TIP3      H2            -12.8338591469       44.0423555607       25.8407918540  TIP3      6241            0.0000000000
     68556      6642  TIP3      OH2            -7.5785930604       44.8187555159       25.5055099664  TIP3      6242            0.0000000000
     68557      6642  TIP3      H1             -7.9452307671       45.6774269044       25.2596318748  TIP3      6242            0.0000000000
     68558      6642  TIP3      H2             -6.9153671682       44.6753477704       24.8022248319  TIP3      6242            0.0000000000
     68559      6643  TIP3      OH2            -8.6335487965       45.0580790013       36.8959656867  TIP3      6243            0.0000000000
     68560      6643  TIP3      H1             -9.1767086905       44.2969035851       37.2224802843  TIP3      6243            0.0000000000
     68561      6643  TIP3      H2             -7.7964293538       44.9136150758       37.3773291106  TIP3      6243            0.0000000000
     68562      6644  TIP3      OH2            -6.7069073284       44.3168187657       28.2697518466  TIP3      6244            0.0000000000
     68563      6644  TIP3      H1             -6.9157446119       44.8979039085       27.5233122654  TIP3      6244            0.0000000000
     68564      6644  TIP3      H2             -6.5421864430       43.4686160484       27.8072598609  TIP3      6244            0.0000000000
     68565      6645  TIP3      OH2           -15.5186241221       44.5228936441       33.5327807633  TIP3      6245            0.0000000000
     68566      6645  TIP3      H1            -15.5317496006       44.9146138468       34.4212456211  TIP3      6245            0.0000000000
     68567      6645  TIP3      H2            -15.9987969132       43.6921064202       33.6747432963  TIP3      6245            0.0000000000
     68568      6646  TIP3      OH2           -12.1233938866       41.9543042869       20.3757956495  TIP3      6246            0.0000000000
     68569      6646  TIP3      H1            -12.5925666175       41.4522142087       21.0725272129  TIP3      6246            0.0000000000
     68570      6646  TIP3      H2            -12.8714517372       42.2602383942       19.8385550418  TIP3      6246            0.0000000000
     68571      6647  TIP3      OH2           -18.9078575052       41.6296264164       27.4294565117  TIP3      6247            0.0000000000
     68572      6647  TIP3      H1            -18.2469948861       41.5965789508       28.1507960290  TIP3      6247            0.0000000000
     68573      6647  TIP3      H2            -18.4396637674       41.2190900828       26.6863139517  TIP3      6247            0.0000000000
     68574      6648  TIP3      OH2           -17.6178697601       42.3607083206       22.8497917130  TIP3      6248            0.0000000000
     68575      6648  TIP3      H1            -17.1472420343       42.9634172863       22.2571792537  TIP3      6248            0.0000000000
     68576      6648  TIP3      H2            -18.3263610254       42.9431430754       23.1843455057  TIP3      6248            0.0000000000
     68577      6649  TIP3      OH2            -7.4768121521       45.9464613330       32.8851695588  TIP3      6249            0.0000000000
     68578      6649  TIP3      H1             -7.1091996566       45.2786560901       32.2666198081  TIP3      6249            0.0000000000
     68579      6649  TIP3      H2             -7.8999431742       45.3858645518       33.5571979526  TIP3      6249            0.0000000000
     68580      6650  TIP3      OH2           -10.6665080959       41.8956108800       27.6819216048  TIP3      6250            0.0000000000
     68581      6650  TIP3      H1            -11.6022493054       41.9085198885       27.9907478042  TIP3      6250            0.0000000000
     68582      6650  TIP3      H2            -10.1773865643       41.7723110528       28.5135317112  TIP3      6250            0.0000000000
     68583      6651  TIP3      OH2           -15.8453262989       43.4837428234       26.5317514612  TIP3      6251            0.0000000000
     68584      6651  TIP3      H1            -16.7472891152       43.5924012156       26.1673880957  TIP3      6251            0.0000000000
     68585      6651  TIP3      H2            -15.5571243546       42.6349609001       26.1591816413  TIP3      6251            0.0000000000
     68586      6652  TIP3      OH2           -12.1987439320       43.5121949232       24.1821255706  TIP3      6252            0.0000000000
     68587      6652  TIP3      H1            -11.2621740909       43.5935820967       24.3703288585  TIP3      6252            0.0000000000
     68588      6652  TIP3      H2            -12.4503886186       44.1651306827       23.5110846857  TIP3      6252            0.0000000000
     68589      6653  TIP3      OH2            -6.2600018360       41.1149204355       30.9433520312  TIP3      6253            0.0000000000
     68590      6653  TIP3      H1             -6.9544980320       41.2132241871       31.6286918028  TIP3      6253            0.0000000000
     68591      6653  TIP3      H2             -6.7652237229       40.9201538605       30.1426855641  TIP3      6253            0.0000000000
     68592      6654  TIP3      OH2           -13.4887773573       44.6850011274       21.7776557933  TIP3      6254            0.0000000000
     68593      6654  TIP3      H1            -14.0600550920       44.2928964717       21.0688335966  TIP3      6254            0.0000000000
     68594      6654  TIP3      H2            -12.7033391014       44.8677921745       21.2831733801  TIP3      6254            0.0000000000
     68595      6655  TIP3      OH2           -15.3676677018       49.2547562103       36.8150180819  TIP3      6255            0.0000000000
     68596      6655  TIP3      H1            -14.6634749164       49.4927585263       37.4400760494  TIP3      6255            0.0000000000
     68597      6655  TIP3      H2            -16.1662128741       49.3970767458       37.3838729904  TIP3      6255            0.0000000000
     68598      6656  TIP3      OH2            -9.3746595918       44.6555191111       29.5663277131  TIP3      6256            0.0000000000
     68599      6656  TIP3      H1             -8.7833817590       44.1034804921       29.0457403130  TIP3      6256            0.0000000000
     68600      6656  TIP3      H2             -9.5126814327       44.1218735579       30.3635404389  TIP3      6256            0.0000000000
     68601      6657  TIP3      OH2           -14.3663642127       40.8028240903       26.0092725153  TIP3      6257            0.0000000000
     68602      6657  TIP3      H1            -14.6746613601       39.8794719199       25.9838762140  TIP3      6257            0.0000000000
     68603      6657  TIP3      H2            -13.5770667719       40.7682944018       25.4520926747  TIP3      6257            0.0000000000
     68604      6658  TIP3      OH2           -10.7334157929       43.0176170170       31.9887707922  TIP3      6258            0.0000000000
     68605      6658  TIP3      H1            -11.5751407061       43.4976968597       32.0978094389  TIP3      6258            0.0000000000
     68606      6658  TIP3      H2            -10.1946929005       43.3209015302       32.7432062713  TIP3      6258            0.0000000000
     68607      6659  TIP3      OH2           -10.1583000367       49.2124460951       23.6677106394  TIP3      6259            0.0000000000
     68608      6659  TIP3      H1            -10.9637546474       48.7451370449       23.3713035432  TIP3      6259            0.0000000000
     68609      6659  TIP3      H2            -10.3419669896       49.3349471480       24.6315996439  TIP3      6259            0.0000000000
     68610      6660  TIP3      OH2            -3.0077815348       48.3871322091       32.4879924580  TIP3      6260            0.0000000000
     68611      6660  TIP3      H1             -2.4029290813       48.8614701985       31.8935571175  TIP3      6260            0.0000000000
     68612      6660  TIP3      H2             -3.8561659137       48.4863427037       32.0061307601  TIP3      6260            0.0000000000
     68613      6661  TIP3      OH2            -8.7387366183       49.4293393349       34.9016753399  TIP3      6261            0.0000000000
     68614      6661  TIP3      H1             -8.9780822572       49.0610091557       35.7554465200  TIP3      6261            0.0000000000
     68615      6661  TIP3      H2             -8.8594317147       50.3847634240       35.0116508989  TIP3      6261            0.0000000000
     68616      6662  TIP3      OH2            -5.6084322260       43.9318580594       23.5669098667  TIP3      6262            0.0000000000
     68617      6662  TIP3      H1             -4.6828108970       43.7921349170       23.8703659336  TIP3      6262            0.0000000000
     68618      6662  TIP3      H2             -5.5022038733       44.7226777356       23.0004771095  TIP3      6262            0.0000000000
     68619      6663  TIP3      OH2           -15.0606320530       48.5745055027       29.4697735828  TIP3      6263            0.0000000000
     68620      6663  TIP3      H1            -14.3288933548       48.5316345761       28.8260528161  TIP3      6263            0.0000000000
     68621      6663  TIP3      H2            -14.9888356270       47.7216174712       29.9301498468  TIP3      6263            0.0000000000
     68622      6664  TIP3      OH2            -8.0578465125       50.6848144713       22.7172387700  TIP3      6264            0.0000000000
     68623      6664  TIP3      H1             -8.3698809550       51.5334194613       23.0924806318  TIP3      6264            0.0000000000
     68624      6664  TIP3      H2             -8.7865342410       50.0846016172       22.9244108117  TIP3      6264            0.0000000000
     68625      6665  TIP3      OH2           -18.0609095390       47.0163028703       34.7558678960  TIP3      6265            0.0000000000
     68626      6665  TIP3      H1            -17.8481943701       46.5754994988       35.6030169672  TIP3      6265            0.0000000000
     68627      6665  TIP3      H2            -18.6675560072       46.3881060701       34.3307761138  TIP3      6265            0.0000000000
     68628      6666  TIP3      OH2           -11.0313510854       46.5822555461       36.9436367882  TIP3      6266            0.0000000000
     68629      6666  TIP3      H1            -11.3455784328       46.2803521572       36.0879197401  TIP3      6266            0.0000000000
     68630      6666  TIP3      H2            -10.1016214880       46.2671668642       36.9668761481  TIP3      6266            0.0000000000
     68631      6667  TIP3      OH2            -6.3840900895       51.9090942532       34.8617832279  TIP3      6267            0.0000000000
     68632      6667  TIP3      H1             -7.3080638134       52.0877979223       34.6264226834  TIP3      6267            0.0000000000
     68633      6667  TIP3      H2             -6.3984645575       52.1620237429       35.8041961627  TIP3      6267            0.0000000000
     68634      6668  TIP3      OH2            -0.7073337117       49.9445752174       36.0890809001  TIP3      6268            0.0000000000
     68635      6668  TIP3      H1             -1.5879530932       50.1742300646       35.7047479208  TIP3      6268            0.0000000000
     68636      6668  TIP3      H2             -0.1380949827       49.9179813898       35.2962584632  TIP3      6268            0.0000000000
     68637      6669  TIP3      OH2            -5.2115081261       47.7396295156       30.7476386326  TIP3      6269            0.0000000000
     68638      6669  TIP3      H1             -6.1544694222       47.5031971794       30.6771766319  TIP3      6269            0.0000000000
     68639      6669  TIP3      H2             -4.7743825054       46.9555608153       30.3696661722  TIP3      6269            0.0000000000
     68640      6670  TIP3      OH2           -12.6805602818       52.0533376622       26.8685274655  TIP3      6270            0.0000000000
     68641      6670  TIP3      H1            -12.1660060635       52.8516826946       26.6573765907  TIP3      6270            0.0000000000
     68642      6670  TIP3      H2            -13.5606348609       52.2916781570       26.5483387370  TIP3      6270            0.0000000000
     68643      6671  TIP3      OH2           -11.2433525054       49.7087285803       26.4056958904  TIP3      6271            0.0000000000
     68644      6671  TIP3      H1            -11.5235558746       50.6454550912       26.4741458343  TIP3      6271            0.0000000000
     68645      6671  TIP3      H2            -12.0021650939       49.2627837536       26.8346159247  TIP3      6271            0.0000000000
     68646      6672  TIP3      OH2           -10.7872723201       53.8803318834       32.7679625945  TIP3      6272            0.0000000000
     68647      6672  TIP3      H1            -10.3731094387       54.7221029684       32.5162399690  TIP3      6272            0.0000000000
     68648      6672  TIP3      H2            -10.1977665418       53.5823946316       33.4815416694  TIP3      6272            0.0000000000
     68649      6673  TIP3      OH2           -12.5670427532       54.7192311126       25.9838477943  TIP3      6273            0.0000000000
     68650      6673  TIP3      H1            -13.5298710531       54.8636215693       26.0426094458  TIP3      6273            0.0000000000
     68651      6673  TIP3      H2            -12.2178323930       55.5731217210       26.3072531229  TIP3      6273            0.0000000000
     68652      6674  TIP3      OH2            -7.2450222141       49.9426340859       32.4321792151  TIP3      6274            0.0000000000
     68653      6674  TIP3      H1             -7.6102073088       49.7367221034       33.3057528826  TIP3      6274            0.0000000000
     68654      6674  TIP3      H2             -6.6158554645       49.2227307328       32.2564054345  TIP3      6274            0.0000000000
     68655      6675  TIP3      OH2            -4.5129254034       54.5282230643       34.9291395847  TIP3      6275            0.0000000000
     68656      6675  TIP3      H1             -5.1472481888       53.9743918279       34.4203442129  TIP3      6275            0.0000000000
     68657      6675  TIP3      H2             -4.2686452247       55.1898321958       34.2677629916  TIP3      6275            0.0000000000
     68658      6676  TIP3      OH2            -0.4829462646       55.3506629293       21.7766713474  TIP3      6276            0.0000000000
     68659      6676  TIP3      H1              0.2348753031       55.9566400391       21.5284462122  TIP3      6276            0.0000000000
     68660      6676  TIP3      H2             -1.1982877089       55.9650998839       22.0368263764  TIP3      6276            0.0000000000
     68661      6677  TIP3      OH2           -16.4066910634       41.7559839317       34.3102120953  TIP3      6277            0.0000000000
     68662      6677  TIP3      H1            -17.3175426362       42.0971787119       34.2652379713  TIP3      6277            0.0000000000
     68663      6677  TIP3      H2            -16.5211770794       40.8993060685       34.7510667736  TIP3      6277            0.0000000000
     68664      6678  TIP3      OH2            -4.1508307949       49.6117965714       23.7566070621  TIP3      6278            0.0000000000
     68665      6678  TIP3      H1             -4.4034417381       48.8344472422       24.2983104802  TIP3      6278            0.0000000000
     68666      6678  TIP3      H2             -3.2059279564       49.6714699712       23.9554106910  TIP3      6278            0.0000000000
     68667      6679  TIP3      OH2           -16.7770094106       53.5445175166       32.7563716383  TIP3      6279            0.0000000000
     68668      6679  TIP3      H1            -16.5209042865       52.6098289385       32.7144119807  TIP3      6279            0.0000000000
     68669      6679  TIP3      H2            -16.5023314132       53.8333685014       33.6177071155  TIP3      6279            0.0000000000
     68670      6680  TIP3      OH2           -15.4947391209       48.8387115963       22.9477076095  TIP3      6280            0.0000000000
     68671      6680  TIP3      H1            -16.2054278438       49.2051020145       23.5150927855  TIP3      6280            0.0000000000
     68672      6680  TIP3      H2            -14.9947361894       49.6280601935       22.6979471614  TIP3      6280            0.0000000000
     68673      6681  TIP3      OH2            -7.6833059645       41.5142720797       33.2242686262  TIP3      6281            0.0000000000
     68674      6681  TIP3      H1             -6.9768281381       41.5714160395       33.8795429439  TIP3      6281            0.0000000000
     68675      6681  TIP3      H2             -8.0642447551       40.6308350804       33.4040608376  TIP3      6281            0.0000000000
     68676      6682  TIP3      OH2            -6.9221164613       41.1557297110       24.3072146199  TIP3      6282            0.0000000000
     68677      6682  TIP3      H1             -6.6643115656       41.6236752512       23.5158997692  TIP3      6282            0.0000000000
     68678      6682  TIP3      H2             -6.3360228957       41.5318608845       24.9875869949  TIP3      6282            0.0000000000
     68679      6683  TIP3      OH2            -9.2262478271       53.2478639165       23.1543858183  TIP3      6283            0.0000000000
     68680      6683  TIP3      H1            -10.0508763172       53.7694857791       23.2334326848  TIP3      6283            0.0000000000
     68681      6683  TIP3      H2             -8.7073699226       53.7887655830       22.5479306474  TIP3      6283            0.0000000000
     68682      6684  TIP3      OH2            -9.7200315103       42.9494690777       25.1359619785  TIP3      6284            0.0000000000
     68683      6684  TIP3      H1             -8.8498215021       43.3469125430       25.2369953329  TIP3      6284            0.0000000000
     68684      6684  TIP3      H2             -9.9584145716       42.7004757829       26.0702098434  TIP3      6284            0.0000000000
     68685      6685  TIP3      OH2            -9.1588692667       43.8718242809       34.3363690294  TIP3      6285            0.0000000000
     68686      6685  TIP3      H1             -9.0511469645       44.4315312820       35.1230431004  TIP3      6285            0.0000000000
     68687      6685  TIP3      H2             -8.5016161734       43.1673628564       34.4449997899  TIP3      6285            0.0000000000
     68688      6686  TIP3      OH2            -8.8351782348       39.9302740517       26.0700648310  TIP3      6286            0.0000000000
     68689      6686  TIP3      H1             -9.1659917155       40.5643068745       26.7301142225  TIP3      6286            0.0000000000
     68690      6686  TIP3      H2             -8.1481595391       40.4624090361       25.6092660642  TIP3      6286            0.0000000000
     68691      6687  TIP3      OH2           -11.8807092668       54.3138412868       23.1679139923  TIP3      6287            0.0000000000
     68692      6687  TIP3      H1            -11.7444713566       55.1188210927       22.6519518429  TIP3      6287            0.0000000000
     68693      6687  TIP3      H2            -12.1067202614       54.6298089507       24.0611617503  TIP3      6287            0.0000000000
     68694      6688  TIP3      OH2           -13.1717411695       41.0219748507       22.7829265309  TIP3      6288            0.0000000000
     68695      6688  TIP3      H1            -13.2443468019       41.9156431425       23.1440183572  TIP3      6288            0.0000000000
     68696      6688  TIP3      H2            -12.2674688401       40.7568111529       23.0130057400  TIP3      6288            0.0000000000
     68697      6689  TIP3      OH2            -2.9494520950       41.7526195015       35.1885592975  TIP3      6289            0.0000000000
     68698      6689  TIP3      H1             -3.8893129097       42.0412083866       35.0705459143  TIP3      6289            0.0000000000
     68699      6689  TIP3      H2             -2.6453258906       41.7514589039       34.2677999154  TIP3      6289            0.0000000000
     68700      6690  TIP3      OH2            -4.3587892172       45.5304780895       29.2401168963  TIP3      6290            0.0000000000
     68701      6690  TIP3      H1             -5.1707091134       45.0938856720       28.9325629190  TIP3      6290            0.0000000000
     68702      6690  TIP3      H2             -3.8991019118       44.8271946911       29.7509721867  TIP3      6290            0.0000000000
     68703      6691  TIP3      OH2           -14.9071425345       51.4133954229       21.8441347376  TIP3      6291            0.0000000000
     68704      6691  TIP3      H1            -14.3247369338       52.1544887006       22.1041139889  TIP3      6291            0.0000000000
     68705      6691  TIP3      H2            -14.4323460945       51.0402764015       21.1017379493  TIP3      6291            0.0000000000
     68706      6692  TIP3      OH2            -3.2900296191       54.7371273271       30.9014803301  TIP3      6292            0.0000000000
     68707      6692  TIP3      H1             -3.4120319405       55.4522675230       30.2282760245  TIP3      6292            0.0000000000
     68708      6692  TIP3      H2             -2.3353597390       54.8533629991       31.0760838757  TIP3      6292            0.0000000000
     68709      6693  TIP3      OH2           -15.7809025268       38.9063807679       29.6504260284  TIP3      6293            0.0000000000
     68710      6693  TIP3      H1            -16.0079237386       38.9411500352       28.6942001390  TIP3      6293            0.0000000000
     68711      6693  TIP3      H2            -16.2230137697       38.0798378888       29.9297637995  TIP3      6293            0.0000000000
     68712      6694  TIP3      OH2           -16.8535553101       52.8275771970       25.8061888949  TIP3      6294            0.0000000000
     68713      6694  TIP3      H1            -17.6930095479       53.3149381716       25.8047325256  TIP3      6294            0.0000000000
     68714      6694  TIP3      H2            -16.3260382472       53.3264785158       25.1672878548  TIP3      6294            0.0000000000
     68715      6695  TIP3      OH2           -17.5717066479       55.4897181639       37.1186384417  TIP3      6295            0.0000000000
     68716      6695  TIP3      H1            -17.0277547523       55.2825376421       37.9144301595  TIP3      6295            0.0000000000
     68717      6695  TIP3      H2            -18.1242597306       54.7019012578       36.9925208909  TIP3      6295            0.0000000000
     68718      6696  TIP3      OH2           -12.9696965061       54.3650911973       38.7435955126  TIP3      6296            0.0000000000
     68719      6696  TIP3      H1            -12.1818276610       53.8965212210       39.0617399837  TIP3      6296            0.0000000000
     68720      6696  TIP3      H2            -12.9676781306       54.1266331742       37.7990683690  TIP3      6296            0.0000000000
     68721      6697  TIP3      OH2            -6.4170004221       52.7703446717       37.4561334001  TIP3      6297            0.0000000000
     68722      6697  TIP3      H1             -6.7465065901       51.8860917690       37.7175322281  TIP3      6297            0.0000000000
     68723      6697  TIP3      H2             -5.6612299422       52.8869542118       38.0614719010  TIP3      6297            0.0000000000
     68724      6698  TIP3      OH2           -17.6744477075       49.2623859472       38.0790314012  TIP3      6298            0.0000000000
     68725      6698  TIP3      H1            -17.5225716693       48.3416330937       37.7826393204  TIP3      6298            0.0000000000
     68726      6698  TIP3      H2            -18.4478853861       49.5195658164       37.5558289401  TIP3      6298            0.0000000000
     68727      6699  TIP3      OH2           -10.9882718953       49.2268973244       37.4778685849  TIP3      6299            0.0000000000
     68728      6699  TIP3      H1            -11.3463087965       49.5391882756       36.6434896878  TIP3      6299            0.0000000000
     68729      6699  TIP3      H2            -10.8757490719       48.2567146354       37.4216246839  TIP3      6299            0.0000000000
     68730      6700  TIP3      OH2            -8.0307064256       50.6621019535       19.9248402164  TIP3      6300            0.0000000000
     68731      6700  TIP3      H1             -8.2001308104       50.8168796869       20.8626223634  TIP3      6300            0.0000000000
     68732      6700  TIP3      H2             -8.1262585644       49.7136214113       19.7945073705  TIP3      6300            0.0000000000
     68733      6701  TIP3      OH2            -5.2835206273       49.1143867115       34.8848985931  TIP3      6301            0.0000000000
     68734      6701  TIP3      H1             -4.5165091928       49.7209539854       34.7846767226  TIP3      6301            0.0000000000
     68735      6701  TIP3      H2             -6.0079747694       49.7493171272       34.9352205524  TIP3      6301            0.0000000000
     68736      6702  TIP3      OH2           -16.8187727142       46.4741966328       37.4839826907  TIP3      6302            0.0000000000
     68737      6702  TIP3      H1            -16.4054431541       45.6060017624       37.3828777471  TIP3      6302            0.0000000000
     68738      6702  TIP3      H2            -17.0626614514       46.4833887138       38.4276377309  TIP3      6302            0.0000000000
     68739      6703  TIP3      OH2           -12.1110749124       47.5765515871       22.5280229771  TIP3      6303            0.0000000000
     68740      6703  TIP3      H1            -12.6573666545       47.1057446534       23.1900473604  TIP3      6303            0.0000000000
     68741      6703  TIP3      H2            -11.9289283234       46.9076247335       21.8670386748  TIP3      6303            0.0000000000
     68742      6704  TIP3      OH2           -12.8552453687       45.4776754166       34.8739776758  TIP3      6304            0.0000000000
     68743      6704  TIP3      H1            -13.5214974197       46.1360231811       35.1308811211  TIP3      6304            0.0000000000
     68744      6704  TIP3      H2            -12.5413343376       45.7668158762       34.0085084015  TIP3      6304            0.0000000000
     68745      6705  TIP3      OH2            -7.8494416738       47.9611755308       38.1678848331  TIP3      6305            0.0000000000
     68746      6705  TIP3      H1             -6.8856764348       48.0046271715       38.0988661442  TIP3      6305            0.0000000000
     68747      6705  TIP3      H2             -8.0052796273       47.2191677937       38.7745945205  TIP3      6305            0.0000000000
     68748      6706  TIP3      OH2            -1.7372744604       48.1762399387       20.1929342387  TIP3      6306            0.0000000000
     68749      6706  TIP3      H1             -1.9947698015       47.7348738495       19.3809023130  TIP3      6306            0.0000000000
     68750      6706  TIP3      H2             -1.6639066345       49.1104217797       19.9758222775  TIP3      6306            0.0000000000
     68751      6707  TIP3      OH2           -12.5096519407       42.8227542307       35.9317873367  TIP3      6307            0.0000000000
     68752      6707  TIP3      H1            -12.3842854582       42.0887597478       35.3067537579  TIP3      6307            0.0000000000
     68753      6707  TIP3      H2            -12.5385650721       43.6077694488       35.3629732035  TIP3      6307            0.0000000000
     68754      6708  TIP3      OH2           -12.1065476075       41.1856153168       33.4542468270  TIP3      6308            0.0000000000
     68755      6708  TIP3      H1            -11.5821883051       41.6477094652       32.7611836458  TIP3      6308            0.0000000000
     68756      6708  TIP3      H2            -12.9875728099       41.0916406663       33.0233937720  TIP3      6308            0.0000000000
     68757      6709  TIP3      OH2           -10.5074078648       46.5500909765       33.6413147808  TIP3      6309            0.0000000000
     68758      6709  TIP3      H1             -9.7324950790       46.4279182066       33.0791262506  TIP3      6309            0.0000000000
     68759      6709  TIP3      H2            -10.8256511890       47.3574006741       33.2651240148  TIP3      6309            0.0000000000
     68760      6710  TIP3      OH2            -6.1421725674       44.4360383523       38.6903200825  TIP3      6310            0.0000000000
     68761      6710  TIP3      H1             -5.9298860598       43.4966446526       38.5898677982  TIP3      6310            0.0000000000
     68762      6710  TIP3      H2             -5.2695249654       44.8603066076       38.6847245070  TIP3      6310            0.0000000000
     68763      6711  TIP3      OH2            -4.8198199191       47.2197119524       36.8181129978  TIP3      6311            0.0000000000
     68764      6711  TIP3      H1             -5.0770543617       47.9451032519       36.2025530504  TIP3      6311            0.0000000000
     68765      6711  TIP3      H2             -3.8619460709       47.1743969329       36.6195008484  TIP3      6311            0.0000000000
     68766      6712  TIP3      OH2           -14.0433223530       44.0407792964       37.8613884117  TIP3      6312            0.0000000000
     68767      6712  TIP3      H1            -14.8192900474       43.4805294925       37.6418187723  TIP3      6312            0.0000000000
     68768      6712  TIP3      H2            -13.3841619465       43.6902537261       37.2327045082  TIP3      6312            0.0000000000
     68769      6713  TIP3      OH2           -11.3076930942       38.6262247887       33.8754368900  TIP3      6313            0.0000000000
     68770      6713  TIP3      H1            -11.4439814015       39.5955762780       33.7583462717  TIP3      6313            0.0000000000
     68771      6713  TIP3      H2            -12.0638390830       38.2711499270       33.3729026248  TIP3      6313            0.0000000000
     68772      6714  TIP3      OH2           -10.0378242449       42.9551493616       37.4502854453  TIP3      6314            0.0000000000
     68773      6714  TIP3      H1            -10.3171819062       42.7376285781       38.3574827711  TIP3      6314            0.0000000000
     68774      6714  TIP3      H2            -10.8357018275       42.7594153374       36.9203561594  TIP3      6314            0.0000000000
     68775      6715  TIP3      OH2            -7.3235488930       42.0905498713       36.5144905066  TIP3      6315            0.0000000000
     68776      6715  TIP3      H1             -8.2865469813       42.1334454760       36.6543167785  TIP3      6315            0.0000000000
     68777      6715  TIP3      H2             -7.0341861367       41.4617409392       37.1958403747  TIP3      6315            0.0000000000
     68778      6716  TIP3      OH2            -5.7210312036       40.7269831903       38.4881145254  TIP3      6316            0.0000000000
     68779      6716  TIP3      H1             -5.7923883630       39.7560203973       38.5032614983  TIP3      6316            0.0000000000
     68780      6716  TIP3      H2             -6.0157944912       41.0068571438       39.3847698025  TIP3      6316            0.0000000000
     68781      6717  TIP3      OH2           -15.9081504918       41.9686134786       37.5636840986  TIP3      6317            0.0000000000
     68782      6717  TIP3      H1            -15.6781356188       41.2355655625       36.9603081510  TIP3      6317            0.0000000000
     68783      6717  TIP3      H2            -16.0037520213       41.5142716991       38.4250064375  TIP3      6317            0.0000000000
     68784      6718  TIP3      OH2           -11.0995152092       37.9726246006       36.5540326918  TIP3      6318            0.0000000000
     68785      6718  TIP3      H1            -10.3886660340       37.2964963380       36.5223550272  TIP3      6318            0.0000000000
     68786      6718  TIP3      H2            -11.1950319937       38.1872374386       35.6071204748  TIP3      6318            0.0000000000
     68787      6719  TIP3      OH2           -10.7373703175       39.6190881552       38.6256864411  TIP3      6319            0.0000000000
     68788      6719  TIP3      H1            -10.8840113121       39.1279917507       37.7796430333  TIP3      6319            0.0000000000
     68789      6719  TIP3      H2            -11.3358840682       40.3827163532       38.5353475688  TIP3      6319            0.0000000000
     68790      6720  TIP3      OH2           -17.6353282999       51.1319936288       21.2642447037  TIP3      6320            0.0000000000
     68791      6720  TIP3      H1            -16.6924665806       51.2261029051       21.5291738460  TIP3      6320            0.0000000000
     68792      6720  TIP3      H2            -17.6123262254       50.4688033874       20.5827442974  TIP3      6320            0.0000000000
     68793      6721  TIP3      OH2           -18.0935958992       54.6167366016       28.1222248604  TIP3      6321            0.0000000000
     68794      6721  TIP3      H1            -18.4516700155       53.7395914777       28.3153784247  TIP3      6321            0.0000000000
     68795      6721  TIP3      H2            -17.8952586196       54.9626822600       29.0092257902  TIP3      6321            0.0000000000
     68796      6722  TIP3      OH2            -0.5677725111       55.4254005396       31.0985777627  TIP3      6322            0.0000000000
     68797      6722  TIP3      H1             -0.5603905051       55.6064007198       32.0535734251  TIP3      6322            0.0000000000
     68798      6722  TIP3      H2              0.1375468991       55.9950112710       30.7774586182  TIP3      6322            0.0000000000
     68799      6723  TIP3      OH2            -0.9854852354       54.9942421686       34.0214063898  TIP3      6323            0.0000000000
     68800      6723  TIP3      H1             -1.4752396487       54.2377392048       33.6522292296  TIP3      6323            0.0000000000
     68801      6723  TIP3      H2             -0.4586389015       54.5793311502       34.7229761419  TIP3      6323            0.0000000000
     68802      6724  TIP3      OH2            -2.5392040636       50.7535187807       38.6739346838  TIP3      6324            0.0000000000
     68803      6724  TIP3      H1             -3.4241666142       50.6949559947       39.0754245778  TIP3      6324            0.0000000000
     68804      6724  TIP3      H2             -2.1647777370       51.5497560228       39.1275033704  TIP3      6324            0.0000000000
     68805      6725  TIP3      OH2            -1.2416176136       49.0580794708       24.1515563800  TIP3      6325            0.0000000000
     68806      6725  TIP3      H1             -0.3759156620       49.4579454274       24.3245502492  TIP3      6325            0.0000000000
     68807      6725  TIP3      H2             -1.2357668276       48.3152454089       24.8030989960  TIP3      6325            0.0000000000
     68808      6726  TIP3      OH2            -0.8572243395       47.1079075281       25.9994766761  TIP3      6326            0.0000000000
     68809      6726  TIP3      H1             -1.6013900844       46.6226882870       26.4147845961  TIP3      6326            0.0000000000
     68810      6726  TIP3      H2             -0.2661300096       47.2957022600       26.7581447998  TIP3      6326            0.0000000000
     68811      6727  TIP3      OH2            -1.1086928007       49.8567041237       30.9805283962  TIP3      6327            0.0000000000
     68812      6727  TIP3      H1             -0.2674621581       49.4913534980       30.6498388290  TIP3      6327            0.0000000000
     68813      6727  TIP3      H2             -0.9708537463       50.8182084795       30.8305965852  TIP3      6327            0.0000000000
     68814      6728  TIP3      OH2            -2.5781652917       52.7432528645       33.2823973730  TIP3      6328            0.0000000000
     68815      6728  TIP3      H1             -3.2568502434       53.1019917380       33.8691104893  TIP3      6328            0.0000000000
     68816      6728  TIP3      H2             -3.1219449824       52.3273482477       32.5758027888  TIP3      6328            0.0000000000
     68817      6729  TIP3      OH2            -0.5602571582       46.9981405335       22.4009671382  TIP3      6329            0.0000000000
     68818      6729  TIP3      H1             -1.1208079530       47.3439648265       21.6761980241  TIP3      6329            0.0000000000
     68819      6729  TIP3      H2             -0.6370020943       47.6766286723       23.0833783502  TIP3      6329            0.0000000000
     68820      6730  TIP3      OH2            -3.0492734140       45.6197419201       26.5655266190  TIP3      6330            0.0000000000
     68821      6730  TIP3      H1             -3.2153521592       44.6661385929       26.5563814361  TIP3      6330            0.0000000000
     68822      6730  TIP3      H2             -3.4068436256       45.8759558676       27.4336899908  TIP3      6330            0.0000000000
     68823      6731  TIP3      OH2           -18.0417499183       47.7048640284       30.6162340150  TIP3      6331            0.0000000000
     68824      6731  TIP3      H1            -17.8457241267       47.6176902999       29.6562219900  TIP3      6331            0.0000000000
     68825      6731  TIP3      H2            -17.1586150945       47.5545033246       31.0003286468  TIP3      6331            0.0000000000
     68826      6732  TIP3      OH2            -2.2119402771       47.5883409528       36.2414534650  TIP3      6332            0.0000000000
     68827      6732  TIP3      H1             -1.6013479179       46.8389663111       36.4017148281  TIP3      6332            0.0000000000
     68828      6732  TIP3      H2             -1.6188221714       48.3659972980       36.2610851089  TIP3      6332            0.0000000000
     68829      6733  TIP3      OH2            -0.6999205820       45.4921106507       36.9171703519  TIP3      6333            0.0000000000
     68830      6733  TIP3      H1             -1.5762706017       45.0889157733       36.7387129095  TIP3      6333            0.0000000000
     68831      6733  TIP3      H2             -0.1109258837       44.7260166074       36.8287346235  TIP3      6333            0.0000000000
     68832      6734  TIP3      OH2            -3.3691255709       43.2060244225       25.0592277489  TIP3      6334            0.0000000000
     68833      6734  TIP3      H1             -3.0678225499       42.2717431843       25.1517816060  TIP3      6334            0.0000000000
     68834      6734  TIP3      H2             -2.5949458113       43.6137707094       24.6520487486  TIP3      6334            0.0000000000
     68835      6735  TIP3      OH2            -2.7520793557       43.7545097714       30.4709324316  TIP3      6335            0.0000000000
     68836      6735  TIP3      H1             -1.7948066504       43.9914905843       30.4527532234  TIP3      6335            0.0000000000
     68837      6735  TIP3      H2             -2.9564385329       43.8893871855       31.4096680017  TIP3      6335            0.0000000000
     68838      6736  TIP3      OH2            -2.6910393674       44.4834729513       33.2540390836  TIP3      6336            0.0000000000
     68839      6736  TIP3      H1             -3.5606785989       44.7788236270       33.6029765283  TIP3      6336            0.0000000000
     68840      6736  TIP3      H2             -2.2576295635       45.3435817827       33.0370844386  TIP3      6336            0.0000000000
     68841      6737  TIP3      OH2           -18.4380055832       42.9922619309       36.7486818640  TIP3      6337            0.0000000000
     68842      6737  TIP3      H1            -17.4997362230       42.8249571572       36.9694190825  TIP3      6337            0.0000000000
     68843      6737  TIP3      H2            -18.8818244863       42.1927036533       37.1037042439  TIP3      6337            0.0000000000
     68844      6738  TIP3      OH2            -0.4208970758       38.5046579453       38.6023456483  TIP3      6338            0.0000000000
     68845      6738  TIP3      H1             -0.0683694030       37.8456105620       37.9883352599  TIP3      6338            0.0000000000
     68846      6738  TIP3      H2             -0.2864931023       39.3410442966       38.1247758621  TIP3      6338            0.0000000000
     68847      6739  TIP3      OH2            -2.7404072888       40.4850459875       25.0974217925  TIP3      6339            0.0000000000
     68848      6739  TIP3      H1             -2.5358141796       40.0128301423       25.9239120650  TIP3      6339            0.0000000000
     68849      6739  TIP3      H2             -3.3344808356       39.8615127619       24.6197352822  TIP3      6339            0.0000000000
     68850      6740  TIP3      OH2           -17.2260919117       41.2878483000       29.6216919754  TIP3      6340            0.0000000000
     68851      6740  TIP3      H1            -16.7612712685       40.4778407649       29.9153387131  TIP3      6340            0.0000000000
     68852      6740  TIP3      H2            -16.7199404262       41.9953160333       30.0439637219  TIP3      6340            0.0000000000
     68853      6741  TIP3      OH2           -18.9347113794       44.2774257620       30.6896882926  TIP3      6341            0.0000000000
     68854      6741  TIP3      H1            -18.3930870209       44.0579198930       29.9023256291  TIP3      6341            0.0000000000
     68855      6741  TIP3      H2            -18.5155612858       45.1105164019       30.9560236378  TIP3      6341            0.0000000000
     68856      6742  TIP3      OH2            -0.8869427816       40.6171097004       36.9668594782  TIP3      6342            0.0000000000
     68857      6742  TIP3      H1             -1.8312563681       40.8816862731       36.9123004076  TIP3      6342            0.0000000000
     68858      6742  TIP3      H2             -0.8166846612       40.0768577633       36.1629317109  TIP3      6342            0.0000000000
     68859      6743  TIP3      OH2            -0.8434923142       40.5064501717       21.6815425065  TIP3      6343            0.0000000000
     68860      6743  TIP3      H1             -0.5038313729       39.8210722174       21.1001735717  TIP3      6343            0.0000000000
     68861      6743  TIP3      H2             -0.2074653829       41.2262415743       21.6570937948  TIP3      6343            0.0000000000
     68862      6744  TIP3      OH2           -18.6003477064       40.5130463304       24.7108466715  TIP3      6344            0.0000000000
     68863      6744  TIP3      H1            -19.5286237413       40.7636456947       24.6280232604  TIP3      6344            0.0000000000
     68864      6744  TIP3      H2            -18.1356702413       41.0438011885       24.0456877153  TIP3      6344            0.0000000000
     68865      6745  TIP3      OH2            -3.8368952806       55.5120861072       26.6804180288  TIP3      6345            0.0000000000
     68866      6745  TIP3      H1             -3.1467687718       55.1742647687       26.0873463446  TIP3      6345            0.0000000000
     68867      6745  TIP3      H2             -3.3164789612       56.0028937521       27.3430152645  TIP3      6345            0.0000000000
     68868      6746  TIP3      OH2           -18.6201873863       39.2476835567       33.0714926984  TIP3      6346            0.0000000000
     68869      6746  TIP3      H1            -19.3005615994       39.0265987199       33.7305526761  TIP3      6346            0.0000000000
     68870      6746  TIP3      H2            -19.0835912936       39.9005111864       32.5040295345  TIP3      6346            0.0000000000
     68871      6747  TIP3      OH2           -16.3727563551       52.1475725550       37.3671556981  TIP3      6347            0.0000000000
     68872      6747  TIP3      H1            -17.1830152503       52.3506047405       36.8982316660  TIP3      6347            0.0000000000
     68873      6747  TIP3      H2            -16.6686925927       52.3449320024       38.2617516893  TIP3      6347            0.0000000000
     68874      6748  TIP3      OH2           -13.5040099860       53.4014846384       33.5064572331  TIP3      6348            0.0000000000
     68875      6748  TIP3      H1            -13.8655405310       54.2486419276       33.2042899342  TIP3      6348            0.0000000000
     68876      6748  TIP3      H2            -12.5778445942       53.5113079228       33.1799806334  TIP3      6348            0.0000000000
     68877      6749  TIP3      OH2            -9.1645532826       54.8120998805       36.4135173801  TIP3      6349            0.0000000000
     68878      6749  TIP3      H1             -8.9961505204       54.4929759810       37.3366074786  TIP3      6349            0.0000000000
     68879      6749  TIP3      H2             -8.2913894560       55.1389001959       36.1381509845  TIP3      6349            0.0000000000
     68880      6750  TIP3      OH2            -6.8619581893       56.1061382276       35.6938724185  TIP3      6350            0.0000000000
     68881      6750  TIP3      H1             -6.1424184478       55.4967223552       35.4605729332  TIP3      6350            0.0000000000
     68882      6750  TIP3      H2             -6.5047565333       56.5069642774       36.5166719761  TIP3      6350            0.0000000000
     68883      6751  TIP3      OH2            -1.8853188442       38.7157138911       34.7951232816  TIP3      6351            0.0000000000
     68884      6751  TIP3      H1             -2.7154077625       39.0174699735       34.3814565134  TIP3      6351            0.0000000000
     68885      6751  TIP3      H2             -1.6884506815       37.9195255617       34.2503590266  TIP3      6351            0.0000000000
     68886      6752  TIP3      OH2           -13.6289484353      -56.6080553698       32.6079274411  TIP3      6352            0.0000000000
     68887      6752  TIP3      H1            -14.4996649822      -56.4573367283       32.9636158192  TIP3      6352            0.0000000000
     68888      6752  TIP3      H2            -13.6580252776      -56.0309747345       31.7991230452  TIP3      6352            0.0000000000
     68889      6753  TIP3      OH2            -8.8993821830      -56.7023688269       31.7292817207  TIP3      6353            0.0000000000
     68890      6753  TIP3      H1             -9.3632075788      -56.1494950784       31.0777504575  TIP3      6353            0.0000000000
     68891      6753  TIP3      H2             -8.7472445304      -56.0625372751       32.4662988509  TIP3      6353            0.0000000000
     68892      6754  TIP3      OH2            -6.5852903933       55.0063527554       32.7154541769  TIP3      6354            0.0000000000
     68893      6754  TIP3      H1             -7.4764475440       55.2251653378       32.4027111051  TIP3      6354            0.0000000000
     68894      6754  TIP3      H2             -6.1537467982       55.8691168563       32.6191221313  TIP3      6354            0.0000000000
     68895      6755  TIP3      OH2           -16.6619774612       55.2666555646       30.4469907394  TIP3      6355            0.0000000000
     68896      6755  TIP3      H1            -16.6933679061       54.8507155338       31.3228754379  TIP3      6355            0.0000000000
     68897      6755  TIP3      H2            -15.8314046565       54.9460973667       30.0390834061  TIP3      6355            0.0000000000
     68898      6756  TIP3      OH2           -14.5460375765       54.0289984446       29.0914008495  TIP3      6356            0.0000000000
     68899      6756  TIP3      H1            -14.7266501689       53.0895111598       29.2780581982  TIP3      6356            0.0000000000
     68900      6756  TIP3      H2            -13.6876275385       54.1484009964       29.5540102219  TIP3      6356            0.0000000000
     68901      6757  TIP3      OH2           -11.9668282928       54.4897060217       29.9578273252  TIP3      6357            0.0000000000
     68902      6757  TIP3      H1            -11.7690056166       53.5781436040       29.6797022372  TIP3      6357            0.0000000000
     68903      6757  TIP3      H2            -11.9096310709       54.4337053960       30.9182847774  TIP3      6357            0.0000000000
     68904      6758  TIP3      OH2            -8.4783379954       40.1505434215       29.0968001607  TIP3      6358            0.0000000000
     68905      6758  TIP3      H1             -9.1539798412       39.5049620664       29.3574324817  TIP3      6358            0.0000000000
     68906      6758  TIP3      H2             -7.9184401908       39.6462965217       28.4944665708  TIP3      6358            0.0000000000
     68907      6759  TIP3      OH2            -3.3419617886       38.2249554337       29.1989064287  TIP3      6359            0.0000000000
     68908      6759  TIP3      H1             -2.7230953381       38.8019521579       28.6819018957  TIP3      6359            0.0000000000
     68909      6759  TIP3      H2             -4.2182571316       38.5698408150       28.9492712875  TIP3      6359            0.0000000000
     68910      6760  TIP3      OH2            -1.6495696462       39.4113793322       27.5090849773  TIP3      6360            0.0000000000
     68911      6760  TIP3      H1             -0.9833040899       38.8735719000       27.0171317871  TIP3      6360            0.0000000000
     68912      6760  TIP3      H2             -1.1975993942       40.2794193399       27.5645778012  TIP3      6360            0.0000000000
     68913      6761  TIP3      OH2           -16.1208882113       38.7886469153       26.9272792143  TIP3      6361            0.0000000000
     68914      6761  TIP3      H1            -16.9177906316       38.5536277753       26.4197010726  TIP3      6361            0.0000000000
     68915      6761  TIP3      H2            -15.6272281261       37.9500766912       26.9091477887  TIP3      6361            0.0000000000
     68916      6762  TIP3      OH2           -11.5958711975       38.6914738718       26.7218654018  TIP3      6362            0.0000000000
     68917      6762  TIP3      H1            -10.7071988308       39.0889431281       26.6917768194  TIP3      6362            0.0000000000
     68918      6762  TIP3      H2            -11.6899278969       38.4921224626       27.6555983578  TIP3      6362            0.0000000000
     68919      6763  TIP3      OH2            -5.9761251830       38.7360817359       28.3719479027  TIP3      6363            0.0000000000
     68920      6763  TIP3      H1             -5.9465531111       38.8222776773       27.4139343938  TIP3      6363            0.0000000000
     68921      6763  TIP3      H2             -6.3024817729       37.8146996123       28.4982114946  TIP3      6363            0.0000000000
     68922      6764  TIP3      OH2            -4.6668744706       38.7633832997       24.0497295087  TIP3      6364            0.0000000000
     68923      6764  TIP3      H1             -5.3893040596       39.3704146194       23.8644173103  TIP3      6364            0.0000000000
     68924      6764  TIP3      H2             -5.1137775454       37.9025016093       24.2154878929  TIP3      6364            0.0000000000
     68925      6765  TIP3      OH2           -17.4081369914       54.4959509847       23.6456687064  TIP3      6365            0.0000000000
     68926      6765  TIP3      H1            -18.1058899433       54.4873855522       22.9606588305  TIP3      6365            0.0000000000
     68927      6765  TIP3      H2            -17.4120976311       55.4416660290       23.8676426372  TIP3      6365            0.0000000000
     68928      6766  TIP3      OH2           -15.4772364183       40.4458654591       21.1831991670  TIP3      6366            0.0000000000
     68929      6766  TIP3      H1            -14.9449192848       39.8595991182       20.6279810163  TIP3      6366            0.0000000000
     68930      6766  TIP3      H2            -14.8251038041       40.7929020050       21.8109396655  TIP3      6366            0.0000000000
     68931      6767  TIP3      OH2           -10.4467945259       40.7746886878       23.5898291590  TIP3      6367            0.0000000000
     68932      6767  TIP3      H1            -10.2411027803       40.1408433307       24.3024864444  TIP3      6367            0.0000000000
     68933      6767  TIP3      H2            -10.4646975006       41.5967447525       24.0954708156  TIP3      6367            0.0000000000
     68934      6768  TIP3      OH2            -8.5606601822       55.7373508755       22.0175297497  TIP3      6368            0.0000000000
     68935      6768  TIP3      H1             -7.6737684549       56.0926130931       21.8135204348  TIP3      6368            0.0000000000
     68936      6768  TIP3      H2             -8.7916852002       55.3054911013       21.1885501747  TIP3      6368            0.0000000000
     68937      6769  TIP3      OH2            -1.8464015383       55.2654517781       24.7142495748  TIP3      6369            0.0000000000
     68938      6769  TIP3      H1             -2.0322217141       54.5371291901       24.1300604800  TIP3      6369            0.0000000000
     68939      6769  TIP3      H2             -1.8890461850       56.0481828542       24.1157941350  TIP3      6369            0.0000000000
     68940      6770  TIP3      OH2           -16.2162720912       39.3125511577       36.4085328920  TIP3      6370            0.0000000000
     68941      6770  TIP3      H1            -16.5726854784       38.5210122293       36.8560226834  TIP3      6370            0.0000000000
     68942      6770  TIP3      H2            -15.2867480211       39.3010850593       36.7450847938  TIP3      6370            0.0000000000
     68943      6771  TIP3      OH2           -14.2150146237       38.6864574287       38.0009141053  TIP3      6371            0.0000000000
     68944      6771  TIP3      H1            -13.3188099934       38.3546594632       37.7877133085  TIP3      6371            0.0000000000
     68945      6771  TIP3      H2            -14.5975313847       37.8962960804       38.4377070482  TIP3      6371            0.0000000000
     68946      6772  TIP3      OH2           -15.6087589075       55.4472440888       20.6485259514  TIP3      6372            0.0000000000
     68947      6772  TIP3      H1            -15.8651327874       55.7347014058       21.5329787210  TIP3      6372            0.0000000000
     68948      6772  TIP3      H2            -14.8130372009       54.9051106711       20.7999827002  TIP3      6372            0.0000000000
     68949      6773  TIP3      OH2            -5.8117590109       37.9909478799       38.1641617656  TIP3      6373            0.0000000000
     68950      6773  TIP3      H1             -5.7136295389       37.5305168049       39.0195219676  TIP3      6373            0.0000000000
     68951      6773  TIP3      H2             -4.8953152653       37.9771945337       37.8195166377  TIP3      6373            0.0000000000
     68952      6774  TIP3      OH2            -2.6144481441       54.0437722371       36.8589971349  TIP3      6374            0.0000000000
     68953      6774  TIP3      H1             -3.4094010214       53.8783421201       36.3074280109  TIP3      6374            0.0000000000
     68954      6774  TIP3      H2             -2.6923488083       54.9869588160       37.0451786298  TIP3      6374            0.0000000000
     68955      6775  TIP3      OH2            11.8056090425       47.9183666676       26.8606023642  TIP3      6375            0.0000000000
     68956      6775  TIP3      H1             11.8529777481       48.8907725582       26.7465940999  TIP3      6375            0.0000000000
     68957      6775  TIP3      H2             11.1318304347       47.6742682546       26.2065257599  TIP3      6375            0.0000000000
     68958      6776  TIP3      OH2            10.7023607400       47.1905830277       30.3063360800  TIP3      6376            0.0000000000
     68959      6776  TIP3      H1             10.6787549004       46.5312036431       31.0059055399  TIP3      6376            0.0000000000
     68960      6776  TIP3      H2             10.3786370190       46.7013148572       29.5311424924  TIP3      6376            0.0000000000
     68961      6777  TIP3      OH2             3.0619164915       46.8250230920       31.8655558587  TIP3      6377            0.0000000000
     68962      6777  TIP3      H1              3.1331262323       46.1685392796       32.5918615147  TIP3      6377            0.0000000000
     68963      6777  TIP3      H2              3.7931810689       47.4229393158       32.0752880741  TIP3      6377            0.0000000000
     68964      6778  TIP3      OH2            14.3981239907       50.1329062512       28.5815723634  TIP3      6378            0.0000000000
     68965      6778  TIP3      H1             13.9812495797       49.4037425900       29.0575325425  TIP3      6378            0.0000000000
     68966      6778  TIP3      H2             14.4053640284       50.8426335248       29.2480445455  TIP3      6378            0.0000000000
     68967      6779  TIP3      OH2             3.9884361827       51.2785134583       30.4029867806  TIP3      6379            0.0000000000
     68968      6779  TIP3      H1              3.6496350215       50.4371563274       30.0449798917  TIP3      6379            0.0000000000
     68969      6779  TIP3      H2              4.9422183147       51.0850763886       30.4446004860  TIP3      6379            0.0000000000
     68970      6780  TIP3      OH2             0.6298691611       44.8779979641       25.8161630456  TIP3      6380            0.0000000000
     68971      6780  TIP3      H1              0.1723913676       45.7497929665       25.7905144533  TIP3      6380            0.0000000000
     68972      6780  TIP3      H2              0.0467412806       44.3279769629       25.2883181260  TIP3      6380            0.0000000000
     68973      6781  TIP3      OH2             1.3157881949       47.0779306263       27.9538619073  TIP3      6381            0.0000000000
     68974      6781  TIP3      H1              1.5656944841       46.2825624808       28.4581177023  TIP3      6381            0.0000000000
     68975      6781  TIP3      H2              2.0562340569       47.1718886884       27.3338653230  TIP3      6381            0.0000000000
     68976      6782  TIP3      OH2            11.4745448359       55.2256441158       28.8059368765  TIP3      6382            0.0000000000
     68977      6782  TIP3      H1             12.1476099840       54.5490543012       28.5419389627  TIP3      6382            0.0000000000
     68978      6782  TIP3      H2             11.3153027190       54.9817471640       29.7160810542  TIP3      6382            0.0000000000
     68979      6783  TIP3      OH2             9.0797224374       49.6066911559       30.7278295429  TIP3      6383            0.0000000000
     68980      6783  TIP3      H1              9.4151285750       48.9390734501       30.1075997734  TIP3      6383            0.0000000000
     68981      6783  TIP3      H2              9.8521700645       49.7353037334       31.3047187669  TIP3      6383            0.0000000000
     68982      6784  TIP3      OH2            17.7123395263       41.2298036428       31.5473555364  TIP3      6384            0.0000000000
     68983      6784  TIP3      H1             17.8082702043       41.8638563712       32.3004809149  TIP3      6384            0.0000000000
     68984      6784  TIP3      H2             18.1439669849       41.7539103862       30.8459709985  TIP3      6384            0.0000000000
     68985      6785  TIP3      OH2            12.2415216532       44.0397572595       31.0621312380  TIP3      6385            0.0000000000
     68986      6785  TIP3      H1             12.3908135980       43.0736967746       31.0552391049  TIP3      6385            0.0000000000
     68987      6785  TIP3      H2             12.1459958273       44.2043119460       30.1003311660  TIP3      6385            0.0000000000
     68988      6786  TIP3      OH2             5.3819401981       42.1224824381       28.3108344089  TIP3      6386            0.0000000000
     68989      6786  TIP3      H1              5.4475360460       42.9765388157       27.8531550486  TIP3      6386            0.0000000000
     68990      6786  TIP3      H2              4.9437841112       41.5598619494       27.6366695123  TIP3      6386            0.0000000000
     68991      6787  TIP3      OH2            13.0946937564       42.2240923852       26.6792016481  TIP3      6387            0.0000000000
     68992      6787  TIP3      H1             13.7710151739       41.9184236350       27.3337103513  TIP3      6387            0.0000000000
     68993      6787  TIP3      H2             13.6448297521       42.7803153520       26.0988724256  TIP3      6387            0.0000000000
     68994      6788  TIP3      OH2             1.9938209060       44.5337381818       29.0557997528  TIP3      6388            0.0000000000
     68995      6788  TIP3      H1              2.6685333597       43.9708684799       29.4908543697  TIP3      6388            0.0000000000
     68996      6788  TIP3      H2              2.0643520384       44.2325644914       28.1382777023  TIP3      6388            0.0000000000
     68997      6789  TIP3      OH2             7.1605884072       46.0893565360       28.3113984761  TIP3      6389            0.0000000000
     68998      6789  TIP3      H1              7.7995147099       45.5204733028       28.7732658990  TIP3      6389            0.0000000000
     68999      6789  TIP3      H2              6.6015930067       45.4220003770       27.8634704984  TIP3      6389            0.0000000000
     69000      6790  TIP3      OH2            18.1558009091       42.6727724829       33.7697740758  TIP3      6390            0.0000000000
     69001      6790  TIP3      H1             17.4816951805       43.3877493442       33.6890819140  TIP3      6390            0.0000000000
     69002      6790  TIP3      H2             18.1638079917       42.5274799547       34.7327584641  TIP3      6390            0.0000000000
     69003      6791  TIP3      OH2             4.2388481897       41.0257895893       32.3603197789  TIP3      6391            0.0000000000
     69004      6791  TIP3      H1              3.9808500455       41.5836641621       31.6011958098  TIP3      6391            0.0000000000
     69005      6791  TIP3      H2              3.5486007282       41.2657187202       33.0276184795  TIP3      6391            0.0000000000
     69006      6792  TIP3      OH2            11.5745285966       50.5182249377       25.9173068125  TIP3      6392            0.0000000000
     69007      6792  TIP3      H1             11.2684896114       50.2274323450       25.0458140635  TIP3      6392            0.0000000000
     69008      6792  TIP3      H2             11.2456124217       51.4435576732       25.9431208506  TIP3      6392            0.0000000000
     69009      6793  TIP3      OH2             6.7820671204       48.6824807408       32.6302916431  TIP3      6393            0.0000000000
     69010      6793  TIP3      H1              6.0498365912       49.3190997618       32.7808752731  TIP3      6393            0.0000000000
     69011      6793  TIP3      H2              7.4872089640       49.2731803972       32.3269091030  TIP3      6393            0.0000000000
     69012      6794  TIP3      OH2            14.8891768945       41.5335151403       28.6715480612  TIP3      6394            0.0000000000
     69013      6794  TIP3      H1             14.6675056486       40.7765934192       29.2169601534  TIP3      6394            0.0000000000
     69014      6794  TIP3      H2             15.5471272413       42.0196872563       29.2009205738  TIP3      6394            0.0000000000
     69015      6795  TIP3      OH2             3.7967760660       42.9068894852       30.3467794181  TIP3      6395            0.0000000000
     69016      6795  TIP3      H1              4.4400766506       43.5690189965       30.6926815300  TIP3      6395            0.0000000000
     69017      6795  TIP3      H2              4.3342044059       42.4587739962       29.6510683455  TIP3      6395            0.0000000000
     69018      6796  TIP3      OH2             5.2104205805       50.6605638672       33.4252939783  TIP3      6396            0.0000000000
     69019      6796  TIP3      H1              5.1767265628       51.5679596908       33.0673214427  TIP3      6396            0.0000000000
     69020      6796  TIP3      H2              4.3251827533       50.5959828121       33.8671712901  TIP3      6396            0.0000000000
     69021      6797  TIP3      OH2             1.2919232106       50.3222931178       24.2204719904  TIP3      6397            0.0000000000
     69022      6797  TIP3      H1              1.0521201402       50.5859749038       23.3232300900  TIP3      6397            0.0000000000
     69023      6797  TIP3      H2              1.3649833912       51.1737466211       24.6986248555  TIP3      6397            0.0000000000
     69024      6798  TIP3      OH2            14.9316313697       51.9562724346       30.9492461173  TIP3      6398            0.0000000000
     69025      6798  TIP3      H1             13.9654842148       52.0470427454       31.0904986783  TIP3      6398            0.0000000000
     69026      6798  TIP3      H2             15.1972140505       52.8829829368       30.7801658568  TIP3      6398            0.0000000000
     69027      6799  TIP3      OH2            15.2435504601       40.2503916684       32.3553109334  TIP3      6399            0.0000000000
     69028      6799  TIP3      H1             14.4961650783       40.8663195977       32.2997044101  TIP3      6399            0.0000000000
     69029      6799  TIP3      H2             15.9201636508       40.6807967350       31.8205196920  TIP3      6399            0.0000000000
     69030      6800  TIP3      OH2             8.2300022819       38.3541714747       29.8113155861  TIP3      6400            0.0000000000
     69031      6800  TIP3      H1              8.1026699460       37.3874481970       29.7578749749  TIP3      6400            0.0000000000
     69032      6800  TIP3      H2              7.3572659534       38.6679408853       30.1103770892  TIP3      6400            0.0000000000
     69033      6801  TIP3      OH2            13.1726855284       53.7312491139       27.5704485853  TIP3      6401            0.0000000000
     69034      6801  TIP3      H1             13.6168827851       53.0241804038       27.0652830879  TIP3      6401            0.0000000000
     69035      6801  TIP3      H2             13.5413983166       54.5365473837       27.1479071065  TIP3      6401            0.0000000000
     69036      6802  TIP3      OH2            14.3630860719       51.6638341542       26.0671034183  TIP3      6402            0.0000000000
     69037      6802  TIP3      H1             14.0850892153       50.9600088598       25.4544191415  TIP3      6402            0.0000000000
     69038      6802  TIP3      H2             14.4152381326       51.1832522443       26.9153749695  TIP3      6402            0.0000000000
     69039      6803  TIP3      OH2            16.0034635191       50.2397617445       34.5441682583  TIP3      6403            0.0000000000
     69040      6803  TIP3      H1             16.1484233103       49.6131481091       33.8009472602  TIP3      6403            0.0000000000
     69041      6803  TIP3      H2             16.1879116083       51.1058301311       34.1519437136  TIP3      6403            0.0000000000
     69042      6804  TIP3      OH2            10.4958381891       47.1643817250       24.3235649452  TIP3      6404            0.0000000000
     69043      6804  TIP3      H1              9.7917638838       47.7346838882       23.9574929813  TIP3      6404            0.0000000000
     69044      6804  TIP3      H2             11.1995632728       47.2334657410       23.6419322822  TIP3      6404            0.0000000000
     69045      6805  TIP3      OH2            17.9026226661       46.5785086834       32.6481259753  TIP3      6405            0.0000000000
     69046      6805  TIP3      H1             17.2097489811       47.2642645728       32.6657603733  TIP3      6405            0.0000000000
     69047      6805  TIP3      H2             18.3406088073       46.7693656621       31.7901122790  TIP3      6405            0.0000000000
     69048      6806  TIP3      OH2            13.9187960652       47.3886167514       25.2472689863  TIP3      6406            0.0000000000
     69049      6806  TIP3      H1             13.1870785623       47.6129126007       25.8682310409  TIP3      6406            0.0000000000
     69050      6806  TIP3      H2             14.3932002574       46.6833594628       25.7456118388  TIP3      6406            0.0000000000
     69051      6807  TIP3      OH2            13.8499325552       45.5353740304       34.3546289845  TIP3      6407            0.0000000000
     69052      6807  TIP3      H1             13.8772307721       46.3366446379       34.9067649143  TIP3      6407            0.0000000000
     69053      6807  TIP3      H2             13.2158488973       45.8398698942       33.6648827794  TIP3      6407            0.0000000000
     69054      6808  TIP3      OH2             5.5524551424       48.0342905427       27.1629939541  TIP3      6408            0.0000000000
     69055      6808  TIP3      H1              5.2269989559       47.6389237170       26.3191834871  TIP3      6408            0.0000000000
     69056      6808  TIP3      H2              6.1581526128       47.3347027912       27.5010145818  TIP3      6408            0.0000000000
     69057      6809  TIP3      OH2             6.8967947080       51.4492724774       29.8412100008  TIP3      6409            0.0000000000
     69058      6809  TIP3      H1              6.8446117895       50.8722188636       29.0672759984  TIP3      6409            0.0000000000
     69059      6809  TIP3      H2              7.6597801528       51.0710273629       30.3154018536  TIP3      6409            0.0000000000
     69060      6810  TIP3      OH2             5.9014142027       46.7749935580       30.8026483072  TIP3      6410            0.0000000000
     69061      6810  TIP3      H1              6.4736399492       46.8987153314       30.0217478719  TIP3      6410            0.0000000000
     69062      6810  TIP3      H2              6.2539597224       47.4340394286       31.4333682365  TIP3      6410            0.0000000000
     69063      6811  TIP3      OH2            12.2591670147       52.3202584904       31.5201629016  TIP3      6411            0.0000000000
     69064      6811  TIP3      H1             11.9919422538       52.9684184411       32.1729814965  TIP3      6411            0.0000000000
     69065      6811  TIP3      H2             12.0292418766       51.4618228695       31.9558663917  TIP3      6411            0.0000000000
     69066      6812  TIP3      OH2             6.8247745601       51.1926498642       35.5166154168  TIP3      6412            0.0000000000
     69067      6812  TIP3      H1              6.4631346524       51.9748908921       35.9813555652  TIP3      6412            0.0000000000
     69068      6812  TIP3      H2              6.1481593057       51.0226675542       34.8166237360  TIP3      6412            0.0000000000
     69069      6813  TIP3      OH2            12.7824287087       46.5664504123       22.9579099803  TIP3      6413            0.0000000000
     69070      6813  TIP3      H1             13.3735813777       46.7152901993       23.7245128155  TIP3      6413            0.0000000000
     69071      6813  TIP3      H2             13.2057023498       47.0324912835       22.2252232303  TIP3      6413            0.0000000000
     69072      6814  TIP3      OH2             3.7522975276       47.3658864130       34.7078063091  TIP3      6414            0.0000000000
     69073      6814  TIP3      H1              3.7963335208       48.0355600023       35.4213853757  TIP3      6414            0.0000000000
     69074      6814  TIP3      H2              2.8306968876       47.4773218259       34.4297483252  TIP3      6414            0.0000000000
     69075      6815  TIP3      OH2            10.5038569753       53.2809386416       26.4175711015  TIP3      6415            0.0000000000
     69076      6815  TIP3      H1             10.9855827599       53.5971235031       27.1843049443  TIP3      6415            0.0000000000
     69077      6815  TIP3      H2              9.9551328351       54.0284436933       26.1537861251  TIP3      6415            0.0000000000
     69078      6816  TIP3      OH2             5.0653577922       53.2545286061       36.2683428310  TIP3      6416            0.0000000000
     69079      6816  TIP3      H1              5.0315809451       53.1178731265       35.3090138563  TIP3      6416            0.0000000000
     69080      6816  TIP3      H2              4.1281961347       53.1339923541       36.5208365735  TIP3      6416            0.0000000000
     69081      6817  TIP3      OH2            16.5047974733       38.2899607827       22.7712225587  TIP3      6417            0.0000000000
     69082      6817  TIP3      H1             15.5773792282       38.4356284591       23.0705092492  TIP3      6417            0.0000000000
     69083      6817  TIP3      H2             16.7362304441       39.1464846004       22.3734761759  TIP3      6417            0.0000000000
     69084      6818  TIP3      OH2             4.5462608801       47.0627339199       24.7727188669  TIP3      6418            0.0000000000
     69085      6818  TIP3      H1              4.2487819251       47.8470637762       24.2534301082  TIP3      6418            0.0000000000
     69086      6818  TIP3      H2              3.8661069243       46.4184449505       24.5701401729  TIP3      6418            0.0000000000
     69087      6819  TIP3      OH2            17.6396500747       52.6635839401       21.1413176471  TIP3      6419            0.0000000000
     69088      6819  TIP3      H1             17.7661160108       53.6077359805       21.3330887281  TIP3      6419            0.0000000000
     69089      6819  TIP3      H2             18.5668075161       52.3408803826       21.0955370180  TIP3      6419            0.0000000000
     69090      6820  TIP3      OH2             0.6306044196       49.4712800008       33.6123027431  TIP3      6420            0.0000000000
     69091      6820  TIP3      H1              0.1479514306       49.4049941169       32.7681340182  TIP3      6420            0.0000000000
     69092      6820  TIP3      H2              0.6577606252       48.5315236563       33.8709828811  TIP3      6420            0.0000000000
     69093      6821  TIP3      OH2             0.3780695808       52.2085639978       30.4558879312  TIP3      6421            0.0000000000
     69094      6821  TIP3      H1              1.3340568932       52.0887599273       30.4291574838  TIP3      6421            0.0000000000
     69095      6821  TIP3      H2              0.2863165037       53.0185801454       30.9747642848  TIP3      6421            0.0000000000
     69096      6822  TIP3      OH2            18.6153941501       52.8840265714       36.1242242521  TIP3      6422            0.0000000000
     69097      6822  TIP3      H1             18.4795620328       51.9468031550       36.1067698588  TIP3      6422            0.0000000000
     69098      6822  TIP3      H2             17.7553368512       53.1726609502       36.5278226722  TIP3      6422            0.0000000000
     69099      6823  TIP3      OH2             9.5732328660       52.4611254486       34.9957006108  TIP3      6423            0.0000000000
     69100      6823  TIP3      H1              9.6445944964       53.3047057396       35.5015191434  TIP3      6423            0.0000000000
     69101      6823  TIP3      H2              8.6930510299       52.1328302753       35.2518807524  TIP3      6423            0.0000000000
     69102      6824  TIP3      OH2             9.9782126293      -56.6355700411       24.8071496273  TIP3      6424            0.0000000000
     69103      6824  TIP3      H1              9.9165090793      -56.7112932216       23.8372232521  TIP3      6424            0.0000000000
     69104      6824  TIP3      H2             10.0160706346      -55.6613678471       24.9472396721  TIP3      6424            0.0000000000
     69105      6825  TIP3      OH2             3.6571083635       55.0256252519       26.5880474007  TIP3      6425            0.0000000000
     69106      6825  TIP3      H1              3.7861589593       54.6637261416       27.4914773819  TIP3      6425            0.0000000000
     69107      6825  TIP3      H2              2.7870518183       54.6579537298       26.3648113382  TIP3      6425            0.0000000000
     69108      6826  TIP3      OH2            13.0959686263       55.4239011337       21.7998163366  TIP3      6426            0.0000000000
     69109      6826  TIP3      H1             13.4275140017       54.6424858284       21.3388692750  TIP3      6426            0.0000000000
     69110      6826  TIP3      H2             13.0814799310       55.1198123392       22.7251414502  TIP3      6426            0.0000000000
     69111      6827  TIP3      OH2            12.7360853386       55.2809132145       24.5493611389  TIP3      6427            0.0000000000
     69112      6827  TIP3      H1             11.7912890488       55.4208525086       24.7432918423  TIP3      6427            0.0000000000
     69113      6827  TIP3      H2             13.0181888144       54.5837520963       25.1499392325  TIP3      6427            0.0000000000
     69114      6828  TIP3      OH2            15.7485523944       44.3891291723       36.6065163267  TIP3      6428            0.0000000000
     69115      6828  TIP3      H1             15.3131640878       44.8643037080       35.8888302387  TIP3      6428            0.0000000000
     69116      6828  TIP3      H2             15.7669753097       43.4736616839       36.3002083375  TIP3      6428            0.0000000000
     69117      6829  TIP3      OH2             2.8909549929       50.7947869396       34.6033589361  TIP3      6429            0.0000000000
     69118      6829  TIP3      H1              3.1121051837       50.4163933266       35.4788027681  TIP3      6429            0.0000000000
     69119      6829  TIP3      H2              2.0243335949       50.3932192970       34.3927305427  TIP3      6429            0.0000000000
     69120      6830  TIP3      OH2             5.5477627075       39.2459342881       30.5855951297  TIP3      6430            0.0000000000
     69121      6830  TIP3      H1              4.6483411380       39.1540696072       30.1947484391  TIP3      6430            0.0000000000
     69122      6830  TIP3      H2              5.4651470343       40.1013323306       31.0344036365  TIP3      6430            0.0000000000
     69123      6831  TIP3      OH2            10.1909265271       38.9780962407       33.9542679497  TIP3      6431            0.0000000000
     69124      6831  TIP3      H1             10.6081242696       38.5299615505       34.7223058484  TIP3      6431            0.0000000000
     69125      6831  TIP3      H2              9.2337083816       38.7846810146       34.0889276509  TIP3      6431            0.0000000000
     69126      6832  TIP3      OH2            13.4993885835       42.7411860685       34.8124550860  TIP3      6432            0.0000000000
     69127      6832  TIP3      H1             12.9653333214       42.5765929814       35.6264637809  TIP3      6432            0.0000000000
     69128      6832  TIP3      H2             13.3368016931       43.6675416813       34.5857081149  TIP3      6432            0.0000000000
     69129      6833  TIP3      OH2             9.8614301320       41.4533323769       21.2772315897  TIP3      6433            0.0000000000
     69130      6833  TIP3      H1              9.5704719268       41.4702833406       22.1991993409  TIP3      6433            0.0000000000
     69131      6833  TIP3      H2              9.5650355227       40.6019614951       20.9651294191  TIP3      6433            0.0000000000
     69132      6834  TIP3      OH2             5.6397428533       44.2108141762       31.7441744752  TIP3      6434            0.0000000000
     69133      6834  TIP3      H1              4.9428620210       44.1897642488       32.4257428522  TIP3      6434            0.0000000000
     69134      6834  TIP3      H2              5.6314457300       45.1482616062       31.4490453476  TIP3      6434            0.0000000000
     69135      6835  TIP3      OH2             5.6154668970       44.4090776607       26.6469137456  TIP3      6435            0.0000000000
     69136      6835  TIP3      H1              4.6949758617       44.0917367499       26.5384027845  TIP3      6435            0.0000000000
     69137      6835  TIP3      H2              6.0301739691       44.0510545765       25.8409973980  TIP3      6435            0.0000000000
     69138      6836  TIP3      OH2            11.1402973710       44.8403266110       25.4465324241  TIP3      6436            0.0000000000
     69139      6836  TIP3      H1             10.7385440024       45.6735099915       25.1190334729  TIP3      6436            0.0000000000
     69140      6836  TIP3      H2             11.8523867477       44.7047300191       24.7916277505  TIP3      6436            0.0000000000
     69141      6837  TIP3      OH2            10.2313975074       45.0501511661       36.8990533479  TIP3      6437            0.0000000000
     69142      6837  TIP3      H1              9.6748045488       44.3000721763       37.2207545497  TIP3      6437            0.0000000000
     69143      6837  TIP3      H2             11.0651730912       44.9139717070       37.3808085714  TIP3      6437            0.0000000000
     69144      6838  TIP3      OH2            12.1397627918       44.3140602173       28.2737126764  TIP3      6438            0.0000000000
     69145      6838  TIP3      H1             11.9377344614       44.9005469073       27.5244941081  TIP3      6438            0.0000000000
     69146      6838  TIP3      H2             12.3144950416       43.4742057867       27.8040799219  TIP3      6438            0.0000000000
     69147      6839  TIP3      OH2             3.3284699603       44.5189216489       33.5310157499  TIP3      6439            0.0000000000
     69148      6839  TIP3      H1              3.3329477907       44.9198160496       34.4175913555  TIP3      6439            0.0000000000
     69149      6839  TIP3      H2              2.8540033789       43.6876640552       33.6777054775  TIP3      6439            0.0000000000
     69150      6840  TIP3      OH2            -0.0493599679       41.6362379780       27.4365471344  TIP3      6440            0.0000000000
     69151      6840  TIP3      H1              0.6117305817       41.5912535573       28.1561346283  TIP3      6440            0.0000000000
     69152      6840  TIP3      H2              0.4098934672       41.2172368276       26.6872091238  TIP3      6440            0.0000000000
     69153      6841  TIP3      OH2             1.2399168189       42.3863727804       22.8552789655  TIP3      6441            0.0000000000
     69154      6841  TIP3      H1              1.6949922090       42.9911636005       22.2634189754  TIP3      6441            0.0000000000
     69155      6841  TIP3      H2              0.5135830194       42.9410451874       23.1589608897  TIP3      6441            0.0000000000
     69156      6842  TIP3      OH2            11.3967523783       45.9417699718       32.8866990715  TIP3      6442            0.0000000000
     69157      6842  TIP3      H1             11.7425591944       45.2748069338       32.2642622069  TIP3      6442            0.0000000000
     69158      6842  TIP3      H2             10.9472231951       45.3961885605       33.5563366237  TIP3      6442            0.0000000000
     69159      6843  TIP3      OH2             8.1870868733       41.8778674715       27.6836128881  TIP3      6443            0.0000000000
     69160      6843  TIP3      H1              7.2542138497       41.9145806280       27.9872334540  TIP3      6443            0.0000000000
     69161      6843  TIP3      H2              8.6814581081       41.7783105445       28.5109774915  TIP3      6443            0.0000000000
     69162      6844  TIP3      OH2             3.0076497039       43.4848791362       26.5403032925  TIP3      6444            0.0000000000
     69163      6844  TIP3      H1              2.1114627628       43.5905042819       26.1649454177  TIP3      6444            0.0000000000
     69164      6844  TIP3      H2              3.3017987137       42.6387465356       26.1660597148  TIP3      6444            0.0000000000
     69165      6845  TIP3      OH2             6.6440403770       43.4999750513       24.1770617843  TIP3      6445            0.0000000000
     69166      6845  TIP3      H1              7.5993148929       43.6100990606       24.3532848442  TIP3      6445            0.0000000000
     69167      6845  TIP3      H2              6.4267687697       44.1737926194       23.5180191085  TIP3      6445            0.0000000000
     69168      6846  TIP3      OH2            12.5964564493       41.1208363839       30.9388918923  TIP3      6446            0.0000000000
     69169      6846  TIP3      H1             11.8995579730       41.2145905510       31.6244702267  TIP3      6446            0.0000000000
     69170      6846  TIP3      H2             12.0907158345       40.9190196620       30.1417018433  TIP3      6446            0.0000000000
     69171      6847  TIP3      OH2             5.3553113533       44.6833088636       21.7444733955  TIP3      6447            0.0000000000
     69172      6847  TIP3      H1              4.7859895719       44.3060056872       21.0699002350  TIP3      6447            0.0000000000
     69173      6847  TIP3      H2              6.1782807249       44.8813493781       21.3065459003  TIP3      6447            0.0000000000
     69174      6848  TIP3      OH2             3.4840387038       49.2399059207       36.8239101268  TIP3      6448            0.0000000000
     69175      6848  TIP3      H1              4.1964899014       49.4982485887       37.4311763642  TIP3      6448            0.0000000000
     69176      6848  TIP3      H2              2.6885892874       49.4059107515       37.3812252179  TIP3      6448            0.0000000000
     69177      6849  TIP3      OH2             9.4833193845       44.6561756930       29.5801221609  TIP3      6449            0.0000000000
     69178      6849  TIP3      H1             10.0671721392       44.1095242729       29.0377637758  TIP3      6449            0.0000000000
     69179      6849  TIP3      H2              9.3434254343       44.1179534781       30.3698143844  TIP3      6449            0.0000000000
     69180      6850  TIP3      OH2             4.4891677737       40.7992715180       26.0128811183  TIP3      6450            0.0000000000
     69181      6850  TIP3      H1              4.1868273259       39.8761964966       25.9768202903  TIP3      6450            0.0000000000
     69182      6850  TIP3      H2              5.2773730844       40.7687738512       25.4525725093  TIP3      6450            0.0000000000
     69183      6851  TIP3      OH2             8.1213467951       43.0101665442       31.9889194757  TIP3      6451            0.0000000000
     69184      6851  TIP3      H1              7.2845451747       43.5003233568       32.0991200355  TIP3      6451            0.0000000000
     69185      6851  TIP3      H2              8.6587602950       43.3270975973       32.7417767689  TIP3      6451            0.0000000000
     69186      6852  TIP3      OH2             8.7016102818       49.2227300112       23.6963670660  TIP3      6452            0.0000000000
     69187      6852  TIP3      H1              7.9182747033       48.7473981203       23.3584952797  TIP3      6452            0.0000000000
     69188      6852  TIP3      H2              8.5118391716       49.3229702577       24.6345946058  TIP3      6452            0.0000000000
     69189      6853  TIP3      OH2            15.8514304736       48.4055251120       32.5052756903  TIP3      6453            0.0000000000
     69190      6853  TIP3      H1             16.4507524863       48.8502406673       31.8814367276  TIP3      6453            0.0000000000
     69191      6853  TIP3      H2             15.0078629844       48.4787388222       32.0053570991  TIP3      6453            0.0000000000
     69192      6854  TIP3      OH2            12.5480234648       42.0241013257       21.9064783327  TIP3      6454            0.0000000000
     69193      6854  TIP3      H1             11.6200716265       42.2081838885       21.6983796858  TIP3      6454            0.0000000000
     69194      6854  TIP3      H2             12.8542239915       42.9170843897       22.1727641182  TIP3      6454            0.0000000000
     69195      6855  TIP3      OH2            10.1906835774       49.4466090491       34.9201846806  TIP3      6455            0.0000000000
     69196      6855  TIP3      H1              9.8452144496       49.0514424153       35.7281537238  TIP3      6455            0.0000000000
     69197      6855  TIP3      H2              9.9713727235       50.3780680532       35.0059731295  TIP3      6455            0.0000000000
     69198      6856  TIP3      OH2            13.2842913038       43.9396203009       23.5654737392  TIP3      6456            0.0000000000
     69199      6856  TIP3      H1             14.1927686998       43.8051323321       23.8767148860  TIP3      6456            0.0000000000
     69200      6856  TIP3      H2             13.3380787400       44.7246302434       22.9811116744  TIP3      6456            0.0000000000
     69201      6857  TIP3      OH2             3.7963421437       48.5741128396       29.4718732058  TIP3      6457            0.0000000000
     69202      6857  TIP3      H1              4.5258226845       48.5310877354       28.8242615411  TIP3      6457            0.0000000000
     69203      6857  TIP3      H2              3.8732542290       47.7231483853       29.9369187192  TIP3      6457            0.0000000000
     69204      6858  TIP3      OH2             0.7956568551       47.0166920039       34.7563139428  TIP3      6458            0.0000000000
     69205      6858  TIP3      H1              1.0084879383       46.5761454691       35.6033624201  TIP3      6458            0.0000000000
     69206      6858  TIP3      H2              0.1883097308       46.3876006083       34.3307746795  TIP3      6458            0.0000000000
     69207      6859  TIP3      OH2             7.8121731515       46.5476986990       36.9676418983  TIP3      6459            0.0000000000
     69208      6859  TIP3      H1              7.5148716941       46.3214476738       36.0761017214  TIP3      6459            0.0000000000
     69209      6859  TIP3      H2              8.7530653681       46.2804983193       36.9509785046  TIP3      6459            0.0000000000
     69210      6860  TIP3      OH2            12.4632261174       51.9137980093       34.8589174662  TIP3      6460            0.0000000000
     69211      6860  TIP3      H1             11.5369862485       52.0837400228       34.6279347979  TIP3      6460            0.0000000000
     69212      6860  TIP3      H2             12.4614189832       52.1593819028       35.8034049265  TIP3      6460            0.0000000000
     69213      6861  TIP3      OH2            17.9771190214       49.9516968164       36.0866382897  TIP3      6461            0.0000000000
     69214      6861  TIP3      H1             17.1194637844       50.2085291591       35.6562471312  TIP3      6461            0.0000000000
     69215      6861  TIP3      H2             18.5265383118       49.9303913200       35.2885682934  TIP3      6461            0.0000000000
     69216      6862  TIP3      OH2            16.4786845994       52.9329990711       23.6944726463  TIP3      6462            0.0000000000
     69217      6862  TIP3      H1             16.0863935487       52.1044507057       24.0131921768  TIP3      6462            0.0000000000
     69218      6862  TIP3      H2             16.7493807108       52.7274440401       22.7867776324  TIP3      6462            0.0000000000
     69219      6863  TIP3      OH2            13.6407423575       47.7432857453       30.7558526815  TIP3      6463            0.0000000000
     69220      6863  TIP3      H1             12.7038783682       47.5004134302       30.6771743882  TIP3      6463            0.0000000000
     69221      6863  TIP3      H2             14.0862252198       46.9601251879       30.3658314762  TIP3      6463            0.0000000000
     69222      6864  TIP3      OH2             6.1662298845       52.0568564565       26.8749884226  TIP3      6464            0.0000000000
     69223      6864  TIP3      H1              6.6944402718       52.8464075968       26.6544220393  TIP3      6464            0.0000000000
     69224      6864  TIP3      H2              5.2919922758       52.2938051058       26.5454208533  TIP3      6464            0.0000000000
     69225      6865  TIP3      OH2             1.9619054175       46.9485390317       21.4323199669  TIP3      6465            0.0000000000
     69226      6865  TIP3      H1              2.5469867355       47.5957623059       21.8418695524  TIP3      6465            0.0000000000
     69227      6865  TIP3      H2              1.0630302809       47.2163490378       21.7167400617  TIP3      6465            0.0000000000
     69228      6866  TIP3      OH2             7.6145898267       49.7174505371       26.4242783991  TIP3      6466            0.0000000000
     69229      6866  TIP3      H1              7.3307335017       50.6500017470       26.4817076890  TIP3      6466            0.0000000000
     69230      6866  TIP3      H2              6.8554137757       49.2570696709       26.8302201812  TIP3      6466            0.0000000000
     69231      6867  TIP3      OH2             8.0703347302       53.8900287376       32.7660042710  TIP3      6467            0.0000000000
     69232      6867  TIP3      H1              8.4863290782       54.7279304352       32.5166916685  TIP3      6467            0.0000000000
     69233      6867  TIP3      H2              8.6551947073       53.5748901683       33.4802906776  TIP3      6467            0.0000000000
     69234      6868  TIP3      OH2             6.2880716536       54.7169223161       25.9640568620  TIP3      6468            0.0000000000
     69235      6868  TIP3      H1              5.3271283364       54.8649055149       26.0452250173  TIP3      6468            0.0000000000
     69236      6868  TIP3      H2              6.6369074078       55.5673507408       26.3029095750  TIP3      6468            0.0000000000
     69237      6869  TIP3      OH2            11.6256905782       49.9506214754       32.4337076698  TIP3      6469            0.0000000000
     69238      6869  TIP3      H1             11.2334150518       49.7347958537       33.3006686038  TIP3      6469            0.0000000000
     69239      6869  TIP3      H2             12.2332479697       49.2165432923       32.2595748563  TIP3      6469            0.0000000000
     69240      6870  TIP3      OH2            14.3345878210       54.5356453394       34.9397525044  TIP3      6470            0.0000000000
     69241      6870  TIP3      H1             13.7097767897       53.9753498849       34.4234319238  TIP3      6470            0.0000000000
     69242      6870  TIP3      H2             14.5869055921       55.1890585384       34.2707798842  TIP3      6470            0.0000000000
     69243      6871  TIP3      OH2            18.5223444434       55.2525856393       21.9492718713  TIP3      6471            0.0000000000
     69244      6871  TIP3      H1             19.1416273149       55.9330370198       21.5974452163  TIP3      6471            0.0000000000
     69245      6871  TIP3      H2             17.7424810612       55.8573853072       22.0976684933  TIP3      6471            0.0000000000
     69246      6872  TIP3      OH2             2.4476896175       41.7568555448       34.3106863417  TIP3      6472            0.0000000000
     69247      6872  TIP3      H1              1.5370076302       42.0976296789       34.2652342750  TIP3      6472            0.0000000000
     69248      6872  TIP3      H2              2.3345421569       40.8997511782       34.7508600552  TIP3      6472            0.0000000000
     69249      6873  TIP3      OH2            14.6979162444       49.6161535162       23.7497270471  TIP3      6473            0.0000000000
     69250      6873  TIP3      H1             14.4521484428       48.8356741144       24.2862789785  TIP3      6473            0.0000000000
     69251      6873  TIP3      H2             15.6475515982       49.6709223475       23.9383813384  TIP3      6473            0.0000000000
     69252      6874  TIP3      OH2             2.0882140602       53.5508701353       32.7406738295  TIP3      6474            0.0000000000
     69253      6874  TIP3      H1              2.3306133009       52.6140181024       32.7317150373  TIP3      6474            0.0000000000
     69254      6874  TIP3      H2              2.3337318722       53.8270148269       33.6344929549  TIP3      6474            0.0000000000
     69255      6875  TIP3      OH2             6.8486901901       51.5817364150       22.4310458173  TIP3      6475            0.0000000000
     69256      6875  TIP3      H1              7.0509646684       51.0624027910       23.2132809127  TIP3      6475            0.0000000000
     69257      6875  TIP3      H2              6.8765707259       52.5044112683       22.7360919858  TIP3      6475            0.0000000000
     69258      6876  TIP3      OH2             3.3512848787       48.8184007611       22.9576067424  TIP3      6476            0.0000000000
     69259      6876  TIP3      H1              2.6436947621       49.2133762888       23.4930849387  TIP3      6476            0.0000000000
     69260      6876  TIP3      H2              3.8649085132       49.5967252438       22.6570593695  TIP3      6476            0.0000000000
     69261      6877  TIP3      OH2            11.1715090586       41.5104392906       33.2225586562  TIP3      6477            0.0000000000
     69262      6877  TIP3      H1             11.8782810518       41.5713508987       33.8786841727  TIP3      6477            0.0000000000
     69263      6877  TIP3      H2             10.7948414555       40.6233475501       33.4063856643  TIP3      6477            0.0000000000
     69264      6878  TIP3      OH2            11.9452355374       41.1094628199       24.3249760246  TIP3      6478            0.0000000000
     69265      6878  TIP3      H1             12.1831389144       41.6109574730       23.5106625286  TIP3      6478            0.0000000000
     69266      6878  TIP3      H2             12.5096521410       41.5443877958       24.9773749939  TIP3      6478            0.0000000000
     69267      6879  TIP3      OH2             9.6228458183       53.2760600651       23.1808815609  TIP3      6479            0.0000000000
     69268      6879  TIP3      H1              8.7989217040       53.7719420293       23.2241754053  TIP3      6479            0.0000000000
     69269      6879  TIP3      H2             10.1612656878       53.7612092651       22.5379824351  TIP3      6479            0.0000000000
     69270      6880  TIP3      OH2             9.1404488204       42.8673330902       25.1511608748  TIP3      6480            0.0000000000
     69271      6880  TIP3      H1              9.9634543355       43.4001546544       25.1866010047  TIP3      6480            0.0000000000
     69272      6880  TIP3      H2              8.9016780753       42.7258647082       26.0824756703  TIP3      6480            0.0000000000
     69273      6881  TIP3      OH2             9.6988585083       43.8620309322       34.3367040046  TIP3      6481            0.0000000000
     69274      6881  TIP3      H1              9.7983618269       44.4391554191       35.1166062112  TIP3      6481            0.0000000000
     69275      6881  TIP3      H2             10.3584488940       43.1651350320       34.4486753278  TIP3      6481            0.0000000000
     69276      6882  TIP3      OH2            10.0228811748       39.9286630907       26.0814083348  TIP3      6482            0.0000000000
     69277      6882  TIP3      H1              9.6917537025       40.5777728743       26.7246763427  TIP3      6482            0.0000000000
     69278      6882  TIP3      H2             10.7011905710       40.4662043545       25.6035808192  TIP3      6482            0.0000000000
     69279      6883  TIP3      OH2             6.9694559597       54.3292290714       23.1527714711  TIP3      6483            0.0000000000
     69280      6883  TIP3      H1              7.1354260509       55.1428886257       22.6608450445  TIP3      6483            0.0000000000
     69281      6883  TIP3      H2              6.7520288303       54.6304598155       24.0567936771  TIP3      6483            0.0000000000
     69282      6884  TIP3      OH2             5.6760236899       41.0190547917       22.7737616622  TIP3      6484            0.0000000000
     69283      6884  TIP3      H1              5.6184741053       41.9156922612       23.1353352907  TIP3      6484            0.0000000000
     69284      6884  TIP3      H2              6.5837133389       40.7583597113       23.0096011087  TIP3      6484            0.0000000000
     69285      6885  TIP3      OH2            15.9086218042       41.7461469292       35.1866365008  TIP3      6485            0.0000000000
     69286      6885  TIP3      H1             14.9699245797       42.0429012051       35.0741345364  TIP3      6485            0.0000000000
     69287      6885  TIP3      H2             16.2063278079       41.7575143120       34.2714811537  TIP3      6485            0.0000000000
     69288      6886  TIP3      OH2            14.4572541672       45.5380549334       29.2738849393  TIP3      6486            0.0000000000
     69289      6886  TIP3      H1             13.6867665710       45.0833864747       28.9219963524  TIP3      6486            0.0000000000
     69290      6886  TIP3      H2             14.9763805320       44.8366594502       29.7324532378  TIP3      6486            0.0000000000
     69291      6887  TIP3      OH2            15.5662145612       54.7366620503       30.9021643465  TIP3      6487            0.0000000000
     69292      6887  TIP3      H1             15.4445644159       55.4521260954       30.2284855388  TIP3      6487            0.0000000000
     69293      6887  TIP3      H2             16.5214247667       54.8492429619       31.0773870077  TIP3      6487            0.0000000000
     69294      6888  TIP3      OH2             3.0752584560       38.9064746532       29.6509192522  TIP3      6488            0.0000000000
     69295      6888  TIP3      H1              2.8480406683       38.9411346729       28.6942185793  TIP3      6488            0.0000000000
     69296      6888  TIP3      H2              2.6329982421       38.0798816535       29.9296511946  TIP3      6488            0.0000000000
     69297      6889  TIP3      OH2             2.0061382002       52.8323456246       25.8039419788  TIP3      6489            0.0000000000
     69298      6889  TIP3      H1              1.1658682006       53.3157845504       25.8034322469  TIP3      6489            0.0000000000
     69299      6889  TIP3      H2              2.5350495760       53.3259336394       25.1631670851  TIP3      6489            0.0000000000
     69300      6890  TIP3      OH2             1.2751842896       55.4652428553       37.1081210239  TIP3      6490            0.0000000000
     69301      6890  TIP3      H1              1.8358256962       55.2408219919       37.8771868066  TIP3      6490            0.0000000000
     69302      6890  TIP3      H2              0.8126584604       54.6297071488       36.9342965873  TIP3      6490            0.0000000000
     69303      6891  TIP3      OH2             5.9013810664       54.3712487867       38.7481698590  TIP3      6491            0.0000000000
     69304      6891  TIP3      H1              6.6753480680       53.8897908509       39.0584974891  TIP3      6491            0.0000000000
     69305      6891  TIP3      H2              5.8740323531       54.1266302071       37.8003154865  TIP3      6491            0.0000000000
     69306      6892  TIP3      OH2            12.4397952272       52.7758746594       37.4661579016  TIP3      6492            0.0000000000
     69307      6892  TIP3      H1             12.1058648900       51.8843369842       37.7105207909  TIP3      6492            0.0000000000
     69308      6892  TIP3      H2             13.2024525808       52.8718649223       38.0535832157  TIP3      6492            0.0000000000
     69309      6893  TIP3      OH2             1.1770728390       49.2542355963       38.0887513588  TIP3      6493            0.0000000000
     69310      6893  TIP3      H1              1.3338486932       48.3431219111       37.7766925608  TIP3      6493            0.0000000000
     69311      6893  TIP3      H2              0.4155014548       49.5315785059       37.5533946703  TIP3      6493            0.0000000000
     69312      6894  TIP3      OH2             7.8606028139       49.2309229467       37.4937991695  TIP3      6494            0.0000000000
     69313      6894  TIP3      H1              7.5195264060       49.5193698901       36.6280805474  TIP3      6494            0.0000000000
     69314      6894  TIP3      H2              7.9802043403       48.2631286661       37.3973200366  TIP3      6494            0.0000000000
     69315      6895  TIP3      OH2            13.5682121940       49.1136022637       34.8848194626  TIP3      6495            0.0000000000
     69316      6895  TIP3      H1             14.3313399153       49.7223062613       34.7820082052  TIP3      6495            0.0000000000
     69317      6895  TIP3      H2             12.8384060525       49.7440963309       34.9327527570  TIP3      6495            0.0000000000
     69318      6896  TIP3      OH2             2.0439016093       46.4726609358       37.4868251191  TIP3      6496            0.0000000000
     69319      6896  TIP3      H1              2.4514064257       45.6047218471       37.3820680483  TIP3      6496            0.0000000000
     69320      6896  TIP3      H2              1.7922790774       46.4759703913       38.4285737386  TIP3      6496            0.0000000000
     69321      6897  TIP3      OH2             6.7030189122       47.5820494955       22.5179729377  TIP3      6497            0.0000000000
     69322      6897  TIP3      H1              6.2129800415       47.0969810347       23.1989114173  TIP3      6497            0.0000000000
     69323      6897  TIP3      H2              6.9658036024       46.9105150862       21.8840573407  TIP3      6497            0.0000000000
     69324      6898  TIP3      OH2             5.9723081086       45.4429836305       34.8610955658  TIP3      6498            0.0000000000
     69325      6898  TIP3      H1              5.3576547210       46.1476892982       35.1287409876  TIP3      6498            0.0000000000
     69326      6898  TIP3      H2              6.3328872582       45.7939635512       34.0290002118  TIP3      6498            0.0000000000
     69327      6899  TIP3      OH2            11.0118362380       47.9641341481       38.1770994610  TIP3      6499            0.0000000000
     69328      6899  TIP3      H1             11.9743987690       48.0013144530       38.0971018482  TIP3      6499            0.0000000000
     69329      6899  TIP3      H2             10.8467771234       47.2175716562       38.7715858618  TIP3      6499            0.0000000000
     69330      6900  TIP3      OH2             6.3425196806       42.8153550227       35.9324921892  TIP3      6500            0.0000000000
     69331      6900  TIP3      H1              6.4719170373       42.0864499394       35.3045110143  TIP3      6500            0.0000000000
     69332      6900  TIP3      H2              6.3199088472       43.6117732736       35.3669319455  TIP3      6500            0.0000000000
     69333      6901  TIP3      OH2             6.7492652168       41.1862285624       33.4545831893  TIP3      6501            0.0000000000
     69334      6901  TIP3      H1              7.2738932284       41.6474792908       32.7609818454  TIP3      6501            0.0000000000
     69335      6901  TIP3      H2              5.8684812514       41.0916465563       33.0234014692  TIP3      6501            0.0000000000
     69336      6902  TIP3      OH2             8.3100745475       46.6396462284       33.6929356063  TIP3      6502            0.0000000000
     69337      6902  TIP3      H1              9.0631786363       46.4850469386       33.1104311406  TIP3      6502            0.0000000000
     69338      6902  TIP3      H2              7.9626263730       47.4932163025       33.3872865750  TIP3      6502            0.0000000000
     69339      6903  TIP3      OH2            12.7052037068       44.4347898615       38.6811104766  TIP3      6503            0.0000000000
     69340      6903  TIP3      H1             12.9351487405       43.4998139953       38.5974423844  TIP3      6503            0.0000000000
     69341      6903  TIP3      H2             13.5843969126       44.8591035273       38.6896905641  TIP3      6503            0.0000000000
     69342      6904  TIP3      OH2            14.0256485822       47.2150560661       36.8052526608  TIP3      6504            0.0000000000
     69343      6904  TIP3      H1             13.7843924460       47.9505724672       36.2047814470  TIP3      6504            0.0000000000
     69344      6904  TIP3      H2             14.9867201558       47.1689959228       36.6232680556  TIP3      6504            0.0000000000
     69345      6905  TIP3      OH2             4.8134145347       44.0411159640       37.8611900354  TIP3      6505            0.0000000000
     69346      6905  TIP3      H1              4.0374512397       43.4804604955       37.6412813997  TIP3      6505            0.0000000000
     69347      6905  TIP3      H2              5.4738943805       43.6982289035       37.2283795286  TIP3      6505            0.0000000000
     69348      6906  TIP3      OH2             7.5402281789       38.6281374161       33.8787795584  TIP3      6506            0.0000000000
     69349      6906  TIP3      H1              7.4126192854       39.5976912548       33.7589829801  TIP3      6506            0.0000000000
     69350      6906  TIP3      H2              6.7905808271       38.2695353152       33.3732531814  TIP3      6506            0.0000000000
     69351      6907  TIP3      OH2             8.8174824765       42.9540570370       37.4493474663  TIP3      6507            0.0000000000
     69352      6907  TIP3      H1              8.5391185722       42.7373256913       38.3567744535  TIP3      6507            0.0000000000
     69353      6907  TIP3      H2              8.0197120872       42.7590872687       36.9202270399  TIP3      6507            0.0000000000
     69354      6908  TIP3      OH2            11.5335485022       42.0918222647       36.5151327127  TIP3      6508            0.0000000000
     69355      6908  TIP3      H1             10.5694082093       42.1354896885       36.6554170235  TIP3      6508            0.0000000000
     69356      6908  TIP3      H2             11.8270604127       41.4642704400       37.1972345004  TIP3      6508            0.0000000000
     69357      6909  TIP3      OH2            13.1332208842       40.7268848960       38.4883041995  TIP3      6509            0.0000000000
     69358      6909  TIP3      H1             13.0631442531       39.7553527507       38.5001183181  TIP3      6509            0.0000000000
     69359      6909  TIP3      H2             12.8404852566       41.0061965611       39.3848402004  TIP3      6509            0.0000000000
     69360      6910  TIP3      OH2             2.9476881397       41.9684769400       37.5637713268  TIP3      6510            0.0000000000
     69361      6910  TIP3      H1              3.1779533271       41.2357322530       36.9602114628  TIP3      6510            0.0000000000
     69362      6910  TIP3      H2              2.8522461778       41.5143692548       38.4251583540  TIP3      6510            0.0000000000
     69363      6911  TIP3      OH2             7.7394977112       37.9654767253       36.5637550946  TIP3      6511            0.0000000000
     69364      6911  TIP3      H1              8.4753268362       37.3023219751       36.5141837757  TIP3      6511            0.0000000000
     69365      6911  TIP3      H2              7.6616695329       38.1856252231       35.6148415509  TIP3      6511            0.0000000000
     69366      6912  TIP3      OH2             8.1177635172       39.6157760248       38.6246416863  TIP3      6512            0.0000000000
     69367      6912  TIP3      H1              7.9768228307       39.1334825355       37.7741869128  TIP3      6512            0.0000000000
     69368      6912  TIP3      H2              7.5238893539       40.3814565099       38.5319793289  TIP3      6512            0.0000000000
     69369      6913  TIP3      OH2             0.7585580188       54.6136195083       28.1221306215  TIP3      6513            0.0000000000
     69370      6913  TIP3      H1              0.4056024777       53.7370368606       28.3203868159  TIP3      6513            0.0000000000
     69371      6913  TIP3      H2              0.9604267019       54.9621689943       29.0081056235  TIP3      6513            0.0000000000
     69372      6914  TIP3      OH2            18.2881452585       55.4254074759       31.0986752460  TIP3      6514            0.0000000000
     69373      6914  TIP3      H1             18.2958730730       55.6063492965       32.0534959075  TIP3      6514            0.0000000000
     69374      6914  TIP3      H2             18.9935276092       55.9949817689       30.7773485083  TIP3      6514            0.0000000000
     69375      6915  TIP3      OH2            17.8728377773       54.9893961963       34.0223606786  TIP3      6515            0.0000000000
     69376      6915  TIP3      H1             17.3764677997       54.2412875265       33.6488244686  TIP3      6515            0.0000000000
     69377      6915  TIP3      H2             18.3975865302       54.5843147835       34.7247785696  TIP3      6515            0.0000000000
     69378      6916  TIP3      OH2            16.3077227320       50.7939802531       38.6502618193  TIP3      6516            0.0000000000
     69379      6916  TIP3      H1             15.4376533515       50.6754305483       39.0785379004  TIP3      6516            0.0000000000
     69380      6916  TIP3      H2             16.6949346408       51.5465383884       39.1425047547  TIP3      6516            0.0000000000
     69381      6917  TIP3      OH2            17.5896720360       49.0864368699       24.1829760410  TIP3      6517            0.0000000000
     69382      6917  TIP3      H1             18.4833085385       49.4427116273       24.3064406998  TIP3      6517            0.0000000000
     69383      6917  TIP3      H2             17.6249762875       48.3085667707       24.7936034652  TIP3      6517            0.0000000000
     69384      6918  TIP3      OH2            17.9939177871       47.1386276353       25.9639743128  TIP3      6518            0.0000000000
     69385      6918  TIP3      H1             17.2833552929       46.6189548263       26.4231194437  TIP3      6518            0.0000000000
     69386      6918  TIP3      H2             18.5729349281       47.2767932526       26.7496921622  TIP3      6518            0.0000000000
     69387      6919  TIP3      OH2            17.7594914636       49.8653337486       31.0107184886  TIP3      6519            0.0000000000
     69388      6919  TIP3      H1             18.5789211229       49.4823648142       30.6359731987  TIP3      6519            0.0000000000
     69389      6919  TIP3      H2             17.8827631198       50.8174612759       30.8199206132  TIP3      6519            0.0000000000
     69390      6920  TIP3      OH2            16.2829699541       52.7319944724       33.2916211505  TIP3      6520            0.0000000000
     69391      6920  TIP3      H1             15.5967598895       53.1056687703       33.8638994660  TIP3      6520            0.0000000000
     69392      6920  TIP3      H2             15.7356689909       52.3300315783       32.5763267210  TIP3      6520            0.0000000000
     69393      6921  TIP3      OH2            15.6143466508       45.6361521250       26.4547274060  TIP3      6521            0.0000000000
     69394      6921  TIP3      H1             15.6676709894       44.6753988461       26.5629864451  TIP3      6521            0.0000000000
     69395      6921  TIP3      H2             15.5032198493       45.8718340745       27.4128447628  TIP3      6521            0.0000000000
     69396      6922  TIP3      OH2             0.8114880455       47.7030591482       30.6143061573  TIP3      6522            0.0000000000
     69397      6922  TIP3      H1              1.0103075671       47.6175080743       29.6558779895  TIP3      6522            0.0000000000
     69398      6922  TIP3      H2              1.6964094717       47.5542870682       31.0003860706  TIP3      6522            0.0000000000
     69399      6923  TIP3      OH2            16.6445146349       47.5875480615       36.2133528670  TIP3      6523            0.0000000000
     69400      6923  TIP3      H1             17.2430209683       46.8330439924       36.4168057244  TIP3      6523            0.0000000000
     69401      6923  TIP3      H2             17.2188012327       48.3667904737       36.2753900190  TIP3      6523            0.0000000000
     69402      6924  TIP3      OH2            18.1680927464       45.5020202441       36.8777916494  TIP3      6524            0.0000000000
     69403      6924  TIP3      H1             17.2799123983       45.0911132864       36.7589298469  TIP3      6524            0.0000000000
     69404      6924  TIP3      H2             18.7388090317       44.7212703669       36.8440178929  TIP3      6524            0.0000000000
     69405      6925  TIP3      OH2            15.4772081855       43.1951902577       25.0200738822  TIP3      6525            0.0000000000
     69406      6925  TIP3      H1             15.7898517503       42.2774636743       25.1585652095  TIP3      6525            0.0000000000
     69407      6925  TIP3      H2             16.2592268183       43.6351126701       24.6622127387  TIP3      6525            0.0000000000
     69408      6926  TIP3      OH2            16.0990395156       43.7002728861       30.4996131549  TIP3      6526            0.0000000000
     69409      6926  TIP3      H1             17.0388632813       44.0236936230       30.4192580626  TIP3      6526            0.0000000000
     69410      6926  TIP3      H2             15.8954716998       43.9086348108       31.4154292064  TIP3      6526            0.0000000000
     69411      6927  TIP3      OH2            16.1707298738       44.4786046078       33.2663796242  TIP3      6527            0.0000000000
     69412      6927  TIP3      H1             15.2968322357       44.7807640056       33.5959117082  TIP3      6527            0.0000000000
     69413      6927  TIP3      H2             16.5998734051       45.3377987045       33.0267836925  TIP3      6527            0.0000000000
     69414      6928  TIP3      OH2             0.4179923596       42.9922260794       36.7484907898  TIP3      6528            0.0000000000
     69415      6928  TIP3      H1              1.3563471399       42.8249581670       36.9693187324  TIP3      6528            0.0000000000
     69416      6928  TIP3      H2             -0.0261000830       42.1933929292       37.1039736997  TIP3      6528            0.0000000000
     69417      6929  TIP3      OH2            18.4386212116       38.4971687748       38.6005611080  TIP3      6529            0.0000000000
     69418      6929  TIP3      H1             18.7899192977       37.8414624842       37.9858065363  TIP3      6529            0.0000000000
     69419      6929  TIP3      H2             18.5686968145       39.3380703447       38.1262595326  TIP3      6529            0.0000000000
     69420      6930  TIP3      OH2            16.1270659926       40.4756724703       25.0856346848  TIP3      6530            0.0000000000
     69421      6930  TIP3      H1             16.3119498692       40.0140396534       25.9196237942  TIP3      6530            0.0000000000
     69422      6930  TIP3      H2             15.5149332738       39.8578521332       24.6285730077  TIP3      6530            0.0000000000
     69423      6931  TIP3      OH2             1.6298490243       41.2876622586       29.6221009406  TIP3      6531            0.0000000000
     69424      6931  TIP3      H1              2.0946492623       40.4775887650       29.9150255091  TIP3      6531            0.0000000000
     69425      6931  TIP3      H2              2.1359797544       41.9956858443       30.0434898675  TIP3      6531            0.0000000000
     69426      6932  TIP3      OH2            -0.0789213300       44.2762672505       30.6892161781  TIP3      6532            0.0000000000
     69427      6932  TIP3      H1              0.4631599185       44.0576755342       29.9018296652  TIP3      6532            0.0000000000
     69428      6932  TIP3      H2              0.3400207499       45.1095538493       30.9558168989  TIP3      6532            0.0000000000
     69429      6933  TIP3      OH2            17.9667710805       40.6200921411       36.9685223830  TIP3      6533            0.0000000000
     69430      6933  TIP3      H1             17.0214203280       40.8806271537       36.9131179266  TIP3      6533            0.0000000000
     69431      6933  TIP3      H2             18.0366984523       40.0746520536       36.1706263052  TIP3      6533            0.0000000000
     69432      6934  TIP3      OH2            17.9866189792       40.5121384970       21.6357348668  TIP3      6534            0.0000000000
     69433      6934  TIP3      H1             18.4056473817       39.8204213647       21.1170664378  TIP3      6534            0.0000000000
     69434      6934  TIP3      H2             18.6656280013       41.1997388911       21.6724393236  TIP3      6534            0.0000000000
     69435      6935  TIP3      OH2             0.2748716304       40.5610561193       24.7675839405  TIP3      6535            0.0000000000
     69436      6935  TIP3      H1             -0.6693714166       40.7350699242       24.6028154985  TIP3      6535            0.0000000000
     69437      6935  TIP3      H2              0.7063601922       41.0166701442       24.0371838209  TIP3      6535            0.0000000000
     69438      6936  TIP3      OH2            15.0160158781       55.5169191146       26.6829177159  TIP3      6536            0.0000000000
     69439      6936  TIP3      H1             15.7010060502       55.1672318043       26.0775496370  TIP3      6536            0.0000000000
     69440      6936  TIP3      H2             15.5444414690       56.0022516610       27.3382135150  TIP3      6536            0.0000000000
     69441      6937  TIP3      OH2             0.2358133935       39.2476797449       33.0716075013  TIP3      6537            0.0000000000
     69442      6937  TIP3      H1             -0.4445603321       39.0265590699       33.7305948960  TIP3      6537            0.0000000000
     69443      6937  TIP3      H2             -0.2277307525       39.9004942561       32.5046410919  TIP3      6537            0.0000000000
     69444      6938  TIP3      OH2             2.4436866424       52.4397912175       37.2226623500  TIP3      6538            0.0000000000
     69445      6938  TIP3      H1              1.6010157044       52.6206393095       36.7755630756  TIP3      6538            0.0000000000
     69446      6938  TIP3      H2              2.1723483909       52.3829821174       38.1490511551  TIP3      6538            0.0000000000
     69447      6939  TIP3      OH2             5.3569457852       53.4066380470       33.4925228106  TIP3      6539            0.0000000000
     69448      6939  TIP3      H1              4.9826414321       54.2525552602       33.2100174860  TIP3      6539            0.0000000000
     69449      6939  TIP3      H2              6.2828074707       53.5083467090       33.1812736235  TIP3      6539            0.0000000000
     69450      6940  TIP3      OH2             9.6910346663       54.8129035222       36.4141512011  TIP3      6540            0.0000000000
     69451      6940  TIP3      H1              9.8600770356       54.4930577902       37.3366538437  TIP3      6540            0.0000000000
     69452      6940  TIP3      H2             10.5640956804       55.1389730697       36.1377290354  TIP3      6540            0.0000000000
     69453      6941  TIP3      OH2            11.9931880831       56.1027342962       35.6975791510  TIP3      6541            0.0000000000
     69454      6941  TIP3      H1             12.7124238169       55.4968813147       35.4533581521  TIP3      6541            0.0000000000
     69455      6941  TIP3      H2             12.3502312661       56.5117316868       36.5131064636  TIP3      6541            0.0000000000
     69456      6942  TIP3      OH2            16.9826727067       38.7274022845       34.7753901485  TIP3      6542            0.0000000000
     69457      6942  TIP3      H1             16.1277057730       39.0066313421       34.3911317899  TIP3      6542            0.0000000000
     69458      6942  TIP3      H2             17.1579928557       37.9093986474       34.2581106626  TIP3      6542            0.0000000000
     69459      6943  TIP3      OH2             5.2326725169      -56.6007103316       32.6033987401  TIP3      6543            0.0000000000
     69460      6943  TIP3      H1              4.3573011237      -56.4654292224       32.9678686618  TIP3      6543            0.0000000000
     69461      6943  TIP3      H2              5.1967239768      -56.0275439550       31.7951869214  TIP3      6543            0.0000000000
     69462      6944  TIP3      OH2             9.9567879164      -56.7023019176       31.7290892169  TIP3      6544            0.0000000000
     69463      6944  TIP3      H1              9.4927713402      -56.1495050125       31.0776898019  TIP3      6544            0.0000000000
     69464      6944  TIP3      H2             10.1085780969      -56.0625661928       32.4662686636  TIP3      6544            0.0000000000
     69465      6945  TIP3      OH2            12.2709560614       55.0065368010       32.7154886018  TIP3      6545            0.0000000000
     69466      6945  TIP3      H1             11.3796067438       55.2250855467       32.4027932764  TIP3      6545            0.0000000000
     69467      6945  TIP3      H2             12.7022323142       55.8692714909       32.6189005479  TIP3      6545            0.0000000000
     69468      6946  TIP3      OH2             2.1936834487       55.2671191496       30.4432493453  TIP3      6546            0.0000000000
     69469      6946  TIP3      H1              2.1623428713       54.8511483145       31.3262209073  TIP3      6546            0.0000000000
     69470      6946  TIP3      H2              3.0254754446       54.9458208315       30.0392930547  TIP3      6546            0.0000000000
     69471      6947  TIP3      OH2             4.3099002184       54.0292543878       29.0911127374  TIP3      6547            0.0000000000
     69472      6947  TIP3      H1              4.1295149107       53.0895097101       29.2780738179  TIP3      6547            0.0000000000
     69473      6947  TIP3      H2              5.1683102741       54.1481846218       29.5540439246  TIP3      6547            0.0000000000
     69474      6948  TIP3      OH2             6.8891838384       54.4921302999       29.9574430676  TIP3      6548            0.0000000000
     69475      6948  TIP3      H1              7.0870060051       53.5781666437       29.6805306915  TIP3      6548            0.0000000000
     69476      6948  TIP3      H2              6.9467460754       54.4409747860       30.9170052772  TIP3      6548            0.0000000000
     69477      6949  TIP3      OH2            10.3778480680       40.1522346581       29.0985502271  TIP3      6549            0.0000000000
     69478      6949  TIP3      H1              9.7025639711       39.5056692938       29.3576224567  TIP3      6549            0.0000000000
     69479      6949  TIP3      H2             10.9360711869       39.6398738063       28.5000318178  TIP3      6549            0.0000000000
     69480      6950  TIP3      OH2            15.5215981485       38.2362512935       29.2106872575  TIP3      6550            0.0000000000
     69481      6950  TIP3      H1             16.1238451676       38.8002544768       28.6724567235  TIP3      6550            0.0000000000
     69482      6950  TIP3      H2             14.6358757825       38.5632458240       28.9505123511  TIP3      6550            0.0000000000
     69483      6951  TIP3      OH2            17.2224459750       39.4107180687       27.5328639902  TIP3      6551            0.0000000000
     69484      6951  TIP3      H1             17.8623739692       38.8665376537       27.0041067889  TIP3      6551            0.0000000000
     69485      6951  TIP3      H2             17.6538423172       40.2900655840       27.5429961688  TIP3      6551            0.0000000000
     69486      6952  TIP3      OH2             2.7253197290       38.7862203226       26.9365503899  TIP3      6552            0.0000000000
     69487      6952  TIP3      H1              1.9319654625       38.5527964947       26.4190447098  TIP3      6552            0.0000000000
     69488      6952  TIP3      H2              3.2278112607       37.9516562860       26.9036005556  TIP3      6552            0.0000000000
     69489      6953  TIP3      OH2             7.2551097938       38.7023182854       26.7253892822  TIP3      6553            0.0000000000
     69490      6953  TIP3      H1              8.1509660261       39.0829295466       26.6891298590  TIP3      6553            0.0000000000
     69491      6953  TIP3      H2              7.1661626994       38.4911497210       27.6551415765  TIP3      6553            0.0000000000
     69492      6954  TIP3      OH2            12.8801456819       38.7368634471       28.3706342176  TIP3      6554            0.0000000000
     69493      6954  TIP3      H1             12.9058980580       38.8249832225       27.4123277217  TIP3      6554            0.0000000000
     69494      6954  TIP3      H2             12.5536462657       37.8149001825       28.4998489617  TIP3      6554            0.0000000000
     69495      6955  TIP3      OH2            14.2070347945       38.7732579798       24.0623411298  TIP3      6555            0.0000000000
     69496      6955  TIP3      H1             13.4737529411       39.3706065809       23.8573916932  TIP3      6555            0.0000000000
     69497      6955  TIP3      H2             13.7626671190       37.9055815164       24.2238267102  TIP3      6555            0.0000000000
     69498      6956  TIP3      OH2             1.4506033974       54.5057175556       23.6315150977  TIP3      6556            0.0000000000
     69499      6956  TIP3      H1              0.7619597428       54.4868630998       22.9405530792  TIP3      6556            0.0000000000
     69500      6956  TIP3      H2              1.4403723580       55.4270188956       23.8859865330  TIP3      6556            0.0000000000
     69501      6957  TIP3      OH2             8.4013972348       40.7535855650       23.5865482721  TIP3      6557            0.0000000000
     69502      6957  TIP3      H1              8.6080777053       40.1446172555       24.3140123310  TIP3      6557            0.0000000000
     69503      6957  TIP3      H2              8.4042434470       41.6089465204       24.0800109778  TIP3      6557            0.0000000000
     69504      6958  TIP3      OH2            10.2958084520       55.7242069874       22.0244756272  TIP3      6558            0.0000000000
     69505      6958  TIP3      H1             11.1803454200       56.0921192900       21.8138992775  TIP3      6558            0.0000000000
     69506      6958  TIP3      H2             10.0869956206       55.3014150005       21.1940177181  TIP3      6558            0.0000000000
     69507      6959  TIP3      OH2            17.0170190550       55.2949860461       24.7400970853  TIP3      6559            0.0000000000
     69508      6959  TIP3      H1             16.8199019456       54.5266898548       24.1497381342  TIP3      6559            0.0000000000
     69509      6959  TIP3      H2             16.9697783125       56.0444157699       24.1117997574  TIP3      6559            0.0000000000
     69510      6960  TIP3      OH2             2.6403291908       39.3114534772       36.4093842198  TIP3      6560            0.0000000000
     69511      6960  TIP3      H1              2.2835359507       38.5200990535       36.8566543597  TIP3      6560            0.0000000000
     69512      6960  TIP3      H2              3.5695964053       39.3011257652       36.7453991425  TIP3      6560            0.0000000000
     69513      6961  TIP3      OH2             4.6447408271       38.6831034168       38.0089317863  TIP3      6561            0.0000000000
     69514      6961  TIP3      H1              5.5395503144       38.3614387497       37.7795343457  TIP3      6561            0.0000000000
     69515      6961  TIP3      H2              4.2482518003       37.9007889940       38.4305691827  TIP3      6561            0.0000000000
     69516      6962  TIP3      OH2             3.2750218793       55.4856864241       20.6430103887  TIP3      6562            0.0000000000
     69517      6962  TIP3      H1              3.0007781602       55.7095071532       21.5259105381  TIP3      6562            0.0000000000
     69518      6962  TIP3      H2              4.0118957353       54.8820607208       20.7945271592  TIP3      6562            0.0000000000
     69519      6963  TIP3      OH2            13.0512409623       37.9961043285       38.1847402281  TIP3      6563            0.0000000000
     69520      6963  TIP3      H1             13.1437277622       37.5201058530       39.0227418006  TIP3      6563            0.0000000000
     69521      6963  TIP3      H2             13.9586714524       37.9772325924       37.8196133664  TIP3      6563            0.0000000000
     69522      6964  TIP3      OH2            16.2359447553       54.0362556711       36.8810733138  TIP3      6564            0.0000000000
     69523      6964  TIP3      H1             15.4542443943       53.8755424787       36.3008416675  TIP3      6564            0.0000000000
     69524      6964  TIP3      H2             16.1715509044       54.9871306319       37.0262100292  TIP3      6564            0.0000000000
     69525      6965  TIP3      OH2            30.6620206821       47.9156275318       26.8530735193  TIP3      6565            0.0000000000
     69526      6965  TIP3      H1             30.7098241367       48.8907956576       26.7489627268  TIP3      6565            0.0000000000
     69527      6965  TIP3      H2             29.9861956215       47.6736933617       26.2011642500  TIP3      6565            0.0000000000
     69528      6966  TIP3      OH2            29.5592698534       47.1901888122       30.3059183996  TIP3      6566            0.0000000000
     69529      6966  TIP3      H1             29.5320130600       46.5319183757       31.0075505649  TIP3      6566            0.0000000000
     69530      6966  TIP3      H2             29.2343912356       46.7012513178       29.5314223377  TIP3      6566            0.0000000000
     69531      6967  TIP3      OH2            21.9166487314       46.8392715370       31.8857458469  TIP3      6567            0.0000000000
     69532      6967  TIP3      H1             21.9960201098       46.1604271196       32.5888686232  TIP3      6567            0.0000000000
     69533      6967  TIP3      H2             22.6619028164       47.4223944321       32.0716904746  TIP3      6567            0.0000000000
     69534      6968  TIP3      OH2            33.2652435620       50.1209691298       28.5847339716  TIP3      6568            0.0000000000
     69535      6968  TIP3      H1             32.8282442089       49.4079568898       29.0602098378  TIP3      6568            0.0000000000
     69536      6968  TIP3      H2             33.2624933246       50.8397066307       29.2445597399  TIP3      6568            0.0000000000
     69537      6969  TIP3      OH2            22.8442537392       51.2782878677       30.4031123473  TIP3      6569            0.0000000000
     69538      6969  TIP3      H1             22.5052018702       50.4367927616       30.0444836560  TIP3      6569            0.0000000000
     69539      6969  TIP3      H2             23.7981065600       51.0850034005       30.4443579804  TIP3      6569            0.0000000000
     69540      6970  TIP3      OH2            19.5136963619       44.8830118150       25.7584639553  TIP3      6570            0.0000000000
     69541      6970  TIP3      H1             19.0221181056       45.7407478010       25.8212441762  TIP3      6570            0.0000000000
     69542      6970  TIP3      H2             18.8837024492       44.3285919166       25.3172401127  TIP3      6570            0.0000000000
     69543      6971  TIP3      OH2            20.2164738732       47.1160496904       27.9605851900  TIP3      6571            0.0000000000
     69544      6971  TIP3      H1             20.3878699650       46.2837326823       28.4453681096  TIP3      6571            0.0000000000
     69545      6971  TIP3      H2             20.9238305636       47.1629176652       27.3228184467  TIP3      6571            0.0000000000
     69546      6972  TIP3      OH2            30.3298774445       55.2251666300       28.8072418220  TIP3      6572            0.0000000000
     69547      6972  TIP3      H1             31.0032331670       54.5487955495       28.5428461746  TIP3      6572            0.0000000000
     69548      6972  TIP3      H2             30.1666527500       54.9851948244       29.7195909580  TIP3      6572            0.0000000000
     69549      6973  TIP3      OH2            27.9357563713       49.6066660832       30.7278038802  TIP3      6573            0.0000000000
     69550      6973  TIP3      H1             28.2711081675       48.9390700711       30.1076019360  TIP3      6573            0.0000000000
     69551      6973  TIP3      H2             28.7081405431       49.7353659955       31.3047616724  TIP3      6573            0.0000000000
     69552      6974  TIP3      OH2            36.5776738083       41.2153512625       31.5339349504  TIP3      6574            0.0000000000
     69553      6974  TIP3      H1             36.6905700155       41.8358604771       32.2858755556  TIP3      6574            0.0000000000
     69554      6974  TIP3      H2             37.0710955607       41.6762232586       30.8388289688  TIP3      6574            0.0000000000
     69555      6975  TIP3      OH2            31.0972821213       44.0396736126       31.0625935999  TIP3      6575            0.0000000000
     69556      6975  TIP3      H1             31.2469027644       43.0737118723       31.0552836497  TIP3      6575            0.0000000000
     69557      6975  TIP3      H2             30.9929496844       44.2021480364       30.1022511766  TIP3      6575            0.0000000000
     69558      6976  TIP3      OH2            24.2243577061       42.1211933694       28.3175224960  TIP3      6576            0.0000000000
     69559      6976  TIP3      H1             24.3029701359       42.9736359028       27.8557845356  TIP3      6576            0.0000000000
     69560      6976  TIP3      H2             23.8061256698       41.5603164298       27.6301517002  TIP3      6576            0.0000000000
     69561      6977  TIP3      OH2            31.9576386416       42.2324213260       26.6885985187  TIP3      6577            0.0000000000
     69562      6977  TIP3      H1             32.6272831660       41.9107625730       27.3358867617  TIP3      6577            0.0000000000
     69563      6977  TIP3      H2             32.4999130851       42.7739454698       26.0965248907  TIP3      6577            0.0000000000
     69564      6978  TIP3      OH2            20.8653358299       44.5213388180       29.0639797941  TIP3      6578            0.0000000000
     69565      6978  TIP3      H1             21.5363177120       43.9702371290       29.4884590084  TIP3      6578            0.0000000000
     69566      6978  TIP3      H2             20.9089841420       44.2464037054       28.1365320302  TIP3      6578            0.0000000000
     69567      6979  TIP3      OH2            26.0165775975       46.0889613881       28.3132152654  TIP3      6579            0.0000000000
     69568      6979  TIP3      H1             26.6558026421       45.5201238139       28.7736325261  TIP3      6579            0.0000000000
     69569      6979  TIP3      H2             25.4586735224       45.4228472087       27.8630153475  TIP3      6579            0.0000000000
     69570      6980  TIP3      OH2            37.0051012492       42.6725305172       33.7803278355  TIP3      6580            0.0000000000
     69571      6980  TIP3      H1             36.3341915479       43.3819163485       33.6924562059  TIP3      6580            0.0000000000
     69572      6980  TIP3      H2             37.0206739511       42.5208254933       34.7341291280  TIP3      6580            0.0000000000
     69573      6981  TIP3      OH2            23.0728286731       41.0099135202       32.3498645067  TIP3      6581            0.0000000000
     69574      6981  TIP3      H1             22.8517140160       41.5963840835       31.6024980160  TIP3      6581            0.0000000000
     69575      6981  TIP3      H2             22.4145099942       41.2734110149       33.0382942417  TIP3      6581            0.0000000000
     69576      6982  TIP3      OH2            30.4287814586       50.5190641825       25.9091394880  TIP3      6582            0.0000000000
     69577      6982  TIP3      H1             30.1356556138       50.2214682441       25.0335334903  TIP3      6582            0.0000000000
     69578      6982  TIP3      H2             30.1025193354       51.4434730036       25.9486080528  TIP3      6582            0.0000000000
     69579      6983  TIP3      OH2            25.6389366117       48.6823134959       32.6302617316  TIP3      6583            0.0000000000
     69580      6983  TIP3      H1             24.9096810799       49.3194140108       32.7781822660  TIP3      6583            0.0000000000
     69581      6983  TIP3      H2             26.3436834584       49.2729983258       32.3267762832  TIP3      6583            0.0000000000
     69582      6984  TIP3      OH2            33.7376980324       41.5499279371       28.6721573849  TIP3      6584            0.0000000000
     69583      6984  TIP3      H1             33.5324400317       40.7786782645       29.2111482130  TIP3      6584            0.0000000000
     69584      6984  TIP3      H2             34.4102086991       42.0029878154       29.2083695054  TIP3      6584            0.0000000000
     69585      6985  TIP3      OH2            22.6592914121       42.8884417949       30.3607454011  TIP3      6585            0.0000000000
     69586      6985  TIP3      H1             23.2977244230       43.5697497103       30.6895297136  TIP3      6585            0.0000000000
     69587      6985  TIP3      H2             23.1973850642       42.4639694499       29.6486700044  TIP3      6585            0.0000000000
     69588      6986  TIP3      OH2            24.0627010405       50.6628620875       33.4356435681  TIP3      6586            0.0000000000
     69589      6986  TIP3      H1             24.0372772513       51.5678780881       33.0644322077  TIP3      6586            0.0000000000
     69590      6986  TIP3      H2             23.1830902286       50.6000895793       33.8636778288  TIP3      6586            0.0000000000
     69591      6987  TIP3      OH2            20.1590276421       50.3270839746       24.2310713811  TIP3      6587            0.0000000000
     69592      6987  TIP3      H1             19.9061159466       50.5741561217       23.3283649190  TIP3      6587            0.0000000000
     69593      6987  TIP3      H2             20.2164841010       51.1797218230       24.6977931532  TIP3      6587            0.0000000000
     69594      6988  TIP3      OH2            33.7872519267       51.9562379688       30.9486300821  TIP3      6588            0.0000000000
     69595      6988  TIP3      H1             32.8214684508       52.0470942832       31.0905590541  TIP3      6588            0.0000000000
     69596      6988  TIP3      H2             34.0532208637       52.8829280102       30.7804358123  TIP3      6588            0.0000000000
     69597      6989  TIP3      OH2            34.0911097638       40.2486837146       32.3575204238  TIP3      6589            0.0000000000
     69598      6989  TIP3      H1             33.3559046589       40.8717899494       32.2958950116  TIP3      6589            0.0000000000
     69599      6989  TIP3      H2             34.7872371603       40.6706051474       31.8233746876  TIP3      6589            0.0000000000
     69600      6990  TIP3      OH2            27.0856538904       38.3543766477       29.8132333825  TIP3      6590            0.0000000000
     69601      6990  TIP3      H1             26.9565180664       37.3879358711       29.7567842152  TIP3      6590            0.0000000000
     69602      6990  TIP3      H2             26.2097991910       38.6699627014       30.1067218295  TIP3      6590            0.0000000000
     69603      6991  TIP3      OH2            32.0236433365       53.7261266538       27.5685131490  TIP3      6591            0.0000000000
     69604      6991  TIP3      H1             32.4726974667       53.0244907449       27.0595315249  TIP3      6591            0.0000000000
     69605      6991  TIP3      H2             32.3963783780       54.5363748271       27.1534635756  TIP3      6591            0.0000000000
     69606      6992  TIP3      OH2            33.2206571016       51.6629846564       26.0643549100  TIP3      6592            0.0000000000
     69607      6992  TIP3      H1             32.9351120430       50.9581307805       25.4567385674  TIP3      6592            0.0000000000
     69608      6992  TIP3      H2             33.2691007676       51.1828504349       26.9134375471  TIP3      6592            0.0000000000
     69609      6993  TIP3      OH2            34.8739610153       50.2350438848       34.5620488154  TIP3      6593            0.0000000000
     69610      6993  TIP3      H1             35.0184962888       49.6150707298       33.8147215652  TIP3      6593            0.0000000000
     69611      6993  TIP3      H2             35.0549839085       51.0996061193       34.1633915998  TIP3      6593            0.0000000000
     69612      6994  TIP3      OH2            29.3539542910       47.1632778293       24.3322306739  TIP3      6594            0.0000000000
     69613      6994  TIP3      H1             28.6518938994       47.7235111356       23.9444650288  TIP3      6594            0.0000000000
     69614      6994  TIP3      H2             30.0488187893       47.2400906279       23.6434007830  TIP3      6594            0.0000000000
     69615      6995  TIP3      OH2            29.4039532927       45.5947801567       21.4148385548  TIP3      6595            0.0000000000
     69616      6995  TIP3      H1             30.1502812177       45.6859723766       22.0108428182  TIP3      6595            0.0000000000
     69617      6995  TIP3      H2             29.7154176147       45.0361894619       20.6987349678  TIP3      6595            0.0000000000
     69618      6996  TIP3      OH2            36.7375928723       46.5549599544       32.6196059926  TIP3      6596            0.0000000000
     69619      6996  TIP3      H1             36.0740656121       47.2710927043       32.6809456866  TIP3      6596            0.0000000000
     69620      6996  TIP3      H2             37.2074704424       46.7863352587       31.7982775839  TIP3      6596            0.0000000000
     69621      6997  TIP3      OH2            32.7875852060       47.3827881334       25.2510390495  TIP3      6597            0.0000000000
     69622      6997  TIP3      H1             32.0372541606       47.6146203195       25.8506579747  TIP3      6597            0.0000000000
     69623      6997  TIP3      H2             33.2348970865       46.6804700478       25.7503096370  TIP3      6597            0.0000000000
     69624      6998  TIP3      OH2            32.7047409784       45.5374333328       34.3521687389  TIP3      6598            0.0000000000
     69625      6998  TIP3      H1             32.7338843532       46.3395163660       34.9028451046  TIP3      6598            0.0000000000
     69626      6998  TIP3      H2             32.0709259469       45.8405608549       33.6636210012  TIP3      6598            0.0000000000
     69627      6999  TIP3      OH2            24.4149951151       48.0383630884       27.1638561520  TIP3      6599            0.0000000000
     69628      6999  TIP3      H1             24.0844094209       47.6432462247       26.3192865507  TIP3      6599            0.0000000000
     69629      6999  TIP3      H2             25.0147364594       47.3344996269       27.5013875654  TIP3      6599            0.0000000000
     69630      7000  TIP3      OH2            25.7517943330       51.4491793553       29.8417639191  TIP3      6600            0.0000000000
     69631      7000  TIP3      H1             25.7004901498       50.8725227037       29.0674991610  TIP3      6600            0.0000000000
     69632      7000  TIP3      H2             26.5156019712       51.0713233520       30.3150470298  TIP3      6600            0.0000000000
     69633      7001  TIP3      OH2            24.7574063836       46.7746755086       30.8028705165  TIP3      6601            0.0000000000
     69634      7001  TIP3      H1             25.3297727480       46.8990317987       30.0220043048  TIP3      6601            0.0000000000
     69635      7001  TIP3      H2             25.1099225522       47.4340209993       31.4333395469  TIP3      6601            0.0000000000
     69636      7002  TIP3      OH2            31.1165011638       52.3165959918       31.5157713123  TIP3      6602            0.0000000000
     69637      7002  TIP3      H1             30.8487619776       52.9675975978       32.1712942925  TIP3      6602            0.0000000000
     69638      7002  TIP3      H2             30.8836756964       51.4632775279       31.9587334467  TIP3      6602            0.0000000000
     69639      7003  TIP3      OH2            25.6736906273       51.1864972175       35.5212166572  TIP3      6603            0.0000000000
     69640      7003  TIP3      H1             25.3240880310       51.9776224284       35.9804344339  TIP3      6603            0.0000000000
     69641      7003  TIP3      H2             25.0100425471       51.0236853275       34.8122225608  TIP3      6603            0.0000000000
     69642      7004  TIP3      OH2            31.6460820615       46.5315399687       22.9559238058  TIP3      6604            0.0000000000
     69643      7004  TIP3      H1             32.2305985783       46.7221015095       23.7221614540  TIP3      6604            0.0000000000
     69644      7004  TIP3      H2             32.0546326141       47.0347582297       22.2167379712  TIP3      6604            0.0000000000
     69645      7005  TIP3      OH2            22.6007464825       47.3736474724       34.7119824428  TIP3      6605            0.0000000000
     69646      7005  TIP3      H1             22.6675039698       48.0316092902       35.4241165630  TIP3      6605            0.0000000000
     69647      7005  TIP3      H2             21.6890820911       47.4665478088       34.4182794434  TIP3      6605            0.0000000000
     69648      7006  TIP3      OH2            29.3629561935       53.2814435774       26.4057901152  TIP3      6606            0.0000000000
     69649      7006  TIP3      H1             29.8412379742       53.5953938867       27.1804091609  TIP3      6606            0.0000000000
     69650      7006  TIP3      H2             28.8091379044       54.0309016599       26.1613471735  TIP3      6606            0.0000000000
     69651      7007  TIP3      OH2            23.9120964392       53.2260140465       36.2702039058  TIP3      6607            0.0000000000
     69652      7007  TIP3      H1             23.8963817239       53.1329379778       35.3064763747  TIP3      6607            0.0000000000
     69653      7007  TIP3      H2             22.9793314552       53.1387912048       36.5236786867  TIP3      6607            0.0000000000
     69654      7008  TIP3      OH2            35.3844318804       38.2986430956       22.8235743561  TIP3      6608            0.0000000000
     69655      7008  TIP3      H1             34.4334711889       38.4357909835       23.0490810670  TIP3      6608            0.0000000000
     69656      7008  TIP3      H2             35.5721093405       39.1223898002       22.3549311051  TIP3      6608            0.0000000000
     69657      7009  TIP3      OH2            23.4039728151       47.0618702374       24.7720282630  TIP3      6609            0.0000000000
     69658      7009  TIP3      H1             23.0958291960       47.8436460270       24.2502010914  TIP3      6609            0.0000000000
     69659      7009  TIP3      H2             22.7162599752       46.4253452336       24.5658057976  TIP3      6609            0.0000000000
     69660      7010  TIP3      OH2            19.4801262484       49.4703836406       33.6498147126  TIP3      6610            0.0000000000
     69661      7010  TIP3      H1             19.0117323934       49.4112941357       32.7748801858  TIP3      6610            0.0000000000
     69662      7010  TIP3      H2             19.5081964200       48.5083984307       33.8390671329  TIP3      6610            0.0000000000
     69663      7011  TIP3      OH2            19.2324944734       52.2114707565       30.4499580270  TIP3      6611            0.0000000000
     69664      7011  TIP3      H1             20.1886640073       52.0884618601       30.4295100545  TIP3      6611            0.0000000000
     69665      7011  TIP3      H2             19.1421061024       53.0179966602       30.9749149167  TIP3      6611            0.0000000000
     69666      7012  TIP3      OH2            37.4610953280       52.8979257033       36.1179936264  TIP3      6612            0.0000000000
     69667      7012  TIP3      H1             37.3683206428       51.9383569029       36.1061256779  TIP3      6612            0.0000000000
     69668      7012  TIP3      H2             36.6082854090       53.1602827405       36.5375505577  TIP3      6612            0.0000000000
     69669      7013  TIP3      OH2            28.4304859945       52.4603297850       34.9938214696  TIP3      6613            0.0000000000
     69670      7013  TIP3      H1             28.4973984059       53.3101860604       35.5011533198  TIP3      6613            0.0000000000
     69671      7013  TIP3      H2             27.5538966243       52.1330072539       35.2541093344  TIP3      6613            0.0000000000
     69672      7014  TIP3      OH2            28.8360092114      -56.6364965357       24.8039441983  TIP3      6614            0.0000000000
     69673      7014  TIP3      H1             28.7761315951      -56.7145304362       23.8346032406  TIP3      6614            0.0000000000
     69674      7014  TIP3      H2             28.8690897530      -55.6594145330       24.9443412339  TIP3      6614            0.0000000000
     69675      7015  TIP3      OH2            22.5135797193       55.0294587007       26.5932729973  TIP3      6615            0.0000000000
     69676      7015  TIP3      H1             22.6406138354       54.6644018539       27.4930035933  TIP3      6615            0.0000000000
     69677      7015  TIP3      H2             21.6469463153       54.6563456053       26.3601755012  TIP3      6615            0.0000000000
     69678      7016  TIP3      OH2            31.9201639421       55.3998130668       21.8070453807  TIP3      6616            0.0000000000
     69679      7016  TIP3      H1             32.2947340386       54.6423251731       21.3414295607  TIP3      6616            0.0000000000
     69680      7016  TIP3      H2             31.9579870040       55.1311787284       22.7361717785  TIP3      6616            0.0000000000
     69681      7017  TIP3      OH2            31.5917991409       55.2904141474       24.5615614485  TIP3      6617            0.0000000000
     69682      7017  TIP3      H1             30.6474609771       55.4213358260       24.7537153101  TIP3      6617            0.0000000000
     69683      7017  TIP3      H2             31.8774050849       54.5875612618       25.1522566462  TIP3      6617            0.0000000000
     69684      7018  TIP3      OH2            34.6022126298       44.3919165022       36.6093950306  TIP3      6618            0.0000000000
     69685      7018  TIP3      H1             34.1664220335       44.8595633297       35.8824136631  TIP3      6618            0.0000000000
     69686      7018  TIP3      H2             34.6215814614       43.4750150361       36.2955164214  TIP3      6618            0.0000000000
     69687      7019  TIP3      OH2            21.7221869568       50.7937942527       34.6277896912  TIP3      6619            0.0000000000
     69688      7019  TIP3      H1             22.0128147981       50.4122634030       35.4811663306  TIP3      6619            0.0000000000
     69689      7019  TIP3      H2             20.8934012765       50.3925153574       34.3371737420  TIP3      6619            0.0000000000
     69690      7020  TIP3      OH2            24.3946077899       39.2449583030       30.5881642672  TIP3      6620            0.0000000000
     69691      7020  TIP3      H1             23.5076961560       39.1536555213       30.1897772827  TIP3      6620            0.0000000000
     69692      7020  TIP3      H2             24.3298204373       40.1029859731       31.0342616252  TIP3      6620            0.0000000000
     69693      7021  TIP3      OH2            29.0529197495       38.9586702930       33.9503678112  TIP3      6621            0.0000000000
     69694      7021  TIP3      H1             29.4550496197       38.5331007535       34.7285369422  TIP3      6621            0.0000000000
     69695      7021  TIP3      H2             28.0864151249       38.7951433152       34.0864573973  TIP3      6621            0.0000000000
     69696      7022  TIP3      OH2            32.3634327443       42.7444979835       34.8208352619  TIP3      6622            0.0000000000
     69697      7022  TIP3      H1             31.8199911079       42.5777273969       35.6282253311  TIP3      6622            0.0000000000
     69698      7022  TIP3      H2             32.1911290764       43.6666042541       34.5839150004  TIP3      6622            0.0000000000
     69699      7023  TIP3      OH2            33.1495059141       47.5646622656       20.6184350005  TIP3      6623            0.0000000000
     69700      7023  TIP3      H1             33.1345678621       47.3690243393       19.6717503354  TIP3      6623            0.0000000000
     69701      7023  TIP3      H2             33.9654768265       48.0027660698       20.7896510675  TIP3      6623            0.0000000000
     69702      7024  TIP3      OH2            24.4959839297       44.2111279493       31.7444188246  TIP3      6624            0.0000000000
     69703      7024  TIP3      H1             23.7974090359       44.1891626837       32.4255191193  TIP3      6624            0.0000000000
     69704      7024  TIP3      H2             24.4874375546       45.1482710023       31.4489462712  TIP3      6624            0.0000000000
     69705      7025  TIP3      OH2            24.4714011347       44.4093322941       26.6463755315  TIP3      6625            0.0000000000
     69706      7025  TIP3      H1             23.5509587300       44.0913888181       26.5395408681  TIP3      6625            0.0000000000
     69707      7025  TIP3      H2             24.8864090915       44.0503958380       25.8429327863  TIP3      6625            0.0000000000
     69708      7026  TIP3      OH2            29.9850446371       44.8336616640       25.4221461491  TIP3      6626            0.0000000000
     69709      7026  TIP3      H1             29.5911628760       45.6806962662       25.1194487303  TIP3      6626            0.0000000000
     69710      7026  TIP3      H2             30.7185325159       44.7116266480       24.7998151945  TIP3      6626            0.0000000000
     69711      7027  TIP3      OH2            29.0859617437       45.0504589608       36.8981141010  TIP3      6627            0.0000000000
     69712      7027  TIP3      H1             28.5304886895       44.3000350674       37.2207009010  TIP3      6627            0.0000000000
     69713      7027  TIP3      H2             29.9176100788       44.9146940651       37.3794365206  TIP3      6627            0.0000000000
     69714      7028  TIP3      OH2            31.0155418649       44.3189654498       28.2734033011  TIP3      6628            0.0000000000
     69715      7028  TIP3      H1             30.7846422763       44.8988566061       27.5281101338  TIP3      6628            0.0000000000
     69716      7028  TIP3      H2             31.1621610249       43.4716211819       27.8042362866  TIP3      6628            0.0000000000
     69717      7029  TIP3      OH2            22.1814407257       44.5132033457       33.5254533121  TIP3      6629            0.0000000000
     69718      7029  TIP3      H1             22.1936249356       44.9102245445       34.4134302935  TIP3      6629            0.0000000000
     69719      7029  TIP3      H2             21.7108913937       43.6879661593       33.6834594657  TIP3      6629            0.0000000000
     69720      7030  TIP3      OH2            18.8001849948       41.5925256254       27.4552749749  TIP3      6630            0.0000000000
     69721      7030  TIP3      H1             19.4805714422       41.6221424599       28.1422800150  TIP3      6630            0.0000000000
     69722      7030  TIP3      H2             19.2647861800       41.2290194500       26.6791196711  TIP3      6630            0.0000000000
     69723      7031  TIP3      OH2            20.0697427350       42.3626980573       22.8405838244  TIP3      6631            0.0000000000
     69724      7031  TIP3      H1             20.5750106134       42.9745607838       22.2650970224  TIP3      6631            0.0000000000
     69725      7031  TIP3      H2             19.3792994427       42.9381358902       23.1667326956  TIP3      6631            0.0000000000
     69726      7032  TIP3      OH2            30.2526863034       45.9417783963       32.8866170079  TIP3      6632            0.0000000000
     69727      7032  TIP3      H1             30.5985920751       45.2748318728       32.2643098284  TIP3      6632            0.0000000000
     69728      7032  TIP3      H2             29.8031827258       45.3962265229       33.5563446295  TIP3      6632            0.0000000000
     69729      7033  TIP3      OH2            27.0417948495       41.8799444308       27.6848278979  TIP3      6633            0.0000000000
     69730      7033  TIP3      H1             26.1084834621       41.9139093413       27.9868810537  TIP3      6633            0.0000000000
     69731      7033  TIP3      H2             27.5372484533       41.7782658667       28.5113698113  TIP3      6633            0.0000000000
     69732      7034  TIP3      OH2            21.8657907350       43.4704234156       26.5502755156  TIP3      6634            0.0000000000
     69733      7034  TIP3      H1             20.9691076364       43.6031612886       26.1745244826  TIP3      6634            0.0000000000
     69734      7034  TIP3      H2             22.1563751125       42.6370209992       26.1567661293  TIP3      6634            0.0000000000
     69735      7035  TIP3      OH2            25.5128209631       43.4901885954       24.1649260352  TIP3      6635            0.0000000000
     69736      7035  TIP3      H1             26.4559105494       43.6170749888       24.3680875784  TIP3      6635            0.0000000000
     69737      7035  TIP3      H2             25.2795091632       44.1804059218       23.5247174156  TIP3      6635            0.0000000000
     69738      7036  TIP3      OH2            31.4520841228       41.1147878112       30.9433087917  TIP3      6636            0.0000000000
     69739      7036  TIP3      H1             30.7568828550       41.2129075960       31.6272020891  TIP3      6636            0.0000000000
     69740      7036  TIP3      H2             30.9467937019       40.9202160023       30.1425712869  TIP3      6636            0.0000000000
     69741      7037  TIP3      OH2            24.1891450908       44.7151202288       21.7651864991  TIP3      6637            0.0000000000
     69742      7037  TIP3      H1             23.6288094552       44.3301228010       21.0666648330  TIP3      6637            0.0000000000
     69743      7037  TIP3      H2             25.0062997960       44.8974278381       21.2992243185  TIP3      6637            0.0000000000
     69744      7038  TIP3      OH2            22.3118254449       49.2676837370       36.8092764780  TIP3      6638            0.0000000000
     69745      7038  TIP3      H1             23.0577099242       49.4871133144       37.4183425209  TIP3      6638            0.0000000000
     69746      7038  TIP3      H2             21.5722094743       49.3965170685       37.4336896706  TIP3      6638            0.0000000000
     69747      7039  TIP3      OH2            28.3383034389       44.6554915373       29.5798782426  TIP3      6639            0.0000000000
     69748      7039  TIP3      H1             28.9222727721       44.1089490786       29.0384536424  TIP3      6639            0.0000000000
     69749      7039  TIP3      H2             28.1990602459       44.1178846067       30.3702436336  TIP3      6639            0.0000000000
     69750      7040  TIP3      OH2            23.3544073169       40.7983944899       26.0265483060  TIP3      6640            0.0000000000
     69751      7040  TIP3      H1             23.0362313941       39.8795019946       25.9628579982  TIP3      6640            0.0000000000
     69752      7040  TIP3      H2             24.1250736473       40.7622131752       25.4388541867  TIP3      6640            0.0000000000
     69753      7041  TIP3      OH2            26.9776959974       43.0083048786       31.9890318937  TIP3      6641            0.0000000000
     69754      7041  TIP3      H1             26.1408268748       43.5002658614       32.0990238625  TIP3      6641            0.0000000000
     69755      7041  TIP3      H2             27.5147822305       43.3271545174       32.7416922213  TIP3      6641            0.0000000000
     69756      7042  TIP3      OH2            27.5452051882       49.2346810164       23.6921523805  TIP3      6642            0.0000000000
     69757      7042  TIP3      H1             26.7659969819       48.7428113255       23.3435849204  TIP3      6642            0.0000000000
     69758      7042  TIP3      H2             27.3666773908       49.3104548276       24.6432219707  TIP3      6642            0.0000000000
     69759      7043  TIP3      OH2            34.7042807232       48.3871519094       32.4880242962  TIP3      6643            0.0000000000
     69760      7043  TIP3      H1             35.3090354230       48.8614650000       31.8935453704  TIP3      6643            0.0000000000
     69761      7043  TIP3      H2             33.8557604536       48.4863950775       32.0062167915  TIP3      6643            0.0000000000
     69762      7044  TIP3      OH2            31.4199664025       42.0249960849       21.8690058805  TIP3      6644            0.0000000000
     69763      7044  TIP3      H1             30.4942733059       42.1684204376       21.7262218707  TIP3      6644            0.0000000000
     69764      7044  TIP3      H2             31.7229740934       42.9005954998       22.1877162565  TIP3      6644            0.0000000000
     69765      7045  TIP3      OH2            29.0464340209       49.4462905248       34.9202837506  TIP3      6645            0.0000000000
     69766      7045  TIP3      H1             28.7009515937       49.0518529104       35.7285821495  TIP3      6645            0.0000000000
     69767      7045  TIP3      H2             28.8276149731       50.3780779922       35.0059254971  TIP3      6645            0.0000000000
     69768      7046  TIP3      OH2            32.1219422355       43.9347671262       23.5482633828  TIP3      6646            0.0000000000
     69769      7046  TIP3      H1             33.0314483597       43.8015313726       23.8860857939  TIP3      6646            0.0000000000
     69770      7046  TIP3      H2             32.1952089895       44.7399895047       23.0066016603  TIP3      6646            0.0000000000
     69771      7047  TIP3      OH2            22.6557577682       48.5779184872       29.4726942070  TIP3      6647            0.0000000000
     69772      7047  TIP3      H1             23.3821323624       48.5309600860       28.8204822178  TIP3      6647            0.0000000000
     69773      7047  TIP3      H2             22.7207094772       47.7216606074       29.9323653273  TIP3      6647            0.0000000000
     69774      7048  TIP3      OH2            29.6852447196       50.6893478183       22.7687604355  TIP3      6648            0.0000000000
     69775      7048  TIP3      H1             29.3267623704       51.5401416105       23.0691693147  TIP3      6648            0.0000000000
     69776      7048  TIP3      H2             28.9286249910       50.0840935246       22.8876896149  TIP3      6648            0.0000000000
     69777      7049  TIP3      OH2            19.6411209903       47.0459475835       34.7790421253  TIP3      6649            0.0000000000
     69778      7049  TIP3      H1             19.8609670279       46.5554522334       35.5983495444  TIP3      6649            0.0000000000
     69779      7049  TIP3      H2             19.0540620149       46.3925908332       34.3287639664  TIP3      6649            0.0000000000
     69780      7050  TIP3      OH2            26.6669076116       46.5470048487       36.9669843611  TIP3      6650            0.0000000000
     69781      7050  TIP3      H1             26.3708065665       46.3212351251       36.0754086870  TIP3      6650            0.0000000000
     69782      7050  TIP3      H2             27.6084057205       46.2806053617       36.9510322333  TIP3      6650            0.0000000000
     69783      7051  TIP3      OH2            31.3243383368       51.9106925092       34.8606992235  TIP3      6651            0.0000000000
     69784      7051  TIP3      H1             30.3958481055       52.0870608330       34.6308577171  TIP3      6651            0.0000000000
     69785      7051  TIP3      H2             31.3133755709       52.1617762752       35.8039035368  TIP3      6651            0.0000000000
     69786      7052  TIP3      OH2            37.0008309530       44.1209123475       23.2813868581  TIP3      6652            0.0000000000
     69787      7052  TIP3      H1             36.4868406512       43.7498325449       22.5429763841  TIP3      6652            0.0000000000
     69788      7052  TIP3      H2             37.1226933226       45.0390833357       22.9609195970  TIP3      6652            0.0000000000
     69789      7053  TIP3      OH2            37.0046998084       49.9446400897       36.0890807080  TIP3      6653            0.0000000000
     69790      7053  TIP3      H1             36.1240228027       50.1741977799       35.7047787119  TIP3      6653            0.0000000000
     69791      7053  TIP3      H2             37.5738892939       49.9179236738       35.2962589377  TIP3      6653            0.0000000000
     69792      7054  TIP3      OH2            35.3333055176       52.9145695242       23.6912847480  TIP3      6654            0.0000000000
     69793      7054  TIP3      H1             34.9341880163       52.0932871719       24.0160378564  TIP3      6654            0.0000000000
     69794      7054  TIP3      H2             35.5886080609       52.7485903394       22.7900463096  TIP3      6654            0.0000000000
     69795      7055  TIP3      OH2            32.5017092945       47.7400229432       30.7478826491  TIP3      6655            0.0000000000
     69796      7055  TIP3      H1             31.5586328020       47.5050444102       30.6807675948  TIP3      6655            0.0000000000
     69797      7055  TIP3      H2             32.9372819170       46.9552752633       30.3693707260  TIP3      6655            0.0000000000
     69798      7056  TIP3      OH2            25.0303421945       52.0544533521       26.8697106768  TIP3      6656            0.0000000000
     69799      7056  TIP3      H1             25.5458053076       52.8510853042       26.6574536463  TIP3      6656            0.0000000000
     69800      7056  TIP3      H2             24.1504400022       52.2906810890       26.5471911678  TIP3      6656            0.0000000000
     69801      7057  TIP3      OH2            26.4668732784       49.7195460176       26.4151205918  TIP3      6657            0.0000000000
     69802      7057  TIP3      H1             26.1827579579       50.6510830372       26.4803540470  TIP3      6657            0.0000000000
     69803      7057  TIP3      H2             25.7120937550       49.2563278575       26.8299467779  TIP3      6657            0.0000000000
     69804      7058  TIP3      OH2            26.9303480795       53.8785301312       32.7549917124  TIP3      6658            0.0000000000
     69805      7058  TIP3      H1             27.3345526479       54.7328717787       32.5243974114  TIP3      6658            0.0000000000
     69806      7058  TIP3      H2             27.5067194311       53.5824952787       33.4844193318  TIP3      6658            0.0000000000
     69807      7059  TIP3      OH2            25.1492547179       54.7227657262       25.9742731438  TIP3      6659            0.0000000000
     69808      7059  TIP3      H1             24.1841802079       54.8598397632       26.0432635536  TIP3      6659            0.0000000000
     69809      7059  TIP3      H2             25.4947765173       55.5734896233       26.3097780976  TIP3      6659            0.0000000000
     69810      7060  TIP3      OH2            30.4816897032       49.9504588422       32.4337745723  TIP3      6660            0.0000000000
     69811      7060  TIP3      H1             30.0893676490       49.7348545878       33.3006869820  TIP3      6660            0.0000000000
     69812      7060  TIP3      H2             31.0892059558       49.2166142461       32.2596391104  TIP3      6660            0.0000000000
     69813      7061  TIP3      OH2            33.1997797402       54.5280511864       34.9290289998  TIP3      6661            0.0000000000
     69814      7061  TIP3      H1             32.5645683073       53.9744704100       34.4206534678  TIP3      6661            0.0000000000
     69815      7061  TIP3      H2             33.4431180300       55.1898990746       34.2676759049  TIP3      6661            0.0000000000
     69816      7062  TIP3      OH2            37.2288052688       55.3306154662       21.7493465116  TIP3      6662            0.0000000000
     69817      7062  TIP3      H1             37.9395209381       55.9849066224       21.5603712113  TIP3      6662            0.0000000000
     69818      7062  TIP3      H2             36.5259126944       55.9566730538       22.0215633434  TIP3      6662            0.0000000000
     69819      7063  TIP3      OH2            21.2956167450       41.7421395517       34.2849440834  TIP3      6663            0.0000000000
     69820      7063  TIP3      H1             20.3946226542       42.1060691592       34.2812307896  TIP3      6663            0.0000000000
     69821      7063  TIP3      H2             21.1961213381       40.9031047929       34.7644007345  TIP3      6663            0.0000000000
     69822      7064  TIP3      OH2            33.5658038281       49.5914834609       23.7352888593  TIP3      6664            0.0000000000
     69823      7064  TIP3      H1             33.2972841497       48.8339079571       24.2957554541  TIP3      6664            0.0000000000
     69824      7064  TIP3      H2             34.4993873582       49.6820978314       23.9580080425  TIP3      6664            0.0000000000
     69825      7065  TIP3      OH2            20.9394282833       53.5432930816       32.7482691167  TIP3      6665            0.0000000000
     69826      7065  TIP3      H1             21.1949022736       52.6154384350       32.7234997168  TIP3      6665            0.0000000000
     69827      7065  TIP3      H2             21.1956207388       53.8358342683       33.6318903233  TIP3      6665            0.0000000000
     69828      7066  TIP3      OH2            25.6745297464       51.5735704055       22.4413093020  TIP3      6666            0.0000000000
     69829      7066  TIP3      H1             25.8915884857       51.0572464183       23.2143701368  TIP3      6666            0.0000000000
     69830      7066  TIP3      H2             25.7342057196       52.5057000292       22.7211616890  TIP3      6666            0.0000000000
     69831      7067  TIP3      OH2            22.2445520295       48.8190087216       23.0042379426  TIP3      6667            0.0000000000
     69832      7067  TIP3      H1             21.4861701807       49.2023171582       23.4729856677  TIP3      6667            0.0000000000
     69833      7067  TIP3      H2             22.6941572363       49.6064995228       22.6541806093  TIP3      6667            0.0000000000
     69834      7068  TIP3      OH2            30.0287492073       41.5141991575       33.2240809125  TIP3      6668            0.0000000000
     69835      7068  TIP3      H1             30.7350227500       41.5715875896       33.8795230797  TIP3      6668            0.0000000000
     69836      7068  TIP3      H2             29.6476796799       40.6309315017       33.4040907655  TIP3      6668            0.0000000000
     69837      7069  TIP3      OH2            30.7896564671       41.1333798185       24.3292499381  TIP3      6669            0.0000000000
     69838      7069  TIP3      H1             31.0445049074       41.6008591534       23.5123173377  TIP3      6669            0.0000000000
     69839      7069  TIP3      H2             31.3722733271       41.5407095139       24.9870328948  TIP3      6669            0.0000000000
     69840      7070  TIP3      OH2            28.4942077721       53.2672002487       23.1859257226  TIP3      6670            0.0000000000
     69841      7070  TIP3      H1             27.6569434019       53.7659971866       23.2210485401  TIP3      6670            0.0000000000
     69842      7070  TIP3      H2             29.0080314014       53.7688982677       22.5310885670  TIP3      6670            0.0000000000
     69843      7071  TIP3      OH2            28.0001263318       42.8723469092       25.1327895309  TIP3      6671            0.0000000000
     69844      7071  TIP3      H1             28.8207708792       43.4015873445       25.2020954516  TIP3      6671            0.0000000000
     69845      7071  TIP3      H2             27.7582675912       42.7268524138       26.0710113771  TIP3      6671            0.0000000000
     69846      7072  TIP3      OH2            28.5538625966       43.8630012527       34.3365687364  TIP3      6672            0.0000000000
     69847      7072  TIP3      H1             28.6541771764       44.4393850901       35.1166508307  TIP3      6672            0.0000000000
     69848      7072  TIP3      H2             29.2139291088       43.1688661502       34.4478232780  TIP3      6672            0.0000000000
     69849      7073  TIP3      OH2            28.8780803311       39.9297738479       26.0755537224  TIP3      6673            0.0000000000
     69850      7073  TIP3      H1             28.5470374561       40.5742190272       26.7232577362  TIP3      6673            0.0000000000
     69851      7073  TIP3      H2             29.5613263748       40.4685793329       25.6087132878  TIP3      6673            0.0000000000
     69852      7074  TIP3      OH2            25.8296396070       54.3235235411       23.1607676739  TIP3      6674            0.0000000000
     69853      7074  TIP3      H1             25.9747353215       55.1277030532       22.6401261235  TIP3      6674            0.0000000000
     69854      7074  TIP3      H2             25.6042966008       54.6341095039       24.0562448710  TIP3      6674            0.0000000000
     69855      7075  TIP3      OH2            24.5560770765       41.0366305201       22.7693304513  TIP3      6675            0.0000000000
     69856      7075  TIP3      H1             24.4596443923       41.9188365517       23.1355512214  TIP3      6675            0.0000000000
     69857      7075  TIP3      H2             25.4378506594       40.7521270641       23.0206999063  TIP3      6675            0.0000000000
     69858      7076  TIP3      OH2            34.7625432967       41.7526317290       35.1885300663  TIP3      6676            0.0000000000
     69859      7076  TIP3      H1             33.8226524574       42.0412430592       35.0705927040  TIP3      6676            0.0000000000
     69860      7076  TIP3      H2             35.0666741900       41.7514530164       34.2677982979  TIP3      6676            0.0000000000
     69861      7077  TIP3      OH2            33.3532107948       45.5302555776       29.2393531374  TIP3      6677            0.0000000000
     69862      7077  TIP3      H1             32.5405012472       45.0937799956       28.9321683733  TIP3      6677            0.0000000000
     69863      7077  TIP3      H2             33.8151297209       44.8272704231       29.7488019608  TIP3      6677            0.0000000000
     69864      7078  TIP3      OH2            22.8077103979       51.4263016657       21.8776722593  TIP3      6678            0.0000000000
     69865      7078  TIP3      H1             23.4088627955       52.1507092712       22.0878289819  TIP3      6678            0.0000000000
     69866      7078  TIP3      H2             23.2502572201       51.0266547553       21.1049237005  TIP3      6678            0.0000000000
     69867      7079  TIP3      OH2            21.1599261655       44.0894111910       20.9923064860  TIP3      6679            0.0000000000
     69868      7079  TIP3      H1             21.0875096996       45.0494989928       21.1280601697  TIP3      6679            0.0000000000
     69869      7079  TIP3      H2             20.2656903419       43.8959755089       20.6671947542  TIP3      6679            0.0000000000
     69870      7080  TIP3      OH2            34.4221317577       54.7371038552       30.9014729118  TIP3      6680            0.0000000000
     69871      7080  TIP3      H1             34.2998048740       55.4523045135       30.2283100378  TIP3      6680            0.0000000000
     69872      7080  TIP3      H2             35.3765368926       54.8537711754       31.0759437722  TIP3      6680            0.0000000000
     69873      7081  TIP3      OH2            21.8768318777       38.9322031160       29.6689042600  TIP3      6681            0.0000000000
     69874      7081  TIP3      H1             21.7246788194       38.9318283488       28.6894656260  TIP3      6681            0.0000000000
     69875      7081  TIP3      H2             21.5104336745       38.0592375611       29.9217573323  TIP3      6681            0.0000000000
     69876      7082  TIP3      OH2            20.8674739734       52.8261469467       25.7986348613  TIP3      6682            0.0000000000
     69877      7082  TIP3      H1             20.0245235419       53.3129105232       25.8012917632  TIP3      6682            0.0000000000
     69878      7082  TIP3      H2             21.3879411663       53.3288437472       25.1569376047  TIP3      6682            0.0000000000
     69879      7083  TIP3      OH2            20.1328394142       55.4553844533       37.1048712183  TIP3      6683            0.0000000000
     69880      7083  TIP3      H1             20.6914249625       55.2462959576       37.8796480665  TIP3      6683            0.0000000000
     69881      7083  TIP3      H2             19.6668319054       54.6275371180       36.9347159198  TIP3      6683            0.0000000000
     69882      7084  TIP3      OH2            24.7454172969       54.3567693000       38.7530642345  TIP3      6684            0.0000000000
     69883      7084  TIP3      H1             25.5366216025       53.8991807480       39.0507809916  TIP3      6684            0.0000000000
     69884      7084  TIP3      H2             24.7344273519       54.1384654679       37.7979511657  TIP3      6684            0.0000000000
     69885      7085  TIP3      OH2            31.3058542724       52.7632132838       37.4548222915  TIP3      6685            0.0000000000
     69886      7085  TIP3      H1             30.9660666019       51.8844310733       37.7184292510  TIP3      6685            0.0000000000
     69887      7085  TIP3      H2             32.0538816223       52.8858944546       38.0644459439  TIP3      6685            0.0000000000
     69888      7086  TIP3      OH2            20.0553398688       49.2635797650       38.0696841058  TIP3      6686            0.0000000000
     69889      7086  TIP3      H1             20.1857220985       48.3171114699       37.8281059081  TIP3      6686            0.0000000000
     69890      7086  TIP3      H2             19.2120065079       49.4989962590       37.6614520400  TIP3      6686            0.0000000000
     69891      7087  TIP3      OH2            26.7159705139       49.2308725932       37.4939265508  TIP3      6687            0.0000000000
     69892      7087  TIP3      H1             26.3738417681       49.5196484607       36.6277354466  TIP3      6687            0.0000000000
     69893      7087  TIP3      H2             26.8361031775       48.2631311524       37.3971249013  TIP3      6687            0.0000000000
     69894      7088  TIP3      OH2            32.4273068860       49.1144276584       34.8850988922  TIP3      6688            0.0000000000
     69895      7088  TIP3      H1             33.1941090891       49.7216514625       34.7847557015  TIP3      6688            0.0000000000
     69896      7088  TIP3      H2             31.6963614573       49.7451452448       34.9341274764  TIP3      6688            0.0000000000
     69897      7089  TIP3      OH2            20.9053763898       46.4896789981       37.4770324793  TIP3      6689            0.0000000000
     69898      7089  TIP3      H1             21.2993633089       45.6072677124       37.3887845012  TIP3      6689            0.0000000000
     69899      7089  TIP3      H2             20.6446794289       46.4701290903       38.4282127519  TIP3      6689            0.0000000000
     69900      7090  TIP3      OH2            25.5785901138       47.5836883107       22.5175144779  TIP3      6690            0.0000000000
     69901      7090  TIP3      H1             25.0646520066       47.0964628987       23.1759374174  TIP3      6690            0.0000000000
     69902      7090  TIP3      H2             25.8002673613       46.9253743752       21.8534728074  TIP3      6690            0.0000000000
     69903      7091  TIP3      OH2            24.8299670812       45.4402086504       34.8597251918  TIP3      6691            0.0000000000
     69904      7091  TIP3      H1             24.2190796877       46.1437649503       35.1289236576  TIP3      6691            0.0000000000
     69905      7091  TIP3      H2             25.1894490877       45.7939035020       34.0286388262  TIP3      6691            0.0000000000
     69906      7092  TIP3      OH2            29.8659488133       47.9645472484       38.1793824720  TIP3      6692            0.0000000000
     69907      7092  TIP3      H1             30.8257844964       48.0036001672       38.0938185549  TIP3      6692            0.0000000000
     69908      7092  TIP3      H2             29.7030288913       47.2168130977       38.7721482748  TIP3      6692            0.0000000000
     69909      7093  TIP3      OH2            25.1982378544       42.8152779061       35.9323128065  TIP3      6693            0.0000000000
     69910      7093  TIP3      H1             25.3281015849       42.0863750668       35.3045046188  TIP3      6693            0.0000000000
     69911      7093  TIP3      H2             25.1761334189       43.6118450415       35.3669637860  TIP3      6693            0.0000000000
     69912      7094  TIP3      OH2            25.6074291497       41.1861992377       33.4554146827  TIP3      6694            0.0000000000
     69913      7094  TIP3      H1             26.1319866430       41.6480356213       32.7619840377  TIP3      6694            0.0000000000
     69914      7094  TIP3      H2             24.7298412959       41.0922830431       33.0252668252  TIP3      6694            0.0000000000
     69915      7095  TIP3      OH2            27.1659975343       46.6396339177       33.6928577449  TIP3      6695            0.0000000000
     69916      7095  TIP3      H1             27.9191771003       46.4850114582       33.1104718557  TIP3      6695            0.0000000000
     69917      7095  TIP3      H2             26.8186804742       47.4932634822       33.3872653044  TIP3      6695            0.0000000000
     69918      7096  TIP3      OH2            31.5700291321       44.4361031408       38.6904252603  TIP3      6696            0.0000000000
     69919      7096  TIP3      H1             31.7820444022       43.4966535998       38.5898255939  TIP3      6696            0.0000000000
     69920      7096  TIP3      H2             32.4425654422       44.8603181957       38.6847354452  TIP3      6696            0.0000000000
     69921      7097  TIP3      OH2            32.8921496863       47.2195455990       36.8180364078  TIP3      6697            0.0000000000
     69922      7097  TIP3      H1             32.6348984121       47.9452402659       36.2025635260  TIP3      6697            0.0000000000
     69923      7097  TIP3      H2             33.8500161082       47.1744559154       36.6194870970  TIP3      6697            0.0000000000
     69924      7098  TIP3      OH2            23.6694649388       44.0410432068       37.8610450317  TIP3      6698            0.0000000000
     69925      7098  TIP3      H1             22.8935044538       43.4805083838       37.6414670010  TIP3      6698            0.0000000000
     69926      7098  TIP3      H2             24.3299712845       43.6981945386       37.2284459604  TIP3      6698            0.0000000000
     69927      7099  TIP3      OH2            26.4048113257       38.6259627708       33.8750913479  TIP3      6699            0.0000000000
     69928      7099  TIP3      H1             26.2679960470       39.5954192544       33.7582517982  TIP3      6699            0.0000000000
     69929      7099  TIP3      H2             25.6481961812       38.2712457330       33.3730654978  TIP3      6699            0.0000000000
     69930      7100  TIP3      OH2            27.6739746087       42.9547641954       37.4494997915  TIP3      6700            0.0000000000
     69931      7100  TIP3      H1             27.3949905196       42.7379069158       38.3570135068  TIP3      6700            0.0000000000
     69932      7100  TIP3      H2             26.8759158829       42.7591156569       36.9203924660  TIP3      6700            0.0000000000
     69933      7101  TIP3      OH2            30.3886524198       42.0902791756       36.5144047686  TIP3      6701            0.0000000000
     69934      7101  TIP3      H1             29.4257257207       42.1335130461       36.6541930203  TIP3      6701            0.0000000000
     69935      7101  TIP3      H2             30.6778021785       41.4617351308       37.1959058282  TIP3      6701            0.0000000000
     69936      7102  TIP3      OH2            31.9910027961       40.7269555548       38.4881323949  TIP3      6702            0.0000000000
     69937      7102  TIP3      H1             31.9196091421       39.7560072309       38.5032680580  TIP3      6702            0.0000000000
     69938      7102  TIP3      H2             31.6961958569       41.0068718782       39.3847533527  TIP3      6702            0.0000000000
     69939      7103  TIP3      OH2            21.8032801710       41.9683372543       37.5635734649  TIP3      6703            0.0000000000
     69940      7103  TIP3      H1             22.0340746663       41.2354070218       36.9604924707  TIP3      6703            0.0000000000
     69941      7103  TIP3      H2             21.7084549695       41.5137612458       38.4249661944  TIP3      6703            0.0000000000
     69942      7104  TIP3      OH2            26.6124032513       37.9725538567       36.5539977349  TIP3      6704            0.0000000000
     69943      7104  TIP3      H1             27.3233444316       37.2964776998       36.5223491928  TIP3      6704            0.0000000000
     69944      7104  TIP3      H2             26.5170025932       38.1872251367       35.6071324661  TIP3      6704            0.0000000000
     69945      7105  TIP3      OH2            26.9754266732       39.6201806981       38.6232923097  TIP3      6705            0.0000000000
     69946      7105  TIP3      H1             26.8277544235       39.1278734159       37.7790292015  TIP3      6705            0.0000000000
     69947      7105  TIP3      H2             26.3758802218       40.3829084516       38.5352147781  TIP3      6705            0.0000000000
     69948      7106  TIP3      OH2            19.6175845708       54.6144246257       28.1270383053  TIP3      6706            0.0000000000
     69949      7106  TIP3      H1             19.2597284037       53.7378204537       28.3168988672  TIP3      6706            0.0000000000
     69950      7106  TIP3      H2             19.8171875795       54.9624877638       29.0116824283  TIP3      6706            0.0000000000
     69951      7107  TIP3      OH2            37.1469586834       55.4242895769       31.0985877555  TIP3      6707            0.0000000000
     69952      7107  TIP3      H1             37.1491357126       55.6078833997       32.0540783747  TIP3      6707            0.0000000000
     69953      7107  TIP3      H2             37.8500847416       55.9953234183       30.7775576832  TIP3      6707            0.0000000000
     69954      7108  TIP3      OH2            36.7267211382       54.9941400715       34.0212326380  TIP3      6708            0.0000000000
     69955      7108  TIP3      H1             36.2366834845       54.2376434650       33.6524746949  TIP3      6708            0.0000000000
     69956      7108  TIP3      H2             37.2532397047       54.5794027323       34.7231271525  TIP3      6708            0.0000000000
     69957      7109  TIP3      OH2            35.1728185062       50.7535023220       38.6739644378  TIP3      6709            0.0000000000
     69958      7109  TIP3      H1             34.2878064904       50.6949433814       39.0754042367  TIP3      6709            0.0000000000
     69959      7109  TIP3      H2             35.5472095946       51.5497606166       39.1274905752  TIP3      6709            0.0000000000
     69960      7110  TIP3      OH2            36.4802137708       49.0467315959       24.1350015191  TIP3      6710            0.0000000000
     69961      7110  TIP3      H1             37.3310375564       49.4612969567       24.3407419310  TIP3      6710            0.0000000000
     69962      7110  TIP3      H2             36.4735507674       48.3166999704       24.8056195467  TIP3      6710            0.0000000000
     69963      7111  TIP3      OH2            36.8510214107       47.1205007942       25.9912459267  TIP3      6711            0.0000000000
     69964      7111  TIP3      H1             36.1133532974       46.6224604505       26.4103437987  TIP3      6711            0.0000000000
     69965      7111  TIP3      H2             37.4442955854       47.2945990417       26.7525984602  TIP3      6711            0.0000000000
     69966      7112  TIP3      OH2            36.6034603629       49.8566725217       30.9807709893  TIP3      6712            0.0000000000
     69967      7112  TIP3      H1             37.4444890193       49.4913064690       30.6496812431  TIP3      6712            0.0000000000
     69968      7112  TIP3      H2             36.7404932838       50.8177157196       30.8317019173  TIP3      6712            0.0000000000
     69969      7113  TIP3      OH2            35.1338808991       52.7432858449       33.2822555137  TIP3      6713            0.0000000000
     69970      7113  TIP3      H1             34.4551459588       53.1019488187       33.8691092497  TIP3      6713            0.0000000000
     69971      7113  TIP3      H2             34.5896645655       52.3271656623       32.5759825450  TIP3      6713            0.0000000000
     69972      7114  TIP3      OH2            37.1577490486       47.0191845855       22.3775841156  TIP3      6714            0.0000000000
     69973      7114  TIP3      H1             36.5643810626       47.3374173283       21.7088758535  TIP3      6714            0.0000000000
     69974      7114  TIP3      H2             37.0780429724       47.6773200172       23.0980802205  TIP3      6714            0.0000000000
     69975      7115  TIP3      OH2            34.6554849086       45.6193034183       26.5610965954  TIP3      6715            0.0000000000
     69976      7115  TIP3      H1             34.5008500770       44.6642477627       26.5599159343  TIP3      6715            0.0000000000
     69977      7115  TIP3      H2             34.3064752367       45.8754016833       27.4329598919  TIP3      6715            0.0000000000
     69978      7116  TIP3      OH2            19.6704730229       47.7257078597       30.6253010122  TIP3      6716            0.0000000000
     69979      7116  TIP3      H1             19.8472545253       47.6047945723       29.6593352666  TIP3      6716            0.0000000000
     69980      7116  TIP3      H2             20.5521736171       47.5417036941       30.9874932530  TIP3      6716            0.0000000000
     69981      7117  TIP3      OH2            35.5000560804       47.5883335377       36.2414320369  TIP3      6717            0.0000000000
     69982      7117  TIP3      H1             36.1106520879       46.8389681265       36.4017168321  TIP3      6717            0.0000000000
     69983      7117  TIP3      H2             36.0931706286       48.3659983470       36.2610844404  TIP3      6717            0.0000000000
     69984      7118  TIP3      OH2            37.0120854826       45.4921115930       36.9171684957  TIP3      6718            0.0000000000
     69985      7118  TIP3      H1             36.1357288453       45.0889151476       36.7387138318  TIP3      6718            0.0000000000
     69986      7118  TIP3      H2             37.6010695424       44.7260132887       36.8287356644  TIP3      6718            0.0000000000
     69987      7119  TIP3      OH2            34.3326534255       43.2083193522       25.0423664962  TIP3      6719            0.0000000000
     69988      7119  TIP3      H1             34.6428679947       42.2785516591       25.1503801368  TIP3      6719            0.0000000000
     69989      7119  TIP3      H2             35.1210792101       43.6191793368       24.6540037492  TIP3      6719            0.0000000000
     69990      7120  TIP3      OH2            34.9599687396       43.7545967272       30.4708409889  TIP3      6720            0.0000000000
     69991      7120  TIP3      H1             35.9172144108       43.9915031192       30.4528381909  TIP3      6720            0.0000000000
     69992      7120  TIP3      H2             34.7554406587       43.8893905512       31.4096161624  TIP3      6720            0.0000000000
     69993      7121  TIP3      OH2            35.0210353616       44.4834370528       33.2540742736  TIP3      6721            0.0000000000
     69994      7121  TIP3      H1             34.1512802867       44.7788070563       33.6029398437  TIP3      6721            0.0000000000
     69995      7121  TIP3      H2             35.4543354201       45.3435897703       33.0370777145  TIP3      6721            0.0000000000
     69996      7122  TIP3      OH2            19.2807866708       42.9801131698       36.7278337274  TIP3      6722            0.0000000000
     69997      7122  TIP3      H1             20.2117807849       42.8282736061       36.9763817028  TIP3      6722            0.0000000000
     69998      7122  TIP3      H2             18.8281452267       42.2025326102       37.1138863885  TIP3      6722            0.0000000000
     69999      7123  TIP3      OH2            37.2908453000       38.5047718545       38.6021620531  TIP3      6723            0.0000000000
     70000      7123  TIP3      H1             37.6437331659       37.8456249135       37.9883188747  TIP3      6723            0.0000000000
     70001      7123  TIP3      H2             37.4256266903       39.3409981367       38.1248111438  TIP3      6723            0.0000000000
     70002      7124  TIP3      OH2            34.9787049865       40.4799657935       25.0816803714  TIP3      6724            0.0000000000
     70003      7124  TIP3      H1             35.1734734240       40.0191136382       25.9195782725  TIP3      6724            0.0000000000
     70004      7124  TIP3      H2             34.3719555710       39.8572756142       24.6161760647  TIP3      6724            0.0000000000
     70005      7125  TIP3      OH2            20.5712840192       41.3180858294       29.5504547098  TIP3      6725            0.0000000000
     70006      7125  TIP3      H1             21.0291809439       40.5058106263       29.8609309808  TIP3      6725            0.0000000000
     70007      7125  TIP3      H2             21.0199856539       42.0376028329       30.0289592786  TIP3      6725            0.0000000000
     70008      7126  TIP3      OH2            18.8607733785       44.1976953206       30.7810909986  TIP3      6726            0.0000000000
     70009      7126  TIP3      H1             19.2825203232       44.0907992992       29.8904035492  TIP3      6726            0.0000000000
     70010      7126  TIP3      H2             19.1699790277       45.1136915819       30.9349343635  TIP3      6726            0.0000000000
     70011      7127  TIP3      OH2            36.8225886945       40.6188467376       36.9659022227  TIP3      6727            0.0000000000
     70012      7127  TIP3      H1             35.8793402151       40.8819548809       36.9119996613  TIP3      6727            0.0000000000
     70013      7127  TIP3      H2             36.8950521709       40.0769925740       36.1630346374  TIP3      6727            0.0000000000
     70014      7128  TIP3      OH2            19.1083965991       40.5578815933       24.7509432487  TIP3      6728            0.0000000000
     70015      7128  TIP3      H1             18.1762151221       40.7453152711       24.6013850722  TIP3      6728            0.0000000000
     70016      7128  TIP3      H2             19.5668313226       41.0293929783       24.0424179548  TIP3      6728            0.0000000000
     70017      7129  TIP3      OH2            33.8777731672       55.5079338897       26.6840844276  TIP3      6729            0.0000000000
     70018      7129  TIP3      H1             34.5585789518       55.1680320297       26.0772606947  TIP3      6729            0.0000000000
     70019      7129  TIP3      H2             34.3995409416       56.0028861456       27.3379167913  TIP3      6729            0.0000000000
     70020      7130  TIP3      OH2            19.0920676816       39.2430774027       33.0363646238  TIP3      6730            0.0000000000
     70021      7130  TIP3      H1             18.4298407084       39.0190591075       33.7368610458  TIP3      6730            0.0000000000
     70022      7130  TIP3      H2             18.5859134090       39.9087120014       32.5588477112  TIP3      6730            0.0000000000
     70023      7131  TIP3      OH2            21.2782705636       52.3852463207       37.2129303108  TIP3      6731            0.0000000000
     70024      7131  TIP3      H1             20.4512134374       52.6503183241       36.7844672092  TIP3      6731            0.0000000000
     70025      7131  TIP3      H2             21.0373872549       52.4010616406       38.1549136420  TIP3      6731            0.0000000000
     70026      7132  TIP3      OH2            24.2094490181       53.4088449859       33.4904581990  TIP3      6732            0.0000000000
     70027      7132  TIP3      H1             23.8429482697       54.2588177961       33.2151305900  TIP3      6732            0.0000000000
     70028      7132  TIP3      H2             25.1391424613       53.5150284317       33.1868452595  TIP3      6732            0.0000000000
     70029      7133  TIP3      OH2            28.6226625310       54.7326058008       36.3899268820  TIP3      6733            0.0000000000
     70030      7133  TIP3      H1             28.7209795487       54.4986750212       37.3435290539  TIP3      6733            0.0000000000
     70031      7133  TIP3      H2             29.4472998395       55.1559552697       36.1372138604  TIP3      6733            0.0000000000
     70032      7134  TIP3      OH2            30.8600331140       56.1052033645       35.6922413457  TIP3      6734            0.0000000000
     70033      7134  TIP3      H1             31.5753971487       55.4923976789       35.4609463731  TIP3      6734            0.0000000000
     70034      7134  TIP3      H2             31.2023676833       56.5091534088       36.5173073117  TIP3      6734            0.0000000000
     70035      7135  TIP3      OH2            35.8269152962       38.7155477156       34.7949639753  TIP3      6735            0.0000000000
     70036      7135  TIP3      H1             34.9967711105       39.0173880331       34.3815182312  TIP3      6735            0.0000000000
     70037      7135  TIP3      H2             36.0236232893       37.9193125228       34.2502253522  TIP3      6735            0.0000000000
     70038      7136  TIP3      OH2            24.0714387512      -56.6207180695       32.5845896328  TIP3      6736            0.0000000000
     70039      7136  TIP3      H1             23.2171041052      -56.4500083062       32.9748941866  TIP3      6736            0.0000000000
     70040      7136  TIP3      H2             24.0576586312      -56.0207348741       31.7980339983  TIP3      6736            0.0000000000
     70041      7137  TIP3      OH2            28.8299332364      -56.7034830359       31.7167341773  TIP3      6737            0.0000000000
     70042      7137  TIP3      H1             28.3419853864      -56.1477315022       31.0868329028  TIP3      6737            0.0000000000
     70043      7137  TIP3      H2             28.9538328098      -56.0676587362       32.4701700724  TIP3      6737            0.0000000000
     70044      7138  TIP3      OH2            31.1273997669       55.0058112971       32.7160780261  TIP3      6738            0.0000000000
     70045      7138  TIP3      H1             30.2354420549       55.2249473452       32.4025696026  TIP3      6738            0.0000000000
     70046      7138  TIP3      H2             31.5564623542       55.8695341419       32.6194590681  TIP3      6738            0.0000000000
     70047      7139  TIP3      OH2            21.0503545975       55.2678042817       30.4444872222  TIP3      6739            0.0000000000
     70048      7139  TIP3      H1             21.0184518449       54.8512250666       31.3262378587  TIP3      6739            0.0000000000
     70049      7139  TIP3      H2             21.8809486954       54.9458039704       30.0389008949  TIP3      6739            0.0000000000
     70050      7140  TIP3      OH2            23.1660738444       54.0290320079       29.0912505136  TIP3      6740            0.0000000000
     70051      7140  TIP3      H1             22.9855475818       53.0895010591       29.2782208729  TIP3      6740            0.0000000000
     70052      7140  TIP3      H2             24.0245836586       54.1485661938       29.5542683265  TIP3      6740            0.0000000000
     70053      7141  TIP3      OH2            25.7449325425       54.4908429513       29.9585763121  TIP3      6741            0.0000000000
     70054      7141  TIP3      H1             25.9421397093       53.5767232750       29.6811431853  TIP3      6741            0.0000000000
     70055      7141  TIP3      H2             25.8039052487       54.4431694755       30.9210421455  TIP3      6741            0.0000000000
     70056      7142  TIP3      OH2            29.2349955675       40.1522135324       29.0986517639  TIP3      6742            0.0000000000
     70057      7142  TIP3      H1             28.5580383650       39.5063828453       29.3574716369  TIP3      6742            0.0000000000
     70058      7142  TIP3      H2             29.7930177829       39.6407724507       28.4985754329  TIP3      6742            0.0000000000
     70059      7143  TIP3      OH2            34.3700606650       38.2250875620       29.1990726812  TIP3      6743            0.0000000000
     70060      7143  TIP3      H1             34.9888803453       38.8018443839       28.6816766387  TIP3      6743            0.0000000000
     70061      7143  TIP3      H2             33.4937369329       38.5698027549       28.9490827954  TIP3      6743            0.0000000000
     70062      7144  TIP3      OH2            36.0609693707       39.4123182357       27.5039893549  TIP3      6744            0.0000000000
     70063      7144  TIP3      H1             36.7266884196       38.8672013222       27.0155931390  TIP3      6744            0.0000000000
     70064      7144  TIP3      H2             36.5154814911       40.2804648816       27.5636301514  TIP3      6744            0.0000000000
     70065      7145  TIP3      OH2            21.5699526106       38.7825960326       26.9638141436  TIP3      6745            0.0000000000
     70066      7145  TIP3      H1             20.7988616502       38.5514184837       26.4042436141  TIP3      6745            0.0000000000
     70067      7145  TIP3      H2             22.0869297105       37.9544171195       26.8918950228  TIP3      6745            0.0000000000
     70068      7146  TIP3      OH2            20.3540586630       38.5490089001       22.6915667122  TIP3      6746            0.0000000000
     70069      7146  TIP3      H1             20.8624838553       39.1706012222       22.1204865116  TIP3      6746            0.0000000000
     70070      7146  TIP3      H2             19.7820156624       39.1167985799       23.2158769820  TIP3      6746            0.0000000000
     70071      7147  TIP3      OH2            26.1123363396       38.6981414186       26.7247392990  TIP3      6747            0.0000000000
     70072      7147  TIP3      H1             27.0060038011       39.0845650484       26.6921934398  TIP3      6747            0.0000000000
     70073      7147  TIP3      H2             26.0233613809       38.4891144379       27.6552918879  TIP3      6747            0.0000000000
     70074      7148  TIP3      OH2            31.7353567021       38.7364748890       28.3717404495  TIP3      6748            0.0000000000
     70075      7148  TIP3      H1             31.7620058400       38.8256264614       27.4127176615  TIP3      6748            0.0000000000
     70076      7148  TIP3      H2             31.4097830824       37.8142974551       28.4976513692  TIP3      6748            0.0000000000
     70077      7149  TIP3      OH2            33.0648108041       38.7709663367       24.0593454266  TIP3      6749            0.0000000000
     70078      7149  TIP3      H1             32.3274661721       39.3637820317       23.8577708698  TIP3      6749            0.0000000000
     70079      7149  TIP3      H2             32.6027532340       37.9062288977       24.2081289858  TIP3      6749            0.0000000000
     70080      7150  TIP3      OH2            20.3131314559       54.4913865330       23.6716272434  TIP3      6750            0.0000000000
     70081      7150  TIP3      H1             19.6305698131       54.4908325602       22.9569054276  TIP3      6750            0.0000000000
     70082      7150  TIP3      H2             20.3079555554       55.4411889417       23.8670082474  TIP3      6750            0.0000000000
     70083      7151  TIP3      OH2            27.2639783024       40.7730620023       23.5813963816  TIP3      6751            0.0000000000
     70084      7151  TIP3      H1             27.4622712778       40.1430057642       24.3010793141  TIP3      6751            0.0000000000
     70085      7151  TIP3      H2             27.2559170188       41.6087307885       24.0958105446  TIP3      6751            0.0000000000
     70086      7152  TIP3      OH2            29.1592007275       55.7176879336       22.0254680879  TIP3      6752            0.0000000000
     70087      7152  TIP3      H1             30.0390752184       56.0864963497       21.8164662938  TIP3      6752            0.0000000000
     70088      7152  TIP3      H2             28.9258520609       55.3031069108       21.1828329671  TIP3      6752            0.0000000000
     70089      7153  TIP3      OH2            35.8732902393       55.3127440550       24.7091765697  TIP3      6753            0.0000000000
     70090      7153  TIP3      H1             35.6678420455       54.5361194976       24.1359263435  TIP3      6753            0.0000000000
     70091      7153  TIP3      H2             35.8149694742       56.0606513238       24.1101023382  TIP3      6753            0.0000000000
     70092      7154  TIP3      OH2            21.4957322534       39.3124127375       36.4090790114  TIP3      6754            0.0000000000
     70093      7154  TIP3      H1             21.1392955723       38.5206373057       36.8562559178  TIP3      6754            0.0000000000
     70094      7154  TIP3      H2             22.4254471893       39.3010119494       36.7455096761  TIP3      6754            0.0000000000
     70095      7155  TIP3      OH2            23.4972400006       38.6862828693       38.0007393168  TIP3      6755            0.0000000000
     70096      7155  TIP3      H1             24.3932409760       38.3546805976       37.7877571005  TIP3      6755            0.0000000000
     70097      7155  TIP3      H2             23.1144601161       37.8963097714       38.4377750485  TIP3      6755            0.0000000000
     70098      7156  TIP3      OH2            31.9005230416       37.9908999005       38.1643371588  TIP3      6756            0.0000000000
     70099      7156  TIP3      H1             31.9984787123       37.5304324256       39.0196446726  TIP3      6756            0.0000000000
     70100      7156  TIP3      H2             32.8167896015       37.9773317898       37.8194183169  TIP3      6756            0.0000000000
     70101      7157  TIP3      OH2            35.0975427979       54.0437816727       36.8589819550  TIP3      6757            0.0000000000
     70102      7157  TIP3      H1             34.3024675943       53.8782848401       36.3074507100  TIP3      6757            0.0000000000
     70103      7157  TIP3      H2             35.0196400026       54.9869542026       37.0451649141  TIP3      6757            0.0000000000
     70104      7158  TIP3      OH2            49.5216711599       47.9212197644       26.8550701481  TIP3      6758            0.0000000000
     70105      7158  TIP3      H1             49.5646257256       48.8922910737       26.7471995432  TIP3      6758            0.0000000000
     70106      7158  TIP3      H2             48.8417951691       47.6726503330       26.2088032235  TIP3      6758            0.0000000000
     70107      7159  TIP3      OH2            48.4143565217       47.1903918133       30.3067516328  TIP3      6759            0.0000000000
     70108      7159  TIP3      H1             48.3882035717       46.5317864041       31.0075147390  TIP3      6759            0.0000000000
     70109      7159  TIP3      H2             48.0902108560       46.7003257178       29.5321924545  TIP3      6759            0.0000000000
     70110      7160  TIP3      OH2            40.7738287526       46.8252779089       31.8654596373  TIP3      6760            0.0000000000
     70111      7160  TIP3      H1             40.8451014644       46.1685446171       32.5917424928  TIP3      6760            0.0000000000
     70112      7160  TIP3      H2             41.5054414991       47.4229000722       32.0751502475  TIP3      6760            0.0000000000
     70113      7161  TIP3      OH2            52.1241769097       50.1263584955       28.5865607073  TIP3      6761            0.0000000000
     70114      7161  TIP3      H1             51.6958178350       49.4090738053       29.0635276566  TIP3      6761            0.0000000000
     70115      7161  TIP3      H2             52.1146834829       50.8420613288       29.2460488823  TIP3      6761            0.0000000000
     70116      7162  TIP3      OH2            41.7343339485       51.3086082779       30.3503924889  TIP3      6762            0.0000000000
     70117      7162  TIP3      H1             41.3506582752       50.4425532836       30.0595503055  TIP3      6762            0.0000000000
     70118      7162  TIP3      H2             42.6504816533       51.0321484082       30.4797510445  TIP3      6762            0.0000000000
     70119      7163  TIP3      OH2            38.3416902440       44.8859612186       25.8329220627  TIP3      6763            0.0000000000
     70120      7163  TIP3      H1             37.8816129983       45.7499659471       25.7913017355  TIP3      6763            0.0000000000
     70121      7163  TIP3      H2             37.7641666839       44.3302777623       25.2906617418  TIP3      6763            0.0000000000
     70122      7164  TIP3      OH2            39.0309617765       47.0826030142       27.9590398411  TIP3      6764            0.0000000000
     70123      7164  TIP3      H1             39.2774101347       46.2827499713       28.4580846368  TIP3      6764            0.0000000000
     70124      7164  TIP3      H2             39.7659788373       47.1693176253       27.3314656609  TIP3      6764            0.0000000000
     70125      7165  TIP3      OH2            49.1872758621       55.2255098917       28.8052769039  TIP3      6765            0.0000000000
     70126      7165  TIP3      H1             49.8595634942       54.5486399038       28.5414664728  TIP3      6765            0.0000000000
     70127      7165  TIP3      H2             49.0361188006       54.9853577839       29.7174572462  TIP3      6765            0.0000000000
     70128      7166  TIP3      OH2            46.7908984522       49.6162405244       30.7215923369  TIP3      6766            0.0000000000
     70129      7166  TIP3      H1             47.1295200278       48.9356370473       30.1117633472  TIP3      6766            0.0000000000
     70130      7166  TIP3      H2             47.5647727929       49.7301176661       31.3054774231  TIP3      6766            0.0000000000
     70131      7167  TIP3      OH2            55.4373545419       41.2189885910       31.5365351304  TIP3      6767            0.0000000000
     70132      7167  TIP3      H1             55.5470717538       41.8380173156       32.2925444152  TIP3      6767            0.0000000000
     70133      7167  TIP3      H2             55.9254612012       41.6758785924       30.8382229478  TIP3      6767            0.0000000000
     70134      7168  TIP3      OH2            49.9526299272       44.0394148749       31.0626970780  TIP3      6768            0.0000000000
     70135      7168  TIP3      H1             50.1030807015       43.0737017356       31.0553293101  TIP3      6768            0.0000000000
     70136      7168  TIP3      H2             49.8491634874       44.2022944387       30.1023994357  TIP3      6768            0.0000000000
     70137      7169  TIP3      OH2            43.0946595668       42.1229974580       28.3119393437  TIP3      6769            0.0000000000
     70138      7169  TIP3      H1             43.1594855918       42.9764092714       27.8529537584  TIP3      6769            0.0000000000
     70139      7169  TIP3      H2             42.6558714915       41.5600479630       27.6395757547  TIP3      6769            0.0000000000
     70140      7170  TIP3      OH2            50.8181652253       42.2297596384       26.6824556647  TIP3      6770            0.0000000000
     70141      7170  TIP3      H1             51.4854563181       41.9074798828       27.3329634230  TIP3      6770            0.0000000000
     70142      7170  TIP3      H2             51.3657930571       42.7742011513       26.0977745648  TIP3      6770            0.0000000000
     70143      7171  TIP3      OH2            39.7058131881       44.5334004417       29.0542105188  TIP3      6771            0.0000000000
     70144      7171  TIP3      H1             40.3804380966       43.9708470520       29.4904634388  TIP3      6771            0.0000000000
     70145      7171  TIP3      H2             39.7738341277       44.2321513854       28.1357733137  TIP3      6771            0.0000000000
     70146      7172  TIP3      OH2            44.8716020036       46.0891289260       28.3143615271  TIP3      6772            0.0000000000
     70147      7172  TIP3      H1             45.5116175577       45.5239578061       28.7748972111  TIP3      6772            0.0000000000
     70148      7172  TIP3      H2             44.3139782703       45.4217651393       27.8636982398  TIP3      6772            0.0000000000
     70149      7173  TIP3      OH2            55.8837417850       42.6821973042       33.7829497890  TIP3      6773            0.0000000000
     70150      7173  TIP3      H1             55.1995570987       43.3789121175       33.6844695157  TIP3      6773            0.0000000000
     70151      7173  TIP3      H2             55.8748600354       42.5214859063       34.7400040543  TIP3      6773            0.0000000000
     70152      7174  TIP3      OH2            41.9509356921       41.0257383108       32.3602642417  TIP3      6774            0.0000000000
     70153      7174  TIP3      H1             41.6928706760       41.5836758938       31.6012108231  TIP3      6774            0.0000000000
     70154      7174  TIP3      H2             41.2606488417       41.2657014223       33.0276446390  TIP3      6774            0.0000000000
     70155      7175  TIP3      OH2            49.3026342910       50.5252495425       25.8949532273  TIP3      6775            0.0000000000
     70156      7175  TIP3      H1             48.9730056376       50.2153035152       25.0528068184  TIP3      6775            0.0000000000
     70157      7175  TIP3      H2             48.9536400142       51.4432298460       25.9637710591  TIP3      6775            0.0000000000
     70158      7176  TIP3      OH2            44.4910635145       48.6862637048       32.6197436375  TIP3      6776            0.0000000000
     70159      7176  TIP3      H1             43.7605801836       49.3163035465       32.7874609179  TIP3      6776            0.0000000000
     70160      7176  TIP3      H2             45.2040403244       49.2711023454       32.3316753724  TIP3      6776            0.0000000000
     70161      7177  TIP3      OH2            52.6092769250       41.5449806996       28.6703153748  TIP3      6777            0.0000000000
     70162      7177  TIP3      H1             52.3916170038       40.7803222576       29.2135393696  TIP3      6777            0.0000000000
     70163      7177  TIP3      H2             53.2728301429       42.0007045577       29.2075089016  TIP3      6777            0.0000000000
     70164      7178  TIP3      OH2            41.5090583713       42.9073860337       30.3468233763  TIP3      6778            0.0000000000
     70165      7178  TIP3      H1             42.1519753706       43.5698063438       30.6942750990  TIP3      6778            0.0000000000
     70166      7178  TIP3      H2             42.0462840070       42.4588920762       29.6511304346  TIP3      6778            0.0000000000
     70167      7179  TIP3      OH2            42.9207609852       50.6633097498       33.4118969702  TIP3      6779            0.0000000000
     70168      7179  TIP3      H1             42.8856401864       51.5743767892       33.0813474314  TIP3      6779            0.0000000000
     70169      7179  TIP3      H2             42.0412277458       50.5918191499       33.8728199337  TIP3      6779            0.0000000000
     70170      7180  TIP3      OH2            39.0069166120       50.3127092829       24.2161147279  TIP3      6780            0.0000000000
     70171      7180  TIP3      H1             38.7496732301       50.5913519193       23.3398360047  TIP3      6780            0.0000000000
     70172      7180  TIP3      H2             39.0743018932       51.1653345904       24.6994509612  TIP3      6780            0.0000000000
     70173      7181  TIP3      OH2            52.6377362602       51.9529458141       30.9526719398  TIP3      6781            0.0000000000
     70174      7181  TIP3      H1             51.6710047086       52.0471757653       31.0926251038  TIP3      6781            0.0000000000
     70175      7181  TIP3      H2             52.9150498624       52.8773050760       30.7859746061  TIP3      6781            0.0000000000
     70176      7182  TIP3      OH2            52.9556458289       40.2507080018       32.3578183045  TIP3      6782            0.0000000000
     70177      7182  TIP3      H1             52.2146981899       40.8701439906       32.2957114662  TIP3      6782            0.0000000000
     70178      7182  TIP3      H2             53.6462034222       40.6744626974       31.8225369714  TIP3      6782            0.0000000000
     70179      7183  TIP3      OH2            45.9418988040       38.3540489668       29.8129753733  TIP3      6783            0.0000000000
     70180      7183  TIP3      H1             45.8132717127       37.3875739352       29.7578275626  TIP3      6783            0.0000000000
     70181      7183  TIP3      H2             45.0657187610       38.6700267288       30.1067258096  TIP3      6783            0.0000000000
     70182      7184  TIP3      OH2            50.8814951346       53.7254618229       27.5679063347  TIP3      6784            0.0000000000
     70183      7184  TIP3      H1             51.3418796161       53.0222528078       27.0760695573  TIP3      6784            0.0000000000
     70184      7184  TIP3      H2             51.2624712444       54.5338570047       27.1622764454  TIP3      6784            0.0000000000
     70185      7185  TIP3      OH2            52.0527350644       51.6755943082       26.0597292902  TIP3      6785            0.0000000000
     70186      7185  TIP3      H1             51.8063105508       50.9535891029       25.4661771460  TIP3      6785            0.0000000000
     70187      7185  TIP3      H2             52.1267825623       51.1942665514       26.9139345944  TIP3      6785            0.0000000000
     70188      7186  TIP3      OH2            53.7312744838       50.2305082426       34.5623445998  TIP3      6786            0.0000000000
     70189      7186  TIP3      H1             53.8671608804       49.6141896586       33.8135731191  TIP3      6786            0.0000000000
     70190      7186  TIP3      H2             53.9204642509       51.0956567451       34.1650883728  TIP3      6786            0.0000000000
     70191      7187  TIP3      OH2            48.2144621166       47.1610840283       24.3263137414  TIP3      6787            0.0000000000
     70192      7187  TIP3      H1             47.4959361454       47.7216125215       23.9759826266  TIP3      6787            0.0000000000
     70193      7187  TIP3      H2             48.9155050570       47.2340609687       23.6597981541  TIP3      6787            0.0000000000
     70194      7188  TIP3      OH2            55.5554329041       46.5340172985       32.5990171156  TIP3      6788            0.0000000000
     70195      7188  TIP3      H1             54.9281959388       47.2762923180       32.6900673565  TIP3      6788            0.0000000000
     70196      7188  TIP3      H2             56.0526889003       46.7948955211       31.7990807343  TIP3      6788            0.0000000000
     70197      7189  TIP3      OH2            51.6277473132       47.3837373111       25.2439785240  TIP3      6789            0.0000000000
     70198      7189  TIP3      H1             50.8914082397       47.6162000853       25.8604491321  TIP3      6789            0.0000000000
     70199      7189  TIP3      H2             52.0957189333       46.6907194151       25.7540971121  TIP3      6789            0.0000000000
     70200      7190  TIP3      OH2            51.5537083933       45.5347988271       34.3541840393  TIP3      6790            0.0000000000
     70201      7190  TIP3      H1             51.5837385277       46.3361547039       34.9063594291  TIP3      6790            0.0000000000
     70202      7190  TIP3      H2             50.9255474752       45.8406528532       33.6624941845  TIP3      6790            0.0000000000
     70203      7191  TIP3      OH2            43.2687374865       48.0450450717       27.1678900067  TIP3      6791            0.0000000000
     70204      7191  TIP3      H1             42.9390103027       47.6436785315       26.3253903534  TIP3      6791            0.0000000000
     70205      7191  TIP3      H2             43.8679813303       47.3317624838       27.4988636974  TIP3      6791            0.0000000000
     70206      7192  TIP3      OH2            44.6703404198       51.3080200528       29.8867041671  TIP3      6792            0.0000000000
     70207      7192  TIP3      H1             44.6055547120       50.7967892863       29.0652748825  TIP3      6792            0.0000000000
     70208      7192  TIP3      H2             45.4556251542       51.0006283084       30.3463593024  TIP3      6792            0.0000000000
     70209      7193  TIP3      OH2            43.6126560377       46.7729562094       30.8022835259  TIP3      6793            0.0000000000
     70210      7193  TIP3      H1             44.1867948343       46.8971312773       30.0229399495  TIP3      6793            0.0000000000
     70211      7193  TIP3      H2             43.9672676167       47.4262448517       31.4371431798  TIP3      6793            0.0000000000
     70212      7194  TIP3      OH2            49.9749415184       52.3220743107       31.5204349515  TIP3      6794            0.0000000000
     70213      7194  TIP3      H1             49.7007705411       52.9666624298       32.1741135584  TIP3      6794            0.0000000000
     70214      7194  TIP3      H2             49.7418158441       51.4617942904       31.9552721616  TIP3      6794            0.0000000000
     70215      7195  TIP3      OH2            44.5374398296       51.1929211340       35.5180232928  TIP3      6795            0.0000000000
     70216      7195  TIP3      H1             44.1750860866       51.9750413608       35.9818103199  TIP3      6795            0.0000000000
     70217      7195  TIP3      H2             43.8592786621       51.0189784354       34.8237004769  TIP3      6795            0.0000000000
     70218      7196  TIP3      OH2            50.4937458287       46.5523551672       22.9218829213  TIP3      6796            0.0000000000
     70219      7196  TIP3      H1             51.0608273806       46.7139275933       23.7220112418  TIP3      6796            0.0000000000
     70220      7196  TIP3      H2             50.9351316441       47.0560106604       22.2415894077  TIP3      6796            0.0000000000
     70221      7197  TIP3      OH2            41.4644493484       47.3661932597       34.7078054314  TIP3      6797            0.0000000000
     70222      7197  TIP3      H1             41.5080003372       48.0329430350       35.4246637662  TIP3      6797            0.0000000000
     70223      7197  TIP3      H2             40.5427053694       47.4773111634       34.4298544157  TIP3      6797            0.0000000000
     70224      7198  TIP3      OH2            48.2141316824       53.2830017314       26.3981244653  TIP3      6798            0.0000000000
     70225      7198  TIP3      H1             48.6994137018       53.5923099005       27.1760796282  TIP3      6798            0.0000000000
     70226      7198  TIP3      H2             47.6703132090       54.0424665105       26.1580808058  TIP3      6798            0.0000000000
     70227      7199  TIP3      OH2            42.7775354666       53.2549068559       36.2675864001  TIP3      6799            0.0000000000
     70228      7199  TIP3      H1             42.7436495362       53.1168270715       35.3092767734  TIP3      6799            0.0000000000
     70229      7199  TIP3      H2             41.8402747942       53.1340165212       36.5209854089  TIP3      6799            0.0000000000
     70230      7200  TIP3      OH2            54.2405546586       38.2971529652       22.7864256727  TIP3      6800            0.0000000000
     70231      7200  TIP3      H1             53.2920176605       38.4309397347       23.0564494013  TIP3      6800            0.0000000000
     70232      7200  TIP3      H2             54.4328089031       39.1555338352       22.3777119881  TIP3      6800            0.0000000000
     70233      7201  TIP3      OH2            42.2529011708       47.0725724794       24.7697474022  TIP3      6801            0.0000000000
     70234      7201  TIP3      H1             41.9595418152       47.8506392918       24.2461853059  TIP3      6801            0.0000000000
     70235      7201  TIP3      H2             41.5796482320       46.4127105099       24.5760682609  TIP3      6801            0.0000000000
     70236      7202  TIP3      OH2            55.2391132675       52.4434756126       21.9020842621  TIP3      6802            0.0000000000
     70237      7202  TIP3      H1             55.2818811576       53.3730502627       21.4868412449  TIP3      6802            0.0000000000
     70238      7202  TIP3      H2             56.0449066028       52.2538706932       21.3630951267  TIP3      6802            0.0000000000
     70239      7203  TIP3      OH2            38.3428282282       49.4713585320       33.6121425502  TIP3      6803            0.0000000000
     70240      7203  TIP3      H1             37.8598229774       49.4049119620       32.7681801470  TIP3      6803            0.0000000000
     70241      7203  TIP3      H2             38.3697147580       48.5315303211       33.8710312420  TIP3      6803            0.0000000000
     70242      7204  TIP3      OH2            38.0984668791       52.2111675226       30.4516656904  TIP3      6804            0.0000000000
     70243      7204  TIP3      H1             39.0493542360       52.0887399390       30.4295963330  TIP3      6804            0.0000000000
     70244      7204  TIP3      H2             37.9917064294       53.0173927520       30.9762857806  TIP3      6804            0.0000000000
     70245      7205  TIP3      OH2            47.2849224374       52.4616770428       34.9954437640  TIP3      6805            0.0000000000
     70246      7205  TIP3      H1             47.3567434542       53.3047182644       35.5017623493  TIP3      6805            0.0000000000
     70247      7205  TIP3      H2             46.4050154165       52.1328227884       35.2518239350  TIP3      6805            0.0000000000
     70248      7206  TIP3      OH2            47.6985058078      -56.6389273461       24.8018305937  TIP3      6806            0.0000000000
     70249      7206  TIP3      H1             47.6198794556      -56.7140284763       23.8416830271  TIP3      6806            0.0000000000
     70250      7206  TIP3      H2             47.7170578867      -55.6619575083       24.9579760148  TIP3      6806            0.0000000000
     70251      7207  TIP3      OH2            41.3803410918       55.0136337248       26.5859496455  TIP3      6807            0.0000000000
     70252      7207  TIP3      H1             41.4806819455       54.6749053501       27.4908538760  TIP3      6807            0.0000000000
     70253      7207  TIP3      H2             40.4967310182       54.6662807221       26.3583097588  TIP3      6807            0.0000000000
     70254      7208  TIP3      OH2            50.7557388080       55.4057212936       21.8100257864  TIP3      6808            0.0000000000
     70255      7208  TIP3      H1             51.1470892576       54.6420386192       21.3120208295  TIP3      6808            0.0000000000
     70256      7208  TIP3      H2             50.7529267346       55.0938744945       22.7398388170  TIP3      6808            0.0000000000
     70257      7209  TIP3      OH2            50.4543082853       55.2739302209       24.5135081086  TIP3      6809            0.0000000000
     70258      7209  TIP3      H1             49.5119127890       55.4265046074       24.7621068768  TIP3      6809            0.0000000000
     70259      7209  TIP3      H2             50.7328512289       54.6013172133       25.1607887959  TIP3      6809            0.0000000000
     70260      7210  TIP3      OH2            53.4557777330       44.3978654594       36.6066793810  TIP3      6810            0.0000000000
     70261      7210  TIP3      H1             53.0156878167       44.8620567382       35.8805153466  TIP3      6810            0.0000000000
     70262      7210  TIP3      H2             53.4840843643       43.4769590384       36.2963156625  TIP3      6810            0.0000000000
     70263      7211  TIP3      OH2            40.6036819722       50.7944126894       34.6032158090  TIP3      6811            0.0000000000
     70264      7211  TIP3      H1             40.8239403585       50.4163654652       35.4789980545  TIP3      6811            0.0000000000
     70265      7211  TIP3      H2             39.7365540242       50.3933021283       34.3927849943  TIP3      6811            0.0000000000
     70266      7212  TIP3      OH2            43.2599323825       39.2458628908       30.5854902717  TIP3      6812            0.0000000000
     70267      7212  TIP3      H1             42.3603411163       39.1541261444       30.1948414503  TIP3      6812            0.0000000000
     70268      7212  TIP3      H2             43.1771151144       40.1013131195       31.0343968494  TIP3      6812            0.0000000000
     70269      7213  TIP3      OH2            47.9088812087       38.9585838295       33.9503166023  TIP3      6813            0.0000000000
     70270      7213  TIP3      H1             48.3119703835       38.5340938009       34.7288533255  TIP3      6813            0.0000000000
     70271      7213  TIP3      H2             46.9424014847       38.7951060016       34.0865389635  TIP3      6813            0.0000000000
     70272      7214  TIP3      OH2            51.2056616903       42.7426161417       34.8158379522  TIP3      6814            0.0000000000
     70273      7214  TIP3      H1             50.6709203693       42.5783624477       35.6277739827  TIP3      6814            0.0000000000
     70274      7214  TIP3      H2             51.0432799906       43.6679349125       34.5824065931  TIP3      6814            0.0000000000
     70275      7215  TIP3      OH2            47.6053389128       41.4767828930       21.2922622541  TIP3      6815            0.0000000000
     70276      7215  TIP3      H1             47.2570726730       41.4643182300       22.1940349836  TIP3      6815            0.0000000000
     70277      7215  TIP3      H2             47.2719701818       40.6368456762       20.9481668681  TIP3      6815            0.0000000000
     70278      7216  TIP3      OH2            43.3517437229       44.2107814689       31.7442236392  TIP3      6816            0.0000000000
     70279      7216  TIP3      H1             42.6548577397       44.1897510436       32.4257640645  TIP3      6816            0.0000000000
     70280      7216  TIP3      H2             43.3434295823       45.1482578222       31.4489801220  TIP3      6816            0.0000000000
     70281      7217  TIP3      OH2            43.3273631134       44.4117003656       26.6445459140  TIP3      6817            0.0000000000
     70282      7217  TIP3      H1             42.4069101417       44.0924042753       26.5430067977  TIP3      6817            0.0000000000
     70283      7217  TIP3      H2             43.7435800165       44.0514942041       25.8393629561  TIP3      6817            0.0000000000
     70284      7218  TIP3      OH2            48.8453544867       44.8346034869       25.4275964377  TIP3      6818            0.0000000000
     70285      7218  TIP3      H1             48.4452787891       45.6762449367       25.1232550254  TIP3      6818            0.0000000000
     70286      7218  TIP3      H2             49.5661423053       44.7051735123       24.7979287738  TIP3      6818            0.0000000000
     70287      7219  TIP3      OH2            47.9419541734       45.0504425851       36.8981404214  TIP3      6819            0.0000000000
     70288      7219  TIP3      H1             47.3864812179       44.3000244687       37.2206855586  TIP3      6819            0.0000000000
     70289      7219  TIP3      H2             48.7736191219       44.9147203721       37.3794308128  TIP3      6819            0.0000000000
     70290      7220  TIP3      OH2            49.8711256959       44.3193155446       28.2716552222  TIP3      6820            0.0000000000
     70291      7220  TIP3      H1             49.6402945225       44.8986090561       27.5248068365  TIP3      6820            0.0000000000
     70292      7220  TIP3      H2             50.0180181120       43.4715189637       27.8043618372  TIP3      6820            0.0000000000
     70293      7221  TIP3      OH2            41.0404677560       44.5189398758       33.5310085396  TIP3      6821            0.0000000000
     70294      7221  TIP3      H1             41.0449336368       44.9198073411       34.4175848624  TIP3      6821            0.0000000000
     70295      7221  TIP3      H2             40.5660306409       43.6876768133       33.6776834821  TIP3      6821            0.0000000000
     70296      7222  TIP3      OH2            37.6594401395       41.6334458000       27.4348136165  TIP3      6822            0.0000000000
     70297      7222  TIP3      H1             38.3217015656       41.5971750828       28.1531568911  TIP3      6822            0.0000000000
     70298      7222  TIP3      H2             38.1231270559       41.2171809418       26.6854093328  TIP3      6822            0.0000000000
     70299      7223  TIP3      OH2            38.9561584530       42.3624029779       22.8984839681  TIP3      6823            0.0000000000
     70300      7223  TIP3      H1             39.4129499525       42.9496377566       22.2558989748  TIP3      6823            0.0000000000
     70301      7223  TIP3      H2             38.2250608719       42.9432322880       23.1555522027  TIP3      6823            0.0000000000
     70302      7224  TIP3      OH2            49.1083589729       45.9418825290       32.8865412102  TIP3      6824            0.0000000000
     70303      7224  TIP3      H1             49.4546738301       45.2748629090       32.2643053228  TIP3      6824            0.0000000000
     70304      7224  TIP3      H2             48.6592660665       45.3961543150       33.5563666677  TIP3      6824            0.0000000000
     70305      7225  TIP3      OH2            45.8983321810       41.8774812543       27.6838280625  TIP3      6825            0.0000000000
     70306      7225  TIP3      H1             44.9634407152       41.9144650135       27.9876118946  TIP3      6825            0.0000000000
     70307      7225  TIP3      H2             46.3932502361       41.7784578574       28.5110807652  TIP3      6825            0.0000000000
     70308      7226  TIP3      OH2            40.7239871710       43.4807552429       26.5300531058  TIP3      6826            0.0000000000
     70309      7226  TIP3      H1             39.8197890618       43.5929776726       26.1693470733  TIP3      6826            0.0000000000
     70310      7226  TIP3      H2             41.0068379364       42.6297578339       26.1590601300  TIP3      6826            0.0000000000
     70311      7227  TIP3      OH2            44.3557806725       43.5099547603       24.1926611307  TIP3      6827            0.0000000000
     70312      7227  TIP3      H1             45.3141102689       43.6072555244       24.3518850787  TIP3      6827            0.0000000000
     70313      7227  TIP3      H2             44.1482698327       44.1617800618       23.5113274172  TIP3      6827            0.0000000000
     70314      7228  TIP3      OH2            50.3075445024       41.1146820354       30.9436916079  TIP3      6828            0.0000000000
     70315      7228  TIP3      H1             49.6129258056       41.2135498128       31.6291383730  TIP3      6828            0.0000000000
     70316      7228  TIP3      H2             49.8025301515       40.9204744838       30.1428235787  TIP3      6828            0.0000000000
     70317      7229  TIP3      OH2            41.1961335454       49.2400183095       36.8238544036  TIP3      6829            0.0000000000
     70318      7229  TIP3      H1             41.9084587131       49.4981979404       37.4312885285  TIP3      6829            0.0000000000
     70319      7229  TIP3      H2             40.4005957597       49.4058746737       37.3812127670  TIP3      6829            0.0000000000
     70320      7230  TIP3      OH2            47.1954808715       44.6560204160       29.5800903062  TIP3      6830            0.0000000000
     70321      7230  TIP3      H1             47.7785100904       44.1090599441       29.0380112894  TIP3      6830            0.0000000000
     70322      7230  TIP3      H2             47.0551547641       44.1179479492       30.3699265920  TIP3      6830            0.0000000000
     70323      7231  TIP3      OH2            42.2004558132       40.8089130395       26.0076655968  TIP3      6831            0.0000000000
     70324      7231  TIP3      H1             41.8900165141       39.8840098348       25.9814093301  TIP3      6831            0.0000000000
     70325      7231  TIP3      H2             42.9907157079       40.7703563338       25.4545957372  TIP3      6831            0.0000000000
     70326      7232  TIP3      OH2            45.8337733937       43.0083913923       31.9890246056  TIP3      6832            0.0000000000
     70327      7232  TIP3      H1             44.9967378838       43.5001712921       32.0990011707  TIP3      6832            0.0000000000
     70328      7232  TIP3      H2             46.3707626005       43.3271227358       32.7417257884  TIP3      6832            0.0000000000
     70329      7233  TIP3      OH2            46.4137561002       49.2248133099       23.6832458958  TIP3      6833            0.0000000000
     70330      7233  TIP3      H1             45.6209637018       48.7481785687       23.3482789526  TIP3      6833            0.0000000000
     70331      7233  TIP3      H2             46.2235185745       49.3136225717       24.6351831975  TIP3      6833            0.0000000000
     70332      7234  TIP3      OH2            53.5689859436       48.3795383457       32.4821990590  TIP3      6834            0.0000000000
     70333      7234  TIP3      H1             54.1680573353       48.8661626218       31.8943471188  TIP3      6834            0.0000000000
     70334      7234  TIP3      H2             52.7152927368       48.4860668506       32.0073744534  TIP3      6834            0.0000000000
     70335      7235  TIP3      OH2            50.2822397314       42.0649881916       21.8360755980  TIP3      6835            0.0000000000
     70336      7235  TIP3      H1             49.3190427613       42.1636296530       21.7274287993  TIP3      6835            0.0000000000
     70337      7235  TIP3      H2             50.5732220619       42.9039419022       22.2166520837  TIP3      6835            0.0000000000
     70338      7236  TIP3      OH2            47.9023447147       49.4464253531       34.9202351008  TIP3      6836            0.0000000000
     70339      7236  TIP3      H1             47.5569454403       49.0518364934       35.7286079486  TIP3      6836            0.0000000000
     70340      7236  TIP3      H2             47.6835552284       50.3781002974       35.0060164385  TIP3      6836            0.0000000000
     70341      7237  TIP3      OH2            51.0037376557       43.9246257022       23.5225877013  TIP3      6837            0.0000000000
     70342      7237  TIP3      H1             51.9021209482       43.7935260712       23.8913559314  TIP3      6837            0.0000000000
     70343      7237  TIP3      H2             51.0538872888       44.7497507130       23.0182986474  TIP3      6837            0.0000000000
     70344      7238  TIP3      OH2            41.5175712358       48.5871729220       29.4774192995  TIP3      6838            0.0000000000
     70345      7238  TIP3      H1             42.2364746562       48.5185373675       28.8214700360  TIP3      6838            0.0000000000
     70346      7238  TIP3      H2             41.5792741421       47.7236399411       29.9339549402  TIP3      6838            0.0000000000
     70347      7239  TIP3      OH2            38.5076932262       47.0166646479       34.7563800501  TIP3      6839            0.0000000000
     70348      7239  TIP3      H1             38.7204806584       46.5761408599       35.6033702059  TIP3      6839            0.0000000000
     70349      7239  TIP3      H2             37.9003110421       46.3876118102       34.3307772310  TIP3      6839            0.0000000000
     70350      7240  TIP3      OH2            45.5241565860       46.5477496841       36.9675963642  TIP3      6840            0.0000000000
     70351      7240  TIP3      H1             45.2268815091       46.3213697286       36.0761235195  TIP3      6840            0.0000000000
     70352      7240  TIP3      H2             46.4650198105       46.2804825718       36.9510161621  TIP3      6840            0.0000000000
     70353      7241  TIP3      OH2            50.1782123271       51.9076311863       34.8603296246  TIP3      6841            0.0000000000
     70354      7241  TIP3      H1             49.2528759435       52.0825854849       34.6278671103  TIP3      6841            0.0000000000
     70355      7241  TIP3      H2             50.1718633177       52.1624739292       35.8030452236  TIP3      6841            0.0000000000
     70356      7242  TIP3      OH2            55.7956822457       44.1529518311       23.2855949161  TIP3      6842            0.0000000000
     70357      7242  TIP3      H1             55.3199388085       43.7640565633       22.5412211194  TIP3      6842            0.0000000000
     70358      7242  TIP3      H2             55.9818606514       45.0645222865       22.9560789730  TIP3      6842            0.0000000000
     70359      7243  TIP3      OH2            55.8516233676       49.9247186977       36.0866256745  TIP3      6843            0.0000000000
     70360      7243  TIP3      H1             54.9794622028       50.1796580038       35.7022303884  TIP3      6843            0.0000000000
     70361      7243  TIP3      H2             56.4229064296       49.9327957628       35.2965677324  TIP3      6843            0.0000000000
     70362      7244  TIP3      OH2            54.0175026373       52.9879408125       23.8202727823  TIP3      6844            0.0000000000
     70363      7244  TIP3      H1             53.8061925580       52.0825584794       24.0529463709  TIP3      6844            0.0000000000
     70364      7244  TIP3      H2             54.3940550133       52.7592958096       22.9339285822  TIP3      6844            0.0000000000
     70365      7245  TIP3      OH2            51.3491480468       47.7408269431       30.7489461547  TIP3      6845            0.0000000000
     70366      7245  TIP3      H1             50.4088417940       47.5014384200       30.6795052706  TIP3      6845            0.0000000000
     70367      7245  TIP3      H2             51.7891244709       46.9580159027       30.3704438962  TIP3      6845            0.0000000000
     70368      7246  TIP3      OH2            43.8615502431       52.0981175100       26.9451801371  TIP3      6846            0.0000000000
     70369      7246  TIP3      H1             44.4141533749       52.8418438709       26.6190998386  TIP3      6846            0.0000000000
     70370      7246  TIP3      H2             43.0066804707       52.2817388159       26.5153385149  TIP3      6846            0.0000000000
     70371      7247  TIP3      OH2            39.6283924296       46.9307573048       21.3999663309  TIP3      6847            0.0000000000
     70372      7247  TIP3      H1             40.2587937247       47.5430696561       21.8218223513  TIP3      6847            0.0000000000
     70373      7247  TIP3      H2             38.7750785579       47.2219944344       21.7480890692  TIP3      6847            0.0000000000
     70374      7248  TIP3      OH2            45.3286392801       49.7257723135       26.4301230147  TIP3      6848            0.0000000000
     70375      7248  TIP3      H1             45.0435614378       50.6494122350       26.4711221450  TIP3      6848            0.0000000000
     70376      7248  TIP3      H2             44.5712002998       49.2483883474       26.8235081030  TIP3      6848            0.0000000000
     70377      7249  TIP3      OH2            45.7802874010       53.8858339151       32.7484538670  TIP3      6849            0.0000000000
     70378      7249  TIP3      H1             46.2034136710       54.7304470366       32.5240608371  TIP3      6849            0.0000000000
     70379      7249  TIP3      H2             46.3620735251       53.5790660695       33.4786711523  TIP3      6849            0.0000000000
     70380      7250  TIP3      OH2            43.9970127232       54.7172512041       25.9831198824  TIP3      6850            0.0000000000
     70381      7250  TIP3      H1             43.0323784468       54.8688894940       26.0368151105  TIP3      6850            0.0000000000
     70382      7250  TIP3      H2             44.3524548570       55.5765911211       26.2958457501  TIP3      6850            0.0000000000
     70383      7251  TIP3      OH2            49.3376409978       49.9505243151       32.4336120278  TIP3      6851            0.0000000000
     70384      7251  TIP3      H1             48.9453440634       49.7348362879       33.3006892110  TIP3      6851            0.0000000000
     70385      7251  TIP3      H2             49.9453564312       49.2165567344       32.2596070655  TIP3      6851            0.0000000000
     70386      7252  TIP3      OH2            52.0426492337       54.5265587506       34.9317123994  TIP3      6852            0.0000000000
     70387      7252  TIP3      H1             51.4171178922       53.9716315036       34.4176597413  TIP3      6852            0.0000000000
     70388      7252  TIP3      H2             52.3038268814       55.1894696000       34.2778223219  TIP3      6852            0.0000000000
     70389      7253  TIP3      OH2            56.0366202643       55.4160300181       21.7613886640  TIP3      6853            0.0000000000
     70390      7253  TIP3      H1             56.8210776589       55.9863195119       21.5829528819  TIP3      6853            0.0000000000
     70391      7253  TIP3      H2             55.3705438269       56.0215757234       22.0796466226  TIP3      6853            0.0000000000
     70392      7254  TIP3      OH2            40.1610622924       41.7557848731       34.3102477410  TIP3      6854            0.0000000000
     70393      7254  TIP3      H1             39.2505301283       42.0972832326       34.2652102059  TIP3      6854            0.0000000000
     70394      7254  TIP3      H2             40.0467911187       40.8992293809       34.7511220552  TIP3      6854            0.0000000000
     70395      7255  TIP3      OH2            52.4118783085       49.5944453283       23.7405288715  TIP3      6855            0.0000000000
     70396      7255  TIP3      H1             52.1679020018       48.8328947979       24.3098145704  TIP3      6855            0.0000000000
     70397      7255  TIP3      H2             53.3589767476       49.6747423173       23.9570685884  TIP3      6855            0.0000000000
     70398      7256  TIP3      OH2            39.8233659898       53.5499008496       32.7284336860  TIP3      6856            0.0000000000
     70399      7256  TIP3      H1             40.0334697120       52.6091559037       32.7409357190  TIP3      6856            0.0000000000
     70400      7256  TIP3      H2             40.0371530153       53.8271574399       33.6344668963  TIP3      6856            0.0000000000
     70401      7257  TIP3      OH2            44.5663993041       51.5798082011       22.4395476057  TIP3      6857            0.0000000000
     70402      7257  TIP3      H1             44.7567250762       51.0592281750       23.2163460945  TIP3      6857            0.0000000000
     70403      7257  TIP3      H2             44.5893481345       52.5068614241       22.7307763814  TIP3      6857            0.0000000000
     70404      7258  TIP3      OH2            41.0403405979       48.8257118129       22.9235679288  TIP3      6858            0.0000000000
     70405      7258  TIP3      H1             40.3625697557       49.2063463778       23.5122438089  TIP3      6858            0.0000000000
     70406      7258  TIP3      H2             41.5838892598       49.5937321580       22.6767526714  TIP3      6858            0.0000000000
     70407      7259  TIP3      OH2            48.8845683548       41.5140865188       33.2240147156  TIP3      6859            0.0000000000
     70408      7259  TIP3      H1             49.5911567078       41.5718557808       33.8794655637  TIP3      6859            0.0000000000
     70409      7259  TIP3      H2             48.5036760183       40.6309004050       33.4041567036  TIP3      6859            0.0000000000
     70410      7260  TIP3      OH2            49.6626761846       41.1199003453       24.3245614352  TIP3      6860            0.0000000000
     70411      7260  TIP3      H1             49.8794641178       41.6049032504       23.5075827788  TIP3      6860            0.0000000000
     70412      7260  TIP3      H2             50.2259543880       41.5438624473       24.9860226330  TIP3      6860            0.0000000000
     70413      7261  TIP3      OH2            46.8529493926       42.8744864158       25.1503064570  TIP3      6861            0.0000000000
     70414      7261  TIP3      H1             47.6784510096       43.3988757303       25.1961760267  TIP3      6861            0.0000000000
     70415      7261  TIP3      H2             46.6148213820       42.7229443719       26.0818140196  TIP3      6861            0.0000000000
     70416      7262  TIP3      OH2            47.4097973580       43.8630185128       34.3365885792  TIP3      6862            0.0000000000
     70417      7262  TIP3      H1             47.5102114359       44.4393613044       35.1166493375  TIP3      6862            0.0000000000
     70418      7262  TIP3      H2             48.0699888980       43.1688959146       34.4477617038  TIP3      6862            0.0000000000
     70419      7263  TIP3      OH2            47.7358815734       39.9224798169       26.0716120244  TIP3      6863            0.0000000000
     70420      7263  TIP3      H1             47.4016634717       40.5713096851       26.7192258160  TIP3      6863            0.0000000000
     70421      7263  TIP3      H2             48.4138922939       40.4709568776       25.6053134176  TIP3      6863            0.0000000000
     70422      7264  TIP3      OH2            44.6601526643       54.3450334581       23.1555241087  TIP3      6864            0.0000000000
     70423      7264  TIP3      H1             44.8533179913       55.1299335779       22.6559110028  TIP3      6864            0.0000000000
     70424      7264  TIP3      H2             44.4719104728       54.6258658618       24.0665704221  TIP3      6864            0.0000000000
     70425      7265  TIP3      OH2            43.3777009758       40.9790503143       22.7990505839  TIP3      6865            0.0000000000
     70426      7265  TIP3      H1             43.3285070653       41.9109769805       23.1015803134  TIP3      6865            0.0000000000
     70427      7265  TIP3      H2             44.3073157589       40.7887959951       22.9975630036  TIP3      6865            0.0000000000
     70428      7266  TIP3      OH2            53.6117025506       41.7544953952       35.1880741195  TIP3      6866            0.0000000000
     70429      7266  TIP3      H1             52.6734338140       42.0384427736       35.0732712504  TIP3      6866            0.0000000000
     70430      7266  TIP3      H2             53.9269997790       41.7493234989       34.2708360912  TIP3      6866            0.0000000000
     70431      7267  TIP3      OH2            52.1889067693       45.5381477544       29.2520786061  TIP3      6867            0.0000000000
     70432      7267  TIP3      H1             51.3899034613       45.0902357885       28.9341461833  TIP3      6867            0.0000000000
     70433      7267  TIP3      H2             52.6690230661       44.8309191990       29.7458678890  TIP3      6867            0.0000000000
     70434      7268  TIP3      OH2            39.9565393294       44.1205848033       20.9647823706  TIP3      6868            0.0000000000
     70435      7268  TIP3      H1             39.9461722136       45.0727200968       21.1204663224  TIP3      6868            0.0000000000
     70436      7268  TIP3      H2             39.0831700841       43.8730827720       20.6544494744  TIP3      6868            0.0000000000
     70437      7269  TIP3      OH2            53.2789829170       54.7364049310       30.9008583302  TIP3      6869            0.0000000000
     70438      7269  TIP3      H1             53.1528197605       55.4512460774       30.2287585677  TIP3      6869            0.0000000000
     70439      7269  TIP3      H2             54.2348929679       54.8589954147       31.0711234006  TIP3      6869            0.0000000000
     70440      7270  TIP3      OH2            40.7876882880       38.9063355979       29.6520668581  TIP3      6870            0.0000000000
     70441      7270  TIP3      H1             40.5609683622       38.9412264474       28.6966070201  TIP3      6870            0.0000000000
     70442      7270  TIP3      H2             40.3448901325       38.0798334163       29.9298828604  TIP3      6870            0.0000000000
     70443      7271  TIP3      OH2            39.7305962941       52.8261182149       25.8023463375  TIP3      6871            0.0000000000
     70444      7271  TIP3      H1             38.8822778569       53.3087178573       25.8113907953  TIP3      6871            0.0000000000
     70445      7271  TIP3      H2             40.2391814570       53.3325411182       25.1565577213  TIP3      6871            0.0000000000
     70446      7272  TIP3      OH2            38.9872173614       55.4651753477       37.1081242266  TIP3      6872            0.0000000000
     70447      7272  TIP3      H1             39.5477816868       55.2408662534       37.8771768354  TIP3      6872            0.0000000000
     70448      7272  TIP3      H2             38.5246134251       54.6297037980       36.9343618519  TIP3      6872            0.0000000000
     70449      7273  TIP3      OH2            43.6132960299       54.3712051906       38.7481687316  TIP3      6873            0.0000000000
     70450      7273  TIP3      H1             44.3874138205       53.8898579840       39.0585317108  TIP3      6873            0.0000000000
     70451      7273  TIP3      H2             43.5860776612       54.1266240633       37.8004062811  TIP3      6873            0.0000000000
     70452      7274  TIP3      OH2            50.1447700381       52.7717195740       37.4587784844  TIP3      6874            0.0000000000
     70453      7274  TIP3      H1             49.8239827292       51.8848393169       37.7169418168  TIP3      6874            0.0000000000
     70454      7274  TIP3      H2             50.9063041084       52.8868885986       38.0594855264  TIP3      6874            0.0000000000
     70455      7275  TIP3      OH2            52.2304449367       53.7168551559       20.4342778514  TIP3      6875            0.0000000000
     70456      7275  TIP3      H1             52.5750214242       52.8824272374       20.7666506908  TIP3      6875            0.0000000000
     70457      7275  TIP3      H2             52.9411367389       53.9019757387       19.7691159855  TIP3      6875            0.0000000000
     70458      7276  TIP3      OH2            38.8890973324       49.2542378852       38.0887342954  TIP3      6876            0.0000000000
     70459      7276  TIP3      H1             39.0458382012       48.3431178155       37.7766958003  TIP3      6876            0.0000000000
     70460      7276  TIP3      H2             38.1274982094       49.5315769499       37.5533967971  TIP3      6876            0.0000000000
     70461      7277  TIP3      OH2            45.5725017512       49.2308609794       37.4937820651  TIP3      6877            0.0000000000
     70462      7277  TIP3      H1             45.2316323948       49.5193570239       36.6281011913  TIP3      6877            0.0000000000
     70463      7277  TIP3      H2             45.6922331400       48.2630975948       37.3973696025  TIP3      6877            0.0000000000
     70464      7278  TIP3      OH2            51.2798423941       49.1095999018       34.8836552735  TIP3      6878            0.0000000000
     70465      7278  TIP3      H1             52.0483474294       49.7187407778       34.7861468950  TIP3      6878            0.0000000000
     70466      7278  TIP3      H2             50.5518420442       49.7440538499       34.9341915612  TIP3      6878            0.0000000000
     70467      7279  TIP3      OH2            39.7559183890       46.4726699165       37.4868169113  TIP3      6879            0.0000000000
     70468      7279  TIP3      H1             40.1634067543       45.6047203953       37.3820699905  TIP3      6879            0.0000000000
     70469      7279  TIP3      H2             39.5042762650       46.4759704405       38.4285718877  TIP3      6879            0.0000000000
     70470      7280  TIP3      OH2            44.4356411237       47.5760034033       22.5178181794  TIP3      6880            0.0000000000
     70471      7280  TIP3      H1             43.9217844142       47.0995024892       23.1841936264  TIP3      6880            0.0000000000
     70472      7280  TIP3      H2             44.6526411294       46.9025954297       21.8637954370  TIP3      6880            0.0000000000
     70473      7281  TIP3      OH2            43.6843576567       45.4430686329       34.8611218702  TIP3      6881            0.0000000000
     70474      7281  TIP3      H1             43.0696014026       46.1476370477       35.1287462731  TIP3      6881            0.0000000000
     70475      7281  TIP3      H2             44.0448502431       45.7938766864       34.0289697840  TIP3      6881            0.0000000000
     70476      7282  TIP3      OH2            48.7232409406       47.9647038665       38.1817955698  TIP3      6882            0.0000000000
     70477      7282  TIP3      H1             49.6821473284       48.0034719502       38.0939394533  TIP3      6882            0.0000000000
     70478      7282  TIP3      H2             48.5590980657       47.2164796372       38.7724908063  TIP3      6882            0.0000000000
     70479      7283  TIP3      OH2            54.8138925784       48.1957790245       20.2348271801  TIP3      6883            0.0000000000
     70480      7283  TIP3      H1             54.6430052557       47.7360484470       19.3918153631  TIP3      6883            0.0000000000
     70481      7283  TIP3      H2             54.9175480692       49.1060744890       19.9695564415  TIP3      6883            0.0000000000
     70482      7284  TIP3      OH2            44.0545517626       42.8153738634       35.9324813955  TIP3      6884            0.0000000000
     70483      7284  TIP3      H1             44.1838875126       42.0864444464       35.3045557142  TIP3      6884            0.0000000000
     70484      7284  TIP3      H2             44.0319174921       43.6117635833       35.3669302680  TIP3      6884            0.0000000000
     70485      7285  TIP3      OH2            44.4615267973       41.1853208640       33.4544667953  TIP3      6885            0.0000000000
     70486      7285  TIP3      H1             44.9858326643       41.6475186763       32.7610571140  TIP3      6885            0.0000000000
     70487      7285  TIP3      H2             43.5804808954       41.0917293922       33.0234722072  TIP3      6885            0.0000000000
     70488      7286  TIP3      OH2            46.0217575180       46.6401289301       33.6926487489  TIP3      6886            0.0000000000
     70489      7286  TIP3      H1             46.7751475873       46.4848964530       33.1105501390  TIP3      6886            0.0000000000
     70490      7286  TIP3      H2             45.6747862514       47.4933884118       33.3870336431  TIP3      6886            0.0000000000
     70491      7287  TIP3      OH2            50.4243126432       44.4366987203       38.6905941928  TIP3      6887            0.0000000000
     70492      7287  TIP3      H1             50.6349837572       43.4971505032       38.5907744651  TIP3      6887            0.0000000000
     70493      7287  TIP3      H2             51.2959470238       44.8621537336       38.6860256644  TIP3      6887            0.0000000000
     70494      7288  TIP3      OH2            51.7511980564       47.2206077601       36.8194407808  TIP3      6888            0.0000000000
     70495      7288  TIP3      H1             51.4907003967       47.9440354127       36.2025410766  TIP3      6888            0.0000000000
     70496      7288  TIP3      H2             52.7120759015       47.1758289791       36.6216874669  TIP3      6888            0.0000000000
     70497      7289  TIP3      OH2            42.5254075701       44.0411435466       37.8611898775  TIP3      6889            0.0000000000
     70498      7289  TIP3      H1             41.7494648230       43.4804289494       37.6412808161  TIP3      6889            0.0000000000
     70499      7289  TIP3      H2             43.1858865014       43.6982052627       37.2283787258  TIP3      6889            0.0000000000
     70500      7290  TIP3      OH2            45.2592349102       38.6225865820       33.8775889023  TIP3      6890            0.0000000000
     70501      7290  TIP3      H1             45.1242985909       39.5935994353       33.7589994506  TIP3      6890            0.0000000000
     70502      7290  TIP3      H2             44.5037352023       38.2707255253       33.3726346249  TIP3      6890            0.0000000000
     70503      7291  TIP3      OH2            46.5299961168       42.9547477802       37.4495261434  TIP3      6891            0.0000000000
     70504      7291  TIP3      H1             46.2509597397       42.7379144011       38.3570251641  TIP3      6891            0.0000000000
     70505      7291  TIP3      H2             45.7319165768       42.7591234836       36.9203822499  TIP3      6891            0.0000000000
     70506      7292  TIP3      OH2            49.2447260739       42.0897862391       36.5146317253  TIP3      6892            0.0000000000
     70507      7292  TIP3      H1             48.2816073384       42.1335091426       36.6541897694  TIP3      6892            0.0000000000
     70508      7292  TIP3      H2             49.5338330884       41.4617852658       37.1957354946  TIP3      6892            0.0000000000
     70509      7293  TIP3      OH2            50.8607153064       40.7255497689       38.4898265423  TIP3      6893            0.0000000000
     70510      7293  TIP3      H1             50.7713862780       39.7567634024       38.5020917935  TIP3      6893            0.0000000000
     70511      7293  TIP3      H2             50.5533390830       41.0069175178       39.3828276933  TIP3      6893            0.0000000000
     70512      7294  TIP3      OH2            40.6596463489       41.9685593849       37.5637658687  TIP3      6894            0.0000000000
     70513      7294  TIP3      H1             40.8899780331       41.2356749150       36.9602954850  TIP3      6894            0.0000000000
     70514      7294  TIP3      H2             40.5643160349       41.5142345595       38.4250979422  TIP3      6894            0.0000000000
     70515      7295  TIP3      OH2            45.4682930478       37.9725280320       36.5541760658  TIP3      6895            0.0000000000
     70516      7295  TIP3      H1             46.1793708629       37.2965126020       36.5223754171  TIP3      6895            0.0000000000
     70517      7295  TIP3      H2             45.3730544321       38.1871716368       35.6071059836  TIP3      6895            0.0000000000
     70518      7296  TIP3      OH2            45.8314331443       39.6201776816       38.6233153662  TIP3      6896            0.0000000000
     70519      7296  TIP3      H1             45.6838003062       39.1279205107       37.7790136224  TIP3      6896            0.0000000000
     70520      7296  TIP3      H2             45.2318756923       40.3829141178       38.5352100035  TIP3      6896            0.0000000000
     70521      7297  TIP3      OH2            38.4928348639       54.6086613100       28.1228599305  TIP3      6897            0.0000000000
     70522      7297  TIP3      H1             38.1067229807       53.7421835931       28.3142445780  TIP3      6897            0.0000000000
     70523      7297  TIP3      H2             38.6606101800       54.9673357594       29.0105514205  TIP3      6897            0.0000000000
     70524      7298  TIP3      OH2            55.9705941574       55.4290305028       31.1133491414  TIP3      6898            0.0000000000
     70525      7298  TIP3      H1             56.0063491717       55.6193822544       32.0646141076  TIP3      6898            0.0000000000
     70526      7298  TIP3      H2             56.7024679013       55.9787746070       30.7856931174  TIP3      6898            0.0000000000
     70527      7299  TIP3      OH2            55.5989746678       54.9894875798       34.0168263779  TIP3      6899            0.0000000000
     70528      7299  TIP3      H1             55.0870989069       54.2425198325       33.6549539241  TIP3      6899            0.0000000000
     70529      7299  TIP3      H2             56.1148970474       54.5900125019       34.7275586459  TIP3      6899            0.0000000000
     70530      7300  TIP3      OH2            54.0201743270       50.7528426402       38.6814124791  TIP3      6900            0.0000000000
     70531      7300  TIP3      H1             53.1349843829       50.6953421208       39.0758018652  TIP3      6900            0.0000000000
     70532      7300  TIP3      H2             54.4035963685       51.5493237653       39.1266167067  TIP3      6900            0.0000000000
     70533      7301  TIP3      OH2            55.2800015994       49.0493562086       24.1601594490  TIP3      6901            0.0000000000
     70534      7301  TIP3      H1             56.1647459192       49.4563380744       24.3127234233  TIP3      6901            0.0000000000
     70535      7301  TIP3      H2             55.3290173376       48.3140829149       24.8120311460  TIP3      6901            0.0000000000
     70536      7302  TIP3      OH2            55.6968816857       47.1454925527       26.0006370971  TIP3      6902            0.0000000000
     70537      7302  TIP3      H1             54.9695357779       46.6267807353       26.4099645031  TIP3      6902            0.0000000000
     70538      7302  TIP3      H2             56.3038202594       47.2990433580       26.7617010340  TIP3      6902            0.0000000000
     70539      7303  TIP3      OH2            55.4690391125       49.8521900511       30.9953046053  TIP3      6903            0.0000000000
     70540      7303  TIP3      H1             56.3096534331       49.4860184630       30.6625620695  TIP3      6903            0.0000000000
     70541      7303  TIP3      H2             55.5915680166       50.8166558716       30.8250955297  TIP3      6903            0.0000000000
     70542      7304  TIP3      OH2            53.9798868587       52.7340928948       33.2833166337  TIP3      6904            0.0000000000
     70543      7304  TIP3      H1             53.3102872644       53.1041445523       33.8748521161  TIP3      6904            0.0000000000
     70544      7304  TIP3      H2             53.4355131813       52.3211666303       32.5776570974  TIP3      6904            0.0000000000
     70545      7305  TIP3      OH2            55.9219734865       46.9551256964       22.4400125219  TIP3      6905            0.0000000000
     70546      7305  TIP3      H1             55.4492331937       47.3463201510       21.6701276647  TIP3      6905            0.0000000000
     70547      7305  TIP3      H2             55.9413051965       47.6923451052       23.0721847955  TIP3      6905            0.0000000000
     70548      7306  TIP3      OH2            53.5106358485       45.6180650336       26.5601837634  TIP3      6906            0.0000000000
     70549      7306  TIP3      H1             53.3536002359       44.6629770651       26.5599343151  TIP3      6906            0.0000000000
     70550      7306  TIP3      H2             53.1581329161       45.8790597219       27.4313985617  TIP3      6906            0.0000000000
     70551      7307  TIP3      OH2            38.5218264263       47.7010538731       30.6135748309  TIP3      6907            0.0000000000
     70552      7307  TIP3      H1             38.7220709130       47.6174259553       29.6552309945  TIP3      6907            0.0000000000
     70553      7307  TIP3      H2             39.4072168321       47.5542812884       31.0000914797  TIP3      6907            0.0000000000
     70554      7308  TIP3      OH2            54.3509739034       47.5890977897       36.2490354936  TIP3      6908            0.0000000000
     70555      7308  TIP3      H1             54.9644762155       46.8438376193       36.4051610941  TIP3      6908            0.0000000000
     70556      7308  TIP3      H2             54.9425369817       48.3675364969       36.2555025026  TIP3      6908            0.0000000000
     70557      7309  TIP3      OH2            55.8528612149       45.4984694104       36.8968950964  TIP3      6909            0.0000000000
     70558      7309  TIP3      H1             54.9806260700       45.0890604765       36.7372399356  TIP3      6909            0.0000000000
     70559      7309  TIP3      H2             56.4439446630       44.7228991470       36.8294296846  TIP3      6909            0.0000000000
     70560      7310  TIP3      OH2            53.5635146963       41.6717945390       20.0836237651  TIP3      6910            0.0000000000
     70561      7310  TIP3      H1             54.1984330501       41.2634591151       20.6894028801  TIP3      6910            0.0000000000
     70562      7310  TIP3      H2             52.7495634275       41.1893778246       20.2515516765  TIP3      6910            0.0000000000
     70563      7311  TIP3      OH2            53.1959398053       43.2095430785       25.0241278809  TIP3      6911            0.0000000000
     70564      7311  TIP3      H1             53.4980120315       42.2787370790       25.1588174522  TIP3      6911            0.0000000000
     70565      7311  TIP3      H2             53.9864011613       43.6199273412       24.6448213216  TIP3      6911            0.0000000000
     70566      7312  TIP3      OH2            53.7733860903       43.7559320052       30.4643497098  TIP3      6912            0.0000000000
     70567      7312  TIP3      H1             54.7469949026       43.9803523799       30.4543788695  TIP3      6912            0.0000000000
     70568      7312  TIP3      H2             53.5992751858       43.8883764612       31.4088381819  TIP3      6912            0.0000000000
     70569      7313  TIP3      OH2            53.8700839012       44.4863231476       33.2509720413  TIP3      6913            0.0000000000
     70570      7313  TIP3      H1             53.0060361129       44.7879474582       33.6006063778  TIP3      6913            0.0000000000
     70571      7313  TIP3      H2             54.3121641399       45.3425276863       33.0395136902  TIP3      6913            0.0000000000
     70572      7314  TIP3      OH2            38.1300318758       42.9922235385       36.7484785174  TIP3      6914            0.0000000000
     70573      7314  TIP3      H1             39.0683656614       42.8249367758       36.9693337911  TIP3      6914            0.0000000000
     70574      7314  TIP3      H2             37.6858724697       42.1933959110       37.1039612396  TIP3      6914            0.0000000000
     70575      7315  TIP3      OH2            53.8254982041       40.4882943231       25.0730325549  TIP3      6915            0.0000000000
     70576      7315  TIP3      H1             54.0158652354       40.0300511685       25.9192203026  TIP3      6915            0.0000000000
     70577      7315  TIP3      H2             53.2195308343       39.8614437423       24.6223606853  TIP3      6915            0.0000000000
     70578      7316  TIP3      OH2            39.3419636661       41.2877922851       29.6219231109  TIP3      6916            0.0000000000
     70579      7316  TIP3      H1             39.8065244793       40.4775863314       29.9150140572  TIP3      6916            0.0000000000
     70580      7316  TIP3      H2             39.8479870751       41.9956800841       30.0435783379  TIP3      6916            0.0000000000
     70581      7317  TIP3      OH2            37.6331255662       44.2762906005       30.6891009297  TIP3      6917            0.0000000000
     70582      7317  TIP3      H1             38.1751973257       44.0576708166       29.9018650757  TIP3      6917            0.0000000000
     70583      7317  TIP3      H2             38.0519953580       45.1095810649       30.9558786265  TIP3      6917            0.0000000000
     70584      7318  TIP3      OH2            55.6724572068       40.6046887185       36.9805590692  TIP3      6918            0.0000000000
     70585      7318  TIP3      H1             54.7366202549       40.8792265072       36.9131692350  TIP3      6918            0.0000000000
     70586      7318  TIP3      H2             55.7586086623       40.0616849815       36.1795238303  TIP3      6918            0.0000000000
     70587      7319  TIP3      OH2            55.6749865518       40.5145920419       21.6370838239  TIP3      6919            0.0000000000
     70588      7319  TIP3      H1             56.0955956096       39.8531204296       21.1166727848  TIP3      6919            0.0000000000
     70589      7319  TIP3      H2             56.3621524784       41.2173221589       21.6690656098  TIP3      6919            0.0000000000
     70590      7320  TIP3      OH2            37.9798561972       40.5428117050       24.7571973270  TIP3      6920            0.0000000000
     70591      7320  TIP3      H1             37.0463043759       40.7469143353       24.6122110409  TIP3      6920            0.0000000000
     70592      7320  TIP3      H2             38.4261564919       41.0288866930       24.0380323689  TIP3      6920            0.0000000000
     70593      7321  TIP3      OH2            52.7255460395       55.5205308722       26.6702341041  TIP3      6921            0.0000000000
     70594      7321  TIP3      H1             53.4229939002       55.1691133600       26.0855450957  TIP3      6921            0.0000000000
     70595      7321  TIP3      H2             53.2595576854       55.9899939512       27.3456517559  TIP3      6921            0.0000000000
     70596      7322  TIP3      OH2            37.9478523985       39.2477419683       33.0714373287  TIP3      6922            0.0000000000
     70597      7322  TIP3      H1             37.2674395244       39.0266293701       33.7305253590  TIP3      6922            0.0000000000
     70598      7322  TIP3      H2             37.4844508746       39.9005408864       32.5037574988  TIP3      6922            0.0000000000
     70599      7323  TIP3      OH2            40.1557459461       52.4398070292       37.2225968841  TIP3      6923            0.0000000000
     70600      7323  TIP3      H1             39.3129916060       52.6206204972       36.7756288965  TIP3      6923            0.0000000000
     70601      7323  TIP3      H2             39.8843570676       52.3829886037       38.1490309408  TIP3      6923            0.0000000000
     70602      7324  TIP3      OH2            43.0638578070       53.4027657651       33.4665820247  TIP3      6924            0.0000000000
     70603      7324  TIP3      H1             42.6925630223       54.2612582710       33.2247439117  TIP3      6924            0.0000000000
     70604      7324  TIP3      H2             44.0006112411       53.5145830440       33.1980750270  TIP3      6924            0.0000000000
     70605      7325  TIP3      OH2            47.4031887806       54.8130845626       36.4140403724  TIP3      6925            0.0000000000
     70606      7325  TIP3      H1             47.5719107192       54.4928607228       37.3365777519  TIP3      6925            0.0000000000
     70607      7325  TIP3      H2             48.2763167579       55.1388695721       36.1377510081  TIP3      6925            0.0000000000
     70608      7326  TIP3      OH2            49.7071594324       56.1054271186       35.6935705811  TIP3      6926            0.0000000000
     70609      7326  TIP3      H1             50.4284331709       55.4955745927       35.4617003634  TIP3      6926            0.0000000000
     70610      7326  TIP3      H2             50.0631388335       56.5068618020       36.5166421789  TIP3      6926            0.0000000000
     70611      7327  TIP3      OH2            54.6558701216       38.7137487058       34.8164671433  TIP3      6927            0.0000000000
     70612      7327  TIP3      H1             53.8414842017       39.0186835406       34.3810872236  TIP3      6927            0.0000000000
     70613      7327  TIP3      H2             54.8730518563       37.9246645971       34.2642231607  TIP3      6927            0.0000000000
     70614      7328  TIP3      OH2            42.9413643761      -56.6219342151       32.5861890316  TIP3      6928            0.0000000000
     70615      7328  TIP3      H1             42.0741030042      -56.4599215535       32.9737645888  TIP3      6928            0.0000000000
     70616      7328  TIP3      H2             42.9073758479      -56.0117429179       31.8034060565  TIP3      6928            0.0000000000
     70617      7329  TIP3      OH2            47.6565784222      -56.7081433852       31.7280692894  TIP3      6929            0.0000000000
     70618      7329  TIP3      H1             47.2129182479      -56.1379326204       31.0795072881  TIP3      6929            0.0000000000
     70619      7329  TIP3      H2             47.8199220932      -56.0670220734       32.4638198256  TIP3      6929            0.0000000000
     70620      7330  TIP3      OH2            49.9817480045       55.0062327087       32.7149619208  TIP3      6930            0.0000000000
     70621      7330  TIP3      H1             49.0910369361       55.2245582936       32.4027653487  TIP3      6930            0.0000000000
     70622      7330  TIP3      H2             50.4112490243       55.8689043416       32.6184767875  TIP3      6930            0.0000000000
     70623      7331  TIP3      OH2            39.9041154163       55.2637136984       30.4457897676  TIP3      6931            0.0000000000
     70624      7331  TIP3      H1             39.8667433299       54.8557015236       31.3320023994  TIP3      6931            0.0000000000
     70625      7331  TIP3      H2             40.7316098410       54.9528630407       30.0385219953  TIP3      6931            0.0000000000
     70626      7332  TIP3      OH2            41.9218143418       54.1029931490       29.0948102194  TIP3      6932            0.0000000000
     70627      7332  TIP3      H1             41.7412550395       53.1439015513       29.2665919478  TIP3      6932            0.0000000000
     70628      7332  TIP3      H2             42.7780533903       54.2742120623       29.5625041668  TIP3      6932            0.0000000000
     70629      7333  TIP3      OH2            44.6029846786       54.5088697204       29.9709213736  TIP3      6933            0.0000000000
     70630      7333  TIP3      H1             44.9129188286       53.6404940719       29.7060543523  TIP3      6933            0.0000000000
     70631      7333  TIP3      H2             44.6795431889       54.4767711061       30.9399448637  TIP3      6933            0.0000000000
     70632      7334  TIP3      OH2            48.0904416039       40.1504051219       29.0965163963  TIP3      6934            0.0000000000
     70633      7334  TIP3      H1             47.4138124617       39.5063168843       29.3575146041  TIP3      6934            0.0000000000
     70634      7334  TIP3      H2             48.6478857805       39.6398370663       28.4987310620  TIP3      6934            0.0000000000
     70635      7335  TIP3      OH2            53.2347452429       38.2221301453       29.2014704796  TIP3      6935            0.0000000000
     70636      7335  TIP3      H1             53.8422682372       38.8065943541       28.6795353942  TIP3      6935            0.0000000000
     70637      7335  TIP3      H2             52.3539412837       38.5670415337       28.9557785212  TIP3      6935            0.0000000000
     70638      7336  TIP3      OH2            54.9037444797       39.4230264525       27.5121755455  TIP3      6936            0.0000000000
     70639      7336  TIP3      H1             55.5676497739       38.8829397724       27.0160904002  TIP3      6936            0.0000000000
     70640      7336  TIP3      H2             55.3544026682       40.2923758153       27.5610775433  TIP3      6936            0.0000000000
     70641      7337  TIP3      OH2            40.4402305126       38.7893756740       26.9313601430  TIP3      6937            0.0000000000
     70642      7337  TIP3      H1             39.6469124096       38.5534415099       26.4108632964  TIP3      6937            0.0000000000
     70643      7337  TIP3      H2             40.9364685731       37.9504017501       26.9056604822  TIP3      6937            0.0000000000
     70644      7338  TIP3      OH2            39.2532576329       38.5514447488       22.7162034266  TIP3      6938            0.0000000000
     70645      7338  TIP3      H1             39.6914707888       39.1964430481       22.1268863126  TIP3      6938            0.0000000000
     70646      7338  TIP3      H2             38.6337129624       39.1120735022       23.2095441183  TIP3      6938            0.0000000000
     70647      7339  TIP3      OH2            44.9726413180       38.6903605595       26.7122162066  TIP3      6939            0.0000000000
     70648      7339  TIP3      H1             45.8613457469       39.0885160525       26.6963628061  TIP3      6939            0.0000000000
     70649      7339  TIP3      H2             44.8775574266       38.4937430529       27.6502854165  TIP3      6939            0.0000000000
     70650      7340  TIP3      OH2            50.6003596089       38.7258434287       28.3669065564  TIP3      6940            0.0000000000
     70651      7340  TIP3      H1             50.6280512021       38.8294966032       27.4095468782  TIP3      6940            0.0000000000
     70652      7340  TIP3      H2             50.2607026408       37.8143630786       28.4993833476  TIP3      6940            0.0000000000
     70653      7341  TIP3      OH2            51.9233534404       38.7644930233       24.0526384534  TIP3      6941            0.0000000000
     70654      7341  TIP3      H1             51.1991399098       39.3737263877       23.8615295795  TIP3      6941            0.0000000000
     70655      7341  TIP3      H2             51.4686112777       37.9132176206       24.2173480803  TIP3      6941            0.0000000000
     70656      7342  TIP3      OH2            39.1658605696       54.4968659921       23.6342209005  TIP3      6942            0.0000000000
     70657      7342  TIP3      H1             38.4618867395       54.4968406341       22.9624021643  TIP3      6942            0.0000000000
     70658      7342  TIP3      H2             39.1551475365       55.4389661772       23.8794363511  TIP3      6942            0.0000000000
     70659      7343  TIP3      OH2            41.0699533166       40.5230383155       21.1842970854  TIP3      6943            0.0000000000
     70660      7343  TIP3      H1             41.5873908061       39.9243311633       20.6365515753  TIP3      6943            0.0000000000
     70661      7343  TIP3      H2             41.7418296923       40.8344921567       21.8093963037  TIP3      6943            0.0000000000
     70662      7344  TIP3      OH2            46.1018768373       40.7460287871       23.5888920781  TIP3      6944            0.0000000000
     70663      7344  TIP3      H1             46.3336430164       40.1547722305       24.3178995151  TIP3      6944            0.0000000000
     70664      7344  TIP3      H2             46.1150515585       41.6098164563       24.0714007749  TIP3      6944            0.0000000000
     70665      7345  TIP3      OH2            48.0197809642       55.7353706463       22.0379031258  TIP3      6945            0.0000000000
     70666      7345  TIP3      H1             48.8859450419       56.0936947361       21.8045200902  TIP3      6945            0.0000000000
     70667      7345  TIP3      H2             47.7724535752       55.3139588863       21.2034885983  TIP3      6945            0.0000000000
     70668      7346  TIP3      OH2            54.7060144097       55.2969813152       24.7361781227  TIP3      6946            0.0000000000
     70669      7346  TIP3      H1             54.5530170863       54.5138042098       24.1635734700  TIP3      6946            0.0000000000
     70670      7346  TIP3      H2             54.7289098969       56.0494516336       24.1254142799  TIP3      6946            0.0000000000
     70671      7347  TIP3      OH2            40.3517182197       39.3115848515       36.4085908722  TIP3      6947            0.0000000000
     70672      7347  TIP3      H1             39.9951186418       38.5204266471       36.8564916984  TIP3      6947            0.0000000000
     70673      7347  TIP3      H2             41.2812860259       39.3011658359       36.7455046390  TIP3      6947            0.0000000000
     70674      7348  TIP3      OH2            42.3532328087       38.6860518067       38.0006394478  TIP3      6948            0.0000000000
     70675      7348  TIP3      H1             43.2492991089       38.3549032507       37.7877709740  TIP3      6948            0.0000000000
     70676      7348  TIP3      H2             41.9703386262       37.8964423345       38.4379182549  TIP3      6948            0.0000000000
     70677      7349  TIP3      OH2            40.9739712683       55.4378183177       20.6506954975  TIP3      6949            0.0000000000
     70678      7349  TIP3      H1             40.7048662241       55.7366390665       21.5276578099  TIP3      6949            0.0000000000
     70679      7349  TIP3      H2             41.7540197983       54.8870388162       20.7944721763  TIP3      6949            0.0000000000
     70680      7350  TIP3      OH2            50.7540101295       37.9902615425       38.1642008202  TIP3      6950            0.0000000000
     70681      7350  TIP3      H1             50.8523477577       37.5305962443       39.0193192687  TIP3      6950            0.0000000000
     70682      7350  TIP3      H2             51.6694253686       37.9736864063       37.8204183224  TIP3      6950            0.0000000000
     70683      7351  TIP3      OH2            53.9498109365       54.0442141309       36.8674166828  TIP3      6951            0.0000000000
     70684      7351  TIP3      H1             53.1656204195       53.8734646268       36.3074851566  TIP3      6951            0.0000000000
     70685      7351  TIP3      H2             53.8809415426       54.9877597588       37.0431567558  TIP3      6951            0.0000000000
     70686      7352  TIP3      OH2           -46.0264215142      -48.6117105778       40.1890462979  TIP3      6952            0.0000000000
     70687      7352  TIP3      H1            -45.3082078529      -48.6091733756       40.8540189754  TIP3      6952            0.0000000000
     70688      7352  TIP3      H2            -45.6913066343      -49.2792995086       39.5776497585  TIP3      6952            0.0000000000
     70689      7353  TIP3      OH2           -43.8371938206      -47.7978986102       41.7250017351  TIP3      6953            0.0000000000
     70690      7353  TIP3      H1            -43.2920497297      -47.6314571562       42.5313046789  TIP3      6953            0.0000000000
     70691      7353  TIP3      H2            -43.3951606850      -47.2687490435       41.0355298472  TIP3      6953            0.0000000000
     70692      7354  TIP3      OH2           -40.0727990012      -55.9608337775       41.6818919936  TIP3      6954            0.0000000000
     70693      7354  TIP3      H1            -41.0047374400      -55.8484427462       41.8963240663  TIP3      6954            0.0000000000
     70694      7354  TIP3      H2            -39.8467413099      -55.1302965452       41.2271795991  TIP3      6954            0.0000000000
     70695      7355  TIP3      OH2           -38.9087676413      -41.6249040862       39.9725417860  TIP3      6955            0.0000000000
     70696      7355  TIP3      H1            -38.7901181323      -40.6773037882       40.1808925356  TIP3      6955            0.0000000000
     70697      7355  TIP3      H2            -37.9782782912      -41.9090584712       39.9775185481  TIP3      6955            0.0000000000
     70698      7356  TIP3      OH2           -43.4889673802      -38.8608706528       40.6768220249  TIP3      6956            0.0000000000
     70699      7356  TIP3      H1            -43.0864313060      -39.6237452156       40.2010938894  TIP3      6956            0.0000000000
     70700      7356  TIP3      H2            -43.4530765241      -39.1602229280       41.5955532773  TIP3      6956            0.0000000000
     70701      7357  TIP3      OH2           -42.3020312368      -46.7011643664       39.5134394270  TIP3      6957            0.0000000000
     70702      7357  TIP3      H1            -42.2936733311      -46.9082927158       38.5310929640  TIP3      6957            0.0000000000
     70703      7357  TIP3      H2            -41.4413358035      -46.2750559595       39.5966369452  TIP3      6957            0.0000000000
     70704      7358  TIP3      OH2           -46.7213349577      -52.8140418030       40.1056426655  TIP3      6958            0.0000000000
     70705      7358  TIP3      H1            -46.9916372531      -52.8083957769       41.0327411415  TIP3      6958            0.0000000000
     70706      7358  TIP3      H2            -47.0076500879      -53.6957153450       39.8085413868  TIP3      6958            0.0000000000
     70707      7359  TIP3      OH2           -49.8568836577      -52.3863390569       39.2080216561  TIP3      6959            0.0000000000
     70708      7359  TIP3      H1            -50.3093273852      -52.8289815267       39.9565823346  TIP3      6959            0.0000000000
     70709      7359  TIP3      H2            -50.5837071369      -51.9973054115       38.7001296963  TIP3      6959            0.0000000000
     70710      7360  TIP3      OH2           -55.3206864624      -51.9947728947       41.6496082005  TIP3      6960            0.0000000000
     70711      7360  TIP3      H1            -54.8385993908      -51.3099475358       41.1247405264  TIP3      6960            0.0000000000
     70712      7360  TIP3      H2            -56.0090960095      -51.3817239388       42.0187746994  TIP3      6960            0.0000000000
     70713      7361  TIP3      OH2           -51.2204250659      -49.6237035122       40.6254979894  TIP3      6961            0.0000000000
     70714      7361  TIP3      H1            -51.7721988056      -49.9744208524       39.9003671724  TIP3      6961            0.0000000000
     70715      7361  TIP3      H2            -50.4040844692      -49.4006565964       40.1579967391  TIP3      6961            0.0000000000
     70716      7362  TIP3      OH2           -44.0081891060      -52.2374126411       40.7052581976  TIP3      6962            0.0000000000
     70717      7362  TIP3      H1            -44.9640886851      -52.1040319744       40.5929915626  TIP3      6962            0.0000000000
     70718      7362  TIP3      H2            -43.7024146258      -51.3808548967       41.0735056163  TIP3      6962            0.0000000000
     70719      7363  TIP3      OH2           -43.2912412420      -50.3261246664       42.3960792182  TIP3      6963            0.0000000000
     70720      7363  TIP3      H1            -42.3883677065      -50.4924252586       42.7024686711  TIP3      6963            0.0000000000
     70721      7363  TIP3      H2            -43.2248696356      -49.5463208416       41.8343738748  TIP3      6963            0.0000000000
     70722      7364  TIP3      OH2           -45.7408607337      -43.5971348508       41.5839342233  TIP3      6964            0.0000000000
     70723      7364  TIP3      H1            -46.0920690206      -42.7613548922       41.9193501462  TIP3      6964            0.0000000000
     70724      7364  TIP3      H2            -46.4801013532      -44.2038718595       41.7608640609  TIP3      6964            0.0000000000
     70725      7365  TIP3      OH2           -38.2463624011      -50.1583789770       41.9835138992  TIP3      6965            0.0000000000
     70726      7365  TIP3      H1            -38.9377366026      -50.5230878552       41.3864463937  TIP3      6965            0.0000000000
     70727      7365  TIP3      H2            -38.2888186652      -49.2082654325       41.7878631007  TIP3      6965            0.0000000000
     70728      7366  TIP3      OH2           -54.5717516770      -47.3600388472       40.2430863276  TIP3      6966            0.0000000000
     70729      7366  TIP3      H1            -54.0038876936      -46.7225049934       40.7131152849  TIP3      6966            0.0000000000
     70730      7366  TIP3      H2            -55.4652547260      -47.0718278181       40.5556750258  TIP3      6966            0.0000000000
     70731      7367  TIP3      OH2           -42.6883568161      -43.3694554339       40.3721932100  TIP3      6967            0.0000000000
     70732      7367  TIP3      H1            -42.3538661782      -43.7294518001       41.1795904944  TIP3      6967            0.0000000000
     70733      7367  TIP3      H2            -43.6575833488      -43.4655038821       40.4499611130  TIP3      6967            0.0000000000
     70734      7368  TIP3      OH2           -38.2282529383      -38.9203587447       40.5562403585  TIP3      6968            0.0000000000
     70735      7368  TIP3      H1            -37.4692829629      -38.3136727078       40.4701772031  TIP3      6968            0.0000000000
     70736      7368  TIP3      H2            -38.9091839201      -38.3186575548       40.9088172912  TIP3      6968            0.0000000000
     70737      7369  TIP3      OH2           -48.6090478297      -42.2249031211       38.8383896424  TIP3      6969            0.0000000000
     70738      7369  TIP3      H1            -48.3979171560      -43.0031698610       38.2764193297  TIP3      6969            0.0000000000
     70739      7369  TIP3      H2            -48.8970842402      -42.6996771742       39.6488910484  TIP3      6969            0.0000000000
     70740      7370  TIP3      OH2           -49.7075042686      -42.7004113344       41.2671043986  TIP3      6970            0.0000000000
     70741      7370  TIP3      H1            -49.5364521201      -43.2238655053       42.0761057676  TIP3      6970            0.0000000000
     70742      7370  TIP3      H2            -49.6512795852      -41.8374263648       41.6804946589  TIP3      6970            0.0000000000
     70743      7371  TIP3      OH2           -53.2951545885      -45.4538134341       41.7378155272  TIP3      6971            0.0000000000
     70744      7371  TIP3      H1            -53.9151444451      -45.1019740009       42.3668195802  TIP3      6971            0.0000000000
     70745      7371  TIP3      H2            -52.7064919931      -44.6986898988       41.5457854502  TIP3      6971            0.0000000000
     70746      7372  TIP3      OH2           -47.3529653846      -41.2930083986       41.3528085302  TIP3      6972            0.0000000000
     70747      7372  TIP3      H1            -47.7606436893      -40.6345897684       41.9720433499  TIP3      6972            0.0000000000
     70748      7372  TIP3      H2            -46.5495665656      -40.6778751974       41.3353229081  TIP3      6972            0.0000000000
     70749      7373  TIP3      OH2           -49.4432197166      -39.8838655320       42.2717466271  TIP3      6973            0.0000000000
     70750      7373  TIP3      H1            -49.4522884954      -39.1186191775       41.6195272520  TIP3      6973            0.0000000000
     70751      7373  TIP3      H2            -49.8555096550      -39.5360515044       43.0588331061  TIP3      6973            0.0000000000
     70752      7374  TIP3      OH2           -50.9906325888      -53.3869103776       41.4323536270  TIP3      6974            0.0000000000
     70753      7374  TIP3      H1            -51.0702681796      -52.5111992098       41.8474904659  TIP3      6974            0.0000000000
     70754      7374  TIP3      H2            -50.0859605794      -53.5382555841       41.8025409543  TIP3      6974            0.0000000000
     70755      7375  TIP3      OH2           -52.6378741780      -42.8265384613       40.6750130774  TIP3      6975            0.0000000000
     70756      7375  TIP3      H1            -52.0284058183      -42.1597018266       40.9727364088  TIP3      6975            0.0000000000
     70757      7375  TIP3      H2            -52.1364437004      -43.2891643331       39.9750071510  TIP3      6975            0.0000000000
     70758      7376  TIP3      OH2           -54.3052766808      -50.1623848286       39.7972525602  TIP3      6976            0.0000000000
     70759      7376  TIP3      H1            -54.3361021267      -49.2075705258       39.9991239139  TIP3      6976            0.0000000000
     70760      7376  TIP3      H2            -55.1947039113      -50.3733951570       39.5216666803  TIP3      6976            0.0000000000
     70761      7377  TIP3      OH2           -46.5716630082      -40.3781626376       38.9569726677  TIP3      6977            0.0000000000
     70762      7377  TIP3      H1            -47.2069281877      -41.0563111336       39.2559806054  TIP3      6977            0.0000000000
     70763      7377  TIP3      H2            -45.8162025043      -40.9426030419       38.7200779868  TIP3      6977            0.0000000000
     70764      7378  TIP3      OH2           -41.9833190373      -40.5971690836       39.1573431138  TIP3      6978            0.0000000000
     70765      7378  TIP3      H1            -41.6887834897      -41.3755422791       39.6468041934  TIP3      6978            0.0000000000
     70766      7378  TIP3      H2            -41.2135410185      -40.3711436434       38.6173473043  TIP3      6978            0.0000000000
     70767      7379  TIP3      OH2           -51.0542598442      -44.6688851315       39.0443184941  TIP3      6979            0.0000000000
     70768      7379  TIP3      H1            -50.9491740658      -45.4751474662       39.5818010697  TIP3      6979            0.0000000000
     70769      7379  TIP3      H2            -50.3564125779      -44.8087616027       38.3683007164  TIP3      6979            0.0000000000
     70770      7380  TIP3      OH2           -45.6485172290      -43.6060795556       38.7964252731  TIP3      6980            0.0000000000
     70771      7380  TIP3      H1            -45.9349245234      -43.4722642690       39.7026789694  TIP3      6980            0.0000000000
     70772      7380  TIP3      H2            -45.8721523506      -44.5599245745       38.6358054077  TIP3      6980            0.0000000000
     70773      7381  TIP3      OH2           -49.8740030570      -46.7018705143       41.3546549970  TIP3      6981            0.0000000000
     70774      7381  TIP3      H1            -50.3416446346      -47.2038501379       42.0358609938  TIP3      6981            0.0000000000
     70775      7381  TIP3      H2            -49.6078478248      -47.3836755509       40.7069278168  TIP3      6981            0.0000000000
     70776      7382  TIP3      OH2           -48.8098992222      -48.4698153519       39.6150279062  TIP3      6982            0.0000000000
     70777      7382  TIP3      H1            -48.9736600325      -48.5964310093       38.6603276023  TIP3      6982            0.0000000000
     70778      7382  TIP3      H2            -47.8378595583      -48.3650219862       39.6705092012  TIP3      6982            0.0000000000
     70779      7383  TIP3      OH2           -39.4359199698      -46.1094735432       39.0883242000  TIP3      6983            0.0000000000
     70780      7383  TIP3      H1            -39.6689466755      -46.5125278657       38.2295650865  TIP3      6983            0.0000000000
     70781      7383  TIP3      H2            -39.3744676005      -45.1573740318       38.8321767875  TIP3      6983            0.0000000000
     70782      7384  TIP3      OH2           -48.9377416926      -37.8076829411       40.6438555788  TIP3      6984            0.0000000000
     70783      7384  TIP3      H1            -47.9739959341      -37.6195681687       40.7562891145  TIP3      6984            0.0000000000
     70784      7384  TIP3      H2            -49.1414109023      -37.1060486008       39.9932659644  TIP3      6984            0.0000000000
     70785      7385  TIP3      OH2           -55.3543774543      -43.1600155795       40.1349167658  TIP3      6985            0.0000000000
     70786      7385  TIP3      H1            -54.4137450514      -43.0745743447       40.3726969322  TIP3      6985            0.0000000000
     70787      7385  TIP3      H2            -55.3217088109      -43.8362450264       39.4273886244  TIP3      6985            0.0000000000
     70788      7386  TIP3      OH2           -38.2399545265      -47.3354553160       41.1865759328  TIP3      6986            0.0000000000
     70789      7386  TIP3      H1            -38.7885822908      -46.9357393558       40.4780647423  TIP3      6986            0.0000000000
     70790      7386  TIP3      H2            -38.2770815904      -46.6593572857       41.9069244552  TIP3      6986            0.0000000000
     70791      7387  TIP3      OH2           -39.9284214740      -50.0387822782       39.8136121763  TIP3      6987            0.0000000000
     70792      7387  TIP3      H1            -39.8437826095      -49.3913688545       39.1059663274  TIP3      6987            0.0000000000
     70793      7387  TIP3      H2            -40.0873344979      -50.8730399642       39.3211626088  TIP3      6987            0.0000000000
     70794      7388  TIP3      OH2           -40.6816336420      -52.6136824425       38.9211131940  TIP3      6988            0.0000000000
     70795      7388  TIP3      H1            -40.0805456746      -53.0264573937       39.5643537340  TIP3      6988            0.0000000000
     70796      7388  TIP3      H2            -41.5313394825      -53.0477390050       39.1185165600  TIP3      6988            0.0000000000
     70797      7389  TIP3      OH2           -38.5991507298      -53.7697122640       40.4880107178  TIP3      6989            0.0000000000
     70798      7389  TIP3      H1            -38.1744498385      -54.4827915849       39.9664331975  TIP3      6989            0.0000000000
     70799      7389  TIP3      H2            -37.9011183115      -53.0902720401       40.5301505942  TIP3      6989            0.0000000000
     70800      7390  TIP3      OH2           -55.0045644647      -55.7111245028       41.5579651444  TIP3      6990            0.0000000000
     70801      7390  TIP3      H1            -54.5712654708      -55.0639524477       40.9827831197  TIP3      6990            0.0000000000
     70802      7390  TIP3      H2            -55.6318317899      -55.1607050268       42.0306418632  TIP3      6990            0.0000000000
     70803      7391  TIP3      OH2           -53.2070719688      -53.7993345597       40.0014708181  TIP3      6991            0.0000000000
     70804      7391  TIP3      H1            -52.6767347737      -54.4208973422       39.4721476547  TIP3      6991            0.0000000000
     70805      7391  TIP3      H2            -52.5540046973      -53.5065259641       40.6716678706  TIP3      6991            0.0000000000
     70806      7392  TIP3      OH2           -46.2874119633      -38.5297082524       40.8736231688  TIP3      6992            0.0000000000
     70807      7392  TIP3      H1            -45.3854485419      -38.2054051654       40.6842911657  TIP3      6992            0.0000000000
     70808      7392  TIP3      H2            -46.4785210257      -39.0034972092       40.0396106432  TIP3      6992            0.0000000000
     70809      7393  TIP3      OH2           -53.3159684321      -38.8247028680       39.4742972376  TIP3      6993            0.0000000000
     70810      7393  TIP3      H1            -53.5953688955      -38.5578927700       40.3710310250  TIP3      6993            0.0000000000
     70811      7393  TIP3      H2            -52.5476627549      -39.3881655087       39.6375596604  TIP3      6993            0.0000000000
     70812      7394  TIP3      OH2           -27.1809192079      -48.6141085919       40.1878432803  TIP3      6994            0.0000000000
     70813      7394  TIP3      H1            -26.4514585225      -48.6053201319       40.8524369078  TIP3      6994            0.0000000000
     70814      7394  TIP3      H2            -26.8371919765      -49.2783425575       39.5773910473  TIP3      6994            0.0000000000
     70815      7395  TIP3      OH2           -24.9637606806      -47.8268664782       41.7175341140  TIP3      6995            0.0000000000
     70816      7395  TIP3      H1            -24.4464151737      -47.6018074300       42.5373042085  TIP3      6995            0.0000000000
     70817      7395  TIP3      H2            -24.5406460847      -47.2550439272       41.0517608443  TIP3      6995            0.0000000000
     70818      7396  TIP3      OH2           -21.2222745763      -55.9643912349       41.6697033066  TIP3      6996            0.0000000000
     70819      7396  TIP3      H1            -22.1444920838      -55.8492550555       41.9113884885  TIP3      6996            0.0000000000
     70820      7396  TIP3      H2            -20.9853719942      -55.1300841695       41.2337716664  TIP3      6996            0.0000000000
     70821      7397  TIP3      OH2           -20.0576516362      -41.6218058988       39.9742801284  TIP3      6997            0.0000000000
     70822      7397  TIP3      H1            -19.9400588430      -40.6727285573       40.1775456724  TIP3      6997            0.0000000000
     70823      7397  TIP3      H2            -19.1254028537      -41.9079538810       39.9775119984  TIP3      6997            0.0000000000
     70824      7398  TIP3      OH2           -24.6240380955      -38.8425248951       40.6824736992  TIP3      6998            0.0000000000
     70825      7398  TIP3      H1            -24.2377865069      -39.6232700491       40.1971196224  TIP3      6998            0.0000000000
     70826      7398  TIP3      H2            -24.6065887550      -39.1745071602       41.5899534227  TIP3      6998            0.0000000000
     70827      7399  TIP3      OH2           -23.4444895406      -46.7089404419       39.5021501713  TIP3      6999            0.0000000000
     70828      7399  TIP3      H1            -23.4347074329      -46.9060247163       38.5255278151  TIP3      6999            0.0000000000
     70829      7399  TIP3      H2            -22.5914053699      -46.2720369827       39.6076388553  TIP3      6999            0.0000000000
     70830      7400  TIP3      OH2           -27.8667830486      -52.8154276075       40.1047843300  TIP3      7000            0.0000000000
     70831      7400  TIP3      H1            -28.1345543281      -52.8094638998       41.0328273240  TIP3      7000            0.0000000000
     70832      7400  TIP3      H2            -28.1511319988      -53.6960239252       39.8087060662  TIP3      7000            0.0000000000
     70833      7401  TIP3      OH2           -31.0034972369      -52.3851469514       39.2096689400  TIP3      7001            0.0000000000
     70834      7401  TIP3      H1            -31.4522022894      -52.8289606155       39.9567281897  TIP3      7001            0.0000000000
     70835      7401  TIP3      H2            -31.7279750730      -51.9978541977       38.6999685039  TIP3      7001            0.0000000000
     70836      7402  TIP3      OH2           -36.4926280333      -51.9607532829       41.6510272757  TIP3      7002            0.0000000000
     70837      7402  TIP3      H1            -35.9961993769      -51.2995789450       41.1205432965  TIP3      7002            0.0000000000
     70838      7402  TIP3      H2            -37.1810761670      -51.3550061153       42.0192632770  TIP3      7002            0.0000000000
     70839      7403  TIP3      OH2           -32.3696142165      -49.6024344224       40.6212815233  TIP3      7003            0.0000000000
     70840      7403  TIP3      H1            -32.9148686902      -49.9860045667       39.9036838434  TIP3      7003            0.0000000000
     70841      7403  TIP3      H2            -31.5452087070      -49.4168977451       40.1543375307  TIP3      7003            0.0000000000
     70842      7404  TIP3      OH2           -25.1525769554      -52.2381153485       40.7040150946  TIP3      7004            0.0000000000
     70843      7404  TIP3      H1            -26.1086185920      -52.1041822415       40.5927997408  TIP3      7004            0.0000000000
     70844      7404  TIP3      H2            -24.8461671817      -51.3810768549       41.0738662288  TIP3      7004            0.0000000000
     70845      7405  TIP3      OH2           -24.4314680929      -50.3369341820       42.3839625211  TIP3      7005            0.0000000000
     70846      7405  TIP3      H1            -23.5325414353      -50.4838678063       42.7053234220  TIP3      7005            0.0000000000
     70847      7405  TIP3      H2            -24.3712765916      -49.5389376768       41.8425138664  TIP3      7005            0.0000000000
     70848      7406  TIP3      OH2           -26.9138800506      -43.5970601796       41.5471522814  TIP3      7006            0.0000000000
     70849      7406  TIP3      H1            -27.2265220118      -42.7614393472       41.9263416350  TIP3      7006            0.0000000000
     70850      7406  TIP3      H2            -27.6149190156      -44.2092030032       41.7822302596  TIP3      7006            0.0000000000
     70851      7407  TIP3      OH2           -19.3799500368      -50.1607927063       41.9824215100  TIP3      7007            0.0000000000
     70852      7407  TIP3      H1            -20.0802038958      -50.5204972770       41.3897415583  TIP3      7007            0.0000000000
     70853      7407  TIP3      H2            -19.4310387610      -49.2097735058       41.7887224230  TIP3      7007            0.0000000000
     70854      7408  TIP3      OH2           -35.7726523424      -47.3543622059       40.2666445560  TIP3      7008            0.0000000000
     70855      7408  TIP3      H1            -35.1731190636      -46.7284186527       40.7142959683  TIP3      7008            0.0000000000
     70856      7408  TIP3      H2            -36.6499405033      -47.0540015705       40.5660428270  TIP3      7008            0.0000000000
     70857      7409  TIP3      OH2           -23.8211632704      -43.3893889712       40.3552745209  TIP3      7009            0.0000000000
     70858      7409  TIP3      H1            -23.5103200979      -43.7357771744       41.1933226023  TIP3      7009            0.0000000000
     70859      7409  TIP3      H2            -24.7915474304      -43.4672916246       40.4637652098  TIP3      7009            0.0000000000
     70860      7410  TIP3      OH2           -19.3640693544      -38.9218418538       40.5603342631  TIP3      7010            0.0000000000
     70861      7410  TIP3      H1            -18.6101749872      -38.3122916080       40.4701578533  TIP3      7010            0.0000000000
     70862      7410  TIP3      H2            -20.0486288717      -38.3197765509       40.9015407054  TIP3      7010            0.0000000000
     70863      7411  TIP3      OH2           -29.7435545133      -42.2571854243       38.8212924875  TIP3      7011            0.0000000000
     70864      7411  TIP3      H1            -29.5317707543      -43.0126913516       38.2616055958  TIP3      7011            0.0000000000
     70865      7411  TIP3      H2            -30.0447554790      -42.6366030858       39.6629803441  TIP3      7011            0.0000000000
     70866      7412  TIP3      OH2           -30.8513554595      -42.7551488595       41.2610545769  TIP3      7012            0.0000000000
     70867      7412  TIP3      H1            -30.6712614100      -43.1728439667       42.1164002271  TIP3      7012            0.0000000000
     70868      7412  TIP3      H2            -30.8088895056      -41.8050975979       41.5782665802  TIP3      7012            0.0000000000
     70869      7413  TIP3      OH2           -34.4349242966      -45.4504694758       41.7265639026  TIP3      7013            0.0000000000
     70870      7413  TIP3      H1            -35.0634103170      -45.1090611235       42.3651979856  TIP3      7013            0.0000000000
     70871      7413  TIP3      H2            -33.8609690883      -44.6840107992       41.5517201939  TIP3      7013            0.0000000000
     70872      7414  TIP3      OH2           -28.4693339523      -41.3184142094       41.3751246320  TIP3      7014            0.0000000000
     70873      7414  TIP3      H1            -28.9288401995      -40.6377270864       41.9422683591  TIP3      7014            0.0000000000
     70874      7414  TIP3      H2            -27.6986736902      -40.6719153698       41.3333207183  TIP3      7014            0.0000000000
     70875      7415  TIP3      OH2           -30.7328743815      -39.9943268572       42.0338303963  TIP3      7015            0.0000000000
     70876      7415  TIP3      H1            -30.6075476194      -39.1735777048       41.4874691472  TIP3      7015            0.0000000000
     70877      7415  TIP3      H2            -30.9480458624      -39.6233056781       42.8983821129  TIP3      7015            0.0000000000
     70878      7416  TIP3      OH2           -32.1409931744      -53.3870916098       41.4401081456  TIP3      7016            0.0000000000
     70879      7416  TIP3      H1            -32.2184514130      -52.5101208430       41.8505148933  TIP3      7016            0.0000000000
     70880      7416  TIP3      H2            -31.2317594188      -53.5377861472       41.8024779941  TIP3      7016            0.0000000000
     70881      7417  TIP3      OH2           -33.7748781949      -42.8435327032       40.6941834279  TIP3      7017            0.0000000000
     70882      7417  TIP3      H1            -33.1682902202      -42.1387057325       40.9623073122  TIP3      7017            0.0000000000
     70883      7417  TIP3      H2            -33.3018312032      -43.2504075189       39.9570267458  TIP3      7017            0.0000000000
     70884      7418  TIP3      OH2           -35.4553816226      -50.1639300417       39.8023825386  TIP3      7018            0.0000000000
     70885      7418  TIP3      H1            -35.4852033495      -49.2070863626       39.9976534439  TIP3      7018            0.0000000000
     70886      7418  TIP3      H2            -36.3434661964      -50.3831742544       39.5303131576  TIP3      7018            0.0000000000
     70887      7419  TIP3      OH2           -27.6966774501      -40.3750867740       38.9586428304  TIP3      7019            0.0000000000
     70888      7419  TIP3      H1            -28.3661667176      -41.0337757690       39.2622359467  TIP3      7019            0.0000000000
     70889      7419  TIP3      H2            -26.9600070115      -40.9535163724       38.7200982317  TIP3      7019            0.0000000000
     70890      7420  TIP3      OH2           -23.1247527784      -40.5931526950       39.1656558029  TIP3      7020            0.0000000000
     70891      7420  TIP3      H1            -22.8366801620      -41.3818283751       39.6506163149  TIP3      7020            0.0000000000
     70892      7420  TIP3      H2            -22.3575345468      -40.3780026653       38.6182685025  TIP3      7020            0.0000000000
     70893      7421  TIP3      OH2           -32.3763497169      -44.6956229426       38.8105145613  TIP3      7021            0.0000000000
     70894      7421  TIP3      H1            -32.2719332719      -45.4345738065       39.4233829294  TIP3      7021            0.0000000000
     70895      7421  TIP3      H2            -31.5462249491      -44.7686787022       38.2813912085  TIP3      7021            0.0000000000
     70896      7422  TIP3      OH2           -26.8091347440      -43.6077412745       38.7869933685  TIP3      7022            0.0000000000
     70897      7422  TIP3      H1            -27.0636752372      -43.4671072693       39.7080630284  TIP3      7022            0.0000000000
     70898      7422  TIP3      H2            -27.0069109495      -44.5637419002       38.6385668573  TIP3      7022            0.0000000000
     70899      7423  TIP3      OH2           -31.0107977651      -46.7468936670       41.3771234250  TIP3      7023            0.0000000000
     70900      7423  TIP3      H1            -31.4926493108      -47.2403736901       42.0617059409  TIP3      7023            0.0000000000
     70901      7423  TIP3      H2            -30.7519571248      -47.4328349125       40.7207079110  TIP3      7023            0.0000000000
     70902      7424  TIP3      OH2           -29.9566524097      -48.4376984590       39.6118854304  TIP3      7024            0.0000000000
     70903      7424  TIP3      H1            -30.1091450232      -48.6103786684       38.6590679113  TIP3      7024            0.0000000000
     70904      7424  TIP3      H2            -28.9777061504      -48.3813926479       39.6696355012  TIP3      7024            0.0000000000
     70905      7425  TIP3      OH2           -20.5807273506      -46.1092162615       39.0921706147  TIP3      7025            0.0000000000
     70906      7425  TIP3      H1            -20.8151070380      -46.5158583998       38.2365621957  TIP3      7025            0.0000000000
     70907      7425  TIP3      H2            -20.5191504098      -45.1578402714       38.8376096504  TIP3      7025            0.0000000000
     70908      7426  TIP3      OH2           -30.0666762162      -37.7667487859       40.6575382023  TIP3      7026            0.0000000000
     70909      7426  TIP3      H1            -29.1123243497      -37.6317568232       40.7588105458  TIP3      7026            0.0000000000
     70910      7426  TIP3      H2            -30.2998551101      -37.1111253713       39.9879950553  TIP3      7026            0.0000000000
     70911      7427  TIP3      OH2           -36.5180120521      -43.1435246649       40.1283120373  TIP3      7027            0.0000000000
     70912      7427  TIP3      H1            -35.5711543115      -43.0587131129       40.3699056876  TIP3      7027            0.0000000000
     70913      7427  TIP3      H2            -36.4805963642      -43.8297727702       39.4309979341  TIP3      7027            0.0000000000
     70914      7428  TIP3      OH2           -19.3760915917      -47.3368970753       41.1817569400  TIP3      7028            0.0000000000
     70915      7428  TIP3      H1            -19.9399080019      -46.9349494049       40.4877969336  TIP3      7028            0.0000000000
     70916      7428  TIP3      H2            -19.4326070340      -46.6602340369       41.9079957108  TIP3      7028            0.0000000000
     70917      7429  TIP3      OH2           -21.0724737606      -50.0383539611       39.8144801681  TIP3      7029            0.0000000000
     70918      7429  TIP3      H1            -20.9876298635      -49.3914943873       39.1059615714  TIP3      7029            0.0000000000
     70919      7429  TIP3      H2            -21.2310540810      -50.8729130698       39.3222997794  TIP3      7029            0.0000000000
     70920      7430  TIP3      OH2           -21.8261548533      -52.6132948176       38.9209535304  TIP3      7030            0.0000000000
     70921      7430  TIP3      H1            -21.2242044238      -53.0264256281       39.5640730708  TIP3      7030            0.0000000000
     70922      7430  TIP3      H2            -22.6753196585      -53.0478439444       39.1186043550  TIP3      7030            0.0000000000
     70923      7431  TIP3      OH2           -19.7479135703      -53.7583579564       40.4718170735  TIP3      7031            0.0000000000
     70924      7431  TIP3      H1            -19.3155857316      -54.4866030781       39.9756608276  TIP3      7031            0.0000000000
     70925      7431  TIP3      H2            -19.0443319426      -53.0936909424       40.5350111267  TIP3      7031            0.0000000000
     70926      7432  TIP3      OH2           -36.1464275385      -55.7190798919       41.5859555850  TIP3      7032            0.0000000000
     70927      7432  TIP3      H1            -35.7213734403      -55.0743820150       40.9798485273  TIP3      7032            0.0000000000
     70928      7432  TIP3      H2            -36.7841686633      -55.1396938135       42.0099721703  TIP3      7032            0.0000000000
     70929      7433  TIP3      OH2           -34.3417195451      -53.7932810773       40.0012052320  TIP3      7033            0.0000000000
     70930      7433  TIP3      H1            -33.8212793024      -54.4237457240       39.4762460799  TIP3      7033            0.0000000000
     70931      7433  TIP3      H2            -33.6899469947      -53.5052480643       40.6756737228  TIP3      7033            0.0000000000
     70932      7434  TIP3      OH2           -27.4174400454      -38.5088070716       40.8752582619  TIP3      7034            0.0000000000
     70933      7434  TIP3      H1            -26.5238905809      -38.2201118406       40.6813352218  TIP3      7034            0.0000000000
     70934      7434  TIP3      H2            -27.6434631820      -39.0151036327       40.0588210947  TIP3      7034            0.0000000000
     70935      7435  TIP3      OH2           -34.4673208877      -38.8217335679       39.4831769717  TIP3      7035            0.0000000000
     70936      7435  TIP3      H1            -34.7294481643      -38.5556793921       40.3785096120  TIP3      7035            0.0000000000
     70937      7435  TIP3      H2            -33.6860688620      -39.3912517551       39.6396905906  TIP3      7035            0.0000000000
     70938      7436  TIP3      OH2            -8.3210740400      -48.6208413857       40.1872224914  TIP3      7036            0.0000000000
     70939      7436  TIP3      H1             -7.5973516286      -48.6023997879       40.8538122323  TIP3      7036            0.0000000000
     70940      7436  TIP3      H2             -7.9766607858      -49.2811818283       39.5751732133  TIP3      7036            0.0000000000
     70941      7437  TIP3      OH2            -6.1081682925      -47.8266833906       41.7174985412  TIP3      7037            0.0000000000
     70942      7437  TIP3      H1             -5.5904484590      -47.6018848083       42.5372340081  TIP3      7037            0.0000000000
     70943      7437  TIP3      H2             -5.6844919947      -47.2553732774       41.0514041980  TIP3      7037            0.0000000000
     70944      7438  TIP3      OH2            -2.3663449623      -55.9673055846       41.6672467721  TIP3      7038            0.0000000000
     70945      7438  TIP3      H1             -3.2874745916      -55.8495974181       41.9110171055  TIP3      7038            0.0000000000
     70946      7438  TIP3      H2             -2.1278258965      -55.1315794204       41.2317767873  TIP3      7038            0.0000000000
     70947      7439  TIP3      OH2            -1.1973992556      -41.6247543637       39.9734968778  TIP3      7039            0.0000000000
     70948      7439  TIP3      H1             -1.0776897482      -40.6768191054       40.1802692712  TIP3      7039            0.0000000000
     70949      7439  TIP3      H2             -0.2664376511      -41.9092328321       39.9772717951  TIP3      7039            0.0000000000
     70950      7440  TIP3      OH2            -5.7799799270      -38.8630755162       40.6740195390  TIP3      7040            0.0000000000
     70951      7440  TIP3      H1             -5.3742329081      -39.6246093394       40.1997860009  TIP3      7040            0.0000000000
     70952      7440  TIP3      H2             -5.7420662254      -39.1593742234       41.5940247723  TIP3      7040            0.0000000000
     70953      7441  TIP3      OH2            -4.5884581194      -46.7086304657       39.5022210805  TIP3      7041            0.0000000000
     70954      7441  TIP3      H1             -4.5789872432      -46.9060504862       38.5254548772  TIP3      7041            0.0000000000
     70955      7441  TIP3      H2             -3.7353306756      -46.2718238333       39.6075108038  TIP3      7041            0.0000000000
     70956      7442  TIP3      OH2            -9.0246669585      -52.8103416650       40.1058732442  TIP3      7042            0.0000000000
     70957      7442  TIP3      H1             -9.2708374738      -52.8127540276       41.0361152108  TIP3      7042            0.0000000000
     70958      7442  TIP3      H2             -9.2908397889      -53.6961772079       39.8081552672  TIP3      7042            0.0000000000
     70959      7443  TIP3      OH2           -12.1515575926      -52.3703948523       39.2281033915  TIP3      7043            0.0000000000
     70960      7443  TIP3      H1            -12.5997956865      -52.8435257778       39.9446657293  TIP3      7043            0.0000000000
     70961      7443  TIP3      H2            -12.8678219205      -52.0010128746       38.6877837388  TIP3      7043            0.0000000000
     70962      7444  TIP3      OH2           -17.6166052820      -51.9492046842       41.6677366251  TIP3      7044            0.0000000000
     70963      7444  TIP3      H1            -17.1535343969      -51.2947456606       41.1072251219  TIP3      7044            0.0000000000
     70964      7444  TIP3      H2            -18.3316137995      -51.3586156443       42.0148895192  TIP3      7044            0.0000000000
     70965      7445  TIP3      OH2           -13.5048099197      -49.6667763375       40.6484485359  TIP3      7045            0.0000000000
     70966      7445  TIP3      H1            -14.0574315036      -49.9653664040       39.8906221773  TIP3      7045            0.0000000000
     70967      7445  TIP3      H2            -12.7002257678      -49.3929445205       40.1560388020  TIP3      7045            0.0000000000
     70968      7446  TIP3      OH2            -6.2964310626      -52.2382441498       40.7044010565  TIP3      7046            0.0000000000
     70969      7446  TIP3      H1             -7.2521410992      -52.1040875956       40.5932628590  TIP3      7046            0.0000000000
     70970      7446  TIP3      H2             -5.9899608932      -51.3809977735       41.0738062113  TIP3      7046            0.0000000000
     70971      7447  TIP3      OH2            -5.5751217056      -50.3367657685       42.3838874589  TIP3      7047            0.0000000000
     70972      7447  TIP3      H1             -4.6764847527      -50.4838131214       42.7053102200  TIP3      7047            0.0000000000
     70973      7447  TIP3      H2             -5.5152952950      -49.5389763537       41.8423480385  TIP3      7047            0.0000000000
     70974      7448  TIP3      OH2            -8.0396917123      -43.6005303998       41.5675456681  TIP3      7048            0.0000000000
     70975      7448  TIP3      H1             -8.3795231000      -42.7657038751       41.9203027068  TIP3      7048            0.0000000000
     70976      7448  TIP3      H2             -8.7666369072      -44.2055993047       41.7696320306  TIP3      7048            0.0000000000
     70977      7449  TIP3      OH2            -0.5341401122      -50.1588878435       41.9824473831  TIP3      7049            0.0000000000
     70978      7449  TIP3      H1             -1.2258236850      -50.5233171008       41.3861226015  TIP3      7049            0.0000000000
     70979      7449  TIP3      H2             -0.5764564094      -49.2085089003       41.7876331677  TIP3      7049            0.0000000000
     70980      7450  TIP3      OH2           -16.9171066466      -47.3680326011       40.2761541185  TIP3      7050            0.0000000000
     70981      7450  TIP3      H1            -16.3123534778      -46.7265323691       40.7078491157  TIP3      7050            0.0000000000
     70982      7450  TIP3      H2            -17.7927300340      -47.0519502995       40.5664250095  TIP3      7050            0.0000000000
     70983      7451  TIP3      OH2            -4.9709338732      -43.3642649015       40.3631299482  TIP3      7051            0.0000000000
     70984      7451  TIP3      H1             -4.6547270383      -43.7349328625       41.1904950244  TIP3      7051            0.0000000000
     70985      7451  TIP3      H2             -5.9385014934      -43.4723049803       40.4648985382  TIP3      7051            0.0000000000
     70986      7452  TIP3      OH2            -0.5162271521      -38.9203839154       40.5560291877  TIP3      7052            0.0000000000
     70987      7452  TIP3      H1              0.2426363335      -38.3135924220       40.4701650746  TIP3      7052            0.0000000000
     70988      7452  TIP3      H2             -1.1976293969      -38.3187620725       40.9086835638  TIP3      7052            0.0000000000
     70989      7453  TIP3      OH2           -10.8744994612      -42.2437268445       38.8204982652  TIP3      7053            0.0000000000
     70990      7453  TIP3      H1            -10.6893863935      -43.0202012327       38.2769588644  TIP3      7053            0.0000000000
     70991      7453  TIP3      H2            -11.2014671038      -42.6578589639       39.6548660091  TIP3      7053            0.0000000000
     70992      7454  TIP3      OH2           -11.9927064981      -42.7225446523       41.2661661124  TIP3      7054            0.0000000000
     70993      7454  TIP3      H1            -11.8220700349      -43.2012708286       42.0873628567  TIP3      7054            0.0000000000
     70994      7454  TIP3      H2            -11.9516986782      -41.7957443178       41.5908099094  TIP3      7054            0.0000000000
     70995      7455  TIP3      OH2           -15.5953556104      -45.4507980229       41.7298459634  TIP3      7055            0.0000000000
     70996      7455  TIP3      H1            -16.2032045822      -45.0982186057       42.3696106681  TIP3      7055            0.0000000000
     70997      7455  TIP3      H2            -14.9877424334      -44.7003445880       41.5456277186  TIP3      7055            0.0000000000
     70998      7456  TIP3      OH2            -9.6052852701      -41.3154507355       41.3722733447  TIP3      7056            0.0000000000
     70999      7456  TIP3      H1            -10.0764261491      -40.6477745591       41.9368273825  TIP3      7056            0.0000000000
     71000      7456  TIP3      H2             -8.8424249578      -40.6707187484       41.3309819284  TIP3      7056            0.0000000000
     71001      7457  TIP3      OH2           -11.8731426490      -39.9853442406       42.0335652704  TIP3      7057            0.0000000000
     71002      7457  TIP3      H1            -11.7510742938      -39.1715740705       41.4849929564  TIP3      7057            0.0000000000
     71003      7457  TIP3      H2            -12.0881073369      -39.6298507502       42.8978942828  TIP3      7057            0.0000000000
     71004      7458  TIP3      OH2           -13.2917718703      -53.3790005071       41.4617568092  TIP3      7058            0.0000000000
     71005      7458  TIP3      H1            -13.3284327180      -52.5012683078       41.7933918528  TIP3      7058            0.0000000000
     71006      7458  TIP3      H2            -12.3664624690      -53.5652997013       41.7878436339  TIP3      7058            0.0000000000
     71007      7459  TIP3      OH2           -14.9387887507      -42.8271088489       40.6856881762  TIP3      7059            0.0000000000
     71008      7459  TIP3      H1            -14.2993497393      -42.1565402044       40.9628861147  TIP3      7059            0.0000000000
     71009      7459  TIP3      H2            -14.4240855116      -43.2714217208       39.9824579780  TIP3      7059            0.0000000000
     71010      7460  TIP3      OH2           -16.5893491982      -50.1676246237       39.8161311072  TIP3      7060            0.0000000000
     71011      7460  TIP3      H1            -16.6322616230      -49.2071277927       39.9932888761  TIP3      7060            0.0000000000
     71012      7460  TIP3      H2            -17.4809556236      -50.3811504316       39.5262972303  TIP3      7060            0.0000000000
     71013      7461  TIP3      OH2            -8.8419647541      -40.3761586354       38.9556099518  TIP3      7061            0.0000000000
     71014      7461  TIP3      H1             -9.5120555518      -41.0369476783       39.2624944579  TIP3      7061            0.0000000000
     71015      7461  TIP3      H2             -8.1063707348      -40.9541760412       38.7208698150  TIP3      7061            0.0000000000
     71016      7462  TIP3      OH2            -4.2711492173      -40.5991242756       39.1600245452  TIP3      7062            0.0000000000
     71017      7462  TIP3      H1             -3.9799571995      -41.3798957004       39.6519575322  TIP3      7062            0.0000000000
     71018      7462  TIP3      H2             -3.5025003177      -40.3720372499       38.6190233399  TIP3      7062            0.0000000000
     71019      7463  TIP3      OH2           -13.3559216572      -44.6857421927       39.0310962361  TIP3      7063            0.0000000000
     71020      7463  TIP3      H1            -13.2273454663      -45.4705157307       39.5835324593  TIP3      7063            0.0000000000
     71021      7463  TIP3      H2            -12.6398471810      -44.7986337818       38.3725882101  TIP3      7063            0.0000000000
     71022      7464  TIP3      OH2            -7.9322320313      -43.6087684524       38.7887440622  TIP3      7064            0.0000000000
     71023      7464  TIP3      H1             -8.2197885924      -43.4705524359       39.7034003213  TIP3      7064            0.0000000000
     71024      7464  TIP3      H2             -8.1635040572      -44.5595054222       38.6413883044  TIP3      7064            0.0000000000
     71025      7465  TIP3      OH2           -12.1637773870      -46.7078829144       41.3567597001  TIP3      7065            0.0000000000
     71026      7465  TIP3      H1            -12.6304875067      -47.1998222835       42.0376456268  TIP3      7065            0.0000000000
     71027      7465  TIP3      H2            -11.8920918869      -47.3792261352       40.7034310519  TIP3      7065            0.0000000000
     71028      7466  TIP3      OH2           -11.1017528777      -48.4823323170       39.6198805598  TIP3      7066            0.0000000000
     71029      7466  TIP3      H1            -11.2530366930      -48.5909833540       38.6577672333  TIP3      7066            0.0000000000
     71030      7466  TIP3      H2            -10.1271534673      -48.3612895846       39.6681847522  TIP3      7066            0.0000000000
     71031      7467  TIP3      OH2            -1.7250841482      -46.1096199505       39.0919862716  TIP3      7067            0.0000000000
     71032      7467  TIP3      H1             -1.9590738604      -46.5162734260       38.2365389500  TIP3      7067            0.0000000000
     71033      7467  TIP3      H2             -1.6632579035      -45.1599549314       38.8338229144  TIP3      7067            0.0000000000
     71034      7468  TIP3      OH2           -11.2198564524      -37.7628750158       40.6693032880  TIP3      7068            0.0000000000
     71035      7468  TIP3      H1            -10.2553891767      -37.6292858873       40.7509558693  TIP3      7068            0.0000000000
     71036      7468  TIP3      H2            -11.4284499092      -37.1113237616       39.9869149166  TIP3      7068            0.0000000000
     71037      7469  TIP3      OH2           -17.6670050437      -43.1403572212       40.1261093528  TIP3      7069            0.0000000000
     71038      7469  TIP3      H1            -16.7132039286      -43.0619301056       40.3699226312  TIP3      7069            0.0000000000
     71039      7469  TIP3      H2            -17.6182712215      -43.8310339357       39.4324568746  TIP3      7069            0.0000000000
     71040      7470  TIP3      OH2            -0.5204236288      -47.3371818869       41.1816835990  TIP3      7070            0.0000000000
     71041      7470  TIP3      H1             -1.0839582669      -46.9348698817       40.4876955805  TIP3      7070            0.0000000000
     71042      7470  TIP3      H2             -0.5766198206      -46.6602125663       41.9079948916  TIP3      7070            0.0000000000
     71043      7471  TIP3      OH2            -2.2167804105      -50.0382103766       39.8143886175  TIP3      7071            0.0000000000
     71044      7471  TIP3      H1             -2.1315436098      -49.3914914772       39.1059468518  TIP3      7071            0.0000000000
     71045      7471  TIP3      H2             -2.3749394849      -50.8728908163       39.3223598766  TIP3      7071            0.0000000000
     71046      7472  TIP3      OH2            -2.9702188504      -52.6132806563       38.9209182464  TIP3      7072            0.0000000000
     71047      7472  TIP3      H1             -2.3680846583      -53.0264287297       39.5640204925  TIP3      7072            0.0000000000
     71048      7472  TIP3      H2             -3.8192749965      -53.0478707839       39.1186337307  TIP3      7072            0.0000000000
     71049      7473  TIP3      OH2            -0.8916949411      -53.7571757178       40.4721907884  TIP3      7073            0.0000000000
     71050      7473  TIP3      H1             -0.4596839691      -54.4850251111       39.9754774156  TIP3      7073            0.0000000000
     71051      7473  TIP3      H2             -0.1852540362      -53.0929396849       40.5370290414  TIP3      7073            0.0000000000
     71052      7474  TIP3      OH2           -17.2874619655      -55.7044787471       41.5633387433  TIP3      7074            0.0000000000
     71053      7474  TIP3      H1            -16.8710049655      -55.0688080506       40.9692988061  TIP3      7074            0.0000000000
     71054      7474  TIP3      H2            -17.9311526362      -55.1630238538       42.0228162903  TIP3      7074            0.0000000000
     71055      7475  TIP3      OH2           -15.4818342391      -53.7877938399       40.0075250112  TIP3      7075            0.0000000000
     71056      7475  TIP3      H1            -14.9743139966      -54.4258925171       39.4710646319  TIP3      7075            0.0000000000
     71057      7475  TIP3      H2            -14.8293445662      -53.5163388028       40.6709907918  TIP3      7075            0.0000000000
     71058      7476  TIP3      OH2            -8.5677615261      -38.5234351001       40.8801447068  TIP3      7076            0.0000000000
     71059      7476  TIP3      H1             -7.6719562958      -38.2075482507       40.6785879326  TIP3      7076            0.0000000000
     71060      7476  TIP3      H2             -8.7821163811      -39.0069097499       40.0497435175  TIP3      7076            0.0000000000
     71061      7477  TIP3      OH2           -15.6044468396      -38.8133672740       39.4693245400  TIP3      7077            0.0000000000
     71062      7477  TIP3      H1            -15.8762531753      -38.5618966569       40.3706660168  TIP3      7077            0.0000000000
     71063      7477  TIP3      H2            -14.8324977629      -39.3939649034       39.6470740030  TIP3      7077            0.0000000000
     71064      7478  TIP3      OH2            10.5345879409      -48.6219090461       40.1869669357  TIP3      7078            0.0000000000
     71065      7478  TIP3      H1             11.2590451453      -48.6022563530       40.8537786056  TIP3      7078            0.0000000000
     71066      7478  TIP3      H2             10.8784473708      -49.2820610832       39.5755091312  TIP3      7078            0.0000000000
     71067      7479  TIP3      OH2            12.7485749187      -47.8278753483       41.7180502947  TIP3      7079            0.0000000000
     71068      7479  TIP3      H1             13.2656770291      -47.6017828832       42.5375929342  TIP3      7079            0.0000000000
     71069      7479  TIP3      H2             13.1713059976      -47.2555640066       41.0525588841  TIP3      7079            0.0000000000
     71070      7480  TIP3      OH2            16.4503598453      -55.9939729212       41.6352719743  TIP3      7080            0.0000000000
     71071      7480  TIP3      H1             15.5694294246      -55.8111261248       41.9319619717  TIP3      7080            0.0000000000
     71072      7480  TIP3      H2             16.7458306291      -55.1368944959       41.2373155526  TIP3      7080            0.0000000000
     71073      7481  TIP3      OH2            17.6589806224      -41.6271102147       39.9727486279  TIP3      7081            0.0000000000
     71074      7481  TIP3      H1             17.7819979347      -40.6828770502       40.1839738886  TIP3      7081            0.0000000000
     71075      7481  TIP3      H2             18.5896850670      -41.9101293451       39.9771866900  TIP3      7081            0.0000000000
     71076      7482  TIP3      OH2            13.0947406045      -38.8492872522       40.6675022045  TIP3      7082            0.0000000000
     71077      7482  TIP3      H1             13.4751319879      -39.6333135008       40.2051533743  TIP3      7082            0.0000000000
     71078      7482  TIP3      H2             13.1076151429      -39.1608024667       41.5910783071  TIP3      7082            0.0000000000
     71079      7483  TIP3      OH2            14.2677164727      -46.7089424191       39.5020859077  TIP3      7083            0.0000000000
     71080      7483  TIP3      H1             14.2771178328      -46.9059404399       38.5253807544  TIP3      7083            0.0000000000
     71081      7483  TIP3      H2             15.1204746532      -46.2723422398       39.6078209237  TIP3      7083            0.0000000000
     71082      7484  TIP3      OH2             9.8453302746      -52.8160821192       40.1029944179  TIP3      7084            0.0000000000
     71083      7484  TIP3      H1              9.5684971471      -52.8061493508       41.0276733300  TIP3      7084            0.0000000000
     71084      7484  TIP3      H2              9.5605783078      -53.6962969155       39.8083428738  TIP3      7084            0.0000000000
     71085      7485  TIP3      OH2             6.7086427139      -52.3855651382       39.2093328075  TIP3      7085            0.0000000000
     71086      7485  TIP3      H1              6.2603471645      -52.8270134510       39.9572571108  TIP3      7085            0.0000000000
     71087      7485  TIP3      H2              5.9840684514      -51.9972054672       38.7001203313  TIP3      7085            0.0000000000
     71088      7486  TIP3      OH2             1.2177453360      -51.9571559130       41.6497261059  TIP3      7086            0.0000000000
     71089      7486  TIP3      H1              1.7160214364      -51.2989225734       41.1200533692  TIP3      7086            0.0000000000
     71090      7486  TIP3      H2              0.5301716903      -51.3539476658       42.0193712393  TIP3      7086            0.0000000000
     71091      7487  TIP3      OH2             5.3439421519      -49.6245288055       40.6256645997  TIP3      7087            0.0000000000
     71092      7487  TIP3      H1              4.7978174194      -49.9792046907       39.8988595587  TIP3      7087            0.0000000000
     71093      7487  TIP3      H2              6.1637562325      -49.4026162593       40.1578490470  TIP3      7087            0.0000000000
     71094      7488  TIP3      OH2            12.5601421421      -52.2478600571       40.7274686179  TIP3      7088            0.0000000000
     71095      7488  TIP3      H1             11.6064362133      -52.1028342760       40.5835695552  TIP3      7088            0.0000000000
     71096      7488  TIP3      H2             12.8633036457      -51.3740817839       41.0613179259  TIP3      7088            0.0000000000
     71097      7489  TIP3      OH2            13.2850731981      -50.3467795370       42.3901621194  TIP3      7089            0.0000000000
     71098      7489  TIP3      H1             14.1873524624      -50.4684082893       42.7007161802  TIP3      7089            0.0000000000
     71099      7489  TIP3      H2             13.3352686503      -49.5416154257       41.8439647462  TIP3      7089            0.0000000000
     71100      7490  TIP3      OH2            10.8196640795      -43.5969194124       41.5668413990  TIP3      7090            0.0000000000
     71101      7490  TIP3      H1             10.4763602498      -42.7641490989       41.9210069257  TIP3      7090            0.0000000000
     71102      7490  TIP3      H2             10.0925588267      -44.2035991459       41.7685648133  TIP3      7090            0.0000000000
     71103      7491  TIP3      OH2            18.3215103673      -50.1577494668       41.9839799373  TIP3      7091            0.0000000000
     71104      7491  TIP3      H1             17.6346437199      -50.5175130166       41.3807866145  TIP3      7091            0.0000000000
     71105      7491  TIP3      H2             18.2805541266      -49.2079653530       41.7875766241  TIP3      7091            0.0000000000
     71106      7492  TIP3      OH2             1.9341433907      -47.3588409319       40.2679869749  TIP3      7092            0.0000000000
     71107      7492  TIP3      H1              2.5455934498      -46.7287056093       40.7082977905  TIP3      7092            0.0000000000
     71108      7492  TIP3      H2              1.0612269366      -47.0507691765       40.5679656602  TIP3      7092            0.0000000000
     71109      7493  TIP3      OH2            13.8851612215      -43.3644484390       40.3624340045  TIP3      7093            0.0000000000
     71110      7493  TIP3      H1             14.2011774713      -43.7348810595       41.1903148131  TIP3      7093            0.0000000000
     71111      7493  TIP3      H2             12.9183426282      -43.4719365058       40.4655989292  TIP3      7093            0.0000000000
     71112      7494  TIP3      OH2            18.3364130110      -38.9132657627       40.5464788926  TIP3      7094            0.0000000000
     71113      7494  TIP3      H1             19.1072795502      -38.3187385636       40.4764526932  TIP3      7094            0.0000000000
     71114      7494  TIP3      H2             17.6644036917      -38.3224307758       40.9211952095  TIP3      7094            0.0000000000
     71115      7495  TIP3      OH2             7.9819272084      -42.2437620995       38.8206069765  TIP3      7095            0.0000000000
     71116      7495  TIP3      H1              8.1663898391      -43.0202323209       38.2768605977  TIP3      7095            0.0000000000
     71117      7495  TIP3      H2              7.6543784992      -42.6578598110       39.6547597104  TIP3      7095            0.0000000000
     71118      7496  TIP3      OH2             6.8634112295      -42.7225453530       41.2662140150  TIP3      7096            0.0000000000
     71119      7496  TIP3      H1              7.0339648797      -43.2012893463       42.0874316152  TIP3      7096            0.0000000000
     71120      7496  TIP3      H2              6.9042462862      -41.7957504002       41.5907959445  TIP3      7096            0.0000000000
     71121      7497  TIP3      OH2             3.2606910100      -45.4508111772       41.7299510570  TIP3      7097            0.0000000000
     71122      7497  TIP3      H1              2.6533019334      -45.0974733838       42.3697303554  TIP3      7097            0.0000000000
     71123      7497  TIP3      H2              3.8683344439      -44.7004635819       41.5455883109  TIP3      7097            0.0000000000
     71124      7498  TIP3      OH2             9.2505135970      -41.3152656007       41.3720851765  TIP3      7098            0.0000000000
     71125      7498  TIP3      H1              8.7795122167      -40.6476563279       41.9369361540  TIP3      7098            0.0000000000
     71126      7498  TIP3      H2             10.0135560670      -40.6706255055       41.3311086353  TIP3      7098            0.0000000000
     71127      7499  TIP3      OH2             6.9815872229      -39.9844334961       42.0381715763  TIP3      7099            0.0000000000
     71128      7499  TIP3      H1              7.1043506616      -39.1722426519       41.4852467779  TIP3      7099            0.0000000000
     71129      7499  TIP3      H2              6.7622963654      -39.6245792543       42.9008408071  TIP3      7099            0.0000000000
     71130      7500  TIP3      OH2             5.5721472237      -53.3864354580       41.4385468692  TIP3      7100            0.0000000000
     71131      7500  TIP3      H1              5.4933247047      -52.5100232903       41.8503704253  TIP3      7100            0.0000000000
     71132      7500  TIP3      H2              6.4803615830      -53.5376321810       41.8024555033  TIP3      7100            0.0000000000
     71133      7501  TIP3      OH2             3.9173128905      -42.8272125325       40.6857777522  TIP3      7101            0.0000000000
     71134      7501  TIP3      H1              4.5565865524      -42.1564746150       40.9628328688  TIP3      7101            0.0000000000
     71135      7501  TIP3      H2              4.4318743839      -43.2713710710       39.9823198970  TIP3      7101            0.0000000000
     71136      7502  TIP3      OH2             2.2573342432      -50.1641394529       39.8011419183  TIP3      7102            0.0000000000
     71137      7502  TIP3      H1              2.2269910240      -49.2079862361       39.9991028810  TIP3      7102            0.0000000000
     71138      7502  TIP3      H2              1.3685581591      -50.3831857822       39.5305311749  TIP3      7102            0.0000000000
     71139      7503  TIP3      OH2            10.0122331924      -40.3761560895       38.9534468843  TIP3      7103            0.0000000000
     71140      7503  TIP3      H1              9.3431210137      -41.0374243390       39.2626692604  TIP3      7103            0.0000000000
     71141      7503  TIP3      H2             10.7492868720      -40.9541558852       38.7209354448  TIP3      7103            0.0000000000
     71142      7504  TIP3      OH2            14.5903967171      -40.5842645052       39.1635146352  TIP3      7104            0.0000000000
     71143      7504  TIP3      H1             14.8703703708      -41.3803455088       39.6499493491  TIP3      7104            0.0000000000
     71144      7504  TIP3      H2             15.3577701967      -40.3850459635       38.6157201597  TIP3      7104            0.0000000000
     71145      7505  TIP3      OH2             5.5002351577      -44.6856322946       39.0314090752  TIP3      7105            0.0000000000
     71146      7505  TIP3      H1              5.6287533710      -45.4707805149       39.5836540195  TIP3      7105            0.0000000000
     71147      7505  TIP3      H2              6.2159908250      -44.7986276975       38.3725357622  TIP3      7105            0.0000000000
     71148      7506  TIP3      OH2            10.9238348940      -43.6086614493       38.7887236517  TIP3      7106            0.0000000000
     71149      7506  TIP3      H1             10.6351215469      -43.4697377987       39.7030156918  TIP3      7106            0.0000000000
     71150      7506  TIP3      H2             10.6926363833      -44.5593803993       38.6419559311  TIP3      7106            0.0000000000
     71151      7507  TIP3      OH2             6.6936945525      -46.7013144749       41.3547831914  TIP3      7107            0.0000000000
     71152      7507  TIP3      H1              6.2263494875      -47.2035618686       42.0360894738  TIP3      7107            0.0000000000
     71153      7507  TIP3      H2              6.9599971707      -47.3830118196       40.7072842905  TIP3      7107            0.0000000000
     71154      7508  TIP3      OH2             7.7582089910      -48.4696512174       39.6145073110  TIP3      7108            0.0000000000
     71155      7508  TIP3      H1              7.6002235882      -48.5961094430       38.6589554172  TIP3      7108            0.0000000000
     71156      7508  TIP3      H2              8.7301686473      -48.3652719047       39.6710212159  TIP3      7108            0.0000000000
     71157      7509  TIP3      OH2            17.1444094086      -46.1141556371       39.0859651603  TIP3      7109            0.0000000000
     71158      7509  TIP3      H1             16.8874558095      -46.5126232212       38.2366675803  TIP3      7109            0.0000000000
     71159      7509  TIP3      H2             17.1939490053      -45.1595872777       38.8380115598  TIP3      7109            0.0000000000
     71160      7510  TIP3      OH2             7.6354705009      -37.7626970631       40.6685594326  TIP3      7110            0.0000000000
     71161      7510  TIP3      H1              8.6002987077      -37.6289149851       40.7507628236  TIP3      7110            0.0000000000
     71162      7510  TIP3      H2              7.4219532207      -37.1131589490       39.9836748832  TIP3      7110            0.0000000000
     71163      7511  TIP3      OH2             1.1889946572      -43.1404717140       40.1263858905  TIP3      7111            0.0000000000
     71164      7511  TIP3      H1              2.1428741389      -43.0619352713       40.3698157382  TIP3      7111            0.0000000000
     71165      7511  TIP3      H2              1.2378135032      -43.8309472427       39.4323340957  TIP3      7111            0.0000000000
     71166      7512  TIP3      OH2            18.3345542580      -47.3385902236       41.1831334007  TIP3      7112            0.0000000000
     71167      7512  TIP3      H1             17.7720967854      -46.9350972608       40.4882852601  TIP3      7112            0.0000000000
     71168      7512  TIP3      H2             18.2794711135      -46.6607310268       41.9079152695  TIP3      7112            0.0000000000
     71169      7513  TIP3      OH2            16.6399384907      -50.0400818566       39.8155412739  TIP3      7113            0.0000000000
     71170      7513  TIP3      H1             16.7154428894      -49.3904875571       39.1104547616  TIP3      7113            0.0000000000
     71171      7513  TIP3      H2             16.4811736582      -50.8730484326       39.3218272364  TIP3      7113            0.0000000000
     71172      7514  TIP3      OH2            15.8876919490      -52.6210460358       38.9163724809  TIP3      7114            0.0000000000
     71173      7514  TIP3      H1             16.4959754633      -53.0191629339       39.5578386368  TIP3      7114            0.0000000000
     71174      7514  TIP3      H2             15.0338860322      -53.0407766241       39.1090061553  TIP3      7114            0.0000000000
     71175      7515  TIP3      OH2            17.9545376362      -53.7705557991       40.4872848252  TIP3      7115            0.0000000000
     71176      7515  TIP3      H1             18.4008930629      -54.4795510748       39.9750423138  TIP3      7115            0.0000000000
     71177      7515  TIP3      H2             18.6622699847      -53.0950210713       40.5387193389  TIP3      7115            0.0000000000
     71178      7516  TIP3      OH2             1.5609937517      -55.7090734059       41.5545922041  TIP3      7116            0.0000000000
     71179      7516  TIP3      H1              1.9969189792      -55.0628404672       40.9799595367  TIP3      7116            0.0000000000
     71180      7516  TIP3      H2              0.9328850797      -55.1581470938       42.0253044136  TIP3      7116            0.0000000000
     71181      7517  TIP3      OH2             3.3689311263      -53.7942205108       40.0026965326  TIP3      7117            0.0000000000
     71182      7517  TIP3      H1              3.8901860335      -54.4233037644       39.4766057138  TIP3      7117            0.0000000000
     71183      7517  TIP3      H2              4.0216570394      -53.5050967776       40.6760765700  TIP3      7117            0.0000000000
     71184      7518  TIP3      OH2            10.2853173568      -38.5252624555       40.8808917598  TIP3      7118            0.0000000000
     71185      7518  TIP3      H1             11.1785893735      -38.2104840834       40.6834691597  TIP3      7118            0.0000000000
     71186      7518  TIP3      H2             10.0738002570      -39.0073930406       40.0499293715  TIP3      7118            0.0000000000
     71187      7519  TIP3      OH2             3.2444145556      -38.8219197938       39.4831103920  TIP3      7119            0.0000000000
     71188      7519  TIP3      H1              2.9826024596      -38.5556805282       40.3784782168  TIP3      7119            0.0000000000
     71189      7519  TIP3      H2              4.0261721759      -39.3907925222       39.6399902946  TIP3      7119            0.0000000000
     71190      7520  TIP3      OH2            29.3920604425      -48.6201181154       40.1867484571  TIP3      7120            0.0000000000
     71191      7520  TIP3      H1             30.1151243444      -48.6022593918       40.8538759323  TIP3      7120            0.0000000000
     71192      7520  TIP3      H2             29.7344883388      -49.2820391486       39.5756144202  TIP3      7120            0.0000000000
     71193      7521  TIP3      OH2            31.6043103785      -47.8253208465       41.7179104313  TIP3      7121            0.0000000000
     71194      7521  TIP3      H1             32.1218981151      -47.6015879008       42.5375672223  TIP3      7121            0.0000000000
     71195      7521  TIP3      H2             32.0277724107      -47.2550302681       41.0517577745  TIP3      7121            0.0000000000
     71196      7522  TIP3      OH2            35.3466316891      -55.9662028010       41.6654928907  TIP3      7122            0.0000000000
     71197      7522  TIP3      H1             34.4245542270      -55.8495639879       41.9110291731  TIP3      7122            0.0000000000
     71198      7522  TIP3      H2             35.5842128216      -55.1311164906       41.2315692556  TIP3      7122            0.0000000000
     71199      7523  TIP3      OH2            36.5145661368      -41.6247780278       39.9731731583  TIP3      7123            0.0000000000
     71200      7523  TIP3      H1             36.6343520368      -40.6769799705       40.1804457806  TIP3      7123            0.0000000000
     71201      7523  TIP3      H2             37.4454464273      -41.9094142440       39.9772309704  TIP3      7123            0.0000000000
     71202      7524  TIP3      OH2            31.9357393417      -38.8610657365       40.6767373525  TIP3      7124            0.0000000000
     71203      7524  TIP3      H1             32.3375223311      -39.6242200248       40.2005308195  TIP3      7124            0.0000000000
     71204      7524  TIP3      H2             31.9698899185      -39.1601021009       41.5952391673  TIP3      7124            0.0000000000
     71205      7525  TIP3      OH2            33.1235785825      -46.7086673786       39.5021920220  TIP3      7125            0.0000000000
     71206      7525  TIP3      H1             33.1329908852      -46.9060497729       38.5254486204  TIP3      7125            0.0000000000
     71207      7525  TIP3      H2             33.9766577021      -46.2718089417       39.6075359927  TIP3      7125            0.0000000000
     71208      7526  TIP3      OH2            28.7115940776      -52.8168261657       40.1135118328  TIP3      7126            0.0000000000
     71209      7526  TIP3      H1             28.4289700152      -52.8074338260       41.0345716382  TIP3      7126            0.0000000000
     71210      7526  TIP3      H2             28.4104995615      -53.6916715777       39.8043891876  TIP3      7126            0.0000000000
     71211      7527  TIP3      OH2            25.5688558602      -52.3625001949       39.2357767556  TIP3      7127            0.0000000000
     71212      7527  TIP3      H1             25.1134028147      -52.8367191332       39.9516855101  TIP3      7127            0.0000000000
     71213      7527  TIP3      H2             24.8530802134      -52.0188003255       38.6885323828  TIP3      7127            0.0000000000
     71214      7528  TIP3      OH2            20.0720436646      -51.9582279436       41.6503950197  TIP3      7128            0.0000000000
     71215      7528  TIP3      H1             20.5728062250      -51.3014153875       41.1278523334  TIP3      7128            0.0000000000
     71216      7528  TIP3      H2             19.3857615332      -51.3539597603       42.0199563206  TIP3      7128            0.0000000000
     71217      7529  TIP3      OH2            24.1951643320      -49.6189233548       40.6164365760  TIP3      7129            0.0000000000
     71218      7529  TIP3      H1             23.6563002225      -49.9856978713       39.9008506123  TIP3      7129            0.0000000000
     71219      7529  TIP3      H2             25.0252935843      -49.4040483347       40.1636436316  TIP3      7129            0.0000000000
     71220      7530  TIP3      OH2            31.4158675870      -52.2379981655       40.7039760507  TIP3      7130            0.0000000000
     71221      7530  TIP3      H1             30.4592623744      -52.1044292521       40.5929836823  TIP3      7130            0.0000000000
     71222      7530  TIP3      H2             31.7217604965      -51.3809468796       41.0738569603  TIP3      7130            0.0000000000
     71223      7531  TIP3      OH2            32.1364926904      -50.3368146363       42.3840480122  TIP3      7131            0.0000000000
     71224      7531  TIP3      H1             33.0355075533      -50.4838713489       42.7053405101  TIP3      7131            0.0000000000
     71225      7531  TIP3      H2             32.1967087433      -49.5385098885       41.8428183555  TIP3      7131            0.0000000000
     71226      7532  TIP3      OH2            29.6753332192      -43.5964292089       41.5665756690  TIP3      7132            0.0000000000
     71227      7532  TIP3      H1             29.3323198651      -42.7641158666       41.9210151101  TIP3      7132            0.0000000000
     71228      7532  TIP3      H2             28.9484975508      -44.2036438315       41.7684486667  TIP3      7132            0.0000000000
     71229      7533  TIP3      OH2            37.1778769740      -50.1588864112       41.9824183220  TIP3      7133            0.0000000000
     71230      7533  TIP3      H1             36.4861783551      -50.5233180872       41.3861258816  TIP3      7133            0.0000000000
     71231      7533  TIP3      H2             37.1355431640      -49.2085035973       41.7876345189  TIP3      7133            0.0000000000
     71232      7534  TIP3      OH2            20.7892117939      -47.3597950828       40.2615316050  TIP3      7134            0.0000000000
     71233      7534  TIP3      H1             21.3995059903      -46.7308766279       40.7146999766  TIP3      7134            0.0000000000
     71234      7534  TIP3      H2             19.9176639051      -47.0495308224       40.5733746054  TIP3      7134            0.0000000000
     71235      7535  TIP3      OH2            32.7410111527      -43.3644881463       40.3628016403  TIP3      7135            0.0000000000
     71236      7535  TIP3      H1             33.0571745052      -43.7349485904       41.1904202888  TIP3      7135            0.0000000000
     71237      7535  TIP3      H2             31.7737838127      -43.4720687905       40.4652370673  TIP3      7135            0.0000000000
     71238      7536  TIP3      OH2            37.1956560909      -38.9202911306       40.5561393626  TIP3      7136            0.0000000000
     71239      7536  TIP3      H1             37.9546970059      -38.3136576890       40.4702685901  TIP3      7136            0.0000000000
     71240      7536  TIP3      H2             36.5146672347      -38.3185053110       40.9090009470  TIP3      7136            0.0000000000
     71241      7537  TIP3      OH2            26.8378567254      -42.2437689726       38.8205910902  TIP3      7137            0.0000000000
     71242      7537  TIP3      H1             27.0224733210      -43.0202528868       38.2768879270  TIP3      7137            0.0000000000
     71243      7537  TIP3      H2             26.5104187469      -42.6578546184       39.6547934838  TIP3      7137            0.0000000000
     71244      7538  TIP3      OH2            25.7195044914      -42.7225555412       41.2661971143  TIP3      7138            0.0000000000
     71245      7538  TIP3      H1             25.8898821204      -43.2012882925       42.0874500447  TIP3      7138            0.0000000000
     71246      7538  TIP3      H2             25.7601857658      -41.7957656634       41.5907913430  TIP3      7138            0.0000000000
     71247      7539  TIP3      OH2            22.1163871726      -45.4511353864       41.7302841237  TIP3      7139            0.0000000000
     71248      7539  TIP3      H1             21.5093378771      -45.0968105485       42.3703985883  TIP3      7139            0.0000000000
     71249      7539  TIP3      H2             22.7242024987      -44.7007166362       41.5453951963  TIP3      7139            0.0000000000
     71250      7540  TIP3      OH2            28.1065435939      -41.3152265265       41.3722579369  TIP3      7140            0.0000000000
     71251      7540  TIP3      H1             27.6354720295      -40.6475249516       41.9368031318  TIP3      7140            0.0000000000
     71252      7540  TIP3      H2             28.8696057021      -40.6706460627       41.3310000330  TIP3      7140            0.0000000000
     71253      7541  TIP3      OH2            25.8376704054      -39.9845360239       42.0382207589  TIP3      7141            0.0000000000
     71254      7541  TIP3      H1             25.9609910281      -39.1725353485       41.4851356184  TIP3      7141            0.0000000000
     71255      7541  TIP3      H2             25.6182559206      -39.6245522451       42.9007964626  TIP3      7141            0.0000000000
     71256      7542  TIP3      OH2            24.4221065888      -53.3879944794       41.4496679104  TIP3      7142            0.0000000000
     71257      7542  TIP3      H1             24.3495283671      -52.5081920350       41.8520458409  TIP3      7142            0.0000000000
     71258      7542  TIP3      H2             25.3363723839      -53.5376616540       41.7998856923  TIP3      7142            0.0000000000
     71259      7543  TIP3      OH2            22.7727561146      -42.8266858058       40.6847305322  TIP3      7143            0.0000000000
     71260      7543  TIP3      H1             23.4126248573      -42.1566338196       40.9626948012  TIP3      7143            0.0000000000
     71261      7543  TIP3      H2             23.2867595180      -43.2717827570       39.9809379756  TIP3      7143            0.0000000000
     71262      7544  TIP3      OH2            21.1177932213      -50.1542601512       39.7663669593  TIP3      7144            0.0000000000
     71263      7544  TIP3      H1             21.0809057646      -49.2110429998       40.0203108678  TIP3      7144            0.0000000000
     71264      7544  TIP3      H2             20.2169074993      -50.3900193340       39.5508163304  TIP3      7144            0.0000000000
     71265      7545  TIP3      OH2            28.8680299192      -40.3761138811       38.9533993536  TIP3      7145            0.0000000000
     71266      7545  TIP3      H1             28.1997453224      -41.0370959750       39.2625440461  TIP3      7145            0.0000000000
     71267      7545  TIP3      H2             29.6053823470      -40.9539495543       38.7209867152  TIP3      7145            0.0000000000
     71268      7546  TIP3      OH2            33.4409629440      -40.5991008590       39.1594265212  TIP3      7146            0.0000000000
     71269      7546  TIP3      H1             33.7319305473      -41.3797568531       39.6521911586  TIP3      7146            0.0000000000
     71270      7546  TIP3      H2             34.2097713038      -40.3720197315       38.6192156456  TIP3      7146            0.0000000000
     71271      7547  TIP3      OH2            24.3559151251      -44.6853607611       39.0308253389  TIP3      7147            0.0000000000
     71272      7547  TIP3      H1             24.4883463207      -45.4668805936       39.5877207033  TIP3      7147            0.0000000000
     71273      7547  TIP3      H2             25.0720819862      -44.7988864710       38.3726852158  TIP3      7147            0.0000000000
     71274      7548  TIP3      OH2            29.7797163609      -43.6086815716       38.7886786005  TIP3      7148            0.0000000000
     71275      7548  TIP3      H1             29.4911910336      -43.4696950173       39.7029937920  TIP3      7148            0.0000000000
     71276      7548  TIP3      H2             29.5486683150      -44.5594085172       38.6419613775  TIP3      7148            0.0000000000
     71277      7549  TIP3      OH2            25.5486009186      -46.6988607885       41.3565591027  TIP3      7149            0.0000000000
     71278      7549  TIP3      H1             25.0821417614      -47.2050659365       42.0354564253  TIP3      7149            0.0000000000
     71279      7549  TIP3      H2             25.8155270887      -47.3813134491       40.7079351283  TIP3      7149            0.0000000000
     71280      7550  TIP3      OH2            26.6153971835      -48.4693009564       39.6163887484  TIP3      7150            0.0000000000
     71281      7550  TIP3      H1             26.4632734079      -48.5958891692       38.6612573526  TIP3      7150            0.0000000000
     71282      7550  TIP3      H2             27.5867869248      -48.3651567993       39.6719919418  TIP3      7150            0.0000000000
     71283      7551  TIP3      OH2            35.9870479152      -46.1091641639       39.0922237491  TIP3      7151            0.0000000000
     71284      7551  TIP3      H1             35.7529676904      -46.5158793093       38.2365346348  TIP3      7151            0.0000000000
     71285      7551  TIP3      H2             36.0489960153      -45.1576679059       38.8377636426  TIP3      7151            0.0000000000
     71286      7552  TIP3      OH2            26.4916279442      -37.7624527219       40.6684000006  TIP3      7152            0.0000000000
     71287      7552  TIP3      H1             27.4564138038      -37.6290471763       40.7507785243  TIP3      7152            0.0000000000
     71288      7552  TIP3      H2             26.2804306647      -37.1125963971       39.9830017480  TIP3      7152            0.0000000000
     71289      7553  TIP3      OH2            20.0450158539      -43.1403987678       40.1259752049  TIP3      7153            0.0000000000
     71290      7553  TIP3      H1             20.9988268432      -43.0621618257       40.3697938718  TIP3      7153            0.0000000000
     71291      7553  TIP3      H2             20.0940211853      -43.8312563653       39.4324539190  TIP3      7153            0.0000000000
     71292      7554  TIP3      OH2            37.1920163696      -47.3369563631       41.1815246282  TIP3      7154            0.0000000000
     71293      7554  TIP3      H1             36.6280340032      -46.9348780607       40.4876942794  TIP3      7154            0.0000000000
     71294      7554  TIP3      H2             37.1353499991      -46.6602481556       41.9080034714  TIP3      7154            0.0000000000
     71295      7555  TIP3      OH2            35.4951248021      -50.0383089961       39.8141950161  TIP3      7155            0.0000000000
     71296      7555  TIP3      H1             35.5804604746      -49.3914848647       39.1058910531  TIP3      7155            0.0000000000
     71297      7555  TIP3      H2             35.3370374249      -50.8729843058       39.3222559371  TIP3      7155            0.0000000000
     71298      7556  TIP3      OH2            34.7417822539      -52.6133048599       38.9209291268  TIP3      7156            0.0000000000
     71299      7556  TIP3      H1             35.3439232590      -53.0264346114       39.5640292244  TIP3      7156            0.0000000000
     71300      7556  TIP3      H2             33.8926885878      -53.0478416390       39.1186383942  TIP3      7156            0.0000000000
     71301      7557  TIP3      OH2            36.8203161674      -53.7571582254       40.4721752938  TIP3      7157            0.0000000000
     71302      7557  TIP3      H1             37.2523103824      -54.4850367884       39.9754805287  TIP3      7157            0.0000000000
     71303      7557  TIP3      H2             37.5267415553      -53.0929406292       40.5370309035  TIP3      7157            0.0000000000
     71304      7558  TIP3      OH2            20.4019534565      -55.7144911534       41.5475781744  TIP3      7158            0.0000000000
     71305      7558  TIP3      H1             20.8517249993      -55.0663538766       40.9816345004  TIP3      7158            0.0000000000
     71306      7558  TIP3      H2             19.7959039194      -55.1521404082       42.0298668734  TIP3      7158            0.0000000000
     71307      7559  TIP3      OH2            22.2191548073      -53.7987445533       40.0103570109  TIP3      7159            0.0000000000
     71308      7559  TIP3      H1             22.7480548604      -54.4188786994       39.4716800148  TIP3      7159            0.0000000000
     71309      7559  TIP3      H2             22.8826462299      -53.5052105202       40.6703429302  TIP3      7159            0.0000000000
     71310      7560  TIP3      OH2            29.1443369868      -38.5238132145       40.8793858408  TIP3      7160            0.0000000000
     71311      7560  TIP3      H1             30.0400605737      -38.2074345668       40.6788373868  TIP3      7160            0.0000000000
     71312      7560  TIP3      H2             28.9309186183      -39.0049460602       40.0464692153  TIP3      7160            0.0000000000
     71313      7561  TIP3      OH2            22.0982321508      -38.8213747158       39.4824731492  TIP3      7161            0.0000000000
     71314      7561  TIP3      H1             21.8390973783      -38.5558592725       40.3787386140  TIP3      7161            0.0000000000
     71315      7561  TIP3      H2             22.8816114287      -39.3904922023       39.6397230044  TIP3      7161            0.0000000000
     71316      7562  TIP3      OH2            48.2464063582      -48.6219945629       40.1869435332  TIP3      7162            0.0000000000
     71317      7562  TIP3      H1             48.9712854617      -48.6025103260       40.8537246636  TIP3      7162            0.0000000000
     71318      7562  TIP3      H2             48.5906397478      -49.2821368145       39.5755216862  TIP3      7162            0.0000000000
     71319      7563  TIP3      OH2            50.4511956423      -47.8229429011       41.7186704446  TIP3      7163            0.0000000000
     71320      7563  TIP3      H1             50.9759265482      -47.6024012672       42.5363246223  TIP3      7163            0.0000000000
     71321      7563  TIP3      H2             50.8831282707      -47.2587550967       41.0535709719  TIP3      7163            0.0000000000
     71322      7564  TIP3      OH2            54.1902063400      -55.9640908713       41.6592040430  TIP3      7164            0.0000000000
     71323      7564  TIP3      H1             53.2726006652      -55.8443050085       41.9034321002  TIP3      7164            0.0000000000
     71324      7564  TIP3      H2             54.4442035119      -55.1284418287       41.2392026340  TIP3      7164            0.0000000000
     71325      7565  TIP3      OH2            55.3468431816      -41.6077380163       39.9653230265  TIP3      7165            0.0000000000
     71326      7565  TIP3      H1             55.4810283314      -40.6699029900       40.1809952636  TIP3      7165            0.0000000000
     71327      7565  TIP3      H2             56.2808766395      -41.9176641796       39.9836000040  TIP3      7165            0.0000000000
     71328      7566  TIP3      OH2            50.7924258696      -38.8608101610       40.6770066137  TIP3      7166            0.0000000000
     71329      7566  TIP3      H1             51.1892751616      -39.6276057424       40.2002930749  TIP3      7166            0.0000000000
     71330      7566  TIP3      H2             50.8272381114      -39.1604022321       41.5949881849  TIP3      7166            0.0000000000
     71331      7567  TIP3      OH2            51.9766534934      -46.7103080876       39.5025763262  TIP3      7167            0.0000000000
     71332      7567  TIP3      H1             51.9911154693      -46.9045969658       38.5255869574  TIP3      7167            0.0000000000
     71333      7567  TIP3      H2             52.8301881600      -46.2726447161       39.6090641273  TIP3      7167            0.0000000000
     71334      7568  TIP3      OH2            47.5564398753      -52.8161928862       40.1071253238  TIP3      7168            0.0000000000
     71335      7568  TIP3      H1             47.2923367856      -52.8081882553       41.0378884347  TIP3      7168            0.0000000000
     71336      7568  TIP3      H2             47.2722550185      -53.6960177578       39.8090679504  TIP3      7168            0.0000000000
     71337      7569  TIP3      OH2            44.4207126077      -52.3859964073       39.2091059110  TIP3      7169            0.0000000000
     71338      7569  TIP3      H1             43.9724161670      -52.8269807723       39.9573081176  TIP3      7169            0.0000000000
     71339      7569  TIP3      H2             43.6961278973      -51.9972052404       38.7001509997  TIP3      7169            0.0000000000
     71340      7570  TIP3      OH2            38.9297581294      -51.9571442926       41.6497224086  TIP3      7170            0.0000000000
     71341      7570  TIP3      H1             39.4280172170      -51.2989259264       41.1200556029  TIP3      7170            0.0000000000
     71342      7570  TIP3      H2             38.2421702762      -51.3539481800       42.0193676857  TIP3      7170            0.0000000000
     71343      7571  TIP3      OH2            43.0559286958      -49.6245056037       40.6256683927  TIP3      7171            0.0000000000
     71344      7571  TIP3      H1             42.5098252276      -49.9792122012       39.8988654475  TIP3      7171            0.0000000000
     71345      7571  TIP3      H2             43.8757657699      -49.4026206114       40.1578558127  TIP3      7171            0.0000000000
     71346      7572  TIP3      OH2            50.2719684259      -52.2365493130       40.6998337649  TIP3      7172            0.0000000000
     71347      7572  TIP3      H1             49.3160638283      -52.1039711789       40.5950325330  TIP3      7172            0.0000000000
     71348      7572  TIP3      H2             50.5766890164      -51.3838392263       41.0813591129  TIP3      7172            0.0000000000
     71349      7573  TIP3      OH2            50.9954774376      -50.3420808598       42.3832388575  TIP3      7173            0.0000000000
     71350      7573  TIP3      H1             51.8938727905      -50.4853724911       42.7040505191  TIP3      7173            0.0000000000
     71351      7573  TIP3      H2             51.0518253388      -49.5411725871       41.8461629963  TIP3      7173            0.0000000000
     71352      7574  TIP3      OH2            48.5318361578      -43.5986354844       41.5629899210  TIP3      7174            0.0000000000
     71353      7574  TIP3      H1             48.1905159996      -42.7678989067       41.9161364742  TIP3      7174            0.0000000000
     71354      7574  TIP3      H2             47.8045326434      -44.2039215796       41.7689920449  TIP3      7174            0.0000000000
     71355      7575  TIP3      OH2            55.9762833982      -50.1189281898       42.0124652143  TIP3      7175            0.0000000000
     71356      7575  TIP3      H1             55.3308668334      -50.5160374066       41.3829056260  TIP3      7175            0.0000000000
     71357      7575  TIP3      H2             55.9917674081      -49.1818366320       41.7750444342  TIP3      7175            0.0000000000
     71358      7576  TIP3      OH2            39.6461676798      -47.3588014830       40.2679684992  TIP3      7176            0.0000000000
     71359      7576  TIP3      H1             40.2575831007      -46.7287154899       40.7083188428  TIP3      7176            0.0000000000
     71360      7576  TIP3      H2             38.7732170270      -47.0507849914       40.5679665373  TIP3      7176            0.0000000000
     71361      7577  TIP3      OH2            51.5834158836      -43.3617162284       40.3631594311  TIP3      7177            0.0000000000
     71362      7577  TIP3      H1             51.9052639463      -43.7343724867       41.1886587655  TIP3      7177            0.0000000000
     71363      7577  TIP3      H2             50.6227341359      -43.4723626799       40.4684898335  TIP3      7177            0.0000000000
     71364      7578  TIP3      OH2            56.0476772663      -38.9117692643       40.5438268880  TIP3      7178            0.0000000000
     71365      7578  TIP3      H1             56.8204170138      -38.3208650756       40.4839416904  TIP3      7178            0.0000000000
     71366      7578  TIP3      H2             55.3677926845      -38.3293977204       40.9313368006  TIP3      7178            0.0000000000
     71367      7579  TIP3      OH2            45.6939049612      -42.2436282801       38.8208422302  TIP3      7179            0.0000000000
     71368      7579  TIP3      H1             45.8784580749      -43.0201854940       38.2768875577  TIP3      7179            0.0000000000
     71369      7579  TIP3      H2             45.3664106697      -42.6580821994       39.6548093733  TIP3      7179            0.0000000000
     71370      7580  TIP3      OH2            44.5760433228      -42.7239808938       41.2637694083  TIP3      7180            0.0000000000
     71371      7580  TIP3      H1             44.7433106552      -43.2073168695       42.0830533896  TIP3      7180            0.0000000000
     71372      7580  TIP3      H2             44.6128764030      -41.7979796139       41.5854943383  TIP3      7180            0.0000000000
     71373      7581  TIP3      OH2            40.9731320818      -45.4507412287       41.7302104026  TIP3      7181            0.0000000000
     71374      7581  TIP3      H1             40.3652705496      -45.0974921562       42.3696977157  TIP3      7181            0.0000000000
     71375      7581  TIP3      H2             41.5803029699      -44.7003605072       41.5455035129  TIP3      7181            0.0000000000
     71376      7582  TIP3      OH2            46.9668684084      -41.3146701852       41.3807305150  TIP3      7182            0.0000000000
     71377      7582  TIP3      H1             46.4875561838      -40.6447512459       41.9269214391  TIP3      7182            0.0000000000
     71378      7582  TIP3      H2             47.7291075022      -40.6728444995       41.3209428039  TIP3      7182            0.0000000000
     71379      7583  TIP3      OH2            44.7121916688      -39.9817585860       42.0530968746  TIP3      7183            0.0000000000
     71380      7583  TIP3      H1             44.8117727243      -39.1767938633       41.4777996115  TIP3      7183            0.0000000000
     71381      7583  TIP3      H2             44.4563459465      -39.6198015255       42.8955484443  TIP3      7183            0.0000000000
     71382      7584  TIP3      OH2            43.2841393811      -53.3864417570       41.4385329065  TIP3      7184            0.0000000000
     71383      7584  TIP3      H1             43.2053647902      -52.5100355887       41.8503813814  TIP3      7184            0.0000000000
     71384      7584  TIP3      H2             44.1924047300      -53.5375971056       41.8024424717  TIP3      7184            0.0000000000
     71385      7585  TIP3      OH2            41.6294402915      -42.8273928448       40.6855626458  TIP3      7185            0.0000000000
     71386      7585  TIP3      H1             42.2685679364      -42.1566533229       40.9627236461  TIP3      7185            0.0000000000
     71387      7585  TIP3      H2             42.1430176398      -43.2715167855       39.9811806657  TIP3      7185            0.0000000000
     71388      7586  TIP3      OH2            39.9693099336      -50.1639307643       39.8005983018  TIP3      7186            0.0000000000
     71389      7586  TIP3      H1             39.9389420418      -49.2079114523       39.9991109485  TIP3      7186            0.0000000000
     71390      7586  TIP3      H2             39.0804544593      -50.3831679010       39.5305149407  TIP3      7186            0.0000000000
     71391      7587  TIP3      OH2            47.7211794245      -40.3762013181       38.9504082625  TIP3      7187            0.0000000000
     71392      7587  TIP3      H1             47.0552880583      -41.0374128365       39.2622570262  TIP3      7187            0.0000000000
     71393      7587  TIP3      H2             48.4608573051      -40.9534401646       38.7208947354  TIP3      7187            0.0000000000
     71394      7588  TIP3      OH2            52.2857461804      -40.5928933926       39.1616635912  TIP3      7188            0.0000000000
     71395      7588  TIP3      H1             52.5825728727      -41.3786781021       39.6497932190  TIP3      7188            0.0000000000
     71396      7588  TIP3      H2             53.0623562897      -40.3752268244       38.6186163642  TIP3      7188            0.0000000000
     71397      7589  TIP3      OH2            43.2123256214      -44.6854153866       39.0314918791  TIP3      7189            0.0000000000
     71398      7589  TIP3      H1             43.3407518539      -45.4707301739       39.5836047744  TIP3      7189            0.0000000000
     71399      7589  TIP3      H2             43.9280498980      -44.7986313365       38.3725771674  TIP3      7189            0.0000000000
     71400      7590  TIP3      OH2            48.6337024574      -43.6085367988       38.7864052749  TIP3      7190            0.0000000000
     71401      7590  TIP3      H1             48.3475124831      -43.4698401791       39.7024694459  TIP3      7190            0.0000000000
     71402      7590  TIP3      H2             48.4048939649      -44.5595908580       38.6425491057  TIP3      7190            0.0000000000
     71403      7591  TIP3      OH2            44.4055793958      -46.7012910312       41.3547504800  TIP3      7191            0.0000000000
     71404      7591  TIP3      H1             43.9383980152      -47.2036166361       42.0360650472  TIP3      7191            0.0000000000
     71405      7591  TIP3      H2             44.6720521434      -47.3830645817       40.7072741316  TIP3      7191            0.0000000000
     71406      7592  TIP3      OH2            45.4702072481      -48.4696343840       39.6145027935  TIP3      7192            0.0000000000
     71407      7592  TIP3      H1             45.3122422056      -48.5961238930       38.6589505613  TIP3      7192            0.0000000000
     71408      7592  TIP3      H2             46.4422249891      -48.3653003780       39.6710088535  TIP3      7192            0.0000000000
     71409      7593  TIP3      OH2            54.8504381210      -46.0989427632       39.0972141289  TIP3      7193            0.0000000000
     71410      7593  TIP3      H1             54.6002144169      -46.5109319165       38.2458711779  TIP3      7193            0.0000000000
     71411      7593  TIP3      H2             54.9003920131      -45.1500385991       38.8450930100  TIP3      7193            0.0000000000
     71412      7594  TIP3      OH2            45.3500455894      -37.7624907511       40.6809263099  TIP3      7194            0.0000000000
     71413      7594  TIP3      H1             46.3143855530      -37.6266006820       40.7422759238  TIP3      7194            0.0000000000
     71414      7594  TIP3      H2             45.1356798948      -37.1173946663       39.9876195871  TIP3      7194            0.0000000000
     71415      7595  TIP3      OH2            38.9010603110      -43.1405121623       40.1263288705  TIP3      7195            0.0000000000
     71416      7595  TIP3      H1             39.8548283834      -43.0619347932       40.3698560127  TIP3      7195            0.0000000000
     71417      7595  TIP3      H2             38.9497946076      -43.8309460252       39.4323303215  TIP3      7195            0.0000000000
     71418      7596  TIP3      OH2            55.9759789710      -47.3624650364       41.1991010589  TIP3      7196            0.0000000000
     71419      7596  TIP3      H1             55.4790863909      -46.9289528958       40.4726607221  TIP3      7196            0.0000000000
     71420      7596  TIP3      H2             55.9894505648      -46.6573473128       41.9069014265  TIP3      7196            0.0000000000
     71421      7597  TIP3      OH2            54.3338235351      -50.0291407100       39.8124364709  TIP3      7197            0.0000000000
     71422      7597  TIP3      H1             54.4400097351      -49.3933070397       39.1008329977  TIP3      7197            0.0000000000
     71423      7597  TIP3      H2             54.1880789826      -50.8663957021       39.3205742047  TIP3      7197            0.0000000000
     71424      7598  TIP3      OH2            53.5789309870      -52.6061173771       38.9228857524  TIP3      7198            0.0000000000
     71425      7598  TIP3      H1             54.1917640878      -53.0209602414       39.5607083108  TIP3      7198            0.0000000000
     71426      7598  TIP3      H2             52.7380595904      -53.0505349545       39.1172656189  TIP3      7198            0.0000000000
     71427      7599  TIP3      OH2            55.6693133793      -53.7689482370       40.4569075425  TIP3      7199            0.0000000000
     71428      7599  TIP3      H1             56.1185113270      -54.4766966357       39.9742925324  TIP3      7199            0.0000000000
     71429      7599  TIP3      H2             56.3856378889      -53.1073323141       40.5457339710  TIP3      7199            0.0000000000
     71430      7600  TIP3      OH2            39.2729136189      -55.7090740264       41.5544621805  TIP3      7200            0.0000000000
     71431      7600  TIP3      H1             39.7089265975      -55.0628145638       40.9799522552  TIP3      7200            0.0000000000
     71432      7600  TIP3      H2             38.6449193110      -55.1581741011       42.0253569311  TIP3      7200            0.0000000000
     71433      7601  TIP3      OH2            41.0809342945      -53.7942183267       40.0026845633  TIP3      7201            0.0000000000
     71434      7601  TIP3      H1             41.6021834624      -54.4233107905       39.4766105357  TIP3      7201            0.0000000000
     71435      7601  TIP3      H2             41.7336625622      -53.5050917927       40.6760809103  TIP3      7201            0.0000000000
     71436      7602  TIP3      OH2            48.0012862376      -38.5319975460       40.8885580167  TIP3      7202            0.0000000000
     71437      7602  TIP3      H1             48.8943902686      -38.2067031221       40.6742913200  TIP3      7202            0.0000000000
     71438      7602  TIP3      H2             47.7888548700      -39.0009918488       40.0446933115  TIP3      7202            0.0000000000
     71439      7603  TIP3      OH2            40.9564701130      -38.8219272434       39.4831475668  TIP3      7203            0.0000000000
     71440      7603  TIP3      H1             40.6944996386      -38.5556589259       40.3784887651  TIP3      7203            0.0000000000
     71441      7603  TIP3      H2             41.7380847875      -39.3907844512       39.6399572909  TIP3      7203            0.0000000000
     71442      7604  TIP3      OH2           -46.0353561930      -29.7653997955       40.1847668959  TIP3      7204            0.0000000000
     71443      7604  TIP3      H1            -45.3112911729      -29.7413508674       40.8487197671  TIP3      7204            0.0000000000
     71444      7604  TIP3      H2            -45.6896688272      -30.4263083729       39.5753143064  TIP3      7204            0.0000000000
     71445      7605  TIP3      OH2           -43.8129078460      -28.9836080701       41.7194767610  TIP3      7205            0.0000000000
     71446      7605  TIP3      H1            -43.3028978550      -28.7351079915       42.5345766036  TIP3      7205            0.0000000000
     71447      7605  TIP3      H2            -43.4030561544      -28.3982614242       41.0512173577  TIP3      7205            0.0000000000
     71448      7606  TIP3      OH2           -40.0634008109      -37.1228279064       41.6542138215  TIP3      7206            0.0000000000
     71449      7606  TIP3      H1            -40.9863942718      -37.0044750268       41.9065843704  TIP3      7206            0.0000000000
     71450      7606  TIP3      H2            -39.8341448426      -36.2837139114       41.2286864193  TIP3      7206            0.0000000000
     71451      7607  TIP3      OH2           -38.9093166024      -22.7687801651       39.9731678727  TIP3      7207            0.0000000000
     71452      7607  TIP3      H1            -38.7896675928      -21.8209793081       40.1804493856  TIP3      7207            0.0000000000
     71453      7607  TIP3      H2            -37.9783764718      -23.0532542190       39.9774448265  TIP3      7207            0.0000000000
     71454      7608  TIP3      OH2           -43.4889936996      -20.0054877862       40.6759448554  TIP3      7208            0.0000000000
     71455      7608  TIP3      H1            -43.0864174039      -20.7682530878       40.2005105986  TIP3      7208            0.0000000000
     71456      7608  TIP3      H2            -43.4541389979      -20.3040090572       41.5952339476  TIP3      7208            0.0000000000
     71457      7609  TIP3      OH2           -42.3005840980      -27.8523991067       39.5022325168  TIP3      7209            0.0000000000
     71458      7609  TIP3      H1            -42.2908881624      -28.0501466407       38.5254789618  TIP3      7209            0.0000000000
     71459      7609  TIP3      H2            -41.4473323468      -27.4159720624       39.6075065357  TIP3      7209            0.0000000000
     71460      7610  TIP3      OH2           -46.7275789289      -33.9557958662       40.1033879389  TIP3      7210            0.0000000000
     71461      7610  TIP3      H1            -46.9956595183      -33.9432144870       41.0323940866  TIP3      7210            0.0000000000
     71462      7610  TIP3      H2            -47.0019271553      -34.8368752766       39.8030008880  TIP3      7210            0.0000000000
     71463      7611  TIP3      OH2           -49.8564780498      -33.5309251324       39.2092241207  TIP3      7211            0.0000000000
     71464      7611  TIP3      H1            -50.3133518463      -33.9585785095       39.9615899338  TIP3      7211            0.0000000000
     71465      7611  TIP3      H2            -50.5828514856      -33.1404003256       38.7005323136  TIP3      7211            0.0000000000
     71466      7612  TIP3      OH2           -55.3251919670      -33.1476173115       41.6464209813  TIP3      7212            0.0000000000
     71467      7612  TIP3      H1            -54.8392152617      -32.4627903555       41.1241649508  TIP3      7212            0.0000000000
     71468      7612  TIP3      H2            -56.0119050360      -32.5348553937       42.0189878895  TIP3      7212            0.0000000000
     71469      7613  TIP3      OH2           -51.2204370073      -30.7676213954       40.6256440455  TIP3      7213            0.0000000000
     71470      7613  TIP3      H1            -51.7721251526      -31.1183647144       39.9004682496  TIP3      7213            0.0000000000
     71471      7613  TIP3      H2            -50.4040369195      -30.5448006257       40.1579698118  TIP3      7213            0.0000000000
     71472      7614  TIP3      OH2           -44.0054654542      -33.3777290290       40.7354083461  TIP3      7214            0.0000000000
     71473      7614  TIP3      H1            -44.9587526669      -33.2525821240       40.5785839532  TIP3      7214            0.0000000000
     71474      7614  TIP3      H2            -43.7044475463      -32.5126182299       41.0587599855  TIP3      7214            0.0000000000
     71475      7615  TIP3      OH2           -43.2770654836      -31.4803663419       42.4257351519  TIP3      7215            0.0000000000
     71476      7615  TIP3      H1            -42.3634478284      -31.6157529270       42.6648202912  TIP3      7215            0.0000000000
     71477      7615  TIP3      H2            -43.2379839426      -30.6937313207       41.8390271443  TIP3      7215            0.0000000000
     71478      7616  TIP3      OH2           -45.7509940720      -24.7368106678       41.5617128550  TIP3      7216            0.0000000000
     71479      7616  TIP3      H1            -46.0926233842      -23.9067852689       41.9210167391  TIP3      7216            0.0000000000
     71480      7616  TIP3      H2            -46.4750689446      -25.3469763875       41.7683636388  TIP3      7216            0.0000000000
     71481      7617  TIP3      OH2           -38.2642143969      -31.3040111544       41.9989260533  TIP3      7217            0.0000000000
     71482      7617  TIP3      H1            -38.9330731215      -31.6636403939       41.3774940704  TIP3      7217            0.0000000000
     71483      7617  TIP3      H2            -38.2811082654      -30.3529669738       41.7835122977  TIP3      7217            0.0000000000
     71484      7618  TIP3      OH2           -54.5760357895      -28.5050711250       40.2457853733  TIP3      7218            0.0000000000
     71485      7618  TIP3      H1            -54.0041303779      -27.8688774909       40.7143300779  TIP3      7218            0.0000000000
     71486      7618  TIP3      H2            -55.4675805322      -28.2147527525       40.5565457328  TIP3      7218            0.0000000000
     71487      7619  TIP3      OH2           -42.6826369346      -24.5094081483       40.3643284398  TIP3      7219            0.0000000000
     71488      7619  TIP3      H1            -42.3685263380      -24.8819567179       41.1931254813  TIP3      7219            0.0000000000
     71489      7619  TIP3      H2            -43.6497846845      -24.6156339602       40.4654143427  TIP3      7219            0.0000000000
     71490      7620  TIP3      OH2           -38.2283546660      -20.0642680895       40.5561066111  TIP3      7220            0.0000000000
     71491      7620  TIP3      H1            -37.4693026146      -19.4576478972       40.4702610797  TIP3      7220            0.0000000000
     71492      7620  TIP3      H2            -38.9093349737      -19.4624913919       40.9089955362  TIP3      7220            0.0000000000
     71493      7621  TIP3      OH2           -48.5862758695      -23.3877671127       38.8204180666  TIP3      7221            0.0000000000
     71494      7621  TIP3      H1            -48.4015088891      -24.1643317881       38.2770580856  TIP3      7221            0.0000000000
     71495      7621  TIP3      H2            -48.9135342046      -23.8018231297       39.6548242918  TIP3      7221            0.0000000000
     71496      7622  TIP3      OH2           -49.7047906268      -23.8665816060       41.2662030390  TIP3      7222            0.0000000000
     71497      7622  TIP3      H1            -49.5340559247      -24.3452925455       42.0873792707  TIP3      7222            0.0000000000
     71498      7622  TIP3      H2            -49.6641427731      -22.9398188976       41.5907830293  TIP3      7222            0.0000000000
     71499      7623  TIP3      OH2           -53.2940684435      -26.5953678051       41.7359415807  TIP3      7223            0.0000000000
     71500      7623  TIP3      H1            -53.9139436993      -26.2452487460       42.3660364969  TIP3      7223            0.0000000000
     71501      7623  TIP3      H2            -52.7024387243      -25.8375361069       41.5420637726  TIP3      7223            0.0000000000
     71502      7624  TIP3      OH2           -47.3177394334      -22.4590089063       41.3720533676  TIP3      7224            0.0000000000
     71503      7624  TIP3      H1            -47.7882674468      -21.7915621854       41.9373251933  TIP3      7224            0.0000000000
     71504      7624  TIP3      H2            -46.5544397108      -21.8147482316       41.3311674318  TIP3      7224            0.0000000000
     71505      7625  TIP3      OH2           -49.5866414130      -21.1283659917       42.0380729875  TIP3      7225            0.0000000000
     71506      7625  TIP3      H1            -49.4629481983      -20.3162280758       41.4853461623  TIP3      7225            0.0000000000
     71507      7625  TIP3      H2            -49.8056034171      -20.7685799882       42.9008875618  TIP3      7225            0.0000000000
     71508      7626  TIP3      OH2           -50.9913325848      -34.5359382930       41.4320346496  TIP3      7226            0.0000000000
     71509      7626  TIP3      H1            -51.0718991807      -33.6602861408       41.8503917242  TIP3      7226            0.0000000000
     71510      7626  TIP3      H2            -50.0875266685      -34.6768829840       41.8072343211  TIP3      7226            0.0000000000
     71511      7627  TIP3      OH2           -52.6447288191      -23.9785346541       40.6816139279  TIP3      7227            0.0000000000
     71512      7627  TIP3      H1            -52.0172832197      -23.2971878203       40.9610160667  TIP3      7227            0.0000000000
     71513      7627  TIP3      H2            -52.1277578361      -24.4187372917       39.9778024423  TIP3      7227            0.0000000000
     71514      7628  TIP3      OH2           -54.3058518836      -31.3066847723       39.7975150619  TIP3      7228            0.0000000000
     71515      7628  TIP3      H1            -54.3356122531      -30.3522860971       39.9998286480  TIP3      7228            0.0000000000
     71516      7628  TIP3      H2            -55.1945965194      -31.5180540700       39.5216464715  TIP3      7228            0.0000000000
     71517      7629  TIP3      OH2           -46.5561094103      -21.5199743810       38.9527774822  TIP3      7229            0.0000000000
     71518      7629  TIP3      H1            -47.2241828134      -22.1809825309       39.2626328060  TIP3      7229            0.0000000000
     71519      7629  TIP3      H2            -45.8185721990      -22.0978625955       38.7210863273  TIP3      7229            0.0000000000
     71520      7630  TIP3      OH2           -41.9830279909      -21.7432731687       39.1594363266  TIP3      7230            0.0000000000
     71521      7630  TIP3      H1            -41.6918045863      -22.5237857479       39.6524001258  TIP3      7230            0.0000000000
     71522      7630  TIP3      H2            -41.2142281667      -21.5159941206       38.6192384161  TIP3      7230            0.0000000000
     71523      7631  TIP3      OH2           -51.0681350364      -25.8304948828       39.0317216012  TIP3      7231            0.0000000000
     71524      7631  TIP3      H1            -50.9435398538      -26.6156656492       39.5875259703  TIP3      7231            0.0000000000
     71525      7631  TIP3      H2            -50.3518027127      -25.9433451830       38.3732360232  TIP3      7231            0.0000000000
     71526      7632  TIP3      OH2           -45.6442934004      -24.7526966344       38.7884000612  TIP3      7232            0.0000000000
     71527      7632  TIP3      H1            -45.9323989721      -24.6139054042       39.7030497272  TIP3      7232            0.0000000000
     71528      7632  TIP3      H2            -45.8753421850      -25.7034618454       38.6419945619  TIP3      7232            0.0000000000
     71529      7633  TIP3      OH2           -49.8737022744      -27.8454370682       41.3549280842  TIP3      7233            0.0000000000
     71530      7633  TIP3      H1            -50.3419366604      -28.3468289276       42.0361965269  TIP3      7233            0.0000000000
     71531      7633  TIP3      H2            -49.6081641696      -28.5273092730       40.7071973220  TIP3      7233            0.0000000000
     71532      7634  TIP3      OH2           -48.8101256557      -29.6134666225       39.6151818903  TIP3      7234            0.0000000000
     71533      7634  TIP3      H1            -48.9737431438      -29.7386687582       38.6605068821  TIP3      7234            0.0000000000
     71534      7634  TIP3      H2            -47.8378927092      -29.5093877657       39.6704842896  TIP3      7234            0.0000000000
     71535      7635  TIP3      OH2           -39.4369422184      -27.2531656123       39.0922183576  TIP3      7235            0.0000000000
     71536      7635  TIP3      H1            -39.6708953558      -27.6601970231       38.2365474944  TIP3      7235            0.0000000000
     71537      7635  TIP3      H2            -39.3749593680      -26.3016859958       38.8377251061  TIP3      7235            0.0000000000
     71538      7636  TIP3      OH2           -48.9321973439      -18.9066503900       40.6685400492  TIP3      7236            0.0000000000
     71539      7636  TIP3      H1            -47.9675182058      -18.7731043243       40.7509638197  TIP3      7236            0.0000000000
     71540      7636  TIP3      H2            -49.1417667606      -18.2563137524       39.9839455220  TIP3      7236            0.0000000000
     71541      7637  TIP3      OH2           -55.3488420663      -24.3023598698       40.1364566291  TIP3      7237            0.0000000000
     71542      7637  TIP3      H1            -54.4028404299      -24.2102343338       40.3730081475  TIP3      7237            0.0000000000
     71543      7637  TIP3      H2            -55.3204967976      -24.9794389652       39.4282461320  TIP3      7237            0.0000000000
     71544      7638  TIP3      OH2           -38.2315980790      -28.4812020878       41.1814776267  TIP3      7238            0.0000000000
     71545      7638  TIP3      H1            -38.7960642329      -28.0788072593       40.4879519236  TIP3      7238            0.0000000000
     71546      7638  TIP3      H2            -38.2887845748      -27.8044417433       41.9079331248  TIP3      7238            0.0000000000
     71547      7639  TIP3      OH2           -39.9334834237      -31.1846435870       39.8186824544  TIP3      7239            0.0000000000
     71548      7639  TIP3      H1            -39.8438840308      -30.5367074769       39.1078939188  TIP3      7239            0.0000000000
     71549      7639  TIP3      H2            -40.0878185207      -32.0170994160       39.3226823360  TIP3      7239            0.0000000000
     71550      7640  TIP3      OH2           -40.6835046242      -33.7683240321       38.9205717769  TIP3      7240            0.0000000000
     71551      7640  TIP3      H1            -40.0804132035      -34.1707699625       39.5676121752  TIP3      7240            0.0000000000
     71552      7640  TIP3      H2            -41.5327263133      -34.1946954959       39.1248613172  TIP3      7240            0.0000000000
     71553      7641  TIP3      OH2           -38.6047288518      -34.8951634558       40.4696004552  TIP3      7241            0.0000000000
     71554      7641  TIP3      H1            -38.1699051218      -35.6296954296       39.9858522185  TIP3      7241            0.0000000000
     71555      7641  TIP3      H2            -37.8957736125      -34.2355206473       40.5393612174  TIP3      7241            0.0000000000
     71556      7642  TIP3      OH2           -55.0240605929      -36.8618000825       41.5496378853  TIP3      7242            0.0000000000
     71557      7642  TIP3      H1            -54.5672454031      -36.2126372042       40.9938833758  TIP3      7242            0.0000000000
     71558      7642  TIP3      H2            -55.6342703766      -36.3074479795       42.0315887962  TIP3      7242            0.0000000000
     71559      7643  TIP3      OH2           -53.2028508100      -34.9293151394       40.0075050484  TIP3      7243            0.0000000000
     71560      7643  TIP3      H1            -52.6826240772      -35.5528071216       39.4716217962  TIP3      7243            0.0000000000
     71561      7643  TIP3      H2            -52.5502174694      -34.6440413761       40.6814896252  TIP3      7243            0.0000000000
     71562      7644  TIP3      OH2           -46.2796419164      -19.6673075510       40.8801914090  TIP3      7244            0.0000000000
     71563      7644  TIP3      H1            -45.3838952331      -19.3514660459       40.6787917219  TIP3      7244            0.0000000000
     71564      7644  TIP3      H2            -46.4937463901      -20.1510965084       40.0502876877  TIP3      7244            0.0000000000
     71565      7645  TIP3      OH2           -53.3368862821      -19.9605493229       39.4644114400  TIP3      7245            0.0000000000
     71566      7645  TIP3      H1            -53.5750845828      -19.7133553985       40.3791776904  TIP3      7245            0.0000000000
     71567      7645  TIP3      H2            -52.5423498125      -20.5282770700       39.6356901226  TIP3      7245            0.0000000000
     71568      7646  TIP3      OH2           -27.1832186359      -29.7698671169       40.1794427286  TIP3      7246            0.0000000000
     71569      7646  TIP3      H1            -26.4562532216      -29.7442882469       40.8530903116  TIP3      7246            0.0000000000
     71570      7646  TIP3      H2            -26.8222660066      -30.4280229183       39.5804096907  TIP3      7246            0.0000000000
     71571      7647  TIP3      OH2           -24.9733229156      -28.9662472172       41.7172012873  TIP3      7247            0.0000000000
     71572      7647  TIP3      H1            -24.4480187694      -28.7464775335       42.5355400612  TIP3      7247            0.0000000000
     71573      7647  TIP3      H2            -24.5412475702      -28.3989957647       41.0516168421  TIP3      7247            0.0000000000
     71574      7648  TIP3      OH2           -21.2246526326      -37.1304291801       41.6560445541  TIP3      7248            0.0000000000
     71575      7648  TIP3      H1            -22.1332042667      -36.9896759790       41.9077382853  TIP3      7248            0.0000000000
     71576      7648  TIP3      H2            -20.9691302456      -36.2869344108       41.2344994225  TIP3      7248            0.0000000000
     71577      7649  TIP3      OH2           -20.0532658249      -22.7685422023       39.9727593292  TIP3      7249            0.0000000000
     71578      7649  TIP3      H1            -19.9335428791      -21.8209509473       40.1805210214  TIP3      7249            0.0000000000
     71579      7649  TIP3      H2            -19.1224821442      -23.0537427927       39.9769203271  TIP3      7249            0.0000000000
     71580      7650  TIP3      OH2           -24.6323067773      -20.0051475644       40.6767412855  TIP3      7250            0.0000000000
     71581      7650  TIP3      H1            -24.2304427048      -20.7682131702       40.2005143441  TIP3      7250            0.0000000000
     71582      7650  TIP3      H2            -24.5981012506      -20.3040728963       41.5952514700  TIP3      7250            0.0000000000
     71583      7651  TIP3      OH2           -23.4446337798      -27.8514888791       39.5027226725  TIP3      7251            0.0000000000
     71584      7651  TIP3      H1            -23.4262623486      -28.0532316694       38.5280243085  TIP3      7251            0.0000000000
     71585      7651  TIP3      H2            -22.5907841975      -27.4162763091       39.6079968775  TIP3      7251            0.0000000000
     71586      7652  TIP3      OH2           -27.8589584620      -33.9641094078       40.0942038667  TIP3      7252            0.0000000000
     71587      7652  TIP3      H1            -28.1432881586      -33.9339294627       41.0315826313  TIP3      7252            0.0000000000
     71588      7652  TIP3      H2            -28.1635724898      -34.8403364986       39.8138780486  TIP3      7252            0.0000000000
     71589      7653  TIP3      OH2           -31.0028691265      -33.5185018204       39.2020982118  TIP3      7253            0.0000000000
     71590      7653  TIP3      H1            -31.4496823537      -33.9591432266       39.9604579836  TIP3      7253            0.0000000000
     71591      7653  TIP3      H2            -31.7465278159      -33.1504133479       38.7122891619  TIP3      7253            0.0000000000
     71592      7654  TIP3      OH2           -36.4995173708      -33.1114350190       41.6448028008  TIP3      7254            0.0000000000
     71593      7654  TIP3      H1            -35.9968565031      -32.4510308425       41.1194670340  TIP3      7254            0.0000000000
     71594      7654  TIP3      H2            -37.1832127131      -32.5086866699       42.0193670581  TIP3      7254            0.0000000000
     71595      7655  TIP3      OH2           -32.3650544581      -30.7701955585       40.6204512932  TIP3      7255            0.0000000000
     71596      7655  TIP3      H1            -32.9226403003      -31.1234284200       39.9049491666  TIP3      7255            0.0000000000
     71597      7655  TIP3      H2            -31.5469440246      -30.5425364528       40.1650473618  TIP3      7255            0.0000000000
     71598      7656  TIP3      OH2           -25.1733466663      -33.3846761437       40.7490522321  TIP3      7256            0.0000000000
     71599      7656  TIP3      H1            -26.1149762662      -33.2296420937       40.6082734467  TIP3      7256            0.0000000000
     71600      7656  TIP3      H2            -24.8471894874      -32.5160696999       41.0818520530  TIP3      7256            0.0000000000
     71601      7657  TIP3      OH2           -24.4271647263      -31.4799087602       42.3881757087  TIP3      7257            0.0000000000
     71602      7657  TIP3      H1            -23.5233736558      -31.6239973594       42.7065158949  TIP3      7257            0.0000000000
     71603      7657  TIP3      H2            -24.3706844505      -30.6834357024       41.8425573761  TIP3      7257            0.0000000000
     71604      7658  TIP3      OH2           -26.8924967104      -24.7408594625       41.5664378274  TIP3      7258            0.0000000000
     71605      7658  TIP3      H1            -27.2352723607      -23.9082656870       41.9211612409  TIP3      7258            0.0000000000
     71606      7658  TIP3      H2            -27.6194390878      -25.3476004884       41.7686807956  TIP3      7258            0.0000000000
     71607      7659  TIP3      OH2           -19.5108737845      -31.4207614373       41.5578250440  TIP3      7259            0.0000000000
     71608      7659  TIP3      H1            -20.3349110250      -31.6973934181       41.2187522894  TIP3      7259            0.0000000000
     71609      7659  TIP3      H2            -19.4866455377      -30.4396983572       41.7818879106  TIP3      7259            0.0000000000
     71610      7660  TIP3      OH2           -35.7780298006      -28.5032485591       40.2683762911  TIP3      7260            0.0000000000
     71611      7660  TIP3      H1            -35.1665237870      -27.8727419525       40.7081995136  TIP3      7260            0.0000000000
     71612      7660  TIP3      H2            -36.6508873998      -28.1947002780       40.5681000097  TIP3      7260            0.0000000000
     71613      7661  TIP3      OH2           -23.8271422430      -24.5081305330       40.3627484628  TIP3      7261            0.0000000000
     71614      7661  TIP3      H1            -23.5107157174      -24.8789280060       41.1902488130  TIP3      7261            0.0000000000
     71615      7661  TIP3      H2            -24.7938642990      -24.6158733005       40.4657712003  TIP3      7261            0.0000000000
     71616      7662  TIP3      OH2           -19.3723907457      -20.0642372554       40.5561592509  TIP3      7262            0.0000000000
     71617      7662  TIP3      H1            -18.6132854348      -19.4576853641       40.4702234149  TIP3      7262            0.0000000000
     71618      7662  TIP3      H2            -20.0532707046      -19.4625578011       40.9088821445  TIP3      7262            0.0000000000
     71619      7663  TIP3      OH2           -29.7301812149      -23.3879032265       38.8205361473  TIP3      7263            0.0000000000
     71620      7663  TIP3      H1            -29.5454671423      -24.1640103789       38.2769558554  TIP3      7263            0.0000000000
     71621      7663  TIP3      H2            -30.0576331590      -23.8017393071       39.6548825926  TIP3      7263            0.0000000000
     71622      7664  TIP3      OH2           -30.8485613214      -23.8665055605       41.2661595942  TIP3      7264            0.0000000000
     71623      7664  TIP3      H1            -30.6780657432      -24.3452665369       42.0874270835  TIP3      7264            0.0000000000
     71624      7664  TIP3      H2            -30.8077522713      -22.9397479112       41.5908293281  TIP3      7264            0.0000000000
     71625      7665  TIP3      OH2           -34.4513782917      -26.5948360011       41.7299574481  TIP3      7265            0.0000000000
     71626      7665  TIP3      H1            -35.0581321321      -26.2405425808       42.3697835856  TIP3      7265            0.0000000000
     71627      7665  TIP3      H2            -33.8436935189      -25.8444786291       41.5456178924  TIP3      7265            0.0000000000
     71628      7666  TIP3      OH2           -28.4615572117      -22.4592525727       41.3720780226  TIP3      7266            0.0000000000
     71629      7666  TIP3      H1            -28.9324197871      -21.7916202447       41.9369418678  TIP3      7266            0.0000000000
     71630      7666  TIP3      H2            -27.6984327761      -21.8147322044       41.3311200222  TIP3      7266            0.0000000000
     71631      7667  TIP3      OH2           -30.7304114917      -21.1284059085       42.0381518362  TIP3      7267            0.0000000000
     71632      7667  TIP3      H1            -30.6070272097      -20.3162332120       41.4852761603  TIP3      7267            0.0000000000
     71633      7667  TIP3      H2            -30.9496927798      -20.7685802602       42.9008432819  TIP3      7267            0.0000000000
     71634      7668  TIP3      OH2           -32.1385599842      -34.5358816734       41.4357555999  TIP3      7268            0.0000000000
     71635      7668  TIP3      H1            -32.2200588664      -33.6598700146       41.8534174293  TIP3      7268            0.0000000000
     71636      7668  TIP3      H2            -31.2329213867      -34.6764905527       41.8075361550  TIP3      7268            0.0000000000
     71637      7669  TIP3      OH2           -33.7947020170      -23.9711610670       40.6857667764  TIP3      7269            0.0000000000
     71638      7669  TIP3      H1            -33.1554064477      -23.3004767823       40.9628567883  TIP3      7269            0.0000000000
     71639      7669  TIP3      H2            -33.2801320756      -24.4154139339       39.9823639412  TIP3      7269            0.0000000000
     71640      7670  TIP3      OH2           -35.4566707821      -31.3079586305       39.8021641622  TIP3      7270            0.0000000000
     71641      7670  TIP3      H1            -35.4846981013      -30.3532153893       40.0009774761  TIP3      7270            0.0000000000
     71642      7670  TIP3      H2            -36.3442944592      -31.5270913162       39.5305178161  TIP3      7270            0.0000000000
     71643      7671  TIP3      OH2           -27.6999788893      -21.5201418616       38.9534429651  TIP3      7271            0.0000000000
     71644      7671  TIP3      H1            -28.3682731559      -22.1810581331       39.2625734700  TIP3      7271            0.0000000000
     71645      7671  TIP3      H2            -26.9625969896      -22.0978913453       38.7209873191  TIP3      7271            0.0000000000
     71646      7672  TIP3      OH2           -23.1270380026      -21.7431007023       39.1594428227  TIP3      7272            0.0000000000
     71647      7672  TIP3      H1            -22.8360703681      -22.5237698638       39.6521855831  TIP3      7272            0.0000000000
     71648      7672  TIP3      H2            -22.3583043122      -21.5160283902       38.6192874551  TIP3      7272            0.0000000000
     71649      7673  TIP3      OH2           -32.2127841984      -25.8289478152       39.0322479416  TIP3      7273            0.0000000000
     71650      7673  TIP3      H1            -32.0832363773      -26.6148965357       39.5834082697  TIP3      7273            0.0000000000
     71651      7673  TIP3      H2            -31.4970743154      -25.9365563688       38.3743846830  TIP3      7273            0.0000000000
     71652      7674  TIP3      OH2           -26.7882859881      -24.7534478188       38.7885488502  TIP3      7274            0.0000000000
     71653      7674  TIP3      H1            -27.0766987403      -24.6135932474       39.7030132348  TIP3      7274            0.0000000000
     71654      7674  TIP3      H2            -27.0196363158      -25.7033477065       38.6420652155  TIP3      7274            0.0000000000
     71655      7675  TIP3      OH2           -31.0184759716      -27.8432302241       41.3567216775  TIP3      7275            0.0000000000
     71656      7675  TIP3      H1            -31.4859311774      -28.3465742635       42.0369472915  TIP3      7275            0.0000000000
     71657      7675  TIP3      H2            -30.7526348234      -28.5241610092       40.7139944385  TIP3      7275            0.0000000000
     71658      7676  TIP3      OH2           -29.9510983508      -29.6309061232       39.6127434770  TIP3      7276            0.0000000000
     71659      7676  TIP3      H1            -30.1137688488      -29.7194066887       38.6654299415  TIP3      7276            0.0000000000
     71660      7676  TIP3      H2            -28.9800753640      -29.5013957603       39.6842772300  TIP3      7276            0.0000000000
     71661      7677  TIP3      OH2           -20.5860749322      -27.2557756745       39.0940666092  TIP3      7277            0.0000000000
     71662      7677  TIP3      H1            -20.8139287735      -27.6597299787       38.2361217169  TIP3      7277            0.0000000000
     71663      7677  TIP3      H2            -20.5188627971      -26.3059900219       38.8414728220  TIP3      7277            0.0000000000
     71664      7678  TIP3      OH2           -30.0763317162      -18.9064580706       40.6684256958  TIP3      7278            0.0000000000
     71665      7678  TIP3      H1            -29.1115752274      -18.7730012967       40.7508004840  TIP3      7278            0.0000000000
     71666      7678  TIP3      H2            -30.2875741957      -18.2565799388       39.9830154811  TIP3      7278            0.0000000000
     71667      7679  TIP3      OH2           -36.5229323715      -24.2845123412       40.1263334491  TIP3      7279            0.0000000000
     71668      7679  TIP3      H1            -35.5691407510      -24.2059170101       40.3698492322  TIP3      7279            0.0000000000
     71669      7679  TIP3      H2            -36.4741972667      -24.9749454630       39.4323302652  TIP3      7279            0.0000000000
     71670      7680  TIP3      OH2           -19.3795025411      -28.4738291059       41.1698366193  TIP3      7280            0.0000000000
     71671      7680  TIP3      H1            -19.9446718900      -28.0776398864       40.4868190709  TIP3      7280            0.0000000000
     71672      7680  TIP3      H2            -19.4300152976      -27.8187198860       41.9159295252  TIP3      7280            0.0000000000
     71673      7681  TIP3      OH2           -21.1621436686      -31.1662343470       39.7618187984  TIP3      7281            0.0000000000
     71674      7681  TIP3      H1            -20.9747763867      -30.5230316197       39.0888803161  TIP3      7281            0.0000000000
     71675      7681  TIP3      H2            -21.2204287668      -32.0215549825       39.3091708086  TIP3      7281            0.0000000000
     71676      7682  TIP3      OH2           -21.8182025917      -33.7874229070       38.9096091379  TIP3      7282            0.0000000000
     71677      7682  TIP3      H1            -21.2126406706      -34.1616432681       39.5732342445  TIP3      7282            0.0000000000
     71678      7682  TIP3      H2            -22.6697503018      -34.1710931097       39.1402102374  TIP3      7282            0.0000000000
     71679      7683  TIP3      OH2           -19.7572033584      -34.9042717639       40.4565490501  TIP3      7283            0.0000000000
     71680      7683  TIP3      H1            -19.3042733479      -35.6304314452       39.9851444202  TIP3      7283            0.0000000000
     71681      7683  TIP3      H2            -19.0498915217      -34.2322272730       40.5481279124  TIP3      7283            0.0000000000
     71682      7684  TIP3      OH2           -36.1618095893      -36.8577819971       41.5529873952  TIP3      7284            0.0000000000
     71683      7684  TIP3      H1            -35.7131538310      -36.2160474264       40.9865789205  TIP3      7284            0.0000000000
     71684      7684  TIP3      H2            -36.7801344329      -36.3009469349       42.0277310322  TIP3      7284            0.0000000000
     71685      7685  TIP3      OH2           -34.3325272848      -34.9235661665       40.0020980270  TIP3      7285            0.0000000000
     71686      7685  TIP3      H1            -33.8218293641      -35.5657965672       39.4821580256  TIP3      7285            0.0000000000
     71687      7685  TIP3      H2            -33.6861090421      -34.6429523037       40.6838735921  TIP3      7285            0.0000000000
     71688      7686  TIP3      OH2           -27.4235987551      -19.6673624582       40.8802888638  TIP3      7286            0.0000000000
     71689      7686  TIP3      H1            -26.5279219747      -19.3514439032       40.6787497840  TIP3      7286            0.0000000000
     71690      7686  TIP3      H2            -27.6377170415      -20.1511030697       40.0503065239  TIP3      7286            0.0000000000
     71691      7687  TIP3      OH2           -34.4675970432      -19.9659133285       39.4831072697  TIP3      7287            0.0000000000
     71692      7687  TIP3      H1            -34.7294144993      -19.6997172161       40.3785077865  TIP3      7287            0.0000000000
     71693      7687  TIP3      H2            -33.6858401808      -20.5347719549       39.6400089089  TIP3      7287            0.0000000000
     71694      7688  TIP3      OH2            -8.2611626739      -29.7116732387       40.1538164715  TIP3      7288            0.0000000000
     71695      7688  TIP3      H1             -7.6254747905      -29.7960483546       40.8950163871  TIP3      7288            0.0000000000
     71696      7688  TIP3      H2             -8.0032999227      -30.4526066738       39.5808822913  TIP3      7288            0.0000000000
     71697      7689  TIP3      OH2            -6.1115670976      -28.9853517032       41.7715271489  TIP3      7289            0.0000000000
     71698      7689  TIP3      H1             -5.5860463052      -28.7616773845       42.5916004067  TIP3      7289            0.0000000000
     71699      7689  TIP3      H2             -5.6253876728      -28.4061605102       41.1877444112  TIP3      7289            0.0000000000
     71700      7690  TIP3      OH2            -2.3575609867      -37.1321774713       41.6500029461  TIP3      7290            0.0000000000
     71701      7690  TIP3      H1             -3.2735038330      -36.9932969102       41.9139481307  TIP3      7290            0.0000000000
     71702      7690  TIP3      H2             -2.1240855279      -36.2870089747       41.2332939350  TIP3      7290            0.0000000000
     71703      7691  TIP3      OH2            -1.1976455029      -22.7675899601       39.9726122762  TIP3      7291            0.0000000000
     71704      7691  TIP3      H1             -1.0773923225      -21.8201024514       40.1804619801  TIP3      7291            0.0000000000
     71705      7691  TIP3      H2             -0.2665608814      -23.0537249911       39.9772790106  TIP3      7291            0.0000000000
     71706      7692  TIP3      OH2            -5.7771557461      -20.0047813517       40.6765532587  TIP3      7292            0.0000000000
     71707      7692  TIP3      H1             -5.3748611948      -20.7687458092       40.2030927791  TIP3      7292            0.0000000000
     71708      7692  TIP3      H2             -5.7421091366      -20.3036424407       41.5953793093  TIP3      7292            0.0000000000
     71709      7693  TIP3      OH2            -4.4580590593      -27.8390053875       39.4727413701  TIP3      7293            0.0000000000
     71710      7693  TIP3      H1             -4.5004439443      -28.0305192876       38.4850888259  TIP3      7293            0.0000000000
     71711      7693  TIP3      H2             -3.6084107287      -27.3767446483       39.5867517334  TIP3      7293            0.0000000000
     71712      7694  TIP3      OH2            -9.0158002399      -33.9544261696       40.1051428198  TIP3      7294            0.0000000000
     71713      7694  TIP3      H1             -9.2818153211      -33.9397305543       41.0359350657  TIP3      7294            0.0000000000
     71714      7694  TIP3      H2             -9.2899421943      -34.8351610110       39.8023052140  TIP3      7294            0.0000000000
     71715      7695  TIP3      OH2           -12.1485502772      -33.5317346298       39.2126681080  TIP3      7295            0.0000000000
     71716      7695  TIP3      H1            -12.6052991393      -33.9623123689       39.9610514587  TIP3      7295            0.0000000000
     71717      7695  TIP3      H2            -12.8727472988      -33.1370429618       38.7054486402  TIP3      7295            0.0000000000
     71718      7696  TIP3      OH2           -17.6344112430      -33.1174771714       41.6628928736  TIP3      7296            0.0000000000
     71719      7696  TIP3      H1            -17.1484259536      -32.4479138525       41.1296341140  TIP3      7296            0.0000000000
     71720      7696  TIP3      H2            -18.3282454002      -32.4972741055       42.0268101347  TIP3      7296            0.0000000000
     71721      7697  TIP3      OH2           -13.4939207441      -30.7889971855       40.6313567961  TIP3      7297            0.0000000000
     71722      7697  TIP3      H1            -14.0593298802      -31.1186690718       39.9054810964  TIP3      7297            0.0000000000
     71723      7697  TIP3      H2            -12.6915642700      -30.5377053808       40.1488950821  TIP3      7297            0.0000000000
     71724      7698  TIP3      OH2            -6.3023620078      -33.3698133398       40.6980889854  TIP3      7298            0.0000000000
     71725      7698  TIP3      H1             -7.2547246201      -33.2558959470       40.5964127169  TIP3      7298            0.0000000000
     71726      7698  TIP3      H2             -5.9882196413      -32.5286633768       41.0801193009  TIP3      7298            0.0000000000
     71727      7699  TIP3      OH2            -5.5677234749      -31.4764101081       42.3775251581  TIP3      7299            0.0000000000
     71728      7699  TIP3      H1             -4.6684145310      -31.6316207844       42.7100143571  TIP3      7299            0.0000000000
     71729      7699  TIP3      H2             -5.5036572570      -30.6856109641       41.8476580298  TIP3      7299            0.0000000000
     71730      7700  TIP3      OH2            -8.0355362902      -24.7478680459       41.5602210524  TIP3      7300            0.0000000000
     71731      7700  TIP3      H1             -8.3853177328      -23.9101996605       41.9172500895  TIP3      7300            0.0000000000
     71732      7700  TIP3      H2             -8.7702516199      -25.3405114840       41.7727580167  TIP3      7300            0.0000000000
     71733      7701  TIP3      OH2            -0.7677354825      -31.6762879324       41.9362318146  TIP3      7301            0.0000000000
     71734      7701  TIP3      H1             -1.3669972882      -31.7449908902       41.2403989819  TIP3      7301            0.0000000000
     71735      7701  TIP3      H2             -0.6401778676      -30.6517377591       41.8310768886  TIP3      7301            0.0000000000
     71736      7702  TIP3      OH2           -16.9228025126      -28.4975097956       40.2584379357  TIP3      7302            0.0000000000
     71737      7702  TIP3      H1            -16.3100757676      -27.8800767508       40.7117598731  TIP3      7302            0.0000000000
     71738      7702  TIP3      H2            -17.7962196473      -28.2020180521       40.5731063268  TIP3      7302            0.0000000000
     71739      7703  TIP3      OH2            -4.9835998055      -24.5329313367       40.3548900744  TIP3      7303            0.0000000000
     71740      7703  TIP3      H1             -4.6495319499      -24.8611533280       41.1965007819  TIP3      7303            0.0000000000
     71741      7703  TIP3      H2             -5.9494024084      -24.5985056899       40.4699822705  TIP3      7303            0.0000000000
     71742      7704  TIP3      OH2            -0.5166642889      -20.0643312170       40.5562240547  TIP3      7304            0.0000000000
     71743      7704  TIP3      H1              0.2425219004      -19.4576159398       40.4700876016  TIP3      7304            0.0000000000
     71744      7704  TIP3      H2             -1.1968108522      -19.4614712858       40.9091651843  TIP3      7304            0.0000000000
     71745      7705  TIP3      OH2           -10.8599224404      -23.3818943001       38.8266842928  TIP3      7305            0.0000000000
     71746      7705  TIP3      H1            -10.7009779338      -24.1669658321       38.2749659858  TIP3      7305            0.0000000000
     71747      7705  TIP3      H2            -11.2086243046      -23.8084655885       39.6471950595  TIP3      7305            0.0000000000
     71748      7706  TIP3      OH2           -11.9868198962      -23.8568464310       41.2769129034  TIP3      7306            0.0000000000
     71749      7706  TIP3      H1            -11.8222556414      -24.3465859750       42.0899381305  TIP3      7306            0.0000000000
     71750      7706  TIP3      H2            -11.9510821193      -22.9336850231       41.5961617780  TIP3      7306            0.0000000000
     71751      7707  TIP3      OH2           -15.5933328627      -26.5888075016       41.7348333407  TIP3      7307            0.0000000000
     71752      7707  TIP3      H1            -16.2070959931      -26.2470528857       42.3754316493  TIP3      7307            0.0000000000
     71753      7707  TIP3      H2            -14.9837974222      -25.8462769183       41.5392718482  TIP3      7307            0.0000000000
     71754      7708  TIP3      OH2            -9.6038222595      -22.4601898254       41.3723354357  TIP3      7308            0.0000000000
     71755      7708  TIP3      H1            -10.0791811203      -21.7943042460       41.9352642865  TIP3      7308            0.0000000000
     71756      7708  TIP3      H2             -8.8423285216      -21.8142239734       41.3313795687  TIP3      7308            0.0000000000
     71757      7709  TIP3      OH2           -11.8740664059      -21.1275346270       42.0384080145  TIP3      7309            0.0000000000
     71758      7709  TIP3      H1            -11.7509656308      -20.3158280945       41.4852076087  TIP3      7309            0.0000000000
     71759      7709  TIP3      H2            -12.0937304282      -20.7683550240       42.9010466802  TIP3      7309            0.0000000000
     71760      7710  TIP3      OH2           -13.2854496804      -34.5407934754       41.4466144528  TIP3      7310            0.0000000000
     71761      7710  TIP3      H1            -13.3591615727      -33.6542207134       41.8457433283  TIP3      7310            0.0000000000
     71762      7710  TIP3      H2            -12.3695776930      -34.6742228566       41.8000796767  TIP3      7310            0.0000000000
     71763      7711  TIP3      OH2           -14.9444786072      -23.9642252478       40.6895679481  TIP3      7311            0.0000000000
     71764      7711  TIP3      H1            -14.2945787241      -23.3037844274       40.9582474581  TIP3      7311            0.0000000000
     71765      7711  TIP3      H2            -14.4233339561      -24.4211169945       39.9846758614  TIP3      7311            0.0000000000
     71766      7712  TIP3      OH2           -16.5913782504      -31.3058221692       39.7786962181  TIP3      7312            0.0000000000
     71767      7712  TIP3      H1            -16.6283149947      -30.3527421450       40.0000704655  TIP3      7312            0.0000000000
     71768      7712  TIP3      H2            -17.4928037621      -31.5254086055       39.5470152900  TIP3      7312            0.0000000000
     71769      7713  TIP3      OH2            -8.8447322580      -21.5192851073       38.9539744125  TIP3      7313            0.0000000000
     71770      7713  TIP3      H1             -9.5127063631      -22.1813429810       39.2623911097  TIP3      7313            0.0000000000
     71771      7713  TIP3      H2             -8.1086137952      -22.0994880230       38.7218104512  TIP3      7313            0.0000000000
     71772      7714  TIP3      OH2            -4.2707937427      -21.7423014069       39.1720326653  TIP3      7314            0.0000000000
     71773      7714  TIP3      H1             -3.9777640030      -22.5281193531       39.6529400819  TIP3      7314            0.0000000000
     71774      7714  TIP3      H2             -3.5082198123      -21.5158827633       38.6129857420  TIP3      7314            0.0000000000
     71775      7715  TIP3      OH2           -13.2394337594      -25.7160274313       39.2523486084  TIP3      7315            0.0000000000
     71776      7715  TIP3      H1            -13.2455621490      -26.6228118997       39.5810109434  TIP3      7315            0.0000000000
     71777      7715  TIP3      H2            -12.7245426947      -25.9230854602       38.4114230089  TIP3      7315            0.0000000000
     71778      7716  TIP3      OH2            -7.9174517824      -24.7684190197       38.7926653114  TIP3      7316            0.0000000000
     71779      7716  TIP3      H1             -8.2327243781      -24.5989848342       39.6968218881  TIP3      7316            0.0000000000
     71780      7716  TIP3      H2             -8.1923402958      -25.6976130272       38.6320514463  TIP3      7316            0.0000000000
     71781      7717  TIP3      OH2           -12.1525127626      -27.8481036527       41.3609964784  TIP3      7317            0.0000000000
     71782      7717  TIP3      H1            -12.6345021896      -28.3461139197       42.0310416053  TIP3      7317            0.0000000000
     71783      7717  TIP3      H2            -11.9122266097      -28.5274139279       40.7045213484  TIP3      7317            0.0000000000
     71784      7718  TIP3      OH2           -11.0852050176      -29.6304866953       39.6236988096  TIP3      7318            0.0000000000
     71785      7718  TIP3      H1            -11.2662673415      -29.7327502128       38.6612083733  TIP3      7318            0.0000000000
     71786      7718  TIP3      H2            -10.1298673163      -29.5044579854       39.6615555016  TIP3      7318            0.0000000000
     71787      7719  TIP3      OH2            -1.8643822719      -27.2086326477       38.9924645318  TIP3      7319            0.0000000000
     71788      7719  TIP3      H1             -1.9524702197      -27.6660665952       38.1646603022  TIP3      7319            0.0000000000
     71789      7719  TIP3      H2             -1.6472409927      -26.2715686880       38.8056131074  TIP3      7319            0.0000000000
     71790      7720  TIP3      OH2           -11.2203962750      -18.9063704853       40.6684097688  TIP3      7320            0.0000000000
     71791      7720  TIP3      H1            -10.2555674053      -18.7730552149       40.7507779666  TIP3      7320            0.0000000000
     71792      7720  TIP3      H2            -11.4315400272      -18.2565600712       39.9829689528  TIP3      7320            0.0000000000
     71793      7721  TIP3      OH2           -17.6648287084      -24.2847258851       40.1272288654  TIP3      7321            0.0000000000
     71794      7721  TIP3      H1            -16.7094830606      -24.2088635804       40.3650236034  TIP3      7321            0.0000000000
     71795      7721  TIP3      H2            -17.6160422526      -24.9758693353       39.4307719529  TIP3      7321            0.0000000000
     71796      7722  TIP3      OH2            -0.5897914479      -27.9696110064       40.8398109770  TIP3      7322            0.0000000000
     71797      7722  TIP3      H1             -1.3941144329      -27.9530349484       40.3513363147  TIP3      7322            0.0000000000
     71798      7722  TIP3      H2             -0.6499252607      -27.7854093208       41.8285254236  TIP3      7322            0.0000000000
     71799      7723  TIP3      OH2            -2.2624348479      -31.1707624356       39.8028700474  TIP3      7323            0.0000000000
     71800      7723  TIP3      H1             -2.1114727284      -30.5333959886       39.1036524322  TIP3      7323            0.0000000000
     71801      7723  TIP3      H2             -2.3629471072      -32.0201890950       39.3216939117  TIP3      7323            0.0000000000
     71802      7724  TIP3      OH2            -2.9703837780      -33.7689671203       38.9194151962  TIP3      7324            0.0000000000
     71803      7724  TIP3      H1             -2.3686705778      -34.1705890569       39.5686589507  TIP3      7324            0.0000000000
     71804      7724  TIP3      H2             -3.8203948766      -34.1941777849       39.1254446631  TIP3      7324            0.0000000000
     71805      7725  TIP3      OH2            -0.8942277072      -34.9059464695       40.4677658296  TIP3      7325            0.0000000000
     71806      7725  TIP3      H1             -0.4550570617      -35.6336219331       39.9832152945  TIP3      7325            0.0000000000
     71807      7725  TIP3      H2             -0.1883649839      -34.2365380458       40.5447954061  TIP3      7325            0.0000000000
     71808      7726  TIP3      OH2           -17.2919122952      -36.8495648595       41.5766472495  TIP3      7326            0.0000000000
     71809      7726  TIP3      H1            -16.8637386642      -36.2203894885       40.9773146021  TIP3      7326            0.0000000000
     71810      7726  TIP3      H2            -17.9338634170      -36.2919844249       42.0174109414  TIP3      7326            0.0000000000
     71811      7727  TIP3      OH2           -15.4789984980      -34.9274869297       39.9937287113  TIP3      7327            0.0000000000
     71812      7727  TIP3      H1            -14.9601430891      -35.5649986914       39.4912324214  TIP3      7327            0.0000000000
     71813      7727  TIP3      H2            -14.8315138889      -34.6386713569       40.6723720338  TIP3      7327            0.0000000000
     71814      7728  TIP3      OH2            -8.5676189776      -19.6673035930       40.8803773768  TIP3      7328            0.0000000000
     71815      7728  TIP3      H1             -7.6718859206      -19.3513888362       40.6787186668  TIP3      7328            0.0000000000
     71816      7728  TIP3      H2             -8.7817090459      -20.1510841595       40.0502872504  TIP3      7328            0.0000000000
     71817      7729  TIP3      OH2           -15.6113354697      -19.9659144729       39.4832401269  TIP3      7329            0.0000000000
     71818      7729  TIP3      H1            -15.8734561149      -19.6997690743       40.3785002238  TIP3      7329            0.0000000000
     71819      7729  TIP3      H2            -14.8296569689      -20.5348804058       39.6402730660  TIP3      7329            0.0000000000
     71820      7730  TIP3      OH2            10.5345431645      -29.7659280559       40.1865993497  TIP3      7330            0.0000000000
     71821      7730  TIP3      H1             11.2578809260      -29.7464419241       40.8537397012  TIP3      7330            0.0000000000
     71822      7730  TIP3      H2             10.8785587427      -30.4262233646       39.5756084242  TIP3      7330            0.0000000000
     71823      7731  TIP3      OH2            12.7485155164      -28.9702352695       41.7171322326  TIP3      7331            0.0000000000
     71824      7731  TIP3      H1             13.2651291669      -28.7456673573       42.5370797110  TIP3      7331            0.0000000000
     71825      7731  TIP3      H2             13.1713574099      -28.3981834587       41.0517442025  TIP3      7331            0.0000000000
     71826      7732  TIP3      OH2            16.4862229324      -37.1238446272       41.6171111094  TIP3      7332            0.0000000000
     71827      7732  TIP3      H1             15.5827947419      -36.9979730149       41.9335636196  TIP3      7332            0.0000000000
     71828      7732  TIP3      H2             16.7457376999      -36.2702648004       41.2553530874  TIP3      7332            0.0000000000
     71829      7733  TIP3      OH2            17.6587793914      -22.7684939045       39.9731157223  TIP3      7333            0.0000000000
     71830      7733  TIP3      H1             17.7782190385      -21.8206543096       40.1801427489  TIP3      7333            0.0000000000
     71831      7733  TIP3      H2             18.5892409734      -23.0531734327       39.9773316485  TIP3      7333            0.0000000000
     71832      7734  TIP3      OH2            13.0765978606      -20.0056158743       40.6780447595  TIP3      7334            0.0000000000
     71833      7734  TIP3      H1             13.4808778875      -20.7679313878       40.2015166931  TIP3      7334            0.0000000000
     71834      7734  TIP3      H2             13.1046921034      -20.3067980914       41.5976931387  TIP3      7334            0.0000000000
     71835      7735  TIP3      OH2            14.2676441614      -27.8527253015       39.5020510114  TIP3      7335            0.0000000000
     71836      7735  TIP3      H1             14.2768796724      -28.0496393424       38.5253527089  TIP3      7335            0.0000000000
     71837      7735  TIP3      H2             15.1206052648      -27.4157206568       39.6074428562  TIP3      7335            0.0000000000
     71838      7736  TIP3      OH2             9.8516440298      -33.9599781668       40.1032337371  TIP3      7336            0.0000000000
     71839      7736  TIP3      H1              9.5724284480      -33.9427727560       41.0307149300  TIP3      7336            0.0000000000
     71840      7736  TIP3      H2              9.5567369576      -34.8342631899       39.8028021169  TIP3      7336            0.0000000000
     71841      7737  TIP3      OH2             6.7092827045      -33.5309331428       39.2105208009  TIP3      7337            0.0000000000
     71842      7737  TIP3      H1              6.2544061672      -33.9584975822       39.9619484606  TIP3      7337            0.0000000000
     71843      7737  TIP3      H2              5.9850534954      -33.1402202490       38.7006420017  TIP3      7337            0.0000000000
     71844      7738  TIP3      OH2             1.2342597724      -33.1248076865       41.6421127902  TIP3      7338            0.0000000000
     71845      7738  TIP3      H1              1.7119444291      -32.4414966464       41.1266849569  TIP3      7338            0.0000000000
     71846      7738  TIP3      H2              0.5365553456      -32.5160803772       42.0168411123  TIP3      7338            0.0000000000
     71847      7739  TIP3      OH2             5.3574539881      -30.7759328173       40.6226670866  TIP3      7339            0.0000000000
     71848      7739  TIP3      H1              4.7909512910      -31.1185740368       39.9043031129  TIP3      7339            0.0000000000
     71849      7739  TIP3      H2              6.1690444170      -30.5461294772       40.1521679456  TIP3      7339            0.0000000000
     71850      7740  TIP3      OH2            12.5689804399      -33.3822743415       40.6960782803  TIP3      7340            0.0000000000
     71851      7740  TIP3      H1             11.6082824382      -33.2469802348       40.5996703712  TIP3      7340            0.0000000000
     71852      7740  TIP3      H2             12.8620288443      -32.5236700569       41.0775123124  TIP3      7340            0.0000000000
     71853      7741  TIP3      OH2            13.2784547107      -31.4827859300       42.3847266636  TIP3      7341            0.0000000000
     71854      7741  TIP3      H1             14.1786062470      -31.6278235498       42.7051031056  TIP3      7341            0.0000000000
     71855      7741  TIP3      H2             13.3401678454      -30.6844789280       41.8422439944  TIP3      7341            0.0000000000
     71856      7742  TIP3      OH2            10.8246178433      -24.7458587673       41.5617515259  TIP3      7342            0.0000000000
     71857      7742  TIP3      H1             10.4765389059      -23.9100137473       41.9174463583  TIP3      7342            0.0000000000
     71858      7742  TIP3      H2             10.0888127597      -25.3397273654       41.7725976495  TIP3      7342            0.0000000000
     71859      7743  TIP3      OH2            18.3232660693      -31.3035161022       41.9844597892  TIP3      7343            0.0000000000
     71860      7743  TIP3      H1             17.6309390137      -31.6589216291       41.3908873042  TIP3      7343            0.0000000000
     71861      7743  TIP3      H2             18.2787941844      -30.3561270165       41.7824878638  TIP3      7343            0.0000000000
     71862      7744  TIP3      OH2             1.9608254714      -28.4375926165       40.1625291215  TIP3      7344            0.0000000000
     71863      7744  TIP3      H1              2.5403254473      -27.8831040479       40.7229513036  TIP3      7344            0.0000000000
     71864      7744  TIP3      H2              1.0770895645      -28.2209633660       40.5718479402  TIP3      7344            0.0000000000
     71865      7745  TIP3      OH2            13.8852330437      -24.5089885405       40.3627509662  TIP3      7345            0.0000000000
     71866      7745  TIP3      H1             14.2011404167      -24.8785607776       41.1907302464  TIP3      7345            0.0000000000
     71867      7745  TIP3      H2             12.9174789391      -24.6159516834       40.4649963016  TIP3      7345            0.0000000000
     71868      7746  TIP3      OH2            18.3410196360      -20.0654723740       40.5577819228  TIP3      7346            0.0000000000
     71869      7746  TIP3      H1             19.0984804615      -19.4563259908       40.4689794362  TIP3      7346            0.0000000000
     71870      7746  TIP3      H2             17.6589757186      -19.4628280399       40.9087676006  TIP3      7346            0.0000000000
     71871      7747  TIP3      OH2             7.9789630967      -23.3912923493       38.8106978900  TIP3      7347            0.0000000000
     71872      7747  TIP3      H1              8.1670994543      -24.1687572142       38.2777230984  TIP3      7347            0.0000000000
     71873      7747  TIP3      H2              7.6566996151      -23.7934031554       39.6583420122  TIP3      7347            0.0000000000
     71874      7748  TIP3      OH2             6.8592754992      -23.8720555902       41.2571518681  TIP3      7348            0.0000000000
     71875      7748  TIP3      H1              7.0390568859      -24.3283437333       42.0922019689  TIP3      7348            0.0000000000
     71876      7748  TIP3      H2              6.9091919866      -22.9430536862       41.6008032065  TIP3      7348            0.0000000000
     71877      7749  TIP3      OH2             3.2685113873      -26.5895872242       41.7286606587  TIP3      7349            0.0000000000
     71878      7749  TIP3      H1              2.6471627581      -26.2538785671       42.3666184452  TIP3      7349            0.0000000000
     71879      7749  TIP3      H2              3.8686680150      -25.8396089374       41.5458242206  TIP3      7349            0.0000000000
     71880      7750  TIP3      OH2             9.2870987111      -22.4461081625       41.3310889598  TIP3      7350            0.0000000000
     71881      7750  TIP3      H1              8.7872679902      -21.8272249975       41.9579628144  TIP3      7350            0.0000000000
     71882      7750  TIP3      H2             10.0267040581      -21.7915831656       41.3426730108  TIP3      7350            0.0000000000
     71883      7751  TIP3      OH2             6.6560864224      -20.9914516401       41.7785016385  TIP3      7351            0.0000000000
     71884      7751  TIP3      H1              7.1446079723      -20.2298554510       41.4426314065  TIP3      7351            0.0000000000
     71885      7751  TIP3      H2              6.7901458202      -20.8461023104       42.7742031834  TIP3      7351            0.0000000000
     71886      7752  TIP3      OH2             5.5721577538      -34.5363283362       41.4381912166  TIP3      7352            0.0000000000
     71887      7752  TIP3      H1              5.4917532901      -33.6595472182       41.8534004508  TIP3      7352            0.0000000000
     71888      7752  TIP3      H2              6.4788640438      -34.6767704716       41.8072356030  TIP3      7352            0.0000000000
     71889      7753  TIP3      OH2             3.9105133015      -23.9727344737       40.6803923957  TIP3      7353            0.0000000000
     71890      7753  TIP3      H1              4.5583606603      -23.3007579943       40.9668246198  TIP3      7353            0.0000000000
     71891      7753  TIP3      H2              4.4358759426      -24.4133194706       39.9835645546  TIP3      7353            0.0000000000
     71892      7754  TIP3      OH2             2.2645045826      -31.3098802182       39.7807760837  TIP3      7354            0.0000000000
     71893      7754  TIP3      H1              2.2192367554      -30.3585103045       40.0182003048  TIP3      7354            0.0000000000
     71894      7754  TIP3      H2              1.3651561486      -31.5211894643       39.5448185937  TIP3      7354            0.0000000000
     71895      7755  TIP3      OH2            10.0138890210      -21.5183896646       38.9397010776  TIP3      7355            0.0000000000
     71896      7755  TIP3      H1              9.3453920711      -22.1743426240       39.2736295845  TIP3      7355            0.0000000000
     71897      7755  TIP3      H2             10.7493971785      -22.1009154865       38.7281053927  TIP3      7355            0.0000000000
     71898      7756  TIP3      OH2            14.5857049760      -21.7430251527       39.1588042286  TIP3      7356            0.0000000000
     71899      7756  TIP3      H1             14.8757701498      -22.5236234191       39.6522588859  TIP3      7356            0.0000000000
     71900      7756  TIP3      H2             15.3550772265      -21.5160071776       38.6180227347  TIP3      7356            0.0000000000
     71901      7757  TIP3      OH2             5.5010261829      -25.8298140994       39.0317582091  TIP3      7357            0.0000000000
     71902      7757  TIP3      H1              5.6284519946      -26.6150397719       39.5836336993  TIP3      7357            0.0000000000
     71903      7757  TIP3      H2              6.2160748142      -25.9426969583       38.3724535805  TIP3      7357            0.0000000000
     71904      7758  TIP3      OH2            10.9227137447      -24.7521332481       38.7913560238  TIP3      7358            0.0000000000
     71905      7758  TIP3      H1             10.6316860783      -24.6098715362       39.7069616786  TIP3      7358            0.0000000000
     71906      7758  TIP3      H2             10.6922230925      -25.7031140824       38.6421518087  TIP3      7358            0.0000000000
     71907      7759  TIP3      OH2             6.6875847816      -27.8504458050       41.3571102135  TIP3      7359            0.0000000000
     71908      7759  TIP3      H1              6.2167373075      -28.3491504798       42.0372167082  TIP3      7359            0.0000000000
     71909      7759  TIP3      H2              6.9615813490      -28.5275810386       40.7067058220  TIP3      7359            0.0000000000
     71910      7760  TIP3      OH2             7.7580630085      -29.6132959076       39.6152831383  TIP3      7360            0.0000000000
     71911      7760  TIP3      H1              7.5942046845      -29.7383689017       38.6606021106  TIP3      7360            0.0000000000
     71912      7760  TIP3      H2              8.7302243407      -29.5093732728       39.6705643143  TIP3      7360            0.0000000000
     71913      7761  TIP3      OH2            17.1311326240      -27.2534721739       39.0923850263  TIP3      7361            0.0000000000
     71914      7761  TIP3      H1             16.8971931637      -27.6601834112       38.2365318109  TIP3      7361            0.0000000000
     71915      7761  TIP3      H2             17.1930489436      -26.3018244464       38.8378677805  TIP3      7361            0.0000000000
     71916      7762  TIP3      OH2             7.6456890222      -18.8823653956       40.6589266681  TIP3      7362            0.0000000000
     71917      7762  TIP3      H1              8.6066352214      -18.7758135360       40.7553686688  TIP3      7362            0.0000000000
     71918      7762  TIP3      H2              7.4262927532      -18.2484192550       39.9760886032  TIP3      7362            0.0000000000
     71919      7763  TIP3      OH2             1.1913012410      -24.2686297865       40.1147381984  TIP3      7363            0.0000000000
     71920      7763  TIP3      H1              2.1422413830      -24.2119982533       40.3702919127  TIP3      7363            0.0000000000
     71921      7763  TIP3      H2              1.2342568040      -24.9812134301       39.4399182931  TIP3      7363            0.0000000000
     71922      7764  TIP3      OH2            18.3302772229      -28.4874225805       41.1826770258  TIP3      7364            0.0000000000
     71923      7764  TIP3      H1             17.7717876421      -28.0850595315       40.4822140801  TIP3      7364            0.0000000000
     71924      7764  TIP3      H2             18.2712874133      -27.8063220968       41.8963610212  TIP3      7364            0.0000000000
     71925      7765  TIP3      OH2            16.6356875991      -31.1879043575       39.8152685137  TIP3      7365            0.0000000000
     71926      7765  TIP3      H1             16.7265884097      -30.5303860556       39.1113978974  TIP3      7365            0.0000000000
     71927      7765  TIP3      H2             16.4847275497      -32.0101834274       39.3174181413  TIP3      7365            0.0000000000
     71928      7766  TIP3      OH2            15.8884963771      -33.8236161806       38.8964077024  TIP3      7366            0.0000000000
     71929      7766  TIP3      H1             16.5036186132      -34.1353643694       39.5906740313  TIP3      7366            0.0000000000
     71930      7766  TIP3      H2             15.0113975527      -34.1248529668       39.1680243980  TIP3      7366            0.0000000000
     71931      7767  TIP3      OH2            17.9491917083      -34.8943044545       40.4463308948  TIP3      7367            0.0000000000
     71932      7767  TIP3      H1             18.4161702531      -35.6294449783       39.9957201254  TIP3      7367            0.0000000000
     71933      7767  TIP3      H2             18.6701795405      -34.2378406649       40.5475627820  TIP3      7367            0.0000000000
     71934      7768  TIP3      OH2             1.5507092023      -36.8585192110       41.5534658746  TIP3      7368            0.0000000000
     71935      7768  TIP3      H1              1.9982445026      -36.2158642019       40.9866906575  TIP3      7368            0.0000000000
     71936      7768  TIP3      H2              0.9320749118      -36.3030679949       42.0275143034  TIP3      7368            0.0000000000
     71937      7769  TIP3      OH2             3.3780082346      -34.9246432757       40.0030074179  TIP3      7369            0.0000000000
     71938      7769  TIP3      H1              3.8903627316      -35.5659038492       39.4825883978  TIP3      7369            0.0000000000
     71939      7769  TIP3      H2              4.0253444409      -34.6433344947       40.6840764138  TIP3      7369            0.0000000000
     71940      7770  TIP3      OH2            10.2874829457      -19.6469093716       40.8614318678  TIP3      7370            0.0000000000
     71941      7770  TIP3      H1             11.1888336894      -19.3527081308       40.6759323207  TIP3      7370            0.0000000000
     71942      7770  TIP3      H2             10.0717309066      -20.1535277449       40.0479972935  TIP3      7370            0.0000000000
     71943      7771  TIP3      OH2             3.2460680499      -19.9677595963       39.4837761565  TIP3      7371            0.0000000000
     71944      7771  TIP3      H1              2.9834932256      -19.6999909866       40.3784928312  TIP3      7371            0.0000000000
     71945      7771  TIP3      H2              4.0313824789      -20.5349056576       39.6470472863  TIP3      7371            0.0000000000
     71946      7772  TIP3      OH2            29.3766949874      -29.7532849957       40.1944408093  TIP3      7372            0.0000000000
     71947      7772  TIP3      H1             30.1219558343      -29.7506263506       40.8516896414  TIP3      7372            0.0000000000
     71948      7772  TIP3      H2             29.7338821120      -30.4217689015       39.5834768493  TIP3      7372            0.0000000000
     71949      7773  TIP3      OH2            31.5874944230      -28.9575432414       41.7194782661  TIP3      7373            0.0000000000
     71950      7773  TIP3      H1             32.1260447900      -28.7496772519       42.5348343996  TIP3      7373            0.0000000000
     71951      7773  TIP3      H2             32.0364752604      -28.4024576748       41.0520430766  TIP3      7373            0.0000000000
     71952      7774  TIP3      OH2            35.3586234333      -37.1218900389       41.6543463927  TIP3      7374            0.0000000000
     71953      7774  TIP3      H1             34.4372259963      -36.9974095361       41.9125290443  TIP3      7374            0.0000000000
     71954      7774  TIP3      H2             35.5882297964      -36.2806518342       41.2321124195  TIP3      7374            0.0000000000
     71955      7775  TIP3      OH2            36.5145951830      -22.7687879273       39.9731994387  TIP3      7375            0.0000000000
     71956      7775  TIP3      H1             36.6342310740      -21.8210153996       40.1803252538  TIP3      7375            0.0000000000
     71957      7775  TIP3      H2             37.4454995876      -23.0533877961       39.9772759342  TIP3      7375            0.0000000000
     71958      7776  TIP3      OH2            31.9374986701      -20.0042131813       40.6781235487  TIP3      7376            0.0000000000
     71959      7776  TIP3      H1             32.3375000349      -20.7677817740       40.2008869439  TIP3      7376            0.0000000000
     71960      7776  TIP3      H2             31.9698266507      -20.3043588508       41.5960722820  TIP3      7376            0.0000000000
     71961      7777  TIP3      OH2            33.1214562205      -27.8589360125       39.4994167470  TIP3      7377            0.0000000000
     71962      7777  TIP3      H1             33.1379563084      -28.0398553550       38.5269934508  TIP3      7377            0.0000000000
     71963      7777  TIP3      H2             33.9734034207      -27.4171805687       39.6083980077  TIP3      7377            0.0000000000
     71964      7778  TIP3      OH2            28.7002804430      -33.9507410028       40.0950824351  TIP3      7378            0.0000000000
     71965      7778  TIP3      H1             28.4300030928      -33.9416298361       41.0263684108  TIP3      7378            0.0000000000
     71966      7778  TIP3      H2             28.4238704599      -34.8343687772       39.8005596316  TIP3      7378            0.0000000000
     71967      7779  TIP3      OH2            25.5651861714      -33.5301725629       39.2103907495  TIP3      7379            0.0000000000
     71968      7779  TIP3      H1             25.1107555478      -33.9585559859       39.9617411777  TIP3      7379            0.0000000000
     71969      7779  TIP3      H2             24.8406447867      -33.1404421550       38.7005132289  TIP3      7379            0.0000000000
     71970      7780  TIP3      OH2            20.0703245436      -33.1128758523       41.6456502782  TIP3      7380            0.0000000000
     71971      7780  TIP3      H1             20.5708724661      -32.4511943934       41.1193159644  TIP3      7380            0.0000000000
     71972      7780  TIP3      H2             19.3843100696      -32.5090714173       42.0190575600  TIP3      7380            0.0000000000
     71973      7781  TIP3      OH2            24.2094734478      -30.7593209746       40.6278047127  TIP3      7381            0.0000000000
     71974      7781  TIP3      H1             23.6502003955      -31.1244552831       39.9068783253  TIP3      7381            0.0000000000
     71975      7781  TIP3      H2             25.0147517139      -30.5581877000       40.1437282143  TIP3      7381            0.0000000000
     71976      7782  TIP3      OH2            31.4191076941      -33.3684912176       40.6850393031  TIP3      7382            0.0000000000
     71977      7782  TIP3      H1             30.4610996350      -33.2513664476       40.6033250176  TIP3      7382            0.0000000000
     71978      7782  TIP3      H2             31.7232917236      -32.5259696352       41.0825359489  TIP3      7382            0.0000000000
     71979      7783  TIP3      OH2            32.1344525689      -31.4803378912       42.3849199326  TIP3      7383            0.0000000000
     71980      7783  TIP3      H1             33.0352855002      -31.6286523682       42.7060077231  TIP3      7383            0.0000000000
     71981      7783  TIP3      H2             32.2052230283      -30.6869500288       41.8422943779  TIP3      7383            0.0000000000
     71982      7784  TIP3      OH2            29.6678213537      -24.7469288217       41.5625091307  TIP3      7384            0.0000000000
     71983      7784  TIP3      H1             29.3408928370      -23.9041266618       41.9190643949  TIP3      7384            0.0000000000
     71984      7784  TIP3      H2             28.9468827962      -25.3342418360       41.7766553195  TIP3      7384            0.0000000000
     71985      7785  TIP3      OH2            37.1784374163      -31.3028172523       41.9829900213  TIP3      7385            0.0000000000
     71986      7785  TIP3      H1             36.4851365571      -31.6634748709       41.3878011276  TIP3      7385            0.0000000000
     71987      7785  TIP3      H2             37.1357965712      -30.3523642898       41.7878665584  TIP3      7385            0.0000000000
     71988      7786  TIP3      OH2            20.7871688268      -28.5041245714       40.2758423261  TIP3      7386            0.0000000000
     71989      7786  TIP3      H1             21.4001298595      -27.8715960616       40.7010839189  TIP3      7386            0.0000000000
     71990      7786  TIP3      H2             19.9143494546      -28.1954761890       40.5629437759  TIP3      7386            0.0000000000
     71991      7787  TIP3      OH2            32.7446045890      -24.5079618047       40.3621141676  TIP3      7387            0.0000000000
     71992      7787  TIP3      H1             33.0572804309      -24.8790244234       41.1906271592  TIP3      7387            0.0000000000
     71993      7787  TIP3      H2             31.7797830577      -24.6099904655       40.4649617883  TIP3      7387            0.0000000000
     71994      7788  TIP3      OH2            37.1958221419      -20.0641017081       40.5565429389  TIP3      7388            0.0000000000
     71995      7788  TIP3      H1             37.9546207562      -19.4579294529       40.4699786437  TIP3      7388            0.0000000000
     71996      7788  TIP3      H2             36.5144748207      -19.4625264046       40.9088938904  TIP3      7388            0.0000000000
     71997      7789  TIP3      OH2            26.8472000497      -23.3945612991       38.8302168830  TIP3      7389            0.0000000000
     71998      7789  TIP3      H1             27.0209489178      -24.1599584534       38.2696795600  TIP3      7389            0.0000000000
     71999      7789  TIP3      H2             26.5051444658      -23.7973871357       39.6563544020  TIP3      7389            0.0000000000
     72000      7790  TIP3      OH2            25.7285348480      -23.8738081124       41.2689590344  TIP3      7390            0.0000000000
     72001      7790  TIP3      H1             25.8836297165      -24.3323795659       42.0985312605  TIP3      7390            0.0000000000
     72002      7790  TIP3      H2             25.7566457403      -22.9392126727       41.5853557931  TIP3      7390            0.0000000000
     72003      7791  TIP3      OH2            22.1282171286      -26.5983858056       41.7466827081  TIP3      7391            0.0000000000
     72004      7791  TIP3      H1             21.5112678438      -26.2355064674       42.3578944775  TIP3      7391            0.0000000000
     72005      7791  TIP3      H2             22.7212238408      -25.8430846649       41.5336608758  TIP3      7391            0.0000000000
     72006      7792  TIP3      OH2            28.1041988035      -22.4771954072       41.3782005173  TIP3      7392            0.0000000000
     72007      7792  TIP3      H1             27.6354775159      -21.7977911141       41.9353092193  TIP3      7392            0.0000000000
     72008      7792  TIP3      H2             28.8647326022      -21.8226433266       41.3311248425  TIP3      7392            0.0000000000
     72009      7793  TIP3      OH2            25.8379894731      -21.1294215666       42.0380430416  TIP3      7393            0.0000000000
     72010      7793  TIP3      H1             25.9607205819      -20.3171849846       41.4851929593  TIP3      7393            0.0000000000
     72011      7793  TIP3      H2             25.6182577879      -20.7683703192       42.9004836436  TIP3      7393            0.0000000000
     72012      7794  TIP3      OH2            24.4293465296      -34.5354656849       41.4396519466  TIP3      7394            0.0000000000
     72013      7794  TIP3      H1             24.3471495287      -33.6588361716       41.8524955159  TIP3      7394            0.0000000000
     72014      7794  TIP3      H2             25.3358433671      -34.6769535925       41.8071622208  TIP3      7394            0.0000000000
     72015      7795  TIP3      OH2            22.7739450761      -23.9689252645       40.6827262478  TIP3      7395            0.0000000000
     72016      7795  TIP3      H1             23.4137161007      -23.3005656099       40.9623147254  TIP3      7395            0.0000000000
     72017      7795  TIP3      H2             23.2832544459      -24.4108252319       39.9768258908  TIP3      7395            0.0000000000
     72018      7796  TIP3      OH2            21.1133574899      -31.3086559786       39.8006421706  TIP3      7396            0.0000000000
     72019      7796  TIP3      H1             21.0835721246      -30.3526082530       40.0002042262  TIP3      7396            0.0000000000
     72020      7796  TIP3      H2             20.2242799924      -31.5273003365       39.5306198489  TIP3      7396            0.0000000000
     72021      7797  TIP3      OH2            28.8672126448      -21.5202782418       38.9542915723  TIP3      7397            0.0000000000
     72022      7797  TIP3      H1             28.1995814634      -22.1819378517       39.2625617234  TIP3      7397            0.0000000000
     72023      7797  TIP3      H2             29.6051611818      -22.0977819707       38.7209409040  TIP3      7397            0.0000000000
     72024      7798  TIP3      OH2            33.4408758843      -21.7432177589       39.1594376476  TIP3      7398            0.0000000000
     72025      7798  TIP3      H1             33.7321692966      -22.5237519002       39.6522952276  TIP3      7398            0.0000000000
     72026      7798  TIP3      H2             34.2096288518      -21.5160056873       38.6192882103  TIP3      7398            0.0000000000
     72027      7799  TIP3      OH2            24.3711138104      -25.8269787999       39.0423401270  TIP3      7399            0.0000000000
     72028      7799  TIP3      H1             24.4696370018      -26.6207647116       39.5806395465  TIP3      7399            0.0000000000
     72029      7799  TIP3      H2             25.0658457121      -25.9398385646       38.3623341897  TIP3      7399            0.0000000000
     72030      7800  TIP3      OH2            29.7663024974      -24.7609642776       38.7946488807  TIP3      7400            0.0000000000
     72031      7800  TIP3      H1             29.4935597231      -24.6054684830       39.7058071347  TIP3      7400            0.0000000000
     72032      7800  TIP3      H2             29.5521198474      -25.7062650985       38.6358781728  TIP3      7400            0.0000000000
     72033      7801  TIP3      OH2            25.2287381090      -27.8467718524       41.2492634970  TIP3      7401            0.0000000000
     72034      7801  TIP3      H1             25.0069245786      -28.3507989684       42.0585802007  TIP3      7401            0.0000000000
     72035      7801  TIP3      H2             25.6776125108      -28.5052364566       40.6874461369  TIP3      7401            0.0000000000
     72036      7802  TIP3      OH2            26.6282691957      -29.5638817743       39.6416895332  TIP3      7402            0.0000000000
     72037      7802  TIP3      H1             26.4411442790      -29.7435359706       38.6810600021  TIP3      7402            0.0000000000
     72038      7802  TIP3      H2             27.5995867890      -29.5385947066       39.6417501599  TIP3      7402            0.0000000000
     72039      7803  TIP3      OH2            35.9867958236      -27.2531983796       39.0921542814  TIP3      7403            0.0000000000
     72040      7803  TIP3      H1             35.7531752764      -27.6603999666       38.2366622372  TIP3      7403            0.0000000000
     72041      7803  TIP3      H2             36.0490964769      -26.3016342037       38.8378152300  TIP3      7403            0.0000000000
     72042      7804  TIP3      OH2            26.4879728981      -18.8970418316       40.6714057230  TIP3      7404            0.0000000000
     72043      7804  TIP3      H1             27.4575583571      -18.7803409533       40.7512783963  TIP3      7404            0.0000000000
     72044      7804  TIP3      H2             26.2872492830      -18.2619220494       39.9757114565  TIP3      7404            0.0000000000
     72045      7805  TIP3      OH2            20.0443477392      -24.2942043460       40.1434161461  TIP3      7405            0.0000000000
     72046      7805  TIP3      H1             21.0024528004      -24.2027333924       40.3615136148  TIP3      7405            0.0000000000
     72047      7805  TIP3      H2             20.0922015192      -24.9729486428       39.4349933971  TIP3      7405            0.0000000000
     72048      7806  TIP3      OH2            37.1910036890      -28.4829681536       41.1821871592  TIP3      7406            0.0000000000
     72049      7806  TIP3      H1             36.6282108501      -28.0789783518       40.4880019707  TIP3      7406            0.0000000000
     72050      7806  TIP3      H2             37.1354855284      -27.8046332986       41.9078683912  TIP3      7406            0.0000000000
     72051      7807  TIP3      OH2            35.4954203183      -31.1819798765       39.8150367232  TIP3      7407            0.0000000000
     72052      7807  TIP3      H1             35.5801403315      -30.5358299060       39.1058680582  TIP3      7407            0.0000000000
     72053      7807  TIP3      H2             35.3392734159      -32.0169050020       39.3232243208  TIP3      7407            0.0000000000
     72054      7808  TIP3      OH2            34.7333418276      -33.7643712238       38.9146694544  TIP3      7408            0.0000000000
     72055      7808  TIP3      H1             35.3411452856      -34.1666646128       39.5622281456  TIP3      7408            0.0000000000
     72056      7808  TIP3      H2             33.8938591095      -34.1994807037       39.1311760958  TIP3      7408            0.0000000000
     72057      7809  TIP3      OH2            36.8193371678      -34.8951085354       40.4688453538  TIP3      7409            0.0000000000
     72058      7809  TIP3      H1             37.2541616175      -35.6296484238       39.9858984297  TIP3      7409            0.0000000000
     72059      7809  TIP3      H2             37.5279898878      -34.2353564542       40.5395301527  TIP3      7409            0.0000000000
     72060      7810  TIP3      OH2            20.4068219180      -36.8580523403       41.5527054553  TIP3      7410            0.0000000000
     72061      7810  TIP3      H1             20.8540500196      -36.2164746620       40.9859055181  TIP3      7410            0.0000000000
     72062      7810  TIP3      H2             19.7955964819      -36.3010364748       42.0347068322  TIP3      7410            0.0000000000
     72063      7811  TIP3      OH2            22.2332821531      -34.9250013068       40.0037819393  TIP3      7411            0.0000000000
     72064      7811  TIP3      H1             22.7463312692      -35.5658678239       39.4826244097  TIP3      7411            0.0000000000
     72065      7811  TIP3      H2             22.8813606719      -34.6430799313       40.6840232014  TIP3      7411            0.0000000000
     72066      7812  TIP3      OH2            29.1436402884      -19.6675508144       40.8789921019  TIP3      7412            0.0000000000
     72067      7812  TIP3      H1             30.0398797559      -19.3515037882       40.6790375631  TIP3      7412            0.0000000000
     72068      7812  TIP3      H2             28.9312253134      -20.1490587195       40.0462409090  TIP3      7412            0.0000000000
     72069      7813  TIP3      OH2            22.1088334953      -19.9521293777       39.4902798294  TIP3      7413            0.0000000000
     72070      7813  TIP3      H1             21.8358336667      -19.7048491795       40.3831231292  TIP3      7413            0.0000000000
     72071      7813  TIP3      H2             22.8817979332      -20.5348735214       39.6394517509  TIP3      7413            0.0000000000
     72072      7814  TIP3      OH2            48.2526998785      -29.7640756268       40.1917875462  TIP3      7414            0.0000000000
     72073      7814  TIP3      H1             48.9716999760      -29.7504519248       40.8513071326  TIP3      7414            0.0000000000
     72074      7814  TIP3      H2             48.5845083144      -30.4254693220       39.5713004880  TIP3      7414            0.0000000000
     72075      7815  TIP3      OH2            50.4884210825      -28.9837555254       41.7508219699  TIP3      7415            0.0000000000
     72076      7815  TIP3      H1             50.9786666632      -28.6832946507       42.5138697933  TIP3      7415            0.0000000000
     72077      7815  TIP3      H2             50.8627965491      -28.4027739838       41.0467305288  TIP3      7415            0.0000000000
     72078      7816  TIP3      OH2            54.2000485215      -37.1167529606       41.6623241218  TIP3      7416            0.0000000000
     72079      7816  TIP3      H1             53.2814728406      -36.9944937727       41.9130230583  TIP3      7416            0.0000000000
     72080      7816  TIP3      H2             54.4453763115      -36.2808518113       41.2399634235  TIP3      7416            0.0000000000
     72081      7817  TIP3      OH2            55.3500401542      -22.7449910142       39.9538323386  TIP3      7417            0.0000000000
     72082      7817  TIP3      H1             55.4801427128      -21.8165580264       40.1897110722  TIP3      7417            0.0000000000
     72083      7817  TIP3      H2             56.2797951438      -23.0686337826       39.9877220752  TIP3      7417            0.0000000000
     72084      7818  TIP3      OH2            50.7924428366      -20.0045921341       40.6774096974  TIP3      7418            0.0000000000
     72085      7818  TIP3      H1             51.1893582310      -20.7713936128       40.2006953062  TIP3      7418            0.0000000000
     72086      7818  TIP3      H2             50.8259052207      -20.3040569673       41.5957052789  TIP3      7418            0.0000000000
     72087      7819  TIP3      OH2            51.9817613811      -27.8675647012       39.5132818299  TIP3      7419            0.0000000000
     72088      7819  TIP3      H1             51.9888512256      -28.0456244941       38.5265909887  TIP3      7419            0.0000000000
     72089      7819  TIP3      H2             52.8289432847      -27.4110228246       39.6017866004  TIP3      7419            0.0000000000
     72090      7820  TIP3      OH2            47.5547179806      -33.9529914159       40.1050336671  TIP3      7420            0.0000000000
     72091      7820  TIP3      H1             47.2834180670      -33.9436040304       41.0325427425  TIP3      7420            0.0000000000
     72092      7820  TIP3      H2             47.2781088788      -34.8357923675       39.8031290912  TIP3      7420            0.0000000000
     72093      7821  TIP3      OH2            44.4211991929      -33.5306557955       39.2104950311  TIP3      7421            0.0000000000
     72094      7821  TIP3      H1             43.9662326315      -33.9587672663       39.9618780921  TIP3      7421            0.0000000000
     72095      7821  TIP3      H2             43.6970552030      -33.1403333863       38.7005133601  TIP3      7421            0.0000000000
     72096      7822  TIP3      OH2            38.9261589927      -33.1129909385       41.6451290994  TIP3      7422            0.0000000000
     72097      7822  TIP3      H1             39.4269358006      -32.4511755933       41.1194731345  TIP3      7422            0.0000000000
     72098      7822  TIP3      H2             38.2404732059      -32.5091451812       42.0192527611  TIP3      7422            0.0000000000
     72099      7823  TIP3      OH2            43.0558780550      -30.7684001103       40.6257743493  TIP3      7423            0.0000000000
     72100      7823  TIP3      H1             42.5098103228      -31.1232159635       39.8989960319  TIP3      7423            0.0000000000
     72101      7823  TIP3      H2             43.8756932944      -30.5466260576       40.1579412978  TIP3      7423            0.0000000000
     72102      7824  TIP3      OH2            50.2764246576      -33.3716452544       40.7107809449  TIP3      7424            0.0000000000
     72103      7824  TIP3      H1             49.3222308773      -33.2469658441       40.5952850786  TIP3      7424            0.0000000000
     72104      7824  TIP3      H2             50.5778837583      -32.5214851467       41.0676883515  TIP3      7424            0.0000000000
     72105      7825  TIP3      OH2            51.0029503048      -31.4476552948       42.4168285878  TIP3      7425            0.0000000000
     72106      7825  TIP3      H1             51.9027608025      -31.6606390006       42.6827137178  TIP3      7425            0.0000000000
     72107      7825  TIP3      H2             51.0488037033      -30.6986241283       41.8100699796  TIP3      7425            0.0000000000
     72108      7826  TIP3      OH2            48.5305666316      -24.7412292269       41.5668753444  TIP3      7426            0.0000000000
     72109      7826  TIP3      H1             48.1883822929      -23.9079004310       41.9205082581  TIP3      7426            0.0000000000
     72110      7826  TIP3      H2             47.8033253228      -25.3469447567       41.7678355473  TIP3      7426            0.0000000000
     72111      7827  TIP3      OH2            55.9588983138      -31.2612957395       42.0287236722  TIP3      7427            0.0000000000
     72112      7827  TIP3      H1             55.3398370827      -31.6658420989       41.3760465747  TIP3      7427            0.0000000000
     72113      7827  TIP3      H2             56.0042890966      -30.3298148870       41.7665182442  TIP3      7427            0.0000000000
     72114      7828  TIP3      OH2            39.6461959066      -28.5027676451       40.2677938031  TIP3      7428            0.0000000000
     72115      7828  TIP3      H1             40.2575660394      -27.8727170445       40.7083387433  TIP3      7428            0.0000000000
     72116      7828  TIP3      H2             38.7732616247      -28.1949884260       40.5681058935  TIP3      7428            0.0000000000
     72117      7829  TIP3      OH2            51.5824256907      -24.5111956444       40.3637632805  TIP3      7429            0.0000000000
     72118      7829  TIP3      H1             51.9055366728      -24.8760112639       41.1903941945  TIP3      7429            0.0000000000
     72119      7829  TIP3      H2             50.6196960949      -24.6129768374       40.4646983036  TIP3      7429            0.0000000000
     72120      7830  TIP3      OH2            56.0431456756      -20.0365016815       40.5062596214  TIP3      7430            0.0000000000
     72121      7830  TIP3      H1             56.8297154714      -19.4687741303       40.5119890878  TIP3      7430            0.0000000000
     72122      7830  TIP3      H2             55.3660072737      -19.4815747651       40.9467668303  TIP3      7430            0.0000000000
     72123      7831  TIP3      OH2            45.6941336742      -23.3874553109       38.8204946750  TIP3      7431            0.0000000000
     72124      7831  TIP3      H1             45.8784444466      -24.1643706853       38.2770590982  TIP3      7431            0.0000000000
     72125      7831  TIP3      H2             45.3663661073      -23.8017727830       39.6546493076  TIP3      7431            0.0000000000
     72126      7832  TIP3      OH2            44.5754706131      -23.8665115821       41.2662463395  TIP3      7432            0.0000000000
     72127      7832  TIP3      H1             44.7459252455      -24.3453113006       42.0874199966  TIP3      7432            0.0000000000
     72128      7832  TIP3      H2             44.6162199035      -22.9397327467       41.5907801050  TIP3      7432            0.0000000000
     72129      7833  TIP3      OH2            40.9726727189      -26.5948023278       41.7299040182  TIP3      7433            0.0000000000
     72130      7833  TIP3      H1             40.3652966072      -26.2414909804       42.3697337153  TIP3      7433            0.0000000000
     72131      7833  TIP3      H2             41.5803426098      -25.8444515621       41.5456115556  TIP3      7433            0.0000000000
     72132      7834  TIP3      OH2            46.9628851987      -22.4589745188       41.3711335745  TIP3      7434            0.0000000000
     72133      7834  TIP3      H1             46.4919019580      -21.7919801859       41.9370144365  TIP3      7434            0.0000000000
     72134      7834  TIP3      H2             47.7261274886      -21.8151036864       41.3317945321  TIP3      7434            0.0000000000
     72135      7835  TIP3      OH2            44.6940419083      -21.1278975903       42.0365738407  TIP3      7435            0.0000000000
     72136      7835  TIP3      H1             44.8172054919      -20.3159580760       41.4853174188  TIP3      7435            0.0000000000
     72137      7835  TIP3      H2             44.4743639851      -20.7687109122       42.9006359714  TIP3      7435            0.0000000000
     72138      7836  TIP3      OH2            43.2849480793      -34.5357571651       41.4375207140  TIP3      7436            0.0000000000
     72139      7836  TIP3      H1             43.2038431330      -33.6594473910       41.8531389583  TIP3      7436            0.0000000000
     72140      7836  TIP3      H2             44.1911313749      -34.6767836080       41.8070586910  TIP3      7436            0.0000000000
     72141      7837  TIP3      OH2            41.6292797838      -23.9711593982       40.6858171178  TIP3      7437            0.0000000000
     72142      7837  TIP3      H1             42.2686594428      -23.3004914632       40.9627785971  TIP3      7437            0.0000000000
     72143      7837  TIP3      H2             42.1438779075      -24.4153569297       39.9823572519  TIP3      7437            0.0000000000
     72144      7838  TIP3      OH2            39.9694071235      -31.3082584273       39.8005291922  TIP3      7438            0.0000000000
     72145      7838  TIP3      H1             39.9390987803      -30.3526477602       39.9999903004  TIP3      7438            0.0000000000
     72146      7838  TIP3      H2             39.0804358900      -31.5271940194       39.5307468984  TIP3      7438            0.0000000000
     72147      7839  TIP3      OH2            47.7248500325      -21.5139397373       38.9440916576  TIP3      7439            0.0000000000
     72148      7839  TIP3      H1             47.0579156411      -22.1758332537       39.2610655079  TIP3      7439            0.0000000000
     72149      7839  TIP3      H2             48.4609021730      -22.1013055210       38.7257194392  TIP3      7439            0.0000000000
     72150      7840  TIP3      OH2            52.2934719441      -21.7320337548       39.1641396020  TIP3      7440            0.0000000000
     72151      7840  TIP3      H1             52.5817880119      -22.5248216045       39.6518031238  TIP3      7440            0.0000000000
     72152      7840  TIP3      H2             53.0632872797      -21.5260322757       38.6163476106  TIP3      7440            0.0000000000
     72153      7841  TIP3      OH2            43.2120628234      -25.8297679797       39.0312390803  TIP3      7441            0.0000000000
     72154      7841  TIP3      H1             43.3407872985      -26.6147259725       39.5836750699  TIP3      7441            0.0000000000
     72155      7841  TIP3      H2             43.9280392447      -25.9425832378       38.3725936343  TIP3      7441            0.0000000000
     72156      7842  TIP3      OH2            48.6256773641      -24.7480251561       38.7815258543  TIP3      7442            0.0000000000
     72157      7842  TIP3      H1             48.3488497497      -24.6130670956       39.7012935973  TIP3      7442            0.0000000000
     72158      7842  TIP3      H2             48.4096921864      -25.7045283760       38.6462366242  TIP3      7442            0.0000000000
     72159      7843  TIP3      OH2            44.4058651455      -27.8453342257       41.3546427879  TIP3      7443            0.0000000000
     72160      7843  TIP3      H1             43.9383224863      -28.3469040697       42.0363280295  TIP3      7443            0.0000000000
     72161      7843  TIP3      H2             44.6719055838      -28.5272109652       40.7072515439  TIP3      7443            0.0000000000
     72162      7844  TIP3      OH2            45.4705381026      -29.6138031248       39.6145226935  TIP3      7444            0.0000000000
     72163      7844  TIP3      H1             45.3121936584      -29.7400295594       38.6589788222  TIP3      7444            0.0000000000
     72164      7844  TIP3      H2             46.4420949220      -29.5090938626       39.6710464539  TIP3      7444            0.0000000000
     72165      7845  TIP3      OH2            54.8442592435      -27.2458297223       39.1033488723  TIP3      7445            0.0000000000
     72166      7845  TIP3      H1             54.5997421299      -27.6547558259       38.2475846609  TIP3      7445            0.0000000000
     72167      7845  TIP3      H2             54.8994083805      -26.2960814752       38.8468816338  TIP3      7445            0.0000000000
     72168      7846  TIP3      OH2            45.3464987911      -18.9042060587       40.6690171909  TIP3      7446            0.0000000000
     72169      7846  TIP3      H1             46.3125009375      -18.7732272420       40.7507394744  TIP3      7446            0.0000000000
     72170      7846  TIP3      H2             45.1360473411      -18.2566221018       39.9833815896  TIP3      7446            0.0000000000
     72171      7847  TIP3      OH2            38.9010783256      -24.2844925665       40.1263530040  TIP3      7447            0.0000000000
     72172      7847  TIP3      H1             39.8548648414      -24.2059324317       40.3698308747  TIP3      7447            0.0000000000
     72173      7847  TIP3      H2             38.9497873562      -24.9749321837       39.4323421381  TIP3      7447            0.0000000000
     72174      7848  TIP3      OH2            55.9613389361      -28.5108971592       41.2094959472  TIP3      7448            0.0000000000
     72175      7848  TIP3      H1             55.4880698496      -28.0711287229       40.4664919862  TIP3      7448            0.0000000000
     72176      7848  TIP3      H2             55.9991561862      -27.7941929521       41.9014031447  TIP3      7448            0.0000000000
     72177      7849  TIP3      OH2            54.3234764739      -31.1673744485       39.8204522509  TIP3      7449            0.0000000000
     72178      7849  TIP3      H1             54.4438068129      -30.5409927542       39.0980537225  TIP3      7449            0.0000000000
     72179      7849  TIP3      H2             54.1895291636      -32.0076626408       39.3226986208  TIP3      7449            0.0000000000
     72180      7850  TIP3      OH2            53.5795517639      -33.7622988996       38.9226344014  TIP3      7450            0.0000000000
     72181      7850  TIP3      H1             54.1897166865      -34.1647221268       39.5662000193  TIP3      7450            0.0000000000
     72182      7850  TIP3      H2             52.7368691295      -34.1969173932       39.1235668875  TIP3      7450            0.0000000000
     72183      7851  TIP3      OH2            55.6743767443      -34.9117382330       40.4589697105  TIP3      7451            0.0000000000
     72184      7851  TIP3      H1             56.1220298921      -35.6191534313       39.9796721698  TIP3      7451            0.0000000000
     72185      7851  TIP3      H2             56.3838949890      -34.2447578138       40.5444146063  TIP3      7451            0.0000000000
     72186      7852  TIP3      OH2            39.2620650842      -36.8575748144       41.5532674965  TIP3      7452            0.0000000000
     72187      7852  TIP3      H1             39.7107818884      -36.2160309159       40.9864961989  TIP3      7452            0.0000000000
     72188      7852  TIP3      H2             38.6437344594      -36.3008698332       42.0276166512  TIP3      7452            0.0000000000
     72189      7853  TIP3      OH2            41.0892752313      -34.9249541411       40.0036455296  TIP3      7453            0.0000000000
     72190      7853  TIP3      H1             41.6021844911      -35.5657363665       39.4827410138  TIP3      7453            0.0000000000
     72191      7853  TIP3      H2             41.7372891189      -34.6430622864       40.6840258258  TIP3      7453            0.0000000000
     72192      7854  TIP3      OH2            47.9994829074      -19.6671845326       40.8823459663  TIP3      7454            0.0000000000
     72193      7854  TIP3      H1             48.8963922449      -19.3541257579       40.6855739833  TIP3      7454            0.0000000000
     72194      7854  TIP3      H2             47.7849106151      -20.1550922165       40.0556631873  TIP3      7454            0.0000000000
     72195      7855  TIP3      OH2            40.9563926361      -19.9657111759       39.4831947529  TIP3      7455            0.0000000000
     72196      7855  TIP3      H1             40.6948658764      -19.6997558287       40.3786488187  TIP3      7455            0.0000000000
     72197      7855  TIP3      H2             41.7380938325      -20.5348982824       39.6400631910  TIP3      7455            0.0000000000
     72198      7856  TIP3      OH2           -46.0335087659      -10.9097867512       40.1867718898  TIP3      7456            0.0000000000
     72199      7856  TIP3      H1            -45.3091279985      -10.8902314506       40.8537098834  TIP3      7456            0.0000000000
     72200      7856  TIP3      H2            -45.6894095716      -11.5701997195       39.5756037404  TIP3      7456            0.0000000000
     72201      7857  TIP3      OH2           -43.8196088079      -10.1139497674       41.7173389367  TIP3      7457            0.0000000000
     72202      7857  TIP3      H1            -43.3023705629       -9.8896493390       42.5373073902  TIP3      7457            0.0000000000
     72203      7857  TIP3      H2            -43.3964577990       -9.5422496193       41.0515334382  TIP3      7457            0.0000000000
     72204      7858  TIP3      OH2           -40.0653199483      -18.2659152273       41.6544163426  TIP3      7458            0.0000000000
     72205      7858  TIP3      H1            -40.9867721018      -18.1414245015       41.9124872365  TIP3      7458            0.0000000000
     72206      7858  TIP3      H2            -39.8358293550      -17.4246562706       41.2320735935  TIP3      7458            0.0000000000
     72207      7859  TIP3      OH2           -38.9093101043       -3.9128014079       39.9731713531  TIP3      7459            0.0000000000
     72208      7859  TIP3      H1            -38.7896688066       -2.9649895028       40.1804387469  TIP3      7459            0.0000000000
     72209      7859  TIP3      H2            -37.9783785869       -4.1972627077       39.9774282617  TIP3      7459            0.0000000000
     72210      7860  TIP3      OH2           -43.4886279542       -1.1493179324       40.6764207236  TIP3      7460            0.0000000000
     72211      7860  TIP3      H1            -43.0864314009       -1.9122496873       40.2004847363  TIP3      7460            0.0000000000
     72212      7860  TIP3      H2            -43.4541076288       -1.4480381876       41.5951824119  TIP3      7460            0.0000000000
     72213      7861  TIP3      OH2           -42.3005071838       -8.9965172568       39.5018604911  TIP3      7461            0.0000000000
     72214      7861  TIP3      H1            -42.2909050706       -9.1942450276       38.5254826790  TIP3      7461            0.0000000000
     72215      7861  TIP3      H2            -41.4473536629       -8.5598253066       39.6076620968  TIP3      7461            0.0000000000
     72216      7862  TIP3      OH2           -46.7271041007      -15.0988960653       40.1044549910  TIP3      7462            0.0000000000
     72217      7862  TIP3      H1            -46.9963906631      -15.0872946737       41.0326562962  TIP3      7462            0.0000000000
     72218      7862  TIP3      H2            -47.0020043587      -15.9794203501       39.8031777675  TIP3      7462            0.0000000000
     72219      7863  TIP3      OH2           -49.8562474031      -14.6749072370       39.2089928344  TIP3      7463            0.0000000000
     72220      7863  TIP3      H1            -50.3130646314      -15.1023300807       39.9617377226  TIP3      7463            0.0000000000
     72221      7863  TIP3      H2            -50.5827092000      -14.2842598680       38.7004565350  TIP3      7463            0.0000000000
     72222      7864  TIP3      OH2           -55.3293840277      -14.3002709777       41.6307031988  TIP3      7464            0.0000000000
     72223      7864  TIP3      H1            -54.8377905939      -13.6023805841       41.1300175959  TIP3      7464            0.0000000000
     72224      7864  TIP3      H2            -56.0087649223      -13.6843083258       42.0179169226  TIP3      7464            0.0000000000
     72225      7865  TIP3      OH2           -51.2198165825      -11.9114861086       40.6251413601  TIP3      7465            0.0000000000
     72226      7865  TIP3      H1            -51.7720760317      -12.2623702017       39.9004974190  TIP3      7465            0.0000000000
     72227      7865  TIP3      H2            -50.4027387350      -11.6898312848       40.1567941107  TIP3      7465            0.0000000000
     72228      7866  TIP3      OH2           -44.0066309453      -14.5212427434       40.7041849265  TIP3      7466            0.0000000000
     72229      7866  TIP3      H1            -44.9605854390      -14.3925016467       40.5935880506  TIP3      7466            0.0000000000
     72230      7866  TIP3      H2            -43.7010391692      -13.6673269841       41.0734668125  TIP3      7466            0.0000000000
     72231      7867  TIP3      OH2           -43.2869941334      -12.6266601901       42.3820828632  TIP3      7467            0.0000000000
     72232      7867  TIP3      H1            -42.3888908336      -12.7718888151       42.7068376919  TIP3      7467            0.0000000000
     72233      7867  TIP3      H2            -43.2275733673      -11.8276497339       41.8425021471  TIP3      7467            0.0000000000
     72234      7868  TIP3      OH2           -45.7486453921       -5.8844214521       41.5663231590  TIP3      7468            0.0000000000
     72235      7868  TIP3      H1            -46.0915924358       -5.0521033750       41.9209691720  TIP3      7468            0.0000000000
     72236      7868  TIP3      H2            -46.4754651030       -6.4916153923       41.7685840944  TIP3      7468            0.0000000000
     72237      7869  TIP3      OH2           -38.2452863644      -12.4468553208       41.9826117880  TIP3      7469            0.0000000000
     72238      7869  TIP3      H1            -38.9388794809      -12.8075277538       41.3879061143  TIP3      7469            0.0000000000
     72239      7869  TIP3      H2            -38.2882115002      -11.4963693420       41.7879295645  TIP3      7469            0.0000000000
     72240      7870  TIP3      OH2           -54.5732583871       -9.6495293027       40.2436519378  TIP3      7470            0.0000000000
     72241      7870  TIP3      H1            -54.0045881904       -9.0088736161       40.7112527705  TIP3      7470            0.0000000000
     72242      7870  TIP3      H2            -55.4644541246       -9.3611974153       40.5505649244  TIP3      7470            0.0000000000
     72243      7871  TIP3      OH2           -42.6828361203       -5.6528815880       40.3624801035  TIP3      7471            0.0000000000
     72244      7871  TIP3      H1            -42.3668175291       -6.0228952580       41.1903627807  TIP3      7471            0.0000000000
     72245      7871  TIP3      H2            -43.6496648795       -5.7598090395       40.4656302282  TIP3      7471            0.0000000000
     72246      7872  TIP3      OH2           -38.2283462710       -1.2082722002       40.5561168041  TIP3      7472            0.0000000000
     72247      7872  TIP3      H1            -37.4693039023       -0.6016460829       40.4702523483  TIP3      7472            0.0000000000
     72248      7872  TIP3      H2            -38.9092554814       -0.6065806834       40.9088773029  TIP3      7472            0.0000000000
     72249      7873  TIP3      OH2           -48.5862827392       -4.5317334271       38.8205627789  TIP3      7473            0.0000000000
     72250      7873  TIP3      H1            -48.4015105983       -5.3082637415       38.2769421222  TIP3      7473            0.0000000000
     72251      7873  TIP3      H2            -48.9135658510       -4.9458712760       39.6547855269  TIP3      7473            0.0000000000
     72252      7874  TIP3      OH2           -49.7069648370       -5.0108524864       41.2668576179  TIP3      7474            0.0000000000
     72253      7874  TIP3      H1            -49.5340667766       -5.4893746864       42.0874963034  TIP3      7474            0.0000000000
     72254      7874  TIP3      H2            -49.6642443542       -4.0838627237       41.5907523634  TIP3      7474            0.0000000000
     72255      7875  TIP3      OH2           -53.2915990586       -7.7404743221       41.7334061837  TIP3      7475            0.0000000000
     72256      7875  TIP3      H1            -53.9067315972       -7.3887979563       42.3635442070  TIP3      7475            0.0000000000
     72257      7875  TIP3      H2            -52.7027462747       -6.9822215180       41.5425060525  TIP3      7475            0.0000000000
     72258      7876  TIP3      OH2           -47.3175795855       -3.6032597029       41.3720991171  TIP3      7476            0.0000000000
     72259      7876  TIP3      H1            -47.7884422485       -2.9356135935       41.9369379626  TIP3      7476            0.0000000000
     72260      7876  TIP3      H2            -46.5544375206       -2.9587217955       41.3311153933  TIP3      7476            0.0000000000
     72261      7877  TIP3      OH2           -49.5864318608       -2.2724300603       42.0381411991  TIP3      7477            0.0000000000
     72262      7877  TIP3      H1            -49.4630312869       -1.4602231633       41.4852976885  TIP3      7477            0.0000000000
     72263      7877  TIP3      H2            -49.8057004062       -1.9125766303       42.9008292891  TIP3      7477            0.0000000000
     72264      7878  TIP3      OH2           -50.9921389511      -15.6800859115       41.4309716484  TIP3      7478            0.0000000000
     72265      7878  TIP3      H1            -51.0716297939      -14.8045438795       41.8503483416  TIP3      7478            0.0000000000
     72266      7878  TIP3      H2            -50.0876944909      -15.8214560061       41.8068489764  TIP3      7478            0.0000000000
     72267      7879  TIP3      OH2           -52.6448110338       -5.1224943328       40.6819566516  TIP3      7479            0.0000000000
     72268      7879  TIP3      H1            -52.0172621702       -4.4411028371       40.9609761151  TIP3      7479            0.0000000000
     72269      7879  TIP3      H2            -52.1272227119       -5.5624416269       39.9786852492  TIP3      7479            0.0000000000
     72270      7880  TIP3      OH2           -54.3065053481      -12.4490659058       39.7964183748  TIP3      7480            0.0000000000
     72271      7880  TIP3      H1            -54.3346502235      -11.4962259480       40.0005343328  TIP3      7480            0.0000000000
     72272      7880  TIP3      H2            -55.1959196919      -12.6549193917       39.5251123153  TIP3      7480            0.0000000000
     72273      7881  TIP3      OH2           -46.5559693695       -2.6641491684       38.9534342143  TIP3      7481            0.0000000000
     72274      7881  TIP3      H1            -47.2242622083       -3.3251043032       39.2625656375  TIP3      7481            0.0000000000
     72275      7881  TIP3      H2            -45.8186254164       -3.2419378080       38.7209911581  TIP3      7481            0.0000000000
     72276      7882  TIP3      OH2           -41.9830400300       -2.8871305375       39.1594090555  TIP3      7482            0.0000000000
     72277      7882  TIP3      H1            -41.6920686398       -3.6677532161       39.6521996027  TIP3      7482            0.0000000000
     72278      7882  TIP3      H2            -41.2142322630       -2.6600168695       38.6192365720  TIP3      7482            0.0000000000
     72279      7883  TIP3      OH2           -51.0683352866       -6.9746587005       39.0315753721  TIP3      7483            0.0000000000
     72280      7883  TIP3      H1            -50.9433628418       -7.7596229452       39.5874839201  TIP3      7483            0.0000000000
     72281      7883  TIP3      H2            -50.3517551562       -7.0871918430       38.3731593762  TIP3      7483            0.0000000000
     72282      7884  TIP3      OH2           -45.6441188842       -5.8967831315       38.7886147277  TIP3      7484            0.0000000000
     72283      7884  TIP3      H1            -45.9322060102       -5.7581083169       39.7031947051  TIP3      7484            0.0000000000
     72284      7884  TIP3      H2            -45.8754490558       -6.8474151674       38.6419632142  TIP3      7484            0.0000000000
     72285      7885  TIP3      OH2           -49.8739709096       -8.9891880600       41.3547101353  TIP3      7485            0.0000000000
     72286      7885  TIP3      H1            -50.3417579097       -9.4908568113       42.0362236768  TIP3      7485            0.0000000000
     72287      7885  TIP3      H2            -49.6080984853       -9.6712394034       40.7073338444  TIP3      7485            0.0000000000
     72288      7886  TIP3      OH2           -48.8100255514      -10.7575319287       39.6151415216  TIP3      7486            0.0000000000
     72289      7886  TIP3      H1            -48.9736860110      -10.8826951137       38.6605050419  TIP3      7486            0.0000000000
     72290      7886  TIP3      H2            -47.8378295803      -10.6533640867       39.6705013328  TIP3      7486            0.0000000000
     72291      7887  TIP3      OH2           -39.4368833508       -8.3973300172       39.0915555584  TIP3      7487            0.0000000000
     72292      7887  TIP3      H1            -39.6712025031       -8.8037760248       38.2362510876  TIP3      7487            0.0000000000
     72293      7887  TIP3      H2            -39.3750025328       -7.4455343967       38.8380250314  TIP3      7487            0.0000000000
     72294      7888  TIP3      OH2           -48.9323877624       -0.0505325784       40.6685955490  TIP3      7488            0.0000000000
     72295      7888  TIP3      H1            -47.9676175945        0.0830342991       40.7507198205  TIP3      7488            0.0000000000
     72296      7888  TIP3      H2            -49.1436325448        0.5993773413       39.9828289485  TIP3      7488            0.0000000000
     72297      7889  TIP3      OH2           -55.3479979017       -5.4443366384       40.1379961095  TIP3      7489            0.0000000000
     72298      7889  TIP3      H1            -54.4022693786       -5.3542656309       40.3747476013  TIP3      7489            0.0000000000
     72299      7889  TIP3      H2            -55.3174581178       -6.1218532171       39.4344037186  TIP3      7489            0.0000000000
     72300      7890  TIP3      OH2           -38.2326061520       -9.6265889239       41.1819134183  TIP3      7490            0.0000000000
     72301      7890  TIP3      H1            -38.7958524017       -9.2229853817       40.4880777820  TIP3      7490            0.0000000000
     72302      7890  TIP3      H2            -38.2885041582       -8.9487172957       41.9078545945  TIP3      7490            0.0000000000
     72303      7891  TIP3      OH2           -39.9304011122      -12.3246408480       39.8131295994  TIP3      7491            0.0000000000
     72304      7891  TIP3      H1            -39.8435906668      -11.6790747975       39.1052465319  TIP3      7491            0.0000000000
     72305      7891  TIP3      H2            -40.0875505920      -13.1604392977       39.3225514613  TIP3      7491            0.0000000000
     72306      7892  TIP3      OH2           -40.6833125654      -14.9122829088       38.9203673548  TIP3      7492            0.0000000000
     72307      7892  TIP3      H1            -40.0804888532      -15.3147300668       39.5678725510  TIP3      7492            0.0000000000
     72308      7892  TIP3      H2            -41.5326775729      -15.3384973118       39.1250024238  TIP3      7492            0.0000000000
     72309      7893  TIP3      OH2           -38.6043389139      -16.0393397638       40.4692658325  TIP3      7493            0.0000000000
     72310      7893  TIP3      H1            -38.1698144504      -16.7736906588       39.9858299666  TIP3      7493            0.0000000000
     72311      7893  TIP3      H2            -37.8961764071      -15.3792214288       40.5395730784  TIP3      7493            0.0000000000
     72312      7894  TIP3      OH2           -55.0430291497      -18.0075334665       41.5201126746  TIP3      7494            0.0000000000
     72313      7894  TIP3      H1            -54.5551358205      -17.3476519143       41.0096527332  TIP3      7494            0.0000000000
     72314      7894  TIP3      H2            -55.6270256135      -17.4539221784       42.0429978771  TIP3      7494            0.0000000000
     72315      7895  TIP3      OH2           -53.2088747364      -16.0876870662       40.0019011145  TIP3      7495            0.0000000000
     72316      7895  TIP3      H1            -52.6634385760      -16.7037086213       39.4830575388  TIP3      7495            0.0000000000
     72317      7895  TIP3      H2            -52.5553867940      -15.7852989275       40.6792108552  TIP3      7495            0.0000000000
     72318      7896  TIP3      OH2           -46.2795962662       -0.8113902161       40.8803012619  TIP3      7496            0.0000000000
     72319      7896  TIP3      H1            -45.3839248516       -0.4954302097       40.6787526236  TIP3      7496            0.0000000000
     72320      7896  TIP3      H2            -46.4937267111       -1.2950829068       40.0502907969  TIP3      7496            0.0000000000
     72321      7897  TIP3      OH2           -53.3244350680       -1.1132385519       39.4705702779  TIP3      7497            0.0000000000
     72322      7897  TIP3      H1            -53.5835732430       -0.8515543947       40.3728226208  TIP3      7497            0.0000000000
     72323      7897  TIP3      H2            -52.5375287842       -1.6751667816       39.6385775231  TIP3      7497            0.0000000000
     72324      7898  TIP3      OH2           -27.1775452646      -10.9095312450       40.1866121592  TIP3      7498            0.0000000000
     72325      7898  TIP3      H1            -26.4531730959      -10.8903034534       40.8537106668  TIP3      7498            0.0000000000
     72326      7898  TIP3      H2            -26.8332967560      -11.5701560375       39.5756563334  TIP3      7498            0.0000000000
     72327      7899  TIP3      OH2           -24.9639274709      -10.1141469409       41.7170429827  TIP3      7499            0.0000000000
     72328      7899  TIP3      H1            -24.4465274502       -9.8897615570       42.5371401893  TIP3      7499            0.0000000000
     72329      7899  TIP3      H2            -24.5402774397       -9.5424421723       41.0515388892  TIP3      7499            0.0000000000
     72330      7900  TIP3      OH2           -21.2093363409      -18.2659225008       41.6543995421  TIP3      7500            0.0000000000
     72331      7900  TIP3      H1            -22.1307044377      -18.1415030726       41.9125286680  TIP3      7500            0.0000000000
     72332      7900  TIP3      H2            -20.9798314917      -17.4246538871       41.2320869979  TIP3      7500            0.0000000000
     72333      7901  TIP3      OH2           -20.0533366079       -3.9127914446       39.9731354002  TIP3      7501            0.0000000000
     72334      7901  TIP3      H1            -19.9336583760       -2.9649721737       40.1805020490  TIP3      7501            0.0000000000
     72335      7901  TIP3      H2            -19.1223812336       -4.1972233368       39.9774818445  TIP3      7501            0.0000000000
     72336      7902  TIP3      OH2           -24.6371493604       -1.1515625318       40.6725558860  TIP3      7502            0.0000000000
     72337      7902  TIP3      H1            -24.2301516970       -1.9128137745       40.1999300939  TIP3      7502            0.0000000000
     72338      7902  TIP3      H2            -24.5981564875       -1.4473945370       41.5938580127  TIP3      7502            0.0000000000
     72339      7903  TIP3      OH2           -23.4429615502       -8.9967530772       39.5050851092  TIP3      7503            0.0000000000
     72340      7903  TIP3      H1            -23.4313424576       -9.1972199839       38.5317434517  TIP3      7503            0.0000000000
     72341      7903  TIP3      H2            -22.5909540730       -8.5594261505       39.6082337192  TIP3      7503            0.0000000000
     72342      7904  TIP3      OH2           -27.8713268744      -15.0991730857       40.1041885013  TIP3      7504            0.0000000000
     72343      7904  TIP3      H1            -28.1403688020      -15.0873866764       41.0325803687  TIP3      7504            0.0000000000
     72344      7904  TIP3      H2            -28.1460757712      -15.9798919887       39.8025820257  TIP3      7504            0.0000000000
     72345      7905  TIP3      OH2           -31.0028783484      -14.6743416155       39.2103939413  TIP3      7505            0.0000000000
     72346      7905  TIP3      H1            -31.4573361621      -15.1025139150       39.9619077131  TIP3      7505            0.0000000000
     72347      7905  TIP3      H2            -31.7270576131      -14.2847515829       38.7006228211  TIP3      7505            0.0000000000
     72348      7906  TIP3      OH2           -36.4977686858      -14.2570196464       41.6450903580  TIP3      7506            0.0000000000
     72349      7906  TIP3      H1            -35.9970715074      -13.5951585167       41.1194952215  TIP3      7506            0.0000000000
     72350      7906  TIP3      H2            -37.1834905384      -13.6532046839       42.0192560076  TIP3      7506            0.0000000000
     72351      7907  TIP3      OH2           -32.3680680399      -11.9126139174       40.6254583424  TIP3      7507            0.0000000000
     72352      7907  TIP3      H1            -32.9144447466      -12.2670251188       39.8991700974  TIP3      7507            0.0000000000
     72353      7907  TIP3      H2            -31.5482562450      -11.6905066690       40.1580736144  TIP3      7507            0.0000000000
     72354      7908  TIP3      OH2           -25.1506116792      -14.5211340923       40.7042419193  TIP3      7508            0.0000000000
     72355      7908  TIP3      H1            -26.1045820415      -14.3925214057       40.5936079807  TIP3      7508            0.0000000000
     72356      7908  TIP3      H2            -24.8450451232      -13.6673347866       41.0734567016  TIP3      7508            0.0000000000
     72357      7909  TIP3      OH2           -24.4321775893      -12.6255897207       42.3856619293  TIP3      7509            0.0000000000
     72358      7909  TIP3      H1            -23.5325415222      -12.7717443963       42.7052798693  TIP3      7509            0.0000000000
     72359      7909  TIP3      H2            -24.3718108517      -11.8279830119       41.8428954059  TIP3      7509            0.0000000000
     72360      7910  TIP3      OH2           -26.8926426600       -5.8846289508       41.5658792715  TIP3      7510            0.0000000000
     72361      7910  TIP3      H1            -27.2355166235       -5.0521859559       41.9209746437  TIP3      7510            0.0000000000
     72362      7910  TIP3      H2            -27.6194230561       -6.4915881718       41.7686528250  TIP3      7510            0.0000000000
     72363      7911  TIP3      OH2           -19.3894160671      -12.4468697913       41.9828167867  TIP3      7511            0.0000000000
     72364      7911  TIP3      H1            -20.0828584529      -12.8075198175       41.3878776981  TIP3      7511            0.0000000000
     72365      7911  TIP3      H2            -19.4322105005      -11.4964041562       41.7878974297  TIP3      7511            0.0000000000
     72366      7912  TIP3      OH2           -35.7785567420       -9.6477995047       40.2671049192  TIP3      7512            0.0000000000
     72367      7912  TIP3      H1            -35.1646808409       -9.0163090559       40.7009251422  TIP3      7512            0.0000000000
     72368      7912  TIP3      H2            -36.6506298076       -9.3387842284       40.5685746349  TIP3      7512            0.0000000000
     72369      7913  TIP3      OH2           -23.8267480436       -5.6527015454       40.3632655332  TIP3      7513            0.0000000000
     72370      7913  TIP3      H1            -23.5104102181       -6.0218864786       41.1915048424  TIP3      7513            0.0000000000
     72371      7913  TIP3      H2            -24.7935717275       -5.7599355788       40.4657919702  TIP3      7513            0.0000000000
     72372      7914  TIP3      OH2           -19.3724085855       -1.2083175841       40.5557834656  TIP3      7514            0.0000000000
     72373      7914  TIP3      H1            -18.6133412045       -0.6016074880       40.4704285816  TIP3      7514            0.0000000000
     72374      7914  TIP3      H2            -20.0532518481       -0.6065341589       40.9091666695  TIP3      7514            0.0000000000
     72375      7915  TIP3      OH2           -29.7301933991       -4.5318044091       38.8205433900  TIP3      7515            0.0000000000
     72376      7915  TIP3      H1            -29.5453401359       -5.3083232180       38.2768511483  TIP3      7515            0.0000000000
     72377      7915  TIP3      H2            -30.0576082273       -4.9457934860       39.6548082821  TIP3      7515            0.0000000000
     72378      7916  TIP3      OH2           -30.8485803805       -5.0105369328       41.2661599605  TIP3      7516            0.0000000000
     72379      7916  TIP3      H1            -30.6780500258       -5.4892734152       42.0874302259  TIP3      7516            0.0000000000
     72380      7916  TIP3      H2            -30.8077465637       -4.0837493718       41.5908190352  TIP3      7516            0.0000000000
     72381      7917  TIP3      OH2           -34.4513651813       -7.7387651373       41.7297909425  TIP3      7517            0.0000000000
     72382      7917  TIP3      H1            -35.0587022975       -7.3855463924       42.3697282847  TIP3      7517            0.0000000000
     72383      7917  TIP3      H2            -33.8436661402       -6.9884148108       41.5456875046  TIP3      7517            0.0000000000
     72384      7918  TIP3      OH2           -28.4615187543       -3.6032530963       41.3720537261  TIP3      7518            0.0000000000
     72385      7918  TIP3      H1            -28.9324301559       -2.9356338851       41.9369463520  TIP3      7518            0.0000000000
     72386      7918  TIP3      H2            -27.6984434222       -2.9586895806       41.3311636303  TIP3      7518            0.0000000000
     72387      7919  TIP3      OH2           -30.7304134310       -2.2724044266       42.0381520209  TIP3      7519            0.0000000000
     72388      7919  TIP3      H1            -30.6070271357       -1.4602333106       41.4852773859  TIP3      7519            0.0000000000
     72389      7919  TIP3      H2            -30.9496931621       -1.9125797325       42.9008437609  TIP3      7519            0.0000000000
     72390      7920  TIP3      OH2           -32.1395896837      -15.6799537134       41.4378340587  TIP3      7520            0.0000000000
     72391      7920  TIP3      H1            -32.2201054987      -14.8034851501       41.8532972905  TIP3      7520            0.0000000000
     72392      7920  TIP3      H2            -31.2329575469      -15.8208487974       41.8071030988  TIP3      7520            0.0000000000
     72393      7921  TIP3      OH2           -33.7947179293       -5.1151714519       40.6857935267  TIP3      7521            0.0000000000
     72394      7921  TIP3      H1            -33.1554205462       -4.4444542569       40.9628742772  TIP3      7521            0.0000000000
     72395      7921  TIP3      H2            -33.2800148887       -5.5592922666       39.9825494364  TIP3      7521            0.0000000000
     72396      7922  TIP3      OH2           -35.4544977400      -12.4522956379       39.8005756276  TIP3      7522            0.0000000000
     72397      7922  TIP3      H1            -35.4847802967      -11.4964590700       39.9997561636  TIP3      7522            0.0000000000
     72398      7922  TIP3      H2            -36.3435197490      -12.6712172612       39.5308305289  TIP3      7522            0.0000000000
     72399      7923  TIP3      OH2           -27.7001635339       -2.6641324531       38.9529999563  TIP3      7523            0.0000000000
     72400      7923  TIP3      H1            -28.3683011569       -3.3250240053       39.2625673015  TIP3      7523            0.0000000000
     72401      7923  TIP3      H2            -26.9628454642       -3.2419617167       38.7210689579  TIP3      7523            0.0000000000
     72402      7924  TIP3      OH2           -23.1281516122       -2.8890140608       39.1572084830  TIP3      7524            0.0000000000
     72403      7924  TIP3      H1            -22.8353090612       -3.6662927256       39.6541203290  TIP3      7524            0.0000000000
     72404      7924  TIP3      H2            -22.3582579674       -2.6600723086       38.6192397455  TIP3      7524            0.0000000000
     72405      7925  TIP3      OH2           -32.2109502001       -6.9734772752       39.0318129830  TIP3      7525            0.0000000000
     72406      7925  TIP3      H1            -32.0822073127       -7.7579262010       39.5857828221  TIP3      7525            0.0000000000
     72407      7925  TIP3      H2            -31.4966159864       -7.0869372371       38.3723911215  TIP3      7525            0.0000000000
     72408      7926  TIP3      OH2           -26.7861993425       -5.9003293313       38.7806710852  TIP3      7526            0.0000000000
     72409      7926  TIP3      H1            -27.0745444870       -5.7567943524       39.6971362957  TIP3      7526            0.0000000000
     72410      7926  TIP3      H2            -27.0226568073       -6.8489669679       38.6482692115  TIP3      7526            0.0000000000
     72411      7927  TIP3      OH2           -31.0181060909       -8.9892928610       41.3545093699  TIP3      7527            0.0000000000
     72412      7927  TIP3      H1            -31.4856088622       -9.4908732789       42.0363422292  TIP3      7527            0.0000000000
     72413      7927  TIP3      H2            -30.7520319495       -9.6712941932       40.7073410709  TIP3      7527            0.0000000000
     72414      7928  TIP3      OH2           -29.9536796008      -10.7573887390       39.6138205364  TIP3      7528            0.0000000000
     72415      7928  TIP3      H1            -30.1122691364      -10.8841705761       38.6590574499  TIP3      7528            0.0000000000
     72416      7928  TIP3      H2            -28.9816872372      -10.6533255714       39.6712554309  TIP3      7528            0.0000000000
     72417      7929  TIP3      OH2           -20.5809986561       -8.3972686686       39.0919356526  TIP3      7529            0.0000000000
     72418      7929  TIP3      H1            -20.8148994607       -8.8041914795       38.2367110780  TIP3      7529            0.0000000000
     72419      7929  TIP3      H2            -20.5189864848       -7.4455949635       38.8379258573  TIP3      7529            0.0000000000
     72420      7930  TIP3      OH2           -30.0763355326       -0.0504519186       40.6684299106  TIP3      7530            0.0000000000
     72421      7930  TIP3      H1            -29.1115736221        0.0829924588       40.7507969532  TIP3      7530            0.0000000000
     72422      7930  TIP3      H2            -30.2875702940        0.5994200378       39.9830146787  TIP3      7530            0.0000000000
     72423      7931  TIP3      OH2           -36.5228648949       -5.4295145910       40.1252818841  TIP3      7531            0.0000000000
     72424      7931  TIP3      H1            -35.5700205050       -5.3485645955       40.3720543674  TIP3      7531            0.0000000000
     72425      7931  TIP3      H2            -36.4718678982       -6.1201175470       39.4302428547  TIP3      7531            0.0000000000
     72426      7932  TIP3      OH2           -19.3769339670       -9.6269987669       41.1821701377  TIP3      7532            0.0000000000
     72427      7932  TIP3      H1            -19.9397339032       -9.2231555951       40.4878976511  TIP3      7532            0.0000000000
     72428      7932  TIP3      H2            -19.4325762653       -8.9486256321       41.9078436601  TIP3      7532            0.0000000000
     72429      7933  TIP3      OH2           -21.0745595709      -12.3245838970       39.8131959741  TIP3      7533            0.0000000000
     72430      7933  TIP3      H1            -20.9874094165      -11.6791243409       39.1051811454  TIP3      7533            0.0000000000
     72431      7933  TIP3      H2            -21.2314698051      -13.1603981869       39.3225234868  TIP3      7533            0.0000000000
     72432      7934  TIP3      OH2           -21.8273386975      -14.9123309293       38.9203313597  TIP3      7534            0.0000000000
     72433      7934  TIP3      H1            -21.2244786925      -15.3147055564       39.5678479692  TIP3      7534            0.0000000000
     72434      7934  TIP3      H2            -22.6766790780      -15.3385019568       39.1250150591  TIP3      7534            0.0000000000
     72435      7935  TIP3      OH2           -19.7483249434      -16.0393570355       40.4693048360  TIP3      7535            0.0000000000
     72436      7935  TIP3      H1            -19.3138228523      -16.7736847334       39.9858116496  TIP3      7535            0.0000000000
     72437      7935  TIP3      H2            -19.0399447320      -15.3793339661       40.5394081868  TIP3      7535            0.0000000000
     72438      7936  TIP3      OH2           -36.1621572148      -18.0013993946       41.5535064474  TIP3      7536            0.0000000000
     72439      7936  TIP3      H1            -35.7132441829      -17.3600456323       40.9864708559  TIP3      7536            0.0000000000
     72440      7936  TIP3      H2            -36.7802836561      -17.4448691961       42.0275879270  TIP3      7536            0.0000000000
     72441      7937  TIP3      OH2           -34.3346319446      -16.0688466498       40.0036094982  TIP3      7537            0.0000000000
     72442      7937  TIP3      H1            -33.8218620187      -16.7098205291       39.4827450922  TIP3      7537            0.0000000000
     72443      7937  TIP3      H2            -33.6867013346      -15.7871476482       40.6841085633  TIP3      7537            0.0000000000
     72444      7938  TIP3      OH2           -27.4236791219       -0.8113576786       40.8803064340  TIP3      7538            0.0000000000
     72445      7938  TIP3      H1            -26.5279123103       -0.4954770625       40.6787378107  TIP3      7538            0.0000000000
     72446      7938  TIP3      H2            -27.6377270841       -1.2950744938       40.0503183242  TIP3      7538            0.0000000000
     72447      7939  TIP3      OH2           -34.4676036190       -1.1099117872       39.4831382149  TIP3      7539            0.0000000000
     72448      7939  TIP3      H1            -34.7294150455       -0.8437121157       40.3785098203  TIP3      7539            0.0000000000
     72449      7939  TIP3      H2            -33.6858399482       -1.6787683801       39.6399860432  TIP3      7539            0.0000000000
     72450      7940  TIP3      OH2            -8.3215404500      -10.9097923282       40.1867695035  TIP3      7540            0.0000000000
     72451      7940  TIP3      H1             -7.5971368839      -10.8902346388       40.8536867946  TIP3      7540            0.0000000000
     72452      7940  TIP3      H2             -7.9773803364      -11.5702087998       39.5755844440  TIP3      7540            0.0000000000
     72453      7941  TIP3      OH2            -6.1076014602      -10.1138980285       41.7172763689  TIP3      7541            0.0000000000
     72454      7941  TIP3      H1             -5.5903520978       -9.8896607996       42.5372707720  TIP3      7541            0.0000000000
     72455      7941  TIP3      H2             -5.6843737531       -9.5422632304       41.0514406440  TIP3      7541            0.0000000000
     72456      7942  TIP3      OH2            -2.3533572376      -18.2659375016       41.6546292604  TIP3      7542            0.0000000000
     72457      7942  TIP3      H1             -3.2748301674      -18.1413300637       41.9123502900  TIP3      7542            0.0000000000
     72458      7942  TIP3      H2             -2.1237387959      -17.4247090075       41.2321146793  TIP3      7542            0.0000000000
     72459      7943  TIP3      OH2            -1.1973084728       -3.9127870548       39.9731713460  TIP3      7543            0.0000000000
     72460      7943  TIP3      H1             -1.0776726854       -2.9649794761       40.1804443463  TIP3      7543            0.0000000000
     72461      7943  TIP3      H2             -0.2663681195       -4.1972688893       39.9774147271  TIP3      7543            0.0000000000
     72462      7944  TIP3      OH2            -5.7763638375       -1.1491983974       40.6766604391  TIP3      7544            0.0000000000
     72463      7944  TIP3      H1             -5.3744409885       -1.9122262521       40.2005137352  TIP3      7544            0.0000000000
     72464      7944  TIP3      H2             -5.7421071224       -1.4480784257       41.5952514401  TIP3      7544            0.0000000000
     72465      7945  TIP3      OH2            -4.5884437508       -8.9966434713       39.5022723093  TIP3      7545            0.0000000000
     72466      7945  TIP3      H1             -4.5790072122       -9.1940298748       38.5254213940  TIP3      7545            0.0000000000
     72467      7945  TIP3      H2             -3.7353439628       -8.5598148818       39.6075172314  TIP3      7545            0.0000000000
     72468      7946  TIP3      OH2            -9.0153228056      -15.0990161055       40.1043126748  TIP3      7546            0.0000000000
     72469      7946  TIP3      H1             -9.2843609173      -15.0874194127       41.0326077483  TIP3      7546            0.0000000000
     72470      7946  TIP3      H2             -9.2899476175      -15.9795180777       39.8024051030  TIP3      7546            0.0000000000
     72471      7947  TIP3      OH2           -12.1468536302      -14.6746672331       39.2105607893  TIP3      7547            0.0000000000
     72472      7947  TIP3      H1            -12.6014977561      -15.1024921686       39.9619223941  TIP3      7547            0.0000000000
     72473      7947  TIP3      H2            -12.8709317680      -14.2843260758       38.7004969434  TIP3      7547            0.0000000000
     72474      7948  TIP3      OH2           -17.6417362092      -14.2569127690       41.6450516773  TIP3      7548            0.0000000000
     72475      7948  TIP3      H1            -17.1410793187      -13.5951811155       41.1194611204  TIP3      7548            0.0000000000
     72476      7948  TIP3      H2            -18.3275219667      -13.6531900587       42.0192372129  TIP3      7548            0.0000000000
     72477      7949  TIP3      OH2           -13.5121396420      -11.9124306112       40.6258023913  TIP3      7549            0.0000000000
     72478      7949  TIP3      H1            -14.0581786700      -12.2671783197       39.8989565324  TIP3      7549            0.0000000000
     72479      7949  TIP3      H2            -12.6922881250      -11.6906197415       40.1579628540  TIP3      7549            0.0000000000
     72480      7950  TIP3      OH2            -6.2948673692      -14.5209856196       40.7052582013  TIP3      7550            0.0000000000
     72481      7950  TIP3      H1             -7.2486415501      -14.3924280402       40.5935152981  TIP3      7550            0.0000000000
     72482      7950  TIP3      H2             -5.9890096678      -13.6670432772       41.0734965937  TIP3      7550            0.0000000000
     72483      7951  TIP3      OH2            -5.5761529114      -12.6252429767       42.3856215080  TIP3      7551            0.0000000000
     72484      7951  TIP3      H1             -4.6765388039      -12.7717476011       42.7052234158  TIP3      7551            0.0000000000
     72485      7951  TIP3      H2             -5.5155507569      -11.8281686485       41.8419531267  TIP3      7551            0.0000000000
     72486      7952  TIP3      OH2            -8.0366041818       -5.8845125030       41.5664290223  TIP3      7552            0.0000000000
     72487      7952  TIP3      H1             -8.3795854969       -5.0521062563       41.9209727590  TIP3      7552            0.0000000000
     72488      7952  TIP3      H2             -8.7634631016       -6.4916180975       41.7685775582  TIP3      7552            0.0000000000
     72489      7953  TIP3      OH2            -0.5335319757      -12.4470772959       41.9826914642  TIP3      7553            0.0000000000
     72490      7953  TIP3      H1             -1.2261335705      -12.8101147381       41.3865824466  TIP3      7553            0.0000000000
     72491      7953  TIP3      H2             -0.5763152903      -11.4964771008       41.7877988182  TIP3      7553            0.0000000000
     72492      7954  TIP3      OH2           -16.9218693439       -9.6467462360       40.2678604406  TIP3      7554            0.0000000000
     72493      7954  TIP3      H1            -16.3104213730       -9.0167073397       40.7083067693  TIP3      7554            0.0000000000
     72494      7954  TIP3      H2            -17.7947411945       -9.3389507558       40.5681462412  TIP3      7554            0.0000000000
     72495      7955  TIP3      OH2            -4.9709317625       -5.6524899397       40.3627991395  TIP3      7555            0.0000000000
     72496      7955  TIP3      H1             -4.6548432767       -6.0229423736       41.1904265114  TIP3      7555            0.0000000000
     72497      7955  TIP3      H2             -5.9377463831       -5.7598580404       40.4656141304  TIP3      7555            0.0000000000
     72498      7956  TIP3      OH2            -0.5163391308       -1.2082738870       40.5561243930  TIP3      7556            0.0000000000
     72499      7956  TIP3      H1              0.2426874962       -0.6016583414       40.4702362971  TIP3      7556            0.0000000000
     72500      7956  TIP3      H2             -1.1972582455       -0.6065870196       40.9088725271  TIP3      7556            0.0000000000
     72501      7957  TIP3      OH2           -10.8741578093       -4.5317516169       38.8205989515  TIP3      7557            0.0000000000
     72502      7957  TIP3      H1            -10.6895546950       -5.3082489423       38.2768772178  TIP3      7557            0.0000000000
     72503      7957  TIP3      H2            -11.2015933807       -4.9458696659       39.6547727092  TIP3      7557            0.0000000000
     72504      7958  TIP3      OH2           -11.9926163499       -5.0105302839       41.2662074942  TIP3      7558            0.0000000000
     72505      7958  TIP3      H1            -11.8220374586       -5.4892840357       42.0874266327  TIP3      7558            0.0000000000
     72506      7958  TIP3      H2            -11.9517411493       -4.0837542947       41.5908141294  TIP3      7558            0.0000000000
     72507      7959  TIP3      OH2           -15.5953208152       -7.7388082102       41.7299266569  TIP3      7559            0.0000000000
     72508      7959  TIP3      H1            -16.2027082928       -7.3854805022       42.3697292877  TIP3      7559            0.0000000000
     72509      7959  TIP3      H2            -14.9876624297       -6.9884544031       41.5456050214  TIP3      7559            0.0000000000
     72510      7960  TIP3      OH2            -9.6055855703       -3.6032910559       41.3720631436  TIP3      7560            0.0000000000
     72511      7960  TIP3      H1            -10.0764145551       -2.9356287952       41.9369382232  TIP3      7560            0.0000000000
     72512      7960  TIP3      H2             -8.8424416914       -2.9587425843       41.3311159029  TIP3      7560            0.0000000000
     72513      7961  TIP3      OH2           -11.8743913031       -2.2722301733       42.0380893682  TIP3      7561            0.0000000000
     72514      7961  TIP3      H1            -11.7510832273       -1.4598189114       41.4854768598  TIP3      7561            0.0000000000
     72515      7961  TIP3      H2            -12.0936978472       -1.9126196072       42.9008509975  TIP3      7561            0.0000000000
     72516      7962  TIP3      OH2           -13.2836381585      -15.6800295462       41.4379580302  TIP3      7562            0.0000000000
     72517      7962  TIP3      H1            -13.3641052328      -14.8034645593       41.8532287879  TIP3      7562            0.0000000000
     72518      7962  TIP3      H2            -12.3769521114      -15.8208296779       41.8070760548  TIP3      7562            0.0000000000
     72519      7963  TIP3      OH2           -14.9386944606       -5.1151877587       40.6857632273  TIP3      7563            0.0000000000
     72520      7963  TIP3      H1            -14.2994023105       -4.4444783709       40.9628485036  TIP3      7563            0.0000000000
     72521      7963  TIP3      H2            -14.4241151656       -5.5593791156       39.9823467469  TIP3      7563            0.0000000000
     72522      7964  TIP3      OH2           -16.5987924127      -12.4507851029       39.7968412657  TIP3      7564            0.0000000000
     72523      7964  TIP3      H1            -16.6292063082      -11.4960989503       39.9999576165  TIP3      7564            0.0000000000
     72524      7964  TIP3      H2            -17.4882698600      -12.6710784777       39.5305980476  TIP3      7564            0.0000000000
     72525      7965  TIP3      OH2            -8.8439719710       -2.6641754432       38.9534522630  TIP3      7565            0.0000000000
     72526      7965  TIP3      H1             -9.5123355680       -3.3252620588       39.2621581389  TIP3      7565            0.0000000000
     72527      7965  TIP3      H2             -8.1066029138       -3.2419333620       38.7209744130  TIP3      7565            0.0000000000
     72528      7966  TIP3      OH2            -4.2710352234       -2.8871070596       39.1594267786  TIP3      7566            0.0000000000
     72529      7966  TIP3      H1             -3.9800679388       -3.6677583930       39.6521904176  TIP3      7566            0.0000000000
     72530      7966  TIP3      H2             -3.5023159509       -2.6600259963       38.6192900677  TIP3      7566            0.0000000000
     72531      7967  TIP3      OH2           -13.3559264396       -6.9737310291       39.0312203938  TIP3      7567            0.0000000000
     72532      7967  TIP3      H1            -13.2272215754       -7.7587360651       39.5836653753  TIP3      7567            0.0000000000
     72533      7967  TIP3      H2            -12.6399175481       -7.0866083513       38.3725953337  TIP3      7567            0.0000000000
     72534      7968  TIP3      OH2            -7.9322693640       -5.8966854925       38.7886869274  TIP3      7568            0.0000000000
     72535      7968  TIP3      H1             -8.2208167794       -5.7577017743       39.7030122729  TIP3      7568            0.0000000000
     72536      7968  TIP3      H2             -8.1633492192       -6.8473991906       38.6419509244  TIP3      7568            0.0000000000
     72537      7969  TIP3      OH2           -12.1621392658       -8.9893299696       41.3545827123  TIP3      7569            0.0000000000
     72538      7969  TIP3      H1            -12.6296154465       -9.4909453317       42.0363014575  TIP3      7569            0.0000000000
     72539      7969  TIP3      H2            -11.8959823472       -9.6712914280       40.7072435042  TIP3      7569            0.0000000000
     72540      7970  TIP3      OH2           -11.0977556416      -10.7576560516       39.6144212953  TIP3      7570            0.0000000000
     72541      7970  TIP3      H1            -11.2557894371      -10.8841116913       38.6589441522  TIP3      7570            0.0000000000
     72542      7970  TIP3      H2            -10.1257808443      -10.6532959386       39.6710739078  TIP3      7570            0.0000000000
     72543      7971  TIP3      OH2            -1.7250436210       -8.3971679839       39.0922975756  TIP3      7571            0.0000000000
     72544      7971  TIP3      H1             -1.9587928523       -8.8042691284       38.2365402729  TIP3      7571            0.0000000000
     72545      7971  TIP3      H2             -1.6629711747       -7.4457044551       38.8377057863  TIP3      7571            0.0000000000
     72546      7972  TIP3      OH2           -11.2202772456       -0.0505190058       40.6683517073  TIP3      7572            0.0000000000
     72547      7972  TIP3      H1            -10.2555644387        0.0830274661       40.7508096970  TIP3      7572            0.0000000000
     72548      7972  TIP3      H2            -11.4316372334        0.5994556482       39.9830399582  TIP3      7572            0.0000000000
     72549      7973  TIP3      OH2           -17.6669330721       -5.4285100164       40.1263279587  TIP3      7573            0.0000000000
     72550      7973  TIP3      H1            -16.7131454373       -5.3499115897       40.3698520138  TIP3      7573            0.0000000000
     72551      7973  TIP3      H2            -17.6181729006       -6.1189312403       39.4323530911  TIP3      7573            0.0000000000
     72552      7974  TIP3      OH2            -0.5209087716       -9.6269492988       41.1822268551  TIP3      7574            0.0000000000
     72553      7974  TIP3      H1             -1.0838176270       -9.2230256132       40.4879602571  TIP3      7574            0.0000000000
     72554      7974  TIP3      H2             -0.5765719824       -8.9486290917       41.9078709489  TIP3      7574            0.0000000000
     72555      7975  TIP3      OH2            -2.2168866791      -12.3259978040       39.8144178781  TIP3      7575            0.0000000000
     72556      7975  TIP3      H1             -2.1315500918      -11.6794979959       39.1057949141  TIP3      7575            0.0000000000
     72557      7975  TIP3      H2             -2.3756196859      -13.1605722056       39.3226398540  TIP3      7575            0.0000000000
     72558      7976  TIP3      OH2            -2.9718907145      -14.9041818177       38.9289359146  TIP3      7576            0.0000000000
     72559      7976  TIP3      H1             -2.3678439547      -15.3148286468       39.5688349804  TIP3      7576            0.0000000000
     72560      7976  TIP3      H2             -3.8192324207      -15.3437526449       39.1178253760  TIP3      7576            0.0000000000
     72561      7977  TIP3      OH2            -0.8917321744      -16.0393017621       40.4802909701  TIP3      7577            0.0000000000
     72562      7977  TIP3      H1             -0.4581377754      -16.7713612567       39.9892004341  TIP3      7577            0.0000000000
     72563      7977  TIP3      H2             -0.1834934485      -15.3782503222       40.5399496256  TIP3      7577            0.0000000000
     72564      7978  TIP3      OH2           -17.3056590889      -18.0017359712       41.5532009980  TIP3      7578            0.0000000000
     72565      7978  TIP3      H1            -16.8572494966      -17.3600365642       40.9864592290  TIP3      7578            0.0000000000
     72566      7978  TIP3      H2            -17.9242754150      -17.4448879331       42.0275796313  TIP3      7578            0.0000000000
     72567      7979  TIP3      OH2           -15.4787048097      -16.0689602463       40.0036765725  TIP3      7579            0.0000000000
     72568      7979  TIP3      H1            -14.9658240829      -16.7097634239       39.4827252482  TIP3      7579            0.0000000000
     72569      7979  TIP3      H2            -14.8306813984      -15.7870863706       40.6840422792  TIP3      7579            0.0000000000
     72570      7980  TIP3      OH2            -8.5675753417       -0.8115869086       40.8802106571  TIP3      7580            0.0000000000
     72571      7980  TIP3      H1             -7.6719414210       -0.4954106870       40.6787498125  TIP3      7580            0.0000000000
     72572      7980  TIP3      H2             -8.7817142363       -1.2951513450       40.0501869487  TIP3      7580            0.0000000000
     72573      7981  TIP3      OH2           -15.6116644532       -1.1100306303       39.4830973757  TIP3      7581            0.0000000000
     72574      7981  TIP3      H1            -15.8734185125       -0.8436520626       40.3785053997  TIP3      7581            0.0000000000
     72575      7981  TIP3      H2            -14.8298289391       -1.6787283822       39.6400189832  TIP3      7581            0.0000000000
     72576      7982  TIP3      OH2            10.5512300115      -10.9155656391       40.1878412830  TIP3      7582            0.0000000000
     72577      7982  TIP3      H1             11.2434559660      -10.8707814823       40.8692361295  TIP3      7582            0.0000000000
     72578      7982  TIP3      H2             10.8560534982      -11.5690713346       39.5564714987  TIP3      7582            0.0000000000
     72579      7983  TIP3      OH2            12.7901373080      -10.1735241241       41.6949752956  TIP3      7583            0.0000000000
     72580      7983  TIP3      H1             13.2537102199       -9.8754217519       42.5423206776  TIP3      7583            0.0000000000
     72581      7983  TIP3      H2             13.1611553073       -9.5155076558       41.0640717254  TIP3      7583            0.0000000000
     72582      7984  TIP3      OH2            16.5035541293      -18.2661000407       41.6540902030  TIP3      7584            0.0000000000
     72583      7984  TIP3      H1             15.5817688620      -18.1449463805       41.9115289996  TIP3      7584            0.0000000000
     72584      7984  TIP3      H2             16.7319325295      -17.4246497136       41.2320972429  TIP3      7584            0.0000000000
     72585      7985  TIP3      OH2            17.6589531324       -3.9128517353       39.9733218776  TIP3      7585            0.0000000000
     72586      7985  TIP3      H1             17.7782066908       -2.9649220904       40.1802907790  TIP3      7585            0.0000000000
     72587      7985  TIP3      H2             18.5894974569       -4.1971904734       39.9775041028  TIP3      7585            0.0000000000
     72588      7986  TIP3      OH2            13.0796548196       -1.1491434743       40.6767204417  TIP3      7586            0.0000000000
     72589      7986  TIP3      H1             13.4815338105       -1.9122301835       40.2005065550  TIP3      7586            0.0000000000
     72590      7986  TIP3      H2             13.1138710784       -1.4480841427       41.5952337987  TIP3      7586            0.0000000000
     72591      7987  TIP3      OH2            14.2753231899       -9.0335654170       39.5121899937  TIP3      7587            0.0000000000
     72592      7987  TIP3      H1             14.2774855413       -9.1864504965       38.5234570056  TIP3      7587            0.0000000000
     72593      7987  TIP3      H2             15.1150981456       -8.5523230545       39.6048465642  TIP3      7587            0.0000000000
     72594      7988  TIP3      OH2             9.8649871045      -15.1097272224       40.1174870145  TIP3      7588            0.0000000000
     72595      7988  TIP3      H1              9.5594294565      -15.0950051866       41.0340816417  TIP3      7588            0.0000000000
     72596      7988  TIP3      H2              9.5619278144      -15.9798790071       39.8024734315  TIP3      7588            0.0000000000
     72597      7989  TIP3      OH2             6.7098981595      -14.6750549388       39.2093273417  TIP3      7589            0.0000000000
     72598      7989  TIP3      H1              6.2550647227      -15.0971110686       39.9605630982  TIP3      7589            0.0000000000
     72599      7989  TIP3      H2              5.9862250666      -14.2830813874       38.6994649610  TIP3      7589            0.0000000000
     72600      7990  TIP3      OH2             1.2143480336      -14.2568985126       41.6452431651  TIP3      7590            0.0000000000
     72601      7990  TIP3      H1              1.7149459030      -13.5951921287       41.1193969065  TIP3      7590            0.0000000000
     72602      7990  TIP3      H2              0.5283737045      -13.6532537790       42.0191032624  TIP3      7590            0.0000000000
     72603      7991  TIP3      OH2             5.3456772781      -11.9095733612       40.6247231505  TIP3      7591            0.0000000000
     72604      7991  TIP3      H1              4.7991603392      -12.2678612321       39.8986639468  TIP3      7591            0.0000000000
     72605      7991  TIP3      H2              6.1644594247      -11.6864808005       40.1514223108  TIP3      7591            0.0000000000
     72606      7992  TIP3      OH2            12.5636624834      -14.4937885040       40.6911533568  TIP3      7592            0.0000000000
     72607      7992  TIP3      H1             11.5915544336      -14.4266124317       40.5948677990  TIP3      7592            0.0000000000
     72608      7992  TIP3      H2             12.8412262606      -13.7234590026       41.1346988713  TIP3      7592            0.0000000000
     72609      7993  TIP3      OH2            13.2961919505      -12.5946018423       42.6956292259  TIP3      7593            0.0000000000
     72610      7993  TIP3      H1             14.2341940133      -12.8110758797       42.7847398372  TIP3      7593            0.0000000000
     72611      7993  TIP3      H2             13.3176755430      -11.8352462447       42.1154996821  TIP3      7593            0.0000000000
     72612      7994  TIP3      OH2            10.8168609453       -5.8844733071       41.5638820990  TIP3      7594            0.0000000000
     72613      7994  TIP3      H1             10.4755933628       -5.0495998976       41.9225282559  TIP3      7594            0.0000000000
     72614      7994  TIP3      H2             10.0911109804       -6.4913422430       41.7677314745  TIP3      7594            0.0000000000
     72615      7995  TIP3      OH2            18.3249918326      -12.4549880485       41.9792696230  TIP3      7595            0.0000000000
     72616      7995  TIP3      H1             17.6381044780      -12.8157686536       41.3836333891  TIP3      7595            0.0000000000
     72617      7995  TIP3      H2             18.2863260001      -11.5017582782       41.7828138252  TIP3      7595            0.0000000000
     72618      7996  TIP3      OH2             1.9343876782       -9.6467397836       40.2677628552  TIP3      7596            0.0000000000
     72619      7996  TIP3      H1              2.5455463114       -9.0166242903       40.7084532978  TIP3      7596            0.0000000000
     72620      7996  TIP3      H2              1.0612947245       -9.3390001654       40.5680218156  TIP3      7596            0.0000000000
     72621      7997  TIP3      OH2            13.8827513688       -5.6531529728       40.3627772054  TIP3      7597            0.0000000000
     72622      7997  TIP3      H1             14.2005286904       -6.0225679830       41.1904194680  TIP3      7597            0.0000000000
     72623      7997  TIP3      H2             12.9128220313       -5.7618639962       40.4608642531  TIP3      7597            0.0000000000
     72624      7998  TIP3      OH2            18.3399129908       -1.2087012147       40.5565424393  TIP3      7598            0.0000000000
     72625      7998  TIP3      H1             19.0986635895       -0.6016031223       40.4702029536  TIP3      7598            0.0000000000
     72626      7998  TIP3      H2             17.6587011418       -0.6064936685       40.9089483440  TIP3      7598            0.0000000000
     72627      7999  TIP3      OH2             7.9878196786       -4.5193339530       38.8268337552  TIP3      7599            0.0000000000
     72628      7999  TIP3      H1              8.1581289589       -5.3148044708       38.2800680604  TIP3      7599            0.0000000000
     72629      7999  TIP3      H2              7.6539798062       -4.9463494074       39.6501481905  TIP3      7599            0.0000000000
     72630      8000  TIP3      OH2             6.8612043835       -5.0091500940       41.2678135871  TIP3      7600            0.0000000000
     72631      8000  TIP3      H1              7.0346511784       -5.4894297642       42.0872512986  TIP3      7600            0.0000000000
     72632      8000  TIP3      H2              6.9040778665       -4.0820938262       41.5927930475  TIP3      7600            0.0000000000
     72633      8001  TIP3      OH2             3.2604048632       -7.7388245620       41.7300204865  TIP3      7601            0.0000000000
     72634      8001  TIP3      H1              2.6531965029       -7.3855545489       42.3697712604  TIP3      7601            0.0000000000
     72635      8001  TIP3      H2              3.8676041996       -6.9880192272       41.5472098411  TIP3      7601            0.0000000000
     72636      8002  TIP3      OH2             9.2492964069       -3.6078935871       41.3690001205  TIP3      7602            0.0000000000
     72637      8002  TIP3      H1              8.7783388016       -2.9399653446       41.9327854788  TIP3      7602            0.0000000000
     72638      8002  TIP3      H2             10.0116970415       -2.9637018912       41.3261714642  TIP3      7602            0.0000000000
     72639      8003  TIP3      OH2             6.9818875638       -2.2722541470       42.0383461075  TIP3      7603            0.0000000000
     72640      8003  TIP3      H1              7.1049165748       -1.4602653072       41.4851253460  TIP3      7603            0.0000000000
     72641      8003  TIP3      H2              6.7620498861       -1.9127769766       42.9008854728  TIP3      7603            0.0000000000
     72642      8004  TIP3      OH2             5.5721750213      -15.6795965653       41.4375931829  TIP3      7604            0.0000000000
     72643      8004  TIP3      H1              5.4919543193      -14.8032780936       41.8533552243  TIP3      7604            0.0000000000
     72644      8004  TIP3      H2              6.4787324118      -15.8211562474       41.8070120090  TIP3      7604            0.0000000000
     72645      8005  TIP3      OH2             3.9210648382       -5.1187598235       40.6811788228  TIP3      7605            0.0000000000
     72646      8005  TIP3      H1              4.5572004859       -4.4456049723       40.9619932978  TIP3      7605            0.0000000000
     72647      8005  TIP3      H2              4.4370122599       -5.5631467996       39.9771116233  TIP3      7605            0.0000000000
     72648      8006  TIP3      OH2             2.2573459663      -12.4521895263       39.8007526416  TIP3      7606            0.0000000000
     72649      8006  TIP3      H1              2.2269708514      -11.4966593649       40.0000177868  TIP3      7606            0.0000000000
     72650      8006  TIP3      H2              1.3684444495      -12.6712087693       39.5306473947  TIP3      7606            0.0000000000
     72651      8007  TIP3      OH2            10.0112443495       -2.6660641377       38.9527604166  TIP3      7607            0.0000000000
     72652      8007  TIP3      H1              9.3427076732       -3.3270921648       39.2616368480  TIP3      7607            0.0000000000
     72653      8007  TIP3      H2             10.7493117333       -3.2434389630       38.7210031270  TIP3      7607            0.0000000000
     72654      8008  TIP3      OH2            14.5850290943       -2.8869729694       39.1594586623  TIP3      7608            0.0000000000
     72655      8008  TIP3      H1             14.8758940184       -3.6677168381       39.6521525031  TIP3      7608            0.0000000000
     72656      8008  TIP3      H2             15.3537391956       -2.6595141172       38.6191429273  TIP3      7608            0.0000000000
     72657      8009  TIP3      OH2             5.4928141398       -6.9700322190       39.0406059590  TIP3      7609            0.0000000000
     72658      8009  TIP3      H1              5.6325708075       -7.7620700223       39.5757565351  TIP3      7609            0.0000000000
     72659      8009  TIP3      H2              6.2098304544       -7.0832298124       38.3712942555  TIP3      7609            0.0000000000
     72660      8010  TIP3      OH2            10.9405411589       -5.8935246872       38.7912700950  TIP3      7610            0.0000000000
     72661      8010  TIP3      H1             10.6299725772       -5.7544033853       39.6994838674  TIP3      7610            0.0000000000
     72662      8010  TIP3      H2             10.6838485194       -6.8404462290       38.6366826272  TIP3      7610            0.0000000000
     72663      8011  TIP3      OH2             6.6946855572       -8.9908276413       41.3650571963  TIP3      7611            0.0000000000
     72664      8011  TIP3      H1              6.2245642970       -9.4956723043       42.0414980235  TIP3      7611            0.0000000000
     72665      8011  TIP3      H2              6.9588036237       -9.6664015609       40.7036555856  TIP3      7611            0.0000000000
     72666      8012  TIP3      OH2             7.7628383067      -10.7727503838       39.6506459600  TIP3      7612            0.0000000000
     72667      8012  TIP3      H1              7.6015684759      -10.8848046794       38.6687102935  TIP3      7612            0.0000000000
     72668      8012  TIP3      H2              8.7242764755      -10.6452884593       39.6616814633  TIP3      7612            0.0000000000
     72669      8013  TIP3      OH2            17.1194791922       -8.4032240325       39.0961637721  TIP3      7613            0.0000000000
     72670      8013  TIP3      H1             16.9005486389       -8.8006363406       38.2333647500  TIP3      7613            0.0000000000
     72671      8013  TIP3      H2             17.1925871518       -7.4503406111       38.8407276814  TIP3      7613            0.0000000000
     72672      8014  TIP3      OH2             7.6356344202       -0.0503376505       40.6686987355  TIP3      7614            0.0000000000
     72673      8014  TIP3      H1              8.6004672594        0.0829489608       40.7506751860  TIP3      7614            0.0000000000
     72674      8014  TIP3      H2              7.4244487844        0.5993611414       39.9829620577  TIP3      7614            0.0000000000
     72675      8015  TIP3      OH2             1.1891178295       -5.4284806959       40.1264428749  TIP3      7615            0.0000000000
     72676      8015  TIP3      H1              2.1429304519       -5.3499966338       40.3697311045  TIP3      7615            0.0000000000
     72677      8015  TIP3      H2              1.2377974764       -6.1189186532       39.4323148262  TIP3      7615            0.0000000000
     72678      8016  TIP3      OH2            18.3193032950       -9.6362946221       41.1889241600  TIP3      7616            0.0000000000
     72679      8016  TIP3      H1             17.7833425007       -9.2160429913       40.4802905255  TIP3      7616            0.0000000000
     72680      8016  TIP3      H2             18.2707998944       -8.9488272794       41.9000209059  TIP3      7616            0.0000000000
     72681      8017  TIP3      OH2            16.5887337641      -12.3189824624       39.8174020686  TIP3      7617            0.0000000000
     72682      8017  TIP3      H1             16.7407156821      -11.6814152367       39.1056718257  TIP3      7617            0.0000000000
     72683      8017  TIP3      H2             16.5003208406      -13.1636797116       39.3171113840  TIP3      7617            0.0000000000
     72684      8018  TIP3      OH2            15.8699647733      -14.8891849414       38.9410211294  TIP3      7618            0.0000000000
     72685      8018  TIP3      H1             16.4927880901      -15.3210809730       39.5584483829  TIP3      7618            0.0000000000
     72686      8018  TIP3      H2             15.0397480381      -15.3575303289       39.1169413649  TIP3      7618            0.0000000000
     72687      8019  TIP3      OH2            17.9687492950      -16.0390890623       40.4694459471  TIP3      7619            0.0000000000
     72688      8019  TIP3      H1             18.3923569234      -16.7780172911       39.9842371812  TIP3      7619            0.0000000000
     72689      8019  TIP3      H2             18.6695708901      -15.3789056181       40.5379579800  TIP3      7619            0.0000000000
     72690      8020  TIP3      OH2             1.5461592666      -17.9996692162       41.5524865897  TIP3      7620            0.0000000000
     72691      8020  TIP3      H1              2.0000912273      -17.3607149123       40.9868277516  TIP3      7620            0.0000000000
     72692      8020  TIP3      H2              0.9309781280      -17.4440271709       42.0279713860  TIP3      7620            0.0000000000
     72693      8021  TIP3      OH2             3.3776781815      -16.0691857871       40.0038521704  TIP3      7621            0.0000000000
     72694      8021  TIP3      H1              3.8901942703      -16.7102822830       39.4827984786  TIP3      7621            0.0000000000
     72695      8021  TIP3      H2              4.0266426464      -15.7898519225       40.6845974321  TIP3      7621            0.0000000000
     72696      8022  TIP3      OH2            10.2882119631       -0.8109331630       40.8803594620  TIP3      7622            0.0000000000
     72697      8022  TIP3      H1             11.1840850034       -0.4954569265       40.6788003683  TIP3      7622            0.0000000000
     72698      8022  TIP3      H2             10.0742979506       -1.2949807103       40.0505519524  TIP3      7622            0.0000000000
     72699      8023  TIP3      OH2             3.2443262304       -1.1099292261       39.4831908546  TIP3      7623            0.0000000000
     72700      8023  TIP3      H1              2.9825874756       -0.8437383435       40.3785270192  TIP3      7623            0.0000000000
     72701      8023  TIP3      H2              4.0261624072       -1.6787540240       39.6399379269  TIP3      7623            0.0000000000
     72702      8024  TIP3      OH2            29.4084497455      -10.8876191510       40.1705020216  TIP3      7624            0.0000000000
     72703      8024  TIP3      H1             30.1085956730      -10.8997737700       40.8629599473  TIP3      7624            0.0000000000
     72704      8024  TIP3      H2             29.7260957346      -11.5823225707       39.5815759770  TIP3      7624            0.0000000000
     72705      8025  TIP3      OH2            31.5996295088      -10.1099107855       41.7131237416  TIP3      7625            0.0000000000
     72706      8025  TIP3      H1             32.1170877441       -9.8959957175       42.5416953621  TIP3      7625            0.0000000000
     72707      8025  TIP3      H2             32.0397494790       -9.5465345530       41.0646937823  TIP3      7625            0.0000000000
     72708      8026  TIP3      OH2            35.3589140995      -18.2656931676       41.6548154129  TIP3      7626            0.0000000000
     72709      8026  TIP3      H1             34.4370924042      -18.1414813156       41.9122800716  TIP3      7626            0.0000000000
     72710      8026  TIP3      H2             35.5879782571      -17.4247039464       41.2318235394  TIP3      7626            0.0000000000
     72711      8027  TIP3      OH2            36.5140768866       -3.9136036105       39.9724237884  TIP3      7627            0.0000000000
     72712      8027  TIP3      H1             36.6342536074       -2.9655331917       40.1802691949  TIP3      7627            0.0000000000
     72713      8027  TIP3      H2             37.4454721919       -4.1972729139       39.9773680289  TIP3      7627            0.0000000000
     72714      8028  TIP3      OH2            31.9356350390       -1.1498404037       40.6792477313  TIP3      7628            0.0000000000
     72715      8028  TIP3      H1             32.3368944141       -1.9111565742       40.2010441192  TIP3      7628            0.0000000000
     72716      8028  TIP3      H2             31.9669544147       -1.4522699931       41.5912780287  TIP3      7628            0.0000000000
     72717      8029  TIP3      OH2            33.2622129826       -9.1248182500       39.6534117489  TIP3      7629            0.0000000000
     72718      8029  TIP3      H1             33.2342921878       -9.3462297038       38.7041317408  TIP3      7629            0.0000000000
     72719      8029  TIP3      H2             34.0476348048       -8.5551929256       39.6820579786  TIP3      7629            0.0000000000
     72720      8030  TIP3      OH2            28.6757874390      -15.0909554247       40.1015051106  TIP3      7630            0.0000000000
     72721      8030  TIP3      H1             28.4397181969      -15.0902137283       41.0374841864  TIP3      7630            0.0000000000
     72722      8030  TIP3      H2             28.4329426073      -15.9829386322       39.8031671827  TIP3      7630            0.0000000000
     72723      8031  TIP3      OH2            25.5537003811      -14.6585014212       39.2236176732  TIP3      7631            0.0000000000
     72724      8031  TIP3      H1             25.1743598297      -15.1457752314       39.9613320829  TIP3      7631            0.0000000000
     72725      8031  TIP3      H2             24.8672209967      -14.2793097934       38.6548513556  TIP3      7631            0.0000000000
     72726      8032  TIP3      OH2            20.0848016095      -14.2534050910       41.6443124308  TIP3      7632            0.0000000000
     72727      8032  TIP3      H1             20.5520534583      -13.5789375527       41.1180971573  TIP3      7632            0.0000000000
     72728      8032  TIP3      H2             19.3816777164      -13.6614197031       42.0208901551  TIP3      7632            0.0000000000
     72729      8033  TIP3      OH2            24.2068571511      -11.9813205186       40.6210937965  TIP3      7633            0.0000000000
     72730      8033  TIP3      H1             23.6468732540      -12.2175644354       39.8718090533  TIP3      7633            0.0000000000
     72731      8033  TIP3      H2             25.0187261240      -11.6699477390       40.1650557003  TIP3      7633            0.0000000000
     72732      8034  TIP3      OH2            31.4179649827      -14.5166247887       40.7005769109  TIP3      7634            0.0000000000
     72733      8034  TIP3      H1             30.4636973556      -14.3913763551       40.5939984192  TIP3      7634            0.0000000000
     72734      8034  TIP3      H2             31.7235256644      -13.6655553031       41.0742624874  TIP3      7634            0.0000000000
     72735      8035  TIP3      OH2            32.1350186594      -12.6275506639       42.3878822930  TIP3      7635            0.0000000000
     72736      8035  TIP3      H1             33.0355465882      -12.7717920186       42.7052724787  TIP3      7635            0.0000000000
     72737      8035  TIP3      H2             32.1971642408      -11.8318618813       41.8464714647  TIP3      7635            0.0000000000
     72738      8036  TIP3      OH2            29.6767291705       -5.8873617663       41.5575233450  TIP3      7636            0.0000000000
     72739      8036  TIP3      H1             29.3304081257       -5.0526998923       41.9236884785  TIP3      7636            0.0000000000
     72740      8036  TIP3      H2             28.9456288370       -6.4881878127       41.7746552538  TIP3      7636            0.0000000000
     72741      8037  TIP3      OH2            37.1829529531      -12.4534592094       41.9882362287  TIP3      7637            0.0000000000
     72742      8037  TIP3      H1             36.4870310694      -12.8079605108       41.3911141360  TIP3      7637            0.0000000000
     72743      8037  TIP3      H2             37.1367298141      -11.5008220042       41.7904634924  TIP3      7637            0.0000000000
     72744      8038  TIP3      OH2            20.7944844544       -9.6620001590       40.2860788145  TIP3      7638            0.0000000000
     72745      8038  TIP3      H1             21.4030105195       -9.0119371049       40.6988129725  TIP3      7638            0.0000000000
     72746      8038  TIP3      H2             19.9180553440       -9.3417629636       40.5602197177  TIP3      7638            0.0000000000
     72747      8039  TIP3      OH2            32.7349371476       -5.7018050349       40.3329891281  TIP3      7639            0.0000000000
     72748      8039  TIP3      H1             33.0582067365       -6.0039827683       41.1971960381  TIP3      7639            0.0000000000
     72749      8039  TIP3      H2             31.7691558715       -5.7429203215       40.4816673480  TIP3      7639            0.0000000000
     72750      8040  TIP3      OH2            37.1952039216       -1.2077223087       40.5562143036  TIP3      7640            0.0000000000
     72751      8040  TIP3      H1             37.9548150665       -0.6017920523       40.4701732016  TIP3      7640            0.0000000000
     72752      8040  TIP3      H2             36.5159466932       -0.6045595279       40.9100424319  TIP3      7640            0.0000000000
     72753      8041  TIP3      OH2            26.8386461373       -4.5319874554       38.8208501475  TIP3      7641            0.0000000000
     72754      8041  TIP3      H1             27.0217706100       -5.3080957613       38.2766301997  TIP3      7641            0.0000000000
     72755      8041  TIP3      H2             26.5101998222       -4.9458373455       39.6547947863  TIP3      7641            0.0000000000
     72756      8042  TIP3      OH2            25.7192389236       -5.0109091291       41.2666309491  TIP3      7642            0.0000000000
     72757      8042  TIP3      H1             25.8901839299       -5.4892260435       42.0877788774  TIP3      7642            0.0000000000
     72758      8042  TIP3      H2             25.7602109274       -4.0838005534       41.5907175205  TIP3      7642            0.0000000000
     72759      8043  TIP3      OH2            22.1167833020       -7.7422926704       41.7465632118  TIP3      7643            0.0000000000
     72760      8043  TIP3      H1             21.5062968118       -7.3709423422       42.3563600253  TIP3      7643            0.0000000000
     72761      8043  TIP3      H2             22.7260710710       -6.9927592051       41.5372315886  TIP3      7643            0.0000000000
     72762      8044  TIP3      OH2            28.1078035072       -3.6012975773       41.3765598226  TIP3      7644            0.0000000000
     72763      8044  TIP3      H1             27.6319841134       -2.9333393729       41.9383151012  TIP3      7644            0.0000000000
     72764      8044  TIP3      H2             28.8701382013       -2.9572574042       41.3310893480  TIP3      7644            0.0000000000
     72765      8045  TIP3      OH2            25.8383284232       -2.2719455644       42.0367745229  TIP3      7645            0.0000000000
     72766      8045  TIP3      H1             25.9608848683       -1.4599975756       41.4850243601  TIP3      7645            0.0000000000
     72767      8045  TIP3      H2             25.6180626942       -1.9128071938       42.9005095102  TIP3      7645            0.0000000000
     72768      8046  TIP3      OH2            24.4830412685      -15.7826676534       41.5458974077  TIP3      7646            0.0000000000
     72769      8046  TIP3      H1             24.4055845326      -14.8881662706       41.9288254254  TIP3      7646            0.0000000000
     72770      8046  TIP3      H2             25.4260277262      -15.8572635197       41.8615795700  TIP3      7646            0.0000000000
     72771      8047  TIP3      OH2            22.7731152541       -5.1152353713       40.6855537926  TIP3      7647            0.0000000000
     72772      8047  TIP3      H1             23.4127272067       -4.4446204280       40.9627834609  TIP3      7647            0.0000000000
     72773      8047  TIP3      H2             23.2878695367       -5.5594181751       39.9819080975  TIP3      7647            0.0000000000
     72774      8048  TIP3      OH2            21.1297495671      -12.4660283752       39.7982813249  TIP3      7648            0.0000000000
     72775      8048  TIP3      H1             21.0795427159      -11.5003145950       39.9982766108  TIP3      7648            0.0000000000
     72776      8048  TIP3      H2             20.2247435210      -12.6640781892       39.5305950651  TIP3      7648            0.0000000000
     72777      8049  TIP3      OH2            28.8678211225       -2.6617942896       38.9574818107  TIP3      7649            0.0000000000
     72778      8049  TIP3      H1             28.1995891007       -3.3250986556       39.2621409910  TIP3      7649            0.0000000000
     72779      8049  TIP3      H2             29.6033581729       -3.2355852224       38.7214473100  TIP3      7649            0.0000000000
     72780      8050  TIP3      OH2            33.4344664240       -2.8990395846       39.1518037739  TIP3      7650            0.0000000000
     72781      8050  TIP3      H1             33.7384338664       -3.6605565975       39.6583781759  TIP3      7650            0.0000000000
     72782      8050  TIP3      H2             34.2098671344       -2.6536190696       38.6222481187  TIP3      7650            0.0000000000
     72783      8051  TIP3      OH2            24.3563939259       -6.9739271213       39.0310486371  TIP3      7651            0.0000000000
     72784      8051  TIP3      H1             24.4848360311       -7.7587274175       39.5837508338  TIP3      7651            0.0000000000
     72785      8051  TIP3      H2             25.0718805091       -7.0864320613       38.3726626943  TIP3      7651            0.0000000000
     72786      8052  TIP3      OH2            29.8132936949       -5.9174099869       38.7916570025  TIP3      7652            0.0000000000
     72787      8052  TIP3      H1             29.4794218905       -5.7455327384       39.6956239582  TIP3      7652            0.0000000000
     72788      8052  TIP3      H2             29.5184260100       -6.8443159394       38.6453928577  TIP3      7652            0.0000000000
     72789      8053  TIP3      OH2            25.5480673402       -8.9882570597       41.3528956586  TIP3      7653            0.0000000000
     72790      8053  TIP3      H1             25.0851746345       -9.4856023819       42.0397328178  TIP3      7653            0.0000000000
     72791      8053  TIP3      H2             25.8212304089       -9.6643883257       40.7074776575  TIP3      7653            0.0000000000
     72792      8054  TIP3      OH2            26.6050558723      -10.7763452928       39.6153975940  TIP3      7654            0.0000000000
     72793      8054  TIP3      H1             26.4635549007      -10.8710437692       38.6531260002  TIP3      7654            0.0000000000
     72794      8054  TIP3      H2             27.5778538096      -10.6518675317       39.6748625639  TIP3      7654            0.0000000000
     72795      8055  TIP3      OH2            35.9488526093       -8.3911366302       39.0913341204  TIP3      7655            0.0000000000
     72796      8055  TIP3      H1             35.7795525486       -8.8097443135       38.2285869584  TIP3      7655            0.0000000000
     72797      8055  TIP3      H2             36.0691641661       -7.4435521985       38.8389214340  TIP3      7655            0.0000000000
     72798      8056  TIP3      OH2            26.4917213815       -0.0504265966       40.6684758086  TIP3      7656            0.0000000000
     72799      8056  TIP3      H1             27.4564082210        0.0830878829       40.7506633686  TIP3      7656            0.0000000000
     72800      8056  TIP3      H2             26.2803991106        0.5993948751       39.9830226630  TIP3      7656            0.0000000000
     72801      8057  TIP3      OH2            20.0447294494       -5.4386722087       40.1415354722  TIP3      7657            0.0000000000
     72802      8057  TIP3      H1             21.0018759088       -5.3452743191       40.3620737507  TIP3      7657            0.0000000000
     72803      8057  TIP3      H2             20.0930552613       -6.1175481282       39.4343053941  TIP3      7657            0.0000000000
     72804      8058  TIP3      OH2            37.1890452815       -9.6277493948       41.1801134455  TIP3      7658            0.0000000000
     72805      8058  TIP3      H1             36.6317234709       -9.2226382523       40.4887839466  TIP3      7658            0.0000000000
     72806      8058  TIP3      H2             37.1348035459       -8.9495062131       41.9066636274  TIP3      7658            0.0000000000
     72807      8059  TIP3      OH2            35.4816076890      -12.3181115754       39.8116383793  TIP3      7659            0.0000000000
     72808      8059  TIP3      H1             35.5899922357      -11.6836382295       39.1021727945  TIP3      7659            0.0000000000
     72809      8059  TIP3      H2             35.3394057393      -13.1608434963       39.3245242452  TIP3      7659            0.0000000000
     72810      8060  TIP3      OH2            34.7409030236      -14.9118412876       38.9207295828  TIP3      7660            0.0000000000
     72811      8060  TIP3      H1             35.3433790466      -15.3149385736       39.5678560938  TIP3      7660            0.0000000000
     72812      8060  TIP3      H2             33.8914108792      -15.3383993627       39.1248722353  TIP3      7660            0.0000000000
     72813      8061  TIP3      OH2            36.8192241771      -16.0400198782       40.4693556272  TIP3      7661            0.0000000000
     72814      8061  TIP3      H1             37.2538425148      -16.7738329281       39.9855205715  TIP3      7661            0.0000000000
     72815      8061  TIP3      H2             37.5243658104      -15.3774528056       40.5307798867  TIP3      7661            0.0000000000
     72816      8062  TIP3      OH2            20.4145580604      -17.9961733341       41.5586334077  TIP3      7662            0.0000000000
     72817      8062  TIP3      H1             20.8425244092      -17.3650953240       40.9780713532  TIP3      7662            0.0000000000
     72818      8062  TIP3      H2             19.7805548544      -17.4518341313       42.0292258606  TIP3      7662            0.0000000000
     72819      8063  TIP3      OH2            22.1915838975      -16.1380480143       39.9995443058  TIP3      7663            0.0000000000
     72820      8063  TIP3      H1             22.7204632059      -16.7622915448       39.4591798553  TIP3      7663            0.0000000000
     72821      8063  TIP3      H2             22.7890040835      -15.9234467424       40.7299456480  TIP3      7663            0.0000000000
     72822      8064  TIP3      OH2            29.1443771242       -0.8122644833       40.8802818311  TIP3      7664            0.0000000000
     72823      8064  TIP3      H1             30.0397947787       -0.4951969708       40.6786206700  TIP3      7664            0.0000000000
     72824      8064  TIP3      H2             28.9293582427       -1.2943761573       40.0491394240  TIP3      7664            0.0000000000
     72825      8065  TIP3      OH2            22.1003213187       -1.1099195353       39.4822876756  TIP3      7665            0.0000000000
     72826      8065  TIP3      H1             21.8399491836       -0.8400982974       40.3764108774  TIP3      7665            0.0000000000
     72827      8065  TIP3      H2             22.8830383820       -1.6773438970       39.6384518997  TIP3      7665            0.0000000000
     72828      8066  TIP3      OH2            48.2471606276      -10.9147353504       40.1797430045  TIP3      7666            0.0000000000
     72829      8066  TIP3      H1             48.9663988076      -10.8848995960       40.8580687975  TIP3      7666            0.0000000000
     72830      8066  TIP3      H2             48.6000366627      -11.5704504084       39.5830443186  TIP3      7666            0.0000000000
     72831      8067  TIP3      OH2            50.4551844204      -10.1070195618       41.7238238638  TIP3      7667            0.0000000000
     72832      8067  TIP3      H1             50.9763269589       -9.8921133997       42.5386891563  TIP3      7667            0.0000000000
     72833      8067  TIP3      H2             50.8761876764       -9.5446614384       41.0493833041  TIP3      7667            0.0000000000
     72834      8068  TIP3      OH2            54.2017865237      -18.2637321127       41.6448237476  TIP3      7668            0.0000000000
     72835      8068  TIP3      H1             53.2836517549      -18.1382133586       41.9190979685  TIP3      7668            0.0000000000
     72836      8068  TIP3      H2             54.4422985084      -17.4172926657       41.2521497278  TIP3      7668            0.0000000000
     72837      8069  TIP3      OH2            55.3466890056       -3.8965716608       39.9647016567  TIP3      7669            0.0000000000
     72838      8069  TIP3      H1             55.4807018122       -2.9591673533       40.1813125708  TIP3      7669            0.0000000000
     72839      8069  TIP3      H2             56.2809021694       -4.2056169684       39.9836615780  TIP3      7669            0.0000000000
     72840      8070  TIP3      OH2            50.7927068476       -1.1491186712       40.6777361434  TIP3      7670            0.0000000000
     72841      8070  TIP3      H1             51.1892581429       -1.9157679606       40.2005304229  TIP3      7670            0.0000000000
     72842      8070  TIP3      H2             50.8259611528       -1.4482296765       41.5957851122  TIP3      7670            0.0000000000
     72843      8071  TIP3      OH2            51.9746027349       -8.9989967989       39.5053226874  TIP3      7671            0.0000000000
     72844      8071  TIP3      H1             51.9829163049       -9.1965009742       38.5319261776  TIP3      7671            0.0000000000
     72845      8071  TIP3      H2             52.8262745354       -8.5615849537       39.6052024536  TIP3      7671            0.0000000000
     72846      8072  TIP3      OH2            47.5528112612      -15.0937216037       40.0782868689  TIP3      7672            0.0000000000
     72847      8072  TIP3      H1             47.2906629057      -15.0855036023       41.0216969646  TIP3      7672            0.0000000000
     72848      8072  TIP3      H2             47.2740376075      -15.9885350172       39.8188866253  TIP3      7672            0.0000000000
     72849      8073  TIP3      OH2            44.4154501174      -14.6869999834       39.2138034533  TIP3      7673            0.0000000000
     72850      8073  TIP3      H1             43.9588249247      -15.1050067134       39.9692523050  TIP3      7673            0.0000000000
     72851      8073  TIP3      H2             43.6871014193      -14.2851939492       38.7110450798  TIP3      7673            0.0000000000
     72852      8074  TIP3      OH2            38.9354230086      -14.2573483672       41.6644116353  TIP3      7674            0.0000000000
     72853      8074  TIP3      H1             39.4230083605      -13.5979610951       41.1150212513  TIP3      7674            0.0000000000
     72854      8074  TIP3      H2             38.2367502258      -13.6495307808       42.0101603210  TIP3      7674            0.0000000000
     72855      8075  TIP3      OH2            43.0524705183      -11.9120578742       40.6285133386  TIP3      7675            0.0000000000
     72856      8075  TIP3      H1             42.5110225222      -12.2672587298       39.8986187564  TIP3      7675            0.0000000000
     72857      8075  TIP3      H2             43.8714973980      -11.6880051030       40.1624966970  TIP3      7675            0.0000000000
     72858      8076  TIP3      OH2            50.2751948038      -14.5133162562       40.6893667014  TIP3      7676            0.0000000000
     72859      8076  TIP3      H1             49.3196195847      -14.3941038299       40.6089080297  TIP3      7676            0.0000000000
     72860      8076  TIP3      H2             50.5831518983      -13.6701617231       41.0830518077  TIP3      7676            0.0000000000
     72861      8077  TIP3      OH2            50.9946947031      -12.6280801782       42.3830152353  TIP3      7677            0.0000000000
     72862      8077  TIP3      H1             51.8937367947      -12.7726587672       42.7030642592  TIP3      7677            0.0000000000
     72863      8077  TIP3      H2             51.0529512538      -11.8275458451       41.8442277730  TIP3      7677            0.0000000000
     72864      8078  TIP3      OH2            48.5312402740       -5.8842444525       41.5663318178  TIP3      7678            0.0000000000
     72865      8078  TIP3      H1             48.1882301233       -5.0518565152       41.9208616014  TIP3      7678            0.0000000000
     72866      8078  TIP3      H2             47.8045563534       -6.4915799999       41.7686406807  TIP3      7678            0.0000000000
     72867      8079  TIP3      OH2            55.9785958684      -12.4115263523       42.0130834480  TIP3      7679            0.0000000000
     72868      8079  TIP3      H1             55.3313700647      -12.8052492588       41.3831117740  TIP3      7679            0.0000000000
     72869      8079  TIP3      H2             55.9959035320      -11.4771553776       41.7689681783  TIP3      7679            0.0000000000
     72870      8080  TIP3      OH2            39.6456274997       -9.6468245696       40.2681059066  TIP3      7680            0.0000000000
     72871      8080  TIP3      H1             40.2575707163       -9.0167452245       40.7082759754  TIP3      7680            0.0000000000
     72872      8080  TIP3      H2             38.7728723636       -9.3372237866       40.5665533897  TIP3      7680            0.0000000000
     72873      8081  TIP3      OH2            51.5898966636       -5.6589552682       40.3608254382  TIP3      7681            0.0000000000
     72874      8081  TIP3      H1             51.9011303081       -6.0218497798       41.1873697233  TIP3      7681            0.0000000000
     72875      8081  TIP3      H2             50.6236351835       -5.7574172891       40.4610201894  TIP3      7681            0.0000000000
     72876      8082  TIP3      OH2            56.0476817792       -1.1998977182       40.5441613669  TIP3      7682            0.0000000000
     72877      8082  TIP3      H1             56.8204636165       -0.6089007159       40.4838271092  TIP3      7682            0.0000000000
     72878      8082  TIP3      H2             55.3679933591       -0.6168315372       40.9314135430  TIP3      7682            0.0000000000
     72879      8083  TIP3      OH2            45.6938432877       -4.5318228107       38.8206451350  TIP3      7683            0.0000000000
     72880      8083  TIP3      H1             45.8784175731       -5.3081870527       38.2768374706  TIP3      7683            0.0000000000
     72881      8083  TIP3      H2             45.3663609169       -4.9458256992       39.6547904572  TIP3      7683            0.0000000000
     72882      8084  TIP3      OH2            44.5754248119       -5.0105360755       41.2662210113  TIP3      7684            0.0000000000
     72883      8084  TIP3      H1             44.7459449439       -5.4892568251       42.0874311985  TIP3      7684            0.0000000000
     72884      8084  TIP3      H2             44.6162392600       -4.0837376915       41.5907936224  TIP3      7684            0.0000000000
     72885      8085  TIP3      OH2            40.9725673046       -7.7388742289       41.7298825131  TIP3      7685            0.0000000000
     72886      8085  TIP3      H1             40.3657126929       -7.3848703119       42.3698260727  TIP3      7685            0.0000000000
     72887      8085  TIP3      H2             41.5802726642       -6.9884888968       41.5456116182  TIP3      7685            0.0000000000
     72888      8086  TIP3      OH2            46.9625401436       -3.6032576032       41.3721521108  TIP3      7686            0.0000000000
     72889      8086  TIP3      H1             46.4915667250       -2.9356065404       41.9369244360  TIP3      7686            0.0000000000
     72890      8086  TIP3      H2             47.7255425693       -2.9586863864       41.3310839363  TIP3      7686            0.0000000000
     72891      8087  TIP3      OH2            44.6936042608       -2.2724135156       42.0381493877  TIP3      7687            0.0000000000
     72892      8087  TIP3      H1             44.8169676362       -1.4602333561       41.4852729315  TIP3      7687            0.0000000000
     72893      8087  TIP3      H2             44.4742931603       -1.9125810856       42.9008302666  TIP3      7687            0.0000000000
     72894      8088  TIP3      OH2            43.2828918017      -15.6803225511       41.4456053666  TIP3      7688            0.0000000000
     72895      8088  TIP3      H1             43.2110314466      -14.7979166744       41.8459350456  TIP3      7688            0.0000000000
     72896      8088  TIP3      H2             44.1956498005      -15.8201804557       41.8009451468  TIP3      7688            0.0000000000
     72897      8089  TIP3      OH2            41.6293071982       -5.1151900481       40.6857589489  TIP3      7689            0.0000000000
     72898      8089  TIP3      H1             42.2685854563       -4.4444715362       40.9628523633  TIP3      7689            0.0000000000
     72899      8089  TIP3      H2             42.1438809743       -5.5593771906       39.9823498574  TIP3      7689            0.0000000000
     72900      8090  TIP3      OH2            39.9687670026      -12.4516585322       39.8011376111  TIP3      7690            0.0000000000
     72901      8090  TIP3      H1             39.9386013692      -11.4948082711       39.9973536253  TIP3      7690            0.0000000000
     72902      8090  TIP3      H2             39.0804477957      -12.6710445268       39.5302629316  TIP3      7690            0.0000000000
     72903      8091  TIP3      OH2            47.7216895351       -2.6636404011       38.9521017983  TIP3      7691            0.0000000000
     72904      8091  TIP3      H1             47.0554071902       -3.3252730048       39.2625803344  TIP3      7691            0.0000000000
     72905      8091  TIP3      H2             48.4609443981       -3.2414796619       38.7209582017  TIP3      7691            0.0000000000
     72906      8092  TIP3      OH2            52.2863015292       -2.8810722607       39.1613465947  TIP3      7692            0.0000000000
     72907      8092  TIP3      H1             52.5827310592       -3.6668740589       39.6501327477  TIP3      7692            0.0000000000
     72908      8092  TIP3      H2             53.0633364011       -2.6638147474       38.6188645181  TIP3      7692            0.0000000000
     72909      8093  TIP3      OH2            43.2121476422       -6.9737672412       39.0312402356  TIP3      7693            0.0000000000
     72910      8093  TIP3      H1             43.3406516800       -7.7587491920       39.5837266890  TIP3      7693            0.0000000000
     72911      8093  TIP3      H2             43.9280243639       -7.0864992995       38.3725935662  TIP3      7693            0.0000000000
     72912      8094  TIP3      OH2            48.6361015245       -5.8976164519       38.7887741822  TIP3      7694            0.0000000000
     72913      8094  TIP3      H1             48.3471116518       -5.7575666026       39.7029328324  TIP3      7694            0.0000000000
     72914      8094  TIP3      H2             48.4039632497       -6.8473871732       38.6414178457  TIP3      7694            0.0000000000
     72915      8095  TIP3      OH2            44.4020762637       -8.9953525754       41.3532823245  TIP3      7695            0.0000000000
     72916      8095  TIP3      H1             43.9374323785       -9.4928057032       42.0374181202  TIP3      7695            0.0000000000
     72917      8095  TIP3      H2             44.6718334873       -9.6739196906       40.7062963899  TIP3      7695            0.0000000000
     72918      8096  TIP3      OH2            45.4751733411      -10.7675948289       39.6137520773  TIP3      7696            0.0000000000
     72919      8096  TIP3      H1             45.3039493249      -10.8783081806       38.6597576172  TIP3      7696            0.0000000000
     72920      8096  TIP3      H2             46.4426746791      -10.6462973237       39.6767721888  TIP3      7696            0.0000000000
     72921      8097  TIP3      OH2            54.8539121114       -8.3846019748       39.0945028112  TIP3      7697            0.0000000000
     72922      8097  TIP3      H1             54.5929414897       -8.7998787014       38.2557023244  TIP3      7697            0.0000000000
     72923      8097  TIP3      H2             54.8970994172       -7.4328498238       38.8557101481  TIP3      7697            0.0000000000
     72924      8098  TIP3      OH2            45.3476670400       -0.0504564778       40.6684371317  TIP3      7698            0.0000000000
     72925      8098  TIP3      H1             46.3124178112        0.0829945682       40.7508057003  TIP3      7698            0.0000000000
     72926      8098  TIP3      H2             45.1364305993        0.5994173477       39.9830124626  TIP3      7698            0.0000000000
     72927      8099  TIP3      OH2            38.9009140180       -5.4286737701       40.1263624105  TIP3      7699            0.0000000000
     72928      8099  TIP3      H1             39.8548199019       -5.3498440379       40.3698727737  TIP3      7699            0.0000000000
     72929      8099  TIP3      H2             38.9499691903       -6.1188855721       39.4323242356  TIP3      7699            0.0000000000
     72930      8100  TIP3      OH2            55.9649791863       -9.6466877807       41.2120754052  TIP3      7700            0.0000000000
     72931      8100  TIP3      H1             55.4814106017       -9.2207143044       40.4707265698  TIP3      7700            0.0000000000
     72932      8100  TIP3      H2             55.9980215781       -8.9384437379       41.9016151184  TIP3      7700            0.0000000000
     72933      8101  TIP3      OH2            54.3370975927      -12.3167648749       39.8221275516  TIP3      7701            0.0000000000
     72934      8101  TIP3      H1             54.4381121099      -11.6841969074       39.1089516364  TIP3      7701            0.0000000000
     72935      8101  TIP3      H2             54.1833542704      -13.1467500902       39.3237949117  TIP3      7701            0.0000000000
     72936      8102  TIP3      OH2            53.5911522830      -14.9246792865       38.9104054754  TIP3      7702            0.0000000000
     72937      8102  TIP3      H1             54.1898705607      -15.3023369338       39.5749629045  TIP3      7702            0.0000000000
     72938      8102  TIP3      H2             52.7403355693      -15.3315452158       39.1356380176  TIP3      7702            0.0000000000
     72939      8103  TIP3      OH2            55.6751822507      -16.0538036448       40.4440348985  TIP3      7703            0.0000000000
     72940      8103  TIP3      H1             56.1301064744      -16.7627572438       40.0033094234  TIP3      7703            0.0000000000
     72941      8103  TIP3      H2             56.3800094740      -15.3814884681       40.5569702982  TIP3      7703            0.0000000000
     72942      8104  TIP3      OH2            39.2742746076      -17.9937388299       41.5737183772  TIP3      7704            0.0000000000
     72943      8104  TIP3      H1             39.7069243755      -17.3639658412       40.9797648010  TIP3      7704            0.0000000000
     72944      8104  TIP3      H2             38.6324400067      -17.4445539762       42.0152180756  TIP3      7704            0.0000000000
     72945      8105  TIP3      OH2            41.0917516566      -16.0696028011       40.0115168299  TIP3      7705            0.0000000000
     72946      8105  TIP3      H1             41.6055534016      -16.7039043221       39.4815355214  TIP3      7705            0.0000000000
     72947      8105  TIP3      H2             41.7498106773      -15.7813742870       40.6742011425  TIP3      7705            0.0000000000
     72948      8106  TIP3      OH2            48.0004449483       -0.8114289809       40.8802423748  TIP3      7706            0.0000000000
     72949      8106  TIP3      H1             48.8960931931       -0.4954439980       40.6787671713  TIP3      7706            0.0000000000
     72950      8106  TIP3      H2             47.7862629404       -1.2950988406       40.0502785119  TIP3      7706            0.0000000000
     72951      8107  TIP3      OH2            40.9563953878       -1.1099223821       39.4831064233  TIP3      7707            0.0000000000
     72952      8107  TIP3      H1             40.6946218011       -0.8437116697       40.3784907727  TIP3      7707            0.0000000000
     72953      8107  TIP3      H2             41.7381623877       -1.6787719121       39.6400028599  TIP3      7707            0.0000000000
     72954      8108  TIP3      OH2           -46.0072750330        7.9535860245       40.1921022841  TIP3      7708            0.0000000000
     72955      8108  TIP3      H1            -45.3000043906        7.9608934518       40.8620791796  TIP3      7708            0.0000000000
     72956      8108  TIP3      H2            -45.6984569847        7.2869981788       39.5735159584  TIP3      7708            0.0000000000
     72957      8109  TIP3      OH2           -43.8210704270        8.7427486214       41.7173450819  TIP3      7709            0.0000000000
     72958      8109  TIP3      H1            -43.3021829262        8.9664450772       42.5372828767  TIP3      7709            0.0000000000
     72959      8109  TIP3      H2            -43.3961737760        9.3131205781       41.0512450173  TIP3      7709            0.0000000000
     72960      8110  TIP3      OH2           -40.0653271512        0.5900613634       41.6544003099  TIP3      7710            0.0000000000
     72961      8110  TIP3      H1            -40.9867031047        0.7145129077       41.9125218238  TIP3      7710            0.0000000000
     72962      8110  TIP3      H2            -39.8358424177        1.4313532976       41.2320913424  TIP3      7710            0.0000000000
     72963      8111  TIP3      OH2           -38.9126977844       14.9427617801       39.9697190376  TIP3      7711            0.0000000000
     72964      8111  TIP3      H1            -38.7862141525       15.8926188552       40.1828674615  TIP3      7711            0.0000000000
     72965      8111  TIP3      H2            -37.9793866257       14.6593228151       39.9782535855  TIP3      7711            0.0000000000
     72966      8112  TIP3      OH2           -43.4895912733       17.7062695309       40.6755990010  TIP3      7712            0.0000000000
     72967      8112  TIP3      H1            -43.0863254884       16.9436923200       40.2003728876  TIP3      7712            0.0000000000
     72968      8112  TIP3      H2            -43.4540751931       17.4080518451       41.5949220666  TIP3      7712            0.0000000000
     72969      8113  TIP3      OH2           -42.3000295066        9.8593083467       39.5023615457  TIP3      7713            0.0000000000
     72970      8113  TIP3      H1            -42.2910922925        9.6618515569       38.5254664311  TIP3      7713            0.0000000000
     72971      8113  TIP3      H2            -41.4473021734       10.2962201334       39.6075044135  TIP3      7713            0.0000000000
     72972      8114  TIP3      OH2           -46.7233341553        3.7555048779       40.1055414147  TIP3      7714            0.0000000000
     72973      8114  TIP3      H1            -46.9975546125        3.7701223355       41.0318600142  TIP3      7714            0.0000000000
     72974      8114  TIP3      H2            -47.0038665400        2.8782071432       39.8029023680  TIP3      7714            0.0000000000
     72975      8115  TIP3      OH2           -49.8600432064        4.1594103947       39.2034939565  TIP3      7715            0.0000000000
     72976      8115  TIP3      H1            -50.3177624632        3.7498742150       39.9634566902  TIP3      7715            0.0000000000
     72977      8115  TIP3      H2            -50.5780480227        4.5753195521       38.7007297950  TIP3      7715            0.0000000000
     72978      8116  TIP3      OH2           -55.3224862635        4.5615243760       41.6473555134  TIP3      7716            0.0000000000
     72979      8116  TIP3      H1            -54.8395483246        5.2485776558       41.1240662307  TIP3      7716            0.0000000000
     72980      8116  TIP3      H2            -56.0105919826        5.1752261700       42.0182020263  TIP3      7716            0.0000000000
     72981      8117  TIP3      OH2           -51.2259302814        6.9330677152       40.6315843865  TIP3      7717            0.0000000000
     72982      8117  TIP3      H1            -51.7663459000        6.6000431543       39.8938814776  TIP3      7717            0.0000000000
     72983      8117  TIP3      H2            -50.4002609078        7.1725084773       40.1613392932  TIP3      7717            0.0000000000
     72984      8118  TIP3      OH2           -44.0005660972        4.3305081970       40.7061165280  TIP3      7718            0.0000000000
     72985      8118  TIP3      H1            -44.9569908865        4.4610426376       40.5931447809  TIP3      7718            0.0000000000
     72986      8118  TIP3      H2            -43.7065032488        5.1906388108       41.0711243067  TIP3      7718            0.0000000000
     72987      8119  TIP3      OH2           -43.2888284243        6.2310874444       42.3852209779  TIP3      7719            0.0000000000
     72988      8119  TIP3      H1            -42.3886571638        6.0849231562       42.7049805105  TIP3      7719            0.0000000000
     72989      8119  TIP3      H2            -43.2340751021        7.0285133631       41.8400554415  TIP3      7719            0.0000000000
     72990      8120  TIP3      OH2           -45.7506114489       12.9707254850       41.5722213993  TIP3      7720            0.0000000000
     72991      8120  TIP3      H1            -46.0987608244       13.8010131913       41.9180947959  TIP3      7720            0.0000000000
     72992      8120  TIP3      H2            -46.4795755710       12.3591410638       41.7603460673  TIP3      7720            0.0000000000
     72993      8121  TIP3      OH2           -38.2459345710        6.4083115117       41.9828562412  TIP3      7721            0.0000000000
     72994      8121  TIP3      H1            -38.9389119511        6.0484565540       41.3878362266  TIP3      7721            0.0000000000
     72995      8121  TIP3      H2            -38.2882152670        7.3595207967       41.7879153019  TIP3      7721            0.0000000000
     72996      8122  TIP3      OH2           -54.5724385572        9.2026699581       40.2470921005  TIP3      7722            0.0000000000
     72997      8122  TIP3      H1            -53.9964194503        9.8437970295       40.7076759348  TIP3      7722            0.0000000000
     72998      8122  TIP3      H2            -55.4667522108        9.4973893417       40.5549659923  TIP3      7722            0.0000000000
     72999      8123  TIP3      OH2           -42.6835251122       13.2034570215       40.3629262508  TIP3      7723            0.0000000000
     73000      8123  TIP3      H1            -42.3669335467       12.8332443951       41.1906231149  TIP3      7723            0.0000000000
     73001      8123  TIP3      H2            -43.6526007271       13.0950019344       40.4630056897  TIP3      7723            0.0000000000
     73002      8124  TIP3      OH2           -38.2339901297       17.6374238083       40.5472853877  TIP3      7724            0.0000000000
     73003      8124  TIP3      H1            -37.4703421618       18.2620414473       40.4800327018  TIP3      7724            0.0000000000
     73004      8124  TIP3      H2            -38.8968215477       18.2525351583       40.9132505543  TIP3      7724            0.0000000000
     73005      8125  TIP3      OH2           -48.5829913510       14.3340385466       38.8212382352  TIP3      7725            0.0000000000
     73006      8125  TIP3      H1            -48.4056662648       13.5456042856       38.2783036679  TIP3      7725            0.0000000000
     73007      8125  TIP3      H2            -48.9139950344       13.9075782927       39.6494075156  TIP3      7725            0.0000000000
     73008      8126  TIP3      OH2           -49.7094208672       13.8567225627       41.2710914749  TIP3      7726            0.0000000000
     73009      8126  TIP3      H1            -49.5341813185       13.3644219270       42.0833358674  TIP3      7726            0.0000000000
     73010      8126  TIP3      H2            -49.6632358510       14.7766406984       41.5947385054  TIP3      7726            0.0000000000
     73011      8127  TIP3      OH2           -53.2953602452       11.1136615780       41.7385350163  TIP3      7727            0.0000000000
     73012      8127  TIP3      H1            -53.9109230584       11.4678511495       42.3651892351  TIP3      7727            0.0000000000
     73013      8127  TIP3      H2            -52.7029824286       11.8704345152       41.5417583530  TIP3      7727            0.0000000000
     73014      8128  TIP3      OH2           -47.3165752503       15.2554838478       41.3739900515  TIP3      7728            0.0000000000
     73015      8128  TIP3      H1            -47.7889476439       15.9217227854       41.9376264745  TIP3      7728            0.0000000000
     73016      8128  TIP3      H2            -46.5532069161       15.8990752563       41.3313494721  TIP3      7728            0.0000000000
     73017      8129  TIP3      OH2           -49.5860944175       16.5840551468       42.0384150048  TIP3      7729            0.0000000000
     73018      8129  TIP3      H1            -49.4630086967       17.3959306578       41.4852744414  TIP3      7729            0.0000000000
     73019      8129  TIP3      H2            -49.8057474880       16.9435350819       42.9009591233  TIP3      7729            0.0000000000
     73020      8130  TIP3      OH2           -50.9919745028        3.1758319012       41.4338534108  TIP3      7730            0.0000000000
     73021      8130  TIP3      H1            -51.0706288734        4.0522166801       41.8498703265  TIP3      7730            0.0000000000
     73022      8130  TIP3      H2            -50.0878916093        3.0331349545       41.8070454457  TIP3      7730            0.0000000000
     73023      8131  TIP3      OH2           -52.6554845839       13.7436895902       40.6789284789  TIP3      7731            0.0000000000
     73024      8131  TIP3      H1            -52.0118461448       14.4087294176       40.9590611578  TIP3      7731            0.0000000000
     73025      8131  TIP3      H2            -52.1281223214       13.2854810898       39.9808277329  TIP3      7731            0.0000000000
     73026      8132  TIP3      OH2           -54.3048193846        6.4068503627       39.7973017573  TIP3      7732            0.0000000000
     73027      8132  TIP3      H1            -54.3288266194        7.3623931470       39.9981583954  TIP3      7732            0.0000000000
     73028      8132  TIP3      H2            -55.1952479996        6.1950747292       39.5235151238  TIP3      7732            0.0000000000
     73029      8133  TIP3      OH2           -46.5577920883       16.1900116377       38.9547741785  TIP3      7733            0.0000000000
     73030      8133  TIP3      H1            -47.2259667125       15.5239666798       39.2598299826  TIP3      7733            0.0000000000
     73031      8133  TIP3      H2            -45.8188188807       15.6142455362       38.7203875330  TIP3      7733            0.0000000000
     73032      8134  TIP3      OH2           -41.9831045099       15.9688383820       39.1594123113  TIP3      7734            0.0000000000
     73033      8134  TIP3      H1            -41.6919883872       15.1882911508       39.6521887087  TIP3      7734            0.0000000000
     73034      8134  TIP3      H2            -41.2142637621       16.1960370074       38.6193697813  TIP3      7734            0.0000000000
     73035      8135  TIP3      OH2           -51.1669788137       11.9822387809       39.0185966171  TIP3      7735            0.0000000000
     73036      8135  TIP3      H1            -50.9417605771       11.1532704938       39.5432701877  TIP3      7735            0.0000000000
     73037      8135  TIP3      H2            -50.3904498134       11.7777215134       38.4157524922  TIP3      7735            0.0000000000
     73038      8136  TIP3      OH2           -45.6321079996       12.9578395223       38.7913364981  TIP3      7736            0.0000000000
     73039      8136  TIP3      H1            -45.9384668231       13.0970765413       39.6997217644  TIP3      7736            0.0000000000
     73040      8136  TIP3      H2            -45.8876690941       12.0085916326       38.6414134115  TIP3      7736            0.0000000000
     73041      8137  TIP3      OH2           -49.8730643117        9.8307491468       41.6568199578  TIP3      7737            0.0000000000
     73042      8137  TIP3      H1            -50.4278023848        9.2701841102       42.1141434911  TIP3      7737            0.0000000000
     73043      8137  TIP3      H2            -49.6460113203        9.3014522153       40.8009658110  TIP3      7737            0.0000000000
     73044      8138  TIP3      OH2           -48.6531250172        7.5361266345       39.6447365393  TIP3      7738            0.0000000000
     73045      8138  TIP3      H1            -48.9852220993        7.9495032978       38.7935525014  TIP3      7738            0.0000000000
     73046      8138  TIP3      H2            -47.8944048373        8.1801814356       39.7019731897  TIP3      7738            0.0000000000
     73047      8139  TIP3      OH2           -39.4369494676       10.4587931591       39.0922325571  TIP3      7739            0.0000000000
     73048      8139  TIP3      H1            -39.6709117296       10.0518255203       38.2365153006  TIP3      7739            0.0000000000
     73049      8139  TIP3      H2            -39.3750020124       11.4103340226       38.8377516951  TIP3      7739            0.0000000000
     73050      8140  TIP3      OH2           -48.9323684378       18.8056061731       40.6684171030  TIP3      7740            0.0000000000
     73051      8140  TIP3      H1            -47.9675889362       18.9389773402       40.7507707386  TIP3      7740            0.0000000000
     73052      8140  TIP3      H2            -49.1437135039       19.4554150988       39.9829549912  TIP3      7740            0.0000000000
     73053      8141  TIP3      OH2           -55.3491507820       13.4097792102       40.1361421363  TIP3      7741            0.0000000000
     73054      8141  TIP3      H1            -54.4025238582       13.5029370204       40.3709393673  TIP3      7741            0.0000000000
     73055      8141  TIP3      H2            -55.3201884969       12.7322443071       39.4283406054  TIP3      7741            0.0000000000
     73056      8142  TIP3      OH2           -38.2330478486        9.2292858593       41.1821381737  TIP3      7742            0.0000000000
     73057      8142  TIP3      H1            -38.7958560346        9.6330213396       40.4879804426  TIP3      7742            0.0000000000
     73058      8142  TIP3      H2            -38.2885584675        9.9073264385       41.9078584202  TIP3      7742            0.0000000000
     73059      8143  TIP3      OH2           -39.9290059679        6.5297806681       39.8143081437  TIP3      7743            0.0000000000
     73060      8143  TIP3      H1            -39.8435425304        7.1764900385       39.1058611146  TIP3      7743            0.0000000000
     73061      8143  TIP3      H2            -40.0874931301        5.6954584448       39.3226235676  TIP3      7743            0.0000000000
     73062      8144  TIP3      OH2           -40.6833452447        3.9436827382       38.9203294996  TIP3      7744            0.0000000000
     73063      8144  TIP3      H1            -40.0804949689        3.5413008208       39.5678689827  TIP3      7744            0.0000000000
     73064      8144  TIP3      H2            -41.5326916649        3.5175038022       39.1250545423  TIP3      7744            0.0000000000
     73065      8145  TIP3      OH2           -38.6043122907        2.8166364802       40.4692897050  TIP3      7745            0.0000000000
     73066      8145  TIP3      H1            -38.1698111348        2.0823163994       39.9858157316  TIP3      7745            0.0000000000
     73067      8145  TIP3      H2            -37.8959836425        3.4766965451       40.5394443002  TIP3      7745            0.0000000000
     73068      8146  TIP3      OH2           -55.0235380932        0.8501142222       41.5494953574  TIP3      7746            0.0000000000
     73069      8146  TIP3      H1            -54.5672343750        1.4993840458       40.9937131739  TIP3      7746            0.0000000000
     73070      8146  TIP3      H2            -55.6340626846        1.4042544330       42.0313379918  TIP3      7746            0.0000000000
     73071      8147  TIP3      OH2           -53.2000624976        2.7795516951       40.0057181551  TIP3      7747            0.0000000000
     73072      8147  TIP3      H1            -52.6765715330        2.1482852964       39.4778787944  TIP3      7747            0.0000000000
     73073      8147  TIP3      H2            -52.5505041454        3.0681817783       40.6814426359  TIP3      7747            0.0000000000
     73074      8148  TIP3      OH2           -46.2795974400       18.0447831049       40.8802726208  TIP3      7748            0.0000000000
     73075      8148  TIP3      H1            -45.3838745754       18.3605193281       40.6787217475  TIP3      7748            0.0000000000
     73076      8148  TIP3      H2            -46.4937655905       17.5607956576       40.0503812381  TIP3      7748            0.0000000000
     73077      8149  TIP3      OH2           -53.3242986335       17.7430426126       39.4705909802  TIP3      7749            0.0000000000
     73078      8149  TIP3      H1            -53.5835990377       18.0042806108       40.3728825526  TIP3      7749            0.0000000000
     73079      8149  TIP3      H2            -52.5376964150       17.1804676032       39.6384722769  TIP3      7749            0.0000000000
     73080      8150  TIP3      OH2           -27.1775654210        7.9460933534       40.1867925531  TIP3      7750            0.0000000000
     73081      8150  TIP3      H1            -26.4530966259        7.9658145720       40.8536615736  TIP3      7750            0.0000000000
     73082      8150  TIP3      H2            -26.8332904358        7.2858215169       39.5755415212  TIP3      7750            0.0000000000
     73083      8151  TIP3      OH2           -24.9635073799        8.7422919353       41.7168207164  TIP3      7751            0.0000000000
     73084      8151  TIP3      H1            -24.4464961179        8.9665043385       42.5370103414  TIP3      7751            0.0000000000
     73085      8151  TIP3      H2            -24.5394005861        9.3135457878       41.0507072360  TIP3      7751            0.0000000000
     73086      8152  TIP3      OH2           -21.2103259717        0.5900535302       41.6540880097  TIP3      7752            0.0000000000
     73087      8152  TIP3      H1            -22.1296161206        0.7177143822       41.9200063307  TIP3      7752            0.0000000000
     73088      8152  TIP3      H2            -20.9796711990        1.4313479442       41.2319290097  TIP3      7752            0.0000000000
     73089      8153  TIP3      OH2           -20.0524079529       14.9470265518       39.9770439802  TIP3      7753            0.0000000000
     73090      8153  TIP3      H1            -19.9328984394       15.8929828230       40.1809519999  TIP3      7753            0.0000000000
     73091      8153  TIP3      H2            -19.1235757525       14.6563063037       39.9753966299  TIP3      7753            0.0000000000
     73092      8154  TIP3      OH2           -24.6323806710       17.7070577666       40.6768044440  TIP3      7754            0.0000000000
     73093      8154  TIP3      H1            -24.2305404226       16.9439606912       40.2005991690  TIP3      7754            0.0000000000
     73094      8154  TIP3      H2            -24.5987635474       17.4079463884       41.5952674017  TIP3      7754            0.0000000000
     73095      8155  TIP3      OH2           -23.4503089813        9.8631404819       39.5060348163  TIP3      7755            0.0000000000
     73096      8155  TIP3      H1            -23.4275470435        9.6613372288       38.5249796733  TIP3      7755            0.0000000000
     73097      8155  TIP3      H2            -22.5889110507       10.2920661435       39.5987326361  TIP3      7755            0.0000000000
     73098      8156  TIP3      OH2           -27.8712047745        3.7568971159       40.1042823285  TIP3      7756            0.0000000000
     73099      8156  TIP3      H1            -28.1403839646        3.7685960081       41.0325979264  TIP3      7756            0.0000000000
     73100      8156  TIP3      H2            -28.1460522668        2.8763904241       39.8023630825  TIP3      7756            0.0000000000
     73101      8157  TIP3      OH2           -31.0028428667        4.1813393687       39.2105532709  TIP3      7757            0.0000000000
     73102      8157  TIP3      H1            -31.4574956870        3.7535115006       39.9619224899  TIP3      7757            0.0000000000
     73103      8157  TIP3      H2            -31.7269305047        4.5716781555       38.7005009534  TIP3      7757            0.0000000000
     73104      8158  TIP3      OH2           -36.4977911902        4.5989845049       41.6451598877  TIP3      7758            0.0000000000
     73105      8158  TIP3      H1            -35.9970625089        5.2608163117       41.1194570114  TIP3      7758            0.0000000000
     73106      8158  TIP3      H2            -37.1835238323        5.2028159385       42.0192256599  TIP3      7758            0.0000000000
     73107      8159  TIP3      OH2           -32.3681311706        6.9435311529       40.6257931318  TIP3      7759            0.0000000000
     73108      8159  TIP3      H1            -32.9141837319        6.5888100161       39.8989665435  TIP3      7759            0.0000000000
     73109      8159  TIP3      H2            -31.5482860251        7.1654036196       40.1579772538  TIP3      7759            0.0000000000
     73110      8160  TIP3      OH2           -25.1506473932        4.3348051054       40.7044385651  TIP3      7760            0.0000000000
     73111      8160  TIP3      H1            -26.1045851553        4.4635257436       40.5935712175  TIP3      7760            0.0000000000
     73112      8160  TIP3      H2            -24.8449325995        5.1887533147       41.0733056799  TIP3      7760            0.0000000000
     73113      8161  TIP3      OH2           -24.4289546804        6.2310815765       42.3854808038  TIP3      7761            0.0000000000
     73114      8161  TIP3      H1            -23.5311750383        6.0812846783       42.7106412593  TIP3      7761            0.0000000000
     73115      8161  TIP3      H2            -24.3702903203        7.0284613028       41.8422243627  TIP3      7761            0.0000000000
     73116      8162  TIP3      OH2           -26.8926504950       12.9715180830       41.5663359656  TIP3      7762            0.0000000000
     73117      8162  TIP3      H1            -27.2356000855       13.8039334427       41.9209555052  TIP3      7762            0.0000000000
     73118      8162  TIP3      H2            -27.6194822426       12.3644060672       41.7685863781  TIP3      7762            0.0000000000
     73119      8163  TIP3      OH2           -19.3980464659        6.4067201043       41.9867650579  TIP3      7763            0.0000000000
     73120      8163  TIP3      H1            -20.0855075584        6.0490719039       41.3846034252  TIP3      7763            0.0000000000
     73121      8163  TIP3      H2            -19.4248101052        7.3578238969       41.7850490576  TIP3      7763            0.0000000000
     73122      8164  TIP3      OH2           -35.7778718886        9.2092596942       40.2680088922  TIP3      7764            0.0000000000
     73123      8164  TIP3      H1            -35.1664008770        9.8392956389       40.7083242736  TIP3      7764            0.0000000000
     73124      8164  TIP3      H2            -36.6507508713        9.5170671685       40.5681513178  TIP3      7764            0.0000000000
     73125      8165  TIP3      OH2           -23.8285303977       13.2067979079       40.3633900684  TIP3      7765            0.0000000000
     73126      8165  TIP3      H1            -23.5081882657       12.8281645724       41.1850160642  TIP3      7765            0.0000000000
     73127      8165  TIP3      H2            -24.7953350533       13.0956120417       40.4657152563  TIP3      7765            0.0000000000
     73128      8166  TIP3      OH2           -19.3722741226       17.6477857045       40.5560668303  TIP3      7766            0.0000000000
     73129      8166  TIP3      H1            -18.6133125950       18.2544173379       40.4702818885  TIP3      7766            0.0000000000
     73130      8166  TIP3      H2            -20.0532396757       18.2493987268       40.9088917042  TIP3      7766            0.0000000000
     73131      8167  TIP3      OH2           -29.7302120553       14.3242465345       38.8203432511  TIP3      7767            0.0000000000
     73132      8167  TIP3      H1            -29.5455020195       13.5477471991       38.2768467789  TIP3      7767            0.0000000000
     73133      8167  TIP3      H2            -30.0567256329       13.9093423098       39.6540810398  TIP3      7767            0.0000000000
     73134      8168  TIP3      OH2           -30.8466104692       13.8451405371       41.2654542668  TIP3      7768            0.0000000000
     73135      8168  TIP3      H1            -30.6791948073       13.3669162048       42.0877400626  TIP3      7768            0.0000000000
     73136      8168  TIP3      H2            -30.8088226541       14.7715399302       41.5913082675  TIP3      7768            0.0000000000
     73137      8169  TIP3      OH2           -34.4514355924       11.1210553289       41.7307082944  TIP3      7769            0.0000000000
     73138      8169  TIP3      H1            -35.0569166781       11.4786809484       42.3706257518  TIP3      7769            0.0000000000
     73139      8169  TIP3      H2            -33.8450463694       11.8741399764       41.5480266324  TIP3      7769            0.0000000000
     73140      8170  TIP3      OH2           -28.4608065306       15.2521588639       41.3721268179  TIP3      7770            0.0000000000
     73141      8170  TIP3      H1            -28.9332239776       15.9196458322       41.9368955631  TIP3      7770            0.0000000000
     73142      8170  TIP3      H2            -27.6985182377       15.8974292588       41.3312291576  TIP3      7770            0.0000000000
     73143      8171  TIP3      OH2           -30.7126665487       16.5820441858       42.0378489239  TIP3      7771            0.0000000000
     73144      8171  TIP3      H1            -30.6145733291       17.3975153289       41.4870127752  TIP3      7771            0.0000000000
     73145      8171  TIP3      H2            -30.9598609766       16.9428264606       42.8965022758  TIP3      7771            0.0000000000
     73146      8172  TIP3      OH2           -32.1396313319        3.1759655196       41.4379540823  TIP3      7772            0.0000000000
     73147      8172  TIP3      H1            -32.2201117365        4.0525365186       41.8532265009  TIP3      7772            0.0000000000
     73148      8172  TIP3      H2            -31.2329517037        3.0351740100       41.8070800322  TIP3      7772            0.0000000000
     73149      8173  TIP3      OH2           -33.7943452414       13.7411527303       40.6843591787  TIP3      7773            0.0000000000
     73150      8173  TIP3      H1            -33.1621269666       14.4186639642       40.9680179292  TIP3      7773            0.0000000000
     73151      8173  TIP3      H2            -33.2788358296       13.2973035169       39.9823019025  TIP3      7773            0.0000000000
     73152      8174  TIP3      OH2           -35.4546530316        6.4035962424       39.8009122443  TIP3      7774            0.0000000000
     73153      8174  TIP3      H1            -35.4848145221        7.3592881522       39.9999756617  TIP3      7774            0.0000000000
     73154      8174  TIP3      H2            -36.3435022167        6.1847683872       39.5307488438  TIP3      7774            0.0000000000
     73155      8175  TIP3      OH2           -27.7004083516       16.1918089991       38.9529098607  TIP3      7775            0.0000000000
     73156      8175  TIP3      H1            -28.3682686918       15.5309859318       39.2626410478  TIP3      7775            0.0000000000
     73157      8175  TIP3      H2            -26.9625875214       15.6140327597       38.7210346962  TIP3      7775            0.0000000000
     73158      8176  TIP3      OH2           -23.1281839876       15.9702434669       39.1605129965  TIP3      7776            0.0000000000
     73159      8176  TIP3      H1            -22.8361611694       15.1883114871       39.6522038570  TIP3      7776            0.0000000000
     73160      8176  TIP3      H2            -22.3583123295       16.1958817718       38.6192361091  TIP3      7776            0.0000000000
     73161      8177  TIP3      OH2           -32.2118923586       11.8823057517       39.0312181264  TIP3      7777            0.0000000000
     73162      8177  TIP3      H1            -32.0832503322       11.0972579261       39.5836750136  TIP3      7777            0.0000000000
     73163      8177  TIP3      H2            -31.4959261331       11.7693592255       38.3725941541  TIP3      7777            0.0000000000
     73164      8178  TIP3      OH2           -26.7882540097       12.9592970331       38.7886930529  TIP3      7778            0.0000000000
     73165      8178  TIP3      H1            -27.0768233216       13.0983178278       39.7030295808  TIP3      7778            0.0000000000
     73166      8178  TIP3      H2            -27.0193493587       12.0085929346       38.6419123670  TIP3      7778            0.0000000000
     73167      8179  TIP3      OH2           -31.0165074136        9.8639023676       41.3527974692  TIP3      7779            0.0000000000
     73168      8179  TIP3      H1            -31.4854277314        9.3650153492       42.0359164413  TIP3      7779            0.0000000000
     73169      8179  TIP3      H2            -30.7516318128        9.1831175552       40.7061904485  TIP3      7779            0.0000000000
     73170      8180  TIP3      OH2           -29.9536950333        8.0981360631       39.6144107088  TIP3      7780            0.0000000000
     73171      8180  TIP3      H1            -30.1118761026        7.9720807835       38.6589804899  TIP3      7780            0.0000000000
     73172      8180  TIP3      H2            -28.9817646154        8.2027319205       39.6710667735  TIP3      7780            0.0000000000
     73173      8181  TIP3      OH2           -20.5765770073       10.4679960285       39.1395179731  TIP3      7781            0.0000000000
     73174      8181  TIP3      H1            -20.8107979126       10.0603561488       38.2497787421  TIP3      7781            0.0000000000
     73175      8181  TIP3      H2            -20.5200716987       11.4005888894       38.8286357119  TIP3      7781            0.0000000000
     73176      8182  TIP3      OH2           -30.0658696273       18.8012636187       40.6621049802  TIP3      7782            0.0000000000
     73177      8182  TIP3      H1            -29.1028714378       18.9418461334       40.7469374064  TIP3      7782            0.0000000000
     73178      8182  TIP3      H2            -30.2930495410       19.4563487633       39.9874679821  TIP3      7782            0.0000000000
     73179      8183  TIP3      OH2           -36.5235632955       13.4275330890       40.1248807479  TIP3      7783            0.0000000000
     73180      8183  TIP3      H1            -35.5696461356       13.5065581329       40.3709772647  TIP3      7783            0.0000000000
     73181      8183  TIP3      H2            -36.4740723859       12.7366187727       39.4318310055  TIP3      7783            0.0000000000
     73182      8184  TIP3      OH2           -19.3730396635        9.2303162834       41.1790008639  TIP3      7784            0.0000000000
     73183      8184  TIP3      H1            -19.9477533891        9.6303601772       40.4850449242  TIP3      7784            0.0000000000
     73184      8184  TIP3      H2            -19.4365177774        9.9066192215       41.9076920788  TIP3      7784            0.0000000000
     73185      8185  TIP3      OH2           -21.0756865913        6.5263094449       39.8204843554  TIP3      7785            0.0000000000
     73186      8185  TIP3      H1            -20.9847751957        7.1770540533       39.1069211784  TIP3      7785            0.0000000000
     73187      8185  TIP3      H2            -21.2303693485        5.7002943772       39.3150870213  TIP3      7785            0.0000000000
     73188      8186  TIP3      OH2           -21.8273556081        3.9427143772       38.9200479407  TIP3      7786            0.0000000000
     73189      8186  TIP3      H1            -21.2244793039        3.5416659162       39.5680316033  TIP3      7786            0.0000000000
     73190      8186  TIP3      H2            -22.6767888073        3.5176673578       39.1251326971  TIP3      7786            0.0000000000
     73191      8187  TIP3      OH2           -19.7490755385        2.8122192993       40.4717708809  TIP3      7787            0.0000000000
     73192      8187  TIP3      H1            -19.3136909320        2.0817151047       39.9857492922  TIP3      7787            0.0000000000
     73193      8187  TIP3      H2            -19.0412521316        3.4763227380       40.5371010923  TIP3      7787            0.0000000000
     73194      8188  TIP3      OH2           -36.1621541510        0.8546001239       41.5535085121  TIP3      7788            0.0000000000
     73195      8188  TIP3      H1            -35.7132456408        1.4959628222       40.9864653634  TIP3      7788            0.0000000000
     73196      8188  TIP3      H2            -36.7802858143        1.4111297060       42.0275881663  TIP3      7788            0.0000000000
     73197      8189  TIP3      OH2           -34.3347039424        2.7870443421       40.0036675482  TIP3      7789            0.0000000000
     73198      8189  TIP3      H1            -33.8218264366        2.1462305196       39.4827300368  TIP3      7789            0.0000000000
     73199      8189  TIP3      H2            -33.6866860193        3.0689163279       40.6840434656  TIP3      7789            0.0000000000
     73200      8190  TIP3      OH2           -27.4216123161       18.0455966424       40.8780787123  TIP3      7790            0.0000000000
     73201      8190  TIP3      H1            -26.5268245405       18.3607804826       40.6781676732  TIP3      7790            0.0000000000
     73202      8190  TIP3      H2            -27.6376215301       17.5607281192       40.0499077368  TIP3      7790            0.0000000000
     73203      8191  TIP3      OH2           -34.4654904134       17.7422970391       39.4773035128  TIP3      7791            0.0000000000
     73204      8191  TIP3      H1            -34.7316978391       18.0155367944       40.3753066052  TIP3      7791            0.0000000000
     73205      8191  TIP3      H2            -33.6868670715       17.1784161397       39.6490775637  TIP3      7791            0.0000000000
     73206      8192  TIP3      OH2            -8.2971211023        7.9597806117       40.1763770769  TIP3      7792            0.0000000000
     73207      8192  TIP3      H1             -7.5996820695        7.9616956883       40.8613579402  TIP3      7792            0.0000000000
     73208      8192  TIP3      H2             -7.9777809756        7.2817246822       39.5774471185  TIP3      7792            0.0000000000
     73209      8193  TIP3      OH2            -6.0981387560        8.7411908978       41.7183321710  TIP3      7793            0.0000000000
     73210      8193  TIP3      H1             -5.5859165230        8.9625729950       42.5418461603  TIP3      7793            0.0000000000
     73211      8193  TIP3      H2             -5.6820547414        9.3145748157       41.0513361956  TIP3      7793            0.0000000000
     73212      8194  TIP3      OH2            -2.3533284700        0.5900798829       41.6544044934  TIP3      7794            0.0000000000
     73213      8194  TIP3      H1             -3.2747024864        0.7144988690       41.9125278577  TIP3      7794            0.0000000000
     73214      8194  TIP3      H2             -2.1238331925        1.4313496128       41.2320832500  TIP3      7794            0.0000000000
     73215      8195  TIP3      OH2            -1.2005854950       14.9417595862       39.9720077634  TIP3      7795            0.0000000000
     73216      8195  TIP3      H1             -1.0837075733       15.8901055897       40.1770681097  TIP3      7795            0.0000000000
     73217      8195  TIP3      H2             -0.2673859324       14.6592427263       39.9775144735  TIP3      7795            0.0000000000
     73218      8196  TIP3      OH2            -5.7893820625       17.6969728822       40.6714397556  TIP3      7796            0.0000000000
     73219      8196  TIP3      H1             -5.3614984336       16.9455610156       40.2072164282  TIP3      7796            0.0000000000
     73220      8196  TIP3      H2             -5.7379406695       17.4146277847       41.5980601726  TIP3      7796            0.0000000000
     73221      8197  TIP3      OH2            -4.5885169216        9.8595141234       39.5020965595  TIP3      7797            0.0000000000
     73222      8197  TIP3      H1             -4.5788842916        9.6619810381       38.5254298205  TIP3      7797            0.0000000000
     73223      8197  TIP3      H2             -3.7353507518       10.2961224087       39.6073765837  TIP3      7797            0.0000000000
     73224      8198  TIP3      OH2            -9.0030784546        3.7523170052       40.1076964664  TIP3      7798            0.0000000000
     73225      8198  TIP3      H1             -9.2911228129        3.7790067360       41.0320662276  TIP3      7798            0.0000000000
     73226      8198  TIP3      H2             -9.2914785949        2.8778603271       39.8037474550  TIP3      7798            0.0000000000
     73227      8199  TIP3      OH2           -12.1457622018        4.1623816747       39.2009973896  TIP3      7799            0.0000000000
     73228      8199  TIP3      H1            -12.6019555757        3.7605365416       39.9660645179  TIP3      7799            0.0000000000
     73229      8199  TIP3      H2            -12.8670294319        4.5663171208       38.7058747661  TIP3      7799            0.0000000000
     73230      8200  TIP3      OH2           -17.6373187999        4.5961597252       41.6556558214  TIP3      7800            0.0000000000
     73231      8200  TIP3      H1            -17.1358688393        5.2558069612       41.1249096216  TIP3      7800            0.0000000000
     73232      8200  TIP3      H2            -18.3282156226        5.2016956279       42.0197088280  TIP3      7800            0.0000000000
     73233      8201  TIP3      OH2           -14.0495867676        6.9691348964       40.3201296446  TIP3      7801            0.0000000000
     73234      8201  TIP3      H1            -14.1686454279        6.3946145024       39.6111137484  TIP3      7801            0.0000000000
     73235      8201  TIP3      H2            -13.0338493187        7.0784704853       40.2121376421  TIP3      7801            0.0000000000
     73236      8202  TIP3      OH2            -6.2971449283        4.3364728223       40.7047133220  TIP3      7802            0.0000000000
     73237      8202  TIP3      H1             -7.2518268100        4.4637488436       40.5915814844  TIP3      7802            0.0000000000
     73238      8202  TIP3      H2             -5.9891275309        5.1888596305       41.0734858919  TIP3      7802            0.0000000000
     73239      8203  TIP3      OH2            -5.5764648190        6.2304698823       42.3849685294  TIP3      7803            0.0000000000
     73240      8203  TIP3      H1             -4.6768306907        6.0842018546       42.7051889408  TIP3      7803            0.0000000000
     73241      8203  TIP3      H2             -5.5151465938        7.0283810060       41.8424066524  TIP3      7803            0.0000000000
     73242      8204  TIP3      OH2            -8.0485427678       12.9790648752       41.5440544699  TIP3      7804            0.0000000000
     73243      8204  TIP3      H1             -8.3772769424       13.8024868241       41.9338072438  TIP3      7804            0.0000000000
     73244      8204  TIP3      H2             -8.7607384561       12.3585250836       41.7746016022  TIP3      7804            0.0000000000
     73245      8205  TIP3      OH2            -0.5333767764        6.4090736475       41.9829185442  TIP3      7805            0.0000000000
     73246      8205  TIP3      H1             -1.2268947018        6.0485184475       41.3878854905  TIP3      7805            0.0000000000
     73247      8205  TIP3      H2             -0.5762022926        7.3595716206       41.7878993182  TIP3      7805            0.0000000000
     73248      8206  TIP3      OH2           -16.9043887440        9.2346520729       40.2389923213  TIP3      7806            0.0000000000
     73249      8206  TIP3      H1            -16.3187727154        9.8380951094       40.7392688956  TIP3      7806            0.0000000000
     73250      8206  TIP3      H2            -17.7933886531        9.5073864346       40.5655872025  TIP3      7806            0.0000000000
     73251      8207  TIP3      OH2            -4.9790642713       13.2088597361       40.3579815715  TIP3      7807            0.0000000000
     73252      8207  TIP3      H1             -4.6501565026       12.8344657409       41.1861602177  TIP3      7807            0.0000000000
     73253      8207  TIP3      H2             -5.9364162518       13.0887157098       40.4782869689  TIP3      7807            0.0000000000
     73254      8208  TIP3      OH2            -0.5165147717       17.6477409167       40.5559788780  TIP3      7808            0.0000000000
     73255      8208  TIP3      H1              0.2426835727       18.2543055292       40.4702872143  TIP3      7808            0.0000000000
     73256      8208  TIP3      H2             -1.1972278413       18.2495487416       40.9090389527  TIP3      7808            0.0000000000
     73257      8209  TIP3      OH2           -10.8391213897       14.3248945402       38.8021367090  TIP3      7809            0.0000000000
     73258      8209  TIP3      H1            -10.7080372200       13.5251248423       38.2864714281  TIP3      7809            0.0000000000
     73259      8209  TIP3      H2            -11.2007822850       13.9267891256       39.6483635990  TIP3      7809            0.0000000000
     73260      8210  TIP3      OH2           -11.9870493908       13.8437213121       41.2550228309  TIP3      7810            0.0000000000
     73261      8210  TIP3      H1            -11.8180096247       13.3715514020       42.0843147606  TIP3      7810            0.0000000000
     73262      8210  TIP3      H2            -11.9594557841       14.7685087888       41.5936723998  TIP3      7810            0.0000000000
     73263      8211  TIP3      OH2           -15.6028136377       11.1225954917       41.7025965186  TIP3      7811            0.0000000000
     73264      8211  TIP3      H1            -16.1977658901       11.4653170744       42.3716964491  TIP3      7811            0.0000000000
     73265      8211  TIP3      H2            -14.9831931339       11.8724612420       41.5607197677  TIP3      7811            0.0000000000
     73266      8212  TIP3      OH2            -9.6045242007       15.2590384433       41.3558173897  TIP3      7812            0.0000000000
     73267      8212  TIP3      H1            -10.0766777162       15.9175368621       41.9438435714  TIP3      7812            0.0000000000
     73268      8212  TIP3      H2             -8.8420838243       15.9049140733       41.3461001035  TIP3      7812            0.0000000000
     73269      8213  TIP3      OH2           -11.8751838150       16.5834149946       42.0401339072  TIP3      7813            0.0000000000
     73270      8213  TIP3      H1            -11.7554728753       17.3986888333       41.4910823484  TIP3      7813            0.0000000000
     73271      8213  TIP3      H2            -12.0940536074       16.9430536348       42.9021835363  TIP3      7813            0.0000000000
     73272      8214  TIP3      OH2           -13.2787613984        3.1770548755       41.4355555629  TIP3      7814            0.0000000000
     73273      8214  TIP3      H1            -13.3585457875        4.0576079417       41.8480843549  TIP3      7814            0.0000000000
     73274      8214  TIP3      H2            -12.3748528945        3.0472313746       41.8067276806  TIP3      7814            0.0000000000
     73275      8215  TIP3      OH2           -14.9355742496       13.7309724510       40.6827707773  TIP3      7815            0.0000000000
     73276      8215  TIP3      H1            -14.3071974182       14.4154355622       40.9678185335  TIP3      7815            0.0000000000
     73277      8215  TIP3      H2            -14.4185761827       13.3102041490       39.9791037536  TIP3      7815            0.0000000000
     73278      8216  TIP3      OH2           -16.6185536977        6.4031735713       39.7798641061  TIP3      7816            0.0000000000
     73279      8216  TIP3      H1            -16.6252240865        7.3478158651       40.0154371014  TIP3      7816            0.0000000000
     73280      8216  TIP3      H2            -17.5072238216        6.1768850038       39.5388376780  TIP3      7816            0.0000000000
     73281      8217  TIP3      OH2            -8.8673219872       16.2142898396       38.9812322004  TIP3      7817            0.0000000000
     73282      8217  TIP3      H1             -9.5365916959       15.5508988600       39.3126057193  TIP3      7817            0.0000000000
     73283      8217  TIP3      H2             -8.0920672790       15.6694853308       38.8553450348  TIP3      7817            0.0000000000
     73284      8218  TIP3      OH2            -4.2837544631       15.9596762909       39.1493069812  TIP3      7818            0.0000000000
     73285      8218  TIP3      H1             -3.9726055256       15.1930312853       39.6561496943  TIP3      7818            0.0000000000
     73286      8218  TIP3      H2             -3.5003872655       16.1987153002       38.6255665688  TIP3      7818            0.0000000000
     73287      8219  TIP3      OH2           -13.3891284294       11.8349267233       39.0004947179  TIP3      7819            0.0000000000
     73288      8219  TIP3      H1            -13.1711466518       11.1320611722       39.6313521693  TIP3      7819            0.0000000000
     73289      8219  TIP3      H2            -12.6238024922       11.7840912427       38.3814939234  TIP3      7819            0.0000000000
     73290      8220  TIP3      OH2            -7.9602979352       12.9979534661       38.7621203671  TIP3      7820            0.0000000000
     73291      8220  TIP3      H1             -8.2111682796       13.0830397188       39.7084694172  TIP3      7820            0.0000000000
     73292      8220  TIP3      H2             -8.1531807713       12.0168293023       38.6444784214  TIP3      7820            0.0000000000
     73293      8221  TIP3      OH2           -12.2329118220        9.9786704071       41.3155860639  TIP3      7821            0.0000000000
     73294      8221  TIP3      H1            -12.5926255522        9.3969677727       42.0074481423  TIP3      7821            0.0000000000
     73295      8221  TIP3      H2            -11.8833328731        9.2354064613       40.7593802322  TIP3      7821            0.0000000000
     73296      8222  TIP3      OH2           -10.9884890074        8.3979052380       39.3386602664  TIP3      7822            0.0000000000
     73297      8222  TIP3      H1            -11.2256844175        7.8819368422       38.5541852237  TIP3      7822            0.0000000000
     73298      8222  TIP3      H2            -10.0809327029        8.1576953443       39.6438291156  TIP3      7822            0.0000000000
     73299      8223  TIP3      OH2            -1.7250023886       10.4587483414       39.0922607911  TIP3      7823            0.0000000000
     73300      8223  TIP3      H1             -1.9588766558       10.0518152585       38.2365284002  TIP3      7823            0.0000000000
     73301      8223  TIP3      H2             -1.6628842679       11.4102460012       38.8376931911  TIP3      7823            0.0000000000
     73302      8224  TIP3      OH2           -11.2141177544       18.7932347071       40.6564405143  TIP3      7824            0.0000000000
     73303      8224  TIP3      H1            -10.2563313759       18.9467782488       40.7573592126  TIP3      7824            0.0000000000
     73304      8224  TIP3      H2            -11.4311259628       19.4542746981       39.9834171961  TIP3      7824            0.0000000000
     73305      8225  TIP3      OH2           -17.6586375328       13.4256857362       40.1299969821  TIP3      7825            0.0000000000
     73306      8225  TIP3      H1            -16.7103998854       13.5149058014       40.3716238892  TIP3      7825            0.0000000000
     73307      8225  TIP3      H2            -17.6249776775       12.7420170350       39.4316411403  TIP3      7825            0.0000000000
     73308      8226  TIP3      OH2            -0.5210904768        9.2291042693       41.1821443606  TIP3      7826            0.0000000000
     73309      8226  TIP3      H1             -1.0839179861        9.6330863469       40.4879229914  TIP3      7826            0.0000000000
     73310      8226  TIP3      H2             -0.5765831335        9.9074060920       41.9078719792  TIP3      7826            0.0000000000
     73311      8227  TIP3      OH2            -2.2169906906        6.5297550987       39.8143204452  TIP3      7827            0.0000000000
     73312      8227  TIP3      H1             -2.1315519412        7.1764962355       39.1058806451  TIP3      7827            0.0000000000
     73313      8227  TIP3      H2             -2.3755014518        5.6954749886       39.3226090541  TIP3      7827            0.0000000000
     73314      8228  TIP3      OH2            -2.9713524933        3.9436746160       38.9203580056  TIP3      7828            0.0000000000
     73315      8228  TIP3      H1             -2.3684759060        3.5412953152       39.5678617326  TIP3      7828            0.0000000000
     73316      8228  TIP3      H2             -3.8207032579        3.5174924487       39.1250132633  TIP3      7828            0.0000000000
     73317      8229  TIP3      OH2            -0.8922964044        2.8166300538       40.4693774422  TIP3      7829            0.0000000000
     73318      8229  TIP3      H1             -0.4578434942        2.0823264913       39.9858014412  TIP3      7829            0.0000000000
     73319      8229  TIP3      H2             -0.1839288147        3.4766729495       40.5393453754  TIP3      7829            0.0000000000
     73320      8230  TIP3      OH2           -17.3062981133        0.8541193854       41.5531915986  TIP3      7830            0.0000000000
     73321      8230  TIP3      H1            -16.8568869019        1.4958870124       40.9867192376  TIP3      7830            0.0000000000
     73322      8230  TIP3      H2            -17.9242889399        1.4113963912       42.0276523666  TIP3      7830            0.0000000000
     73323      8231  TIP3      OH2           -15.4837407148        2.7778655170       40.0057059617  TIP3      7831            0.0000000000
     73324      8231  TIP3      H1            -14.9650302657        2.1449746815       39.4818685383  TIP3      7831            0.0000000000
     73325      8231  TIP3      H2            -14.8343814941        3.0762234623       40.6841702459  TIP3      7831            0.0000000000
     73326      8232  TIP3      OH2            -8.5628966201       18.0375228269       40.8787109740  TIP3      7832            0.0000000000
     73327      8232  TIP3      H1             -7.6705436476       18.3687380461       40.6858475208  TIP3      7832            0.0000000000
     73328      8232  TIP3      H2             -8.7865685077       17.5694900826       40.0526154478  TIP3      7832            0.0000000000
     73329      8233  TIP3      OH2           -15.6114574515       17.7458180989       39.4830218423  TIP3      7833            0.0000000000
     73330      8233  TIP3      H1            -15.8734456580       18.0123705897       40.3784151681  TIP3      7833            0.0000000000
     73331      8233  TIP3      H2            -14.8298616688       17.1773485741       39.6402265198  TIP3      7833            0.0000000000
     73332      8234  TIP3      OH2            10.5461727400        7.9640434185       40.1830069797  TIP3      7834            0.0000000000
     73333      8234  TIP3      H1             11.2590056584        7.9547420132       40.8565229154  TIP3      7834            0.0000000000
     73334      8234  TIP3      H2             10.8722726540        7.2830363063       39.5773284806  TIP3      7834            0.0000000000
     73335      8235  TIP3      OH2            12.7333094325        8.7699739853       41.7211478984  TIP3      7835            0.0000000000
     73336      8235  TIP3      H1             13.2711336801        8.9508393117       42.5400755379  TIP3      7835            0.0000000000
     73337      8235  TIP3      H2             13.1855519808        9.2945816781       41.0421005163  TIP3      7835            0.0000000000
     73338      8236  TIP3      OH2            16.5023414764        0.5901631903       41.6544692327  TIP3      7836            0.0000000000
     73339      8236  TIP3      H1             15.5805724137        0.7160292442       41.9119240623  TIP3      7836            0.0000000000
     73340      8236  TIP3      H2             16.7322447955        1.4313133001       41.2320818438  TIP3      7836            0.0000000000
     73341      8237  TIP3      OH2            17.6590076310       14.9434163675       39.9725929637  TIP3      7837            0.0000000000
     73342      8237  TIP3      H1             17.7783279812       15.8909660293       40.1805480656  TIP3      7837            0.0000000000
     73343      8237  TIP3      H2             18.5897126634       14.6587288053       39.9775962645  TIP3      7837            0.0000000000
     73344      8238  TIP3      OH2            13.0744685575       17.6981652361       40.6785783461  TIP3      7838            0.0000000000
     73345      8238  TIP3      H1             13.4860914073       16.9482046125       40.1972388545  TIP3      7838            0.0000000000
     73346      8238  TIP3      H2             13.1164595890       17.4161813676       41.5994547163  TIP3      7838            0.0000000000
     73347      8239  TIP3      OH2            14.2576917628        9.8832270411       39.5080249188  TIP3      7839            0.0000000000
     73348      8239  TIP3      H1             14.2767527918        9.6566650891       38.5300180431  TIP3      7839            0.0000000000
     73349      8239  TIP3      H2             15.1319039728       10.2854399050       39.6000661776  TIP3      7839            0.0000000000
     73350      8240  TIP3      OH2             9.8423687676        3.7595455509       40.1048594280  TIP3      7840            0.0000000000
     73351      8240  TIP3      H1              9.5714050587        3.7685614860       41.0321920598  TIP3      7840            0.0000000000
     73352      8240  TIP3      H2              9.5661442614        2.8774698443       39.8017649471  TIP3      7840            0.0000000000
     73353      8241  TIP3      OH2             6.7087436991        4.1809697728       39.2111513666  TIP3      7841            0.0000000000
     73354      8241  TIP3      H1              6.2518723555        3.7508900659       39.9609554878  TIP3      7841            0.0000000000
     73355      8241  TIP3      H2              5.9851417968        4.5717901898       38.7003903941  TIP3      7841            0.0000000000
     73356      8242  TIP3      OH2             1.2143385070        4.5989267665       41.6452798256  TIP3      7842            0.0000000000
     73357      8242  TIP3      H1              1.7149479750        5.2608123799       41.1194647976  TIP3      7842            0.0000000000
     73358      8242  TIP3      H2              0.5285049218        5.2028328591       42.0191243709  TIP3      7842            0.0000000000
     73359      8243  TIP3      OH2             5.3436422678        6.9433801444       40.6262861955  TIP3      7843            0.0000000000
     73360      8243  TIP3      H1              4.7978508483        6.5888293485       39.8989441983  TIP3      7843            0.0000000000
     73361      8243  TIP3      H2              6.1637226447        7.1654497272       40.1580582865  TIP3      7843            0.0000000000
     73362      8244  TIP3      OH2            12.5614723539        4.3352067236       40.7043073755  TIP3      7844            0.0000000000
     73363      8244  TIP3      H1             11.6074091766        4.4633859252       40.5934413863  TIP3      7844            0.0000000000
     73364      8244  TIP3      H2             12.8668975646        5.1885336259       41.0733287171  TIP3      7844            0.0000000000
     73365      8245  TIP3      OH2            13.2804881471        6.2314504246       42.3867627241  TIP3      7845            0.0000000000
     73366      8245  TIP3      H1             14.1796895728        6.0836552899       42.7055417117  TIP3      7845            0.0000000000
     73367      8245  TIP3      H2             13.3428043782        7.0213663723       41.8404265127  TIP3      7845            0.0000000000
     73368      8246  TIP3      OH2            10.4949350679       13.0503590688       41.4626432641  TIP3      7846            0.0000000000
     73369      8246  TIP3      H1             10.3696773620       13.8579171098       41.9971135147  TIP3      7846            0.0000000000
     73370      8246  TIP3      H2              9.9649784284       12.3353897750       41.8454059832  TIP3      7846            0.0000000000
     73371      8247  TIP3      OH2            18.3223092538        6.4092401692       41.9829863024  TIP3      7847            0.0000000000
     73372      8247  TIP3      H1             17.6292187708        6.0483924631       41.3877054976  TIP3      7847            0.0000000000
     73373      8247  TIP3      H2             18.2799187900        7.3596346374       41.7878108713  TIP3      7847            0.0000000000
     73374      8248  TIP3      OH2             1.9340467182        9.2092420648       40.2680104125  TIP3      7848            0.0000000000
     73375      8248  TIP3      H1              2.5455732370        9.8392750783       40.7082832595  TIP3      7848            0.0000000000
     73376      8248  TIP3      H2              1.0611172992        9.5182536154       40.5669068656  TIP3      7848            0.0000000000
     73377      8249  TIP3      OH2            13.9465820195       13.2269510877       40.3340064075  TIP3      7849            0.0000000000
     73378      8249  TIP3      H1             14.2727363642       12.8536966122       41.1650402869  TIP3      7849            0.0000000000
     73379      8249  TIP3      H2             12.9806643769       13.1630252924       40.3303421180  TIP3      7849            0.0000000000
     73380      8250  TIP3      OH2            18.3395829775       17.6477682181       40.5561176104  TIP3      7850            0.0000000000
     73381      8250  TIP3      H1             19.0987145731       18.2543301311       40.4702419536  TIP3      7850            0.0000000000
     73382      8250  TIP3      H2             17.6587852322       18.2497501215       40.9090642272  TIP3      7850            0.0000000000
     73383      8251  TIP3      OH2             7.9975511871       14.3212618658       38.8264368701  TIP3      7851            0.0000000000
     73384      8251  TIP3      H1              8.1576333920       13.5479044335       38.2721237225  TIP3      7851            0.0000000000
     73385      8251  TIP3      H2              7.6469320169       13.9112367261       39.6534387284  TIP3      7851            0.0000000000
     73386      8252  TIP3      OH2             6.8766461081       13.8438868509       41.2657482203  TIP3      7852            0.0000000000
     73387      8252  TIP3      H1              7.0257251666       13.3674856479       42.0902133993  TIP3      7852            0.0000000000
     73388      8252  TIP3      H2              6.8992069803       14.7724107626       41.5900534505  TIP3      7852            0.0000000000
     73389      8253  TIP3      OH2             3.2607020103       11.1171959893       41.7299506922  TIP3      7853            0.0000000000
     73390      8253  TIP3      H1              2.6532629684       11.4705216818       42.3696994776  TIP3      7853            0.0000000000
     73391      8253  TIP3      H2              3.8684588620       11.8676343451       41.5456014570  TIP3      7853            0.0000000000
     73392      8254  TIP3      OH2             9.2362745950       15.2857512230       41.3670608726  TIP3      7854            0.0000000000
     73393      8254  TIP3      H1              8.7657321221       15.9408381308       41.9448076155  TIP3      7854            0.0000000000
     73394      8254  TIP3      H2             10.0052355165       15.9183850380       41.3295409526  TIP3      7854            0.0000000000
     73395      8255  TIP3      OH2             6.9777720310       16.5855277204       42.0417427936  TIP3      7855            0.0000000000
     73396      8255  TIP3      H1              7.1055233787       17.3952638904       41.4858754091  TIP3      7855            0.0000000000
     73397      8255  TIP3      H2              6.7662633932       16.9471468773       42.9071647751  TIP3      7855            0.0000000000
     73398      8256  TIP3      OH2             5.5737272666        3.1763874140       41.4379636993  TIP3      7856            0.0000000000
     73399      8256  TIP3      H1              5.4914535752        4.0552326088       41.8451489351  TIP3      7856            0.0000000000
     73400      8256  TIP3      H2              6.4814952242        3.0338063061       41.7994650775  TIP3      7856            0.0000000000
     73401      8257  TIP3      OH2             3.9167477856       13.7405388249       40.6861539339  TIP3      7857            0.0000000000
     73402      8257  TIP3      H1              4.5542754667       14.4123209366       40.9623213764  TIP3      7857            0.0000000000
     73403      8257  TIP3      H2              4.4288275676       13.2970955947       39.9808830513  TIP3      7857            0.0000000000
     73404      8258  TIP3      OH2             2.2572321576        6.4039698262       39.8005597831  TIP3      7858            0.0000000000
     73405      8258  TIP3      H1              2.2269902637        7.3598411157       39.9993849042  TIP3      7858            0.0000000000
     73406      8258  TIP3      H2              1.3684107334        6.1848109197       39.5306290065  TIP3      7858            0.0000000000
     73407      8259  TIP3      OH2            10.0146098283       16.1927741333       38.9630230061  TIP3      7859            0.0000000000
     73408      8259  TIP3      H1              9.3361327504       15.5355347681       39.2597623716  TIP3      7859            0.0000000000
     73409      8259  TIP3      H2             10.7458657949       15.6192689655       38.7114355183  TIP3      7859            0.0000000000
     73410      8260  TIP3      OH2            14.5792225942       15.9589744639       39.1611223035  TIP3      7860            0.0000000000
     73411      8260  TIP3      H1             14.8872978908       15.1900491372       39.6500933059  TIP3      7860            0.0000000000
     73412      8260  TIP3      H2             15.3503256284       16.2000154778       38.6196320388  TIP3      7860            0.0000000000
     73413      8261  TIP3      OH2             5.4985880478       11.8816192266       39.0304336575  TIP3      7861            0.0000000000
     73414      8261  TIP3      H1              5.6290744835       11.0975397786       39.5838200894  TIP3      7861            0.0000000000
     73415      8261  TIP3      H2              6.2165452057       11.7695413628       38.3732059481  TIP3      7861            0.0000000000
     73416      8262  TIP3      OH2            10.9658616782       12.9468348324       38.8129716253  TIP3      7862            0.0000000000
     73417      8262  TIP3      H1             10.5802724989       13.1136457644       39.6871636301  TIP3      7862            0.0000000000
     73418      8262  TIP3      H2             10.6796748597       12.0120046457       38.6262226730  TIP3      7862            0.0000000000
     73419      8263  TIP3      OH2             6.6937489550        9.8660307120       41.3547752324  TIP3      7863            0.0000000000
     73420      8263  TIP3      H1              6.2261915963        9.3650840172       42.0363288789  TIP3      7863            0.0000000000
     73421      8263  TIP3      H2              6.9600675532        9.1848197310       40.7070398274  TIP3      7863            0.0000000000
     73422      8264  TIP3      OH2             7.7520764598        8.0837479892       39.6194021716  TIP3      7864            0.0000000000
     73423      8264  TIP3      H1              7.5954593237        7.9669433579       38.6605619689  TIP3      7864            0.0000000000
     73424      8264  TIP3      H2              8.7231836037        8.1970198840       39.6655451296  TIP3      7864            0.0000000000
     73425      8265  TIP3      OH2            17.1145539804       10.4626333319       39.0984413266  TIP3      7865            0.0000000000
     73426      8265  TIP3      H1             16.8970692216       10.0524520118       38.2389479672  TIP3      7865            0.0000000000
     73427      8265  TIP3      H2             17.2012628668       11.4095179680       38.8338245072  TIP3      7865            0.0000000000
     73428      8266  TIP3      OH2             7.6360439537       18.8053892316       40.6679969546  TIP3      7866            0.0000000000
     73429      8266  TIP3      H1              8.6003524531       18.9391077828       40.7510560100  TIP3      7866            0.0000000000
     73430      8266  TIP3      H2              7.4243877993       19.4554112393       39.9831059532  TIP3      7866            0.0000000000
     73431      8267  TIP3      OH2             1.1890411080       13.4275348594       40.1263112558  TIP3      7867            0.0000000000
     73432      8267  TIP3      H1              2.1428091699       13.5060725964       40.3698586796  TIP3      7867            0.0000000000
     73433      8267  TIP3      H2              1.2377867292       12.7370504503       39.4323333037  TIP3      7867            0.0000000000
     73434      8268  TIP3      OH2            18.3373817238        9.2276618883       41.1847728843  TIP3      7868            0.0000000000
     73435      8268  TIP3      H1             17.7730800140        9.6320825932       40.4894091947  TIP3      7868            0.0000000000
     73436      8268  TIP3      H2             18.2798709695        9.9075337159       41.9082468810  TIP3      7868            0.0000000000
     73437      8269  TIP3      OH2            16.6386925484        6.5299452875       39.8143983223  TIP3      7869            0.0000000000
     73438      8269  TIP3      H1             16.7245934817        7.1763762896       39.1057713616  TIP3      7869            0.0000000000
     73439      8269  TIP3      H2             16.4806017847        5.6954250760       39.3226472474  TIP3      7869            0.0000000000
     73440      8270  TIP3      OH2            15.8846486789        3.9436835512       38.9203747499  TIP3      7870            0.0000000000
     73441      8270  TIP3      H1             16.4875284596        3.5412924540       39.5678584848  TIP3      7870            0.0000000000
     73442      8270  TIP3      H2             15.0353155254        3.5174973520       39.1250106816  TIP3      7870            0.0000000000
     73443      8271  TIP3      OH2            17.9636703004        2.8166381242       40.4692990341  TIP3      7871            0.0000000000
     73444      8271  TIP3      H1             18.3981810537        2.0823198083       39.9858187634  TIP3      7871            0.0000000000
     73445      8271  TIP3      H2             18.6720113980        3.4766939838       40.5394453803  TIP3      7871            0.0000000000
     73446      8272  TIP3      OH2             1.5498874275        0.8547850492       41.5537295028  TIP3      7872            0.0000000000
     73447      8272  TIP3      H1              1.9986444242        1.4959009039       40.9863189112  TIP3      7872            0.0000000000
     73448      8272  TIP3      H2              0.9316001862        1.4111054648       42.0275142099  TIP3      7872            0.0000000000
     73449      8273  TIP3      OH2             3.3774361464        2.7869974068       40.0038751560  TIP3      7873            0.0000000000
     73450      8273  TIP3      H1              3.8901350095        2.1462179874       39.4826847404  TIP3      7873            0.0000000000
     73451      8273  TIP3      H2              4.0253007532        3.0689446577       40.6839727378  TIP3      7873            0.0000000000
     73452      8274  TIP3      OH2            10.2923398958       18.0365662187       40.8838450788  TIP3      7874            0.0000000000
     73453      8274  TIP3      H1             11.1836502476       18.3609675458       40.6782147365  TIP3      7874            0.0000000000
     73454      8274  TIP3      H2             10.0703736573       17.5673627925       40.0471955261  TIP3      7874            0.0000000000
     73455      8275  TIP3      OH2             3.2445116383       17.7459844370       39.4831057661  TIP3      7875            0.0000000000
     73456      8275  TIP3      H1              2.9826000873       18.0122857695       40.3784843432  TIP3      7875            0.0000000000
     73457      8275  TIP3      H2              4.0262584378       17.1772661360       39.6401121016  TIP3      7875            0.0000000000
     73458      8276  TIP3      OH2            29.3904811819        7.9462008111       40.1867819400  TIP3      7876            0.0000000000
     73459      8276  TIP3      H1             30.1148566825        7.9657723599       40.8536937015  TIP3      7876            0.0000000000
     73460      8276  TIP3      H2             29.7345891586        7.2858277181       39.5755784031  TIP3      7876            0.0000000000
     73461      8277  TIP3      OH2            31.6044269624        8.7420688673       41.7172739068  TIP3      7877            0.0000000000
     73462      8277  TIP3      H1             32.1216896575        8.9663406573       42.5372179547  TIP3      7877            0.0000000000
     73463      8277  TIP3      H2             32.0273563841        9.3138873697       41.0519252683  TIP3      7877            0.0000000000
     73464      8278  TIP3      OH2            35.3568023048        0.5889885071       41.6687722907  TIP3      7878            0.0000000000
     73465      8278  TIP3      H1             34.4338677624        0.7188037668       41.9031285615  TIP3      7878            0.0000000000
     73466      8278  TIP3      H2             35.5880794069        1.4265414090       41.2343901274  TIP3      7878            0.0000000000
     73467      8279  TIP3      OH2            36.5073398414       14.9478943001       39.9710758989  TIP3      7879            0.0000000000
     73468      8279  TIP3      H1             36.6318080956       15.8944592946       40.1804546938  TIP3      7879            0.0000000000
     73469      8279  TIP3      H2             37.4449983979       14.6572361561       39.9782149026  TIP3      7879            0.0000000000
     73470      8280  TIP3      OH2            31.9353133892       17.7066345020       40.6761219828  TIP3      7880            0.0000000000
     73471      8280  TIP3      H1             32.3375527339       16.9437750346       40.2005234265  TIP3      7880            0.0000000000
     73472      8280  TIP3      H2             31.9698753081       17.4079287573       41.5952663395  TIP3      7880            0.0000000000
     73473      8281  TIP3      OH2            33.1233700959        9.8595152582       39.5011027467  TIP3      7881            0.0000000000
     73474      8281  TIP3      H1             33.1339730662        9.6616801128       38.5256052661  TIP3      7881            0.0000000000
     73475      8281  TIP3      H2             33.9767092646       10.2961212344       39.6076870216  TIP3      7881            0.0000000000
     73476      8282  TIP3      OH2            28.6967475554        3.7567591662       40.1042707684  TIP3      7882            0.0000000000
     73477      8282  TIP3      H1             28.4276318182        3.7686398374       41.0325704414  TIP3      7882            0.0000000000
     73478      8282  TIP3      H2             28.4218826965        2.8760728511       39.8027408486  TIP3      7882            0.0000000000
     73479      8283  TIP3      OH2            25.5651686731        4.1813495583       39.2105698851  TIP3      7883            0.0000000000
     73480      8283  TIP3      H1             25.1104825271        3.7535208796       39.9618704010  TIP3      7883            0.0000000000
     73481      8283  TIP3      H2             24.8410570082        4.5716711869       38.7005166080  TIP3      7883            0.0000000000
     73482      8284  TIP3      OH2            20.0701596834        4.5990252958       41.6451406873  TIP3      7884            0.0000000000
     73483      8284  TIP3      H1             20.5709345870        5.2608272080       41.1194657679  TIP3      7884            0.0000000000
     73484      8284  TIP3      H2             19.3844558512        5.2028288867       42.0192427366  TIP3      7884            0.0000000000
     73485      8285  TIP3      OH2            24.1998826535        6.9435590290       40.6258014863  TIP3      7885            0.0000000000
     73486      8285  TIP3      H1             23.6538173808        6.5888161579       39.8989743500  TIP3      7885            0.0000000000
     73487      8285  TIP3      H2             25.0197148545        7.1653905208       40.1579589018  TIP3      7885            0.0000000000
     73488      8286  TIP3      OH2            31.4177720173        4.3351896613       40.7021773271  TIP3      7886            0.0000000000
     73489      8286  TIP3      H1             30.4634264346        4.4634583318       40.5935643919  TIP3      7886            0.0000000000
     73490      8286  TIP3      H2             31.7229136757        5.1886684224       41.0734081368  TIP3      7886            0.0000000000
     73491      8287  TIP3      OH2            32.1345923761        6.2297508190       42.3862976252  TIP3      7887            0.0000000000
     73492      8287  TIP3      H1             33.0350785826        6.0842075617       42.7054796360  TIP3      7887            0.0000000000
     73493      8287  TIP3      H2             32.1960848672        7.0277375796       41.8430253695  TIP3      7887            0.0000000000
     73494      8288  TIP3      OH2            29.6753489755       12.9715778834       41.5663392438  TIP3      7888            0.0000000000
     73495      8288  TIP3      H1             29.3324102032       13.8038936517       41.9209791074  TIP3      7888            0.0000000000
     73496      8288  TIP3      H2             28.9485413042       12.3643810059       41.7685796010  TIP3      7888            0.0000000000
     73497      8289  TIP3      OH2            37.1732721061        6.4036512199       41.9833010806  TIP3      7889            0.0000000000
     73498      8289  TIP3      H1             36.4826661025        6.0474110443       41.3857274179  TIP3      7889            0.0000000000
     73499      8289  TIP3      H2             37.1359503398        7.3564172483       41.7892440629  TIP3      7889            0.0000000000
     73500      8290  TIP3      OH2            20.7900820330        9.2093172740       40.2677900001  TIP3      7890            0.0000000000
     73501      8290  TIP3      H1             21.4016396640        9.8392427681       40.7083032898  TIP3      7890            0.0000000000
     73502      8290  TIP3      H2             19.9173553162        9.5170132826       40.5682791423  TIP3      7890            0.0000000000
     73503      8291  TIP3      OH2            32.7411539969       13.2031120165       40.3624561504  TIP3      7891            0.0000000000
     73504      8291  TIP3      H1             33.0574749138       12.8331559163       41.1902597313  TIP3      7891            0.0000000000
     73505      8291  TIP3      H2             31.7738879066       13.0959718714       40.4653009840  TIP3      7891            0.0000000000
     73506      8292  TIP3      OH2            37.1943807426       17.6475468764       40.5561451895  TIP3      7892            0.0000000000
     73507      8292  TIP3      H1             37.9545668708       18.2543513951       40.4706080388  TIP3      7892            0.0000000000
     73508      8292  TIP3      H2             36.5141129315       18.2468304038       40.9105118056  TIP3      7892            0.0000000000
     73509      8293  TIP3      OH2            26.8378411456       14.3242503244       38.8206065554  TIP3      7893            0.0000000000
     73510      8293  TIP3      H1             27.0224445986       13.5477539628       38.2768798981  TIP3      7893            0.0000000000
     73511      8293  TIP3      H2             26.5104037890       13.9101246642       39.6547715601  TIP3      7893            0.0000000000
     73512      8294  TIP3      OH2            25.7193924424       13.8454758613       41.2662005382  TIP3      7894            0.0000000000
     73513      8294  TIP3      H1             25.8899566524       13.3667111811       42.0874233272  TIP3      7894            0.0000000000
     73514      8294  TIP3      H2             25.7602521889       14.7722461435       41.5908203334  TIP3      7894            0.0000000000
     73515      8295  TIP3      OH2            22.1165953379       11.1171980866       41.7298872596  TIP3      7895            0.0000000000
     73516      8295  TIP3      H1             21.5093510161       11.4705483878       42.3697649344  TIP3      7895            0.0000000000
     73517      8295  TIP3      H2             22.7243533418       11.8675199759       41.5455987232  TIP3      7895            0.0000000000
     73518      8296  TIP3      OH2            28.1064379482       15.2527443483       41.3720883066  TIP3      7896            0.0000000000
     73519      8296  TIP3      H1             27.6355390735       15.9203961261       41.9369002453  TIP3      7896            0.0000000000
     73520      8296  TIP3      H2             28.8695695923       15.8972712918       41.3310995578  TIP3      7896            0.0000000000
     73521      8297  TIP3      OH2            25.8375993401       16.5835907101       42.0381616245  TIP3      7897            0.0000000000
     73522      8297  TIP3      H1             25.9609717181       17.3957666694       41.4852696139  TIP3      7897            0.0000000000
     73523      8297  TIP3      H2             25.6183015427       16.9434145021       42.9008427085  TIP3      7897            0.0000000000
     73524      8298  TIP3      OH2            24.4268669209        3.1766930634       41.4374689517  TIP3      7898            0.0000000000
     73525      8298  TIP3      H1             24.3474937936        4.0528035902       41.8532452173  TIP3      7898            0.0000000000
     73526      8298  TIP3      H2             25.3328886604        3.0385883192       41.8046831326  TIP3      7898            0.0000000000
     73527      8299  TIP3      OH2            22.7732923886       13.7408176450       40.6857548284  TIP3      7899            0.0000000000
     73528      8299  TIP3      H1             23.4125930557       14.4115175835       40.9628509183  TIP3      7899            0.0000000000
     73529      8299  TIP3      H2             23.2878855953       13.2966181028       39.9823508644  TIP3      7899            0.0000000000
     73530      8300  TIP3      OH2            21.1133664580        6.4036681031       39.8006895766  TIP3      7900            0.0000000000
     73531      8300  TIP3      H1             21.0831754686        7.3593228084       39.9999797545  TIP3      7900            0.0000000000
     73532      8300  TIP3      H2             20.2244404952        6.1847597105       39.5307430139  TIP3      7900            0.0000000000
     73533      8301  TIP3      OH2            28.8680539186       16.1918649924       38.9534772261  TIP3      7901            0.0000000000
     73534      8301  TIP3      H1             28.1997279901       15.5309094897       39.2625322665  TIP3      7901            0.0000000000
     73535      8301  TIP3      H2             29.6053770525       15.6140583634       38.7209784239  TIP3      7901            0.0000000000
     73536      8302  TIP3      OH2            33.4409539532       15.9689156599       39.1594256357  TIP3      7902            0.0000000000
     73537      8302  TIP3      H1             33.7320466925       15.1882376248       39.6521709187  TIP3      7902            0.0000000000
     73538      8302  TIP3      H2             34.2098373112       16.1958789687       38.6192754878  TIP3      7902            0.0000000000
     73539      8303  TIP3      OH2            24.3560992908       11.8823047925       39.0312467827  TIP3      7903            0.0000000000
     73540      8303  TIP3      H1             24.4847702538       11.0972539822       39.5836544760  TIP3      7903            0.0000000000
     73541      8303  TIP3      H2             25.0720658870       11.7693675930       38.3725899324  TIP3      7903            0.0000000000
     73542      8304  TIP3      OH2            29.7798665942       12.9592645321       38.7886694066  TIP3      7904            0.0000000000
     73543      8304  TIP3      H1             29.4911561310       13.0983149817       39.7029885096  TIP3      7904            0.0000000000
     73544      8304  TIP3      H2             29.5485512851       12.0086068790       38.6419705963  TIP3      7904            0.0000000000
     73545      8305  TIP3      OH2            25.5498250776        9.8667159578       41.3545994261  TIP3      7905            0.0000000000
     73546      8305  TIP3      H1             25.0823804631        9.3650743719       42.0363290286  TIP3      7905            0.0000000000
     73547      8305  TIP3      H2             25.8160027781        9.1847610493       40.7072757656  TIP3      7905            0.0000000000
     73548      8306  TIP3      OH2            26.6142262342        8.0982847782       39.6144488073  TIP3      7906            0.0000000000
     73549      8306  TIP3      H1             26.4562122276        7.9719563160       38.6589564870  TIP3      7906            0.0000000000
     73550      8306  TIP3      H2             27.5862079747        8.2027380685       39.6710821273  TIP3      7906            0.0000000000
     73551      8307  TIP3      OH2            35.9815245018       10.4580004214       39.0912061183  TIP3      7907            0.0000000000
     73552      8307  TIP3      H1             35.7530911143       10.0517977248       38.2358102972  TIP3      7907            0.0000000000
     73553      8307  TIP3      H2             36.0562596972       11.4106036425       38.8396462874  TIP3      7907            0.0000000000
     73554      8308  TIP3      OH2            26.4916258159       18.8055034579       40.6685589546  TIP3      7908            0.0000000000
     73555      8308  TIP3      H1             27.4563928180       18.9389728334       40.7507713112  TIP3      7908            0.0000000000
     73556      8308  TIP3      H2             26.2804915459       19.4554258948       39.9829071097  TIP3      7908            0.0000000000
     73557      8309  TIP3      OH2            20.0448646213       13.4273373452       40.1263587673  TIP3      7909            0.0000000000
     73558      8309  TIP3      H1             20.9986928700       13.5061517606       40.3698699312  TIP3      7909            0.0000000000
     73559      8309  TIP3      H2             20.0938370696       12.7370985674       39.4323518261  TIP3      7909            0.0000000000
     73560      8310  TIP3      OH2            37.1792329857        9.2219200073       41.1846510008  TIP3      7910            0.0000000000
     73561      8310  TIP3      H1             36.6347201848        9.6382702061       40.4860551289  TIP3      7910            0.0000000000
     73562      8310  TIP3      H2             37.1446564918        9.9094786077       41.9043441720  TIP3      7910            0.0000000000
     73563      8311  TIP3      OH2            35.4939053084        6.5321955897       39.8148404102  TIP3      7911            0.0000000000
     73564      8311  TIP3      H1             35.5807415282        7.1770416261       39.1055894963  TIP3      7911            0.0000000000
     73565      8311  TIP3      H2             35.3366645451        5.6960065190       39.3229313998  TIP3      7911            0.0000000000
     73566      8312  TIP3      OH2            34.7407371579        3.9436854849       38.9203151428  TIP3      7912            0.0000000000
     73567      8312  TIP3      H1             35.3434667431        3.5413246650       39.5679106520  TIP3      7912            0.0000000000
     73568      8312  TIP3      H2             33.8913208956        3.5175162953       39.1250522792  TIP3      7912            0.0000000000
     73569      8313  TIP3      OH2            36.8188064149        2.8146120870       40.4736297941  TIP3      7913            0.0000000000
     73570      8313  TIP3      H1             37.2537057446        2.0826007281       39.9860996183  TIP3      7913            0.0000000000
     73571      8313  TIP3      H2             37.5269165342        3.4764175061       40.5396107011  TIP3      7913            0.0000000000
     73572      8314  TIP3      OH2            20.4063202558        0.8542566611       41.5531966229  TIP3      7914            0.0000000000
     73573      8314  TIP3      H1             20.8547484683        1.4959614977       40.9864713547  TIP3      7914            0.0000000000
     73574      8314  TIP3      H2             19.7877316345        1.4111361802       42.0275736967  TIP3      7914            0.0000000000
     73575      8315  TIP3      OH2            22.2332324092        2.7870156285       40.0036251668  TIP3      7915            0.0000000000
     73576      8315  TIP3      H1             22.7461709207        2.1462414394       39.4827253671  TIP3      7915            0.0000000000
     73577      8315  TIP3      H2             22.8812969273        3.0689200700       40.6840349871  TIP3      7915            0.0000000000
     73578      8316  TIP3      OH2            29.1443868302       18.0446930604       40.8802575634  TIP3      7916            0.0000000000
     73579      8316  TIP3      H1             30.0401043914       18.3605345960       40.6787923882  TIP3      7916            0.0000000000
     73580      8316  TIP3      H2             28.9302727329       17.5608835660       40.0503124481  TIP3      7916            0.0000000000
     73581      8317  TIP3      OH2            22.1003803913       17.7460492709       39.4831353059  TIP3      7917            0.0000000000
     73582      8317  TIP3      H1             21.8385825470       18.0122897159       40.3785057160  TIP3      7917            0.0000000000
     73583      8317  TIP3      H2             22.8821643281       17.1772306920       39.6400060074  TIP3      7917            0.0000000000
     73584      8318  TIP3      OH2            48.2449228340        7.9489068328       40.1853723344  TIP3      7918            0.0000000000
     73585      8318  TIP3      H1             48.9701274258        7.9660846104       40.8532244800  TIP3      7918            0.0000000000
     73586      8318  TIP3      H2             48.5899104718        7.2864436995       39.5758269906  TIP3      7918            0.0000000000
     73587      8319  TIP3      OH2            50.4528714284        8.7469589624       41.7182796183  TIP3      7919            0.0000000000
     73588      8319  TIP3      H1             50.9764265064        8.9662748469       42.5363208230  TIP3      7919            0.0000000000
     73589      8319  TIP3      H2             50.8831987812        9.3133031422       41.0518941183  TIP3      7919            0.0000000000
     73590      8320  TIP3      OH2            54.1996503386        0.5943093755       41.6627478451  TIP3      7920            0.0000000000
     73591      8320  TIP3      H1             53.2802775300        0.7217288825       41.9125847153  TIP3      7920            0.0000000000
     73592      8320  TIP3      H2             54.4491999155        1.4297959303       41.2415203126  TIP3      7920            0.0000000000
     73593      8321  TIP3      OH2            55.3469983859       14.9601192622       39.9657291544  TIP3      7921            0.0000000000
     73594      8321  TIP3      H1             55.4811166075       15.8982021496       40.1809071984  TIP3      7921            0.0000000000
     73595      8321  TIP3      H2             56.2810125511       14.6503917585       39.9836227773  TIP3      7921            0.0000000000
     73596      8322  TIP3      OH2            50.7734230852       17.7117756070       40.6780574782  TIP3      7922            0.0000000000
     73597      8322  TIP3      H1             51.1914948186       16.9443302300       40.2029681921  TIP3      7922            0.0000000000
     73598      8322  TIP3      H2             50.8338424401       17.4030163290       41.5954432693  TIP3      7922            0.0000000000
     73599      8323  TIP3      OH2            51.9765400232        9.8571251054       39.5039056018  TIP3      7923            0.0000000000
     73600      8323  TIP3      H1             51.9898890078        9.6609766264       38.5272539203  TIP3      7923            0.0000000000
     73601      8323  TIP3      H2             52.8300813033       10.2955141803       39.6082411503  TIP3      7923            0.0000000000
     73602      8324  TIP3      OH2            47.5530434301        3.7569038151       40.1042996320  TIP3      7924            0.0000000000
     73603      8324  TIP3      H1             47.2835399193        3.7686769944       41.0325589926  TIP3      7924            0.0000000000
     73604      8324  TIP3      H2             47.2776237523        2.8765912009       39.8022223435  TIP3      7924            0.0000000000
     73605      8325  TIP3      OH2            44.4212051479        4.1809184798       39.2102957088  TIP3      7925            0.0000000000
     73606      8325  TIP3      H1             43.9665084068        3.7538330012       39.9620329839  TIP3      7925            0.0000000000
     73607      8325  TIP3      H2             43.6971217932        4.5718128011       38.7007075967  TIP3      7925            0.0000000000
     73608      8326  TIP3      OH2            38.9274724535        4.6011184706       41.6443488475  TIP3      7926            0.0000000000
     73609      8326  TIP3      H1             39.4282080948        5.2672331320       41.1219082936  TIP3      7926            0.0000000000
     73610      8326  TIP3      H2             38.2402223826        5.2026423980       42.0193052051  TIP3      7926            0.0000000000
     73611      8327  TIP3      OH2            43.0618789870        6.9246777660       40.6282563661  TIP3      7927            0.0000000000
     73612      8327  TIP3      H1             42.5072332834        6.5964235240       39.8974422536  TIP3      7927            0.0000000000
     73613      8327  TIP3      H2             43.8712827753        7.1762569470       40.1585471997  TIP3      7927            0.0000000000
     73614      8328  TIP3      OH2            50.2735153513        4.3350364146       40.7023319216  TIP3      7928            0.0000000000
     73615      8328  TIP3      H1             49.3196752948        4.4637733727       40.5938814303  TIP3      7928            0.0000000000
     73616      8328  TIP3      H2             50.5791691716        5.1884816313       41.0734183782  TIP3      7928            0.0000000000
     73617      8329  TIP3      OH2            50.9947155305        6.2292611715       42.3840049713  TIP3      7929            0.0000000000
     73618      8329  TIP3      H1             51.8939482931        6.0830737779       42.7022313786  TIP3      7929            0.0000000000
     73619      8329  TIP3      H2             51.0535819083        7.0281271283       41.8414168976  TIP3      7929            0.0000000000
     73620      8330  TIP3      OH2            48.5317709975       12.9715928511       41.5667123704  TIP3      7930            0.0000000000
     73621      8330  TIP3      H1             48.1910353153       13.8037283402       41.9218009840  TIP3      7930            0.0000000000
     73622      8330  TIP3      H2             47.8045801613       12.3643515202       41.7682302800  TIP3      7930            0.0000000000
     73623      8331  TIP3      OH2            55.9784126526        6.4473960095       42.0123931807  TIP3      7931            0.0000000000
     73624      8331  TIP3      H1             55.3312664385        6.0518671793       41.3829440715  TIP3      7931            0.0000000000
     73625      8331  TIP3      H2             55.9918546521        7.3852721796       41.7752149728  TIP3      7931            0.0000000000
     73626      8332  TIP3      OH2            39.6420413038        9.1999995285       40.2682373166  TIP3      7932            0.0000000000
     73627      8332  TIP3      H1             40.2579833161        9.8386625733       40.7020771209  TIP3      7932            0.0000000000
     73628      8332  TIP3      H2             38.7773175451        9.5221229016       40.5684000406  TIP3      7932            0.0000000000
     73629      8333  TIP3      OH2            51.5831092696       13.2067487564       40.3633987556  TIP3      7933            0.0000000000
     73630      8333  TIP3      H1             51.9053250669       12.8339275915       41.1886568150  TIP3      7933            0.0000000000
     73631      8333  TIP3      H2             50.6222639396       13.0953581751       40.4679470742  TIP3      7933            0.0000000000
     73632      8334  TIP3      OH2            56.0467816652       17.6565056626       40.5431192625  TIP3      7934            0.0000000000
     73633      8334  TIP3      H1             56.8201638207       18.2468389440       40.4838610510  TIP3      7934            0.0000000000
     73634      8334  TIP3      H2             55.3674910368       18.2389770231       40.9314747515  TIP3      7934            0.0000000000
     73635      8335  TIP3      OH2            45.7141544820       14.3283784297       38.8217246836  TIP3      7935            0.0000000000
     73636      8335  TIP3      H1             45.8651882554       13.5439104130       38.2803510958  TIP3      7935            0.0000000000
     73637      8335  TIP3      H2             45.3593812179       13.9131967955       39.6478456948  TIP3      7935            0.0000000000
     73638      8336  TIP3      OH2            44.5984497043       13.8499561180       41.2680876980  TIP3      7936            0.0000000000
     73639      8336  TIP3      H1             44.7346500481       13.3615533125       42.0861436157  TIP3      7936            0.0000000000
     73640      8336  TIP3      H2             44.6062358446       14.7740554607       41.5903886222  TIP3      7936            0.0000000000
     73641      8337  TIP3      OH2            40.8560458748       10.7738330068       42.3330513687  TIP3      7937            0.0000000000
     73642      8337  TIP3      H1             40.2510589564       11.4763525030       42.3892415491  TIP3      7937            0.0000000000
     73643      8337  TIP3      H2             41.4732412618       11.4743523459       41.8992529252  TIP3      7937            0.0000000000
     73644      8338  TIP3      OH2            46.9619516368       15.2575992418       41.3669480191  TIP3      7938            0.0000000000
     73645      8338  TIP3      H1             46.4890039022       15.9159459848       41.9410726290  TIP3      7938            0.0000000000
     73646      8338  TIP3      H2             47.7287493393       15.8898160248       41.3337656554  TIP3      7938            0.0000000000
     73647      8339  TIP3      OH2            44.7256218856       16.5982559762       42.0466155893  TIP3      7939            0.0000000000
     73648      8339  TIP3      H1             44.8060596112       17.3988490284       41.4845987601  TIP3      7939            0.0000000000
     73649      8339  TIP3      H2             44.4613759385       16.9363069042       42.9037062224  TIP3      7939            0.0000000000
     73650      8340  TIP3      OH2            43.2843112729        3.1758226344       41.4380744521  TIP3      7940            0.0000000000
     73651      8340  TIP3      H1             43.2039563496        4.0526555911       41.8530583440  TIP3      7940            0.0000000000
     73652      8340  TIP3      H2             44.1910628873        3.0352554167       41.8070441848  TIP3      7940            0.0000000000
     73653      8341  TIP3      OH2            41.6925407043       14.8417560931       40.4823357357  TIP3      7941            0.0000000000
     73654      8341  TIP3      H1             42.3205359884       14.4522194530       41.0923287763  TIP3      7941            0.0000000000
     73655      8341  TIP3      H2             41.9834937735       14.0119716959       39.9502492321  TIP3      7941            0.0000000000
     73656      8342  TIP3      OH2            39.9702691575        6.4075394833       39.8006485270  TIP3      7942            0.0000000000
     73657      8342  TIP3      H1             39.9416133853        7.3660443992       40.0002711469  TIP3      7942            0.0000000000
     73658      8342  TIP3      H2             39.0808976765        6.1855044659       39.5318207871  TIP3      7942            0.0000000000
     73659      8343  TIP3      OH2            47.7246628130       16.2031930712       38.9623506463  TIP3      7943            0.0000000000
     73660      8343  TIP3      H1             47.0559132324       15.5284231393       39.2571372595  TIP3      7943            0.0000000000
     73661      8343  TIP3      H2             48.4561855790       15.6128267811       38.7180687731  TIP3      7943            0.0000000000
     73662      8344  TIP3      OH2            52.2855994991       15.9764332275       39.1630459511  TIP3      7944            0.0000000000
     73663      8344  TIP3      H1             52.5815774375       15.1894496924       39.6488700728  TIP3      7944            0.0000000000
     73664      8344  TIP3      H2             53.0618207816       16.1930752649       38.6186934439  TIP3      7944            0.0000000000
     73665      8345  TIP3      OH2            43.4958657868       11.7857061946       38.7331402098  TIP3      7945            0.0000000000
     73666      8345  TIP3      H1             43.3756627076       11.1536022793       39.4941328291  TIP3      7945            0.0000000000
     73667      8345  TIP3      H2             44.2034925457       11.6475982364       38.1961407993  TIP3      7945            0.0000000000
     73668      8346  TIP3      OH2            48.6371129884       12.9592999582       38.7894492945  TIP3      7946            0.0000000000
     73669      8346  TIP3      H1             48.3465881596       13.0981049294       39.7027226011  TIP3      7946            0.0000000000
     73670      8346  TIP3      H2             48.4038704128       12.0089656661       38.6412583792  TIP3      7946            0.0000000000
     73671      8347  TIP3      OH2            44.4296809950        9.8545703055       41.3669847943  TIP3      7947            0.0000000000
     73672      8347  TIP3      H1             43.9303175498        9.3656409101       42.0330443866  TIP3      7947            0.0000000000
     73673      8347  TIP3      H2             44.6686789793        9.1830146101       40.7013587451  TIP3      7947            0.0000000000
     73674      8348  TIP3      OH2            45.4769134345        8.0834497097       39.6145857554  TIP3      7948            0.0000000000
     73675      8348  TIP3      H1             45.3081332552        7.9788628091       38.6590971508  TIP3      7948            0.0000000000
     73676      8348  TIP3      H2             46.4459131604        8.2030191890       39.6695072866  TIP3      7948            0.0000000000
     73677      8349  TIP3      OH2            54.8475303594       10.4684371808       39.0994889069  TIP3      7949            0.0000000000
     73678      8349  TIP3      H1             54.5992801558       10.0563015473       38.2475806835  TIP3      7949            0.0000000000
     73679      8349  TIP3      H2             54.8999801343       11.4174181212       38.8445329788  TIP3      7949            0.0000000000
     73680      8350  TIP3      OH2            45.3577595658       18.8319809295       40.6726021375  TIP3      7950            0.0000000000
     73681      8350  TIP3      H1             46.3098107734       18.9076468361       40.7546081795  TIP3      7950            0.0000000000
     73682      8350  TIP3      H2             45.1159228553       19.4468871478       39.9656757174  TIP3      7950            0.0000000000
     73683      8351  TIP3      OH2            38.8669556273       13.4449385086       40.1242748648  TIP3      7951            0.0000000000
     73684      8351  TIP3      H1             39.8419179021       13.4963243369       40.3591322109  TIP3      7951            0.0000000000
     73685      8351  TIP3      H2             38.9649631046       12.7397128662       39.4419375387  TIP3      7951            0.0000000000
     73686      8352  TIP3      OH2            55.9747629579        9.2063902811       41.2013049128  TIP3      7952            0.0000000000
     73687      8352  TIP3      H1             55.4792481787        9.6389018295       40.4728505135  TIP3      7952            0.0000000000
     73688      8352  TIP3      H2             55.9889961012        9.9119477889       41.9067238764  TIP3      7952            0.0000000000
     73689      8353  TIP3      OH2            54.3374773537        6.5404493968       39.8193241734  TIP3      7953            0.0000000000
     73690      8353  TIP3      H1             54.4400750213        7.1744009472       39.1029559476  TIP3      7953            0.0000000000
     73691      8353  TIP3      H2             54.1879679659        5.7045761931       39.3231783299  TIP3      7953            0.0000000000
     73692      8354  TIP3      OH2            53.5794255090        3.9497110759       38.9225614135  TIP3      7954            0.0000000000
     73693      8354  TIP3      H1             54.1897048334        3.5473189644       39.5662945534  TIP3      7954            0.0000000000
     73694      8354  TIP3      H2             52.7368417851        3.5149878354       39.1236579046  TIP3      7954            0.0000000000
     73695      8355  TIP3      OH2            55.6743058233        2.8002801690       40.4592609689  TIP3      7955            0.0000000000
     73696      8355  TIP3      H1             56.1220150887        2.0931099739       39.9799029522  TIP3      7955            0.0000000000
     73697      8355  TIP3      H2             56.3838181502        3.4674270637       40.5444156215  TIP3      7955            0.0000000000
     73698      8356  TIP3      OH2            39.2618003381        0.8545550335       41.5535558868  TIP3      7956            0.0000000000
     73699      8356  TIP3      H1             39.7107736812        1.4959287198       40.9864817737  TIP3      7956            0.0000000000
     73700      8356  TIP3      H2             38.6437202064        1.4111435873       42.0275113511  TIP3      7956            0.0000000000
     73701      8357  TIP3      OH2            41.0893006982        2.7869702688       40.0037057734  TIP3      7957            0.0000000000
     73702      8357  TIP3      H1             41.6021826310        2.1462456637       39.4827084559  TIP3      7957            0.0000000000
     73703      8357  TIP3      H2             41.7376131284        3.0690178746       40.6837991519  TIP3      7957            0.0000000000
     73704      8358  TIP3      OH2            47.9866915908       18.1213984199       40.8456750261  TIP3      7958            0.0000000000
     73705      8358  TIP3      H1             48.9240236279       18.3155404971       40.6841546312  TIP3      7958            0.0000000000
     73706      8358  TIP3      H2             47.7892723978       17.5411359276       40.0595565538  TIP3      7958            0.0000000000
     73707      8359  TIP3      OH2            40.9658447369       17.7702888862       39.4775867005  TIP3      7959            0.0000000000
     73708      8359  TIP3      H1             40.6956946573       17.9975415269       40.3792230962  TIP3      7959            0.0000000000
     73709      8359  TIP3      H2             41.7245656313       17.1559094386       39.6414551774  TIP3      7959            0.0000000000
     73710      8360  TIP3      OH2           -46.0335064353       26.8022024533       40.1867754735  TIP3      7960            0.0000000000
     73711      8360  TIP3      H1            -45.3091349269       26.8217731656       40.8536992742  TIP3      7960            0.0000000000
     73712      8360  TIP3      H2            -45.6894092209       26.1418092732       39.5755889336  TIP3      7960            0.0000000000
     73713      8361  TIP3      OH2           -43.8196267562       27.5981063933       41.7172291645  TIP3      7961            0.0000000000
     73714      8361  TIP3      H1            -43.3025638442       27.8224296807       42.5371804047  TIP3      7961            0.0000000000
     73715      8361  TIP3      H2            -43.3963881505       28.1697451094       41.0514783680  TIP3      7961            0.0000000000
     73716      8362  TIP3      OH2           -40.0791681189       19.4419222857       41.6489759957  TIP3      7962            0.0000000000
     73717      8362  TIP3      H1            -40.9929671774       19.5749997488       41.9131417737  TIP3      7962            0.0000000000
     73718      8362  TIP3      H2            -39.8244789300       20.2835456944       41.2356011178  TIP3      7962            0.0000000000
     73719      8363  TIP3      OH2           -38.9093235592       33.7992117240       39.9731918086  TIP3      7963            0.0000000000
     73720      8363  TIP3      H1            -38.7896679060       34.7470268544       40.1804406707  TIP3      7963            0.0000000000
     73721      8363  TIP3      H2            -37.9783744362       33.5147458989       39.9774330439  TIP3      7963            0.0000000000
     73722      8364  TIP3      OH2           -43.4863390082       36.5638051087       40.6781503300  TIP3      7964            0.0000000000
     73723      8364  TIP3      H1            -43.0865579696       35.8001591666       40.2008770665  TIP3      7964            0.0000000000
     73724      8364  TIP3      H2            -43.4540155703       36.2635728155       41.5960544225  TIP3      7964            0.0000000000
     73725      8365  TIP3      OH2           -42.3004886391       28.7154363455       39.5020231056  TIP3      7965            0.0000000000
     73726      8365  TIP3      H1            -42.2909475719       28.5178374708       38.5254313126  TIP3      7965            0.0000000000
     73727      8365  TIP3      H2            -41.4473314498       29.1521600470       39.6075386761  TIP3      7965            0.0000000000
     73728      8366  TIP3      OH2           -46.7271374794       22.6129472778       40.1043138519  TIP3      7966            0.0000000000
     73729      8366  TIP3      H1            -46.9964069722       22.6246143135       41.0325920202  TIP3      7966            0.0000000000
     73730      8366  TIP3      H2            -47.0021749581       21.7324967978       39.8023713609  TIP3      7966            0.0000000000
     73731      8367  TIP3      OH2           -49.8560950624       23.0372805711       39.2090370966  TIP3      7967            0.0000000000
     73732      8367  TIP3      H1            -50.3131549723       22.6095740233       39.9616328056  TIP3      7967            0.0000000000
     73733      8367  TIP3      H2            -50.5828077618       23.4275830534       38.7004800789  TIP3      7967            0.0000000000
     73734      8368  TIP3      OH2           -55.3230725674       23.4168617871       41.6464424981  TIP3      7968            0.0000000000
     73735      8368  TIP3      H1            -54.8395559504       24.1046618002       41.1244540370  TIP3      7968            0.0000000000
     73736      8368  TIP3      H2            -56.0103242650       24.0311128751       42.0182884240  TIP3      7968            0.0000000000
     73737      8369  TIP3      OH2           -51.2204260176       25.8003397184       40.6256717304  TIP3      7969            0.0000000000
     73738      8369  TIP3      H1            -51.7721734993       25.4496665476       39.9004725562  TIP3      7969            0.0000000000
     73739      8369  TIP3      H2            -50.4040750179       26.0232881341       40.1580320178  TIP3      7969            0.0000000000
     73740      8370  TIP3      OH2           -44.0066621556       23.1908400042       40.7043385112  TIP3      7970            0.0000000000
     73741      8370  TIP3      H1            -44.9604365040       23.3194101227       40.5936006649  TIP3      7970            0.0000000000
     73742      8370  TIP3      H2            -43.7010078930       24.0446594361       41.0734157697  TIP3      7970            0.0000000000
     73743      8371  TIP3      OH2           -43.2873882338       25.0871279778       42.3852568284  TIP3      7971            0.0000000000
     73744      8371  TIP3      H1            -42.3884945145       24.9401805093       42.7055788991  TIP3      7971            0.0000000000
     73745      8371  TIP3      H2            -43.2275084014       25.8841909572       41.8422067810  TIP3      7971            0.0000000000
     73746      8372  TIP3      OH2           -45.7485772453       31.8274810530       41.5663944553  TIP3      7972            0.0000000000
     73747      8372  TIP3      H1            -46.0915051045       32.6599969436       41.9207278519  TIP3      7972            0.0000000000
     73748      8372  TIP3      H2            -46.4754762422       31.2203960916       41.7685817597  TIP3      7972            0.0000000000
     73749      8373  TIP3      OH2           -38.2469709733       25.2669983923       41.9844482411  TIP3      7973            0.0000000000
     73750      8373  TIP3      H1            -38.9383677329       24.9040183337       41.3874405575  TIP3      7973            0.0000000000
     73751      8373  TIP3      H2            -38.2883298067       26.2164583997       41.7875045854  TIP3      7973            0.0000000000
     73752      8374  TIP3      OH2           -54.5721063418       28.0637810981       40.2434180372  TIP3      7974            0.0000000000
     73753      8374  TIP3      H1            -54.0038218652       28.7015682179       40.7129166676  TIP3      7974            0.0000000000
     73754      8374  TIP3      H2            -55.4653610233       28.3523535773       40.5557300770  TIP3      7974            0.0000000000
     73755      8375  TIP3      OH2           -42.6833177993       32.0598139895       40.3620785018  TIP3      7975            0.0000000000
     73756      8375  TIP3      H1            -42.3677471956       31.6872950361       41.1882914379  TIP3      7975            0.0000000000
     73757      8375  TIP3      H2            -43.6503194769       31.9519841663       40.4651763981  TIP3      7975            0.0000000000
     73758      8376  TIP3      OH2           -38.2280560340       36.5036201940       40.5568948569  TIP3      7976            0.0000000000
     73759      8376  TIP3      H1            -37.4696550664       37.1107624761       40.4686483395  TIP3      7976            0.0000000000
     73760      8376  TIP3      H2            -38.9093246263       37.1055152223       40.9089705641  TIP3      7976            0.0000000000
     73761      8377  TIP3      OH2           -48.5862406580       33.1802981822       38.8205230932  TIP3      7977            0.0000000000
     73762      8377  TIP3      H1            -48.4015241444       32.4037327586       38.2769379896  TIP3      7977            0.0000000000
     73763      8377  TIP3      H2            -48.9135735753       32.7661316798       39.6547889029  TIP3      7977            0.0000000000
     73764      8378  TIP3      OH2           -49.7046889945       32.7014225864       41.2662438575  TIP3      7978            0.0000000000
     73765      8378  TIP3      H1            -49.5340718689       32.2226704472       42.0874021632  TIP3      7978            0.0000000000
     73766      8378  TIP3      H2            -49.6642054592       33.6282003295       41.5907582488  TIP3      7978            0.0000000000
     73767      8379  TIP3      OH2           -53.2940107502       29.9725224826       41.7360833692  TIP3      7979            0.0000000000
     73768      8379  TIP3      H1            -53.9141502415       30.3225353295       42.3659792419  TIP3      7979            0.0000000000
     73769      8379  TIP3      H2            -52.7037587211       30.7298595349       41.5431506652  TIP3      7979            0.0000000000
     73770      8380  TIP3      OH2           -47.3175328374       34.1088024184       41.3721254082  TIP3      7980            0.0000000000
     73771      8380  TIP3      H1            -47.7885006664       34.7764125401       41.9369036905  TIP3      7980            0.0000000000
     73772      8380  TIP3      H2            -46.5544028606       34.7532979072       41.3311006372  TIP3      7980            0.0000000000
     73773      8381  TIP3      OH2           -49.5864565502       35.4395811402       42.0381315040  TIP3      7981            0.0000000000
     73774      8381  TIP3      H1            -49.4630289899       36.2517815154       41.4853054199  TIP3      7981            0.0000000000
     73775      8381  TIP3      H2            -49.8056832472       35.7994468113       42.9008283075  TIP3      7981            0.0000000000
     73776      8382  TIP3      OH2           -50.9903609318       22.0320432076       41.4316561423  TIP3      7982            0.0000000000
     73777      8382  TIP3      H1            -51.0715881155       22.9074587909       41.8504315303  TIP3      7982            0.0000000000
     73778      8382  TIP3      H2            -50.0870955285       21.8905235810       41.8070996443  TIP3      7982            0.0000000000
     73779      8383  TIP3      OH2           -52.6446469763       32.5894186922       40.6817086563  TIP3      7983            0.0000000000
     73780      8383  TIP3      H1            -52.0173166421       33.2708742724       40.9609712178  TIP3      7983            0.0000000000
     73781      8383  TIP3      H2            -52.1278414500       32.1493076813       39.9776910116  TIP3      7983            0.0000000000
     73782      8384  TIP3      OH2           -54.3052286931       25.2612194431       39.7973678063  TIP3      7984            0.0000000000
     73783      8384  TIP3      H1            -54.3356482659       26.2151926240       40.0004132825  TIP3      7984            0.0000000000
     73784      8384  TIP3      H2            -55.1951036339       25.0499686796       39.5230020284  TIP3      7984            0.0000000000
     73785      8385  TIP3      OH2           -46.5548897219       35.0478532478       38.9546270144  TIP3      7985            0.0000000000
     73786      8385  TIP3      H1            -47.2241363170       34.3869589603       39.2625375677  TIP3      7985            0.0000000000
     73787      8385  TIP3      H2            -45.8184606342       34.4699138630       38.7209288189  TIP3      7985            0.0000000000
     73788      8386  TIP3      OH2           -41.9830711625       34.8248945769       39.1594392066  TIP3      7986            0.0000000000
     73789      8386  TIP3      H1            -41.6920637556       34.0442453707       39.6521792933  TIP3      7986            0.0000000000
     73790      8386  TIP3      H2            -41.2143325711       35.0519807387       38.6192982981  TIP3      7986            0.0000000000
     73791      8387  TIP3      OH2           -51.0680401052       30.7375198132       39.0318867174  TIP3      7987            0.0000000000
     73792      8387  TIP3      H1            -50.9435436714       29.9522898725       39.5875078901  TIP3      7987            0.0000000000
     73793      8387  TIP3      H2            -50.3518609568       30.6247230947       38.3731281342  TIP3      7987            0.0000000000
     73794      8388  TIP3      OH2           -45.6442271332       31.8152727567       38.7886619172  TIP3      7988            0.0000000000
     73795      8388  TIP3      H1            -45.9322027852       31.9538667235       39.7032185884  TIP3      7988            0.0000000000
     73796      8388  TIP3      H2            -45.8753636805       30.8645835629       38.6419098776  TIP3      7988            0.0000000000
     73797      8389  TIP3      OH2           -49.8739510733       28.7227595538       41.3547234493  TIP3      7989            0.0000000000
     73798      8389  TIP3      H1            -50.3418000813       28.2211920888       42.0362540997  TIP3      7989            0.0000000000
     73799      8389  TIP3      H2            -49.6081249432       28.0407630835       40.7072816747  TIP3      7989            0.0000000000
     73800      8390  TIP3      OH2           -48.8100592883       26.9544687966       39.6151737589  TIP3      7990            0.0000000000
     73801      8390  TIP3      H1            -48.9737250874       26.8293405451       38.6604991611  TIP3      7990            0.0000000000
     73802      8390  TIP3      H2            -47.8378346919       27.0586346101       39.6704974999  TIP3      7990            0.0000000000
     73803      8391  TIP3      OH2           -39.4369740587       29.3148010684       39.0922100667  TIP3      7991            0.0000000000
     73804      8391  TIP3      H1            -39.6708592962       28.9077513652       38.2365181313  TIP3      7991            0.0000000000
     73805      8391  TIP3      H2            -39.3749960453       30.2663185807       38.8377422984  TIP3      7991            0.0000000000
     73806      8392  TIP3      OH2           -48.9323298049       37.6614899511       40.6683816981  TIP3      7992            0.0000000000
     73807      8392  TIP3      H1            -47.9675976441       37.7950527939       40.7507882404  TIP3      7992            0.0000000000
     73808      8392  TIP3      H2            -49.1437283799       38.3114259389       39.9829900449  TIP3      7992            0.0000000000
     73809      8393  TIP3      OH2           -55.3484062956       32.2659710116       40.1360054514  TIP3      7993            0.0000000000
     73810      8393  TIP3      H1            -54.4026798874       32.3576331431       40.3729534293  TIP3      7993            0.0000000000
     73811      8393  TIP3      H2            -55.3204504344       31.5884122041       39.4282995347  TIP3      7993            0.0000000000
     73812      8394  TIP3      OH2           -38.2334271756       28.0850486600       41.1821949061  TIP3      7994            0.0000000000
     73813      8394  TIP3      H1            -38.7958994110       28.4890908748       40.4879325792  TIP3      7994            0.0000000000
     73814      8394  TIP3      H2            -38.2885741405       28.7634411581       41.9079412130  TIP3      7994            0.0000000000
     73815      8395  TIP3      OH2           -39.9289757033       25.3859577957       39.8143840268  TIP3      7995            0.0000000000
     73816      8395  TIP3      H1            -39.8435465962       26.0324358515       39.1058240144  TIP3      7995            0.0000000000
     73817      8395  TIP3      H2            -40.0876128941       24.5513806164       39.3226662889  TIP3      7995            0.0000000000
     73818      8396  TIP3      OH2           -40.6910740948       22.8071601832       38.9179148889  TIP3      7996            0.0000000000
     73819      8396  TIP3      H1            -40.0811912797       22.3992817055       39.5628719863  TIP3      7996            0.0000000000
     73820      8396  TIP3      H2            -41.5309171939       22.3701630587       39.1267569687  TIP3      7996            0.0000000000
     73821      8397  TIP3      OH2           -38.6279806674       21.6952332431       40.4449333327  TIP3      7997            0.0000000000
     73822      8397  TIP3      H1            -38.1629272921       20.9377749319       40.0060911053  TIP3      7997            0.0000000000
     73823      8397  TIP3      H2            -37.8898246079       22.3197703913       40.5479578099  TIP3      7997            0.0000000000
     73824      8398  TIP3      OH2           -55.0238099692       19.7062848121       41.5496659191  TIP3      7998            0.0000000000
     73825      8398  TIP3      H1            -54.5673470601       20.3554233312       40.9938120388  TIP3      7998            0.0000000000
     73826      8398  TIP3      H2            -55.6342557043       20.2604664197       42.0315081229  TIP3      7998            0.0000000000
     73827      8399  TIP3      OH2           -53.2000171868       21.6359991428       40.0056208360  TIP3      7999            0.0000000000
     73828      8399  TIP3      H1            -52.6770079267       21.0049333933       39.4786013019  TIP3      7999            0.0000000000
     73829      8399  TIP3      H2            -52.5505290952       21.9242314131       40.6814997749  TIP3      7999            0.0000000000
     73830      8400  TIP3      OH2           -46.2795003475       36.9006172814       40.8803685009  TIP3      8000            0.0000000000
     73831      8400  TIP3      H1            -45.3839248060       37.2166173127       40.6787592350  TIP3      8000            0.0000000000
     73832      8400  TIP3      H2            -46.4936673272       36.4168675024       40.0503837583  TIP3      8000            0.0000000000
     73833      8401  TIP3      OH2           -53.3243874163       36.5988619202       39.4706110215  TIP3      8001            0.0000000000
     73834      8401  TIP3      H1            -53.5836101226       36.8603901128       40.3728702669  TIP3      8001            0.0000000000
     73835      8401  TIP3      H2            -52.5375619618       36.0368109063       39.6385403914  TIP3      8001            0.0000000000
     73836      8402  TIP3      OH2           -27.1724256613       26.8091901026       40.1978298160  TIP3      8002            0.0000000000
     73837      8402  TIP3      H1            -26.4429699334       26.8107261372       40.8447364721  TIP3      8002            0.0000000000
     73838      8402  TIP3      H2            -26.8413660774       26.1448321731       39.5727919502  TIP3      8002            0.0000000000
     73839      8403  TIP3      OH2           -25.0037046574       27.6370675945       41.7482653650  TIP3      8003            0.0000000000
     73840      8403  TIP3      H1            -24.4078268845       27.8038906095       42.5215884126  TIP3      8003            0.0000000000
     73841      8403  TIP3      H2            -24.5396853780       28.1529176638       41.0450307377  TIP3      8003            0.0000000000
     73842      8404  TIP3      OH2           -21.2088739949       19.4458969453       41.6542764411  TIP3      8004            0.0000000000
     73843      8404  TIP3      H1            -22.1300725797       19.5680438691       41.9121827935  TIP3      8004            0.0000000000
     73844      8404  TIP3      H2            -20.9799142479       20.2873803808       41.2321022359  TIP3      8004            0.0000000000
     73845      8405  TIP3      OH2           -20.0533730842       33.7991873300       39.9731880118  TIP3      8005            0.0000000000
     73846      8405  TIP3      H1            -19.9337318916       34.7470033499       40.1803705563  TIP3      8005            0.0000000000
     73847      8405  TIP3      H2            -19.1223947840       33.5147643285       39.9774455380  TIP3      8005            0.0000000000
     73848      8406  TIP3      OH2           -24.6325916528       36.5626620702       40.6764842979  TIP3      8006            0.0000000000
     73849      8406  TIP3      H1            -24.2303859926       35.7998064649       40.2004884431  TIP3      8006            0.0000000000
     73850      8406  TIP3      H2            -24.5981051916       36.2639985275       41.5952204280  TIP3      8006            0.0000000000
     73851      8407  TIP3      OH2           -23.4490340552       28.7149548819       39.5132263737  TIP3      8007            0.0000000000
     73852      8407  TIP3      H1            -23.4375122412       28.5182951909       38.5312908133  TIP3      8007            0.0000000000
     73853      8407  TIP3      H2            -22.5901716439       29.1514047877       39.6022814824  TIP3      8007            0.0000000000
     73854      8408  TIP3      OH2           -27.8695968853       22.6151854092       40.1049465165  TIP3      8008            0.0000000000
     73855      8408  TIP3      H1            -28.1405031042       22.6247249234       41.0325894327  TIP3      8008            0.0000000000
     73856      8408  TIP3      H2            -28.1458989735       21.7327768888       39.8023527924  TIP3      8008            0.0000000000
     73857      8409  TIP3      OH2           -31.0041636043       23.0355642982       39.2116819788  TIP3      8009            0.0000000000
     73858      8409  TIP3      H1            -31.4642675382       22.6048922828       39.9641480133  TIP3      8009            0.0000000000
     73859      8409  TIP3      H2            -31.7269984257       23.4275998665       38.7011228797  TIP3      8009            0.0000000000
     73860      8410  TIP3      OH2           -36.5021251110       23.4630883256       41.6413679780  TIP3      8010            0.0000000000
     73861      8410  TIP3      H1            -35.9929381975       24.1141838278       41.1193904205  TIP3      8010            0.0000000000
     73862      8410  TIP3      H2            -37.1844432340       24.0573059205       42.0218794152  TIP3      8010            0.0000000000
     73863      8411  TIP3      OH2           -32.3682862870       25.8010479151       40.6253373754  TIP3      8011            0.0000000000
     73864      8411  TIP3      H1            -32.9142218240       25.4442879473       39.8994434387  TIP3      8011            0.0000000000
     73865      8411  TIP3      H2            -31.5486229286       26.0197164362       40.1588961750  TIP3      8011            0.0000000000
     73866      8412  TIP3      OH2           -25.1503080797       23.1893535459       40.7046328830  TIP3      8012            0.0000000000
     73867      8412  TIP3      H1            -26.1044944893       23.3196090867       40.5937635162  TIP3      8012            0.0000000000
     73868      8412  TIP3      H2            -24.8423759828       24.0407355704       41.0702132511  TIP3      8012            0.0000000000
     73869      8413  TIP3      OH2           -24.4394010675       25.1074527851       42.3952797298  TIP3      8013            0.0000000000
     73870      8413  TIP3      H1            -23.5334868862       24.9301530745       42.6998377048  TIP3      8013            0.0000000000
     73871      8413  TIP3      H2            -24.3602516073       25.8765239416       41.8280426741  TIP3      8013            0.0000000000
     73872      8414  TIP3      OH2           -26.8885562047       31.8160207013       41.5859883008  TIP3      8014            0.0000000000
     73873      8414  TIP3      H1            -27.2348376230       32.6641169395       41.9114250493  TIP3      8014            0.0000000000
     73874      8414  TIP3      H2            -27.6352775438       31.2332354931       41.7549241319  TIP3      8014            0.0000000000
     73875      8415  TIP3      OH2           -19.3896022627       25.2652486318       41.9828385925  TIP3      8015            0.0000000000
     73876      8415  TIP3      H1            -20.0825438382       24.9043417809       41.3875342894  TIP3      8015            0.0000000000
     73877      8415  TIP3      H2            -19.4321202250       26.2156210481       41.7879007583  TIP3      8015            0.0000000000
     73878      8416  TIP3      OH2           -35.7777983026       28.0652730775       40.2678749133  TIP3      8016            0.0000000000
     73879      8416  TIP3      H1            -35.1665168157       28.6953042932       40.7083322630  TIP3      8016            0.0000000000
     73880      8416  TIP3      H2            -36.6507382263       28.3725729130       40.5685720477  TIP3      8016            0.0000000000
     73881      8417  TIP3      OH2           -23.8296593318       32.0514683449       40.3662114281  TIP3      8017            0.0000000000
     73882      8417  TIP3      H1            -23.5066464651       31.6893926441       41.1921021910  TIP3      8017            0.0000000000
     73883      8417  TIP3      H2            -24.7958176624       31.9580566554       40.4603517537  TIP3      8017            0.0000000000
     73884      8418  TIP3      OH2           -19.3719991748       36.5036755430       40.5569692882  TIP3      8018            0.0000000000
     73885      8418  TIP3      H1            -18.6140350017       37.1110910797       40.4670774635  TIP3      8018            0.0000000000
     73886      8418  TIP3      H2            -20.0533579214       37.1055141628       40.9089412724  TIP3      8018            0.0000000000
     73887      8419  TIP3      OH2           -29.7298129162       33.1801764573       38.8206402787  TIP3      8019            0.0000000000
     73888      8419  TIP3      H1            -29.5456976168       32.4036772671       38.2768352019  TIP3      8019            0.0000000000
     73889      8419  TIP3      H2            -30.0577171585       32.7661422385       39.6547623488  TIP3      8019            0.0000000000
     73890      8420  TIP3      OH2           -30.8491999224       32.7028683799       41.2644980411  TIP3      8020            0.0000000000
     73891      8420  TIP3      H1            -30.6850728708       32.2267198043       42.0866554096  TIP3      8020            0.0000000000
     73892      8420  TIP3      H2            -30.8078150651       33.6288242954       41.5904301800  TIP3      8020            0.0000000000
     73893      8421  TIP3      OH2           -34.4511542169       29.9730202543       41.7299402413  TIP3      8021            0.0000000000
     73894      8421  TIP3      H1            -35.0590699989       30.3260006683       42.3696203362  TIP3      8021            0.0000000000
     73895      8421  TIP3      H2            -33.8438212804       30.7237035879       41.5455897619  TIP3      8021            0.0000000000
     73896      8422  TIP3      OH2           -28.4606337399       34.1079411211       41.3720201803  TIP3      8022            0.0000000000
     73897      8422  TIP3      H1            -28.9322087108       34.7759039377       41.9367460033  TIP3      8022            0.0000000000
     73898      8422  TIP3      H2            -27.6983729226       34.7534924842       41.3311663821  TIP3      8022            0.0000000000
     73899      8423  TIP3      OH2           -30.7303097643       35.4395489358       42.0381129007  TIP3      8023            0.0000000000
     73900      8423  TIP3      H1            -30.6070464875       36.2517883832       41.4852906507  TIP3      8023            0.0000000000
     73901      8423  TIP3      H2            -30.9496830124       35.7994042688       42.9008348294  TIP3      8023            0.0000000000
     73902      8424  TIP3      OH2           -32.1263991027       22.0418838536       41.4253263282  TIP3      8024            0.0000000000
     73903      8424  TIP3      H1            -32.2270918051       22.9079167483       41.8580222967  TIP3      8024            0.0000000000
     73904      8424  TIP3      H2            -31.2354334625       21.8890635098       41.8127637275  TIP3      8024            0.0000000000
     73905      8425  TIP3      OH2           -33.7948396889       32.5967664490       40.6859742767  TIP3      8025            0.0000000000
     73906      8425  TIP3      H1            -33.1554049315       33.2675489438       40.9627776748  TIP3      8025            0.0000000000
     73907      8425  TIP3      H2            -33.2818238589       32.1529705479       39.9815821313  TIP3      8025            0.0000000000
     73908      8426  TIP3      OH2           -35.4539564066       25.2603451350       39.8000704946  TIP3      8026            0.0000000000
     73909      8426  TIP3      H1            -35.4845588041       26.2143674236       40.0014373233  TIP3      8026            0.0000000000
     73910      8426  TIP3      H2            -36.3432711452       25.0400461454       39.5310279582  TIP3      8026            0.0000000000
     73911      8427  TIP3      OH2           -27.6999140243       35.0477246461       38.9535512463  TIP3      8027            0.0000000000
     73912      8427  TIP3      H1            -28.3684090891       34.3870027857       39.2624981570  TIP3      8027            0.0000000000
     73913      8427  TIP3      H2            -26.9625324565       34.4701884520       38.7208889670  TIP3      8027            0.0000000000
     73914      8428  TIP3      OH2           -23.1271401960       34.8247131998       39.1594550777  TIP3      8028            0.0000000000
     73915      8428  TIP3      H1            -22.8358679915       34.0443095775       39.6521959145  TIP3      8028            0.0000000000
     73916      8428  TIP3      H2            -22.3583703233       35.0520099157       38.6193175040  TIP3      8028            0.0000000000
     73917      8429  TIP3      OH2           -32.2113006147       30.7383578649       39.0316179249  TIP3      8029            0.0000000000
     73918      8429  TIP3      H1            -32.0831547769       29.9533659052       39.5834660902  TIP3      8029            0.0000000000
     73919      8429  TIP3      H2            -31.4959162834       30.6254197199       38.3725765792  TIP3      8029            0.0000000000
     73920      8430  TIP3      OH2           -26.7863930483       31.8114571934       38.7913855288  TIP3      8030            0.0000000000
     73921      8430  TIP3      H1            -27.0829565981       31.9609180252       39.6983042257  TIP3      8030            0.0000000000
     73922      8430  TIP3      H2            -27.0214772580       30.8648228829       38.6363944510  TIP3      8030            0.0000000000
     73923      8431  TIP3      OH2           -30.9995788504       28.7194917734       41.3657783243  TIP3      8031            0.0000000000
     73924      8431  TIP3      H1            -31.4950821625       28.2216189977       42.0314412912  TIP3      8031            0.0000000000
     73925      8431  TIP3      H2            -30.7606878862       28.0408775358       40.7022611843  TIP3      8031            0.0000000000
     73926      8432  TIP3      OH2           -29.9489875937       26.9581574731       39.6204444403  TIP3      8032            0.0000000000
     73927      8432  TIP3      H1            -30.1121929940       26.8285594103       38.6641982883  TIP3      8032            0.0000000000
     73928      8432  TIP3      H2            -28.9805585892       27.0563757390       39.6635030923  TIP3      8032            0.0000000000
     73929      8433  TIP3      OH2           -20.5813739742       29.3146341854       39.0923289614  TIP3      8033            0.0000000000
     73930      8433  TIP3      H1            -20.8147207554       28.9078759109       38.2363585056  TIP3      8033            0.0000000000
     73931      8433  TIP3      H2            -20.5189608828       30.2663005316       38.8377810423  TIP3      8033            0.0000000000
     73932      8434  TIP3      OH2           -30.0763324697       37.6615421172       40.6684265382  TIP3      8034            0.0000000000
     73933      8434  TIP3      H1            -29.1115777176       37.7950042234       40.7508022673  TIP3      8034            0.0000000000
     73934      8434  TIP3      H2            -30.2875610191       38.3114211155       39.9830089080  TIP3      8034            0.0000000000
     73935      8435  TIP3      OH2           -36.5229424424       32.2834791348       40.1263368592  TIP3      8035            0.0000000000
     73936      8435  TIP3      H1            -35.5691632828       32.3621109859       40.3698463510  TIP3      8035            0.0000000000
     73937      8435  TIP3      H2            -36.4742029406       31.5930530682       39.4323270253  TIP3      8035            0.0000000000
     73938      8436  TIP3      OH2           -19.3771960954       28.0867656369       41.1837124797  TIP3      8036            0.0000000000
     73939      8436  TIP3      H1            -19.9396732874       28.4891929814       40.4879765776  TIP3      8036            0.0000000000
     73940      8436  TIP3      H2            -19.4325288768       28.7642941794       41.9085658552  TIP3      8036            0.0000000000
     73941      8437  TIP3      OH2           -21.0739867192       25.3853350769       39.8132907950  TIP3      8037            0.0000000000
     73942      8437  TIP3      H1            -20.9873651558       26.0324390854       39.1054988253  TIP3      8037            0.0000000000
     73943      8437  TIP3      H2            -21.2314064803       24.5510139875       39.3221196908  TIP3      8037            0.0000000000
     73944      8438  TIP3      OH2           -21.8274133639       22.7997377260       38.9204731349  TIP3      8038            0.0000000000
     73945      8438  TIP3      H1            -21.2244279240       22.3972550852       39.5678160316  TIP3      8038            0.0000000000
     73946      8438  TIP3      H2            -22.6766785857       22.3734185015       39.1249433396  TIP3      8038            0.0000000000
     73947      8439  TIP3      OH2           -19.7483427866       21.6726507613       40.4692893589  TIP3      8039            0.0000000000
     73948      8439  TIP3      H1            -19.3138257391       20.9383203741       39.9858234057  TIP3      8039            0.0000000000
     73949      8439  TIP3      H2            -19.0401840816       22.3327904326       40.5395504997  TIP3      8039            0.0000000000
     73950      8440  TIP3      OH2           -36.6125737308       19.9150370537       41.0038257411  TIP3      8040            0.0000000000
     73951      8440  TIP3      H1            -35.7171613813       20.3274881311       40.9817395075  TIP3      8040            0.0000000000
     73952      8440  TIP3      H2            -36.7390691115       20.1893644230       41.9506575095  TIP3      8040            0.0000000000
     73953      8441  TIP3      OH2           -34.3238395000       21.6598776409       39.9911666666  TIP3      8041            0.0000000000
     73954      8441  TIP3      H1            -33.8251209383       20.9947967133       39.4910695620  TIP3      8041            0.0000000000
     73955      8441  TIP3      H2            -33.6930683654       21.9165390503       40.6963373820  TIP3      8041            0.0000000000
     73956      8442  TIP3      OH2           -27.4235903415       36.9005161087       40.8802981496  TIP3      8042            0.0000000000
     73957      8442  TIP3      H1            -26.5279387414       37.2165970222       40.6787822083  TIP3      8042            0.0000000000
     73958      8442  TIP3      H2            -27.6377293849       36.4169703618       40.0502748515  TIP3      8042            0.0000000000
     73959      8443  TIP3      OH2           -34.4675730426       36.6020773502       39.4831060734  TIP3      8043            0.0000000000
     73960      8443  TIP3      H1            -34.7294162507       36.8682800556       40.3785048723  TIP3      8043            0.0000000000
     73961      8443  TIP3      H2            -33.6858469081       36.0332196057       39.6400237005  TIP3      8043            0.0000000000
     73962      8444  TIP3      OH2            -8.3215154117       26.8021940444       40.1867494864  TIP3      8044            0.0000000000
     73963      8444  TIP3      H1             -7.5971407511       26.8217801222       40.8536960092  TIP3      8044            0.0000000000
     73964      8444  TIP3      H2             -7.9774008192       26.1417980192       39.5755872724  TIP3      8044            0.0000000000
     73965      8445  TIP3      OH2            -6.1075948150       27.5980889663       41.7172738273  TIP3      8045            0.0000000000
     73966      8445  TIP3      H1             -5.5903608537       27.8223422558       42.5372713517  TIP3      8045            0.0000000000
     73967      8445  TIP3      H2             -5.6843954232       28.1697481703       41.0514762629  TIP3      8045            0.0000000000
     73968      8446  TIP3      OH2            -2.3535149163       19.4459260636       41.6541828073  TIP3      8046            0.0000000000
     73969      8446  TIP3      H1             -3.2746920662       19.5707736792       41.9126737541  TIP3      8046            0.0000000000
     73970      8446  TIP3      H2             -2.1237404297       20.2873911383       41.2321130903  TIP3      8046            0.0000000000
     73971      8447  TIP3      OH2            -1.2002501737       33.7996199793       39.9732309658  TIP3      8047            0.0000000000
     73972      8447  TIP3      H1             -1.0774800420       34.7471048406       40.1804562102  TIP3      8047            0.0000000000
     73973      8447  TIP3      H2             -0.2714580985       33.5132234837       39.9771028945  TIP3      8047            0.0000000000
     73974      8448  TIP3      OH2            -5.7765875431       36.5627184917       40.6763865124  TIP3      8048            0.0000000000
     73975      8448  TIP3      H1             -5.3744468666       35.7997837666       40.2005193674  TIP3      8048            0.0000000000
     73976      8448  TIP3      H2             -5.7420959312       36.2639272991       41.5952487852  TIP3      8048            0.0000000000
     73977      8449  TIP3      OH2            -4.5881837977       28.7152971850       39.5022842666  TIP3      8049            0.0000000000
     73978      8449  TIP3      H1             -4.5789643979       28.5178729810       38.5254281313  TIP3      8049            0.0000000000
     73979      8449  TIP3      H2             -3.7353469342       29.1521710310       39.6075373036  TIP3      8049            0.0000000000
     73980      8450  TIP3      OH2            -9.0151109678       22.6132315811       40.1046714445  TIP3      8050            0.0000000000
     73981      8450  TIP3      H1             -9.2839438254       22.6253362841       41.0330829132  TIP3      8050            0.0000000000
     73982      8450  TIP3      H2             -9.2898140994       21.7330421544       39.8025326781  TIP3      8050            0.0000000000
     73983      8451  TIP3      OH2           -12.1468474908       23.0371989871       39.2104818234  TIP3      8051            0.0000000000
     73984      8451  TIP3      H1            -12.6015355223       22.6095788568       39.9619451796  TIP3      8051            0.0000000000
     73985      8451  TIP3      H2            -12.8709371390       23.4277501229       38.7005255211  TIP3      8051            0.0000000000
     73986      8452  TIP3      OH2           -17.6418520750       23.4550108251       41.6451368162  TIP3      8052            0.0000000000
     73987      8452  TIP3      H1            -17.1410604908       24.1168211209       41.1194638478  TIP3      8052            0.0000000000
     73988      8452  TIP3      H2            -18.3275428122       24.0588271244       42.0192543541  TIP3      8052            0.0000000000
     73989      8453  TIP3      OH2           -13.5121810365       25.7995379446       40.6258188298  TIP3      8053            0.0000000000
     73990      8453  TIP3      H1            -14.0581764235       25.4448142517       39.8989581790  TIP3      8053            0.0000000000
     73991      8453  TIP3      H2            -12.6922680090       26.0214007490       40.1579980842  TIP3      8053            0.0000000000
     73992      8454  TIP3      OH2            -6.2944486187       23.1914033304       40.7044393655  TIP3      8054            0.0000000000
     73993      8454  TIP3      H1             -7.2485626716       23.3194988865       40.5935945265  TIP3      8054            0.0000000000
     73994      8454  TIP3      H2             -5.9896611910       24.0460147374       41.0745326642  TIP3      8054            0.0000000000
     73995      8455  TIP3      OH2            -5.5761267659       25.0867752184       42.3853909344  TIP3      8055            0.0000000000
     73996      8455  TIP3      H1             -4.6765760991       24.9402739109       42.7052638921  TIP3      8055            0.0000000000
     73997      8455  TIP3      H2             -5.5155429413       25.8845986107       41.8426495597  TIP3      8055            0.0000000000
     73998      8456  TIP3      OH2            -8.0366039521       31.8274900812       41.5664516991  TIP3      8056            0.0000000000
     73999      8456  TIP3      H1             -8.3795872865       32.6598942707       41.9209607345  TIP3      8056            0.0000000000
     74000      8456  TIP3      H2             -8.7634644881       31.2203737267       41.7685685860  TIP3      8056            0.0000000000
     74001      8457  TIP3      OH2            -0.5325471089       25.2663193688       41.9828340779  TIP3      8057            0.0000000000
     74002      8457  TIP3      H1             -1.2264241676       24.9047214006       41.3882258531  TIP3      8057            0.0000000000
     74003      8457  TIP3      H2             -0.5762750737       26.2162196107       41.7877360917  TIP3      8057            0.0000000000
     74004      8458  TIP3      OH2           -16.9219414477       28.0651185769       40.2679713346  TIP3      8058            0.0000000000
     74005      8458  TIP3      H1            -16.3104432725       28.6952748930       40.7082806978  TIP3      8058            0.0000000000
     74006      8458  TIP3      H2            -17.7950232553       28.3728465029       40.5673282265  TIP3      8058            0.0000000000
     74007      8459  TIP3      OH2            -4.9710499447       32.0594450230       40.3628599933  TIP3      8059            0.0000000000
     74008      8459  TIP3      H1             -4.6556972798       31.6889351801       41.1907039797  TIP3      8059            0.0000000000
     74009      8459  TIP3      H2             -5.9378564041       31.9522144087       40.4654628318  TIP3      8059            0.0000000000
     74010      8460  TIP3      OH2            -0.5171957472       36.5036329584       40.5574354567  TIP3      8060            0.0000000000
     74011      8460  TIP3      H1              0.2341939150       37.1163413040       40.4649432615  TIP3      8060            0.0000000000
     74012      8460  TIP3      H2             -1.1983008173       37.1048174154       40.9091558083  TIP3      8060            0.0000000000
     74013      8461  TIP3      OH2           -10.8742120232       33.1802567426       38.8205950526  TIP3      8061            0.0000000000
     74014      8461  TIP3      H1            -10.6895128564       32.4037665255       38.2768856003  TIP3      8061            0.0000000000
     74015      8461  TIP3      H2            -11.2015818888       32.7661202959       39.6547730422  TIP3      8061            0.0000000000
     74016      8462  TIP3      OH2           -11.9925756162       32.7014836802       41.2662169294  TIP3      8062            0.0000000000
     74017      8462  TIP3      H1            -11.8220602380       32.2226939266       42.0874138117  TIP3      8062            0.0000000000
     74018      8462  TIP3      H2            -11.9517815161       33.6282300444       41.5907988177  TIP3      8062            0.0000000000
     74019      8463  TIP3      OH2           -15.5952991745       29.9731726088       41.7300881592  TIP3      8063            0.0000000000
     74020      8463  TIP3      H1            -16.2027389469       30.3265972015       42.3695854199  TIP3      8063            0.0000000000
     74021      8463  TIP3      H2            -14.9876547364       30.7235335299       41.5455161018  TIP3      8063            0.0000000000
     74022      8464  TIP3      OH2            -9.6055554532       34.1087483067       41.3721232714  TIP3      8064            0.0000000000
     74023      8464  TIP3      H1            -10.0764213158       34.7763485274       41.9368950366  TIP3      8064            0.0000000000
     74024      8464  TIP3      H2             -8.8424044054       34.7532339896       41.3310799766  TIP3      8064            0.0000000000
     74025      8465  TIP3      OH2           -11.8741472087       35.4397289482       42.0383265946  TIP3      8065            0.0000000000
     74026      8465  TIP3      H1            -11.7511278682       36.2517534577       41.4851657415  TIP3      8065            0.0000000000
     74027      8465  TIP3      H2            -12.0940284583       35.7992748890       42.9008592455  TIP3      8065            0.0000000000
     74028      8466  TIP3      OH2           -13.2836035772       22.0318767762       41.4379391336  TIP3      8066            0.0000000000
     74029      8466  TIP3      H1            -13.3641401112       22.9085227693       41.8531997428  TIP3      8066            0.0000000000
     74030      8466  TIP3      H2            -12.3769698103       21.8912991219       41.8071165872  TIP3      8066            0.0000000000
     74031      8467  TIP3      OH2           -14.9386849074       32.5967806367       40.6857816746  TIP3      8067            0.0000000000
     74032      8467  TIP3      H1            -14.2994157695       33.2675278924       40.9628490864  TIP3      8067            0.0000000000
     74033      8467  TIP3      H2            -14.4241164349       32.1526294461       39.9823410348  TIP3      8067            0.0000000000
     74034      8468  TIP3      OH2           -16.5986615643       25.2595836377       39.8009440977  TIP3      8068            0.0000000000
     74035      8468  TIP3      H1            -16.6287970641       26.2152792779       39.9999621244  TIP3      8068            0.0000000000
     74036      8468  TIP3      H2            -17.4874962132       25.0407609008       39.5307453436  TIP3      8068            0.0000000000
     74037      8469  TIP3      OH2            -8.8439408235       35.0478879336       38.9535119868  TIP3      8069            0.0000000000
     74038      8469  TIP3      H1             -9.5122539481       34.3868953793       39.2625244690  TIP3      8069            0.0000000000
     74039      8469  TIP3      H2             -8.1066205541       34.4700463127       38.7209573046  TIP3      8069            0.0000000000
     74040      8470  TIP3      OH2            -4.2710549258       34.8249075417       39.1594153275  TIP3      8070            0.0000000000
     74041      8470  TIP3      H1             -3.9800645779       34.0442610970       39.6521934872  TIP3      8070            0.0000000000
     74042      8470  TIP3      H2             -3.5022305609       35.0519824174       38.6192325947  TIP3      8070            0.0000000000
     74043      8471  TIP3      OH2           -13.3558615951       30.7383032709       39.0312320750  TIP3      8071            0.0000000000
     74044      8471  TIP3      H1            -13.2272354278       29.9532457029       39.5836487994  TIP3      8071            0.0000000000
     74045      8471  TIP3      H2            -12.6399176533       30.6253433907       38.3725151010  TIP3      8071            0.0000000000
     74046      8472  TIP3      OH2            -7.9322483255       31.8153258309       38.7887743901  TIP3      8072            0.0000000000
     74047      8472  TIP3      H1             -8.2208374849       31.9542810990       39.7030334924  TIP3      8072            0.0000000000
     74048      8472  TIP3      H2             -8.1634623129       30.8645835124       38.6415588277  TIP3      8072            0.0000000000
     74049      8473  TIP3      OH2           -12.1622556893       28.7228335884       41.3546625594  TIP3      8073            0.0000000000
     74050      8473  TIP3      H1            -12.6296019379       28.2210457165       42.0363219934  TIP3      8073            0.0000000000
     74051      8473  TIP3      H2            -11.8959808233       28.0407433404       40.7073383520  TIP3      8073            0.0000000000
     74052      8474  TIP3      OH2           -11.0982417785       26.9528563617       39.6198893695  TIP3      8074            0.0000000000
     74053      8474  TIP3      H1            -11.2559102875       26.8281493431       38.6613535840  TIP3      8074            0.0000000000
     74054      8474  TIP3      H2            -10.1259891821       27.0587210880       39.6716713336  TIP3      8074            0.0000000000
     74055      8475  TIP3      OH2            -1.7248533886       29.3148346413       39.0922705269  TIP3      8075            0.0000000000
     74056      8475  TIP3      H1             -1.9588977987       28.9078065606       38.2365499453  TIP3      8075            0.0000000000
     74057      8475  TIP3      H2             -1.6631027531       30.2663090421       38.8376919780  TIP3      8075            0.0000000000
     74058      8476  TIP3      OH2           -11.2203382375       37.6616272946       40.6686490916  TIP3      8076            0.0000000000
     74059      8476  TIP3      H1            -10.2555250346       37.7949813808       40.7506854824  TIP3      8076            0.0000000000
     74060      8476  TIP3      H2            -11.4315272520       38.3113581895       39.9829708318  TIP3      8076            0.0000000000
     74061      8477  TIP3      OH2           -17.6670133568       32.2833924806       40.1263838699  TIP3      8077            0.0000000000
     74062      8477  TIP3      H1            -16.7131935473       32.3622604818       40.3694754110  TIP3      8077            0.0000000000
     74063      8477  TIP3      H2            -17.6182185679       31.5930753240       39.4322992071  TIP3      8077            0.0000000000
     74064      8478  TIP3      OH2            -0.5208660937       28.0850685608       41.1821738471  TIP3      8078            0.0000000000
     74065      8478  TIP3      H1             -1.0838829167       28.4889328635       40.4879740601  TIP3      8078            0.0000000000
     74066      8478  TIP3      H2             -0.5767082334       28.7633322719       41.9078024248  TIP3      8078            0.0000000000
     74067      8479  TIP3      OH2            -2.2173559481       25.3853045727       39.8134538040  TIP3      8079            0.0000000000
     74068      8479  TIP3      H1             -2.1315478283       26.0325254132       39.1057025976  TIP3      8079            0.0000000000
     74069      8479  TIP3      H2             -2.3757618171       24.5514288116       39.3213406240  TIP3      8079            0.0000000000
     74070      8480  TIP3      OH2            -2.9714300764       22.7996955144       38.9202744411  TIP3      8080            0.0000000000
     74071      8480  TIP3      H1             -2.3684106126       22.3972839053       39.5678454290  TIP3      8080            0.0000000000
     74072      8480  TIP3      H2             -3.8206583305       22.3735773893       39.1250401357  TIP3      8080            0.0000000000
     74073      8481  TIP3      OH2            -0.8973959422       21.6707869579       40.4661082319  TIP3      8081            0.0000000000
     74074      8481  TIP3      H1             -0.4580984090       20.9378023720       39.9856292153  TIP3      8081            0.0000000000
     74075      8481  TIP3      H2             -0.1862699124       22.3313974564       40.5395355841  TIP3      8081            0.0000000000
     74076      8482  TIP3      OH2           -17.3056510803       19.7102646212       41.5531968990  TIP3      8082            0.0000000000
     74077      8482  TIP3      H1            -16.8572691394       20.3519772545       40.9864531261  TIP3      8082            0.0000000000
     74078      8482  TIP3      H2            -17.9242795755       20.2671102413       42.0275802515  TIP3      8082            0.0000000000
     74079      8483  TIP3      OH2           -15.4786951156       21.6430257949       40.0036998321  TIP3      8083            0.0000000000
     74080      8483  TIP3      H1            -14.9658647595       21.0022403353       39.4827116853  TIP3      8083            0.0000000000
     74081      8483  TIP3      H2            -14.8307009801       21.9249449282       40.6840396013  TIP3      8083            0.0000000000
     74082      8484  TIP3      OH2            -8.5677316449       36.9009664007       40.8804808354  TIP3      8084            0.0000000000
     74083      8484  TIP3      H1             -7.6719296440       37.2165883962       40.6787939782  TIP3      8084            0.0000000000
     74084      8484  TIP3      H2             -8.7816918769       36.4170141414       40.0505051908  TIP3      8084            0.0000000000
     74085      8485  TIP3      OH2           -15.6115869917       36.6021559973       39.4831049628  TIP3      8085            0.0000000000
     74086      8485  TIP3      H1            -15.8733968722       36.8682061862       40.3785156406  TIP3      8085            0.0000000000
     74087      8485  TIP3      H2            -14.8298594420       36.0332212622       39.6400011771  TIP3      8085            0.0000000000
     74088      8486  TIP3      OH2            10.5344517561       26.8021801302       40.1867626462  TIP3      8086            0.0000000000
     74089      8486  TIP3      H1             11.2588632374       26.8216370234       40.8536866973  TIP3      8086            0.0000000000
     74090      8486  TIP3      H2             10.8786098778       26.1418011429       39.5755904113  TIP3      8086            0.0000000000
     74091      8487  TIP3      OH2            12.7483620154       27.5980642409       41.7173755162  TIP3      8087            0.0000000000
     74092      8487  TIP3      H1             13.2656470372       27.8223249001       42.5373073048  TIP3      8087            0.0000000000
     74093      8487  TIP3      H2             13.1717177503       28.1694574859       41.0513798042  TIP3      8087            0.0000000000
     74094      8488  TIP3      OH2            16.5025367676       19.4459638097       41.6543717526  TIP3      8088            0.0000000000
     74095      8488  TIP3      H1             15.5813136555       19.5706603243       41.9125415319  TIP3      8088            0.0000000000
     74096      8488  TIP3      H2             16.7322245697       20.2873378798       41.2321011513  TIP3      8088            0.0000000000
     74097      8489  TIP3      OH2            17.6588060860       33.7989571689       39.9732336269  TIP3      8089            0.0000000000
     74098      8489  TIP3      H1             17.7781264513       34.7468957223       40.1803489797  TIP3      8089            0.0000000000
     74099      8489  TIP3      H2             18.5897682883       33.5147671346       39.9774456137  TIP3      8089            0.0000000000
     74100      8490  TIP3      OH2            13.0795912707       36.5618518884       40.6724461351  TIP3      8090            0.0000000000
     74101      8490  TIP3      H1             13.4791097939       35.7999573033       40.1932057187  TIP3      8090            0.0000000000
     74102      8490  TIP3      H2             13.1150433882       36.2634666399       41.5935705624  TIP3      8090            0.0000000000
     74103      8491  TIP3      OH2            14.2674768912       28.7154541232       39.5011174820  TIP3      8091            0.0000000000
     74104      8491  TIP3      H1             14.2759823721       28.5224161760       38.5228237902  TIP3      8091            0.0000000000
     74105      8491  TIP3      H2             15.1206541776       29.1520934582       39.6075123260  TIP3      8091            0.0000000000
     74106      8492  TIP3      OH2             9.8406889173       22.6127263111       40.1044818448  TIP3      8092            0.0000000000
     74107      8492  TIP3      H1              9.5716480159       22.6245243557       41.0329761178  TIP3      8092            0.0000000000
     74108      8492  TIP3      H2              9.5663250640       21.7311286616       39.8034290406  TIP3      8092            0.0000000000
     74109      8493  TIP3      OH2             6.7091287508       23.0373069445       39.2105459233  TIP3      8093            0.0000000000
     74110      8493  TIP3      H1              6.2545093526       22.6095200561       39.9619664346  TIP3      8093            0.0000000000
     74111      8493  TIP3      H2              5.9850654628       23.4276817877       38.7005015650  TIP3      8093            0.0000000000
     74112      8494  TIP3      OH2             1.2141725523       23.4551249212       41.6452811207  TIP3      8094            0.0000000000
     74113      8494  TIP3      H1              1.7149606393       24.1168635802       41.1194437056  TIP3      8094            0.0000000000
     74114      8494  TIP3      H2              0.5284495617       24.0589188194       42.0192620274  TIP3      8094            0.0000000000
     74115      8495  TIP3      OH2             5.3438545205       25.7997277855       40.6256976135  TIP3      8095            0.0000000000
     74116      8495  TIP3      H1              4.7978332523       25.4447435395       39.8989547602  TIP3      8095            0.0000000000
     74117      8495  TIP3      H2              6.1637720406       26.0213089000       40.1579129107  TIP3      8095            0.0000000000
     74118      8496  TIP3      OH2            12.5614321668       23.1908120837       40.7041752491  TIP3      8096            0.0000000000
     74119      8496  TIP3      H1             11.6074119347       23.3195095953       40.5936701280  TIP3      8096            0.0000000000
     74120      8496  TIP3      H2             12.8669121043       24.0446375704       41.0735117704  TIP3      8096            0.0000000000
     74121      8497  TIP3      OH2            13.2795337750       25.0866544004       42.3852323140  TIP3      8097            0.0000000000
     74122      8497  TIP3      H1             14.1792525278       24.9402315289       42.7052893466  TIP3      8097            0.0000000000
     74123      8497  TIP3      H2             13.3404234100       25.8841569722       41.8422298637  TIP3      8097            0.0000000000
     74124      8498  TIP3      OH2            10.8198514171       31.8267158679       41.5658348554  TIP3      8098            0.0000000000
     74125      8498  TIP3      H1             10.4845667372       32.6580822706       41.9242159488  TIP3      8098            0.0000000000
     74126      8498  TIP3      H2             10.0924952227       31.2204724715       41.7687263963  TIP3      8098            0.0000000000
     74127      8499  TIP3      OH2            18.3222164643       25.2646503119       41.9828972031  TIP3      8099            0.0000000000
     74128      8499  TIP3      H1             17.6291723683       24.9044879821       41.3877673695  TIP3      8099            0.0000000000
     74129      8499  TIP3      H2             18.2798917438       26.2155396091       41.7878164141  TIP3      8099            0.0000000000
     74130      8500  TIP3      OH2             1.9342409099       28.0652799893       40.2682591289  TIP3      8100            0.0000000000
     74131      8500  TIP3      H1              2.5455523766       28.6951210398       40.7082734840  TIP3      8100            0.0000000000
     74132      8500  TIP3      H2              1.0598650679       28.3712239365       40.5665707267  TIP3      8100            0.0000000000
     74133      8501  TIP3      OH2            13.8850363550       32.0600712133       40.3632196132  TIP3      8101            0.0000000000
     74134      8501  TIP3      H1             14.2011257501       31.6890560581       41.1904911349  TIP3      8101            0.0000000000
     74135      8501  TIP3      H2             12.9176700264       31.9516938790       40.4649165985  TIP3      8101            0.0000000000
     74136      8502  TIP3      OH2            18.3427563103       36.5025780677       40.5592000071  TIP3      8102            0.0000000000
     74137      8502  TIP3      H1             19.0996053500       37.1110154861       40.4700451946  TIP3      8102            0.0000000000
     74138      8502  TIP3      H2             17.6594404148       37.1046715740       40.9087020004  TIP3      8102            0.0000000000
     74139      8503  TIP3      OH2             7.9589368205       33.1867717427       38.8263125345  TIP3      8103            0.0000000000
     74140      8503  TIP3      H1              8.1777100255       32.4155655703       38.2705647071  TIP3      8103            0.0000000000
     74141      8503  TIP3      H2              7.6691404229       32.7475068113       39.6531268494  TIP3      8103            0.0000000000
     74142      8504  TIP3      OH2             6.8147171345       32.7283734882       41.2715763656  TIP3      8104            0.0000000000
     74143      8504  TIP3      H1              7.0417340018       32.2120393422       42.0733444404  TIP3      8104            0.0000000000
     74144      8504  TIP3      H2              6.9579218484       33.6193203200       41.6222120392  TIP3      8104            0.0000000000
     74145      8505  TIP3      OH2             3.2631730393       29.9787957124       41.7258779052  TIP3      8105            0.0000000000
     74146      8505  TIP3      H1              2.6448947833       30.3151301044       42.3638983099  TIP3      8105            0.0000000000
     74147      8505  TIP3      H2              3.8701531698       30.7214900613       41.5483846873  TIP3      8105            0.0000000000
     74148      8506  TIP3      OH2             9.2309726413       34.1143857779       41.3673330864  TIP3      8106            0.0000000000
     74149      8506  TIP3      H1              8.7955776838       34.7846997114       41.9474225730  TIP3      8106            0.0000000000
     74150      8506  TIP3      H2             10.0155104343       34.7463799531       41.3307831277  TIP3      8106            0.0000000000
     74151      8507  TIP3      OH2             6.9622037507       35.4508621252       42.0384499712  TIP3      8107            0.0000000000
     74152      8507  TIP3      H1              7.1431383669       36.2745096099       41.5051982968  TIP3      8107            0.0000000000
     74153      8507  TIP3      H2              6.7888291951       35.8080292753       42.9227685576  TIP3      8107            0.0000000000
     74154      8508  TIP3      OH2             5.5723203142       22.0319631131       41.4378162011  TIP3      8108            0.0000000000
     74155      8508  TIP3      H1              5.4919714442       22.9084879300       41.8533644688  TIP3      8108            0.0000000000
     74156      8508  TIP3      H2              6.4790106138       21.8912588328       41.8071245537  TIP3      8108            0.0000000000
     74157      8509  TIP3      OH2             3.9153704749       32.6194743142       40.6668478033  TIP3      8109            0.0000000000
     74158      8509  TIP3      H1              4.5611072526       33.2128421239       40.9862978535  TIP3      8109            0.0000000000
     74159      8509  TIP3      H2              4.4212110838       32.1285913849       39.9792037646  TIP3      8109            0.0000000000
     74160      8510  TIP3      OH2             2.2573126514       25.2595910809       39.8009258226  TIP3      8110            0.0000000000
     74161      8510  TIP3      H1              2.2271112003       26.2152395469       39.9998911221  TIP3      8110            0.0000000000
     74162      8510  TIP3      H2              1.3685002375       25.0407396667       39.5307198153  TIP3      8110            0.0000000000
     74163      8511  TIP3      OH2            10.0086770053       35.0467234582       38.9642703238  TIP3      8111            0.0000000000
     74164      8511  TIP3      H1              9.3528066350       34.3770620108       39.2522286278  TIP3      8111            0.0000000000
     74165      8511  TIP3      H2             10.7531485788       34.4795623147       38.7058222907  TIP3      8111            0.0000000000
     74166      8512  TIP3      OH2            14.5926219891       34.8291902318       39.1739850808  TIP3      8112            0.0000000000
     74167      8512  TIP3      H1             14.8778584934       34.0405001900       39.6521548075  TIP3      8112            0.0000000000
     74168      8512  TIP3      H2             15.3481019599       35.0510353194       38.6115027616  TIP3      8112            0.0000000000
     74169      8513  TIP3      OH2             5.5078756479       30.7543696122       39.0437093842  TIP3      8113            0.0000000000
     74170      8513  TIP3      H1              5.6261982509       29.9495088384       39.5773489319  TIP3      8113            0.0000000000
     74171      8513  TIP3      H2              6.2120286406       30.6192207882       38.3701687996  TIP3      8113            0.0000000000
     74172      8514  TIP3      OH2            10.9220310622       31.8074745070       38.7977336697  TIP3      8114            0.0000000000
     74173      8514  TIP3      H1             10.6297644502       31.9549319194       39.7071767555  TIP3      8114            0.0000000000
     74174      8514  TIP3      H2             10.6912052948       30.8599875177       38.6434989788  TIP3      8114            0.0000000000
     74175      8515  TIP3      OH2             6.6929379457       28.7237120247       41.3553491761  TIP3      8115            0.0000000000
     74176      8515  TIP3      H1              6.2264333661       28.2206355880       42.0364673129  TIP3      8115            0.0000000000
     74177      8515  TIP3      H2              6.9599314561       28.0414534502       40.7077368476  TIP3      8115            0.0000000000
     74178      8516  TIP3      OH2             7.7581201923       26.9544893412       39.6144027948  TIP3      8116            0.0000000000
     74179      8516  TIP3      H1              7.6003980648       26.8276386562       38.6588837207  TIP3      8116            0.0000000000
     74180      8516  TIP3      H2              8.7301911312       27.0586952555       39.6710799026  TIP3      8116            0.0000000000
     74181      8517  TIP3      OH2            17.1307266662       29.3147924291       39.0923420961  TIP3      8117            0.0000000000
     74182      8517  TIP3      H1             16.8972058974       28.9072111968       38.2356544329  TIP3      8117            0.0000000000
     74183      8517  TIP3      H2             17.1931998192       30.2662477291       38.8376970627  TIP3      8117            0.0000000000
     74184      8518  TIP3      OH2             7.6257119537       37.6434036358       40.6612180308  TIP3      8118            0.0000000000
     74185      8518  TIP3      H1              8.5957835712       37.7979550229       40.7517643161  TIP3      8118            0.0000000000
     74186      8518  TIP3      H2              7.4304440246       38.3172865233       39.9861553371  TIP3      8118            0.0000000000
     74187      8519  TIP3      OH2             1.1962083922       32.2917954083       40.1221557533  TIP3      8119            0.0000000000
     74188      8519  TIP3      H1              2.1421052399       32.3527867372       40.3669215330  TIP3      8119            0.0000000000
     74189      8519  TIP3      H2              1.2315422145       31.5911553146       39.4338187965  TIP3      8119            0.0000000000
     74190      8520  TIP3      OH2            18.3352092935       28.0851634628       41.1821870457  TIP3      8120            0.0000000000
     74191      8520  TIP3      H1             17.7722050580       28.4889935405       40.4879335860  TIP3      8120            0.0000000000
     74192      8520  TIP3      H2             18.2794753357       28.7633830151       41.9078687438  TIP3      8120            0.0000000000
     74193      8521  TIP3      OH2            16.6388673424       25.3857594306       39.8143244734  TIP3      8121            0.0000000000
     74194      8521  TIP3      H1             16.7245512424       26.0325035525       39.1058264920  TIP3      8121            0.0000000000
     74195      8521  TIP3      H2             16.4805774655       24.5514957715       39.3225620688  TIP3      8121            0.0000000000
     74196      8522  TIP3      OH2            15.8846320222       22.7996545566       38.9203361733  TIP3      8122            0.0000000000
     74197      8522  TIP3      H1             16.4875352302       22.3973002637       39.5678650395  TIP3      8122            0.0000000000
     74198      8522  TIP3      H2             15.0352967917       22.3735040992       39.1250206943  TIP3      8122            0.0000000000
     74199      8523  TIP3      OH2            17.9636619254       21.6726268462       40.4692969641  TIP3      8123            0.0000000000
     74200      8523  TIP3      H1             18.3981881091       20.9383216865       39.9858159355  TIP3      8123            0.0000000000
     74201      8523  TIP3      H2             18.6720990888       22.3326729053       40.5394106557  TIP3      8123            0.0000000000
     74202      8524  TIP3      OH2             1.5503228182       19.7102829101       41.5531853098  TIP3      8124            0.0000000000
     74203      8524  TIP3      H1              1.9987841217       20.3519612778       40.9864606523  TIP3      8124            0.0000000000
     74204      8524  TIP3      H2              0.9317327112       20.2670909149       42.0275958281  TIP3      8124            0.0000000000
     74205      8525  TIP3      OH2             3.3772738444       21.6430301413       40.0036682279  TIP3      8125            0.0000000000
     74206      8525  TIP3      H1              3.8901730177       21.0022340689       39.4827323634  TIP3      8125            0.0000000000
     74207      8525  TIP3      H2              4.0253371921       21.9249157263       40.6840516196  TIP3      8125            0.0000000000
     74208      8526  TIP3      OH2            10.2783465904       36.8953064933       40.8768886018  TIP3      8126            0.0000000000
     74209      8526  TIP3      H1             11.1773015210       37.2157956344       40.6825318592  TIP3      8126            0.0000000000
     74210      8526  TIP3      H2             10.0855195011       36.4172945121       40.0389458223  TIP3      8126            0.0000000000
     74211      8527  TIP3      OH2             3.2460108582       36.5923347621       39.4938420536  TIP3      8127            0.0000000000
     74212      8527  TIP3      H1              2.9663729925       36.8844229273       40.3772684790  TIP3      8127            0.0000000000
     74213      8527  TIP3      H2              4.0204793657       36.0487225015       39.6169586649  TIP3      8127            0.0000000000
     74214      8528  TIP3      OH2            29.4233919026       26.8162012107       40.1888933994  TIP3      8128            0.0000000000
     74215      8528  TIP3      H1             30.1276575133       26.8148025215       40.8625940544  TIP3      8128            0.0000000000
     74216      8528  TIP3      H2             29.7273862622       26.1418711959       39.5742543716  TIP3      8128            0.0000000000
     74217      8529  TIP3      OH2            31.6160501398       27.5858598719       41.7145421670  TIP3      8129            0.0000000000
     74218      8529  TIP3      H1             32.1166166168       27.8297136835       42.5398904542  TIP3      8129            0.0000000000
     74219      8529  TIP3      H2             32.0191185185       28.1762341095       41.0514778054  TIP3      8129            0.0000000000
     74220      8530  TIP3      OH2            35.3595102186       19.4549509647       41.6584073336  TIP3      8130            0.0000000000
     74221      8530  TIP3      H1             34.4337902531       19.5621358293       41.9129722313  TIP3      8130            0.0000000000
     74222      8530  TIP3      H2             35.5875534226       20.2812281311       41.2273585431  TIP3      8130            0.0000000000
     74223      8531  TIP3      OH2            36.5147056494       33.7991346530       39.9731114278  TIP3      8131            0.0000000000
     74224      8531  TIP3      H1             36.6342547097       34.7469835575       40.1804876407  TIP3      8131            0.0000000000
     74225      8531  TIP3      H2             37.4456330873       33.5148614519       39.9775262385  TIP3      8131            0.0000000000
     74226      8532  TIP3      OH2            31.9353859442       36.5627095398       40.6764286999  TIP3      8132            0.0000000000
     74227      8532  TIP3      H1             32.3375583673       35.7997389191       40.2004930439  TIP3      8132            0.0000000000
     74228      8532  TIP3      H2             31.9698756677       36.2639391480       41.5951711118  TIP3      8132            0.0000000000
     74229      8533  TIP3      OH2            33.1333531024       28.6998573969       39.5070879886  TIP3      8133            0.0000000000
     74230      8533  TIP3      H1             33.1304325833       28.5237386331       38.5245837584  TIP3      8133            0.0000000000
     74231      8533  TIP3      H2             33.9740185885       29.1601235281       39.6048138900  TIP3      8133            0.0000000000
     74232      8534  TIP3      OH2            28.6995085018       22.6104767125       40.1045810826  TIP3      8134            0.0000000000
     74233      8534  TIP3      H1             28.4268293719       22.6258498384       41.0318385285  TIP3      8134            0.0000000000
     74234      8534  TIP3      H2             28.4209273860       21.7321874523       39.8022322700  TIP3      8134            0.0000000000
     74235      8535  TIP3      OH2            25.5624664743       23.0173087975       39.2063900515  TIP3      8135            0.0000000000
     74236      8535  TIP3      H1             25.1053871360       22.6055013646       39.9638885921  TIP3      8135            0.0000000000
     74237      8535  TIP3      H2             24.8465375476       23.4379792861       38.7036587315  TIP3      8135            0.0000000000
     74238      8536  TIP3      OH2            20.0701167700       23.4547146307       41.6455595917  TIP3      8136            0.0000000000
     74239      8536  TIP3      H1             20.5707766297       24.1167387881       41.1192876663  TIP3      8136            0.0000000000
     74240      8536  TIP3      H2             19.3845056512       24.0588690059       42.0191689763  TIP3      8136            0.0000000000
     74241      8537  TIP3      OH2            24.1981285769       25.7780674729       40.6375597147  TIP3      8137            0.0000000000
     74242      8537  TIP3      H1             23.6599116534       25.4567261992       39.8919453287  TIP3      8137            0.0000000000
     74243      8537  TIP3      H2             25.0153174666       26.0338210923       40.1590845256  TIP3      8137            0.0000000000
     74244      8538  TIP3      OH2            31.4359029860       23.1897550622       40.7038655924  TIP3      8138            0.0000000000
     74245      8538  TIP3      H1             30.4724675977       23.3132147009       40.5925587016  TIP3      8138            0.0000000000
     74246      8538  TIP3      H2             31.7029973315       24.0530679331       41.0736714060  TIP3      8138            0.0000000000
     74247      8539  TIP3      OH2            32.1498860923       25.0753188756       42.3656520410  TIP3      8139            0.0000000000
     74248      8539  TIP3      H1             33.0277029416       24.9516084790       42.7252768784  TIP3      8139            0.0000000000
     74249      8539  TIP3      H2             32.1763850183       25.8936058880       41.8448282768  TIP3      8139            0.0000000000
     74250      8540  TIP3      OH2            29.6734338593       31.8252731806       41.5671669497  TIP3      8140            0.0000000000
     74251      8540  TIP3      H1             29.3317705069       32.6591553043       41.9205810943  TIP3      8140            0.0000000000
     74252      8540  TIP3      H2             28.9437448815       31.2171544757       41.7624403105  TIP3      8140            0.0000000000
     74253      8541  TIP3      OH2            37.2222240422       25.3069996290       42.0136361344  TIP3      8141            0.0000000000
     74254      8541  TIP3      H1             36.5932473176       24.9863651429       41.4222738797  TIP3      8141            0.0000000000
     74255      8541  TIP3      H2             37.1719693197       26.2572211358       41.8087187029  TIP3      8141            0.0000000000
     74256      8542  TIP3      OH2            20.7926390568       28.0592563875       40.2720977870  TIP3      8142            0.0000000000
     74257      8542  TIP3      H1             21.4111577575       28.6927358651       40.7011413225  TIP3      8142            0.0000000000
     74258      8542  TIP3      H2             19.9206813342       28.3740934030       40.5670601247  TIP3      8142            0.0000000000
     74259      8543  TIP3      OH2            32.7397172505       32.0591330256       40.3627260863  TIP3      8143            0.0000000000
     74260      8543  TIP3      H1             33.0567816634       31.6892038695       41.1904046750  TIP3      8143            0.0000000000
     74261      8543  TIP3      H2             31.7702663911       31.9505244999       40.4619414529  TIP3      8143            0.0000000000
     74262      8544  TIP3      OH2            37.1951436131       36.5042075716       40.5563497018  TIP3      8144            0.0000000000
     74263      8544  TIP3      H1             37.9546169232       37.1103786393       40.4703083996  TIP3      8144            0.0000000000
     74264      8544  TIP3      H2             36.5141012628       37.1063969134       40.9104144508  TIP3      8144            0.0000000000
     74265      8545  TIP3      OH2            26.8441705096       33.1841006632       38.8198287774  TIP3      8145            0.0000000000
     74266      8545  TIP3      H1             27.0169352336       32.3970026718       38.2762460474  TIP3      8145            0.0000000000
     74267      8545  TIP3      H2             26.5073657205       32.7686399591       39.6513575873  TIP3      8145            0.0000000000
     74268      8546  TIP3      OH2            25.7198325979       32.7118563790       41.2714664716  TIP3      8146            0.0000000000
     74269      8546  TIP3      H1             25.8881778159       32.2218350584       42.0851933926  TIP3      8146            0.0000000000
     74270      8546  TIP3      H2             25.7600541237       33.6329040472       41.5945048832  TIP3      8146            0.0000000000
     74271      8547  TIP3      OH2            22.1167967731       29.9715992294       41.7361264362  TIP3      8147            0.0000000000
     74272      8547  TIP3      H1             21.5109050910       30.3291165497       42.3690399730  TIP3      8147            0.0000000000
     74273      8547  TIP3      H2             22.7260002039       30.7198167115       41.5401245517  TIP3      8147            0.0000000000
     74274      8548  TIP3      OH2            28.1069950628       34.1082467413       41.3721761824  TIP3      8148            0.0000000000
     74275      8548  TIP3      H1             27.6342064228       34.7751462513       41.9361000100  TIP3      8148            0.0000000000
     74276      8548  TIP3      H2             28.8695514082       34.7533577340       41.3312405152  TIP3      8148            0.0000000000
     74277      8549  TIP3      OH2            25.8379754823       35.4401209476       42.0384205787  TIP3      8149            0.0000000000
     74278      8549  TIP3      H1             25.9609877988       36.2519745936       41.4852710066  TIP3      8149            0.0000000000
     74279      8549  TIP3      H2             25.6181726784       35.7993801623       42.9009535970  TIP3      8149            0.0000000000
     74280      8550  TIP3      OH2            24.4284115542       22.0319682685       41.4382299904  TIP3      8150            0.0000000000
     74281      8550  TIP3      H1             24.3486500407       22.9089400559       41.8526676248  TIP3      8150            0.0000000000
     74282      8550  TIP3      H2             25.3353438163       21.8916807017       41.8065454362  TIP3      8150            0.0000000000
     74283      8551  TIP3      OH2            22.7659724446       32.6069018425       40.6857140182  TIP3      8151            0.0000000000
     74284      8551  TIP3      H1             23.4182229310       33.2626045375       40.9603677545  TIP3      8151            0.0000000000
     74285      8551  TIP3      H2             23.2892244658       32.1438665389       39.9855859558  TIP3      8151            0.0000000000
     74286      8552  TIP3      OH2            21.1041249191       25.2550884488       39.8028498436  TIP3      8152            0.0000000000
     74287      8552  TIP3      H1             21.0911447531       26.2153907939       39.9955671698  TIP3      8152            0.0000000000
     74288      8552  TIP3      H2             20.2181943338       25.0412184244       39.5292086931  TIP3      8152            0.0000000000
     74289      8553  TIP3      OH2            28.8676961050       35.0483696293       38.9534449726  TIP3      8153            0.0000000000
     74290      8553  TIP3      H1             28.1995918581       34.3866415687       39.2615065460  TIP3      8153            0.0000000000
     74291      8553  TIP3      H2             29.6051503280       34.4699353372       38.7206843895  TIP3      8153            0.0000000000
     74292      8554  TIP3      OH2            33.4409947985       34.8249651488       39.1593998983  TIP3      8154            0.0000000000
     74293      8554  TIP3      H1             33.7319339044       34.0442937200       39.6521913565  TIP3      8154            0.0000000000
     74294      8554  TIP3      H2             34.2096563008       35.0523956456       38.6192708867  TIP3      8154            0.0000000000
     74295      8555  TIP3      OH2            24.3193973745       30.8910654561       39.0734247954  TIP3      8155            0.0000000000
     74296      8555  TIP3      H1             24.4710280864       29.9969764163       39.5335465500  TIP3      8155            0.0000000000
     74297      8555  TIP3      H2             25.0251500049       30.6221941548       38.4053683575  TIP3      8155            0.0000000000
     74298      8556  TIP3      OH2            29.7890758666       31.8132689608       38.7915680476  TIP3      8156            0.0000000000
     74299      8556  TIP3      H1             29.4853452475       31.9530493620       39.7006106544  TIP3      8156            0.0000000000
     74300      8556  TIP3      H2             29.5397168864       30.8644164578       38.6399635399  TIP3      8156            0.0000000000
     74301      8557  TIP3      OH2            25.5931747619       28.7190610721       41.4399492701  TIP3      8157            0.0000000000
     74302      8557  TIP3      H1             25.0663685631       28.2036400194       42.0394777754  TIP3      8157            0.0000000000
     74303      8557  TIP3      H2             25.7909869817       28.0811331049       40.7008293139  TIP3      8157            0.0000000000
     74304      8558  TIP3      OH2            26.8056028277       26.5493293951       39.7592361597  TIP3      8158            0.0000000000
     74305      8558  TIP3      H1             26.4446645061       26.8081832107       38.8556561397  TIP3      8158            0.0000000000
     74306      8558  TIP3      H2             27.6172886946       27.0750879188       39.6973652911  TIP3      8158            0.0000000000
     74307      8559  TIP3      OH2            35.9880487437       29.3054106831       39.0944831731  TIP3      8159            0.0000000000
     74308      8559  TIP3      H1             35.7523476262       28.9128817549       38.2327311093  TIP3      8159            0.0000000000
     74309      8559  TIP3      H2             36.0485727527       30.2598639265       38.8417966004  TIP3      8159            0.0000000000
     74310      8560  TIP3      OH2            26.4916496307       37.6615809401       40.6684122889  TIP3      8160            0.0000000000
     74311      8560  TIP3      H1             27.4564297437       37.7949736552       40.7507993152  TIP3      8160            0.0000000000
     74312      8560  TIP3      H2             26.2804387066       38.3114348098       39.9830024627  TIP3      8160            0.0000000000
     74313      8561  TIP3      OH2            20.0448016200       32.2831096829       40.1266058071  TIP3      8161            0.0000000000
     74314      8561  TIP3      H1             20.9990373214       32.3626829189       40.3697917414  TIP3      8161            0.0000000000
     74315      8561  TIP3      H2             20.0936415570       31.5933368872       39.4321726419  TIP3      8161            0.0000000000
     74316      8562  TIP3      OH2            37.1781872448       28.0701482698       41.1851915439  TIP3      8162            0.0000000000
     74317      8562  TIP3      H1             36.6332051376       28.4986053830       40.4867306881  TIP3      8162            0.0000000000
     74318      8562  TIP3      H2             37.1402188664       28.7643374438       41.9034663652  TIP3      8162            0.0000000000
     74319      8563  TIP3      OH2            35.3542316514       25.5653657288       39.6165951411  TIP3      8163            0.0000000000
     74320      8563  TIP3      H1             35.6306084028       26.1571735979       38.9064474085  TIP3      8163            0.0000000000
     74321      8563  TIP3      H2             35.3267079517       24.6627199607       39.2005185893  TIP3      8163            0.0000000000
     74322      8564  TIP3      OH2            34.7420756253       22.8461648811       38.9841713537  TIP3      8164            0.0000000000
     74323      8564  TIP3      H1             35.3492871178       22.3444019253       39.5410273735  TIP3      8164            0.0000000000
     74324      8564  TIP3      H2             33.8905691303       22.3660447113       39.1017070635  TIP3      8164            0.0000000000
     74325      8565  TIP3      OH2            36.8070520506       21.7106279595       40.4626108380  TIP3      8165            0.0000000000
     74326      8565  TIP3      H1             37.2419515416       20.9421545776       39.9971261370  TIP3      8165            0.0000000000
     74327      8565  TIP3      H2             37.5647702657       22.3099964236       40.5344011540  TIP3      8165            0.0000000000
     74328      8566  TIP3      OH2            20.4058562578       19.7105965673       41.5535086796  TIP3      8166            0.0000000000
     74329      8566  TIP3      H1             20.8547679907       20.3519759557       40.9864583310  TIP3      8166            0.0000000000
     74330      8566  TIP3      H2             19.7877175909       20.2671406445       42.0275769573  TIP3      8166            0.0000000000
     74331      8567  TIP3      OH2            22.2331696492       21.6428304933       40.0038259449  TIP3      8167            0.0000000000
     74332      8567  TIP3      H1             22.7462533252       21.0023614382       39.4826590562  TIP3      8167            0.0000000000
     74333      8567  TIP3      H2             22.8813254435       21.9249860723       40.6839568233  TIP3      8167            0.0000000000
     74334      8568  TIP3      OH2            29.1443892247       36.9007301900       40.8803029534  TIP3      8168            0.0000000000
     74335      8568  TIP3      H1             30.0400937902       37.2165422681       40.6787418158  TIP3      8168            0.0000000000
     74336      8568  TIP3      H2             28.9302983918       36.4168594211       40.0503398148  TIP3      8168            0.0000000000
     74337      8569  TIP3      OH2            22.1005229718       36.6021192276       39.4830629140  TIP3      8169            0.0000000000
     74338      8569  TIP3      H1             21.8385572189       36.8682256498       40.3784955791  TIP3      8169            0.0000000000
     74339      8569  TIP3      H2             22.8821353959       36.0329100026       39.6400348353  TIP3      8169            0.0000000000
     74340      8570  TIP3      OH2            48.2475597247       26.8057153081       40.1877825888  TIP3      8170            0.0000000000
     74341      8570  TIP3      H1             48.9714233709       26.8216370392       40.8541920581  TIP3      8170            0.0000000000
     74342      8570  TIP3      H2             48.5926385686       26.1506374516       39.5726385600  TIP3      8170            0.0000000000
     74343      8571  TIP3      OH2            50.4536792212       27.6044969328       41.7190853723  TIP3      8171            0.0000000000
     74344      8571  TIP3      H1             50.9775508629       27.8227294579       42.5372101854  TIP3      8171            0.0000000000
     74345      8571  TIP3      H2             50.8836820223       28.1696998430       41.0514693836  TIP3      8171            0.0000000000
     74346      8572  TIP3      OH2            54.2029414142       19.4497354903       41.6616037568  TIP3      8172            0.0000000000
     74347      8572  TIP3      H1             53.2872587531       19.5756005656       41.9168780152  TIP3      8172            0.0000000000
     74348      8572  TIP3      H2             54.4478759317       20.2868117257       41.2412368666  TIP3      8172            0.0000000000
     74349      8573  TIP3      OH2            55.3470436647       33.8160606697       39.9656108609  TIP3      8173            0.0000000000
     74350      8573  TIP3      H1             55.4810710413       34.7540773326       40.1809771222  TIP3      8173            0.0000000000
     74351      8573  TIP3      H2             56.2810312731       33.5063501893       39.9835759691  TIP3      8173            0.0000000000
     74352      8574  TIP3      OH2            50.7924703972       36.5631165234       40.6777511313  TIP3      8174            0.0000000000
     74353      8574  TIP3      H1             51.1891779944       35.7964053114       40.2007123900  TIP3      8174            0.0000000000
     74354      8574  TIP3      H2             50.8258741585       36.2637755427       41.5958845891  TIP3      8174            0.0000000000
     74355      8575  TIP3      OH2            51.9766227429       28.7136473123       39.5024280838  TIP3      8175            0.0000000000
     74356      8575  TIP3      H1             51.9911370233       28.5190773796       38.5253887402  TIP3      8175            0.0000000000
     74357      8575  TIP3      H2             52.8302140331       29.1513289755       39.6090226326  TIP3      8175            0.0000000000
     74358      8576  TIP3      OH2            47.5643450480       22.6435192585       40.1244173213  TIP3      8176            0.0000000000
     74359      8576  TIP3      H1             47.2698268410       22.6806664911       41.0496009279  TIP3      8176            0.0000000000
     74360      8576  TIP3      H2             47.2095626427       21.8401214931       39.7327672067  TIP3      8176            0.0000000000
     74361      8577  TIP3      OH2            44.4289590690       23.0410976572       39.2323734412  TIP3      8177            0.0000000000
     74362      8577  TIP3      H1             43.9504780591       22.6079552825       39.9595416819  TIP3      8177            0.0000000000
     74363      8577  TIP3      H2             43.7095716872       23.4213690016       38.6914673649  TIP3      8177            0.0000000000
     74364      8578  TIP3      OH2            38.8978178813       23.4493072479       41.6251521054  TIP3      8178            0.0000000000
     74365      8578  TIP3      H1             39.4416165929       24.1108613382       41.1254570863  TIP3      8178            0.0000000000
     74366      8578  TIP3      H2             38.2649748109       24.0683573556       42.0391143986  TIP3      8178            0.0000000000
     74367      8579  TIP3      OH2            43.0555265447       25.7997781977       40.6262613136  TIP3      8179            0.0000000000
     74368      8579  TIP3      H1             42.5082282275       25.4466038440       39.8992075006  TIP3      8179            0.0000000000
     74369      8579  TIP3      H2             43.8754780030       26.0213000806       40.1581345652  TIP3      8179            0.0000000000
     74370      8580  TIP3      OH2            50.2596618381       23.1752275425       40.7090216146  TIP3      8180            0.0000000000
     74371      8580  TIP3      H1             49.3213113742       23.3448651244       40.5926564345  TIP3      8180            0.0000000000
     74372      8580  TIP3      H2             50.5856627705       24.0379907653       41.0695066694  TIP3      8180            0.0000000000
     74373      8581  TIP3      OH2            50.9900862566       25.0742951980       42.3749181191  TIP3      8181            0.0000000000
     74374      8581  TIP3      H1             51.8897458275       24.9380808267       42.7017697108  TIP3      8181            0.0000000000
     74375      8581  TIP3      H2             51.0512118559       25.8808339228       41.8431944661  TIP3      8181            0.0000000000
     74376      8582  TIP3      OH2            48.5282017957       31.8265467132       41.5646946670  TIP3      8182            0.0000000000
     74377      8582  TIP3      H1             48.1885017215       32.6597851520       41.9211617051  TIP3      8182            0.0000000000
     74378      8582  TIP3      H2             47.8041356447       31.2200264716       41.7688919322  TIP3      8182            0.0000000000
     74379      8583  TIP3      OH2            55.9781831439       25.3035137264       42.0123304856  TIP3      8183            0.0000000000
     74380      8583  TIP3      H1             55.3313263359       24.9078019296       41.3829872140  TIP3      8183            0.0000000000
     74381      8583  TIP3      H2             55.9919412787       26.2413644661       41.7751913059  TIP3      8183            0.0000000000
     74382      8584  TIP3      OH2            39.6389817293       28.0557635421       40.2725870288  TIP3      8184            0.0000000000
     74383      8584  TIP3      H1             40.2554041367       28.6905284999       40.7053528003  TIP3      8184            0.0000000000
     74384      8584  TIP3      H2             38.7743565581       28.3815105212       40.5673414181  TIP3      8184            0.0000000000
     74385      8585  TIP3      OH2            51.5832398137       32.0625913337       40.3632969344  TIP3      8185            0.0000000000
     74386      8585  TIP3      H1             51.9053660311       31.6899482938       41.1886462263  TIP3      8185            0.0000000000
     74387      8585  TIP3      H2             50.6225996626       31.9516572805       40.4684236397  TIP3      8185            0.0000000000
     74388      8586  TIP3      OH2            56.0476127212       36.5121891500       40.5439344947  TIP3      8186            0.0000000000
     74389      8586  TIP3      H1             56.8205467918       37.1029059535       40.4838093476  TIP3      8186            0.0000000000
     74390      8586  TIP3      H2             55.3677890050       37.0946029050       40.9313406340  TIP3      8186            0.0000000000
     74391      8587  TIP3      OH2            45.6785890731       33.1772765877       38.8118693725  TIP3      8187            0.0000000000
     74392      8587  TIP3      H1             45.8934730187       32.4011337401       38.2886972550  TIP3      8187            0.0000000000
     74393      8587  TIP3      H2             45.3715755810       32.7707776770       39.6597245241  TIP3      8187            0.0000000000
     74394      8588  TIP3      OH2            44.5757634469       32.7012486067       41.2661015036  TIP3      8188            0.0000000000
     74395      8588  TIP3      H1             44.7459086455       32.2227853454       42.0875657304  TIP3      8188            0.0000000000
     74396      8588  TIP3      H2             44.6160681795       33.6281681831       41.5908138084  TIP3      8188            0.0000000000
     74397      8589  TIP3      OH2            40.9728284402       29.9732018167       41.7290545175  TIP3      8189            0.0000000000
     74398      8589  TIP3      H1             40.3630214135       30.3224753261       42.3694574386  TIP3      8189            0.0000000000
     74399      8589  TIP3      H2             41.5798670411       30.7237057615       41.5461413902  TIP3      8189            0.0000000000
     74400      8590  TIP3      OH2            46.9623542472       34.1088719352       41.3717469353  TIP3      8190            0.0000000000
     74401      8590  TIP3      H1             46.4930137594       34.7772668066       41.9376651746  TIP3      8190            0.0000000000
     74402      8590  TIP3      H2             47.7256779067       34.7531943552       41.3311023973  TIP3      8190            0.0000000000
     74403      8591  TIP3      OH2            44.6936660234       35.4395663062       42.0380854264  TIP3      8191            0.0000000000
     74404      8591  TIP3      H1             44.8171941399       36.2517877618       41.4854043146  TIP3      8191            0.0000000000
     74405      8591  TIP3      H2             44.4742838396       35.7993593054       42.9008251648  TIP3      8191            0.0000000000
     74406      8592  TIP3      OH2            43.2908886557       22.0310339754       41.4325110508  TIP3      8192            0.0000000000
     74407      8592  TIP3      H1             43.1964817966       22.9070832725       41.8527043209  TIP3      8192            0.0000000000
     74408      8592  TIP3      H2             44.1866477151       21.8949130872       41.8168088766  TIP3      8192            0.0000000000
     74409      8593  TIP3      OH2            41.6280103549       32.5976855560       40.6887197729  TIP3      8193            0.0000000000
     74410      8593  TIP3      H1             42.2685561024       33.2680046148       40.9629378819  TIP3      8193            0.0000000000
     74411      8593  TIP3      H2             42.1418200302       32.1530280838       39.9881605413  TIP3      8193            0.0000000000
     74412      8594  TIP3      OH2            39.9608407515       25.2578351125       39.8084524352  TIP3      8194            0.0000000000
     74413      8594  TIP3      H1             39.9465320495       26.2181584347       39.9951989230  TIP3      8194            0.0000000000
     74414      8594  TIP3      H2             39.0851723570       25.0447444025       39.5168563409  TIP3      8194            0.0000000000
     74415      8595  TIP3      OH2            47.7209617962       35.0479714843       38.9517492622  TIP3      8195            0.0000000000
     74416      8595  TIP3      H1             47.0553767886       34.3867652591       39.2626338856  TIP3      8195            0.0000000000
     74417      8595  TIP3      H2             48.4608300036       34.4706556820       38.7208974201  TIP3      8195            0.0000000000
     74418      8596  TIP3      OH2            52.2864080915       34.8311355547       39.1612934378  TIP3      8196            0.0000000000
     74419      8596  TIP3      H1             52.5824878637       34.0453616574       39.6498185359  TIP3      8196            0.0000000000
     74420      8596  TIP3      H2             53.0634171210       35.0480925556       38.6188163108  TIP3      8196            0.0000000000
     74421      8597  TIP3      OH2            43.2022682791       30.7328191973       38.9986647102  TIP3      8197            0.0000000000
     74422      8597  TIP3      H1             43.3363193813       29.9641384073       39.5841879664  TIP3      8197            0.0000000000
     74423      8597  TIP3      H2             43.9458448805       30.6207769753       38.3843087441  TIP3      8197            0.0000000000
     74424      8598  TIP3      OH2            48.6353445143       31.8151768805       38.7886858874  TIP3      8198            0.0000000000
     74425      8598  TIP3      H1             48.3470603053       31.9545333411       39.7030470144  TIP3      8198            0.0000000000
     74426      8598  TIP3      H2             48.4046226345       30.8644456592       38.6417601378  TIP3      8198            0.0000000000
     74427      8599  TIP3      OH2            44.4056058447       28.7232973772       41.3547533905  TIP3      8199            0.0000000000
     74428      8599  TIP3      H1             43.9384052107       28.2210239685       42.0362618297  TIP3      8199            0.0000000000
     74429      8599  TIP3      H2             44.6711404253       28.0423753082       40.7068252209  TIP3      8199            0.0000000000
     74430      8600  TIP3      OH2            45.4703197270       26.9546551170       39.6138747577  TIP3      8200            0.0000000000
     74431      8600  TIP3      H1             45.3119805926       26.8280197037       38.6590287326  TIP3      8200            0.0000000000
     74432      8600  TIP3      H2             46.4422929593       27.0585407697       39.6711572554  TIP3      8200            0.0000000000
     74433      8601  TIP3      OH2            54.8482329215       29.3245668211       39.0987288395  TIP3      8201            0.0000000000
     74434      8601  TIP3      H1             54.6004977694       28.9133132200       38.2457905921  TIP3      8201            0.0000000000
     74435      8601  TIP3      H2             54.9004093728       30.2737604877       38.8451978311  TIP3      8201            0.0000000000
     74436      8602  TIP3      OH2            45.3476483826       37.6613769085       40.6682672064  TIP3      8202            0.0000000000
     74437      8602  TIP3      H1             46.3123927377       37.7950318255       40.7508396980  TIP3      8202            0.0000000000
     74438      8602  TIP3      H2             45.1364836824       38.3115325642       39.9830904270  TIP3      8202            0.0000000000
     74439      8603  TIP3      OH2            38.9007958733       32.2829443150       40.1262580259  TIP3      8203            0.0000000000
     74440      8603  TIP3      H1             39.8548266819       32.3622286663       40.3697273103  TIP3      8203            0.0000000000
     74441      8603  TIP3      H2             38.9504538973       31.5934681270       39.4319364258  TIP3      8203            0.0000000000
     74442      8604  TIP3      OH2            55.9751446369       28.0623958283       41.2010349468  TIP3      8204            0.0000000000
     74443      8604  TIP3      H1             55.4792551644       28.4949383577       40.4729769711  TIP3      8204            0.0000000000
     74444      8604  TIP3      H2             55.9891807061       28.7678068881       41.9068139417  TIP3      8204            0.0000000000
     74445      8605  TIP3      OH2            54.3361434209       25.3959104969       39.8172736351  TIP3      8205            0.0000000000
     74446      8605  TIP3      H1             54.4400887963       26.0305699548       39.1022622285  TIP3      8205            0.0000000000
     74447      8605  TIP3      H2             54.1879877761       24.5597123160       39.3226516633  TIP3      8205            0.0000000000
     74448      8606  TIP3      OH2            53.5825186197       22.8073025105       38.9215421183  TIP3      8206            0.0000000000
     74449      8606  TIP3      H1             54.1904092285       22.4035014543       39.5663380554  TIP3      8206            0.0000000000
     74450      8606  TIP3      H2             52.7434292176       22.3728263164       39.1220318566  TIP3      8206            0.0000000000
     74451      8607  TIP3      OH2            55.6742840875       21.6564090350       40.4588071273  TIP3      8207            0.0000000000
     74452      8607  TIP3      H1             56.1220348736       20.9490650939       39.9799452391  TIP3      8207            0.0000000000
     74453      8607  TIP3      H2             56.3838377175       22.3234322157       40.5445463760  TIP3      8207            0.0000000000
     74454      8608  TIP3      OH2            39.2500768853       19.7212857536       41.5512696173  TIP3      8208            0.0000000000
     74455      8608  TIP3      H1             39.7203931744       20.3450218870       40.9851440644  TIP3      8208            0.0000000000
     74456      8608  TIP3      H2             38.6440205657       20.2703137084       42.0349638755  TIP3      8208            0.0000000000
     74457      8609  TIP3      OH2            41.0890792059       21.6433038219       40.0037653671  TIP3      8209            0.0000000000
     74458      8609  TIP3      H1             41.6022553631       21.0018995779       39.4830107596  TIP3      8209            0.0000000000
     74459      8609  TIP3      H2             41.7331146083       21.9244180251       40.6874071766  TIP3      8209            0.0000000000
     74460      8610  TIP3      OH2            48.0004002865       36.9005097970       40.8802044372  TIP3      8210            0.0000000000
     74461      8610  TIP3      H1             48.8961081774       37.2165396987       40.6787987335  TIP3      8210            0.0000000000
     74462      8610  TIP3      H2             47.7863030862       36.4169418872       40.0502519660  TIP3      8210            0.0000000000
     74463      8611  TIP3      OH2            40.9565658096       36.6021294186       39.4829000375  TIP3      8211            0.0000000000
     74464      8611  TIP3      H1             40.6945663607       36.8682589868       40.3784553285  TIP3      8211            0.0000000000
     74465      8611  TIP3      H2             41.7380700296       36.0329952024       39.6401523532  TIP3      8211            0.0000000000
     74466      8612  TIP3      OH2           -46.0337106156       45.6581150640       40.1866561459  TIP3      8212            0.0000000000
     74467      8612  TIP3      H1            -45.3091225957       45.6777439246       40.8535790299  TIP3      8212            0.0000000000
     74468      8612  TIP3      H2            -45.6893491136       44.9977703952       39.5755889226  TIP3      8212            0.0000000000
     74469      8613  TIP3      OH2           -43.8227519605       46.4551568014       41.7121619167  TIP3      8213            0.0000000000
     74470      8613  TIP3      H1            -43.3036038849       46.6753732590       42.5392388133  TIP3      8213            0.0000000000
     74471      8613  TIP3      H2            -43.3956589077       47.0271558346       41.0500200483  TIP3      8213            0.0000000000
     74472      8614  TIP3      OH2           -40.0653097744       38.3020875999       41.6546350553  TIP3      8214            0.0000000000
     74473      8614  TIP3      H1            -40.9868360853       38.4266402020       41.9123207617  TIP3      8214            0.0000000000
     74474      8614  TIP3      H2            -39.8358399677       39.1433569034       41.2320697882  TIP3      8214            0.0000000000
     74475      8615  TIP3      OH2           -38.9068348808       52.6637633943       39.9813709508  TIP3      8215            0.0000000000
     74476      8615  TIP3      H1            -38.7937718643       53.6107352269       40.1741920778  TIP3      8215            0.0000000000
     74477      8615  TIP3      H2            -37.9802053303       52.3548897831       39.9752240968  TIP3      8215            0.0000000000
     74478      8616  TIP3      OH2           -43.5127769110       55.3976336480       40.6748856603  TIP3      8216            0.0000000000
     74479      8616  TIP3      H1            -43.0899060149       54.6432340238       40.2061229895  TIP3      8216            0.0000000000
     74480      8616  TIP3      H2            -43.4541076439       55.1220937400       41.6015654569  TIP3      8216            0.0000000000
     74481      8617  TIP3      OH2           -42.3005008786       47.5714159692       39.5019187530  TIP3      8217            0.0000000000
     74482      8617  TIP3      H1            -42.2909387459       47.3738233493       38.5253824539  TIP3      8217            0.0000000000
     74483      8617  TIP3      H2            -41.4472995265       48.0078446130       39.6076819496  TIP3      8217            0.0000000000
     74484      8618  TIP3      OH2           -46.7272706634       41.4688872868       40.1042341488  TIP3      8218            0.0000000000
     74485      8618  TIP3      H1            -46.9963537073       41.4806116614       41.0325975858  TIP3      8218            0.0000000000
     74486      8618  TIP3      H2            -47.0020617626       40.5883695889       39.8023427282  TIP3      8218            0.0000000000
     74487      8619  TIP3      OH2           -49.8560923944       41.8933064678       39.2090148787  TIP3      8219            0.0000000000
     74488      8619  TIP3      H1            -50.3131349364       41.4655596970       39.9616353395  TIP3      8219            0.0000000000
     74489      8619  TIP3      H2            -50.5828183228       42.2835731813       38.7004827916  TIP3      8219            0.0000000000
     74490      8620  TIP3      OH2           -55.3234705244       42.2732460695       41.6441416832  TIP3      8220            0.0000000000
     74491      8620  TIP3      H1            -54.8389020292       42.9611112819       41.1244462077  TIP3      8220            0.0000000000
     74492      8620  TIP3      H2            -56.0097396912       42.8871079006       42.0146521376  TIP3      8220            0.0000000000
     74493      8621  TIP3      OH2           -51.2198007435       44.6564888780       40.6251390792  TIP3      8221            0.0000000000
     74494      8621  TIP3      H1            -51.7721115471       44.3056446631       39.9004434493  TIP3      8221            0.0000000000
     74495      8621  TIP3      H2            -50.4020987791       44.8777977678       40.1561574102  TIP3      8221            0.0000000000
     74496      8622  TIP3      OH2           -44.0069710889       42.0458844947       40.7028035264  TIP3      8222            0.0000000000
     74497      8622  TIP3      H1            -44.9611814008       42.1752580141       40.5933566838  TIP3      8222            0.0000000000
     74498      8622  TIP3      H2            -43.7010538137       42.9002073477       41.0735379154  TIP3      8222            0.0000000000
     74499      8623  TIP3      OH2           -43.2880502423       43.9351327381       42.3703753759  TIP3      8223            0.0000000000
     74500      8623  TIP3      H1            -42.3918898797       43.8020151729       42.7154654321  TIP3      8223            0.0000000000
     74501      8623  TIP3      H2            -43.2245817285       44.7441212158       41.8489067185  TIP3      8223            0.0000000000
     74502      8624  TIP3      OH2           -45.7510219521       50.6863332860       41.5601684655  TIP3      8224            0.0000000000
     74503      8624  TIP3      H1            -46.0894945466       51.5149041472       41.9225653223  TIP3      8224            0.0000000000
     74504      8624  TIP3      H2            -46.4749592089       50.0767675356       41.7685025243  TIP3      8224            0.0000000000
     74505      8625  TIP3      OH2           -38.2389660251       44.1180471236       41.9721568060  TIP3      8225            0.0000000000
     74506      8625  TIP3      H1            -38.9400629352       43.7602056987       41.3864436282  TIP3      8225            0.0000000000
     74507      8625  TIP3      H2            -38.2922941980       45.0717918604       41.7951142646  TIP3      8225            0.0000000000
     74508      8626  TIP3      OH2           -54.5725001980       46.9200297397       40.2432421491  TIP3      8226            0.0000000000
     74509      8626  TIP3      H1            -54.0033387807       47.5568599369       40.7129191234  TIP3      8226            0.0000000000
     74510      8626  TIP3      H2            -55.4654821918       47.2059316758       40.5592048577  TIP3      8226            0.0000000000
     74511      8627  TIP3      OH2           -42.6833120927       50.9168133474       40.3627059681  TIP3      8227            0.0000000000
     74512      8627  TIP3      H1            -42.3673682746       50.5440954235       41.1894150335  TIP3      8227            0.0000000000
     74513      8627  TIP3      H2            -43.6507722690       50.8031268134       40.4615236661  TIP3      8227            0.0000000000
     74514      8628  TIP3      OH2           -38.1942974509       55.3140761015       40.6258285964  TIP3      8228            0.0000000000
     74515      8628  TIP3      H1            -37.4745116098       55.9501400752       40.4515149367  TIP3      8228            0.0000000000
     74516      8628  TIP3      H2            -38.9100697957       55.9389386820       40.8933091111  TIP3      8228            0.0000000000
     74517      8629  TIP3      OH2           -48.5925856148       52.0455021993       38.8166780832  TIP3      8229            0.0000000000
     74518      8629  TIP3      H1            -48.4017888878       51.2627584415       38.2774826337  TIP3      8229            0.0000000000
     74519      8629  TIP3      H2            -48.9130192628       51.6281078832       39.6512367325  TIP3      8229            0.0000000000
     74520      8630  TIP3      OH2           -49.7039222139       51.5645222004       41.2711187658  TIP3      8230            0.0000000000
     74521      8630  TIP3      H1            -49.5351609869       51.0696363913       42.0847412754  TIP3      8230            0.0000000000
     74522      8630  TIP3      H2            -49.6620224654       52.4851037050       41.5965074032  TIP3      8230            0.0000000000
     74523      8631  TIP3      OH2           -53.2938444959       48.8288472490       41.7362259010  TIP3      8231            0.0000000000
     74524      8631  TIP3      H1            -53.9139744624       49.1791752561       42.3659290423  TIP3      8231            0.0000000000
     74525      8631  TIP3      H2            -52.7018729520       49.5867087161       41.5412914551  TIP3      8231            0.0000000000
     74526      8632  TIP3      OH2           -47.3212338013       52.9635619244       41.3707867812  TIP3      8232            0.0000000000
     74527      8632  TIP3      H1            -47.7830656522       53.6252547849       41.9438919246  TIP3      8232            0.0000000000
     74528      8632  TIP3      H2            -46.5519290736       53.6025361923       41.3308004987  TIP3      8232            0.0000000000
     74529      8633  TIP3      OH2           -49.5805949547       54.3329302922       42.0313996174  TIP3      8233            0.0000000000
     74530      8633  TIP3      H1            -49.4735536443       55.1287090605       41.4875309409  TIP3      8233            0.0000000000
     74531      8633  TIP3      H2            -49.8130300041       54.6584229162       42.8987710666  TIP3      8233            0.0000000000
     74532      8634  TIP3      OH2           -50.9891526805       40.8877989734       41.4305236446  TIP3      8234            0.0000000000
     74533      8634  TIP3      H1            -51.0715180629       41.7633854111       41.8504432068  TIP3      8234            0.0000000000
     74534      8634  TIP3      H2            -50.0870026501       40.7465207471       41.8071059433  TIP3      8234            0.0000000000
     74535      8635  TIP3      OH2           -52.6476645755       51.4454706218       40.6808289653  TIP3      8235            0.0000000000
     74536      8635  TIP3      H1            -52.0256579008       52.1329465320       40.9597475292  TIP3      8235            0.0000000000
     74537      8635  TIP3      H2            -52.1274660071       51.0056377087       39.9783088185  TIP3      8235            0.0000000000
     74538      8636  TIP3      OH2           -54.3054554599       44.1170447041       39.7977898889  TIP3      8236            0.0000000000
     74539      8636  TIP3      H1            -54.3343004067       45.0719924977       39.9967205868  TIP3      8236            0.0000000000
     74540      8636  TIP3      H2            -55.1945753941       43.9060568750       39.5214498861  TIP3      8236            0.0000000000
     74541      8637  TIP3      OH2           -46.5575799200       53.9005921063       38.9548209384  TIP3      8237            0.0000000000
     74542      8637  TIP3      H1            -47.2246525998       53.2369679472       39.2617309059  TIP3      8237            0.0000000000
     74543      8637  TIP3      H2            -45.8180518898       53.3274246047       38.7209760342  TIP3      8237            0.0000000000
     74544      8638  TIP3      OH2           -41.9789896708       53.6781902360       39.1594905890  TIP3      8238            0.0000000000
     74545      8638  TIP3      H1            -41.6908523693       52.8959111939       39.6529748695  TIP3      8238            0.0000000000
     74546      8638  TIP3      H2            -41.2120209607       53.9019959806       38.6208738035  TIP3      8238            0.0000000000
     74547      8639  TIP3      OH2           -51.0678123788       49.5936631775       39.0320753894  TIP3      8239            0.0000000000
     74548      8639  TIP3      H1            -50.9433893420       48.8082234441       39.5872916532  TIP3      8239            0.0000000000
     74549      8639  TIP3      H2            -50.3519221786       49.4807991067       38.3730044261  TIP3      8239            0.0000000000
     74550      8640  TIP3      OH2           -45.6400301454       50.6775340242       38.7896072144  TIP3      8240            0.0000000000
     74551      8640  TIP3      H1            -45.9375473050       50.8107123782       39.7025185165  TIP3      8240            0.0000000000
     74552      8640  TIP3      H2            -45.8740001664       49.7249063855       38.6409446671  TIP3      8240            0.0000000000
     74553      8641  TIP3      OH2           -49.8776377519       47.5753621694       41.3550537301  TIP3      8241            0.0000000000
     74554      8641  TIP3      H1            -50.3425081223       47.0755199633       42.0373233913  TIP3      8241            0.0000000000
     74555      8641  TIP3      H2            -49.6081611366       46.8954219630       40.7069908842  TIP3      8241            0.0000000000
     74556      8642  TIP3      OH2           -48.8102937099       45.8102874276       39.6149488189  TIP3      8242            0.0000000000
     74557      8642  TIP3      H1            -48.9764612431       45.6807601975       38.6608190882  TIP3      8242            0.0000000000
     74558      8642  TIP3      H2            -47.8379080880       45.9145612624       39.6701985982  TIP3      8242            0.0000000000
     74559      8643  TIP3      OH2           -39.4370787930       48.1702789606       39.0917884005  TIP3      8243            0.0000000000
     74560      8643  TIP3      H1            -39.6709837379       47.7631687112       38.2365204620  TIP3      8243            0.0000000000
     74561      8643  TIP3      H2            -39.3752860835       49.1196126667       38.8329011405  TIP3      8243            0.0000000000
     74562      8644  TIP3      OH2           -55.3489055724       51.1225369747       40.1351912697  TIP3      8244            0.0000000000
     74563      8644  TIP3      H1            -54.4033182313       51.2110791666       40.3729036285  TIP3      8244            0.0000000000
     74564      8644  TIP3      H2            -55.3205464660       50.4444609796       39.4280894612  TIP3      8244            0.0000000000
     74565      8645  TIP3      OH2           -38.2346125611       46.9395117757       41.1835801988  TIP3      8245            0.0000000000
     74566      8645  TIP3      H1            -38.7957030705       47.3451181121       40.4883415986  TIP3      8245            0.0000000000
     74567      8645  TIP3      H2            -38.2914512352       47.6164968016       41.9124892084  TIP3      8245            0.0000000000
     74568      8646  TIP3      OH2           -39.9297493663       44.2416413649       39.8136559946  TIP3      8246            0.0000000000
     74569      8646  TIP3      H1            -39.8434953785       44.8885208067       39.1056785004  TIP3      8246            0.0000000000
     74570      8646  TIP3      H2            -40.0875108175       43.4072825827       39.3224474823  TIP3      8246            0.0000000000
     74571      8647  TIP3      OH2           -40.6833351317       41.6555975164       38.9202515986  TIP3      8247            0.0000000000
     74572      8647  TIP3      H1            -40.0804826209       41.2533420473       39.5679091004  TIP3      8247            0.0000000000
     74573      8647  TIP3      H2            -41.5326949025       41.2295394552       39.1250797878  TIP3      8247            0.0000000000
     74574      8648  TIP3      OH2           -38.6042715835       40.5290647538       40.4695305011  TIP3      8248            0.0000000000
     74575      8648  TIP3      H1            -38.1696335754       39.7947184260       39.9859658411  TIP3      8248            0.0000000000
     74576      8648  TIP3      H2            -37.8968959895       41.1907569442       40.5438793800  TIP3      8248            0.0000000000
     74577      8649  TIP3      OH2           -55.0236166629       38.5621137987       41.5493433998  TIP3      8249            0.0000000000
     74578      8649  TIP3      H1            -54.5671847617       39.2114065494       40.9937472878  TIP3      8249            0.0000000000
     74579      8649  TIP3      H2            -55.6339410333       39.1161454187       42.0314296845  TIP3      8249            0.0000000000
     74580      8650  TIP3      OH2           -53.1998808587       40.4918983764       40.0055340162  TIP3      8250            0.0000000000
     74581      8650  TIP3      H1            -52.6766484206       39.8602718738       39.4779815585  TIP3      8250            0.0000000000
     74582      8650  TIP3      H2            -52.5504601005       40.7801435018       40.6815165176  TIP3      8250            0.0000000000
     74583      8651  TIP3      OH2           -46.2862154318       55.7579913594       40.8733992985  TIP3      8251            0.0000000000
     74584      8651  TIP3      H1            -45.3923454065       56.0773560262       40.6821604301  TIP3      8251            0.0000000000
     74585      8651  TIP3      H2            -46.4945243552       55.2843517572       40.0449397874  TIP3      8251            0.0000000000
     74586      8652  TIP3      OH2           -53.3171436421       55.4431188912       39.4846425554  TIP3      8252            0.0000000000
     74587      8652  TIP3      H1            -53.5869025919       55.7139788073       40.3799341614  TIP3      8252            0.0000000000
     74588      8652  TIP3      H2            -52.5310146870       54.8915545416       39.6513449523  TIP3      8252            0.0000000000
     74589      8653  TIP3      OH2           -27.1579023690       45.6959964309       40.1723163565  TIP3      8253            0.0000000000
     74590      8653  TIP3      H1            -26.4539979811       45.6610535988       40.8620852534  TIP3      8253            0.0000000000
     74591      8653  TIP3      H2            -26.8414171122       44.9887452375       39.5820456028  TIP3      8253            0.0000000000
     74592      8654  TIP3      OH2           -24.9763470646       46.4709691725       41.7120104254  TIP3      8254            0.0000000000
     74593      8654  TIP3      H1            -24.4461247905       46.6645347731       42.5406257773  TIP3      8254            0.0000000000
     74594      8654  TIP3      H2            -24.5204801834       47.0175420096       41.0571568091  TIP3      8254            0.0000000000
     74595      8655  TIP3      OH2           -21.2092677330       38.3020977066       41.6545164623  TIP3      8255            0.0000000000
     74596      8655  TIP3      H1            -22.1307223702       38.4264978653       41.9124826504  TIP3      8255            0.0000000000
     74597      8655  TIP3      H2            -20.9798739137       39.1433414259       41.2320543493  TIP3      8255            0.0000000000
     74598      8656  TIP3      OH2           -20.0480259370       52.6673835580       39.9471527393  TIP3      8256            0.0000000000
     74599      8656  TIP3      H1            -19.9411707907       53.6075560159       40.1914202241  TIP3      8256            0.0000000000
     74600      8656  TIP3      H2            -19.1259219619       52.3509765141       39.9912757614  TIP3      8256            0.0000000000
     74601      8657  TIP3      OH2           -24.6573267357       55.3978965652       40.6721680626  TIP3      8257            0.0000000000
     74602      8657  TIP3      H1            -24.2346315951       54.6427238457       40.2058443017  TIP3      8257            0.0000000000
     74603      8657  TIP3      H2            -24.5993342577       55.1212879567       41.6006066347  TIP3      8257            0.0000000000
     74604      8658  TIP3      OH2           -23.4742264914       47.6064168162       39.4920872515  TIP3      8258            0.0000000000
     74605      8658  TIP3      H1            -23.4193691734       47.3596507206       38.5246080946  TIP3      8258            0.0000000000
     74606      8658  TIP3      H2            -22.5894132557       47.9961148620       39.6110042031  TIP3      8258            0.0000000000
     74607      8659  TIP3      OH2           -27.8710391597       41.4708200683       40.1041169638  TIP3      8259            0.0000000000
     74608      8659  TIP3      H1            -28.1401764601       41.4807299014       41.0324511287  TIP3      8259            0.0000000000
     74609      8659  TIP3      H2            -28.1454959837       40.5891755863       39.8022808817  TIP3      8259            0.0000000000
     74610      8660  TIP3      OH2           -31.0034822389       41.8932496719       39.2115274015  TIP3      8260            0.0000000000
     74611      8660  TIP3      H1            -31.4608078362       41.4620579015       39.9608753139  TIP3      8260            0.0000000000
     74612      8660  TIP3      H2            -31.7269423065       42.2834896795       38.7003909121  TIP3      8260            0.0000000000
     74613      8661  TIP3      OH2           -36.4968956238       42.3100399822       41.6452334812  TIP3      8261            0.0000000000
     74614      8661  TIP3      H1            -35.9971356325       42.9727783734       41.1195431503  TIP3      8261            0.0000000000
     74615      8661  TIP3      H2            -37.1831036752       42.9145164192       42.0189087123  TIP3      8261            0.0000000000
     74616      8662  TIP3      OH2           -32.3651570614       44.6563879983       40.6242610485  TIP3      8262            0.0000000000
     74617      8662  TIP3      H1            -32.9137905964       44.3009968603       39.8990702322  TIP3      8262            0.0000000000
     74618      8662  TIP3      H2            -31.5447762224       44.8800598832       40.1560074692  TIP3      8262            0.0000000000
     74619      8663  TIP3      OH2           -25.1512767945       42.0501324257       40.7036136701  TIP3      8263            0.0000000000
     74620      8663  TIP3      H1            -26.1048008901       42.1811451931       40.5899927782  TIP3      8263            0.0000000000
     74621      8663  TIP3      H2            -24.8471805506       42.9059650888       41.0686631034  TIP3      8263            0.0000000000
     74622      8664  TIP3      OH2           -24.4321587014       43.9425647160       42.3872035422  TIP3      8264            0.0000000000
     74623      8664  TIP3      H1            -23.5324362415       43.7953345895       42.7057621202  TIP3      8264            0.0000000000
     74624      8664  TIP3      H2            -24.3674501857       44.7350514990       41.8438247402  TIP3      8264            0.0000000000
     74625      8665  TIP3      OH2           -26.9020254372       50.6667298411       41.5223189089  TIP3      8265            0.0000000000
     74626      8665  TIP3      H1            -27.2228944968       51.5068139752       41.9235073847  TIP3      8265            0.0000000000
     74627      8665  TIP3      H2            -27.6271805726       50.0831978469       41.7954098048  TIP3      8265            0.0000000000
     74628      8666  TIP3      OH2           -19.3897885855       44.1207009571       41.9830314440  TIP3      8266            0.0000000000
     74629      8666  TIP3      H1            -20.0828418300       43.7604193049       41.3877585424  TIP3      8266            0.0000000000
     74630      8666  TIP3      H2            -19.4321991726       45.0715793602       41.7878502081  TIP3      8266            0.0000000000
     74631      8667  TIP3      OH2           -35.7778975805       46.9212766055       40.2677846942  TIP3      8267            0.0000000000
     74632      8667  TIP3      H1            -35.1664642436       47.5499077699       40.7094332379  TIP3      8267            0.0000000000
     74633      8667  TIP3      H2            -36.6507875538       47.2288024770       40.5683664967  TIP3      8267            0.0000000000
     74634      8668  TIP3      OH2           -23.8408091993       50.8835796451       40.3469346971  TIP3      8268            0.0000000000
     74635      8668  TIP3      H1            -23.4992112276       50.5585420754       41.1926364812  TIP3      8268            0.0000000000
     74636      8668  TIP3      H2            -24.7908040095       50.8335082258       40.4954846945  TIP3      8268            0.0000000000
     74637      8669  TIP3      OH2           -19.3492456394       55.3130937846       40.5750704618  TIP3      8269            0.0000000000
     74638      8669  TIP3      H1            -18.6142966238       55.9486362879       40.4812679306  TIP3      8269            0.0000000000
     74639      8669  TIP3      H2            -20.0430574860       55.9313464599       40.9046772651  TIP3      8269            0.0000000000
     74640      8670  TIP3      OH2           -29.7193529368       52.0373042395       38.8231554350  TIP3      8270            0.0000000000
     74641      8670  TIP3      H1            -29.5633731270       51.2658862919       38.2688059271  TIP3      8270            0.0000000000
     74642      8670  TIP3      H2            -30.0689004674       51.6340615500       39.6535656664  TIP3      8270            0.0000000000
     74643      8671  TIP3      OH2           -30.8323499940       51.5587900090       41.2665376343  TIP3      8271            0.0000000000
     74644      8671  TIP3      H1            -30.6869168050       51.0721342145       42.0894400078  TIP3      8271            0.0000000000
     74645      8671  TIP3      H2            -30.8053159656       52.4815432512       41.5934963341  TIP3      8271            0.0000000000
     74646      8672  TIP3      OH2           -34.4511987472       48.8292459514       41.7296960337  TIP3      8272            0.0000000000
     74647      8672  TIP3      H1            -35.0587195587       49.1825226144       42.3695976804  TIP3      8272            0.0000000000
     74648      8672  TIP3      H2            -33.8438006059       49.5797923145       41.5459100528  TIP3      8272            0.0000000000
     74649      8673  TIP3      OH2           -28.4560306559       52.9545168238       41.3671538384  TIP3      8273            0.0000000000
     74650      8673  TIP3      H1            -28.9246907050       53.6181662731       41.9394030240  TIP3      8273            0.0000000000
     74651      8673  TIP3      H2            -27.6974237198       53.6085948145       41.3337290112  TIP3      8273            0.0000000000
     74652      8674  TIP3      OH2           -30.7237162892       54.3320929114       42.0297029799  TIP3      8274            0.0000000000
     74653      8674  TIP3      H1            -30.6173805658       55.1287253418       41.4872925078  TIP3      8274            0.0000000000
     74654      8674  TIP3      H2            -30.9467285899       54.6577155548       42.8985397828  TIP3      8274            0.0000000000
     74655      8675  TIP3      OH2           -32.1396702161       40.8879067256       41.4379032902  TIP3      8275            0.0000000000
     74656      8675  TIP3      H1            -32.2201428547       41.7644924736       41.8530977760  TIP3      8275            0.0000000000
     74657      8675  TIP3      H2            -31.2329479223       40.7471704811       41.8070724116  TIP3      8275            0.0000000000
     74658      8676  TIP3      OH2           -33.8011200542       51.4600195085       40.6904802772  TIP3      8276            0.0000000000
     74659      8676  TIP3      H1            -33.1621955656       52.1313924717       40.9572127659  TIP3      8276            0.0000000000
     74660      8676  TIP3      H2            -33.2846216576       51.0111214649       39.9868873320  TIP3      8276            0.0000000000
     74661      8677  TIP3      OH2           -35.4545960896       44.1158309053       39.8004594296  TIP3      8277            0.0000000000
     74662      8677  TIP3      H1            -35.4849338124       45.0712750017       40.0000452666  TIP3      8277            0.0000000000
     74663      8677  TIP3      H2            -36.3435032490       43.8967823557       39.5308805273  TIP3      8277            0.0000000000
     74664      8678  TIP3      OH2           -27.7036671597       53.9026465557       38.9542558099  TIP3      8278            0.0000000000
     74665      8678  TIP3      H1            -28.3739601273       53.2468657182       39.2643248227  TIP3      8278            0.0000000000
     74666      8678  TIP3      H2            -26.9608913916       53.3369509656       38.7203057014  TIP3      8278            0.0000000000
     74667      8679  TIP3      OH2           -23.1354903191       53.6673267633       39.1568493631  TIP3      8279            0.0000000000
     74668      8679  TIP3      H1            -22.8279321049       52.8989287726       39.6560399961  TIP3      8279            0.0000000000
     74669      8679  TIP3      H2            -22.3651013467       53.9025304707       38.6247342533  TIP3      8279            0.0000000000
     74670      8680  TIP3      OH2           -32.1910304007       49.5964006563       39.0366161983  TIP3      8280            0.0000000000
     74671      8680  TIP3      H1            -32.0908535427       48.8052388563       39.5838265183  TIP3      8280            0.0000000000
     74672      8680  TIP3      H2            -31.5001458515       49.4772066756       38.3646913305  TIP3      8280            0.0000000000
     74673      8681  TIP3      OH2           -26.8892038422       50.9822283498       38.7936002172  TIP3      8281            0.0000000000
     74674      8681  TIP3      H1            -27.0932521091       50.9295520953       39.7480114179  TIP3      8281            0.0000000000
     74675      8681  TIP3      H2            -27.2368356665       50.1129965093       38.5548657827  TIP3      8281            0.0000000000
     74676      8682  TIP3      OH2           -31.0070003785       47.5803585754       41.3533069647  TIP3      8282            0.0000000000
     74677      8682  TIP3      H1            -31.4829749806       47.0818380366       42.0337189960  TIP3      8282            0.0000000000
     74678      8682  TIP3      H2            -30.7606221257       46.8906936958       40.7080815659  TIP3      8282            0.0000000000
     74679      8683  TIP3      OH2           -29.9458260378       45.8390195666       39.6102767691  TIP3      8283            0.0000000000
     74680      8683  TIP3      H1            -30.1197082743       45.6690543139       38.6609397062  TIP3      8283            0.0000000000
     74681      8683  TIP3      H2            -28.9783243259       45.8994768032       39.6693107106  TIP3      8283            0.0000000000
     74682      8684  TIP3      OH2           -20.5895208465       48.1751206972       39.0917954821  TIP3      8284            0.0000000000
     74683      8684  TIP3      H1            -20.8060121415       47.7630724774       38.2342481577  TIP3      8284            0.0000000000
     74684      8684  TIP3      H2            -20.5111580912       49.1243089778       38.8359360426  TIP3      8284            0.0000000000
     74685      8685  TIP3      OH2           -36.5234382488       51.1529490642       40.1293398676  TIP3      8285            0.0000000000
     74686      8685  TIP3      H1            -35.5676493784       51.2098966666       40.3665055154  TIP3      8285            0.0000000000
     74687      8685  TIP3      H2            -36.4773313559       50.4553195616       39.4374437768  TIP3      8285            0.0000000000
     74688      8686  TIP3      OH2           -19.3771437647       46.9412984561       41.1817451580  TIP3      8286            0.0000000000
     74689      8686  TIP3      H1            -19.9400169021       47.3449558046       40.4879337921  TIP3      8286            0.0000000000
     74690      8686  TIP3      H2            -19.4326355006       47.6192567562       41.9079296081  TIP3      8286            0.0000000000
     74691      8687  TIP3      OH2           -21.0734272842       44.2420072183       39.8143658274  TIP3      8287            0.0000000000
     74692      8687  TIP3      H1            -20.9872082126       44.8883553077       39.1057717349  TIP3      8287            0.0000000000
     74693      8687  TIP3      H2            -21.2312914447       43.4074093907       39.3226466458  TIP3      8287            0.0000000000
     74694      8688  TIP3      OH2           -21.8274236166       41.6557690632       38.9204031811  TIP3      8288            0.0000000000
     74695      8688  TIP3      H1            -21.2244685187       41.2533011285       39.5678281989  TIP3      8288            0.0000000000
     74696      8688  TIP3      H2            -22.6766524554       41.2294194073       39.1250376215  TIP3      8288            0.0000000000
     74697      8689  TIP3      OH2           -19.7482383751       40.5286100471       40.4695073124  TIP3      8289            0.0000000000
     74698      8689  TIP3      H1            -19.3138741055       39.7943468083       39.9857650491  TIP3      8289            0.0000000000
     74699      8689  TIP3      H2            -19.0399729475       41.1886995200       40.5392780892  TIP3      8289            0.0000000000
     74700      8690  TIP3      OH2           -36.1616532108       38.5662402219       41.5532474499  TIP3      8290            0.0000000000
     74701      8690  TIP3      H1            -35.7132565053       39.2079560291       40.9864646030  TIP3      8290            0.0000000000
     74702      8690  TIP3      H2            -36.7802706657       39.1231474556       42.0275438218  TIP3      8290            0.0000000000
     74703      8691  TIP3      OH2           -34.3346826890       40.4990202833       40.0036685046  TIP3      8291            0.0000000000
     74704      8691  TIP3      H1            -33.8218286729       39.8582228693       39.4827203095  TIP3      8291            0.0000000000
     74705      8691  TIP3      H2            -33.6867018955       40.7809287075       40.6840499700  TIP3      8291            0.0000000000
     74706      8692  TIP3      OH2           -27.4303283933       55.7588916676       40.8739761272  TIP3      8292            0.0000000000
     74707      8692  TIP3      H1            -26.5363378209       56.0769348596       40.6819996319  TIP3      8292            0.0000000000
     74708      8692  TIP3      H2            -27.6371648543       55.2834472243       40.0466657350  TIP3      8292            0.0000000000
     74709      8693  TIP3      OH2           -34.4739706896       55.4446302629       39.5022942985  TIP3      8293            0.0000000000
     74710      8693  TIP3      H1            -34.7268312674       55.7271868785       40.3856007998  TIP3      8293            0.0000000000
     74711      8693  TIP3      H2            -33.6813008975       54.8919920955       39.6446850011  TIP3      8293            0.0000000000
     74712      8694  TIP3      OH2            -8.3217713818       45.6580747349       40.1867926388  TIP3      8294            0.0000000000
     74713      8694  TIP3      H1             -7.5971494942       45.6776504038       40.8536736767  TIP3      8294            0.0000000000
     74714      8694  TIP3      H2             -7.9772669436       44.9978875555       39.5756046898  TIP3      8294            0.0000000000
     74715      8695  TIP3      OH2            -6.1078783023       46.4538793373       41.7169584099  TIP3      8295            0.0000000000
     74716      8695  TIP3      H1             -5.5905386844       46.6782429403       42.5371157294  TIP3      8295            0.0000000000
     74717      8695  TIP3      H2             -5.6843995227       47.0257727591       41.0515137427  TIP3      8295            0.0000000000
     74718      8696  TIP3      OH2            -2.3534313038       38.3021610181       41.6543885872  TIP3      8296            0.0000000000
     74719      8696  TIP3      H1             -3.2751944790       38.4274718707       41.9121512967  TIP3      8296            0.0000000000
     74720      8696  TIP3      H2             -2.1238693597       39.1433876981       41.2321020435  TIP3      8296            0.0000000000
     74721      8697  TIP3      OH2            -1.1982294825       52.6616932510       39.9670535229  TIP3      8297            0.0000000000
     74722      8697  TIP3      H1             -1.0800194391       53.6077757564       40.1811397298  TIP3      8297            0.0000000000
     74723      8697  TIP3      H2             -0.2695851894       52.3544649678       39.9783835589  TIP3      8297            0.0000000000
     74724      8698  TIP3      OH2            -5.8035914881       55.3970624707       40.6720934949  TIP3      8298            0.0000000000
     74725      8698  TIP3      H1             -5.3778196277       54.6431679534       40.2061902150  TIP3      8298            0.0000000000
     74726      8698  TIP3      H2             -5.7429046814       55.1213524412       41.6008700254  TIP3      8298            0.0000000000
     74727      8699  TIP3      OH2            -4.5887147421       47.5715258263       39.5019732779  TIP3      8299            0.0000000000
     74728      8699  TIP3      H1             -4.5788373064       47.3737466843       38.5254227656  TIP3      8299            0.0000000000
     74729      8699  TIP3      H2             -3.7353175247       48.0077655667       39.6076115675  TIP3      8299            0.0000000000
     74730      8700  TIP3      OH2            -9.0153470559       41.4690143810       40.1041102137  TIP3      8300            0.0000000000
     74731      8700  TIP3      H1             -9.2842473982       41.4806224172       41.0324822542  TIP3      8300            0.0000000000
     74732      8700  TIP3      H2             -9.2899494971       40.5884068654       39.8021605580  TIP3      8300            0.0000000000
     74733      8701  TIP3      OH2           -12.1470035134       41.8934781874       39.2108371500  TIP3      8301            0.0000000000
     74734      8701  TIP3      H1            -12.6015685509       41.4653766003       39.9617055092  TIP3      8301            0.0000000000
     74735      8701  TIP3      H2            -12.8709692129       42.2836053728       38.7005802550  TIP3      8301            0.0000000000
     74736      8702  TIP3      OH2           -17.6415334878       42.3112729873       41.6455229214  TIP3      8302            0.0000000000
     74737      8702  TIP3      H1            -17.1410719240       42.9727968710       41.1192611681  TIP3      8302            0.0000000000
     74738      8702  TIP3      H2            -18.3276597557       42.9148374328       42.0191023217  TIP3      8302            0.0000000000
     74739      8703  TIP3      OH2           -13.5118054615       44.6552184352       40.6257256084  TIP3      8303            0.0000000000
     74740      8703  TIP3      H1            -14.0582893204       44.3008703594       39.8989587998  TIP3      8303            0.0000000000
     74741      8703  TIP3      H2            -12.6924529909       44.8774833620       40.1578566480  TIP3      8303            0.0000000000
     74742      8704  TIP3      OH2            -6.2945766316       42.0468857895       40.7042233577  TIP3      8304            0.0000000000
     74743      8704  TIP3      H1             -7.2485545806       42.1754734641       40.5936197628  TIP3      8304            0.0000000000
     74744      8704  TIP3      H2             -5.9890561082       42.9006746780       41.0734735919  TIP3      8304            0.0000000000
     74745      8705  TIP3      OH2            -5.5761403804       43.9426846093       42.3854712742  TIP3      8305            0.0000000000
     74746      8705  TIP3      H1             -4.6765646365       43.7962761433       42.7052539339  TIP3      8305            0.0000000000
     74747      8705  TIP3      H2             -5.5155562947       44.7401217468       41.8422624604  TIP3      8305            0.0000000000
     74748      8706  TIP3      OH2            -8.0364987673       50.6824127079       41.5656044834  TIP3      8306            0.0000000000
     74749      8706  TIP3      H1             -8.3772198661       51.5140716514       41.9219924059  TIP3      8306            0.0000000000
     74750      8706  TIP3      H2             -8.7636219393       50.0761926666       41.7687579812  TIP3      8306            0.0000000000
     74751      8707  TIP3      OH2            -0.5333950605       44.1211284130       41.9828857303  TIP3      8307            0.0000000000
     74752      8707  TIP3      H1             -1.2268597596       43.7604975939       41.3878595919  TIP3      8307            0.0000000000
     74753      8707  TIP3      H2             -0.5762030400       45.0715768657       41.7879006228  TIP3      8307            0.0000000000
     74754      8708  TIP3      OH2           -16.9219935993       46.9219138470       40.2675244403  TIP3      8308            0.0000000000
     74755      8708  TIP3      H1            -16.3102443371       47.5516537195       40.7078716338  TIP3      8308            0.0000000000
     74756      8708  TIP3      H2            -17.7948689157       47.2304995056       40.5669378539  TIP3      8308            0.0000000000
     74757      8709  TIP3      OH2            -4.9714242255       50.9163828137       40.3623059049  TIP3      8309            0.0000000000
     74758      8709  TIP3      H1             -4.6555104517       50.5439247104       41.1887921901  TIP3      8309            0.0000000000
     74759      8709  TIP3      H2             -5.9379822194       50.8079743815       40.4656643370  TIP3      8309            0.0000000000
     74760      8710  TIP3      OH2            -0.4967797154       55.3145694215       40.5899357166  TIP3      8310            0.0000000000
     74761      8710  TIP3      H1              0.2413691976       55.9442549555       40.4669255838  TIP3      8310            0.0000000000
     74762      8710  TIP3      H2             -1.1903263088       55.9368786451       40.9069209378  TIP3      8310            0.0000000000
     74763      8711  TIP3      OH2           -10.8839547413       52.0426791690       38.8109785189  TIP3      8311            0.0000000000
     74764      8711  TIP3      H1            -10.6861157543       51.2626293514       38.2824638897  TIP3      8311            0.0000000000
     74765      8711  TIP3      H2            -11.2009877291       51.6286624521       39.6495321461  TIP3      8311            0.0000000000
     74766      8712  TIP3      OH2           -11.9816136091       51.5633220119       41.2760358273  TIP3      8312            0.0000000000
     74767      8712  TIP3      H1            -11.8221352432       51.0685611704       42.0890445931  TIP3      8312            0.0000000000
     74768      8712  TIP3      H2            -11.9490115905       52.4853340534       41.5979949550  TIP3      8312            0.0000000000
     74769      8713  TIP3      OH2           -15.5947492222       48.8289112348       41.7303163470  TIP3      8313            0.0000000000
     74770      8713  TIP3      H1            -16.2038515873       49.1875449163       42.3637610219  TIP3      8313            0.0000000000
     74771      8713  TIP3      H2            -14.9859101182       49.5777152020       41.5474069804  TIP3      8313            0.0000000000
     74772      8714  TIP3      OH2            -9.6096561666       52.9633093915       41.3693291788  TIP3      8314            0.0000000000
     74773      8714  TIP3      H1            -10.0705685255       53.6250541096       41.9439027805  TIP3      8314            0.0000000000
     74774      8714  TIP3      H2             -8.8399668957       53.6022569054       41.3309430312  TIP3      8314            0.0000000000
     74775      8715  TIP3      OH2           -11.8687932831       54.3332406894       42.0311795384  TIP3      8315            0.0000000000
     74776      8715  TIP3      H1            -11.7612074064       55.1290087346       41.4878353654  TIP3      8315            0.0000000000
     74777      8715  TIP3      H2            -12.1006425143       54.6585468719       42.8988242039  TIP3      8315            0.0000000000
     74778      8716  TIP3      OH2           -13.2806573167       40.8895531263       41.4437571243  TIP3      8316            0.0000000000
     74779      8716  TIP3      H1            -13.3613479969       41.7697691490       41.8451253110  TIP3      8316            0.0000000000
     74780      8716  TIP3      H2            -12.3713615241       40.7466234080       41.7996359857  TIP3      8316            0.0000000000
     74781      8717  TIP3      OH2           -14.9466899503       51.4629195269       40.6719802142  TIP3      8317            0.0000000000
     74782      8717  TIP3      H1            -14.3102889962       52.1294808538       40.9678237734  TIP3      8317            0.0000000000
     74783      8717  TIP3      H2            -14.4206943403       51.0045929082       39.9861725040  TIP3      8317            0.0000000000
     74784      8718  TIP3      OH2           -16.5987712215       44.1163116978       39.8009028384  TIP3      8318            0.0000000000
     74785      8718  TIP3      H1            -16.6293075073       45.0725637035       39.9982963984  TIP3      8318            0.0000000000
     74786      8718  TIP3      H2            -17.4874938917       43.8968272742       39.5304138307  TIP3      8318            0.0000000000
     74787      8719  TIP3      OH2            -8.8474012827       53.9005725616       38.9530498370  TIP3      8319            0.0000000000
     74788      8719  TIP3      H1             -9.5125803782       53.2370671366       39.2622783274  TIP3      8319            0.0000000000
     74789      8719  TIP3      H2             -8.1062020365       53.3276434070       38.7211199687  TIP3      8319            0.0000000000
     74790      8720  TIP3      OH2            -4.2671304307       53.6780764731       39.1590943801  TIP3      8320            0.0000000000
     74791      8720  TIP3      H1             -3.9788374007       52.8961005493       39.6531309751  TIP3      8320            0.0000000000
     74792      8720  TIP3      H2             -3.4995685245       53.9020559368       38.6208222300  TIP3      8320            0.0000000000
     74793      8721  TIP3      OH2           -13.3558755182       49.5888149336       39.0234672530  TIP3      8321            0.0000000000
     74794      8721  TIP3      H1            -13.2293028372       48.8114081523       39.5907322627  TIP3      8321            0.0000000000
     74795      8721  TIP3      H2            -12.6367201789       49.4829644231       38.3789591591  TIP3      8321            0.0000000000
     74796      8722  TIP3      OH2            -7.9277836961       50.6784163690       38.7898404994  TIP3      8322            0.0000000000
     74797      8722  TIP3      H1             -8.2226885493       50.8095699542       39.7035595171  TIP3      8322            0.0000000000
     74798      8722  TIP3      H2             -8.1563440503       49.7257014808       38.6482157720  TIP3      8322            0.0000000000
     74799      8723  TIP3      OH2           -12.1618691247       47.5756974001       41.3533201041  TIP3      8323            0.0000000000
     74800      8723  TIP3      H1            -12.6295719249       47.0766956528       42.0361720038  TIP3      8323            0.0000000000
     74801      8723  TIP3      H2            -11.8956662375       46.8955129638       40.7061546676  TIP3      8323            0.0000000000
     74802      8724  TIP3      OH2           -11.0982174570       45.8198458313       39.6070904282  TIP3      8324            0.0000000000
     74803      8724  TIP3      H1            -11.2585910228       45.6705130786       38.6615010049  TIP3      8324            0.0000000000
     74804      8724  TIP3      H2            -10.1246834150       45.9117257665       39.6753438057  TIP3      8324            0.0000000000
     74805      8725  TIP3      OH2            -1.7250076239       48.1708529367       39.0922718080  TIP3      8325            0.0000000000
     74806      8725  TIP3      H1             -1.9588667212       47.7638096848       38.2365176015  TIP3      8325            0.0000000000
     74807      8725  TIP3      H2             -1.6629672336       49.1223128167       38.8376787322  TIP3      8325            0.0000000000
     74808      8726  TIP3      OH2           -17.6648628636       51.1623664419       40.1029120148  TIP3      8326            0.0000000000
     74809      8726  TIP3      H1            -16.7154807129       51.2098541099       40.3760417475  TIP3      8326            0.0000000000
     74810      8726  TIP3      H2            -17.6185324291       50.4409661406       39.4400732506  TIP3      8326            0.0000000000
     74811      8727  TIP3      OH2            -0.5208011894       46.9414012542       41.1821045805  TIP3      8327            0.0000000000
     74812      8727  TIP3      H1             -1.0838561889       47.3449661734       40.4879855270  TIP3      8327            0.0000000000
     74813      8727  TIP3      H2             -0.5765865113       47.6193367011       41.9078548803  TIP3      8327            0.0000000000
     74814      8728  TIP3      OH2            -2.2169300704       44.2418699058       39.8145196575  TIP3      8328            0.0000000000
     74815      8728  TIP3      H1             -2.1315384314       44.8884871815       39.1059368667  TIP3      8328            0.0000000000
     74816      8728  TIP3      H2             -2.3754663290       43.4075718449       39.3227294289  TIP3      8328            0.0000000000
     74817      8729  TIP3      OH2            -2.9713242983       41.6556642043       38.9203237751  TIP3      8329            0.0000000000
     74818      8729  TIP3      H1             -2.3684879725       41.2533118077       39.5678667482  TIP3      8329            0.0000000000
     74819      8729  TIP3      H2             -3.8206836724       41.2295047808       39.1250191833  TIP3      8329            0.0000000000
     74820      8730  TIP3      OH2            -0.8922184332       40.5285248667       40.4693633109  TIP3      8330            0.0000000000
     74821      8730  TIP3      H1             -0.4578950781       39.7943784438       39.9856937403  TIP3      8330            0.0000000000
     74822      8730  TIP3      H2             -0.1842344762       41.1888962055       40.5395510212  TIP3      8330            0.0000000000
     74823      8731  TIP3      OH2           -17.3059707051       38.5667522243       41.5538665717  TIP3      8331            0.0000000000
     74824      8731  TIP3      H1            -16.8578705752       39.2075200439       40.9860228379  TIP3      8331            0.0000000000
     74825      8731  TIP3      H2            -17.9244426920       39.1231732758       42.0273859887  TIP3      8331            0.0000000000
     74826      8732  TIP3      OH2           -15.4782462845       40.4991268597       40.0040439193  TIP3      8332            0.0000000000
     74827      8732  TIP3      H1            -14.9658826462       39.8581663164       39.4826571017  TIP3      8332            0.0000000000
     74828      8732  TIP3      H2            -14.8305823667       40.7809523985       40.6841562256  TIP3      8332            0.0000000000
     74829      8733  TIP3      OH2            -8.5742330432       55.7585965594       40.8736784283  TIP3      8333            0.0000000000
     74830      8733  TIP3      H1             -7.6802046973       56.0772029128       40.6822658527  TIP3      8333            0.0000000000
     74831      8733  TIP3      H2             -8.7813909640       55.2838684398       40.0465603310  TIP3      8333            0.0000000000
     74832      8734  TIP3      OH2           -15.6239218045       55.4319676240       39.4829485808  TIP3      8334            0.0000000000
     74833      8734  TIP3      H1            -15.8708938057       55.7257566118       40.3825262225  TIP3      8334            0.0000000000
     74834      8734  TIP3      H2            -14.8226930564       54.8976121466       39.6593745541  TIP3      8334            0.0000000000
     74835      8735  TIP3      OH2            10.5366717265       45.6576849113       40.1880751367  TIP3      8335            0.0000000000
     74836      8735  TIP3      H1             11.2668759476       45.6779930485       40.8512358979  TIP3      8335            0.0000000000
     74837      8735  TIP3      H2             10.8783902710       44.9975600471       39.5752412027  TIP3      8335            0.0000000000
     74838      8736  TIP3      OH2            12.7423526228       46.4597193498       41.7199912571  TIP3      8336            0.0000000000
     74839      8736  TIP3      H1             13.2761659567       46.6761187873       42.5313166013  TIP3      8336            0.0000000000
     74840      8736  TIP3      H2             13.1818160321       47.0214299695       41.0518095238  TIP3      8336            0.0000000000
     74841      8737  TIP3      OH2            16.5024793475       38.2950292179       41.6567869474  TIP3      8337            0.0000000000
     74842      8737  TIP3      H1             15.5819578487       38.4301984816       41.9110011378  TIP3      8337            0.0000000000
     74843      8737  TIP3      H2             16.7324404684       39.1383114938       41.2334450875  TIP3      8337            0.0000000000
     74844      8738  TIP3      OH2            17.6492011374       52.6718399994       39.9617156307  TIP3      8338            0.0000000000
     74845      8738  TIP3      H1             17.7996806641       53.6059797815       40.1780908749  TIP3      8338            0.0000000000
     74846      8738  TIP3      H2             18.5814875856       52.3548255896       39.9851524872  TIP3      8338            0.0000000000
     74847      8739  TIP3      OH2            12.9865884835       55.4001703893       40.6844854415  TIP3      8339            0.0000000000
     74848      8739  TIP3      H1             13.3553642815       54.6402632108       40.1832507680  TIP3      8339            0.0000000000
     74849      8739  TIP3      H2             13.0420164216       55.1209180086       41.6139281737  TIP3      8339            0.0000000000
     74850      8740  TIP3      OH2            14.2364704239       47.6069870410       39.4902879549  TIP3      8340            0.0000000000
     74851      8740  TIP3      H1             14.2884595309       47.3648040366       38.5322504865  TIP3      8340            0.0000000000
     74852      8740  TIP3      H2             15.1276916984       47.9777334518       39.6194899398  TIP3      8340            0.0000000000
     74853      8741  TIP3      OH2             9.8413778234       41.4691816145       40.1043260174  TIP3      8341            0.0000000000
     74854      8741  TIP3      H1              9.5715914628       41.4806039791       41.0324917599  TIP3      8341            0.0000000000
     74855      8741  TIP3      H2              9.5664904270       40.5883287598       39.8016323344  TIP3      8341            0.0000000000
     74856      8742  TIP3      OH2             6.7092535514       41.8934075702       39.2105552350  TIP3      8342            0.0000000000
     74857      8742  TIP3      H1              6.2545072585       41.4654333547       39.9618743507  TIP3      8342            0.0000000000
     74858      8742  TIP3      H2              5.9850751000       42.2836617350       38.7005352807  TIP3      8342            0.0000000000
     74859      8743  TIP3      OH2             1.2141500606       42.3109243205       41.6450907862  TIP3      8343            0.0000000000
     74860      8743  TIP3      H1              1.7149412843       42.9728077907       41.1194791351  TIP3      8343            0.0000000000
     74861      8743  TIP3      H2              0.5284985475       42.9148157591       42.0192443696  TIP3      8343            0.0000000000
     74862      8744  TIP3      OH2             5.3438784984       44.6555463656       40.6257999395  TIP3      8344            0.0000000000
     74863      8744  TIP3      H1              4.7978174803       44.3008173491       39.8989829360  TIP3      8344            0.0000000000
     74864      8744  TIP3      H2              6.1637119203       44.8773998621       40.1579903401  TIP3      8344            0.0000000000
     74865      8745  TIP3      OH2            12.5623953504       42.0476824405       40.7007824241  TIP3      8345            0.0000000000
     74866      8745  TIP3      H1             11.6071166957       42.1761079769       40.5933845963  TIP3      8345            0.0000000000
     74867      8745  TIP3      H2             12.8745414022       42.9032073615       41.0698188082  TIP3      8345            0.0000000000
     74868      8746  TIP3      OH2            13.2718680214       43.9417701564       42.3939534969  TIP3      8346            0.0000000000
     74869      8746  TIP3      H1             14.1790864773       43.7975546618       42.6988536632  TIP3      8346            0.0000000000
     74870      8746  TIP3      H2             13.3440691829       44.7357249409       41.8408287296  TIP3      8346            0.0000000000
     74871      8747  TIP3      OH2            10.8196386355       50.6819032894       41.5669386816  TIP3      8347            0.0000000000
     74872      8747  TIP3      H1             10.4722766650       51.5101557006       41.9237050581  TIP3      8347            0.0000000000
     74873      8747  TIP3      H2             10.0933686562       50.0754712782       41.7681274989  TIP3      8347            0.0000000000
     74874      8748  TIP3      OH2            18.3416512269       44.0864644893       42.0045790516  TIP3      8348            0.0000000000
     74875      8748  TIP3      H1             17.6324188313       43.7724514272       41.3933996212  TIP3      8348            0.0000000000
     74876      8748  TIP3      H2             18.2633880326       45.0444762608       41.7874000877  TIP3      8348            0.0000000000
     74877      8749  TIP3      OH2             1.9340945623       46.9211201133       40.2678839443  TIP3      8349            0.0000000000
     74878      8749  TIP3      H1              2.5456315714       47.5499380885       40.7093191762  TIP3      8349            0.0000000000
     74879      8749  TIP3      H2              1.0610611119       47.2288523678       40.5676007667  TIP3      8349            0.0000000000
     74880      8750  TIP3      OH2            13.8833058016       50.9539445793       40.3732111521  TIP3      8350            0.0000000000
     74881      8750  TIP3      H1             14.2017031200       50.5239549307       41.1789158732  TIP3      8350            0.0000000000
     74882      8750  TIP3      H2             12.9184509849       50.7908105969       40.4591831616  TIP3      8350            0.0000000000
     74883      8751  TIP3      OH2            18.3362130291       55.3137821391       40.5851087197  TIP3      8351            0.0000000000
     74884      8751  TIP3      H1             19.1009882255       55.9313371206       40.4722639175  TIP3      8351            0.0000000000
     74885      8751  TIP3      H2             17.6855621206       55.9566903116       40.9140899637  TIP3      8351            0.0000000000
     74886      8752  TIP3      OH2             7.9759074071       52.0457278319       38.8168073837  TIP3      8352            0.0000000000
     74887      8752  TIP3      H1              8.1661462077       51.2628658864       38.2774724533  TIP3      8352            0.0000000000
     74888      8752  TIP3      H2              7.6550316325       51.6280749782       39.6511726919  TIP3      8352            0.0000000000
     74889      8753  TIP3      OH2             6.8642919449       51.5645339815       41.2710470990  TIP3      8353            0.0000000000
     74890      8753  TIP3      H1              7.0328234251       51.0696331425       42.0847315081  TIP3      8353            0.0000000000
     74891      8753  TIP3      H2              6.9064437963       52.4849287034       41.5968209484  TIP3      8353            0.0000000000
     74892      8754  TIP3      OH2             3.2605964241       48.8292180101       41.7299141543  TIP3      8354            0.0000000000
     74893      8754  TIP3      H1              2.6533659629       49.1825123349       42.3697551508  TIP3      8354            0.0000000000
     74894      8754  TIP3      H2              3.8683591845       49.5795407367       41.5455636077  TIP3      8354            0.0000000000
     74895      8755  TIP3      OH2             9.2448714409       52.9620332197       41.3729557997  TIP3      8355            0.0000000000
     74896      8755  TIP3      H1              8.7852841671       53.6254037508       41.9446026750  TIP3      8355            0.0000000000
     74897      8755  TIP3      H2             10.0104858322       53.6025914401       41.3307497342  TIP3      8355            0.0000000000
     74898      8756  TIP3      OH2             6.9877350470       54.3333294274       42.0311506019  TIP3      8356            0.0000000000
     74899      8756  TIP3      H1              7.1004692391       55.1286371879       41.4870793363  TIP3      8356            0.0000000000
     74900      8756  TIP3      H2              6.7550128689       54.6586256775       42.8986946100  TIP3      8356            0.0000000000
     74901      8757  TIP3      OH2             5.5722749750       40.8881198329       41.4377838273  TIP3      8357            0.0000000000
     74902      8757  TIP3      H1              5.4918690741       41.7645635975       41.8532016277  TIP3      8357            0.0000000000
     74903      8757  TIP3      H2              6.4788682368       40.7471016706       41.8070412522  TIP3      8357            0.0000000000
     74904      8758  TIP3      OH2             3.9152948164       51.4521450790       40.6855990691  TIP3      8358            0.0000000000
     74905      8758  TIP3      H1              4.5424309192       52.1342514610       40.9609480864  TIP3      8358            0.0000000000
     74906      8758  TIP3      H2              4.4326259288       51.0092257790       39.9828739154  TIP3      8358            0.0000000000
     74907      8759  TIP3      OH2             2.2573533224       44.1155032474       39.8008730217  TIP3      8359            0.0000000000
     74908      8759  TIP3      H1              2.2272900125       45.0709239535       40.0003534143  TIP3      8359            0.0000000000
     74909      8759  TIP3      H2              1.3684952971       43.8967875601       39.5307485995  TIP3      8359            0.0000000000
     74910      8760  TIP3      OH2            10.0148866704       53.9026245947       38.9551123609  TIP3      8360            0.0000000000
     74911      8760  TIP3      H1              9.3444643625       53.2402790606       39.2610733414  TIP3      8360            0.0000000000
     74912      8760  TIP3      H2             10.7429613649       53.3213708423       38.7144306266  TIP3      8360            0.0000000000
     74913      8761  TIP3      OH2            14.5894413129       53.6749121598       39.1547437271  TIP3      8361            0.0000000000
     74914      8761  TIP3      H1             14.8688161894       52.8563892887       39.6216251680  TIP3      8361            0.0000000000
     74915      8761  TIP3      H2             15.3517885809       53.8653259825       38.5786511163  TIP3      8361            0.0000000000
     74916      8762  TIP3      OH2             5.5000584704       49.5941507000       39.0312632272  TIP3      8362            0.0000000000
     74917      8762  TIP3      H1              5.6287360423       48.8091615135       39.5836279709  TIP3      8362            0.0000000000
     74918      8762  TIP3      H2              6.2159941010       49.4813708310       38.3725346618  TIP3      8362            0.0000000000
     74919      8763  TIP3      OH2            10.9275132924       50.6772212661       38.7893556910  TIP3      8363            0.0000000000
     74920      8763  TIP3      H1             10.6303949105       50.8107621025       39.7023627778  TIP3      8363            0.0000000000
     74921      8763  TIP3      H2             10.6942550400       49.7245501093       38.6415749164  TIP3      8363            0.0000000000
     74922      8764  TIP3      OH2             6.6951382120       47.5763841271       41.3530167605  TIP3      8364            0.0000000000
     74923      8764  TIP3      H1              6.2266051063       47.0769282644       42.0359627372  TIP3      8364            0.0000000000
     74924      8764  TIP3      H2              6.9603369881       46.8953595444       40.7063631697  TIP3      8364            0.0000000000
     74925      8765  TIP3      OH2             7.7580788195       45.8100718006       39.6142202070  TIP3      8365            0.0000000000
     74926      8765  TIP3      H1              7.5977129613       45.6797178902       38.6592125531  TIP3      8365            0.0000000000
     74927      8765  TIP3      H2              8.7301498663       45.9147157726       39.6708333312  TIP3      8365            0.0000000000
     74928      8766  TIP3      OH2            17.2118850654       48.3169986393       38.9717660517  TIP3      8366            0.0000000000
     74929      8766  TIP3      H1             16.8783296336       47.7714125390       38.2402391265  TIP3      8366            0.0000000000
     74930      8766  TIP3      H2             17.1628311958       49.2322646902       38.7868709439  TIP3      8366            0.0000000000
     74931      8767  TIP3      OH2             1.1876710059       51.1456760164       40.1222098895  TIP3      8367            0.0000000000
     74932      8767  TIP3      H1              2.1409553875       51.2153862175       40.3712093189  TIP3      8367            0.0000000000
     74933      8767  TIP3      H2              1.2372600954       50.4501248364       39.4327454627  TIP3      8367            0.0000000000
     74934      8768  TIP3      OH2            18.9187490701       47.6642401041       41.4538892062  TIP3      8368            0.0000000000
     74935      8768  TIP3      H1             18.1819027632       47.5286776417       40.7474602664  TIP3      8368            0.0000000000
     74936      8768  TIP3      H2             18.2219333314       47.7076884509       42.1065380156  TIP3      8368            0.0000000000
     74937      8769  TIP3      OH2            16.4561087335       43.8550211298       39.6866439678  TIP3      8369            0.0000000000
     74938      8769  TIP3      H1             16.6876182108       44.7346283995       39.2233381399  TIP3      8369            0.0000000000
     74939      8769  TIP3      H2             16.4709808190       43.1826095325       39.0878079051  TIP3      8369            0.0000000000
     74940      8770  TIP3      OH2            15.8822110321       41.5658261366       38.8700554530  TIP3      8370            0.0000000000
     74941      8770  TIP3      H1             16.4830489458       41.2666089034       39.5738287060  TIP3      8370            0.0000000000
     74942      8770  TIP3      H2             15.0209460855       41.2253284392       39.1321515536  TIP3      8370            0.0000000000
     74943      8771  TIP3      OH2            17.9692483197       40.5153457917       40.4756728644  TIP3      8371            0.0000000000
     74944      8771  TIP3      H1             18.4013527655       39.7903110815       39.9825702403  TIP3      8371            0.0000000000
     74945      8771  TIP3      H2             18.6666891185       41.1892554671       40.5374250184  TIP3      8371            0.0000000000
     74946      8772  TIP3      OH2             1.5572500297       38.5624883618       41.5550329124  TIP3      8372            0.0000000000
     74947      8772  TIP3      H1              1.9927636271       39.2139181604       40.9870856274  TIP3      8372            0.0000000000
     74948      8772  TIP3      H2              0.9340490751       39.1181530229       42.0266777828  TIP3      8372            0.0000000000
     74949      8773  TIP3      OH2             3.3756436191       40.5011397806       40.0046932226  TIP3      8373            0.0000000000
     74950      8773  TIP3      H1              3.8888134948       39.8670074018       39.4785406069  TIP3      8373            0.0000000000
     74951      8773  TIP3      H2              4.0253763278       40.7808246941       40.6842328591  TIP3      8373            0.0000000000
     74952      8774  TIP3      OH2            10.2846028050       55.7511880641       40.8756013750  TIP3      8374            0.0000000000
     74953      8774  TIP3      H1             11.1645722817       56.0796707842       40.6714427702  TIP3      8374            0.0000000000
     74954      8774  TIP3      H2             10.0634903016       55.2853145884       40.0463399043  TIP3      8374            0.0000000000
     74955      8775  TIP3      OH2             3.2443392530       55.4499881926       39.4949067819  TIP3      8375            0.0000000000
     74956      8775  TIP3      H1              2.9809285504       55.7218956974       40.3870146511  TIP3      8375            0.0000000000
     74957      8775  TIP3      H2              4.0282027899       54.8906906021       39.6504980015  TIP3      8375            0.0000000000
     74958      8776  TIP3      OH2            29.3904843580       45.6581912933       40.1867682424  TIP3      8376            0.0000000000
     74959      8776  TIP3      H1             30.1148788999       45.6776552253       40.8536817868  TIP3      8376            0.0000000000
     74960      8776  TIP3      H2             29.7345917055       44.9978106958       39.5755862444  TIP3      8376            0.0000000000
     74961      8777  TIP3      OH2            31.6043608487       46.4540733401       41.7172146634  TIP3      8377            0.0000000000
     74962      8777  TIP3      H1             32.1214176016       46.6784274278       42.5371774743  TIP3      8377            0.0000000000
     74963      8777  TIP3      H2             32.0276056308       47.0257504213       41.0514842817  TIP3      8377            0.0000000000
     74964      8778  TIP3      OH2            35.3586705302       38.3020661021       41.6544049395  TIP3      8378            0.0000000000
     74965      8778  TIP3      H1             34.4372403875       38.4265977738       41.9124922787  TIP3      8378            0.0000000000
     74966      8778  TIP3      H2             35.5881698919       39.1433516810       41.2320860657  TIP3      8378            0.0000000000
     74967      8779  TIP3      OH2            36.5137657413       52.6616722837       39.9670631632  TIP3      8379            0.0000000000
     74968      8779  TIP3      H1             36.6318964136       53.6077822884       40.1810903647  TIP3      8379            0.0000000000
     74969      8779  TIP3      H2             37.4424196012       52.3544788962       39.9783901878  TIP3      8379            0.0000000000
     74970      8780  TIP3      OH2            31.9137531080       55.3953568220       40.6739592737  TIP3      8380            0.0000000000
     74971      8780  TIP3      H1             32.3347918933       54.6420409727       40.2060153204  TIP3      8380            0.0000000000
     74972      8780  TIP3      H2             31.9693683501       55.1206782245       41.6017960627  TIP3      8380            0.0000000000
     74973      8781  TIP3      OH2            33.1234564669       47.5713861024       39.5020120192  TIP3      8381            0.0000000000
     74974      8781  TIP3      H1             33.1330497558       47.3738511552       38.5254233986  TIP3      8381            0.0000000000
     74975      8781  TIP3      H2             33.9766901931       48.0078242028       39.6076042406  TIP3      8381            0.0000000000
     74976      8782  TIP3      OH2            28.6968128031       41.4688958727       40.1042782305  TIP3      8382            0.0000000000
     74977      8782  TIP3      H1             28.4276077990       41.4805947985       41.0325920179  TIP3      8382            0.0000000000
     74978      8782  TIP3      H2             28.4219521393       40.5883885293       39.8023664911  TIP3      8382            0.0000000000
     74979      8783  TIP3      OH2            25.5651920913       41.8932845214       39.2105757637  TIP3      8383            0.0000000000
     74980      8783  TIP3      H1             25.1104590231       41.4655412798       39.9619338016  TIP3      8383            0.0000000000
     74981      8783  TIP3      H2             24.8410954233       42.2836913135       38.7005659819  TIP3      8383            0.0000000000
     74982      8784  TIP3      OH2            20.0807183774       42.3042836898       41.6489035844  TIP3      8384            0.0000000000
     74983      8784  TIP3      H1             20.5649525897       42.9754289536       41.1187900788  TIP3      8384            0.0000000000
     74984      8784  TIP3      H2             19.3852213184       42.9131794598       42.0118960441  TIP3      8384            0.0000000000
     74985      8785  TIP3      OH2            24.1996453618       44.6554650179       40.6266037584  TIP3      8385            0.0000000000
     74986      8785  TIP3      H1             23.6484837177       44.3051017151       39.9009640395  TIP3      8385            0.0000000000
     74987      8785  TIP3      H2             25.0191253704       44.8772157795       40.1575994759  TIP3      8385            0.0000000000
     74988      8786  TIP3      OH2            31.4173594230       42.0468690320       40.7042480122  TIP3      8386            0.0000000000
     74989      8786  TIP3      H1             30.4629319543       42.1752493055       40.5932692683  TIP3      8386            0.0000000000
     74990      8786  TIP3      H2             31.7229315281       42.9006792540       41.0734565216  TIP3      8386            0.0000000000
     74991      8787  TIP3      OH2            32.1358760901       43.9426927195       42.3854550045  TIP3      8387            0.0000000000
     74992      8787  TIP3      H1             33.0354193665       43.7962708878       42.7052506617  TIP3      8387            0.0000000000
     74993      8787  TIP3      H2             32.1964421492       44.7401326545       41.8422536451  TIP3      8387            0.0000000000
     74994      8788  TIP3      OH2            29.6741191034       50.6814483528       41.5651686692  TIP3      8388            0.0000000000
     74995      8788  TIP3      H1             29.3346715143       51.5141213713       41.9219172039  TIP3      8388            0.0000000000
     74996      8788  TIP3      H2             28.9483144411       50.0761342959       41.7687606188  TIP3      8388            0.0000000000
     74997      8789  TIP3      OH2            37.1786653959       44.1210690859       41.9829620639  TIP3      8389            0.0000000000
     74998      8789  TIP3      H1             36.4851615701       43.7605230096       41.3878152740  TIP3      8389            0.0000000000
     74999      8789  TIP3      H2             37.1358239362       45.0715667487       41.7878674299  TIP3      8389            0.0000000000
     75000      8790  TIP3      OH2            20.8647095636       46.9142395392       40.1834976335  TIP3      8390            0.0000000000
     75001      8790  TIP3      H1             21.4054960406       47.5430888709       40.7148359763  TIP3      8390            0.0000000000
     75002      8790  TIP3      H2             19.9759331940       47.2036624268       40.5483655565  TIP3      8390            0.0000000000
     75003      8791  TIP3      OH2            32.7410129840       50.9160940160       40.3631840042  TIP3      8391            0.0000000000
     75004      8791  TIP3      H1             33.0572930439       50.5458348950       41.1909355397  TIP3      8391            0.0000000000
     75005      8791  TIP3      H2             31.7741508396       50.8078256117       40.4657388756  TIP3      8391            0.0000000000
     75006      8792  TIP3      OH2            37.2150596384       55.3144349820       40.5899991102  TIP3      8392            0.0000000000
     75007      8792  TIP3      H1             37.9546015592       55.9431231090       40.4718202078  TIP3      8392            0.0000000000
     75008      8792  TIP3      H2             36.5216386843       55.9368918395       40.9068994518  TIP3      8392            0.0000000000
     75009      8793  TIP3      OH2            26.8329296165       52.0440632568       38.8176949981  TIP3      8393            0.0000000000
     75010      8793  TIP3      H1             27.0222323919       51.2608143775       38.2783393508  TIP3      8393            0.0000000000
     75011      8793  TIP3      H2             26.5100861513       51.6291982473       39.6511186388  TIP3      8393            0.0000000000
     75012      8794  TIP3      OH2            25.7199966100       51.5646722063       41.2709317236  TIP3      8394            0.0000000000
     75013      8794  TIP3      H1             25.8889260774       51.0699158467       42.0848872286  TIP3      8394            0.0000000000
     75014      8794  TIP3      H2             25.7620095024       52.4858305638       41.5955368729  TIP3      8394            0.0000000000
     75015      8795  TIP3      OH2            22.1333160823       48.8308138453       41.7371976402  TIP3      8395            0.0000000000
     75016      8795  TIP3      H1             21.4994325484       49.1749900627       42.3602507708  TIP3      8395            0.0000000000
     75017      8795  TIP3      H2             22.7287413663       49.5859829632       41.5448783778  TIP3      8395            0.0000000000
     75018      8796  TIP3      OH2            28.1054994773       52.9547970706       41.3788049527  TIP3      8396            0.0000000000
     75019      8796  TIP3      H1             27.6405040326       53.6277410301       41.9384796221  TIP3      8396            0.0000000000
     75020      8796  TIP3      H2             28.8684329410       53.6036538035       41.3252398716  TIP3      8396            0.0000000000
     75021      8797  TIP3      OH2            25.8437961112       54.3325563321       42.0327397189  TIP3      8397            0.0000000000
     75022      8797  TIP3      H1             25.9501978324       55.1278097958       41.4891967393  TIP3      8397            0.0000000000
     75023      8797  TIP3      H2             25.6108709460       54.6586400302       42.8994168091  TIP3      8397            0.0000000000
     75024      8798  TIP3      OH2            24.4281767557       40.8880266895       41.4381623055  TIP3      8398            0.0000000000
     75025      8798  TIP3      H1             24.3477967798       41.7646875902       41.8532877626  TIP3      8398            0.0000000000
     75026      8798  TIP3      H2             25.3348967777       40.7472169325       41.8070834659  TIP3      8398            0.0000000000
     75027      8799  TIP3      OH2            22.7695539307       51.4603842122       40.6723946669  TIP3      8399            0.0000000000
     75028      8799  TIP3      H1             23.3996175532       52.1342633174       40.9599096227  TIP3      8399            0.0000000000
     75029      8799  TIP3      H2             23.2924949068       51.0048723851       39.9866591323  TIP3      8399            0.0000000000
     75030      8800  TIP3      OH2            21.1172410641       44.1120579849       39.7969957725  TIP3      8400            0.0000000000
     75031      8800  TIP3      H1             21.0776745437       45.0710052703       40.0006188094  TIP3      8400            0.0000000000
     75032      8800  TIP3      H2             20.2214276547       43.9024004166       39.5354119209  TIP3      8400            0.0000000000
     75033      8801  TIP3      OH2            28.8655049530       53.9012293500       38.9555883153  TIP3      8401            0.0000000000
     75034      8801  TIP3      H1             28.1982451835       53.2370875377       39.2605059935  TIP3      8401            0.0000000000
     75035      8801  TIP3      H2             29.6047520191       53.3269800880       38.7198471536  TIP3      8401            0.0000000000
     75036      8802  TIP3      OH2            33.4451595866       53.6780163832       39.1595813793  TIP3      8402            0.0000000000
     75037      8802  TIP3      H1             33.7340007047       52.8958023594       39.6537350394  TIP3      8402            0.0000000000
     75038      8802  TIP3      H2             34.2121801394       53.9020118889       38.6210206976  TIP3      8402            0.0000000000
     75039      8803  TIP3      OH2            24.3437784249       49.5876446242       39.0195578695  TIP3      8403            0.0000000000
     75040      8803  TIP3      H1             24.4875853430       48.8121489233       39.5873696663  TIP3      8403            0.0000000000
     75041      8803  TIP3      H2             25.0784455853       49.4827228480       38.3778571318  TIP3      8403            0.0000000000
     75042      8804  TIP3      OH2            29.7837410189       50.6775616681       38.7898613136  TIP3      8404            0.0000000000
     75043      8804  TIP3      H1             29.4865072569       50.8106809926       39.7025339602  TIP3      8404            0.0000000000
     75044      8804  TIP3      H2             29.5501329857       49.7248392435       38.6410215855  TIP3      8404            0.0000000000
     75045      8805  TIP3      OH2            25.5498398027       47.5789002100       41.3544032716  TIP3      8405            0.0000000000
     75046      8805  TIP3      H1             25.0824711192       47.0770836346       42.0361679912  TIP3      8405            0.0000000000
     75047      8805  TIP3      H2             25.8159720860       46.8965849099       40.7072201065  TIP3      8405            0.0000000000
     75048      8806  TIP3      OH2            26.6136717532       45.8103234196       39.6151053534  TIP3      8406            0.0000000000
     75049      8806  TIP3      H1             26.4474975057       45.6808279762       38.6608902186  TIP3      8406            0.0000000000
     75050      8806  TIP3      H2             27.5860666072       45.9145520562       39.6702174704  TIP3      8406            0.0000000000
     75051      8807  TIP3      OH2            35.9870033864       48.1708553561       39.0922633835  TIP3      8407            0.0000000000
     75052      8807  TIP3      H1             35.7531199821       47.7638121285       38.2365255231  TIP3      8407            0.0000000000
     75053      8807  TIP3      H2             36.0490295539       49.1223136431       38.8376796462  TIP3      8407            0.0000000000
     75054      8808  TIP3      OH2            20.0541452682       51.1697560498       40.0939077005  TIP3      8408            0.0000000000
     75055      8808  TIP3      H1             20.9990346626       51.2185982349       40.3790194330  TIP3      8408            0.0000000000
     75056      8808  TIP3      H2             20.0908707057       50.4364635632       39.4541453899  TIP3      8408            0.0000000000
     75057      8809  TIP3      OH2            37.1911985898       46.9414206752       41.1821029157  TIP3      8409            0.0000000000
     75058      8809  TIP3      H1             36.6281470086       47.3449579346       40.4879766688  TIP3      8409            0.0000000000
     75059      8809  TIP3      H2             37.1354408793       47.6193382464       41.9078725777  TIP3      8409            0.0000000000
     75060      8810  TIP3      OH2            35.4957771609       44.2428678404       39.8164263492  TIP3      8410            0.0000000000
     75061      8810  TIP3      H1             35.5804671239       44.8884691001       39.1061561817  TIP3      8410            0.0000000000
     75062      8810  TIP3      H2             35.3366101829       43.4079209095       39.3230965916  TIP3      8410            0.0000000000
     75063      8811  TIP3      OH2            34.7406568980       41.6557142280       38.9203675565  TIP3      8411            0.0000000000
     75064      8811  TIP3      H1             35.3435262179       41.2532933068       39.5678604637  TIP3      8411            0.0000000000
     75065      8811  TIP3      H2             33.8913183301       41.2294944688       39.1250135714  TIP3      8411            0.0000000000
     75066      8812  TIP3      OH2            36.8196911600       40.5286377025       40.4693566629  TIP3      8412            0.0000000000
     75067      8812  TIP3      H1             37.2541791256       39.7943254461       39.9858245663  TIP3      8412            0.0000000000
     75068      8812  TIP3      H2             37.5278114618       41.1888053556       40.5395023055  TIP3      8412            0.0000000000
     75069      8813  TIP3      OH2            20.4059631188       38.5664742033       41.5535993137  TIP3      8413            0.0000000000
     75070      8813  TIP3      H1             20.8546932601       39.2079106667       40.9864907306  TIP3      8413            0.0000000000
     75071      8813  TIP3      H2             19.7877180434       39.1230313321       42.0273513011  TIP3      8413            0.0000000000
     75072      8814  TIP3      OH2            22.2334489930       40.4990694792       40.0034145871  TIP3      8414            0.0000000000
     75073      8814  TIP3      H1             22.7462089363       39.8581325067       39.4827063805  TIP3      8414            0.0000000000
     75074      8814  TIP3      H2             22.8814490518       40.7809808426       40.6838563805  TIP3      8414            0.0000000000
     75075      8815  TIP3      OH2            29.1374268889       55.7586709459       40.8721128308  TIP3      8415            0.0000000000
     75076      8815  TIP3      H1             30.0317557340       56.0766075124       40.6821312286  TIP3      8415            0.0000000000
     75077      8815  TIP3      H2             28.9259984424       55.2893463772       40.0415532034  TIP3      8415            0.0000000000
     75078      8816  TIP3      OH2            22.1031483070       55.4518518748       39.4926142406  TIP3      8416            0.0000000000
     75079      8816  TIP3      H1             21.8374693826       55.7213374417       40.3856436645  TIP3      8416            0.0000000000
     75080      8816  TIP3      H2             22.8852804633       54.8899968537       39.6496528730  TIP3      8416            0.0000000000
     75081      8817  TIP3      OH2            48.2465661783       45.6580317538       40.1869386340  TIP3      8417            0.0000000000
     75082      8817  TIP3      H1             48.9713236195       45.6776420352       40.8538144824  TIP3      8417            0.0000000000
     75083      8817  TIP3      H2             48.5906168848       44.9978623185       39.5755703796  TIP3      8417            0.0000000000
     75084      8818  TIP3      OH2            50.4514168301       46.4603965573       41.7184991829  TIP3      8418            0.0000000000
     75085      8818  TIP3      H1             50.9761936277       46.6779735446       42.5362813573  TIP3      8418            0.0000000000
     75086      8818  TIP3      H2             50.8831233102       47.0251085778       41.0516000538  TIP3      8418            0.0000000000
     75087      8819  TIP3      OH2            54.1998286707       38.3061621956       41.6628868066  TIP3      8419            0.0000000000
     75088      8819  TIP3      H1             53.2807210600       38.4325323321       41.9130692029  TIP3      8419            0.0000000000
     75089      8819  TIP3      H2             54.4488259243       39.1400546500       41.2395643297  TIP3      8419            0.0000000000
     75090      8820  TIP3      OH2            55.3481372333       52.6778476727       39.9621403846  TIP3      8420            0.0000000000
     75091      8820  TIP3      H1             55.4797985362       53.6155924586       40.1782508682  TIP3      8420            0.0000000000
     75092      8820  TIP3      H2             56.2801725284       52.3514317921       39.9825754497  TIP3      8420            0.0000000000
     75093      8821  TIP3      OH2            50.7717250618       55.3997579106       40.6712783114  TIP3      8421            0.0000000000
     75094      8821  TIP3      H1             51.1864744102       54.6387236768       40.2051029330  TIP3      8421            0.0000000000
     75095      8821  TIP3      H2             50.8255201853       55.1219893082       41.5992634281  TIP3      8421            0.0000000000
     75096      8822  TIP3      OH2            51.9765448406       47.5697602009       39.5024911346  TIP3      8422            0.0000000000
     75097      8822  TIP3      H1             51.9910859857       47.3750362121       38.5254003840  TIP3      8422            0.0000000000
     75098      8822  TIP3      H2             52.8303020091       48.0069309983       39.6090405843  TIP3      8422            0.0000000000
     75099      8823  TIP3      OH2            47.5528869922       41.4688645084       40.1042365935  TIP3      8423            0.0000000000
     75100      8823  TIP3      H1             47.2835958137       41.4806050583       41.0325731826  TIP3      8423            0.0000000000
     75101      8823  TIP3      H2             47.2778943223       40.5883940837       39.8024295605  TIP3      8423            0.0000000000
     75102      8824  TIP3      OH2            44.4211570228       41.8933500883       39.2105555301  TIP3      8424            0.0000000000
     75103      8824  TIP3      H1             43.9665066130       41.4655100113       39.9619206576  TIP3      8424            0.0000000000
     75104      8824  TIP3      H2             43.6970655954       42.2836716601       38.7004990414  TIP3      8424            0.0000000000
     75105      8825  TIP3      OH2            38.9261898680       42.3109529090       41.6453569643  TIP3      8425            0.0000000000
     75106      8825  TIP3      H1             39.4269388883       42.9727732855       41.1194409407  TIP3      8425            0.0000000000
     75107      8825  TIP3      H2             38.2404545461       42.9149198112       42.0190767165  TIP3      8425            0.0000000000
     75108      8826  TIP3      OH2            43.0558727131       44.6555455257       40.6257934918  TIP3      8426            0.0000000000
     75109      8826  TIP3      H1             42.5098153785       44.3008125776       39.8989769716  TIP3      8426            0.0000000000
     75110      8826  TIP3      H2             43.8757077877       44.8773983803       40.1579866341  TIP3      8426            0.0000000000
     75111      8827  TIP3      OH2            50.2735977092       42.0469941677       40.7023017847  TIP3      8427            0.0000000000
     75112      8827  TIP3      H1             49.3197104389       42.1757441108       40.5938988531  TIP3      8427            0.0000000000
     75113      8827  TIP3      H2             50.5790735781       42.9005051151       41.0734356189  TIP3      8427            0.0000000000
     75114      8828  TIP3      OH2            50.9917427313       43.9416178423       42.3835352631  TIP3      8428            0.0000000000
     75115      8828  TIP3      H1             51.8907799839       43.7925484426       42.6958824730  TIP3      8428            0.0000000000
     75116      8828  TIP3      H2             51.0527337880       44.7400546823       41.8423319615  TIP3      8428            0.0000000000
     75117      8829  TIP3      OH2            48.5317950373       50.6822415489       41.5665330176  TIP3      8429            0.0000000000
     75118      8829  TIP3      H1             48.1903571724       51.5143911940       41.9219067077  TIP3      8429            0.0000000000
     75119      8829  TIP3      H2             47.8044581404       50.0762613212       41.7686469208  TIP3      8429            0.0000000000
     75120      8830  TIP3      OH2            55.9708332547       44.1602298895       42.0231512143  TIP3      8430            0.0000000000
     75121      8830  TIP3      H1             55.3357818445       43.7628809087       41.3796925039  TIP3      8430            0.0000000000
     75122      8830  TIP3      H2             55.9953739791       45.0948652520       41.7681518885  TIP3      8430            0.0000000000
     75123      8831  TIP3      OH2            39.6460535375       46.9211730282       40.2679063297  TIP3      8431            0.0000000000
     75124      8831  TIP3      H1             40.2576566286       47.5499160557       40.7093118046  TIP3      8431            0.0000000000
     75125      8831  TIP3      H2             38.7731615963       47.2292394444       40.5676907816  TIP3      8431            0.0000000000
     75126      8832  TIP3      OH2            51.5830365075       50.9185396252       40.3631226014  TIP3      8432            0.0000000000
     75127      8832  TIP3      H1             51.9047970434       50.5453469930       41.1879535597  TIP3      8432            0.0000000000
     75128      8832  TIP3      H2             50.6206495901       50.8007835211       40.4620086079  TIP3      8432            0.0000000000
     75129      8833  TIP3      OH2            56.0532113886       55.3443701057       40.5265048533  TIP3      8433            0.0000000000
     75130      8833  TIP3      H1             56.8252703636       55.9435260390       40.4870889688  TIP3      8433            0.0000000000
     75131      8833  TIP3      H2             55.3752307565       55.9303146592       40.9319501725  TIP3      8433            0.0000000000
     75132      8834  TIP3      OH2            45.6875002246       52.0454669082       38.8167936804  TIP3      8434            0.0000000000
     75133      8834  TIP3      H1             45.8782426360       51.2627877126       38.2774727206  TIP3      8434            0.0000000000
     75134      8834  TIP3      H2             45.3669944507       51.6279944860       39.6512496635  TIP3      8434            0.0000000000
     75135      8835  TIP3      OH2            44.5763493976       51.5645542401       41.2710786611  TIP3      8435            0.0000000000
     75136      8835  TIP3      H1             44.7448454262       51.0696419859       42.0847413640  TIP3      8435            0.0000000000
     75137      8835  TIP3      H2             44.6184542499       52.4849375332       41.5967776929  TIP3      8435            0.0000000000
     75138      8836  TIP3      OH2            40.9726566416       48.8292071226       41.7299898152  TIP3      8436            0.0000000000
     75139      8836  TIP3      H1             40.3653110247       49.1825068796       42.3697420122  TIP3      8436            0.0000000000
     75140      8836  TIP3      H2             41.5803491044       49.5795526738       41.5455655161  TIP3      8436            0.0000000000
     75141      8837  TIP3      OH2            46.9594929219       52.9633662773       41.3716012083  TIP3      8437            0.0000000000
     75142      8837  TIP3      H1             46.4970778057       53.6253144130       41.9437886249  TIP3      8437            0.0000000000
     75143      8837  TIP3      H2             47.7283623423       53.6027148447       41.3307364977  TIP3      8437            0.0000000000
     75144      8838  TIP3      OH2            44.6995758128       54.3329638532       42.0314561528  TIP3      8438            0.0000000000
     75145      8838  TIP3      H1             44.8064204999       55.1287049361       41.4874702651  TIP3      8438            0.0000000000
     75146      8838  TIP3      H2             44.4668755748       54.6583925976       42.8987377004  TIP3      8438            0.0000000000
     75147      8839  TIP3      OH2            43.2843627350       40.8879725410       41.4379992996  TIP3      8439            0.0000000000
     75148      8839  TIP3      H1             43.2038953466       41.7645575122       41.8532187388  TIP3      8439            0.0000000000
     75149      8839  TIP3      H2             44.1910528748       40.7471631886       41.8070612679  TIP3      8439            0.0000000000
     75150      8840  TIP3      OH2            41.6272885351       51.4521665436       40.6855827290  TIP3      8440            0.0000000000
     75151      8840  TIP3      H1             42.2544342259       52.1342516131       40.9609438855  TIP3      8440            0.0000000000
     75152      8840  TIP3      H2             42.1446331760       51.0092246855       39.9828768219  TIP3      8440            0.0000000000
     75153      8841  TIP3      OH2            39.9692911054       44.1156107700       39.8008577546  TIP3      8441            0.0000000000
     75154      8841  TIP3      H1             39.9391862977       45.0712807308       39.9999753550  TIP3      8441            0.0000000000
     75155      8841  TIP3      H2             39.0805166783       43.8968320272       39.5305495932  TIP3      8441            0.0000000000
     75156      8842  TIP3      OH2            47.7226188537       53.9012818939       38.9572666449  TIP3      8442            0.0000000000
     75157      8842  TIP3      H1             47.0552692978       53.2368275625       39.2613745611  TIP3      8442            0.0000000000
     75158      8842  TIP3      H2             48.4619430780       53.3275952305       38.7208832862  TIP3      8442            0.0000000000
     75159      8843  TIP3      OH2            52.2869741535       53.6799819668       39.1611195889  TIP3      8443            0.0000000000
     75160      8843  TIP3      H1             52.5839831665       52.8955534422       39.6514202642  TIP3      8443            0.0000000000
     75161      8843  TIP3      H2             53.0642286446       53.8976928886       38.6205879530  TIP3      8443            0.0000000000
     75162      8844  TIP3      OH2            43.2122459391       49.5943655960       39.0314106742  TIP3      8444            0.0000000000
     75163      8844  TIP3      H1             43.3407250338       48.8091955949       39.5836079074  TIP3      8444            0.0000000000
     75164      8844  TIP3      H2             43.9280416402       49.4813874995       38.3725953355  TIP3      8444            0.0000000000
     75165      8845  TIP3      OH2            48.6397167493       50.6773910637       38.7897572924  TIP3      8445            0.0000000000
     75166      8845  TIP3      H1             48.3424390927       50.8107108247       39.7024729590  TIP3      8445            0.0000000000
     75167      8845  TIP3      H2             48.4060193840       49.7247069299       38.6411368150  TIP3      8445            0.0000000000
     75168      8846  TIP3      OH2            44.4071961797       47.5763366481       41.3530466202  TIP3      8446            0.0000000000
     75169      8846  TIP3      H1             43.9385716767       47.0769220481       42.0359065006  TIP3      8446            0.0000000000
     75170      8846  TIP3      H2             44.6723370303       46.8953494877       40.7063423011  TIP3      8446            0.0000000000
     75171      8847  TIP3      OH2            45.4700172112       45.8100488665       39.6141995450  TIP3      8447            0.0000000000
     75172      8847  TIP3      H1             45.3096056755       45.6795668578       38.6592342000  TIP3      8447            0.0000000000
     75173      8847  TIP3      H2             46.4421364744       45.9146945098       39.6708166495  TIP3      8447            0.0000000000
     75174      8848  TIP3      OH2            54.8481031105       48.1806484691       39.0986460619  TIP3      8448            0.0000000000
     75175      8848  TIP3      H1             54.6014520546       47.7701231406       38.2456569411  TIP3      8448            0.0000000000
     75176      8848  TIP3      H2             54.9001181309       49.1281207076       38.8417399017  TIP3      8448            0.0000000000
     75177      8849  TIP3      OH2            38.8994835343       51.1456580645       40.1220235841  TIP3      8449            0.0000000000
     75178      8849  TIP3      H1             39.8530027244       51.2164525012       40.3686373113  TIP3      8449            0.0000000000
     75179      8849  TIP3      H2             38.9491434755       50.4500767684       39.4326984458  TIP3      8449            0.0000000000
     75180      8850  TIP3      OH2            55.9753818968       46.9185870209       41.2019891264  TIP3      8450            0.0000000000
     75181      8850  TIP3      H1             55.4779529443       47.3485782292       40.4763353991  TIP3      8450            0.0000000000
     75182      8850  TIP3      H2             55.9892619642       47.6233658907       41.9072838472  TIP3      8450            0.0000000000
     75183      8851  TIP3      OH2            54.3331197508       44.2543559496       39.8106557212  TIP3      8451            0.0000000000
     75184      8851  TIP3      H1             54.4400861395       44.8880577915       39.0984825514  TIP3      8451            0.0000000000
     75185      8851  TIP3      H2             54.1875562183       43.4151173991       39.3205334929  TIP3      8451            0.0000000000
     75186      8852  TIP3      OH2            53.5794410984       41.6616374363       38.9226797596  TIP3      8452            0.0000000000
     75187      8852  TIP3      H1             54.1897623248       41.2592245732       39.5661678197  TIP3      8452            0.0000000000
     75188      8852  TIP3      H2             52.7367769989       41.2269750186       39.1235587642  TIP3      8452            0.0000000000
     75189      8853  TIP3      OH2            55.6743669565       40.5132247199       40.4596812444  TIP3      8453            0.0000000000
     75190      8853  TIP3      H1             56.1224571731       39.8057946555       39.9799425660  TIP3      8453            0.0000000000
     75191      8853  TIP3      H2             56.3828524175       41.1821440876       40.5513097556  TIP3      8453            0.0000000000
     75192      8854  TIP3      OH2            39.2623535175       38.5662898359       41.5532319510  TIP3      8454            0.0000000000
     75193      8854  TIP3      H1             39.7107563856       39.2079439937       40.9864278918  TIP3      8454            0.0000000000
     75194      8854  TIP3      H2             38.6437109148       39.1230998334       42.0275205018  TIP3      8454            0.0000000000
     75195      8855  TIP3      OH2            41.0893028224       40.4990366279       40.0036854886  TIP3      8455            0.0000000000
     75196      8855  TIP3      H1             41.6021550768       39.8582426970       39.4827243056  TIP3      8455            0.0000000000
     75197      8855  TIP3      H2             41.7373364545       40.7809279670       40.6840270375  TIP3      8455            0.0000000000
     75198      8856  TIP3      OH2            47.9940579497       55.7575167263       40.8731611904  TIP3      8456            0.0000000000
     75199      8856  TIP3      H1             48.8876310442       56.0775494731       40.6818877566  TIP3      8456            0.0000000000
     75200      8856  TIP3      H2             47.7850066263       55.2847062013       40.0441481750  TIP3      8456            0.0000000000
     75201      8857  TIP3      OH2            40.9563509085       55.4500053947       39.4949223259  TIP3      8457            0.0000000000
     75202      8857  TIP3      H1             40.6929239938       55.7218924508       40.3870191818  TIP3      8457            0.0000000000
     75203      8857  TIP3      H2             41.7401978378       54.8906818661       39.6504827791  TIP3      8457            0.0000000000
     75204      8858  TIP3      OH2           -44.7504830703      -46.3756386496      -35.6694849041  TIP3      8458            0.0000000000
     75205      8858  TIP3      H1            -44.7161749033      -45.3899615535      -35.7165227775  TIP3      8458            0.0000000000
     75206      8858  TIP3      H2            -45.4524794519      -46.6077087848      -36.2856576592  TIP3      8458            0.0000000000
     75207      8859  TIP3      OH2           -45.8764031241      -47.1032932829      -32.1911213589  TIP3      8459            0.0000000000
     75208      8859  TIP3      H1            -45.8883977145      -47.7510619387      -31.4902866983  TIP3      8459            0.0000000000
     75209      8859  TIP3      H2            -46.1854872740      -47.5750592801      -32.9736585509  TIP3      8459            0.0000000000
     75210      8860  TIP3      OH2           -53.5105232589      -47.4437689307      -30.6314567767  TIP3      8460            0.0000000000
     75211      8860  TIP3      H1            -53.4323777669      -48.1087743624      -29.9116274236  TIP3      8460            0.0000000000
     75212      8860  TIP3      H2            -52.7690629556      -46.8645058117      -30.4281132104  TIP3      8460            0.0000000000
     75213      8861  TIP3      OH2           -41.7440720806      -44.2328860111      -33.9505515777  TIP3      8461            0.0000000000
     75214      8861  TIP3      H1            -42.4755185600      -44.7903507218      -33.5657513732  TIP3      8461            0.0000000000
     75215      8861  TIP3      H2            -42.1116315747      -43.5062279217      -33.3809767059  TIP3      8461            0.0000000000
     75216      8862  TIP3      OH2           -52.5811938816      -43.0087919289      -32.0509891538  TIP3      8462            0.0000000000
     75217      8862  TIP3      H1            -52.9140352684      -43.8365460948      -32.4643713100  TIP3      8462            0.0000000000
     75218      8862  TIP3      H2            -51.6232940480      -43.1958600342      -32.0750424691  TIP3      8462            0.0000000000
     75219      8863  TIP3      OH2           -55.8979205419      -49.4728435973      -36.6701873190  TIP3      8463            0.0000000000
     75220      8863  TIP3      H1            -56.3449910929      -48.5721077756      -36.7115970939  TIP3      8463            0.0000000000
     75221      8863  TIP3      H2            -56.5178443592      -49.9521052719      -37.2175356328  TIP3      8463            0.0000000000
     75222      8864  TIP3      OH2           -55.2204474794      -47.1867642408      -34.5188178415  TIP3      8464            0.0000000000
     75223      8864  TIP3      H1            -55.0102481290      -48.0061789451      -34.0488020051  TIP3      8464            0.0000000000
     75224      8864  TIP3      H2            -54.5151459960      -47.1113642492      -35.1755687705  TIP3      8464            0.0000000000
     75225      8865  TIP3      OH2           -45.0497168065      -39.0135532826      -33.6854612085  TIP3      8465            0.0000000000
     75226      8865  TIP3      H1            -44.4147500109      -39.7294413162      -33.9578340255  TIP3      8465            0.0000000000
     75227      8865  TIP3      H2            -45.2531533305      -39.2990049559      -32.7937260076  TIP3      8465            0.0000000000
     75228      8866  TIP3      OH2           -47.5019374696      -44.6873890215      -31.7594482695  TIP3      8466            0.0000000000
     75229      8866  TIP3      H1            -47.1351457243      -45.3262707022      -32.3963961173  TIP3      8466            0.0000000000
     75230      8866  TIP3      H2            -46.7038916980      -44.5378743492      -31.2145957381  TIP3      8466            0.0000000000
     75231      8867  TIP3      OH2           -38.8354997955      -53.0714388608      -30.9688217929  TIP3      8467            0.0000000000
     75232      8867  TIP3      H1            -38.7333566576      -52.4471677250      -30.2130784619  TIP3      8467            0.0000000000
     75233      8867  TIP3      H2            -38.3555267357      -52.5975548309      -31.6626332730  TIP3      8467            0.0000000000
     75234      8868  TIP3      OH2           -44.3293289322      -50.2445497333      -31.4360302614  TIP3      8468            0.0000000000
     75235      8868  TIP3      H1            -44.1742171644      -51.2081178919      -31.4445710848  TIP3      8468            0.0000000000
     75236      8868  TIP3      H2            -44.4310112752      -50.0783620547      -32.3965563285  TIP3      8468            0.0000000000
     75237      8869  TIP3      OH2           -51.1803955273      -52.1598443771      -34.1876307661  TIP3      8469            0.0000000000
     75238      8869  TIP3      H1            -51.1191977932      -51.3031474718      -34.6467719005  TIP3      8469            0.0000000000
     75239      8869  TIP3      H2            -51.6179313223      -52.7234074002      -34.8626336197  TIP3      8469            0.0000000000
     75240      8870  TIP3      OH2           -43.4600538539      -52.0467381032      -35.8179455792  TIP3      8470            0.0000000000
     75241      8870  TIP3      H1            -42.8025744734      -52.3653686021      -35.1587951898  TIP3      8470            0.0000000000
     75242      8870  TIP3      H2            -42.9211548666      -51.4906733620      -36.4015837322  TIP3      8470            0.0000000000
     75243      8871  TIP3      OH2           -54.5735004262      -49.7467788075      -33.4485633556  TIP3      8471            0.0000000000
     75244      8871  TIP3      H1            -53.8971168873      -50.3088997411      -33.0113783520  TIP3      8471            0.0000000000
     75245      8871  TIP3      H2            -54.5010600967      -50.0525649364      -34.3661529050  TIP3      8471            0.0000000000
     75246      8872  TIP3      OH2           -49.4070127215      -48.1903039429      -34.1903112132  TIP3      8472            0.0000000000
     75247      8872  TIP3      H1            -48.7689270069      -48.7591605469      -33.7268309671  TIP3      8472            0.0000000000
     75248      8872  TIP3      H2            -49.9666299099      -48.8581094515      -34.6365240777  TIP3      8472            0.0000000000
     75249      8873  TIP3      OH2           -38.4104252219      -51.6044749453      -28.7222800313  TIP3      8473            0.0000000000
     75250      8873  TIP3      H1            -39.0928705301      -50.9057695902      -28.8081381533  TIP3      8473            0.0000000000
     75251      8873  TIP3      H2            -38.4057244394      -51.7656997651      -27.7687866004  TIP3      8473            0.0000000000
     75252      8874  TIP3      OH2           -52.3351052388      -53.2680878811      -30.1426947090  TIP3      8474            0.0000000000
     75253      8874  TIP3      H1            -52.5839427523      -52.6980553178      -30.8980872086  TIP3      8474            0.0000000000
     75254      8874  TIP3      H2            -53.0118059866      -53.0016507692      -29.4688674474  TIP3      8474            0.0000000000
     75255      8875  TIP3      OH2           -44.9800681725      -43.7557826623      -36.6127200342  TIP3      8475            0.0000000000
     75256      8875  TIP3      H1            -45.3091782702      -44.0628420982      -37.4535165133  TIP3      8475            0.0000000000
     75257      8875  TIP3      H2            -45.3194936689      -42.8360799328      -36.5319530831  TIP3      8475            0.0000000000
     75258      8876  TIP3      OH2           -49.7857658686      -45.5920506373      -29.8670723366  TIP3      8476            0.0000000000
     75259      8876  TIP3      H1            -50.5150125035      -44.9647343121      -29.7224344518  TIP3      8476            0.0000000000
     75260      8876  TIP3      H2            -49.0702808654      -45.0130420608      -30.1793324503  TIP3      8476            0.0000000000
     75261      8877  TIP3      OH2           -41.6614107498      -52.7438440733      -33.8498097584  TIP3      8477            0.0000000000
     75262      8877  TIP3      H1            -41.9023393249      -53.4863446536      -33.2818752106  TIP3      8477            0.0000000000
     75263      8877  TIP3      H2            -41.0194155909      -52.2684175744      -33.2913302198  TIP3      8477            0.0000000000
     75264      8878  TIP3      OH2           -52.7799055006      -51.3603433222      -32.1623892199  TIP3      8478            0.0000000000
     75265      8878  TIP3      H1            -52.1335554345      -50.7131280834      -31.8010570086  TIP3      8478            0.0000000000
     75266      8878  TIP3      H2            -52.2341901107      -51.8215349749      -32.8461696541  TIP3      8478            0.0000000000
     75267      8879  TIP3      OH2           -51.3498821134      -43.6259669806      -29.0686339866  TIP3      8479            0.0000000000
     75268      8879  TIP3      H1            -51.3211780639      -42.7359820277      -29.4627892446  TIP3      8479            0.0000000000
     75269      8879  TIP3      H2            -52.2146976359      -43.7762182615      -28.6254886627  TIP3      8479            0.0000000000
     75270      8880  TIP3      OH2           -55.1963693276      -43.9402544269      -38.2863310591  TIP3      8480            0.0000000000
     75271      8880  TIP3      H1            -55.5237836319      -43.6873239497      -39.1704001587  TIP3      8480            0.0000000000
     75272      8880  TIP3      H2            -55.2116564658      -43.1017616910      -37.7919620984  TIP3      8480            0.0000000000
     75273      8881  TIP3      OH2           -41.6172359721      -42.3117692663      -31.5164664295  TIP3      8481            0.0000000000
     75274      8881  TIP3      H1            -42.6029432912      -42.2574216633      -31.4315815039  TIP3      8481            0.0000000000
     75275      8881  TIP3      H2            -41.3797015529      -41.3950645612      -31.7240029362  TIP3      8481            0.0000000000
     75276      8882  TIP3      OH2           -41.3195554005      -54.0405417364      -30.1267566592  TIP3      8482            0.0000000000
     75277      8882  TIP3      H1            -42.0615653452      -53.4236570828      -30.2019900661  TIP3      8482            0.0000000000
     75278      8882  TIP3      H2            -40.6358714474      -53.6224961971      -30.6706751709  TIP3      8482            0.0000000000
     75279      8883  TIP3      OH2           -48.3229656615      -55.9150976240      -32.6953406299  TIP3      8483            0.0000000000
     75280      8883  TIP3      H1            -48.4620418141      -56.8859764994      -32.7441718190  TIP3      8483            0.0000000000
     75281      8883  TIP3      H2            -49.2021984710      -55.6167251940      -32.4014694795  TIP3      8483            0.0000000000
     75282      8884  TIP3      OH2           -43.3950663073      -40.5262128160      -34.9412559164  TIP3      8484            0.0000000000
     75283      8884  TIP3      H1            -42.9619059701      -41.2556499737      -35.4283966322  TIP3      8484            0.0000000000
     75284      8884  TIP3      H2            -43.0212875714      -39.7317148524      -35.3559521502  TIP3      8484            0.0000000000
     75285      8885  TIP3      OH2           -42.1948223320      -42.6143584847      -36.4501756765  TIP3      8485            0.0000000000
     75286      8885  TIP3      H1            -42.4899474640      -43.3236653468      -37.0296523511  TIP3      8485            0.0000000000
     75287      8885  TIP3      H2            -42.1592969747      -43.0870866048      -35.5880905654  TIP3      8485            0.0000000000
     75288      8886  TIP3      OH2           -40.5487456088      -44.0441872410      -27.9404443366  TIP3      8486            0.0000000000
     75289      8886  TIP3      H1            -40.4115874574      -44.6629677877      -28.6915924474  TIP3      8486            0.0000000000
     75290      8886  TIP3      H2            -40.3699960875      -43.1779268368      -28.3368274561  TIP3      8486            0.0000000000
     75291      8887  TIP3      OH2           -46.0659862214      -47.1046447603      -38.1695160558  TIP3      8487            0.0000000000
     75292      8887  TIP3      H1            -46.7845455086      -46.5609622027      -38.5439592240  TIP3      8487            0.0000000000
     75293      8887  TIP3      H2            -45.3734275380      -47.0457667821      -38.8455761845  TIP3      8487            0.0000000000
     75294      8888  TIP3      OH2           -46.0091788002      -48.6036077902      -41.1332620579  TIP3      8488            0.0000000000
     75295      8888  TIP3      H1            -45.3080516625      -48.6340201258      -40.4728950088  TIP3      8488            0.0000000000
     75296      8888  TIP3      H2            -45.7107834103      -49.2675868949      -41.7706239706  TIP3      8488            0.0000000000
     75297      8889  TIP3      OH2           -38.6852794118      -47.7243318725      -29.8816978376  TIP3      8489            0.0000000000
     75298      8889  TIP3      H1            -39.3502156663      -47.0089544317      -29.8187533246  TIP3      8489            0.0000000000
     75299      8889  TIP3      H2            -38.2214145771      -47.4898610038      -30.7056818120  TIP3      8489            0.0000000000
     75300      8890  TIP3      OH2           -42.6530447819      -46.9013591474      -37.2572265398  TIP3      8490            0.0000000000
     75301      8890  TIP3      H1            -43.3848904245      -46.6612035215      -36.6302886636  TIP3      8490            0.0000000000
     75302      8890  TIP3      H2            -42.1903021787      -47.5941947675      -36.7439564426  TIP3      8490            0.0000000000
     75303      8891  TIP3      OH2           -42.7193879582      -48.7432710484      -28.1477583085  TIP3      8491            0.0000000000
     75304      8891  TIP3      H1            -42.6884076642      -47.9420723363      -27.5938060714  TIP3      8491            0.0000000000
     75305      8891  TIP3      H2            -43.3526315556      -48.4378104596      -28.8375265377  TIP3      8491            0.0000000000
     75306      8892  TIP3      OH2           -51.0171346591      -46.2457505072      -35.3358345084  TIP3      8492            0.0000000000
     75307      8892  TIP3      H1            -51.3455357648      -46.6438002730      -36.1767692465  TIP3      8492            0.0000000000
     75308      8892  TIP3      H2            -50.4101487557      -46.9449459274      -34.9988243206  TIP3      8492            0.0000000000
     75309      8893  TIP3      OH2           -49.6944527299      -42.8469258194      -32.6420671488  TIP3      8493            0.0000000000
     75310      8893  TIP3      H1            -49.7105232966      -43.4052841139      -33.4357935578  TIP3      8493            0.0000000000
     75311      8893  TIP3      H2            -48.8994417383      -43.2125024186      -32.1942568673  TIP3      8493            0.0000000000
     75312      8894  TIP3      OH2           -50.6665473279      -47.5069704865      -31.6983582393  TIP3      8494            0.0000000000
     75313      8894  TIP3      H1            -50.0937427333      -47.3807402132      -32.4780059934  TIP3      8494            0.0000000000
     75314      8894  TIP3      H2            -50.3104394594      -46.8518113486      -31.0678894206  TIP3      8494            0.0000000000
     75315      8895  TIP3      OH2           -44.3002869643      -41.9045944283      -30.9340710054  TIP3      8495            0.0000000000
     75316      8895  TIP3      H1            -44.5919420119      -41.3041799635      -30.2817094464  TIP3      8495            0.0000000000
     75317      8895  TIP3      H2            -44.5308221349      -42.8111837655      -30.5763967749  TIP3      8495            0.0000000000
     75318      8896  TIP3      OH2           -49.7511280269      -43.0868669742      -26.9782960177  TIP3      8496            0.0000000000
     75319      8896  TIP3      H1            -50.0972715326      -42.3131368740      -26.4994827831  TIP3      8496            0.0000000000
     75320      8896  TIP3      H2            -50.4093612581      -43.2717769139      -27.6777330524  TIP3      8496            0.0000000000
     75321      8897  TIP3      OH2           -43.7850996084      -47.7153667640      -39.5600001811  TIP3      8497            0.0000000000
     75322      8897  TIP3      H1            -43.2026266388      -47.5762648907      -38.7704443223  TIP3      8497            0.0000000000
     75323      8897  TIP3      H2            -43.3474940101      -47.2619730827      -40.2761500310  TIP3      8497            0.0000000000
     75324      8898  TIP3      OH2           -52.8160339946      -46.8895652504      -27.8050560546  TIP3      8498            0.0000000000
     75325      8898  TIP3      H1            -52.7805285939      -46.2527440966      -27.0622504746  TIP3      8498            0.0000000000
     75326      8898  TIP3      H2            -53.7445858449      -46.8056816372      -28.0702868769  TIP3      8498            0.0000000000
     75327      8899  TIP3      OH2           -46.0543422871      -40.9914388655      -36.1175511692  TIP3      8499            0.0000000000
     75328      8899  TIP3      H1            -45.5932554293      -40.6999584587      -35.3165129309  TIP3      8499            0.0000000000
     75329      8899  TIP3      H2            -46.6153804997      -40.2468695946      -36.3418189962  TIP3      8499            0.0000000000
     75330      8900  TIP3      OH2           -51.5236968781      -41.0478071628      -26.2372911596  TIP3      8500            0.0000000000
     75331      8900  TIP3      H1            -51.5025231172      -41.1345310881      -27.1861706083  TIP3      8500            0.0000000000
     75332      8900  TIP3      H2            -52.4536613536      -41.1384766500      -25.9606050570  TIP3      8500            0.0000000000
     75333      8901  TIP3      OH2           -40.0820835302      -55.9205274706      -39.6342119674  TIP3      8501            0.0000000000
     75334      8901  TIP3      H1            -41.0419767863      -55.8073271630      -39.5089572044  TIP3      8501            0.0000000000
     75335      8901  TIP3      H2            -39.8398576863      -55.1121664527      -40.1389984804  TIP3      8501            0.0000000000
     75336      8902  TIP3      OH2           -52.0046217163      -47.2086689726      -37.7382822216  TIP3      8502            0.0000000000
     75337      8902  TIP3      H1            -52.3176297456      -46.4312912590      -38.2507166438  TIP3      8502            0.0000000000
     75338      8902  TIP3      H2            -52.6883988692      -47.8616306588      -37.9287881461  TIP3      8502            0.0000000000
     75339      8903  TIP3      OH2           -38.9277167563      -41.6462210769      -41.3332285744  TIP3      8503            0.0000000000
     75340      8903  TIP3      H1            -38.8125866637      -40.6830740694      -41.1890088377  TIP3      8503            0.0000000000
     75341      8903  TIP3      H2            -37.9899830538      -41.9127568956      -41.4014539145  TIP3      8503            0.0000000000
     75342      8904  TIP3      OH2           -55.9134963021      -44.7997669842      -28.9018486157  TIP3      8504            0.0000000000
     75343      8904  TIP3      H1            -56.4169056128      -44.8696772052      -29.7399062345  TIP3      8504            0.0000000000
     75344      8904  TIP3      H2            -55.9049611537      -45.7460007202      -28.6350509479  TIP3      8504            0.0000000000
     75345      8905  TIP3      OH2           -56.1916489765      -42.0591377736      -32.0439031971  TIP3      8505            0.0000000000
     75346      8905  TIP3      H1            -55.2379240511      -42.1860676999      -32.0818527488  TIP3      8505            0.0000000000
     75347      8905  TIP3      H2            -56.2993537475      -41.2500891902      -31.5353534388  TIP3      8505            0.0000000000
     75348      8906  TIP3      OH2           -37.9601538959      -41.3701093179      -26.3852159375  TIP3      8506            0.0000000000
     75349      8906  TIP3      H1            -38.0535385698      -42.3336525433      -26.3930984947  TIP3      8506            0.0000000000
     75350      8906  TIP3      H2            -38.8211177183      -41.1208839011      -25.9602471152  TIP3      8506            0.0000000000
     75351      8907  TIP3      OH2           -46.9922386775      -41.8190583254      -27.5119007687  TIP3      8507            0.0000000000
     75352      8907  TIP3      H1            -46.9213331968      -40.9775856714      -27.0029269810  TIP3      8507            0.0000000000
     75353      8907  TIP3      H2            -47.8597494753      -42.1558932744      -27.2371688074  TIP3      8507            0.0000000000
     75354      8908  TIP3      OH2           -46.5825120750      -38.0661177415      -37.6898682052  TIP3      8508            0.0000000000
     75355      8908  TIP3      H1            -46.6567078643      -38.1559083080      -38.6563883054  TIP3      8508            0.0000000000
     75356      8908  TIP3      H2            -46.5484018540      -37.0984857438      -37.5600260273  TIP3      8508            0.0000000000
     75357      8909  TIP3      OH2           -52.9303484151      -39.2139551003      -35.9023602330  TIP3      8509            0.0000000000
     75358      8909  TIP3      H1            -52.7831086768      -39.6109463370      -35.0160963533  TIP3      8509            0.0000000000
     75359      8909  TIP3      H2            -53.7817989708      -39.6141919379      -36.1454305055  TIP3      8509            0.0000000000
     75360      8910  TIP3      OH2           -43.5106613225      -38.8663563189      -40.7167152541  TIP3      8510            0.0000000000
     75361      8910  TIP3      H1            -43.0863754022      -39.6329081607      -41.1547857278  TIP3      8510            0.0000000000
     75362      8910  TIP3      H2            -43.4727236280      -39.1450830825      -39.7781317106  TIP3      8510            0.0000000000
     75363      8911  TIP3      OH2           -43.8091845540      -38.9402813919      -37.9427664417  TIP3      8511            0.0000000000
     75364      8911  TIP3      H1            -44.7647124344      -38.8633810526      -37.7548326433  TIP3      8511            0.0000000000
     75365      8911  TIP3      H2            -43.5495440905      -39.6718543881      -37.3626993219  TIP3      8511            0.0000000000
     75366      8912  TIP3      OH2           -40.8102126171      -49.8886070970      -25.8971191073  TIP3      8512            0.0000000000
     75367      8912  TIP3      H1            -41.2561992904      -49.4189936722      -26.6159079987  TIP3      8512            0.0000000000
     75368      8912  TIP3      H2            -40.8005134224      -50.8077015014      -26.2025266039  TIP3      8512            0.0000000000
     75369      8913  TIP3      OH2           -53.7430289728      -43.6613723265      -27.8157076936  TIP3      8513            0.0000000000
     75370      8913  TIP3      H1            -53.5094018769      -43.9644347405      -26.9042487629  TIP3      8513            0.0000000000
     75371      8913  TIP3      H2            -54.6429419123      -43.9827461294      -28.0556885385  TIP3      8513            0.0000000000
     75372      8914  TIP3      OH2           -51.0186559753      -55.0101367822      -31.9487397536  TIP3      8514            0.0000000000
     75373      8914  TIP3      H1            -51.9282229239      -55.1171170590      -32.3145404947  TIP3      8514            0.0000000000
     75374      8914  TIP3      H2            -51.0986707599      -54.1726075193      -31.4658149874  TIP3      8514            0.0000000000
     75375      8915  TIP3      OH2           -46.3760073957      -55.3069819295      -28.5353632355  TIP3      8515            0.0000000000
     75376      8915  TIP3      H1            -45.9643536038      -55.7400553807      -27.7652512062  TIP3      8515            0.0000000000
     75377      8915  TIP3      H2            -47.3397226553      -55.4859356264      -28.4060710326  TIP3      8515            0.0000000000
     75378      8916  TIP3      OH2           -43.0638932977      -51.5511879167      -27.6857801814  TIP3      8516            0.0000000000
     75379      8916  TIP3      H1            -43.6047835031      -51.6965768708      -26.8732161719  TIP3      8516            0.0000000000
     75380      8916  TIP3      H2            -43.2289751874      -50.6236210837      -27.9188162216  TIP3      8516            0.0000000000
     75381      8917  TIP3      OH2           -42.1889441039      -46.7270869047      -41.8473043670  TIP3      8517            0.0000000000
     75382      8917  TIP3      H1            -42.2213647112      -46.9131046562      -42.8148112207  TIP3      8517            0.0000000000
     75383      8917  TIP3      H2            -41.3398829462      -46.2959025955      -41.7157927135  TIP3      8517            0.0000000000
     75384      8918  TIP3      OH2           -46.7169019701      -52.7937664572      -41.2399842175  TIP3      8518            0.0000000000
     75385      8918  TIP3      H1            -47.0002235825      -52.8229773509      -40.3079574837  TIP3      8518            0.0000000000
     75386      8918  TIP3      H2            -46.9930860759      -53.6725506153      -41.5285374890  TIP3      8518            0.0000000000
     75387      8919  TIP3      OH2           -50.9294867870      -50.0736924014      -30.7560463896  TIP3      8519            0.0000000000
     75388      8919  TIP3      H1            -51.6242285911      -50.0893194329      -30.0722313863  TIP3      8519            0.0000000000
     75389      8919  TIP3      H2            -50.9360922099      -49.1345668210      -31.0509535774  TIP3      8519            0.0000000000
     75390      8920  TIP3      OH2           -50.9526706568      -49.8710082750      -35.8543898549  TIP3      8520            0.0000000000
     75391      8920  TIP3      H1            -51.8764604646      -50.1833747550      -35.9594309678  TIP3      8520            0.0000000000
     75392      8920  TIP3      H2            -50.5360407883      -50.2249969117      -36.6634407903  TIP3      8520            0.0000000000
     75393      8921  TIP3      OH2           -45.4243687548      -49.4372481934      -37.0656074147  TIP3      8521            0.0000000000
     75394      8921  TIP3      H1            -45.8380806618      -48.6049848854      -37.3773231007  TIP3      8521            0.0000000000
     75395      8921  TIP3      H2            -44.7138289343      -49.5743256572      -37.7156034500  TIP3      8521            0.0000000000
     75396      8922  TIP3      OH2           -46.3325841615      -49.2304031834      -25.6106755514  TIP3      8522            0.0000000000
     75397      8922  TIP3      H1            -46.8934479948      -49.9748338034      -25.2751656026  TIP3      8522            0.0000000000
     75398      8922  TIP3      H2            -45.5108376024      -49.3633584806      -25.1081943076  TIP3      8522            0.0000000000
     75399      8923  TIP3      OH2           -44.4084763596      -49.9601475514      -34.2262968064  TIP3      8523            0.0000000000
     75400      8923  TIP3      H1            -44.6378601823      -49.3736674358      -34.9684098449  TIP3      8523            0.0000000000
     75401      8923  TIP3      H2            -44.2623102207      -50.8073597083      -34.6963549298  TIP3      8523            0.0000000000
     75402      8924  TIP3      OH2           -53.2369990127      -49.7589959653      -28.9685689491  TIP3      8524            0.0000000000
     75403      8924  TIP3      H1            -53.2393234910      -49.3645821557      -28.0798391257  TIP3      8524            0.0000000000
     75404      8924  TIP3      H2            -53.7092325285      -50.5913925903      -28.8247987528  TIP3      8524            0.0000000000
     75405      8925  TIP3      OH2           -49.7406183461      -52.2083444471      -41.8983620628  TIP3      8525            0.0000000000
     75406      8925  TIP3      H1            -50.2720364703      -52.8282307848      -41.3662145026  TIP3      8525            0.0000000000
     75407      8925  TIP3      H2            -50.4177668481      -51.9197293993      -42.5316847068  TIP3      8525            0.0000000000
     75408      8926  TIP3      OH2           -56.6055336114      -52.6347865658      -35.0572027268  TIP3      8526            0.0000000000
     75409      8926  TIP3      H1            -55.9425002063      -52.6676928905      -34.3464951168  TIP3      8526            0.0000000000
     75410      8926  TIP3      H2            -56.1643461064      -53.0479573794      -35.8240843853  TIP3      8526            0.0000000000
     75411      8927  TIP3      OH2           -55.3100699212      -51.9601360915      -39.6551319977  TIP3      8527            0.0000000000
     75412      8927  TIP3      H1            -54.8481149923      -51.3115443945      -40.2402910911  TIP3      8527            0.0000000000
     75413      8927  TIP3      H2            -56.0138439754      -51.3538557723      -39.3129168389  TIP3      8527            0.0000000000
     75414      8928  TIP3      OH2           -45.1721590597      -48.3455100357      -29.6051508263  TIP3      8528            0.0000000000
     75415      8928  TIP3      H1            -44.8246000192      -48.9990124740      -30.2396749971  TIP3      8528            0.0000000000
     75416      8928  TIP3      H2            -45.6228843883      -48.8897407612      -28.9405273612  TIP3      8528            0.0000000000
     75417      8929  TIP3      OH2           -48.3785112385      -52.4040016142      -34.8165926163  TIP3      8529            0.0000000000
     75418      8929  TIP3      H1            -49.3141932607      -52.3708497718      -34.5150987280  TIP3      8529            0.0000000000
     75419      8929  TIP3      H2            -47.8810114017      -52.5067949833      -33.9911687020  TIP3      8529            0.0000000000
     75420      8930  TIP3      OH2           -53.5651996881      -50.8091532977      -35.9509732132  TIP3      8530            0.0000000000
     75421      8930  TIP3      H1            -54.4583659401      -50.6820340456      -36.3322768439  TIP3      8530            0.0000000000
     75422      8930  TIP3      H2            -53.2734245211      -51.6495080086      -36.3351421350  TIP3      8530            0.0000000000
     75423      8931  TIP3      OH2           -49.9166175526      -50.7852649588      -38.3168983237  TIP3      8531            0.0000000000
     75424      8931  TIP3      H1            -48.9650342263      -50.6626261178      -38.1410564365  TIP3      8531            0.0000000000
     75425      8931  TIP3      H2            -50.1410104088      -50.1140731221      -38.9854099972  TIP3      8531            0.0000000000
     75426      8932  TIP3      OH2           -43.9636439257      -53.1646772068      -31.5678128864  TIP3      8532            0.0000000000
     75427      8932  TIP3      H1            -44.6641046673      -53.0600711154      -30.8836760061  TIP3      8532            0.0000000000
     75428      8932  TIP3      H2            -44.4738228437      -53.3646440382      -32.3598776144  TIP3      8532            0.0000000000
     75429      8933  TIP3      OH2           -51.2319213337      -49.5996878638      -40.7337766220  TIP3      8533            0.0000000000
     75430      8933  TIP3      H1            -51.7830923444      -49.9636816290      -41.4488654384  TIP3      8533            0.0000000000
     75431      8933  TIP3      H2            -50.3998347627      -49.3997935141      -41.1924372842  TIP3      8533            0.0000000000
     75432      8934  TIP3      OH2           -40.7421951807      -37.5094810482      -25.2549065607  TIP3      8534            0.0000000000
     75433      8934  TIP3      H1            -40.4864331785      -37.0980123128      -26.1008766963  TIP3      8534            0.0000000000
     75434      8934  TIP3      H2            -40.0371600493      -37.1780292661      -24.6630498458  TIP3      8534            0.0000000000
     75435      8935  TIP3      OH2           -53.0903221883      -45.0175922245      -25.6800717251  TIP3      8535            0.0000000000
     75436      8935  TIP3      H1            -52.3611928350      -44.7888925979      -25.0698457995  TIP3      8535            0.0000000000
     75437      8935  TIP3      H2            -53.8812941249      -44.8784288599      -25.1055295248  TIP3      8535            0.0000000000
     75438      8936  TIP3      OH2           -47.0868648460      -49.6251660145      -32.9204587904  TIP3      8536            0.0000000000
     75439      8936  TIP3      H1            -46.5025095952      -50.1716902589      -33.4613380542  TIP3      8536            0.0000000000
     75440      8936  TIP3      H2            -47.2250810478      -50.1620754731      -32.1295722942  TIP3      8536            0.0000000000
     75441      8937  TIP3      OH2           -52.0817910569      -53.4841930081      -36.4977973143  TIP3      8537            0.0000000000
     75442      8937  TIP3      H1            -52.3942622021      -54.4040154829      -36.5168983714  TIP3      8537            0.0000000000
     75443      8937  TIP3      H2            -51.2877456665      -53.5183650363      -37.0483048607  TIP3      8537            0.0000000000
     75444      8938  TIP3      OH2           -48.4496652482      -51.2617358318      -30.5125670209  TIP3      8538            0.0000000000
     75445      8938  TIP3      H1            -49.2863597420      -50.7728115239      -30.3990219952  TIP3      8538            0.0000000000
     75446      8938  TIP3      H2            -47.9080850403      -50.9580519570      -29.7579098378  TIP3      8538            0.0000000000
     75447      8939  TIP3      OH2           -47.8597490981      -45.0475603514      -38.8182570038  TIP3      8539            0.0000000000
     75448      8939  TIP3      H1            -48.6551354642      -45.5396122441      -39.1353825736  TIP3      8539            0.0000000000
     75449      8939  TIP3      H2            -48.0562825779      -44.9767815740      -37.8603497036  TIP3      8539            0.0000000000
     75450      8940  TIP3      OH2           -40.7140468364      -45.8985363095      -30.0084096609  TIP3      8540            0.0000000000
     75451      8940  TIP3      H1            -40.1230930063      -45.4161520919      -30.6106751444  TIP3      8540            0.0000000000
     75452      8940  TIP3      H2            -41.5687739274      -45.7901268333      -30.4960687834  TIP3      8540            0.0000000000
     75453      8941  TIP3      OH2           -43.9917574627      -52.2494769621      -40.6298175898  TIP3      8541            0.0000000000
     75454      8941  TIP3      H1            -44.9463480128      -52.1095589802      -40.7774229980  TIP3      8541            0.0000000000
     75455      8941  TIP3      H2            -43.7027642879      -51.3704936308      -40.3132085078  TIP3      8541            0.0000000000
     75456      8942  TIP3      OH2           -46.3827542774      -44.8387189764      -27.5745595193  TIP3      8542            0.0000000000
     75457      8942  TIP3      H1            -46.7218487745      -45.2300051699      -26.7653149385  TIP3      8542            0.0000000000
     75458      8942  TIP3      H2            -46.5947078222      -43.9015300667      -27.4970556479  TIP3      8542            0.0000000000
     75459      8943  TIP3      OH2           -43.2935086682      -50.3365219772      -38.9568259342  TIP3      8543            0.0000000000
     75460      8943  TIP3      H1            -42.3866981658      -50.4814951131      -38.6245204011  TIP3      8543            0.0000000000
     75461      8943  TIP3      H2            -43.2177854116      -49.5461723367      -39.4974578168  TIP3      8543            0.0000000000
     75462      8944  TIP3      OH2           -52.7593319599      -45.6890897933      -33.0161585709  TIP3      8544            0.0000000000
     75463      8944  TIP3      H1            -52.0481471009      -45.7458006681      -33.6792512598  TIP3      8544            0.0000000000
     75464      8944  TIP3      H2            -52.6984411509      -46.5595063171      -32.5779248176  TIP3      8544            0.0000000000
     75465      8945  TIP3      OH2           -45.7412731837      -43.5925607751      -39.7912957242  TIP3      8545            0.0000000000
     75466      8945  TIP3      H1            -46.0964610715      -42.7496176256      -39.4117244619  TIP3      8545            0.0000000000
     75467      8945  TIP3      H2            -46.4975553782      -44.1967720620      -39.5834382553  TIP3      8545            0.0000000000
     75468      8946  TIP3      OH2           -55.7813807720      -47.2454768095      -27.7302483219  TIP3      8546            0.0000000000
     75469      8946  TIP3      H1            -55.5501484335      -47.7007032236      -26.8962620687  TIP3      8546            0.0000000000
     75470      8946  TIP3      H2            -56.3570127769      -47.8900157390      -28.1817132103  TIP3      8546            0.0000000000
     75471      8947  TIP3      OH2           -48.7556090305      -47.7274859149      -25.5328360377  TIP3      8547            0.0000000000
     75472      8947  TIP3      H1            -49.0541541024      -47.9597677661      -26.4228401397  TIP3      8547            0.0000000000
     75473      8947  TIP3      H2            -47.8158559756      -47.9941507372      -25.5519792954  TIP3      8547            0.0000000000
     75474      8948  TIP3      OH2           -44.0976468403      -42.3845473287      -27.6297201640  TIP3      8548            0.0000000000
     75475      8948  TIP3      H1            -45.0191215106      -42.1998403997      -27.8843933847  TIP3      8548            0.0000000000
     75476      8948  TIP3      H2            -44.1062254478      -42.1044771793      -26.6960696016  TIP3      8548            0.0000000000
     75477      8949  TIP3      OH2           -38.3915431271      -50.1778141557      -39.2286220195  TIP3      8549            0.0000000000
     75478      8949  TIP3      H1            -38.9578152069      -50.5167092623      -39.9477313711  TIP3      8549            0.0000000000
     75479      8949  TIP3      H2            -38.3111727144      -49.2414121698      -39.5300544343  TIP3      8549            0.0000000000
     75480      8950  TIP3      OH2           -38.4157631141      -44.3413901839      -26.4032251948  TIP3      8550            0.0000000000
     75481      8950  TIP3      H1            -39.2971762440      -44.1090390616      -26.7890424763  TIP3      8550            0.0000000000
     75482      8950  TIP3      H2            -37.8500154980      -44.3633280528      -27.1986246633  TIP3      8550            0.0000000000
     75483      8951  TIP3      OH2           -40.1090304726      -41.3571414546      -38.8231480351  TIP3      8551            0.0000000000
     75484      8951  TIP3      H1            -40.4711989138      -42.1829275293      -38.4873583409  TIP3      8551            0.0000000000
     75485      8951  TIP3      H2            -39.8079796974      -41.5437877181      -39.7248000471  TIP3      8551            0.0000000000
     75486      8952  TIP3      OH2           -42.9084135546      -46.5816712448      -31.7093472593  TIP3      8552            0.0000000000
     75487      8952  TIP3      H1            -43.8630408191      -46.7508832091      -31.8333446580  TIP3      8552            0.0000000000
     75488      8952  TIP3      H2            -42.4861460456      -47.3281704203      -32.1447500680  TIP3      8552            0.0000000000
     75489      8953  TIP3      OH2           -50.3912447723      -42.2249199184      -35.6346577269  TIP3      8553            0.0000000000
     75490      8953  TIP3      H1            -49.8778536826      -41.4286118172      -35.8426422832  TIP3      8553            0.0000000000
     75491      8953  TIP3      H2            -51.2741772318      -41.9870890029      -35.9520935129  TIP3      8553            0.0000000000
     75492      8954  TIP3      OH2           -54.6019184286      -47.3542699766      -41.1088954327  TIP3      8554            0.0000000000
     75493      8954  TIP3      H1            -54.0126446128      -46.7251011017      -40.6708827600  TIP3      8554            0.0000000000
     75494      8954  TIP3      H2            -55.4887271987      -47.0666565313      -40.7779655431  TIP3      8554            0.0000000000
     75495      8955  TIP3      OH2           -48.9689647229      -44.5634460849      -36.0981131737  TIP3      8555            0.0000000000
     75496      8955  TIP3      H1            -49.2360649764      -43.6288200584      -36.0152810779  TIP3      8555            0.0000000000
     75497      8955  TIP3      H2            -49.7138323129      -45.0255254239      -35.6673431583  TIP3      8555            0.0000000000
     75498      8956  TIP3      OH2           -48.5076996869      -40.3933039635      -29.7265720261  TIP3      8556            0.0000000000
     75499      8956  TIP3      H1            -48.0773469470      -39.5567868050      -29.9886156757  TIP3      8556            0.0000000000
     75500      8956  TIP3      H2            -47.9046791578      -40.6991315582      -29.0193114734  TIP3      8556            0.0000000000
     75501      8957  TIP3      OH2           -50.2856159291      -39.5483592121      -36.5501536432  TIP3      8557            0.0000000000
     75502      8957  TIP3      H1            -51.2539757081      -39.4210944589      -36.4569265155  TIP3      8557            0.0000000000
     75503      8957  TIP3      H2            -49.9354461982      -38.7107276116      -36.1923995373  TIP3      8557            0.0000000000
     75504      8958  TIP3      OH2           -44.9448973758      -44.3220118964      -30.0244592738  TIP3      8558            0.0000000000
     75505      8958  TIP3      H1            -45.3402517788      -44.5599296674      -29.1841336211  TIP3      8558            0.0000000000
     75506      8958  TIP3      H2            -44.3404700071      -45.0465523809      -30.2646602004  TIP3      8558            0.0000000000
     75507      8959  TIP3      OH2           -42.6845655322      -43.0510913191      -40.8363711595  TIP3      8559            0.0000000000
     75508      8959  TIP3      H1            -42.3313385951      -43.6415245265      -40.1319052347  TIP3      8559            0.0000000000
     75509      8959  TIP3      H2            -43.6246751027      -43.3224787791      -40.8709678980  TIP3      8559            0.0000000000
     75510      8960  TIP3      OH2           -42.2223046180      -39.7682939706      -27.5660654124  TIP3      8560            0.0000000000
     75511      8960  TIP3      H1            -42.8637321616      -40.2983263350      -28.0786414474  TIP3      8560            0.0000000000
     75512      8960  TIP3      H2            -41.9843358530      -39.0864110180      -28.2302224372  TIP3      8560            0.0000000000
     75513      8961  TIP3      OH2           -38.1959158658      -38.9172022064      -40.7534515882  TIP3      8561            0.0000000000
     75514      8961  TIP3      H1            -37.4705731745      -38.2957536348      -40.9423215217  TIP3      8561            0.0000000000
     75515      8961  TIP3      H2            -38.9084091106      -38.3173762303      -40.4442272108  TIP3      8561            0.0000000000
     75516      8962  TIP3      OH2           -54.1276621894      -52.5434309635      -28.2201563371  TIP3      8562            0.0000000000
     75517      8962  TIP3      H1            -55.0289192267      -52.1890246788      -28.2279223278  TIP3      8562            0.0000000000
     75518      8962  TIP3      H2            -54.2240893185      -53.3855822248      -27.7475443091  TIP3      8562            0.0000000000
     75519      8963  TIP3      OH2           -41.8684990324      -44.7139159184      -38.8143343591  TIP3      8563            0.0000000000
     75520      8963  TIP3      H1            -42.1149880852      -45.4395339300      -38.1845758733  TIP3      8563            0.0000000000
     75521      8963  TIP3      H2            -40.9287261071      -44.5916652760      -38.5328370680  TIP3      8563            0.0000000000
     75522      8964  TIP3      OH2           -54.4558792833      -40.7232365106      -29.7567293614  TIP3      8564            0.0000000000
     75523      8964  TIP3      H1            -54.3100909011      -41.6627837589      -29.8106823532  TIP3      8564            0.0000000000
     75524      8964  TIP3      H2            -54.2647291952      -40.4139743422      -28.8616984812  TIP3      8564            0.0000000000
     75525      8965  TIP3      OH2           -49.7064008612      -42.6825516497      -40.0864847138  TIP3      8565            0.0000000000
     75526      8965  TIP3      H1            -49.5214452102      -43.2201692769      -39.2990323205  TIP3      8565            0.0000000000
     75527      8965  TIP3      H2            -49.6818514925      -41.7711981847      -39.7401126402  TIP3      8565            0.0000000000
     75528      8966  TIP3      OH2           -53.2292602902      -45.4474098070      -39.5688063005  TIP3      8566            0.0000000000
     75529      8966  TIP3      H1            -53.9281355176      -45.0734549899      -38.9911641145  TIP3      8566            0.0000000000
     75530      8966  TIP3      H2            -52.7035648018      -44.6693183889      -39.8165521050  TIP3      8566            0.0000000000
     75531      8967  TIP3      OH2           -45.3968252063      -52.7720167872      -29.2758992739  TIP3      8567            0.0000000000
     75532      8967  TIP3      H1            -44.6868835297      -52.7111644622      -28.6212471047  TIP3      8567            0.0000000000
     75533      8967  TIP3      H2            -45.7781509647      -53.6537643676      -29.0942401744  TIP3      8567            0.0000000000
     75534      8968  TIP3      OH2           -44.6050872988      -53.1717374461      -38.1639180966  TIP3      8568            0.0000000000
     75535      8968  TIP3      H1            -44.4002614020      -52.6695233617      -38.9858426701  TIP3      8568            0.0000000000
     75536      8968  TIP3      H2            -44.0572103028      -52.7222845145      -37.5154641733  TIP3      8568            0.0000000000
     75537      8969  TIP3      OH2           -46.9458864131      -41.0290658474      -39.3466246509  TIP3      8569            0.0000000000
     75538      8969  TIP3      H1            -47.7560745514      -40.4999128783      -39.2688651989  TIP3      8569            0.0000000000
     75539      8969  TIP3      H2            -46.4098916075      -40.5023430527      -39.9581197526  TIP3      8569            0.0000000000
     75540      8970  TIP3      OH2           -47.4174630466      -51.4188009980      -37.3488543876  TIP3      8570            0.0000000000
     75541      8970  TIP3      H1            -46.6061523757      -50.8798335667      -37.3107300841  TIP3      8570            0.0000000000
     75542      8970  TIP3      H2            -47.6673910952      -51.5516808269      -36.4211491298  TIP3      8570            0.0000000000
     75543      8971  TIP3      OH2           -46.8716952939      -50.4226126981      -28.1663373324  TIP3      8571            0.0000000000
     75544      8971  TIP3      H1            -46.7691807262      -49.8379006491      -27.3913137572  TIP3      8571            0.0000000000
     75545      8971  TIP3      H2            -46.2076213140      -51.1129435511      -28.0572690934  TIP3      8571            0.0000000000
     75546      8972  TIP3      OH2           -46.5437230165      -54.3345894956      -36.4255294607  TIP3      8572            0.0000000000
     75547      8972  TIP3      H1            -46.8809923243      -53.6992837945      -35.7769321952  TIP3      8572            0.0000000000
     75548      8972  TIP3      H2            -45.8687568369      -53.8004824382      -36.9004770366  TIP3      8572            0.0000000000
     75549      8973  TIP3      OH2           -49.6088835366      -39.9785364167      -39.3435927885  TIP3      8573            0.0000000000
     75550      8973  TIP3      H1            -49.4304865290      -39.1471930091      -39.8271154138  TIP3      8573            0.0000000000
     75551      8973  TIP3      H2            -49.8132170568      -39.6442333757      -38.4434986452  TIP3      8573            0.0000000000
     75552      8974  TIP3      OH2           -50.8931566917      -53.2703676304      -39.7372409675  TIP3      8574            0.0000000000
     75553      8974  TIP3      H1            -50.9523964672      -52.3597500279      -39.3770022538  TIP3      8574            0.0000000000
     75554      8974  TIP3      H2            -49.9826758507      -53.5054516064      -39.4704042218  TIP3      8574            0.0000000000
     75555      8975  TIP3      OH2           -40.6619740312      -52.5220000037      -27.3105275646  TIP3      8575            0.0000000000
     75556      8975  TIP3      H1            -41.6011043354      -52.2346263939      -27.4278936234  TIP3      8575            0.0000000000
     75557      8975  TIP3      H2            -40.3512675158      -52.5272967923      -28.2308278121  TIP3      8575            0.0000000000
     75558      8976  TIP3      OH2           -42.0633805327      -48.7611749042      -33.2669500838  TIP3      8576            0.0000000000
     75559      8976  TIP3      H1            -42.8871438340      -49.1801137658      -33.5647860117  TIP3      8576            0.0000000000
     75560      8976  TIP3      H2            -41.6075031743      -49.4579722192      -32.7484920667  TIP3      8576            0.0000000000
     75561      8977  TIP3      OH2           -52.6397937835      -42.8158609428      -40.6964995137  TIP3      8577            0.0000000000
     75562      8977  TIP3      H1            -52.0140357711      -42.1552561592      -40.3816297246  TIP3      8577            0.0000000000
     75563      8977  TIP3      H2            -52.1344051328      -43.2895988388      -41.3799757461  TIP3      8577            0.0000000000
     75564      8978  TIP3      OH2           -54.2839680948      -50.1644628086      -41.5127721948  TIP3      8578            0.0000000000
     75565      8978  TIP3      H1            -54.3298271257      -49.2021314222      -41.3736111028  TIP3      8578            0.0000000000
     75566      8978  TIP3      H2            -55.1658571201      -50.3846772418      -41.8415303745  TIP3      8578            0.0000000000
     75567      8979  TIP3      OH2           -40.9967573812      -39.4989914139      -31.6029797282  TIP3      8579            0.0000000000
     75568      8979  TIP3      H1            -41.1194505307      -38.8179916371      -32.2914406756  TIP3      8579            0.0000000000
     75569      8979  TIP3      H2            -40.0359531213      -39.4305317539      -31.4263601099  TIP3      8579            0.0000000000
     75570      8980  TIP3      OH2           -53.4954619298      -55.3299029149      -32.8604435164  TIP3      8580            0.0000000000
     75571      8980  TIP3      H1            -53.7130001783      -55.3291370402      -33.8167290907  TIP3      8580            0.0000000000
     75572      8980  TIP3      H2            -53.9163449998      -56.1748093457      -32.5858903271  TIP3      8580            0.0000000000
     75573      8981  TIP3      OH2           -54.5465553930      -41.4479646472      -36.6928180751  TIP3      8581            0.0000000000
     75574      8981  TIP3      H1            -55.3986538234      -40.9799358156      -36.7102289989  TIP3      8581            0.0000000000
     75575      8981  TIP3      H2            -54.0327211808      -40.9514722227      -37.3421278676  TIP3      8581            0.0000000000
     75576      8982  TIP3      OH2           -55.2579445341      -38.8423535826      -25.4219106788  TIP3      8582            0.0000000000
     75577      8982  TIP3      H1            -54.7287247871      -39.0283739405      -24.6267185864  TIP3      8582            0.0000000000
     75578      8982  TIP3      H2            -55.7705328065      -39.6376222215      -25.5577637673  TIP3      8582            0.0000000000
     75579      8983  TIP3      OH2           -50.6833862475      -39.9053333721      -23.7760181054  TIP3      8583            0.0000000000
     75580      8983  TIP3      H1            -49.9050028864      -40.3743927870      -23.4372301908  TIP3      8583            0.0000000000
     75581      8983  TIP3      H2            -50.6893385821      -40.1564147617      -24.7104258750  TIP3      8583            0.0000000000
     75582      8984  TIP3      OH2           -46.2604106980      -40.2590442975      -41.9084129404  TIP3      8584            0.0000000000
     75583      8984  TIP3      H1            -47.0538962441      -40.8426344570      -41.9524963883  TIP3      8584            0.0000000000
     75584      8984  TIP3      H2            -45.7781371306      -40.8131645030      -42.5191826667  TIP3      8584            0.0000000000
     75585      8985  TIP3      OH2           -44.1242002142      -41.5172782353      -25.0430699418  TIP3      8585            0.0000000000
     75586      8985  TIP3      H1            -44.4606487404      -42.3944991710      -24.7731802745  TIP3      8585            0.0000000000
     75587      8985  TIP3      H2            -43.3695713094      -41.3855999734      -24.4343656839  TIP3      8585            0.0000000000
     75588      8986  TIP3      OH2           -41.9847039777      -40.5985010787      -42.1811587465  TIP3      8586            0.0000000000
     75589      8986  TIP3      H1            -41.6916843179      -41.3857604499      -41.6922254495  TIP3      8586            0.0000000000
     75590      8986  TIP3      H2            -41.2154645850      -40.3609094062      -42.7175977443  TIP3      8586            0.0000000000
     75591      8987  TIP3      OH2           -55.3783918130      -45.0280207548      -24.3956129462  TIP3      8587            0.0000000000
     75592      8987  TIP3      H1            -55.2343135705      -45.9394029978      -24.7149458853  TIP3      8587            0.0000000000
     75593      8987  TIP3      H2            -56.1383504941      -44.7366256452      -24.9411086020  TIP3      8587            0.0000000000
     75594      8988  TIP3      OH2           -50.9948037103      -44.6185461429      -42.2636898050  TIP3      8588            0.0000000000
     75595      8988  TIP3      H1            -50.9567303138      -45.4580950178      -41.7772197809  TIP3      8588            0.0000000000
     75596      8988  TIP3      H2            -50.3923105668      -44.8392761702      -42.9943610983  TIP3      8588            0.0000000000
     75597      8989  TIP3      OH2           -48.7007929181      -45.0470480585      -24.9974903871  TIP3      8589            0.0000000000
     75598      8989  TIP3      H1            -49.0453568743      -44.7642294047      -25.8588296595  TIP3      8589            0.0000000000
     75599      8989  TIP3      H2            -48.5930606909      -46.0168625749      -25.0993944368  TIP3      8589            0.0000000000
     75600      8990  TIP3      OH2           -42.9940748935      -45.1669009239      -27.5906576944  TIP3      8590            0.0000000000
     75601      8990  TIP3      H1            -42.2334856365      -44.5584597128      -27.7239986541  TIP3      8590            0.0000000000
     75602      8990  TIP3      H2            -43.7276127879      -44.5355554758      -27.5781216107  TIP3      8590            0.0000000000
     75603      8991  TIP3      OH2           -54.5390213966      -47.8096207344      -25.0181442518  TIP3      8591            0.0000000000
     75604      8991  TIP3      H1            -54.1152679055      -48.6734149495      -25.1242207131  TIP3      8591            0.0000000000
     75605      8991  TIP3      H2            -54.7722436677      -47.7993922885      -24.0737425218  TIP3      8591            0.0000000000
     75606      8992  TIP3      OH2           -49.8762777920      -46.6665376183      -39.9808141819  TIP3      8592            0.0000000000
     75607      8992  TIP3      H1            -50.3505068772      -47.1906611104      -39.3137374912  TIP3      8592            0.0000000000
     75608      8992  TIP3      H2            -49.5986287206      -47.3686690329      -40.6167539257  TIP3      8592            0.0000000000
     75609      8993  TIP3      OH2           -50.5963464213      -48.8369465834      -27.6407819730  TIP3      8593            0.0000000000
     75610      8993  TIP3      H1            -51.2095692927      -48.1325212537      -27.3703901765  TIP3      8593            0.0000000000
     75611      8993  TIP3      H2            -50.2347843835      -48.4853013666      -28.4718249515  TIP3      8593            0.0000000000
     75612      8994  TIP3      OH2           -48.8132503565      -48.4521335129      -41.7344199252  TIP3      8594            0.0000000000
     75613      8994  TIP3      H1            -48.9666732109      -48.6231616735      -42.6714225285  TIP3      8594            0.0000000000
     75614      8994  TIP3      H2            -47.8366273304      -48.3584120520      -41.6700736278  TIP3      8594            0.0000000000
     75615      8995  TIP3      OH2           -45.5579741880      -46.3033872535      -24.3259411296  TIP3      8595            0.0000000000
     75616      8995  TIP3      H1            -44.5960041381      -46.2810247904      -24.4107824883  TIP3      8595            0.0000000000
     75617      8995  TIP3      H2            -45.7237947638      -47.0595855571      -23.7386304840  TIP3      8595            0.0000000000
     75618      8996  TIP3      OH2           -39.5727626281      -46.0323921690       42.7722646512  TIP3      8596            0.0000000000
     75619      8996  TIP3      H1            -39.6789672443      -46.5190078282       41.9270469475  TIP3      8596            0.0000000000
     75620      8996  TIP3      H2            -39.3592811953      -45.1345331057       42.4902941017  TIP3      8596            0.0000000000
     75621      8997  TIP3      OH2           -50.2201138700      -51.4674084992      -26.5557919971  TIP3      8597            0.0000000000
     75622      8997  TIP3      H1            -50.0939867772      -52.1882598457      -27.1901956445  TIP3      8597            0.0000000000
     75623      8997  TIP3      H2            -50.2488822409      -50.6708379518      -27.1253552428  TIP3      8597            0.0000000000
     75624      8998  TIP3      OH2           -49.8165080097      -53.1089100293      -29.0527001533  TIP3      8598            0.0000000000
     75625      8998  TIP3      H1            -49.2912626210      -52.6292557239      -29.7367264371  TIP3      8598            0.0000000000
     75626      8998  TIP3      H2            -50.7005040910      -53.1858469998      -29.4773707987  TIP3      8598            0.0000000000
     75627      8999  TIP3      OH2           -48.2582817587      -47.6403059675      -28.8073308744  TIP3      8599            0.0000000000
     75628      8999  TIP3      H1            -47.5048190889      -47.7949904279      -29.3894871977  TIP3      8599            0.0000000000
     75629      8999  TIP3      H2            -48.6052283733      -46.7865218551      -29.1126084906  TIP3      8599            0.0000000000
     75630      9000  TIP3      OH2           -43.8624970239      -49.8407801773      -23.8213527155  TIP3      8600            0.0000000000
     75631      9000  TIP3      H1            -43.6296518935      -50.7756927065      -23.8894664366  TIP3      8600            0.0000000000
     75632      9000  TIP3      H2            -42.9857922908      -49.4129491272      -23.8008757730  TIP3      8600            0.0000000000
     75633      9001  TIP3      OH2           -42.5410233998      -47.0627867200      -25.7066224216  TIP3      8601            0.0000000000
     75634      9001  TIP3      H1            -42.7876872880      -46.3257821827      -26.3043246547  TIP3      8601            0.0000000000
     75635      9001  TIP3      H2            -41.5768835700      -47.1022784930      -25.8772570068  TIP3      8601            0.0000000000
     75636      9002  TIP3      OH2           -51.7598259673      -50.2271435584      -24.6535192692  TIP3      8602            0.0000000000
     75637      9002  TIP3      H1            -52.5332312898      -50.8020005843      -24.8391563525  TIP3      8602            0.0000000000
     75638      9002  TIP3      H2            -51.0946308224      -50.5836961191      -25.2665229850  TIP3      8602            0.0000000000
     75639      9003  TIP3      OH2           -49.0169723842      -55.6598128953      -28.6238847828  TIP3      8603            0.0000000000
     75640      9003  TIP3      H1            -49.1448506913      -54.6886009699      -28.7404277383  TIP3      8603            0.0000000000
     75641      9003  TIP3      H2            -49.7790271295      -56.0069246520      -29.1247111486  TIP3      8603            0.0000000000
     75642      9004  TIP3      OH2           -47.7440233840      -51.3308185085      -25.0664229936  TIP3      8604            0.0000000000
     75643      9004  TIP3      H1            -48.0327660677      -51.5480000165      -24.1641033770  TIP3      8604            0.0000000000
     75644      9004  TIP3      H2            -48.5514682539      -51.5228810643      -25.5741285331  TIP3      8604            0.0000000000
     75645      9005  TIP3      OH2           -45.0417716126      -52.1820631768      -25.9730812436  TIP3      8605            0.0000000000
     75646      9005  TIP3      H1            -46.0054993202      -52.1534875114      -25.8401560129  TIP3      8605            0.0000000000
     75647      9005  TIP3      H2            -44.7441769876      -52.8199057906      -25.3002809479  TIP3      8605            0.0000000000
     75648      9006  TIP3      OH2           -43.4349892621      -53.5588945088      -24.0262244051  TIP3      8606            0.0000000000
     75649      9006  TIP3      H1            -43.5152099586      -54.5235051044      -23.9937794069  TIP3      8606            0.0000000000
     75650      9006  TIP3      H2            -43.7118307716      -53.2748775444      -23.1156342731  TIP3      8606            0.0000000000
     75651      9007  TIP3      OH2           -53.5989591508      -52.3145425521      -24.9438258922  TIP3      8607            0.0000000000
     75652      9007  TIP3      H1            -53.3864837910      -53.0564480618      -25.5422540338  TIP3      8607            0.0000000000
     75653      9007  TIP3      H2            -53.7068387270      -52.7684195167      -24.0839482832  TIP3      8607            0.0000000000
     75654      9008  TIP3      OH2           -48.8406815764       56.5252410385      -25.9489712859  TIP3      8608            0.0000000000
     75655      9008  TIP3      H1            -48.1068180311       55.8652856435      -25.9794566130  TIP3      8608            0.0000000000
     75656      9008  TIP3      H2            -48.9011316356       56.7462659893      -26.8922771033  TIP3      8608            0.0000000000
     75657      9009  TIP3      OH2           -48.4561795361      -54.6763007565      -23.8860410033  TIP3      8609            0.0000000000
     75658      9009  TIP3      H1            -48.5949640413      -55.1538432901      -24.7272585422  TIP3      8609            0.0000000000
     75659      9009  TIP3      H2            -49.0401793291      -53.9032253203      -23.9521904513  TIP3      8609            0.0000000000
     75660      9010  TIP3      OH2           -48.9383082632      -37.7694337770      -40.7434255941  TIP3      8610            0.0000000000
     75661      9010  TIP3      H1            -47.9753039760      -37.6218455940      -40.5851331350  TIP3      8610            0.0000000000
     75662      9010  TIP3      H2            -49.1565217568      -37.0760568894      -41.3586902422  TIP3      8610            0.0000000000
     75663      9011  TIP3      OH2           -55.3359308896      -43.1403742081      -41.2369790598  TIP3      8611            0.0000000000
     75664      9011  TIP3      H1            -54.3951234814      -43.0578108169      -40.9831203215  TIP3      8611            0.0000000000
     75665      9011  TIP3      H2            -55.3214158750      -43.8040626685      -41.9280086873  TIP3      8611            0.0000000000
     75666      9012  TIP3      OH2            56.2152379572      -37.7611739186      -36.2088581046  TIP3      8612            0.0000000000
     75667      9012  TIP3      H1             55.4986633823      -38.2314026238      -36.6980374444  TIP3      8612            0.0000000000
     75668      9012  TIP3      H2             56.5004088264      -38.4350580260      -35.5712222356  TIP3      8612            0.0000000000
     75669      9013  TIP3      OH2           -55.8179395901      -39.6554845579      -34.3736327674  TIP3      8613            0.0000000000
     75670      9013  TIP3      H1            -56.1709093684      -40.5429512236      -34.1820216537  TIP3      8613            0.0000000000
     75671      9013  TIP3      H2            -55.5984348145      -39.3205055322      -33.4831862481  TIP3      8613            0.0000000000
     75672      9014  TIP3      OH2           -38.2802091384      -38.8572067487      -31.4057362136  TIP3      8614            0.0000000000
     75673      9014  TIP3      H1            -38.2720217596      -38.6733743801      -30.4507834766  TIP3      8614            0.0000000000
     75674      9014  TIP3      H2            -37.5766062917      -38.2784859597      -31.7226766983  TIP3      8614            0.0000000000
     75675      9015  TIP3      OH2           -38.7031284410      -39.2585450638      -28.4669523997  TIP3      8615            0.0000000000
     75676      9015  TIP3      H1            -39.1872164994      -40.0292942765      -28.8404792426  TIP3      8615            0.0000000000
     75677      9015  TIP3      H2            -38.1779617058      -39.6947768028      -27.7774027472  TIP3      8615            0.0000000000
     75678      9016  TIP3      OH2           -40.2591228413      -43.5169898775      -23.8341976698  TIP3      8616            0.0000000000
     75679      9016  TIP3      H1            -41.1315271926      -43.5871615604      -23.4176144992  TIP3      8616            0.0000000000
     75680      9016  TIP3      H2            -39.8813924249      -42.7375143024      -23.3621571370  TIP3      8616            0.0000000000
     75681      9017  TIP3      OH2           -38.9614447101      -45.2215979003      -38.3491518299  TIP3      8617            0.0000000000
     75682      9017  TIP3      H1            -38.0960820257      -44.8141299864      -38.1694645713  TIP3      8617            0.0000000000
     75683      9017  TIP3      H2            -38.9452934060      -45.9624483884      -37.6954137534  TIP3      8617            0.0000000000
     75684      9018  TIP3      OH2           -38.5745881365      -47.1545035119      -36.4973658124  TIP3      8618            0.0000000000
     75685      9018  TIP3      H1            -39.3118392968      -47.6603834712      -36.0919326781  TIP3      8618            0.0000000000
     75686      9018  TIP3      H2            -37.9757184077      -46.9874168720      -35.7405833563  TIP3      8618            0.0000000000
     75687      9019  TIP3      OH2           -38.8066071991      -44.4248282513      -31.5074451050  TIP3      8619            0.0000000000
     75688      9019  TIP3      H1            -37.9743851546      -44.7886445415      -31.8532295736  TIP3      8619            0.0000000000
     75689      9019  TIP3      H2            -38.6917824123      -43.4634038213      -31.6737530182  TIP3      8619            0.0000000000
     75690      9020  TIP3      OH2           -40.2825139030      -41.5258166901      -29.2211782718  TIP3      8620            0.0000000000
     75691      9020  TIP3      H1            -40.9688335735      -41.1933367952      -28.6210079656  TIP3      8620            0.0000000000
     75692      9020  TIP3      H2            -40.8323843673      -41.9496766087      -29.9245842169  TIP3      8620            0.0000000000
     75693      9021  TIP3      OH2           -38.3031099277      -47.2998918642      -40.1022999624  TIP3      8621            0.0000000000
     75694      9021  TIP3      H1            -38.8358029669      -46.9278198287      -40.8202128638  TIP3      8621            0.0000000000
     75695      9021  TIP3      H2            -38.3352886303      -46.6027312185      -39.4222557141  TIP3      8621            0.0000000000
     75696      9022  TIP3      OH2           -40.1786645591      -50.0238317445      -41.4727705964  TIP3      8622            0.0000000000
     75697      9022  TIP3      H1            -39.8367478685      -49.4303851795      -42.1662905403  TIP3      8622            0.0000000000
     75698      9022  TIP3      H2            -40.0873985561      -50.8580077197      -41.9861345070  TIP3      8622            0.0000000000
     75699      9023  TIP3      OH2           -40.7712031185      -48.6537518168      -35.9278876439  TIP3      8623            0.0000000000
     75700      9023  TIP3      H1            -40.9219907021      -49.6119634771      -35.9456634417  TIP3      8623            0.0000000000
     75701      9023  TIP3      H2            -41.1238107279      -48.3980227711      -35.0588132295  TIP3      8623            0.0000000000
     75702      9024  TIP3      OH2           -55.7418361219      -46.5955136402      -31.8745216511  TIP3      8624            0.0000000000
     75703      9024  TIP3      H1            -55.5677634963      -46.6627551650      -32.8437756967  TIP3      8624            0.0000000000
     75704      9024  TIP3      H2            -54.8620138872      -46.7410476342      -31.4925626981  TIP3      8624            0.0000000000
     75705      9025  TIP3      OH2           -39.9197689658      -46.6934608131      -26.2720507354  TIP3      8625            0.0000000000
     75706      9025  TIP3      H1            -39.3149471573      -47.4422425883      -26.0897968574  TIP3      8625            0.0000000000
     75707      9025  TIP3      H2            -39.3330012698      -45.9124041068      -26.2355969497  TIP3      8625            0.0000000000
     75708      9026  TIP3      OH2           -38.4062609074      -48.7895134236      -25.5802814920  TIP3      8626            0.0000000000
     75709      9026  TIP3      H1            -39.2886871865      -49.1872164777      -25.7601631977  TIP3      8626            0.0000000000
     75710      9026  TIP3      H2            -37.8252287988      -49.5591830032      -25.6788103325  TIP3      8626            0.0000000000
     75711      9027  TIP3      OH2           -40.6827651997      -52.6105594795      -42.4377459366  TIP3      8627            0.0000000000
     75712      9027  TIP3      H1            -40.0815310608      -53.0264877197      -41.7977450307  TIP3      8627            0.0000000000
     75713      9027  TIP3      H2            -41.5385882851      -53.0336457314      -42.2565307819  TIP3      8627            0.0000000000
     75714      9028  TIP3      OH2           -41.0870534181      -51.0768625774      -37.4597426516  TIP3      8628            0.0000000000
     75715      9028  TIP3      H1            -40.7758058680      -51.9914005737      -37.3360816347  TIP3      8628            0.0000000000
     75716      9028  TIP3      H2            -40.3064592432      -50.6520926321      -37.8497434694  TIP3      8628            0.0000000000
     75717      9029  TIP3      OH2           -40.4632709334      -50.5202204481      -32.0308643358  TIP3      8629            0.0000000000
     75718      9029  TIP3      H1            -39.5056085585      -50.2877058468      -32.0470231539  TIP3      8629            0.0000000000
     75719      9029  TIP3      H2            -40.6688632751      -50.3946118900      -31.0904526566  TIP3      8629            0.0000000000
     75720      9030  TIP3      OH2           -40.4063748765      -49.7912181969      -29.2462895114  TIP3      8630            0.0000000000
     75721      9030  TIP3      H1            -41.2744255563      -49.4993351643      -28.8951669716  TIP3      8630            0.0000000000
     75722      9030  TIP3      H2            -39.9699018311      -48.9341150687      -29.4629703042  TIP3      8630            0.0000000000
     75723      9031  TIP3      OH2           -56.1355763339      -51.2829663507      -25.7674747039  TIP3      8631            0.0000000000
     75724      9031  TIP3      H1            -55.2069286252      -51.4702062923      -25.5265859809  TIP3      8631            0.0000000000
     75725      9031  TIP3      H2            -56.5676388850      -52.0939285293      -25.3952243899  TIP3      8631            0.0000000000
     75726      9032  TIP3      OH2           -38.1087982565      -55.7647704710      -23.8762023620  TIP3      8632            0.0000000000
     75727      9032  TIP3      H1            -37.7872152066      -56.4187167212      -24.5163575490  TIP3      8632            0.0000000000
     75728      9032  TIP3      H2            -38.0191038667      -54.9319838481      -24.3725229006  TIP3      8632            0.0000000000
     75729      9033  TIP3      OH2           -40.4343670765      -53.8318315693      -37.4193315331  TIP3      8633            0.0000000000
     75730      9033  TIP3      H1            -40.2464189081      -54.2340055632      -36.5516337636  TIP3      8633            0.0000000000
     75731      9033  TIP3      H2            -41.0788163636      -54.3733792208      -37.8941062300  TIP3      8633            0.0000000000
     75732      9034  TIP3      OH2           -54.9524569579      -52.9948076089      -32.8745956190  TIP3      8634            0.0000000000
     75733      9034  TIP3      H1            -54.4662823339      -53.7919448599      -32.5833425523  TIP3      8634            0.0000000000
     75734      9034  TIP3      H2            -54.4360229226      -52.2794294542      -32.4634104628  TIP3      8634            0.0000000000
     75735      9035  TIP3      OH2           -56.5872267921      -50.0208323061      -31.7829733928  TIP3      8635            0.0000000000
     75736      9035  TIP3      H1            -56.0888247820      -50.2116698915      -32.6014600255  TIP3      8635            0.0000000000
     75737      9035  TIP3      H2            -56.2212731713      -49.1621057829      -31.5501531698  TIP3      8635            0.0000000000
     75738      9036  TIP3      OH2           -38.5959135953      -53.6751476305      -25.5470068264  TIP3      8636            0.0000000000
     75739      9036  TIP3      H1            -39.5375042105      -53.4062866314      -25.5880815947  TIP3      8636            0.0000000000
     75740      9036  TIP3      H2            -38.5309842697      -54.2198541367      -26.3480678491  TIP3      8636            0.0000000000
     75741      9037  TIP3      OH2           -38.5958727186      -53.7731881287      -40.8377363766  TIP3      8637            0.0000000000
     75742      9037  TIP3      H1            -38.1683516619      -54.4461757359      -41.3808559992  TIP3      8637            0.0000000000
     75743      9037  TIP3      H2            -37.8989309972      -53.0786083535      -40.8394901267  TIP3      8637            0.0000000000
     75744      9038  TIP3      OH2            56.5343062306      -53.7686252715      -37.7571779781  TIP3      8638            0.0000000000
     75745      9038  TIP3      H1             55.6103358038      -53.5172651355      -37.8895539422  TIP3      8638            0.0000000000
     75746      9038  TIP3      H2             56.9849515914      -53.2601780061      -38.4582705996  TIP3      8638            0.0000000000
     75747      9039  TIP3      OH2           -41.5518577413      -38.7680891312      -35.8037440615  TIP3      8639            0.0000000000
     75748      9039  TIP3      H1            -40.8736376302      -39.0980815771      -36.4204915739  TIP3      8639            0.0000000000
     75749      9039  TIP3      H2            -41.0235081284      -38.2730123153      -35.1603204978  TIP3      8639            0.0000000000
     75750      9040  TIP3      OH2            56.4815726317      -55.0778141786      -29.4971922810  TIP3      8640            0.0000000000
     75751      9040  TIP3      H1             55.8876850847      -55.2142956829      -28.7271162848  TIP3      8640            0.0000000000
     75752      9040  TIP3      H2             56.1046098827      -54.3231510281      -29.9657714026  TIP3      8640            0.0000000000
     75753      9041  TIP3      OH2           -54.1347858470      -41.8385168808      -25.2864444915  TIP3      8641            0.0000000000
     75754      9041  TIP3      H1            -54.9792080182      -41.6706836854      -25.7036071345  TIP3      8641            0.0000000000
     75755      9041  TIP3      H2            -54.3813517717      -41.9201317144      -24.3475381161  TIP3      8641            0.0000000000
     75756      9042  TIP3      OH2           -51.2159115313      -40.8651457932      -29.0182421045  TIP3      8642            0.0000000000
     75757      9042  TIP3      H1            -51.5741702316      -40.0009233265      -29.2978034620  TIP3      8642            0.0000000000
     75758      9042  TIP3      H2            -50.2763822202      -40.7581945823      -29.3161206439  TIP3      8642            0.0000000000
     75759      9043  TIP3      OH2           -46.8857743139      -39.4567461231      -26.0875396346  TIP3      8643            0.0000000000
     75760      9043  TIP3      H1            -46.7057827120      -39.7818939950      -25.1657894208  TIP3      8643            0.0000000000
     75761      9043  TIP3      H2            -46.0051578333      -39.1408866182      -26.3622772062  TIP3      8643            0.0000000000
     75762      9044  TIP3      OH2           -44.5720719783      -38.1764187392      -26.8117543956  TIP3      8644            0.0000000000
     75763      9044  TIP3      H1            -43.8560696600      -38.7901675929      -27.0444348464  TIP3      8644            0.0000000000
     75764      9044  TIP3      H2            -44.2076645582      -37.7642722544      -25.9990399469  TIP3      8644            0.0000000000
     75765      9045  TIP3      OH2           -39.6192762379      -55.5444825372      -27.6997750020  TIP3      8645            0.0000000000
     75766      9045  TIP3      H1            -40.4336146425      -55.2410482421      -28.1163888560  TIP3      8645            0.0000000000
     75767      9045  TIP3      H2            -39.3883661368      -56.3441422309      -28.2392515834  TIP3      8645            0.0000000000
     75768      9046  TIP3      OH2           -53.7955594876      -37.6654833220      -28.9933387695  TIP3      8646            0.0000000000
     75769      9046  TIP3      H1            -54.5138830187      -37.1401122579      -29.4105604377  TIP3      8646            0.0000000000
     75770      9046  TIP3      H2            -54.1507275184      -37.8191886868      -28.1040398890  TIP3      8646            0.0000000000
     75771      9047  TIP3      OH2           -51.3053870775      -38.0433239444      -29.9332777084  TIP3      8647            0.0000000000
     75772      9047  TIP3      H1            -52.1939702866      -37.8962656321      -29.5368242280  TIP3      8647            0.0000000000
     75773      9047  TIP3      H2            -51.3728881343      -37.4491895316      -30.7152632116  TIP3      8647            0.0000000000
     75774      9048  TIP3      OH2           -46.6106843757      -38.1286855895      -30.7654855046  TIP3      8648            0.0000000000
     75775      9048  TIP3      H1            -47.0723184668      -37.5788361707      -31.4174288039  TIP3      8648            0.0000000000
     75776      9048  TIP3      H2            -46.4586836203      -37.4988640758      -30.0298797547  TIP3      8648            0.0000000000
     75777      9049  TIP3      OH2           -44.2917676005      -39.2659218867      -29.7742761845  TIP3      8649            0.0000000000
     75778      9049  TIP3      H1            -45.1823028437      -39.0621461561      -30.0994315923  TIP3      8649            0.0000000000
     75779      9049  TIP3      H2            -43.8517861771      -38.4066828796      -29.8696912553  TIP3      8649            0.0000000000
     75780      9050  TIP3      OH2           -41.7037053203      -37.7105562724      -29.5065651673  TIP3      8650            0.0000000000
     75781      9050  TIP3      H1            -41.8363051759      -36.7588970436      -29.7429826735  TIP3      8650            0.0000000000
     75782      9050  TIP3      H2            -41.5108557990      -38.0889230285      -30.3841990279  TIP3      8650            0.0000000000
     75783      9051  TIP3      OH2           -54.3256518789      -38.9614900387      -32.0673566322  TIP3      8651            0.0000000000
     75784      9051  TIP3      H1            -54.3870968925      -39.4113232787      -31.2026874871  TIP3      8651            0.0000000000
     75785      9051  TIP3      H2            -53.5261706683      -39.3234336543      -32.4798141080  TIP3      8651            0.0000000000
     75786      9052  TIP3      OH2           -52.2583104793      -40.2576574832      -33.4003953361  TIP3      8652            0.0000000000
     75787      9052  TIP3      H1            -52.4308620408      -41.1961988613      -33.2317708553  TIP3      8652            0.0000000000
     75788      9052  TIP3      H2            -51.3984524279      -40.1206706620      -32.9462345726  TIP3      8652            0.0000000000
     75789      9053  TIP3      OH2           -49.6925155501      -39.7879493468      -32.5455231544  TIP3      8653            0.0000000000
     75790      9053  TIP3      H1            -49.4775839508      -40.6954279325      -32.8272612393  TIP3      8653            0.0000000000
     75791      9053  TIP3      H2            -49.6094160824      -39.8380563013      -31.5877677435  TIP3      8653            0.0000000000
     75792      9054  TIP3      OH2           -46.2012412944      -54.1201334556      -33.4062688723  TIP3      8654            0.0000000000
     75793      9054  TIP3      H1            -46.8646084366      -54.7810812904      -33.1511472250  TIP3      8654            0.0000000000
     75794      9054  TIP3      H2            -45.6304111545      -54.6324260234      -33.9934020090  TIP3      8654            0.0000000000
     75795      9055  TIP3      OH2           -41.0579733749      -56.0610596128      -33.3413726830  TIP3      8655            0.0000000000
     75796      9055  TIP3      H1            -40.4315019524      -55.4639038699      -33.8042706567  TIP3      8655            0.0000000000
     75797      9055  TIP3      H2            -41.9424994086      -55.7015218041      -33.5331163083  TIP3      8655            0.0000000000
     75798      9056  TIP3      OH2           -39.3535403960      -54.8743646741      -35.0463452990  TIP3      8656            0.0000000000
     75799      9056  TIP3      H1            -38.6723405561      -55.4074437935      -35.4770392122  TIP3      8656            0.0000000000
     75800      9056  TIP3      H2            -38.9058260546      -53.9958933383      -34.9323804239  TIP3      8656            0.0000000000
     75801      9057  TIP3      OH2           -53.8714269530      -55.4600948837      -35.5768299438  TIP3      8657            0.0000000000
     75802      9057  TIP3      H1            -54.6384149314      -55.7298117706      -36.0938446604  TIP3      8657            0.0000000000
     75803      9057  TIP3      H2            -53.3432734526      -56.2978587627      -35.5910339498  TIP3      8657            0.0000000000
     75804      9058  TIP3      OH2           -55.0078125073      -55.7212455123      -39.7731218393  TIP3      8658            0.0000000000
     75805      9058  TIP3      H1            -54.5821717550      -55.0841708578      -40.3834139037  TIP3      8658            0.0000000000
     75806      9058  TIP3      H2            -55.6413463465      -55.1555665037      -39.3041063505  TIP3      8658            0.0000000000
     75807      9059  TIP3      OH2           -49.3224154289      -55.5754829178      -35.7608716924  TIP3      8659            0.0000000000
     75808      9059  TIP3      H1            -48.4221013937      -55.2068681601      -35.8089148197  TIP3      8659            0.0000000000
     75809      9059  TIP3      H2            -49.4060866450      -55.7925864626      -34.8314997629  TIP3      8659            0.0000000000
     75810      9060  TIP3      OH2           -43.6463774654      -55.5177121670      -34.1417354798  TIP3      8660            0.0000000000
     75811      9060  TIP3      H1            -43.6713942562      -55.4449902931      -35.0884340975  TIP3      8660            0.0000000000
     75812      9060  TIP3      H2            -44.0184098224      -56.4283351318      -33.9905096104  TIP3      8660            0.0000000000
     75813      9061  TIP3      OH2           -42.4647274197      -55.4285066657      -38.6001382376  TIP3      8661            0.0000000000
     75814      9061  TIP3      H1            -43.1999918703      -54.8397345440      -38.6805734557  TIP3      8661            0.0000000000
     75815      9061  TIP3      H2            -42.9027585784      -56.2953501062      -38.3466157896  TIP3      8661            0.0000000000
     75816      9062  TIP3      OH2           -55.0980663927      -39.7770284915      -38.8487085150  TIP3      8662            0.0000000000
     75817      9062  TIP3      H1            -55.8005594201      -39.7876581637      -39.5406307693  TIP3      8662            0.0000000000
     75818      9062  TIP3      H2            -55.1233539607      -38.8383482127      -38.6177127409  TIP3      8662            0.0000000000
     75819      9063  TIP3      OH2           -53.2028190724      -53.8381100969      -41.3345908691  TIP3      8663            0.0000000000
     75820      9063  TIP3      H1            -52.6729574312      -54.4235656382      -41.8698881268  TIP3      8663            0.0000000000
     75821      9063  TIP3      H2            -52.5551702462      -53.4845191231      -40.6920949362  TIP3      8663            0.0000000000
     75822      9064  TIP3      OH2           -48.1744049193      -53.5334421458      -38.9069959692  TIP3      8664            0.0000000000
     75823      9064  TIP3      H1            -47.9483188394      -54.1308055230      -38.1804041648  TIP3      8664            0.0000000000
     75824      9064  TIP3      H2            -48.1676707439      -52.6673326597      -38.4216701864  TIP3      8664            0.0000000000
     75825      9065  TIP3      OH2           -46.3032769055      -38.3594862252      -40.4057806596  TIP3      8665            0.0000000000
     75826      9065  TIP3      H1            -45.3720209576      -38.2020670282      -40.6463033176  TIP3      8665            0.0000000000
     75827      9065  TIP3      H2            -46.4781749265      -38.9429523712      -41.1986767184  TIP3      8665            0.0000000000
     75828      9066  TIP3      OH2           -39.5441067601      -38.9766716640      -37.7746704995  TIP3      8666            0.0000000000
     75829      9066  TIP3      H1            -39.7566034578      -39.7455687838      -38.3621527688  TIP3      8666            0.0000000000
     75830      9066  TIP3      H2            -39.6153448519      -38.2325888651      -38.3980722663  TIP3      8666            0.0000000000
     75831      9067  TIP3      OH2           -53.9353027538      -54.9583521039      -26.0929519725  TIP3      8667            0.0000000000
     75832      9067  TIP3      H1            -54.2936139415      -55.7585821872      -25.6568610624  TIP3      8667            0.0000000000
     75833      9067  TIP3      H2            -53.0094328724      -54.9849701233      -25.7728959631  TIP3      8667            0.0000000000
     75834      9068  TIP3      OH2           -51.9196084093      -55.6014195523      -24.4957332967  TIP3      8668            0.0000000000
     75835      9068  TIP3      H1            -51.0282505162      -55.9161045009      -24.7208135873  TIP3      8668            0.0000000000
     75836      9068  TIP3      H2            -52.3206237845      -56.3851086291      -24.0717901154  TIP3      8668            0.0000000000
     75837      9069  TIP3      OH2           -53.2743909536      -38.8204255275      -41.8633807864  TIP3      8669            0.0000000000
     75838      9069  TIP3      H1            -53.5837891264      -38.5483313834      -40.9831661793  TIP3      8669            0.0000000000
     75839      9069  TIP3      H2            -52.5344458188      -39.3839314156      -41.6806317798  TIP3      8669            0.0000000000
     75840      9070  TIP3      OH2           -43.5140215988       56.5260287122      -24.3727919893  TIP3      8670            0.0000000000
     75841      9070  TIP3      H1            -43.4388964589       56.1087640750      -23.4871957111  TIP3      8670            0.0000000000
     75842      9070  TIP3      H2            -42.6025096842       56.5472244633      -24.6709822408  TIP3      8670            0.0000000000
     75843      9071  TIP3      OH2           -40.3187668152      -40.2490301377      -25.6532602153  TIP3      8671            0.0000000000
     75844      9071  TIP3      H1            -41.1252824393      -40.4012143070      -26.1891899163  TIP3      8671            0.0000000000
     75845      9071  TIP3      H2            -40.4216414846      -39.2961090678      -25.4492912909  TIP3      8671            0.0000000000
     75846      9072  TIP3      OH2           -25.9025702829      -46.3627154865      -35.6510025450  TIP3      8672            0.0000000000
     75847      9072  TIP3      H1            -25.8589534589      -45.3879119593      -35.7506357811  TIP3      8672            0.0000000000
     75848      9072  TIP3      H2            -26.5855556099      -46.6098959300      -36.2930661417  TIP3      8672            0.0000000000
     75849      9073  TIP3      OH2           -27.0086711754      -47.0880789626      -32.1949643403  TIP3      8673            0.0000000000
     75850      9073  TIP3      H1            -27.0308037688      -47.7462592503      -31.4957032814  TIP3      8673            0.0000000000
     75851      9073  TIP3      H2            -27.3336214837      -47.5782865925      -32.9689071685  TIP3      8673            0.0000000000
     75852      9074  TIP3      OH2           -34.6402631944      -47.4632090034      -30.6350980717  TIP3      8674            0.0000000000
     75853      9074  TIP3      H1            -34.5860319430      -48.1080338205      -29.9050622078  TIP3      8674            0.0000000000
     75854      9074  TIP3      H2            -33.9231159974      -46.8491200207      -30.4269803096  TIP3      8674            0.0000000000
     75855      9075  TIP3      OH2           -23.3021544066      -44.1568094541      -33.9167551773  TIP3      8675            0.0000000000
     75856      9075  TIP3      H1            -23.7391511709      -44.8709895687      -33.4402227205  TIP3      8675            0.0000000000
     75857      9075  TIP3      H2            -23.3067150680      -43.4375019452      -33.2570144871  TIP3      8675            0.0000000000
     75858      9076  TIP3      OH2           -33.7229755016      -43.0017846706      -32.0960352562  TIP3      8676            0.0000000000
     75859      9076  TIP3      H1            -34.0615920020      -43.8428040921      -32.4548500105  TIP3      8676            0.0000000000
     75860      9076  TIP3      H2            -32.7679189378      -43.1915902570      -32.0563960203  TIP3      8676            0.0000000000
     75861      9077  TIP3      OH2           -37.0840736394      -49.3997475681      -36.6702168874  TIP3      8677            0.0000000000
     75862      9077  TIP3      H1            -37.5412934965      -48.5321452162      -36.7096753167  TIP3      8677            0.0000000000
     75863      9077  TIP3      H2            -37.6631776917      -49.9499790100      -37.2165079853  TIP3      8677            0.0000000000
     75864      9078  TIP3      OH2           -36.3932839574      -47.1974554269      -34.5411850772  TIP3      8678            0.0000000000
     75865      9078  TIP3      H1            -36.1465373357      -47.9970054796      -34.0417397545  TIP3      8678            0.0000000000
     75866      9078  TIP3      H2            -35.6579269832      -47.1106793870      -35.1682762924  TIP3      8678            0.0000000000
     75867      9079  TIP3      OH2           -26.1956114424      -39.0147224159      -33.6835656634  TIP3      8679            0.0000000000
     75868      9079  TIP3      H1            -25.5625320435      -39.7196154348      -33.9641033632  TIP3      8679            0.0000000000
     75869      9079  TIP3      H2            -26.3986137352      -39.2934289323      -32.7924940439  TIP3      8679            0.0000000000
     75870      9080  TIP3      OH2           -28.6323835122      -44.6731359981      -31.7721191833  TIP3      8680            0.0000000000
     75871      9080  TIP3      H1            -28.2969182645      -45.3409677377      -32.3922914373  TIP3      8680            0.0000000000
     75872      9080  TIP3      H2            -27.8598019179      -44.5445941746      -31.1953349028  TIP3      8680            0.0000000000
     75873      9081  TIP3      OH2           -19.9853127473      -53.0601611456      -30.9795846474  TIP3      8681            0.0000000000
     75874      9081  TIP3      H1            -19.8761928926      -52.4548098659      -30.2095021551  TIP3      8681            0.0000000000
     75875      9081  TIP3      H2            -19.4961021512      -52.5933262706      -31.6659624937  TIP3      8681            0.0000000000
     75876      9082  TIP3      OH2           -25.4705060996      -50.2403451565      -31.4370910939  TIP3      8682            0.0000000000
     75877      9082  TIP3      H1            -25.3183595460      -51.2058594869      -31.4446411337  TIP3      8682            0.0000000000
     75878      9082  TIP3      H2            -25.5750364204      -50.0778774692      -32.3977389525  TIP3      8682            0.0000000000
     75879      9083  TIP3      OH2           -32.3304872617      -52.1573631217      -34.1894096155  TIP3      8683            0.0000000000
     75880      9083  TIP3      H1            -32.2630657348      -51.3026455569      -34.6479433664  TIP3      8683            0.0000000000
     75881      9083  TIP3      H2            -32.7650426347      -52.7245708364      -34.8626724018  TIP3      8683            0.0000000000
     75882      9084  TIP3      OH2           -24.6121798719      -52.0299984740      -35.8072937279  TIP3      8684            0.0000000000
     75883      9084  TIP3      H1            -23.9455318031      -52.3719039565      -35.1650296385  TIP3      8684            0.0000000000
     75884      9084  TIP3      H2            -24.0620544759      -51.4996179988      -36.4039821334  TIP3      8684            0.0000000000
     75885      9085  TIP3      OH2           -35.7182819773      -49.7466418813      -33.4455092534  TIP3      8685            0.0000000000
     75886      9085  TIP3      H1            -35.0436299845      -50.3091504044      -33.0097274763  TIP3      8685            0.0000000000
     75887      9085  TIP3      H2            -35.6501316320      -50.0479115494      -34.3641323152  TIP3      8685            0.0000000000
     75888      9086  TIP3      OH2           -30.5510936960      -48.1895648152      -34.1928927610  TIP3      8686            0.0000000000
     75889      9086  TIP3      H1            -29.9120815819      -48.7573907687      -33.7314878357  TIP3      8686            0.0000000000
     75890      9086  TIP3      H2            -31.1108503826      -48.8583320752      -34.6371053642  TIP3      8686            0.0000000000
     75891      9087  TIP3      OH2           -19.5484704935      -51.5884321600      -28.7250117847  TIP3      8687            0.0000000000
     75892      9087  TIP3      H1            -20.2398661481      -50.9030659805      -28.8067500476  TIP3      8687            0.0000000000
     75893      9087  TIP3      H2            -19.5507808901      -51.7762852390      -27.7724503176  TIP3      8687            0.0000000000
     75894      9088  TIP3      OH2           -33.4588519550      -53.2461320528      -30.1316054652  TIP3      8688            0.0000000000
     75895      9088  TIP3      H1            -33.7362279493      -52.7049656525      -30.9016490413  TIP3      8688            0.0000000000
     75896      9088  TIP3      H2            -34.1708496297      -53.0163988800      -29.4781069419  TIP3      8688            0.0000000000
     75897      9089  TIP3      OH2           -26.1386108140      -43.7573665948      -36.5884493711  TIP3      8689            0.0000000000
     75898      9089  TIP3      H1            -26.4332744541      -44.0620771599      -37.4558448867  TIP3      8689            0.0000000000
     75899      9089  TIP3      H2            -26.4609260759      -42.8294539251      -36.5563904557  TIP3      8689            0.0000000000
     75900      9090  TIP3      OH2           -30.9297126300      -45.6010169158      -29.8676287125  TIP3      8690            0.0000000000
     75901      9090  TIP3      H1            -31.6602155195      -44.9576975351      -29.7202680817  TIP3      8690            0.0000000000
     75902      9090  TIP3      H2            -30.2267403915      -45.0041372539      -30.1742743615  TIP3      8690            0.0000000000
     75903      9091  TIP3      OH2           -22.8164195063      -52.7279510539      -33.8413241343  TIP3      8691            0.0000000000
     75904      9091  TIP3      H1            -23.0425490023      -53.4908970965      -33.2912608586  TIP3      8691            0.0000000000
     75905      9091  TIP3      H2            -22.1583546153      -52.2709597700      -33.2943678509  TIP3      8691            0.0000000000
     75906      9092  TIP3      OH2           -33.9111529591      -51.3672885235      -32.1504630789  TIP3      8692            0.0000000000
     75907      9092  TIP3      H1            -33.2737034134      -50.7051257669      -31.8176665973  TIP3      8692            0.0000000000
     75908      9092  TIP3      H2            -33.3834316447      -51.8236850148      -32.8527396056  TIP3      8692            0.0000000000
     75909      9093  TIP3      OH2           -32.4984431001      -43.6156877587      -29.0620078633  TIP3      8693            0.0000000000
     75910      9093  TIP3      H1            -32.5360683688      -42.7105030099      -29.4310955332  TIP3      8693            0.0000000000
     75911      9093  TIP3      H2            -33.3912102315      -43.6852716684      -28.6396662745  TIP3      8693            0.0000000000
     75912      9094  TIP3      OH2           -36.4144473114      -43.9665642949      -38.2813553760  TIP3      8694            0.0000000000
     75913      9094  TIP3      H1            -36.6629589527      -43.6807835237      -39.1790271095  TIP3      8694            0.0000000000
     75914      9094  TIP3      H2            -36.3530548894      -43.1108583716      -37.8018316717  TIP3      8694            0.0000000000
     75915      9095  TIP3      OH2           -22.7717837226      -42.3223155709      -31.5343438916  TIP3      8695            0.0000000000
     75916      9095  TIP3      H1            -23.7463451618      -42.2370467791      -31.4133794658  TIP3      8695            0.0000000000
     75917      9095  TIP3      H2            -22.5227267657      -41.3963711707      -31.7230555053  TIP3      8695            0.0000000000
     75918      9096  TIP3      OH2           -22.4780191942      -54.0376633645      -30.1428255223  TIP3      8696            0.0000000000
     75919      9096  TIP3      H1            -23.2092597823      -53.4158390599      -30.2050916708  TIP3      8696            0.0000000000
     75920      9096  TIP3      H2            -21.7749115033      -53.6254861263      -30.6642108216  TIP3      8696            0.0000000000
     75921      9097  TIP3      OH2           -29.4662741267      -55.9141474492      -32.6950536695  TIP3      8697            0.0000000000
     75922      9097  TIP3      H1            -29.6008415297      -56.8856114802      -32.7449834260  TIP3      8697            0.0000000000
     75923      9097  TIP3      H2            -30.3463569122      -55.6172657204      -32.4017561386  TIP3      8697            0.0000000000
     75924      9098  TIP3      OH2           -24.5408151822      -40.5343809755      -34.9430792090  TIP3      8698            0.0000000000
     75925      9098  TIP3      H1            -24.0995683487      -41.2539992232      -35.4347028792  TIP3      8698            0.0000000000
     75926      9098  TIP3      H2            -24.1686266157      -39.7309350609      -35.3484419949  TIP3      8698            0.0000000000
     75927      9099  TIP3      OH2           -23.3502884088      -42.6052765945      -36.4422023312  TIP3      8699            0.0000000000
     75928      9099  TIP3      H1            -23.6256020281      -43.3220983884      -37.0411994160  TIP3      8699            0.0000000000
     75929      9099  TIP3      H2            -23.2982810581      -43.0870970797      -35.5921571819  TIP3      8699            0.0000000000
     75930      9100  TIP3      OH2           -21.6699062521      -44.0394147968      -27.9363875303  TIP3      8700            0.0000000000
     75931      9100  TIP3      H1            -21.5630645584      -44.6750488598      -28.6801889792  TIP3      8700            0.0000000000
     75932      9100  TIP3      H2            -21.5356486261      -43.1774640612      -28.3397186523  TIP3      8700            0.0000000000
     75933      9101  TIP3      OH2           -27.2146382308      -47.1114074858      -38.1671520183  TIP3      8701            0.0000000000
     75934      9101  TIP3      H1            -27.9207256022      -46.5574217144      -38.5489307089  TIP3      8701            0.0000000000
     75935      9101  TIP3      H2            -26.5146503915      -47.0385238004      -38.8458409995  TIP3      8701            0.0000000000
     75936      9102  TIP3      OH2           -27.1679179768      -48.6235001672      -41.1239523537  TIP3      8702            0.0000000000
     75937      9102  TIP3      H1            -26.4435518769      -48.6130692089      -40.4806692858  TIP3      8702            0.0000000000
     75938      9102  TIP3      H2            -26.8464612615      -49.2602595464      -41.7728714383  TIP3      8702            0.0000000000
     75939      9103  TIP3      OH2           -19.8238684141      -47.7158844964      -29.8800158503  TIP3      8703            0.0000000000
     75940      9103  TIP3      H1            -20.4990392449      -47.0139049010      -29.8177247737  TIP3      8703            0.0000000000
     75941      9103  TIP3      H2            -19.3626068261      -47.4992442755      -30.7076735773  TIP3      8703            0.0000000000
     75942      9104  TIP3      OH2           -23.7885985624      -46.8951478007      -37.2425095131  TIP3      8704            0.0000000000
     75943      9104  TIP3      H1            -24.5345188642      -46.6648988526      -36.6404156105  TIP3      8704            0.0000000000
     75944      9104  TIP3      H2            -23.3331340855      -47.6022436061      -36.7511529213  TIP3      8704            0.0000000000
     75945      9105  TIP3      OH2           -23.8678409507      -48.7459166844      -28.1497655083  TIP3      8705            0.0000000000
     75946      9105  TIP3      H1            -23.8335861576      -47.9445208179      -27.5925273450  TIP3      8705            0.0000000000
     75947      9105  TIP3      H2            -24.4984614964      -48.4365578460      -28.8346880081  TIP3      8705            0.0000000000
     75948      9106  TIP3      OH2           -32.1573494510      -46.2450110083      -35.3356841173  TIP3      8706            0.0000000000
     75949      9106  TIP3      H1            -32.4854848463      -46.6415407137      -36.1770207180  TIP3      8706            0.0000000000
     75950      9106  TIP3      H2            -31.5532206972      -46.9454008982      -34.9986149580  TIP3      8706            0.0000000000
     75951      9107  TIP3      OH2           -30.8179324031      -42.8374444517      -32.6566808256  TIP3      8707            0.0000000000
     75952      9107  TIP3      H1            -30.8672022735      -43.4084509058      -33.4338635989  TIP3      8707            0.0000000000
     75953      9107  TIP3      H2            -30.0540282711      -43.2159732401      -32.1839599244  TIP3      8707            0.0000000000
     75954      9108  TIP3      OH2           -31.7996152259      -47.5206367136      -31.6848413720  TIP3      8708            0.0000000000
     75955      9108  TIP3      H1            -31.2443110214      -47.3772469114      -32.4806288285  TIP3      8708            0.0000000000
     75956      9108  TIP3      H2            -31.4604215854      -46.8366438902      -31.0726131235  TIP3      8708            0.0000000000
     75957      9109  TIP3      OH2           -25.4543006355      -41.9553118433      -30.9872213232  TIP3      8709            0.0000000000
     75958      9109  TIP3      H1            -25.7164340220      -41.3211710961      -30.3190281553  TIP3      8709            0.0000000000
     75959      9109  TIP3      H2            -25.6800627917      -42.8147401682      -30.5459248964  TIP3      8709            0.0000000000
     75960      9110  TIP3      OH2           -30.8975858566      -43.1012049800      -26.9554209358  TIP3      8710            0.0000000000
     75961      9110  TIP3      H1            -31.2511970799      -42.2953879838      -26.5391113736  TIP3      8710            0.0000000000
     75962      9110  TIP3      H2            -31.5575033944      -43.2606341613      -27.6857170903  TIP3      8710            0.0000000000
     75963      9111  TIP3      OH2           -24.9258067974      -47.7358962548      -39.5617620148  TIP3      8711            0.0000000000
     75964      9111  TIP3      H1            -24.3462971441      -47.5607958444      -38.7803158926  TIP3      8711            0.0000000000
     75965      9111  TIP3      H2            -24.5046670434      -47.2295869901      -40.2770888894  TIP3      8711            0.0000000000
     75966      9112  TIP3      OH2           -33.9697283786      -46.9217074460      -27.7844587686  TIP3      8712            0.0000000000
     75967      9112  TIP3      H1            -33.9237305579      -46.2391259691      -27.0789818692  TIP3      8712            0.0000000000
     75968      9112  TIP3      H2            -34.8864702638      -46.7941000767      -28.0771501676  TIP3      8712            0.0000000000
     75969      9113  TIP3      OH2           -27.1872079661      -40.9897751597      -36.1185382193  TIP3      8713            0.0000000000
     75970      9113  TIP3      H1            -26.7397644023      -40.6894274695      -35.3191163426  TIP3      8713            0.0000000000
     75971      9113  TIP3      H2            -27.7680575432      -40.2460109743      -36.3399445563  TIP3      8713            0.0000000000
     75972      9114  TIP3      OH2           -32.6416187674      -41.0490554202      -26.2163282262  TIP3      8714            0.0000000000
     75973      9114  TIP3      H1            -32.6776374108      -41.1463923103      -27.1888050009  TIP3      8714            0.0000000000
     75974      9114  TIP3      H2            -33.5901728395      -41.1430616491      -25.9841556775  TIP3      8714            0.0000000000
     75975      9115  TIP3      OH2           -21.2067289568      -55.9562301275      -39.7219489600  TIP3      8715            0.0000000000
     75976      9115  TIP3      H1            -22.1467525643      -55.8404289840      -39.4438901632  TIP3      8715            0.0000000000
     75977      9115  TIP3      H2            -20.9774883875      -55.1114136977      -40.1291960477  TIP3      8715            0.0000000000
     75978      9116  TIP3      OH2           -33.1674229950      -47.2098784469      -37.7389589598  TIP3      8716            0.0000000000
     75979      9116  TIP3      H1            -33.4652411242      -46.4305118796      -38.2528580748  TIP3      8716            0.0000000000
     75980      9116  TIP3      H2            -33.8420409963      -47.8661849413      -37.9327591251  TIP3      8716            0.0000000000
     75981      9117  TIP3      OH2           -20.0732355752      -41.6320392964      -41.3273699789  TIP3      8717            0.0000000000
     75982      9117  TIP3      H1            -19.9428737176      -40.6776225198      -41.1915835798  TIP3      8717            0.0000000000
     75983      9117  TIP3      H2            -19.1385765941      -41.9172239145      -41.4031600664  TIP3      8717            0.0000000000
     75984      9118  TIP3      OH2           -37.0809967496      -44.8092081386      -28.8882101632  TIP3      8718            0.0000000000
     75985      9118  TIP3      H1            -37.5668945217      -44.8747705283      -29.7334964047  TIP3      8718            0.0000000000
     75986      9118  TIP3      H2            -37.0546060483      -45.7488041496      -28.6290846457  TIP3      8718            0.0000000000
     75987      9119  TIP3      OH2           -37.3303125744      -42.0638486847      -32.0528280344  TIP3      8719            0.0000000000
     75988      9119  TIP3      H1            -36.3743396402      -42.1869793502      -32.0698175381  TIP3      8719            0.0000000000
     75989      9119  TIP3      H2            -37.4325664092      -41.2606518497      -31.5277446134  TIP3      8719            0.0000000000
     75990      9120  TIP3      OH2           -19.1079058690      -41.3768348599      -26.4320901987  TIP3      8720            0.0000000000
     75991      9120  TIP3      H1            -19.2021944656      -42.3425343010      -26.3591246200  TIP3      8720            0.0000000000
     75992      9120  TIP3      H2            -19.9591333602      -41.1183338143      -25.9645793493  TIP3      8720            0.0000000000
     75993      9121  TIP3      OH2           -28.1408694412      -41.8264298074      -27.4990330858  TIP3      8721            0.0000000000
     75994      9121  TIP3      H1            -28.0633639438      -40.9744116991      -27.0082484258  TIP3      8721            0.0000000000
     75995      9121  TIP3      H2            -29.0196632006      -42.1502897161      -27.2510885567  TIP3      8721            0.0000000000
     75996      9122  TIP3      OH2           -27.6739301943      -38.0663277566      -37.7077853023  TIP3      8722            0.0000000000
     75997      9122  TIP3      H1            -27.8263734320      -38.1506627190      -38.6584067781  TIP3      8722            0.0000000000
     75998      9122  TIP3      H2            -27.7195707018      -37.0990247673      -37.5465444125  TIP3      8722            0.0000000000
     75999      9123  TIP3      OH2           -34.0686470851      -39.2215055230      -35.8940130720  TIP3      8723            0.0000000000
     76000      9123  TIP3      H1            -33.9216139105      -39.6079738816      -35.0100849196  TIP3      8723            0.0000000000
     76001      9123  TIP3      H2            -34.9229344860      -39.6064393057      -36.1411734706  TIP3      8723            0.0000000000
     76002      9124  TIP3      OH2           -24.8811277756      -39.0537342132      -40.8127633452  TIP3      8724            0.0000000000
     76003      9124  TIP3      H1            -24.2547895065      -39.7019442056      -41.2233641748  TIP3      8724            0.0000000000
     76004      9124  TIP3      H2            -24.7336698767      -39.2182446809      -39.8528267001  TIP3      8724            0.0000000000
     76005      9125  TIP3      OH2           -24.9249096694      -38.9402766440      -37.9835263066  TIP3      8725            0.0000000000
     76006      9125  TIP3      H1            -25.8954387710      -38.8625731994      -37.7542734284  TIP3      8725            0.0000000000
     76007      9125  TIP3      H2            -24.7067078064      -39.6657858408      -37.3568947203  TIP3      8725            0.0000000000
     76008      9126  TIP3      OH2           -21.9649114224      -49.8850649480      -25.8807386449  TIP3      8726            0.0000000000
     76009      9126  TIP3      H1            -22.4004134760      -49.4152502269      -26.6080240244  TIP3      8726            0.0000000000
     76010      9126  TIP3      H2            -21.9411160715      -50.8012243711      -26.2044674034  TIP3      8726            0.0000000000
     76011      9127  TIP3      OH2           -34.8210840521      -43.4814934655      -27.8933106472  TIP3      8727            0.0000000000
     76012      9127  TIP3      H1            -34.6051344882      -43.8673833096      -27.0222413703  TIP3      8727            0.0000000000
     76013      9127  TIP3      H2            -35.6852077498      -43.8860532457      -28.1068398401  TIP3      8727            0.0000000000
     76014      9128  TIP3      OH2           -32.1595219927      -55.0131041811      -31.9480951138  TIP3      8728            0.0000000000
     76015      9128  TIP3      H1            -33.0673109341      -55.1203950828      -32.3176039816  TIP3      8728            0.0000000000
     76016      9128  TIP3      H2            -32.2451976962      -54.1765263123      -31.4714103897  TIP3      8728            0.0000000000
     76017      9129  TIP3      OH2           -27.5163753405      -55.3107795648      -28.5402445255  TIP3      8729            0.0000000000
     76018      9129  TIP3      H1            -27.1066792155      -55.7424143036      -27.7690718623  TIP3      8729            0.0000000000
     76019      9129  TIP3      H2            -28.4785136076      -55.4921864445      -28.4092043245  TIP3      8729            0.0000000000
     76020      9130  TIP3      OH2           -24.2103228449      -51.5592381723      -27.6846118152  TIP3      8730            0.0000000000
     76021      9130  TIP3      H1            -24.7496672205      -51.6940121500      -26.8695482725  TIP3      8730            0.0000000000
     76022      9130  TIP3      H2            -24.3680547316      -50.6273921618      -27.9124604269  TIP3      8730            0.0000000000
     76023      9131  TIP3      OH2           -23.3907075808      -46.6479476868      -41.8256587447  TIP3      8731            0.0000000000
     76024      9131  TIP3      H1            -23.3843053708      -46.8746832140      -42.7836402080  TIP3      8731            0.0000000000
     76025      9131  TIP3      H2            -22.5339902779      -46.2490679631      -41.6957796764  TIP3      8731            0.0000000000
     76026      9132  TIP3      OH2           -27.8637943081      -52.7919204948      -41.2417107004  TIP3      8732            0.0000000000
     76027      9132  TIP3      H1            -28.1442405412      -52.8226260035      -40.3082803014  TIP3      8732            0.0000000000
     76028      9132  TIP3      H2            -28.1372698391      -53.6723084852      -41.5285958363  TIP3      8732            0.0000000000
     76029      9133  TIP3      OH2           -32.0439362431      -50.0640598264      -30.7028330801  TIP3      8733            0.0000000000
     76030      9133  TIP3      H1            -32.8071791550      -50.0840984996      -30.0992132046  TIP3      8733            0.0000000000
     76031      9133  TIP3      H2            -32.0865841887      -49.1394472360      -31.0671056044  TIP3      8733            0.0000000000
     76032      9134  TIP3      OH2           -32.0949165661      -49.8706603037      -35.8540983097  TIP3      8734            0.0000000000
     76033      9134  TIP3      H1            -33.0163146044      -50.1866508531      -35.9589848924  TIP3      8734            0.0000000000
     76034      9134  TIP3      H2            -31.6795966307      -50.2249368011      -36.6634828841  TIP3      8734            0.0000000000
     76035      9135  TIP3      OH2           -26.5717041001      -49.4353581918      -37.0678733325  TIP3      8735            0.0000000000
     76036      9135  TIP3      H1            -26.9807011991      -48.6017187390      -37.3808722525  TIP3      8735            0.0000000000
     76037      9135  TIP3      H2            -25.8586180036      -49.5743052346      -37.7154600959  TIP3      8735            0.0000000000
     76038      9136  TIP3      OH2           -27.4774698900      -49.2400536713      -25.6263901994  TIP3      8736            0.0000000000
     76039      9136  TIP3      H1            -28.0287358954      -49.9684616232      -25.2528539106  TIP3      8736            0.0000000000
     76040      9136  TIP3      H2            -26.6575558127      -49.3567440065      -25.1049481164  TIP3      8736            0.0000000000
     76041      9137  TIP3      OH2           -25.5530196068      -49.9606575121      -34.2258697588  TIP3      8737            0.0000000000
     76042      9137  TIP3      H1            -25.7832843989      -49.3812952209      -34.9720847459  TIP3      8737            0.0000000000
     76043      9137  TIP3      H2            -25.4056239372      -50.8080753765      -34.6959252265  TIP3      8737            0.0000000000
     76044      9138  TIP3      OH2           -34.3389905610      -49.7802539466      -28.9544283315  TIP3      8738            0.0000000000
     76045      9138  TIP3      H1            -34.4047707418      -49.3513527247      -28.0819901706  TIP3      8738            0.0000000000
     76046      9138  TIP3      H2            -34.8740050227      -50.5828640613      -28.8299507684  TIP3      8738            0.0000000000
     76047      9139  TIP3      OH2           -30.8831505938      -52.2068849655      -41.8979010595  TIP3      8739            0.0000000000
     76048      9139  TIP3      H1            -31.4147569701      -52.8265073939      -41.3658012414  TIP3      8739            0.0000000000
     76049      9139  TIP3      H2            -31.5612282201      -51.9199419979      -42.5318204537  TIP3      8739            0.0000000000
     76050      9140  TIP3      OH2           -37.7688403329      -52.6521555165      -35.0618289979  TIP3      8740            0.0000000000
     76051      9140  TIP3      H1            -37.1031120460      -52.6808754055      -34.3446111442  TIP3      8740            0.0000000000
     76052      9140  TIP3      H2            -37.2905269534      -53.0479056078      -35.8112715733  TIP3      8740            0.0000000000
     76053      9141  TIP3      OH2           -36.4718258826      -51.9376973873      -39.6473760622  TIP3      8741            0.0000000000
     76054      9141  TIP3      H1            -35.9971943129      -51.3146450201      -40.2483673251  TIP3      8741            0.0000000000
     76055      9141  TIP3      H2            -37.1788005009      -51.3398028587      -39.3175616357  TIP3      8741            0.0000000000
     76056      9142  TIP3      OH2           -26.3291326331      -48.3407200113      -29.6170399289  TIP3      8742            0.0000000000
     76057      9142  TIP3      H1            -25.9621264879      -49.0015915542      -30.2372086767  TIP3      8742            0.0000000000
     76058      9142  TIP3      H2            -26.7561443912      -48.8844259279      -28.9406664230  TIP3      8742            0.0000000000
     76059      9143  TIP3      OH2           -29.5222314467      -52.4024502504      -34.8163817267  TIP3      8743            0.0000000000
     76060      9143  TIP3      H1            -30.4539988576      -52.3713329756      -34.5178713890  TIP3      8743            0.0000000000
     76061      9143  TIP3      H2            -29.0249419034      -52.5069260591      -33.9912936060  TIP3      8743            0.0000000000
     76062      9144  TIP3      OH2           -34.7025026473      -50.8019287183      -35.9597606192  TIP3      8744            0.0000000000
     76063      9144  TIP3      H1            -35.6008927260      -50.6829563396      -36.3294382238  TIP3      8744            0.0000000000
     76064      9144  TIP3      H2            -34.4117386219      -51.6493334480      -36.3338504334  TIP3      8744            0.0000000000
     76065      9145  TIP3      OH2           -31.0606758530      -50.7851723382      -38.3170225364  TIP3      8745            0.0000000000
     76066      9145  TIP3      H1            -30.1089782834      -50.6627340280      -38.1410309232  TIP3      8745            0.0000000000
     76067      9145  TIP3      H2            -31.2850703927      -50.1140413199      -38.9852388090  TIP3      8745            0.0000000000
     76068      9146  TIP3      OH2           -25.1129122494      -53.1604864207      -31.5709693301  TIP3      8746            0.0000000000
     76069      9146  TIP3      H1            -25.8084335942      -53.0597127445      -30.8838986580  TIP3      8746            0.0000000000
     76070      9146  TIP3      H2            -25.6200110501      -53.3647040991      -32.3621314752  TIP3      8746            0.0000000000
     76071      9147  TIP3      OH2           -32.3791128509      -49.6016026172      -40.7322263097  TIP3      8747            0.0000000000
     76072      9147  TIP3      H1            -32.9247597811      -49.9680382099      -41.4501843541  TIP3      8747            0.0000000000
     76073      9147  TIP3      H2            -31.5456575715      -49.4065595687      -41.1851594679  TIP3      8747            0.0000000000
     76074      9148  TIP3      OH2           -21.8771009084      -37.5140050973      -25.2522133527  TIP3      8748            0.0000000000
     76075      9148  TIP3      H1            -21.6339069934      -37.0944456428      -26.0977250261  TIP3      8748            0.0000000000
     76076      9148  TIP3      H2            -21.1845408712      -37.1713091494      -24.6576344754  TIP3      8748            0.0000000000
     76077      9149  TIP3      OH2           -34.2346577623      -45.0373162172      -25.6761989859  TIP3      8749            0.0000000000
     76078      9149  TIP3      H1            -33.5228022199      -44.7872874132      -25.0775495553  TIP3      8749            0.0000000000
     76079      9149  TIP3      H2            -35.0307516928      -44.8685594985      -25.1238701363  TIP3      8749            0.0000000000
     76080      9150  TIP3      OH2           -28.2299160328      -49.6231187051      -32.9119514380  TIP3      8750            0.0000000000
     76081      9150  TIP3      H1            -27.6484353179      -50.1688874860      -33.4606147184  TIP3      8750            0.0000000000
     76082      9150  TIP3      H2            -28.3644456284      -50.1654752412      -32.1313913898  TIP3      8750            0.0000000000
     76083      9151  TIP3      OH2           -33.2249909299      -53.4832737783      -36.4989090818  TIP3      8751            0.0000000000
     76084      9151  TIP3      H1            -33.5315156072      -54.4046131590      -36.5187139970  TIP3      8751            0.0000000000
     76085      9151  TIP3      H2            -32.4318303101      -53.5180109493      -37.0498999576  TIP3      8751            0.0000000000
     76086      9152  TIP3      OH2           -29.6071617360      -51.2681360299      -30.4846604932  TIP3      8752            0.0000000000
     76087      9152  TIP3      H1            -30.4321688437      -50.7655899946      -30.4350099599  TIP3      8752            0.0000000000
     76088      9152  TIP3      H2            -29.0232879835      -50.9567633868      -29.7721226393  TIP3      8752            0.0000000000
     76089      9153  TIP3      OH2           -29.0145731091      -45.0440837712      -38.8117628021  TIP3      8753            0.0000000000
     76090      9153  TIP3      H1            -29.7988135398      -45.5436216240      -39.1283676412  TIP3      8753            0.0000000000
     76091      9153  TIP3      H2            -29.2000358292      -44.9767099037      -37.8556272268  TIP3      8753            0.0000000000
     76092      9154  TIP3      OH2           -21.8618437184      -45.8794269439      -30.0106667194  TIP3      8754            0.0000000000
     76093      9154  TIP3      H1            -21.2614521948      -45.4244884311      -30.6169214809  TIP3      8754            0.0000000000
     76094      9154  TIP3      H2            -22.7144200364      -45.7997601547      -30.4945202097  TIP3      8754            0.0000000000
     76095      9155  TIP3      OH2           -25.1395601272      -52.2418216412      -40.6393480818  TIP3      8755            0.0000000000
     76096      9155  TIP3      H1            -26.0943212792      -52.1068150912      -40.7776931703  TIP3      8755            0.0000000000
     76097      9155  TIP3      H2            -24.8480613633      -51.3679554796      -40.3126925715  TIP3      8755            0.0000000000
     76098      9156  TIP3      OH2           -27.5308066055      -44.8262192586      -27.5846563474  TIP3      8756            0.0000000000
     76099      9156  TIP3      H1            -27.8648257468      -45.2307309287      -26.7800975712  TIP3      8756            0.0000000000
     76100      9156  TIP3      H2            -27.7363593642      -43.8938735385      -27.4983693588  TIP3      8756            0.0000000000
     76101      9157  TIP3      OH2           -24.4363925914      -50.3445486106      -38.9568642465  TIP3      8757            0.0000000000
     76102      9157  TIP3      H1            -23.5294971842      -50.4817903853      -38.6226673864  TIP3      8757            0.0000000000
     76103      9157  TIP3      H2            -24.3640987278      -49.5429821425      -39.4951897633  TIP3      8757            0.0000000000
     76104      9158  TIP3      OH2           -33.9154621882      -45.7065530390      -33.0273821308  TIP3      8758            0.0000000000
     76105      9158  TIP3      H1            -33.1864490727      -45.7490074440      -33.6750988131  TIP3      8758            0.0000000000
     76106      9158  TIP3      H2            -33.8389279962      -46.5570293616      -32.5629271250  TIP3      8758            0.0000000000
     76107      9159  TIP3      OH2           -26.9012524751      -43.5831719241      -39.7820120688  TIP3      8759            0.0000000000
     76108      9159  TIP3      H1            -27.2385950429      -42.7461584218      -39.4081205340  TIP3      8759            0.0000000000
     76109      9159  TIP3      H2            -27.6381484802      -44.2004573904      -39.5873212351  TIP3      8759            0.0000000000
     76110      9160  TIP3      OH2           -36.9151271506      -47.2628038844      -27.7412115350  TIP3      8760            0.0000000000
     76111      9160  TIP3      H1            -36.7035125847      -47.7048037451      -26.8985011225  TIP3      8760            0.0000000000
     76112      9160  TIP3      H2            -37.5232835521      -47.8910348211      -28.1683375034  TIP3      8760            0.0000000000
     76113      9161  TIP3      OH2           -29.8970361116      -47.7142602670      -25.5360298464  TIP3      8761            0.0000000000
     76114      9161  TIP3      H1            -30.1930703438      -47.9425234640      -26.4238423596  TIP3      8761            0.0000000000
     76115      9161  TIP3      H2            -28.9584655752      -48.0023718417      -25.5269627654  TIP3      8761            0.0000000000
     76116      9162  TIP3      OH2           -25.2417405824      -42.3872383458      -27.6379219751  TIP3      8762            0.0000000000
     76117      9162  TIP3      H1            -26.1663019736      -42.1966099970      -27.8758342634  TIP3      8762            0.0000000000
     76118      9162  TIP3      H2            -25.2491266527      -42.1097109338      -26.6985024679  TIP3      8762            0.0000000000
     76119      9163  TIP3      OH2           -19.5387905324      -50.1731224968      -39.2275103229  TIP3      8763            0.0000000000
     76120      9163  TIP3      H1            -20.1015835960      -50.5163538737      -39.9478979668  TIP3      8763            0.0000000000
     76121      9163  TIP3      H2            -19.4552230408      -49.2397976483      -39.5308009814  TIP3      8763            0.0000000000
     76122      9164  TIP3      OH2           -19.5514383955      -44.3040974694      -26.4118107463  TIP3      8764            0.0000000000
     76123      9164  TIP3      H1            -20.4530381986      -44.1241438007      -26.7846151344  TIP3      8764            0.0000000000
     76124      9164  TIP3      H2            -18.9940598155      -44.3943261890      -27.1970044931  TIP3      8764            0.0000000000
     76125      9165  TIP3      OH2           -21.2724684503      -41.3423227190      -38.8229436785  TIP3      8765            0.0000000000
     76126      9165  TIP3      H1            -21.6124681352      -42.1876914595      -38.4888442285  TIP3      8765            0.0000000000
     76127      9165  TIP3      H2            -20.9496880728      -41.5572694955      -39.7182125580  TIP3      8765            0.0000000000
     76128      9166  TIP3      OH2           -24.0659317205      -46.5399636823      -31.7515643541  TIP3      8766            0.0000000000
     76129      9166  TIP3      H1            -25.0082506087      -46.7745190307      -31.8211796148  TIP3      8766            0.0000000000
     76130      9166  TIP3      H2            -23.6307940702      -47.3248523145      -32.1307733325  TIP3      8766            0.0000000000
     76131      9167  TIP3      OH2           -31.5345716986      -42.2233270999      -35.6376463538  TIP3      8767            0.0000000000
     76132      9167  TIP3      H1            -31.0231137466      -41.4207762287      -35.8415030387  TIP3      8767            0.0000000000
     76133      9167  TIP3      H2            -32.4181281843      -41.9868215557      -35.9513676665  TIP3      8767            0.0000000000
     76134      9168  TIP3      OH2           -35.7953710271      -47.3650423670      -41.0748044150  TIP3      8768            0.0000000000
     76135      9168  TIP3      H1            -35.1702628262      -46.7330327801      -40.6753094476  TIP3      8768            0.0000000000
     76136      9168  TIP3      H2            -36.6611348360      -47.0517115220      -40.7762008536  TIP3      8768            0.0000000000
     76137      9169  TIP3      OH2           -30.1012902433      -44.5609726231      -36.0852322952  TIP3      8769            0.0000000000
     76138      9169  TIP3      H1            -30.3850434351      -43.6284807549      -36.0206690823  TIP3      8769            0.0000000000
     76139      9169  TIP3      H2            -30.8545387965      -45.0248667582      -35.6675288774  TIP3      8769            0.0000000000
     76140      9170  TIP3      OH2           -29.6412958269      -40.3918137503      -29.7343888284  TIP3      8770            0.0000000000
     76141      9170  TIP3      H1            -29.2260453288      -39.5518206264      -29.9938818424  TIP3      8770            0.0000000000
     76142      9170  TIP3      H2            -29.0562214977      -40.7002335018      -29.0169062400  TIP3      8770            0.0000000000
     76143      9171  TIP3      OH2           -31.4301640947      -39.5626379052      -36.5473582277  TIP3      8771            0.0000000000
     76144      9171  TIP3      H1            -32.3943785025      -39.4135215571      -36.4534417404  TIP3      8771            0.0000000000
     76145      9171  TIP3      H2            -31.0731431463      -38.7119551601      -36.1970694989  TIP3      8771            0.0000000000
     76146      9172  TIP3      OH2           -26.0861547349      -44.3289792781      -30.0661765648  TIP3      8772            0.0000000000
     76147      9172  TIP3      H1            -26.4782382437      -44.5461588318      -29.1995661138  TIP3      8772            0.0000000000
     76148      9172  TIP3      H2            -25.4788979171      -45.0631904930      -30.2404372867  TIP3      8772            0.0000000000
     76149      9173  TIP3      OH2           -23.8481540896      -43.3385183828      -40.9727011463  TIP3      8773            0.0000000000
     76150      9173  TIP3      H1            -23.5203709455      -43.7794268776      -40.1604190415  TIP3      8773            0.0000000000
     76151      9173  TIP3      H2            -24.8052079180      -43.4895169614      -40.8877535542  TIP3      8773            0.0000000000
     76152      9174  TIP3      OH2           -23.3483934075      -39.7821201754      -27.5786345895  TIP3      8774            0.0000000000
     76153      9174  TIP3      H1            -24.0148956752      -40.2945033513      -28.0801401193  TIP3      8774            0.0000000000
     76154      9174  TIP3      H2            -23.1370024116      -39.0798174223      -28.2297337209  TIP3      8774            0.0000000000
     76155      9175  TIP3      OH2           -19.3454963532      -38.9097791579      -40.7430556894  TIP3      8775            0.0000000000
     76156      9175  TIP3      H1            -18.6163982465      -38.3017260854      -40.9536545470  TIP3      8775            0.0000000000
     76157      9175  TIP3      H2            -20.0488585630      -38.3106191023      -40.4464504891  TIP3      8775            0.0000000000
     76158      9176  TIP3      OH2           -35.2523547521      -52.5181278498      -28.1764147477  TIP3      8776            0.0000000000
     76159      9176  TIP3      H1            -36.1717291570      -52.1877228167      -28.2272816472  TIP3      8776            0.0000000000
     76160      9176  TIP3      H2            -35.3923524510      -53.3892614112      -27.7600702223  TIP3      8776            0.0000000000
     76161      9177  TIP3      OH2           -23.0039927581      -44.6864824266      -38.7617582529  TIP3      8777            0.0000000000
     76162      9177  TIP3      H1            -23.2618086215      -45.4522261037      -38.2045433429  TIP3      8777            0.0000000000
     76163      9177  TIP3      H2            -22.0613787018      -44.5996613636      -38.5391274333  TIP3      8777            0.0000000000
     76164      9178  TIP3      OH2           -35.6282746213      -40.7227038818      -29.7606915546  TIP3      8778            0.0000000000
     76165      9178  TIP3      H1            -35.3844649305      -41.6627097082      -29.7656189705  TIP3      8778            0.0000000000
     76166      9178  TIP3      H2            -35.3791277997      -40.4536116537      -28.8675725074  TIP3      8778            0.0000000000
     76167      9179  TIP3      OH2           -30.8514349583      -42.6914537951      -40.0857725261  TIP3      8779            0.0000000000
     76168      9179  TIP3      H1            -30.6644310888      -43.2164554081      -39.2934013926  TIP3      8779            0.0000000000
     76169      9179  TIP3      H2            -30.8267943232      -41.7711975841      -39.7487681043  TIP3      8779            0.0000000000
     76170      9180  TIP3      OH2           -34.3897690480      -45.4462644394      -39.5853585911  TIP3      8780            0.0000000000
     76171      9180  TIP3      H1            -35.0662405162      -45.0646277738      -38.9930802307  TIP3      8780            0.0000000000
     76172      9180  TIP3      H2            -33.8464396360      -44.6735324963      -39.8103405572  TIP3      8780            0.0000000000
     76173      9181  TIP3      OH2           -26.5554421236      -52.7635994797      -29.2656196838  TIP3      8781            0.0000000000
     76174      9181  TIP3      H1            -25.8257393306      -52.7142643098      -28.6264991914  TIP3      8781            0.0000000000
     76175      9181  TIP3      H2            -26.9142786151      -53.6581573256      -29.0974061189  TIP3      8781            0.0000000000
     76176      9182  TIP3      OH2           -25.7711372966      -53.1540788538      -38.1607439323  TIP3      8782            0.0000000000
     76177      9182  TIP3      H1            -25.5369943556      -52.6749244297      -38.9857791703  TIP3      8782            0.0000000000
     76178      9182  TIP3      H2            -25.1955050952      -52.7330564647      -37.5175207485  TIP3      8782            0.0000000000
     76179      9183  TIP3      OH2           -28.0838912141      -41.0126540488      -39.3309011561  TIP3      8783            0.0000000000
     76180      9183  TIP3      H1            -28.9083869248      -40.4959287111      -39.2696968324  TIP3      8783            0.0000000000
     76181      9183  TIP3      H2            -27.5618070693      -40.5138157028      -39.9736298659  TIP3      8783            0.0000000000
     76182      9184  TIP3      OH2           -28.5620087812      -51.4182573952      -37.3487753700  TIP3      8784            0.0000000000
     76183      9184  TIP3      H1            -27.7499399484      -50.8803136787      -37.3108872677  TIP3      8784            0.0000000000
     76184      9184  TIP3      H2            -28.8109154634      -51.5521070548      -36.4213904566  TIP3      8784            0.0000000000
     76185      9185  TIP3      OH2           -28.0573497530      -50.4364901241      -28.1543680439  TIP3      8785            0.0000000000
     76186      9185  TIP3      H1            -27.8912819454      -49.8380470992      -27.3904686124  TIP3      8785            0.0000000000
     76187      9185  TIP3      H2            -27.3528902731      -51.1036610210      -28.0521318096  TIP3      8785            0.0000000000
     76188      9186  TIP3      OH2           -27.6994994515      -54.3298580173      -36.4278115740  TIP3      8786            0.0000000000
     76189      9186  TIP3      H1            -28.0264096151      -53.6965022959      -35.7749161471  TIP3      8786            0.0000000000
     76190      9186  TIP3      H2            -27.0078000785      -53.8071810580      -36.8985739141  TIP3      8786            0.0000000000
     76191      9187  TIP3      OH2           -30.7430975053      -39.9847212092      -39.3424194714  TIP3      8787            0.0000000000
     76192      9187  TIP3      H1            -30.5719108360      -39.1483630406      -39.8281631323  TIP3      8787            0.0000000000
     76193      9187  TIP3      H2            -30.9543391765      -39.6417994840      -38.4420812090  TIP3      8787            0.0000000000
     76194      9188  TIP3      OH2           -32.0374933000      -53.2704361102      -39.7378108008  TIP3      8788            0.0000000000
     76195      9188  TIP3      H1            -32.0999887925      -52.3600612924      -39.3776151126  TIP3      8788            0.0000000000
     76196      9188  TIP3      H2            -31.1267856866      -53.5052282171      -39.4700108163  TIP3      8788            0.0000000000
     76197      9189  TIP3      OH2           -21.8085943077      -52.5034823473      -27.3076732203  TIP3      8789            0.0000000000
     76198      9189  TIP3      H1            -22.7478872960      -52.2398517195      -27.4307156337  TIP3      8789            0.0000000000
     76199      9189  TIP3      H2            -21.4912941396      -52.5395568693      -28.2272129407  TIP3      8789            0.0000000000
     76200      9190  TIP3      OH2           -23.2155130910      -48.7492499418      -33.2604901181  TIP3      8790            0.0000000000
     76201      9190  TIP3      H1            -24.0276299465      -49.1865390256      -33.5676440177  TIP3      8790            0.0000000000
     76202      9190  TIP3      H2            -22.7527950909      -49.4526850188      -32.7514246333  TIP3      8790            0.0000000000
     76203      9191  TIP3      OH2           -33.7794368940      -42.8324427482      -40.6805958156  TIP3      8791            0.0000000000
     76204      9191  TIP3      H1            -33.1653361671      -42.1489058588      -40.3826846459  TIP3      8791            0.0000000000
     76205      9191  TIP3      H2            -33.2842572235      -43.2758133266      -41.3844401596  TIP3      8791            0.0000000000
     76206      9192  TIP3      OH2           -35.4273823057      -50.1650386191      -41.5226384855  TIP3      8792            0.0000000000
     76207      9192  TIP3      H1            -35.4727617112      -49.2051357736      -41.3769530130  TIP3      8792            0.0000000000
     76208      9192  TIP3      H2            -36.3140604810      -50.3864582812      -41.8370321760  TIP3      8792            0.0000000000
     76209      9193  TIP3      OH2           -22.1385884340      -39.5159506476      -31.6065488691  TIP3      8793            0.0000000000
     76210      9193  TIP3      H1            -22.2688302744      -38.8194201499      -32.2875699121  TIP3      8793            0.0000000000
     76211      9193  TIP3      H2            -21.1833537008      -39.4231985499      -31.4315722027  TIP3      8793            0.0000000000
     76212      9194  TIP3      OH2           -34.6172163382      -55.3411931983      -32.8637255286  TIP3      8794            0.0000000000
     76213      9194  TIP3      H1            -34.8649724701      -55.3252366675      -33.8121762527  TIP3      8794            0.0000000000
     76214      9194  TIP3      H2            -35.0739420615      -56.1705658544      -32.5747759331  TIP3      8794            0.0000000000
     76215      9195  TIP3      OH2           -35.6964325382      -41.4559302212      -36.6971019763  TIP3      8795            0.0000000000
     76216      9195  TIP3      H1            -36.5396787211      -40.9788475232      -36.7014515137  TIP3      8795            0.0000000000
     76217      9195  TIP3      H2            -35.1812466829      -40.9508989097      -37.3391396584  TIP3      8795            0.0000000000
     76218      9196  TIP3      OH2           -36.4381376242      -38.8256659070      -25.4067165812  TIP3      8796            0.0000000000
     76219      9196  TIP3      H1            -35.8783404882      -39.0297165769      -24.6321177949  TIP3      8796            0.0000000000
     76220      9196  TIP3      H2            -36.9051634661      -39.6564343068      -25.5657917208  TIP3      8796            0.0000000000
     76221      9197  TIP3      OH2           -31.8273412231      -39.9222908224      -23.7621275583  TIP3      8797            0.0000000000
     76222      9197  TIP3      H1            -31.0358465712      -40.3557155153      -23.4418183102  TIP3      8797            0.0000000000
     76223      9197  TIP3      H2            -31.8457102247      -40.1375069622      -24.7150229906  TIP3      8797            0.0000000000
     76224      9198  TIP3      OH2           -27.3931430296      -40.2510426908      -41.9007427278  TIP3      8798            0.0000000000
     76225      9198  TIP3      H1            -28.1949749539      -40.8348502909      -41.9619028264  TIP3      8798            0.0000000000
     76226      9198  TIP3      H2            -26.9346063185      -40.8211113385      -42.5250248661  TIP3      8798            0.0000000000
     76227      9199  TIP3      OH2           -25.2666111422      -41.5165016288      -25.0597488314  TIP3      8799            0.0000000000
     76228      9199  TIP3      H1            -25.5952060127      -42.3923630039      -24.7799976035  TIP3      8799            0.0000000000
     76229      9199  TIP3      H2            -24.5147952953      -41.3871679635      -24.4460023521  TIP3      8799            0.0000000000
     76230      9200  TIP3      OH2           -23.1084317365      -40.5607435711      -42.1353678597  TIP3      8800            0.0000000000
     76231      9200  TIP3      H1            -22.8431652783      -41.4075424366      -41.7129989256  TIP3      8800            0.0000000000
     76232      9200  TIP3      H2            -22.3633288905      -40.3809612538      -42.7325324126  TIP3      8800            0.0000000000
     76233      9201  TIP3      OH2           -36.5196060006      -45.0297120943      -24.3911896514  TIP3      8801            0.0000000000
     76234      9201  TIP3      H1            -36.3834655589      -45.9302422227      -24.7351509520  TIP3      8801            0.0000000000
     76235      9201  TIP3      H2            -37.2854140716      -44.7406551210      -24.9349014267  TIP3      8801            0.0000000000
     76236      9202  TIP3      OH2           -32.1551124444      -44.6414319964      -42.2811384071  TIP3      8802            0.0000000000
     76237      9202  TIP3      H1            -32.1076110172      -45.4580740362      -41.7562847897  TIP3      8802            0.0000000000
     76238      9202  TIP3      H2            -31.5173790337      -44.8307133933      -42.9399951104  TIP3      8802            0.0000000000
     76239      9203  TIP3      OH2           -29.9033531895      -45.0131340670      -24.9658153500  TIP3      8803            0.0000000000
     76240      9203  TIP3      H1            -30.1798957594      -44.7681167623      -25.8791609757  TIP3      8803            0.0000000000
     76241      9203  TIP3      H2            -29.7235185066      -45.9887926140      -25.0913493939  TIP3      8803            0.0000000000
     76242      9204  TIP3      OH2           -24.1443223329      -45.1683703089      -27.6198602934  TIP3      8804            0.0000000000
     76243      9204  TIP3      H1            -23.3792994777      -44.5622868715      -27.7140747728  TIP3      8804            0.0000000000
     76244      9204  TIP3      H2            -24.8681623487      -44.5345055934      -27.5602852609  TIP3      8804            0.0000000000
     76245      9205  TIP3      OH2           -35.6731936738      -47.8087032518      -25.0009128336  TIP3      8805            0.0000000000
     76246      9205  TIP3      H1            -35.2682807420      -48.6731178589      -25.1361626771  TIP3      8805            0.0000000000
     76247      9205  TIP3      H2            -35.9404773106      -47.8194681137      -24.0919164177  TIP3      8805            0.0000000000
     76248      9206  TIP3      OH2           -31.0224666747      -46.6653422052      -39.9890143770  TIP3      8806            0.0000000000
     76249      9206  TIP3      H1            -31.4911464247      -47.1894973124      -39.3108326031  TIP3      8806            0.0000000000
     76250      9206  TIP3      H2            -30.7398997361      -47.3771130481      -40.6088788420  TIP3      8806            0.0000000000
     76251      9207  TIP3      OH2           -31.7513005858      -48.5536866425      -27.5758578683  TIP3      8807            0.0000000000
     76252      9207  TIP3      H1            -32.4891402306      -47.9512207955      -27.3658631884  TIP3      8807            0.0000000000
     76253      9207  TIP3      H2            -31.4440724424      -48.3506521405      -28.4908759005  TIP3      8807            0.0000000000
     76254      9208  TIP3      OH2           -29.9551815962      -48.4327985999      -41.7420235817  TIP3      8808            0.0000000000
     76255      9208  TIP3      H1            -30.1014505101      -48.6382178947      -42.6717724052  TIP3      8808            0.0000000000
     76256      9208  TIP3      H2            -28.9735371272      -48.3617553251      -41.6644141320  TIP3      8808            0.0000000000
     76257      9209  TIP3      OH2           -26.7164307527      -46.2995048204      -24.2960968930  TIP3      8809            0.0000000000
     76258      9209  TIP3      H1            -25.7588290762      -46.2844032854      -24.4140795444  TIP3      8809            0.0000000000
     76259      9209  TIP3      H2            -26.8688233414      -47.0764056398      -23.7369910502  TIP3      8809            0.0000000000
     76260      9210  TIP3      OH2           -20.6827946310      -46.0394140619       42.7725983125  TIP3      8810            0.0000000000
     76261      9210  TIP3      H1            -20.8392762055      -46.5135779803       41.9315481927  TIP3      8810            0.0000000000
     76262      9210  TIP3      H2            -20.5249497440      -45.1304997455       42.4962949619  TIP3      8810            0.0000000000
     76263      9211  TIP3      OH2           -31.3858711643      -51.6498657458      -26.4290262558  TIP3      8811            0.0000000000
     76264      9211  TIP3      H1            -31.2388225082      -52.2741165026      -27.1598908599  TIP3      8811            0.0000000000
     76265      9211  TIP3      H2            -31.5146186691      -50.8136136004      -26.8412574557  TIP3      8811            0.0000000000
     76266      9212  TIP3      OH2           -30.9734739075      -53.0463704442      -29.0305005286  TIP3      8812            0.0000000000
     76267      9212  TIP3      H1            -30.4277996494      -52.6542635224      -29.7545778644  TIP3      8812            0.0000000000
     76268      9212  TIP3      H2            -31.8415962077      -53.2069802883      -29.4831851538  TIP3      8812            0.0000000000
     76269      9213  TIP3      OH2           -29.4200802609      -47.6703617441      -28.8237465441  TIP3      8813            0.0000000000
     76270      9213  TIP3      H1            -28.6410562680      -47.7830732637      -29.3869228211  TIP3      8813            0.0000000000
     76271      9213  TIP3      H2            -29.7424784920      -46.7877140551      -29.1035775749  TIP3      8813            0.0000000000
     76272      9214  TIP3      OH2           -24.9922126315      -49.8306947801      -23.8081459499  TIP3      8814            0.0000000000
     76273      9214  TIP3      H1            -24.7875685623      -50.7648517450      -23.8900080702  TIP3      8814            0.0000000000
     76274      9214  TIP3      H2            -24.1253537840      -49.4116763512      -23.8116474875  TIP3      8814            0.0000000000
     76275      9215  TIP3      OH2           -23.6942198663      -47.0566428903      -25.6881516117  TIP3      8815            0.0000000000
     76276      9215  TIP3      H1            -23.9282973543      -46.3296214242      -26.2988194454  TIP3      8815            0.0000000000
     76277      9215  TIP3      H2            -22.7273638790      -47.1032042686      -25.8661374058  TIP3      8815            0.0000000000
     76278      9216  TIP3      OH2           -32.9175351619      -50.2301549047      -24.6597235740  TIP3      8816            0.0000000000
     76279      9216  TIP3      H1            -33.6815226925      -50.8081998005      -24.8483499601  TIP3      8816            0.0000000000
     76280      9216  TIP3      H2            -32.2313013541      -50.5863156630      -25.2361933729  TIP3      8816            0.0000000000
     76281      9217  TIP3      OH2           -30.1605948875      -55.6515489076      -28.6288282693  TIP3      8817            0.0000000000
     76282      9217  TIP3      H1            -30.2927941494      -54.6914161289      -28.7465536428  TIP3      8817            0.0000000000
     76283      9217  TIP3      H2            -30.9211335970      -56.0151548783      -29.1220842685  TIP3      8817            0.0000000000
     76284      9218  TIP3      OH2           -28.8977533192      -51.3248957248      -25.0774513734  TIP3      8818            0.0000000000
     76285      9218  TIP3      H1            -29.1442600054      -51.5279385592      -24.1464874059  TIP3      8818            0.0000000000
     76286      9218  TIP3      H2            -29.7069087954      -51.5427176713      -25.5477647584  TIP3      8818            0.0000000000
     76287      9219  TIP3      OH2           -26.1848128257      -52.1957759016      -25.9925862516  TIP3      8819            0.0000000000
     76288      9219  TIP3      H1            -27.1398789422      -52.1576833742      -25.8347695590  TIP3      8819            0.0000000000
     76289      9219  TIP3      H2            -25.8904413122      -52.8122518113      -25.3013768952  TIP3      8819            0.0000000000
     76290      9220  TIP3      OH2           -24.5671679399      -53.5418306725      -23.9822835190  TIP3      8820            0.0000000000
     76291      9220  TIP3      H1            -24.6632699455      -54.5150748144      -24.0034172800  TIP3      8820            0.0000000000
     76292      9220  TIP3      H2            -24.8881430987      -53.2905693587      -23.1101993789  TIP3      8820            0.0000000000
     76293      9221  TIP3      OH2           -34.7358750080      -52.3061789730      -24.9360459760  TIP3      8821            0.0000000000
     76294      9221  TIP3      H1            -34.5395960636      -53.0483079774      -25.5470914679  TIP3      8821            0.0000000000
     76295      9221  TIP3      H2            -34.8661373364      -52.7711772793      -24.1024206199  TIP3      8821            0.0000000000
     76296      9222  TIP3      OH2           -29.9813170825       56.5274712005      -25.9499949481  TIP3      8822            0.0000000000
     76297      9222  TIP3      H1            -29.2476456881       55.8671200924      -25.9815290066  TIP3      8822            0.0000000000
     76298      9222  TIP3      H2            -30.0456894764       56.7429038143      -26.8909787687  TIP3      8822            0.0000000000
     76299      9223  TIP3      OH2           -29.6132552544      -54.6735045515      -23.8641324051  TIP3      8823            0.0000000000
     76300      9223  TIP3      H1            -29.7299121908      -55.1529235277      -24.7183441710  TIP3      8823            0.0000000000
     76301      9223  TIP3      H2            -30.1853261378      -53.8974605971      -23.9642873262  TIP3      8823            0.0000000000
     76302      9224  TIP3      OH2           -30.0828069671      -37.7783518140      -40.7577076197  TIP3      8824            0.0000000000
     76303      9224  TIP3      H1            -29.1293696694      -37.6201185999      -40.5834205440  TIP3      8824            0.0000000000
     76304      9224  TIP3      H2            -30.3054265164      -37.0802369241      -41.3647678570  TIP3      8824            0.0000000000
     76305      9225  TIP3      OH2           -36.5163864980      -43.1405005797      -41.2229826436  TIP3      8825            0.0000000000
     76306      9225  TIP3      H1            -35.5631219116      -43.0608410251      -40.9792346877  TIP3      8825            0.0000000000
     76307      9225  TIP3      H2            -36.4838636603      -43.7964049439      -41.9265888374  TIP3      8825            0.0000000000
     76308      9226  TIP3      OH2           -37.8004766554      -37.7558965311      -36.2029024812  TIP3      8826            0.0000000000
     76309      9226  TIP3      H1            -38.4914366824      -38.2371012211      -36.7039734529  TIP3      8826            0.0000000000
     76310      9226  TIP3      H2            -37.4886552897      -38.4283300272      -35.5756121045  TIP3      8826            0.0000000000
     76311      9227  TIP3      OH2           -36.9610636078      -39.6570457401      -34.3715719619  TIP3      8827            0.0000000000
     76312      9227  TIP3      H1            -37.3086099615      -40.5420487194      -34.1785862620  TIP3      8827            0.0000000000
     76313      9227  TIP3      H2            -36.7351619534      -39.3202380746      -33.4852498372  TIP3      8827            0.0000000000
     76314      9228  TIP3      OH2           -19.4090780301      -38.8800699753      -31.3932426381  TIP3      8828            0.0000000000
     76315      9228  TIP3      H1            -19.4198105764      -38.6542915056      -30.4504228364  TIP3      8828            0.0000000000
     76316      9228  TIP3      H2            -18.7291531475      -38.2740730712      -31.7282548928  TIP3      8828            0.0000000000
     76317      9229  TIP3      OH2           -19.8188595888      -39.2832169710      -28.4882344843  TIP3      8829            0.0000000000
     76318      9229  TIP3      H1            -20.3645552456      -40.0141758938      -28.8370178517  TIP3      8829            0.0000000000
     76319      9229  TIP3      H2            -19.3304799580      -39.6728855783      -27.7534191767  TIP3      8829            0.0000000000
     76320      9230  TIP3      OH2           -21.3929053757      -43.5496984659      -23.7841764656  TIP3      8830            0.0000000000
     76321      9230  TIP3      H1            -22.2982490209      -43.5793245323      -23.4462204620  TIP3      8830            0.0000000000
     76322      9230  TIP3      H2            -21.0390884860      -42.7225844717      -23.3874582271  TIP3      8830            0.0000000000
     76323      9231  TIP3      OH2           -20.0959749900      -45.2220549136      -38.3468453483  TIP3      8831            0.0000000000
     76324      9231  TIP3      H1            -19.2373148152      -44.8131393168      -38.1707646152  TIP3      8831            0.0000000000
     76325      9231  TIP3      H2            -20.0957973281      -45.9619295845      -37.6953820501  TIP3      8831            0.0000000000
     76326      9232  TIP3      OH2           -19.7175615324      -47.1557222708      -36.4972024030  TIP3      8832            0.0000000000
     76327      9232  TIP3      H1            -20.4557507731      -47.6613446852      -36.0924375354  TIP3      8832            0.0000000000
     76328      9232  TIP3      H2            -19.1213523046      -46.9859775090      -35.7391420019  TIP3      8832            0.0000000000
     76329      9233  TIP3      OH2           -19.9520207759      -44.4162504279      -31.4978514416  TIP3      8833            0.0000000000
     76330      9233  TIP3      H1            -19.1283334304      -44.7971140137      -31.8603272165  TIP3      8833            0.0000000000
     76331      9233  TIP3      H2            -19.8341566239      -43.4651517100      -31.6881546398  TIP3      8833            0.0000000000
     76332      9234  TIP3      OH2           -21.4023521302      -41.5354226684      -29.2221555253  TIP3      8834            0.0000000000
     76333      9234  TIP3      H1            -22.1115320721      -41.1935231834      -28.6296195366  TIP3      8834            0.0000000000
     76334      9234  TIP3      H2            -21.9796533506      -41.9456770184      -29.9204781645  TIP3      8834            0.0000000000
     76335      9235  TIP3      OH2           -19.4306415242      -47.3046391204      -40.1034673993  TIP3      8835            0.0000000000
     76336      9235  TIP3      H1            -19.9838109027      -46.9306807556      -40.8146707617  TIP3      8835            0.0000000000
     76337      9235  TIP3      H2            -19.4859987820      -46.6046119130      -39.4260080939  TIP3      8835            0.0000000000
     76338      9236  TIP3      OH2           -21.3132987245      -50.0322276240      -41.4710043180  TIP3      8836            0.0000000000
     76339      9236  TIP3      H1            -20.9874498964      -49.4257023885      -42.1628734016  TIP3      8836            0.0000000000
     76340      9236  TIP3      H2            -21.2304392282      -50.8617956005      -41.9892715928  TIP3      8836            0.0000000000
     76341      9237  TIP3      OH2           -21.9117616838      -48.6582139870      -35.9305521258  TIP3      8837            0.0000000000
     76342      9237  TIP3      H1            -22.0660998819      -49.6142801756      -35.9470743691  TIP3      8837            0.0000000000
     76343      9237  TIP3      H2            -22.2638373070      -48.4050095274      -35.0617515210  TIP3      8837            0.0000000000
     76344      9238  TIP3      OH2           -36.8916228414      -46.5806020490      -31.8803359567  TIP3      8838            0.0000000000
     76345      9238  TIP3      H1            -36.7073323315      -46.6592418458      -32.8440785953  TIP3      8838            0.0000000000
     76346      9238  TIP3      H2            -36.0096329298      -46.7268082510      -31.4993998518  TIP3      8838            0.0000000000
     76347      9239  TIP3      OH2           -21.0666602125      -46.6869441010      -26.2864154518  TIP3      8839            0.0000000000
     76348      9239  TIP3      H1            -20.4660214446      -47.4383588410      -26.0872387220  TIP3      8839            0.0000000000
     76349      9239  TIP3      H2            -20.4775301381      -45.9167687318      -26.2253848322  TIP3      8839            0.0000000000
     76350      9240  TIP3      OH2           -19.5510803470      -48.7904643464      -25.5823408648  TIP3      8840            0.0000000000
     76351      9240  TIP3      H1            -20.4322541640      -49.1860129700      -25.7607332101  TIP3      8840            0.0000000000
     76352      9240  TIP3      H2            -18.9643892223      -49.5584796313      -25.6760535783  TIP3      8840            0.0000000000
     76353      9241  TIP3      OH2           -21.8261515519      -52.6147860623      -42.4335584506  TIP3      8841            0.0000000000
     76354      9241  TIP3      H1            -21.2255798956      -53.0338207919      -41.7918953058  TIP3      8841            0.0000000000
     76355      9241  TIP3      H2            -22.6814949352      -53.0382393516      -42.2499581736  TIP3      8841            0.0000000000
     76356      9242  TIP3      OH2           -22.2296663687      -51.0722919944      -37.4568516969  TIP3      8842            0.0000000000
     76357      9242  TIP3      H1            -21.9248725576      -51.9982201934      -37.3394298888  TIP3      8842            0.0000000000
     76358      9242  TIP3      H2            -21.4492945534      -50.6581760179      -37.8517783117  TIP3      8842            0.0000000000
     76359      9243  TIP3      OH2           -21.6101011653      -50.5134085615      -32.0327798472  TIP3      8843            0.0000000000
     76360      9243  TIP3      H1            -20.6500284327      -50.2878798794      -32.0471203551  TIP3      8843            0.0000000000
     76361      9243  TIP3      H2            -21.8121491001      -50.3986503181      -31.0892567239  TIP3      8843            0.0000000000
     76362      9244  TIP3      OH2           -21.5506022623      -49.7844303031      -29.2488891783  TIP3      8844            0.0000000000
     76363      9244  TIP3      H1            -22.4169551796      -49.4944594544      -28.8894202032  TIP3      8844            0.0000000000
     76364      9244  TIP3      H2            -21.1123907645      -48.9287650982      -29.4597581326  TIP3      8844            0.0000000000
     76365      9245  TIP3      OH2           -37.2829211811      -51.2784400331      -25.7497295872  TIP3      8845            0.0000000000
     76366      9245  TIP3      H1            -36.3536159210      -51.4756810703      -25.5345993601  TIP3      8845            0.0000000000
     76367      9245  TIP3      H2            -37.7390975934      -52.0806773276      -25.4050357050  TIP3      8845            0.0000000000
     76368      9246  TIP3      OH2           -19.2055903073      -55.7127117682      -23.7815239110  TIP3      8846            0.0000000000
     76369      9246  TIP3      H1            -18.9764611271      -56.3878190758      -24.4984531318  TIP3      8846            0.0000000000
     76370      9246  TIP3      H2            -19.1646393106      -54.9482553992      -24.3869764374  TIP3      8846            0.0000000000
     76371      9247  TIP3      OH2           -21.5843202733      -53.8004130778      -37.4156012692  TIP3      8847            0.0000000000
     76372      9247  TIP3      H1            -21.4015489641      -54.2619582992      -36.5741179655  TIP3      8847            0.0000000000
     76373      9247  TIP3      H2            -22.2020428173      -54.4162690616      -37.8751078345  TIP3      8847            0.0000000000
     76374      9248  TIP3      OH2           -36.0849178545      -52.9928325920      -32.8860524636  TIP3      8848            0.0000000000
     76375      9248  TIP3      H1            -35.6184337512      -53.7966787343      -32.5817304036  TIP3      8848            0.0000000000
     76376      9248  TIP3      H2            -35.5784674389      -52.2855499985      -32.4589526890  TIP3      8848            0.0000000000
     76377      9249  TIP3      OH2           -37.7905986200      -50.0039105984      -31.8106217313  TIP3      8849            0.0000000000
     76378      9249  TIP3      H1            -37.2490393532      -50.2221343501      -32.5983488115  TIP3      8849            0.0000000000
     76379      9249  TIP3      H2            -37.3721825344      -49.1702528889      -31.5442041676  TIP3      8849            0.0000000000
     76380      9250  TIP3      OH2           -19.7385615560      -53.6359701058      -25.5477689731  TIP3      8850            0.0000000000
     76381      9250  TIP3      H1            -20.6820802504      -53.4160061830      -25.6007102787  TIP3      8850            0.0000000000
     76382      9250  TIP3      H2            -19.6666159210      -54.2438456236      -26.3217590980  TIP3      8850            0.0000000000
     76383      9251  TIP3      OH2           -19.7493819762      -53.7550365256      -40.8546330325  TIP3      8851            0.0000000000
     76384      9251  TIP3      H1            -19.3143994042      -54.4610668860      -41.3614979331  TIP3      8851            0.0000000000
     76385      9251  TIP3      H2            -19.0411531233      -53.0874961316      -40.8328174615  TIP3      8851            0.0000000000
     76386      9252  TIP3      OH2           -37.4486782416      -53.7890129970      -37.7760589382  TIP3      8852            0.0000000000
     76387      9252  TIP3      H1            -38.3731273040      -53.5077521663      -37.8834361835  TIP3      8852            0.0000000000
     76388      9252  TIP3      H2            -36.9938767414      -53.2412453283      -38.4516682567  TIP3      8852            0.0000000000
     76389      9253  TIP3      OH2           -22.6981553211      -38.7544408195      -35.8259917109  TIP3      8853            0.0000000000
     76390      9253  TIP3      H1            -22.0053874179      -39.1077433608      -36.4070692575  TIP3      8853            0.0000000000
     76391      9253  TIP3      H2            -22.1710478448      -38.2789667370      -35.1572414559  TIP3      8853            0.0000000000
     76392      9254  TIP3      OH2           -37.4680990516      -55.0161482738      -29.4213812523  TIP3      8854            0.0000000000
     76393      9254  TIP3      H1            -38.1454944796      -55.2516019654      -28.7674955827  TIP3      8854            0.0000000000
     76394      9254  TIP3      H2            -37.9348647265      -54.3835445246      -30.0029624127  TIP3      8854            0.0000000000
     76395      9255  TIP3      OH2           -35.2627382737      -41.8595162143      -25.2726715563  TIP3      8855            0.0000000000
     76396      9255  TIP3      H1            -36.1080934009      -41.6560157060      -25.7183436668  TIP3      8855            0.0000000000
     76397      9255  TIP3      H2            -35.5540380121      -41.9090772271      -24.3569014681  TIP3      8855            0.0000000000
     76398      9256  TIP3      OH2           -32.3523271137      -40.8737971041      -29.0018317750  TIP3      8856            0.0000000000
     76399      9256  TIP3      H1            -32.7297598721      -40.0305081588      -29.2933619113  TIP3      8856            0.0000000000
     76400      9256  TIP3      H2            -31.4277249552      -40.7669566387      -29.3180796726  TIP3      8856            0.0000000000
     76401      9257  TIP3      OH2           -28.0387592897      -39.4611667575      -26.0770818523  TIP3      8857            0.0000000000
     76402      9257  TIP3      H1            -27.8458834768      -39.7850454374      -25.1618182072  TIP3      8857            0.0000000000
     76403      9257  TIP3      H2            -27.1552789476      -39.1455796744      -26.3588412077  TIP3      8857            0.0000000000
     76404      9258  TIP3      OH2           -25.7184195423      -38.1731087859      -26.8138669131  TIP3      8858            0.0000000000
     76405      9258  TIP3      H1            -25.0017391964      -38.7884337095      -27.0396328297  TIP3      8858            0.0000000000
     76406      9258  TIP3      H2            -25.3545086029      -37.7614996213      -25.9970817349  TIP3      8858            0.0000000000
     76407      9259  TIP3      OH2           -20.8886101904      -55.3275911694      -28.0237475899  TIP3      8859            0.0000000000
     76408      9259  TIP3      H1            -21.7807043655      -55.2499984595      -28.1998575820  TIP3      8859            0.0000000000
     76409      9259  TIP3      H2            -20.5741223625      -56.2712311052      -28.2029680688  TIP3      8859            0.0000000000
     76410      9260  TIP3      OH2           -34.9229384577      -37.6159089784      -28.9852617274  TIP3      8860            0.0000000000
     76411      9260  TIP3      H1            -35.6586712813      -37.1450672487      -29.4119979860  TIP3      8860            0.0000000000
     76412      9260  TIP3      H2            -35.2787358148      -37.8397501438      -28.1128873124  TIP3      8860            0.0000000000
     76413      9261  TIP3      OH2           -32.4509062029      -38.0321559004      -29.9312450852  TIP3      8861            0.0000000000
     76414      9261  TIP3      H1            -33.3469775142      -37.9165779568      -29.5345364963  TIP3      8861            0.0000000000
     76415      9261  TIP3      H2            -32.5225603122      -37.4517900346      -30.7177369817  TIP3      8861            0.0000000000
     76416      9262  TIP3      OH2           -27.7526710058      -38.1301192551      -30.7631520024  TIP3      8862            0.0000000000
     76417      9262  TIP3      H1            -28.2178793591      -37.5830673066      -31.4206330599  TIP3      8862            0.0000000000
     76418      9262  TIP3      H2            -27.6057455839      -37.4956473072      -30.0348668338  TIP3      8862            0.0000000000
     76419      9263  TIP3      OH2           -25.4343958867      -39.2785689456      -29.7882624598  TIP3      8863            0.0000000000
     76420      9263  TIP3      H1            -26.3282701933      -39.0556751716      -30.0939722899  TIP3      8863            0.0000000000
     76421      9263  TIP3      H2            -24.9975789010      -38.4125534912      -29.8666011904  TIP3      8863            0.0000000000
     76422      9264  TIP3      OH2           -22.8486251769      -37.7104535770      -29.5066286508  TIP3      8864            0.0000000000
     76423      9264  TIP3      H1            -22.9806952699      -36.7583592293      -29.7420456646  TIP3      8864            0.0000000000
     76424      9264  TIP3      H2            -22.6602757851      -38.0836560761      -30.3861628838  TIP3      8864            0.0000000000
     76425      9265  TIP3      OH2           -35.5111679209      -38.9724390791      -32.0632355908  TIP3      8865            0.0000000000
     76426      9265  TIP3      H1            -35.5468197775      -39.4193973723      -31.1924094826  TIP3      8865            0.0000000000
     76427      9265  TIP3      H2            -34.6903720802      -39.3246603464      -32.4612965504  TIP3      8865            0.0000000000
     76428      9266  TIP3      OH2           -33.4016327545      -40.2618344569      -33.4066627252  TIP3      8866            0.0000000000
     76429      9266  TIP3      H1            -33.5776620840      -41.1959529005      -33.2110887715  TIP3      8866            0.0000000000
     76430      9266  TIP3      H2            -32.5405701421      -40.1209028727      -32.9478267532  TIP3      8866            0.0000000000
     76431      9267  TIP3      OH2           -30.8320648840      -39.7923582848      -32.5398986892  TIP3      8867            0.0000000000
     76432      9267  TIP3      H1            -30.6228978168      -40.6979168555      -32.8227988376  TIP3      8867            0.0000000000
     76433      9267  TIP3      H2            -30.7614185966      -39.8478577950      -31.5809975604  TIP3      8867            0.0000000000
     76434      9268  TIP3      OH2           -27.3443163292      -54.1208739472      -33.4079804893  TIP3      8868            0.0000000000
     76435      9268  TIP3      H1            -28.0080011813      -54.7812978884      -33.1516123262  TIP3      8868            0.0000000000
     76436      9268  TIP3      H2            -26.7706398715      -54.6335982891      -33.9951503314  TIP3      8868            0.0000000000
     76437      9269  TIP3      OH2           -22.2039505405      -56.0528853234      -33.3146663774  TIP3      8869            0.0000000000
     76438      9269  TIP3      H1            -21.5761434275      -55.4773991994      -33.8056915937  TIP3      8869            0.0000000000
     76439      9269  TIP3      H2            -23.0822750501      -55.7064690771      -33.5448969252  TIP3      8869            0.0000000000
     76440      9270  TIP3      OH2           -20.4837716343      -54.8711003708      -35.0163566503  TIP3      8870            0.0000000000
     76441      9270  TIP3      H1            -19.8404327204      -55.4139587389      -35.4928759901  TIP3      8870            0.0000000000
     76442      9270  TIP3      H2            -20.0492370966      -53.9919729277      -34.9435944975  TIP3      8870            0.0000000000
     76443      9271  TIP3      OH2           -34.9996064514      -55.4507130589      -35.5706799010  TIP3      8871            0.0000000000
     76444      9271  TIP3      H1            -35.7725085117      -55.7196863442      -36.0805246990  TIP3      8871            0.0000000000
     76445      9271  TIP3      H2            -34.4896497277      -56.2966614736      -35.5841280872  TIP3      8871            0.0000000000
     76446      9272  TIP3      OH2           -36.2040464289      -55.7406715686      -39.8282592655  TIP3      8872            0.0000000000
     76447      9272  TIP3      H1            -35.7221576843      -55.0629628295      -40.3671343181  TIP3      8872            0.0000000000
     76448      9272  TIP3      H2            -36.7790720549      -55.1490954134      -39.2955482911  TIP3      8872            0.0000000000
     76449      9273  TIP3      OH2           -30.4659350097      -55.5750780719      -35.7618587822  TIP3      8873            0.0000000000
     76450      9273  TIP3      H1            -29.5646209841      -55.2068925988      -35.8101944696  TIP3      8873            0.0000000000
     76451      9273  TIP3      H2            -30.5500523851      -55.7908181315      -34.8334358753  TIP3      8873            0.0000000000
     76452      9274  TIP3      OH2           -24.8096836108      -55.5105891807      -34.1341993852  TIP3      8874            0.0000000000
     76453      9274  TIP3      H1            -24.7963627690      -55.4501233006      -35.0897654672  TIP3      8874            0.0000000000
     76454      9274  TIP3      H2            -25.1492413619      -56.4334035389      -34.0016282833  TIP3      8874            0.0000000000
     76455      9275  TIP3      OH2           -23.4814625873      -55.4966593882      -38.4646087076  TIP3      8875            0.0000000000
     76456      9275  TIP3      H1            -24.2274558380      -54.9160446999      -38.6459042983  TIP3      8875            0.0000000000
     76457      9275  TIP3      H2            -23.9536668598      -56.3481174177      -38.2871818704  TIP3      8875            0.0000000000
     76458      9276  TIP3      OH2           -36.2600032051      -39.7799945924      -38.8466497130  TIP3      8876            0.0000000000
     76459      9276  TIP3      H1            -36.9530349899      -39.7850160158      -39.5414073524  TIP3      8876            0.0000000000
     76460      9276  TIP3      H2            -36.2616831658      -38.8365596680      -38.6221645769  TIP3      8876            0.0000000000
     76461      9277  TIP3      OH2           -34.3434783994      -53.8629426523      -41.3155914927  TIP3      8877            0.0000000000
     76462      9277  TIP3      H1            -33.8088022258      -54.4138403341      -41.8774992951  TIP3      8877            0.0000000000
     76463      9277  TIP3      H2            -33.6909878328      -53.4787627114      -40.6910054082  TIP3      8877            0.0000000000
     76464      9278  TIP3      OH2           -29.3240501727      -53.5307596137      -38.9074051960  TIP3      8878            0.0000000000
     76465      9278  TIP3      H1            -29.0923676910      -54.1297614281      -38.1811932328  TIP3      8878            0.0000000000
     76466      9278  TIP3      H2            -29.3115488928      -52.6663244607      -38.4211492037  TIP3      8878            0.0000000000
     76467      9279  TIP3      OH2           -27.4362274529      -38.3622407344      -40.3972287686  TIP3      8879            0.0000000000
     76468      9279  TIP3      H1            -26.5227934489      -38.2082874009      -40.6607740655  TIP3      8879            0.0000000000
     76469      9279  TIP3      H2            -27.6344913276      -38.9407680535      -41.1958638091  TIP3      8879            0.0000000000
     76470      9280  TIP3      OH2           -20.7204821935      -38.9708520102      -37.7807414994  TIP3      8880            0.0000000000
     76471      9280  TIP3      H1            -20.8830634638      -39.7575501224      -38.3564662299  TIP3      8880            0.0000000000
     76472      9280  TIP3      H2            -20.7393368960      -38.2290140870      -38.3969066896  TIP3      8880            0.0000000000
     76473      9281  TIP3      OH2           -35.0669256921      -54.9446772557      -26.0822910813  TIP3      8881            0.0000000000
     76474      9281  TIP3      H1            -35.4303091839      -55.7543073219      -25.6608826422  TIP3      8881            0.0000000000
     76475      9281  TIP3      H2            -34.1374597081      -54.9861480309      -25.7711286628  TIP3      8881            0.0000000000
     76476      9282  TIP3      OH2           -33.0563831996      -55.5949765223      -24.4922295985  TIP3      8882            0.0000000000
     76477      9282  TIP3      H1            -32.1671922870      -55.9226218788      -24.7202836831  TIP3      8882            0.0000000000
     76478      9282  TIP3      H2            -33.4508487364      -56.3901532069      -24.0754749945  TIP3      8882            0.0000000000
     76479      9283  TIP3      OH2           -34.4490612464      -38.8276307508      -41.8626498289  TIP3      8883            0.0000000000
     76480      9283  TIP3      H1            -34.7234181628      -38.5464160106      -40.9780756067  TIP3      8883            0.0000000000
     76481      9283  TIP3      H2            -33.6846410028      -39.3792551646      -41.7022250865  TIP3      8883            0.0000000000
     76482      9284  TIP3      OH2           -24.6598894627       56.5399239618      -24.3495267613  TIP3      8884            0.0000000000
     76483      9284  TIP3      H1            -24.5787925626       56.0939072245      -23.4790122978  TIP3      8884            0.0000000000
     76484      9284  TIP3      H2            -23.7504079093       56.5435411351      -24.6815637043  TIP3      8884            0.0000000000
     76485      9285  TIP3      OH2           -21.4466214136      -40.2435036372      -25.6728724563  TIP3      8885            0.0000000000
     76486      9285  TIP3      H1            -22.2747604437      -40.3999509339      -26.1797752551  TIP3      8885            0.0000000000
     76487      9285  TIP3      H2            -21.5702308160      -39.2927989401      -25.4440894465  TIP3      8885            0.0000000000
     76488      9286  TIP3      OH2            -7.0466778366      -46.3624601085      -35.6510845788  TIP3      8886            0.0000000000
     76489      9286  TIP3      H1             -7.0027170211      -45.3879339748      -35.7506280702  TIP3      8886            0.0000000000
     76490      9286  TIP3      H2             -7.7295587110      -46.6100126441      -36.2930750188  TIP3      8886            0.0000000000
     76491      9287  TIP3      OH2            -8.1532101405      -47.0898641964      -32.1932975902  TIP3      8887            0.0000000000
     76492      9287  TIP3      H1             -8.1800951858      -47.7483669503      -31.4926058028  TIP3      8887            0.0000000000
     76493      9287  TIP3      H2             -8.4775909009      -47.5790884615      -32.9683266821  TIP3      8887            0.0000000000
     76494      9288  TIP3      OH2           -15.7942863693      -47.4552025505      -30.6345759428  TIP3      8888            0.0000000000
     76495      9288  TIP3      H1            -15.7228326807      -48.1115172008      -29.9081702656  TIP3      8888            0.0000000000
     76496      9288  TIP3      H2            -15.0630613469      -46.8569479556      -30.4249055648  TIP3      8888            0.0000000000
     76497      9289  TIP3      OH2            -4.4473302030      -44.1505519360      -33.9199201983  TIP3      8889            0.0000000000
     76498      9289  TIP3      H1             -4.8813882487      -44.8696334731      -33.4434893037  TIP3      8889            0.0000000000
     76499      9289  TIP3      H2             -4.4519457374      -43.4410582187      -33.2504506911  TIP3      8889            0.0000000000
     76500      9290  TIP3      OH2           -14.8752726188      -43.0033153342      -32.0827888586  TIP3      8890            0.0000000000
     76501      9290  TIP3      H1            -15.1995957214      -43.8437900353      -32.4607963559  TIP3      8890            0.0000000000
     76502      9290  TIP3      H2            -13.9133622070      -43.1896766399      -32.0603047309  TIP3      8890            0.0000000000
     76503      9291  TIP3      OH2           -18.2281995538      -49.3995440844      -36.6700185884  TIP3      8891            0.0000000000
     76504      9291  TIP3      H1            -18.6853132639      -48.5319917219      -36.7095990930  TIP3      8891            0.0000000000
     76505      9291  TIP3      H2            -18.8070870124      -49.9501002790      -37.2163370790  TIP3      8891            0.0000000000
     76506      9292  TIP3      OH2           -17.5371688975      -47.1974342606      -34.5406651137  TIP3      8892            0.0000000000
     76507      9292  TIP3      H1            -17.2903901409      -47.9972577452      -34.0418628468  TIP3      8892            0.0000000000
     76508      9292  TIP3      H2            -16.8020691410      -47.1106762016      -35.1682262447  TIP3      8892            0.0000000000
     76509      9293  TIP3      OH2            -7.3371784283      -39.0163968172      -33.6910787874  TIP3      8893            0.0000000000
     76510      9293  TIP3      H1             -6.7041236389      -39.7257819049      -33.9550957339  TIP3      8893            0.0000000000
     76511      9293  TIP3      H2             -7.5396028220      -39.2924197886      -32.7954486005  TIP3      8893            0.0000000000
     76512      9294  TIP3      OH2            -9.7764544754      -44.6729782317      -31.7721327056  TIP3      8894            0.0000000000
     76513      9294  TIP3      H1             -9.4410890624      -45.3407263765      -32.3921519065  TIP3      8894            0.0000000000
     76514      9294  TIP3      H2             -9.0039655402      -44.5444865343      -31.1952055395  TIP3      8894            0.0000000000
     76515      9295  TIP3      OH2            -1.1250707290      -53.0664931051      -30.9653178117  TIP3      8895            0.0000000000
     76516      9295  TIP3      H1             -1.0194473998      -52.4513348382      -30.2191069485  TIP3      8895            0.0000000000
     76517      9295  TIP3      H2             -0.6433224549      -52.6038770343      -31.6680885525  TIP3      8895            0.0000000000
     76518      9296  TIP3      OH2            -6.6143727130      -50.2405791920      -31.4370899831  TIP3      8896            0.0000000000
     76519      9296  TIP3      H1             -6.4625946132      -51.2059535291      -31.4446754486  TIP3      8896            0.0000000000
     76520      9296  TIP3      H2             -6.7191996265      -50.0778294864      -32.3977273383  TIP3      8896            0.0000000000
     76521      9297  TIP3      OH2           -13.4736407121      -52.1580481012      -34.1901401005  TIP3      8897            0.0000000000
     76522      9297  TIP3      H1            -13.4073900579      -51.3024701689      -34.6473848618  TIP3      8897            0.0000000000
     76523      9297  TIP3      H2            -13.9094826098      -52.7242381019      -34.8624224994  TIP3      8897            0.0000000000
     76524      9298  TIP3      OH2            -5.7560853549      -52.0301049536      -35.8072302251  TIP3      8898            0.0000000000
     76525      9298  TIP3      H1             -5.0895535306      -52.3718777867      -35.1651012770  TIP3      8898            0.0000000000
     76526      9298  TIP3      H2             -5.2061116938      -51.4995998958      -36.4040254680  TIP3      8898            0.0000000000
     76527      9299  TIP3      OH2           -16.8628478477      -49.7461484338      -33.4458268862  TIP3      8899            0.0000000000
     76528      9299  TIP3      H1            -16.1875208858      -50.3090204704      -33.0097074286  TIP3      8899            0.0000000000
     76529      9299  TIP3      H2            -16.7941399879      -50.0480545028      -34.3641477716  TIP3      8899            0.0000000000
     76530      9300  TIP3      OH2           -11.6949235044      -48.1902694213      -34.1907265329  TIP3      8900            0.0000000000
     76531      9300  TIP3      H1            -11.0570642461      -48.7589648650      -33.7269980981  TIP3      8900            0.0000000000
     76532      9300  TIP3      H2            -12.2548026221      -48.8581322389      -34.6365430699  TIP3      8900            0.0000000000
     76533      9301  TIP3      OH2            -0.6767507834      -51.5551884359      -28.7002594090  TIP3      8901            0.0000000000
     76534      9301  TIP3      H1             -1.4148702973      -50.9421278590      -28.8458467893  TIP3      8901            0.0000000000
     76535      9301  TIP3      H2             -0.6962871095      -51.8078536936      -27.7670489333  TIP3      8901            0.0000000000
     76536      9302  TIP3      OH2           -14.6178774495      -53.2641473375      -30.1416179333  TIP3      8902            0.0000000000
     76537      9302  TIP3      H1            -14.8739774632      -52.6974441300      -30.8972346220  TIP3      8902            0.0000000000
     76538      9302  TIP3      H2            -15.3045386792      -53.0066558405      -29.4728894369  TIP3      8902            0.0000000000
     76539      9303  TIP3      OH2            -7.2689938200      -43.7507853019      -36.5919164742  TIP3      8903            0.0000000000
     76540      9303  TIP3      H1             -7.5786635813      -44.0625709632      -37.4538831094  TIP3      8903            0.0000000000
     76541      9303  TIP3      H2             -7.6169468603      -42.8356931637      -36.5490795712  TIP3      8903            0.0000000000
     76542      9304  TIP3      OH2           -12.0743321775      -45.5969072117      -29.8692080319  TIP3      8904            0.0000000000
     76543      9304  TIP3      H1            -12.8065009709      -44.9607923745      -29.7191559564  TIP3      8904            0.0000000000
     76544      9304  TIP3      H2            -11.3688053898      -45.0068135208      -30.1731169691  TIP3      8904            0.0000000000
     76545      9305  TIP3      OH2            -3.9584032011      -52.7313137997      -33.8398717825  TIP3      8905            0.0000000000
     76546      9305  TIP3      H1             -4.1872715765      -53.4918641906      -33.2903308611  TIP3      8905            0.0000000000
     76547      9305  TIP3      H2             -3.3023075815      -52.2722747158      -33.2923413305  TIP3      8905            0.0000000000
     76548      9306  TIP3      OH2           -15.0624065434      -51.3609943912      -32.1607950243  TIP3      8906            0.0000000000
     76549      9306  TIP3      H1            -14.4138661220      -50.7096379772      -31.8073285834  TIP3      8906            0.0000000000
     76550      9306  TIP3      H2            -14.5235849558      -51.8231606980      -32.8464920489  TIP3      8906            0.0000000000
     76551      9307  TIP3      OH2           -13.6511604262      -43.6146326682      -29.0722499638  TIP3      8907            0.0000000000
     76552      9307  TIP3      H1            -13.6747414632      -42.7079665936      -29.4322979418  TIP3      8907            0.0000000000
     76553      9307  TIP3      H2            -14.5268608253      -43.6872042280      -28.6284586464  TIP3      8907            0.0000000000
     76554      9308  TIP3      OH2           -17.5583032211      -43.9661294263      -38.2813069832  TIP3      8908            0.0000000000
     76555      9308  TIP3      H1            -17.8066613480      -43.6809321609      -39.1791030200  TIP3      8908            0.0000000000
     76556      9308  TIP3      H2            -17.4969407195      -43.1109242718      -37.8019187717  TIP3      8908            0.0000000000
     76557      9309  TIP3      OH2            -3.9253802460      -42.3261164424      -31.5504325182  TIP3      8909            0.0000000000
     76558      9309  TIP3      H1             -4.8909957373      -42.2336455523      -31.4084128835  TIP3      8909            0.0000000000
     76559      9309  TIP3      H2             -3.6585373761      -41.3991567636      -31.7157943939  TIP3      8909            0.0000000000
     76560      9310  TIP3      OH2            -3.6023377927      -54.0311305581      -30.1162721962  TIP3      8910            0.0000000000
     76561      9310  TIP3      H1             -4.3544787133      -53.4291506270      -30.2078421103  TIP3      8910            0.0000000000
     76562      9310  TIP3      H2             -2.9263876407      -53.6285404703      -30.6786221680  TIP3      8910            0.0000000000
     76563      9311  TIP3      OH2           -10.6103119854      -55.9142359833      -32.6953235919  TIP3      8911            0.0000000000
     76564      9311  TIP3      H1            -10.7454837604      -56.8856523823      -32.7447852356  TIP3      8911            0.0000000000
     76565      9311  TIP3      H2            -11.4902812532      -55.6171890360      -32.4015434941  TIP3      8911            0.0000000000
     76566      9312  TIP3      OH2            -5.6694854679      -40.5358311650      -34.9378686088  TIP3      8912            0.0000000000
     76567      9312  TIP3      H1             -5.2540713198      -41.2622004359      -35.4327151568  TIP3      8912            0.0000000000
     76568      9312  TIP3      H2             -5.3291356723      -39.7236717951      -35.3437528295  TIP3      8912            0.0000000000
     76569      9313  TIP3      OH2            -4.4754268068      -42.5958947671      -36.4447445506  TIP3      8913            0.0000000000
     76570      9313  TIP3      H1             -4.7735897928      -43.3199149123      -37.0378418395  TIP3      8913            0.0000000000
     76571      9313  TIP3      H2             -4.4481850442      -43.0911988965      -35.5910803531  TIP3      8913            0.0000000000
     76572      9314  TIP3      OH2            -2.8312678611      -44.0525862530      -27.9369887704  TIP3      8914            0.0000000000
     76573      9314  TIP3      H1             -2.6960358666      -44.6590912103      -28.6918989411  TIP3      8914            0.0000000000
     76574      9314  TIP3      H2             -2.6580187202      -43.1829054875      -28.3324972827  TIP3      8914            0.0000000000
     76575      9315  TIP3      OH2            -8.3585753140      -47.1114382661      -38.1670681498  TIP3      8915            0.0000000000
     76576      9315  TIP3      H1             -9.0647790950      -46.5574597450      -38.5488483222  TIP3      8915            0.0000000000
     76577      9315  TIP3      H2             -7.6586459364      -47.0385979417      -38.8458622590  TIP3      8915            0.0000000000
     76578      9316  TIP3      OH2            -8.3117869154      -48.6222015722      -41.1244990655  TIP3      8916            0.0000000000
     76579      9316  TIP3      H1             -7.5878422289      -48.6136753815      -40.4807243769  TIP3      8916            0.0000000000
     76580      9316  TIP3      H2             -7.9908210356      -49.2605683399      -41.7726435410  TIP3      8916            0.0000000000
     76581      9317  TIP3      OH2            -0.9751493232      -47.7354352551      -29.8558392141  TIP3      8917            0.0000000000
     76582      9317  TIP3      H1             -1.6360544620      -47.0034574415      -29.8303851842  TIP3      8917            0.0000000000
     76583      9317  TIP3      H2             -0.5085965204      -47.4979663340      -30.6945998080  TIP3      8917            0.0000000000
     76584      9318  TIP3      OH2            -4.9325610190      -46.8948673025      -37.2429785896  TIP3      8918            0.0000000000
     76585      9318  TIP3      H1             -5.6784036196      -46.6648589017      -36.6404939629  TIP3      8918            0.0000000000
     76586      9318  TIP3      H2             -4.4770534436      -47.6019468058      -36.7514256934  TIP3      8918            0.0000000000
     76587      9319  TIP3      OH2            -4.9948265893      -48.7409380062      -28.1515830453  TIP3      8919            0.0000000000
     76588      9319  TIP3      H1             -4.9929461179      -47.9367278463      -27.5980301970  TIP3      8919            0.0000000000
     76589      9319  TIP3      H2             -5.6487558424      -48.4434137768      -28.8348784649  TIP3      8919            0.0000000000
     76590      9320  TIP3      OH2           -13.3011365384      -46.2443975238      -35.3364584440  TIP3      8920            0.0000000000
     76591      9320  TIP3      H1            -13.6294960772      -46.6415315280      -36.1769792458  TIP3      8920            0.0000000000
     76592      9320  TIP3      H2            -12.6974230063      -46.9453893388      -34.9983927600  TIP3      8920            0.0000000000
     76593      9321  TIP3      OH2           -11.9660757345      -42.8362877143      -32.6544195432  TIP3      8921            0.0000000000
     76594      9321  TIP3      H1            -12.0113715921      -43.4079636955      -33.4332613758  TIP3      8921            0.0000000000
     76595      9321  TIP3      H2            -11.1985245665      -43.2155709407      -32.1847830141  TIP3      8921            0.0000000000
     76596      9322  TIP3      OH2           -12.9543432467      -47.5052262061      -31.6972645992  TIP3      8922            0.0000000000
     76597      9322  TIP3      H1            -12.3819574655      -47.3808785022      -32.4778175308  TIP3      8922            0.0000000000
     76598      9322  TIP3      H2            -12.6021505662      -46.8460147577      -31.0665654157  TIP3      8922            0.0000000000
     76599      9323  TIP3      OH2            -6.5985990201      -41.9552654158      -30.9869123782  TIP3      8923            0.0000000000
     76600      9323  TIP3      H1             -6.8607331794      -41.3206766195      -30.3189019434  TIP3      8923            0.0000000000
     76601      9323  TIP3      H2             -6.8241933213      -42.8147066409      -30.5459623684  TIP3      8923            0.0000000000
     76602      9324  TIP3      OH2           -12.0326908494      -43.0936388991      -26.9747669291  TIP3      8924            0.0000000000
     76603      9324  TIP3      H1            -12.3918400960      -42.3093405641      -26.5217874814  TIP3      8924            0.0000000000
     76604      9324  TIP3      H2            -12.7057190204      -43.2603803328      -27.6818093362  TIP3      8924            0.0000000000
     76605      9325  TIP3      OH2            -6.0690505633      -47.7372216192      -39.5605559400  TIP3      8925            0.0000000000
     76606      9325  TIP3      H1             -5.4902922254      -47.5608948019      -38.7801783219  TIP3      8925            0.0000000000
     76607      9325  TIP3      H2             -5.6488036480      -47.2296704486      -40.2770873314  TIP3      8925            0.0000000000
     76608      9326  TIP3      OH2           -15.1004800303      -46.9159795669      -27.7916740993  TIP3      8926            0.0000000000
     76609      9326  TIP3      H1            -15.0543475510      -46.2536167145      -27.0720204706  TIP3      8926            0.0000000000
     76610      9326  TIP3      H2            -16.0225764913      -46.8114657735      -28.0686983471  TIP3      8926            0.0000000000
     76611      9327  TIP3      OH2            -8.3253162349      -40.9933690665      -36.1135576144  TIP3      8927            0.0000000000
     76612      9327  TIP3      H1             -7.8904064533      -40.6914391917      -35.3111832919  TIP3      8927            0.0000000000
     76613      9327  TIP3      H2             -8.9044656820      -40.2530017087      -36.3455974072  TIP3      8927            0.0000000000
     76614      9328  TIP3      OH2           -13.8000139466      -41.0300107753      -26.2246471723  TIP3      8928            0.0000000000
     76615      9328  TIP3      H1            -13.8103291878      -41.1552102701      -27.1874965886  TIP3      8928            0.0000000000
     76616      9328  TIP3      H2            -14.7322105247      -41.1528387288      -25.9784330278  TIP3      8928            0.0000000000
     76617      9329  TIP3      OH2            -2.3504926495      -55.9571538932      -39.7198638127  TIP3      8929            0.0000000000
     76618      9329  TIP3      H1             -3.2908627676      -55.8403865513      -39.4439630427  TIP3      8929            0.0000000000
     76619      9329  TIP3      H2             -2.1213381878      -55.1123570765      -40.1288617430  TIP3      8929            0.0000000000
     76620      9330  TIP3      OH2           -14.3102482801      -47.2086664158      -37.7388818257  TIP3      8930            0.0000000000
     76621      9330  TIP3      H1            -14.6091703771      -46.4299989282      -38.2527761228  TIP3      8930            0.0000000000
     76622      9330  TIP3      H2            -14.9897022940      -47.8604279719      -37.9248992519  TIP3      8930            0.0000000000
     76623      9331  TIP3      OH2            -1.2133785262      -41.6339032236      -41.3072279874  TIP3      8931            0.0000000000
     76624      9331  TIP3      H1             -1.0881812591      -40.6734636219      -41.2016466747  TIP3      8931            0.0000000000
     76625      9331  TIP3      H2             -0.2806091470      -41.9151034365      -41.4068834942  TIP3      8931            0.0000000000
     76626      9332  TIP3      OH2           -18.2327898271      -44.7810664740      -28.8989520905  TIP3      8932            0.0000000000
     76627      9332  TIP3      H1            -18.7098444505      -44.8981434154      -29.7424780919  TIP3      8932            0.0000000000
     76628      9332  TIP3      H2            -18.1946727340      -45.7379920303      -28.6311442495  TIP3      8932            0.0000000000
     76629      9333  TIP3      OH2           -18.4732139912      -42.0748369048      -32.0041616708  TIP3      8933            0.0000000000
     76630      9333  TIP3      H1            -17.5134616490      -42.1845571476      -32.0963079379  TIP3      8933            0.0000000000
     76631      9333  TIP3      H2            -18.5673651562      -41.2305906508      -31.5587163104  TIP3      8933            0.0000000000
     76632      9334  TIP3      OH2            -0.2499701496      -41.3779734109      -26.3985814430  TIP3      8934            0.0000000000
     76633      9334  TIP3      H1             -0.3399534823      -42.3416654846      -26.4016046327  TIP3      8934            0.0000000000
     76634      9334  TIP3      H2             -1.1004083371      -41.1159048727      -25.9675694907  TIP3      8934            0.0000000000
     76635      9335  TIP3      OH2            -9.2818519455      -41.8188319165      -27.5049291377  TIP3      8935            0.0000000000
     76636      9335  TIP3      H1             -9.2105202155      -40.9754344849      -27.0001110555  TIP3      8935            0.0000000000
     76637      9335  TIP3      H2            -10.1562667350      -42.1562079210      -27.2430043839  TIP3      8935            0.0000000000
     76638      9336  TIP3      OH2            -8.8634852887      -38.0664309367      -37.6886418815  TIP3      8936            0.0000000000
     76639      9336  TIP3      H1             -8.9446920169      -38.1562146179      -38.6550917656  TIP3      8936            0.0000000000
     76640      9336  TIP3      H2             -8.8354183905      -37.0970202049      -37.5609256879  TIP3      8936            0.0000000000
     76641      9337  TIP3      OH2           -15.2152665726      -39.2033721205      -35.9040800252  TIP3      8937            0.0000000000
     76642      9337  TIP3      H1            -15.0680461830      -39.6119685615      -35.0163740193  TIP3      8937            0.0000000000
     76643      9337  TIP3      H2            -16.0659182598      -39.6174418806      -36.1338492594  TIP3      8937            0.0000000000
     76644      9338  TIP3      OH2            -5.7769632988      -38.8663534507      -40.7075365171  TIP3      8938            0.0000000000
     76645      9338  TIP3      H1             -5.3840635852      -39.6412812327      -41.1654388670  TIP3      8938            0.0000000000
     76646      9338  TIP3      H2             -5.7781043586      -39.1490469691      -39.7792483632  TIP3      8938            0.0000000000
     76647      9339  TIP3      OH2            -6.0718096826      -38.9504272536      -37.9345514193  TIP3      8939            0.0000000000
     76648      9339  TIP3      H1             -7.0449522501      -38.8569881419      -37.7643904809  TIP3      8939            0.0000000000
     76649      9339  TIP3      H2             -5.8725203627      -39.6840907699      -37.3497647006  TIP3      8939            0.0000000000
     76650      9340  TIP3      OH2            -3.0378780680      -49.8772429168      -25.9455299127  TIP3      8940            0.0000000000
     76651      9340  TIP3      H1             -3.5918912862      -49.4263537455      -26.6050739948  TIP3      8940            0.0000000000
     76652      9340  TIP3      H2             -3.1157189691      -50.8198201355      -26.1849568093  TIP3      8940            0.0000000000
     76653      9341  TIP3      OH2           -15.9968539360      -43.4662622423      -27.8921286388  TIP3      8941            0.0000000000
     76654      9341  TIP3      H1            -15.7359454497      -43.8657142644      -27.0254989028  TIP3      8941            0.0000000000
     76655      9341  TIP3      H2            -16.8255059789      -43.9232552483      -28.0981795119  TIP3      8941            0.0000000000
     76656      9342  TIP3      OH2           -13.3030419279      -55.0096771756      -31.9474716275  TIP3      8942            0.0000000000
     76657      9342  TIP3      H1            -14.2109202660      -55.1201636867      -32.3173115775  TIP3      8942            0.0000000000
     76658      9342  TIP3      H2            -13.3870548844      -54.1723461377      -31.4656347042  TIP3      8942            0.0000000000
     76659      9343  TIP3      OH2            -8.6614053762      -55.3100645822      -28.5390301614  TIP3      8943            0.0000000000
     76660      9343  TIP3      H1             -8.2526716563      -55.7398314223      -27.7652792264  TIP3      8943            0.0000000000
     76661      9343  TIP3      H2             -9.6258360908      -55.4838779715      -28.4085577809  TIP3      8943            0.0000000000
     76662      9344  TIP3      OH2            -5.3328395596      -51.5416366482      -27.6695274469  TIP3      8944            0.0000000000
     76663      9344  TIP3      H1             -5.9001150556      -51.7026959701      -26.8784747174  TIP3      8944            0.0000000000
     76664      9344  TIP3      H2             -5.5298856824      -50.6261220934      -27.9205644569  TIP3      8944            0.0000000000
     76665      9345  TIP3      OH2            -4.5359303228      -46.6471458562      -41.8276229570  TIP3      8945            0.0000000000
     76666      9345  TIP3      H1             -4.5282740007      -46.8748240956      -42.7843875390  TIP3      8945            0.0000000000
     76667      9345  TIP3      H2             -3.6787336884      -46.2485593779      -41.6961301454  TIP3      8945            0.0000000000
     76668      9346  TIP3      OH2            -9.0213699705      -52.7869887143      -41.2439875753  TIP3      8946            0.0000000000
     76669      9346  TIP3      H1             -9.2785968495      -52.8263477023      -40.3047069187  TIP3      8946            0.0000000000
     76670      9346  TIP3      H2             -9.2722933722      -53.6757176234      -41.5274344393  TIP3      8946            0.0000000000
     76671      9347  TIP3      OH2           -13.2177348819      -50.0732351353      -30.7556153391  TIP3      8947            0.0000000000
     76672      9347  TIP3      H1            -13.9146147227      -50.0872840837      -30.0733006790  TIP3      8947            0.0000000000
     76673      9347  TIP3      H2            -13.2239445674      -49.1344600379      -31.0509930929  TIP3      8947            0.0000000000
     76674      9348  TIP3      OH2           -13.2395058084      -49.8693494560      -35.8520178198  TIP3      8948            0.0000000000
     76675      9348  TIP3      H1            -14.1604315728      -50.1867465016      -35.9591389776  TIP3      8948            0.0000000000
     76676      9348  TIP3      H2            -12.8205915652      -50.2236294471      -36.6557258119  TIP3      8948            0.0000000000
     76677      9349  TIP3      OH2            -7.7127291778      -49.4360510039      -37.0659166730  TIP3      8949            0.0000000000
     76678      9349  TIP3      H1             -8.1241303541      -48.6031032428      -37.3802249909  TIP3      8949            0.0000000000
     76679      9349  TIP3      H2             -7.0019756205      -49.5746298548      -37.7158090070  TIP3      8949            0.0000000000
     76680      9350  TIP3      OH2            -8.6192236827      -49.2360607656      -25.6187390675  TIP3      8950            0.0000000000
     76681      9350  TIP3      H1             -9.1842752359      -49.9706810876      -25.2732717603  TIP3      8950            0.0000000000
     76682      9350  TIP3      H2             -7.8002164861      -49.3602642193      -25.1153724028  TIP3      8950            0.0000000000
     76683      9351  TIP3      OH2            -6.6967369721      -49.9606444593      -34.2259030480  TIP3      8951            0.0000000000
     76684      9351  TIP3      H1             -6.9273290323      -49.3813047779      -34.9721145417  TIP3      8951            0.0000000000
     76685      9351  TIP3      H2             -6.5496876154      -50.8080779766      -34.6959510146  TIP3      8951            0.0000000000
     76686      9352  TIP3      OH2           -15.5296006146      -49.7598247981      -28.9693620597  TIP3      8952            0.0000000000
     76687      9352  TIP3      H1            -15.5216905995      -49.3632305164      -28.0788537077  TIP3      8952            0.0000000000
     76688      9352  TIP3      H2            -16.0031500227      -50.5896840539      -28.8228238871  TIP3      8952            0.0000000000
     76689      9353  TIP3      OH2           -11.8652898099      -52.3326569554      -41.9321801783  TIP3      8953            0.0000000000
     76690      9353  TIP3      H1            -12.4571713690      -52.8698007192      -41.3664065266  TIP3      8953            0.0000000000
     76691      9353  TIP3      H2            -12.4358547623      -52.0560695311      -42.6579767510  TIP3      8953            0.0000000000
     76692      9354  TIP3      OH2           -18.9041696680      -52.6377013851      -35.0588312221  TIP3      8954            0.0000000000
     76693      9354  TIP3      H1            -18.2427770807      -52.6815368693      -34.3417625272  TIP3      8954            0.0000000000
     76694      9354  TIP3      H2            -18.4429379363      -53.0536019044      -35.8111117087  TIP3      8954            0.0000000000
     76695      9355  TIP3      OH2           -17.6087903491      -51.9257682223      -39.6421602135  TIP3      8955            0.0000000000
     76696      9355  TIP3      H1            -17.1531810025      -51.3035910020      -40.2465550762  TIP3      8955            0.0000000000
     76697      9355  TIP3      H2            -18.3297516767      -51.3404781828      -39.3129924585  TIP3      8955            0.0000000000
     76698      9356  TIP3      OH2            -7.4582216829      -48.3385134032      -29.6127017526  TIP3      8956            0.0000000000
     76699      9356  TIP3      H1             -7.1135483005      -49.0050892950      -30.2360143040  TIP3      8956            0.0000000000
     76700      9356  TIP3      H2             -7.9090457372      -48.8836486445      -28.9437629922  TIP3      8956            0.0000000000
     76701      9357  TIP3      OH2           -10.6661215140      -52.4025249443      -34.8174193318  TIP3      8957            0.0000000000
     76702      9357  TIP3      H1            -11.5979367879      -52.3712547633      -34.5176569585  TIP3      8957            0.0000000000
     76703      9357  TIP3      H2            -10.1690394146      -52.5068454851      -33.9913363272  TIP3      8957            0.0000000000
     76704      9358  TIP3      OH2           -15.8464836195      -50.8014305503      -35.9597180617  TIP3      8958            0.0000000000
     76705      9358  TIP3      H1            -16.7451586829      -50.6833632546      -36.3295790230  TIP3      8958            0.0000000000
     76706      9358  TIP3      H2            -15.5559132392      -51.6510407770      -36.3297688539  TIP3      8958            0.0000000000
     76707      9359  TIP3      OH2           -12.2053353772      -50.7979057104      -38.3417859149  TIP3      8959            0.0000000000
     76708      9359  TIP3      H1            -11.2559182363      -50.6625344902      -38.1310911586  TIP3      8959            0.0000000000
     76709      9359  TIP3      H2            -12.4222314337      -50.0965749060      -38.9733864453  TIP3      8959            0.0000000000
     76710      9360  TIP3      OH2            -6.2499168237      -53.1638630931      -31.5666689405  TIP3      8960            0.0000000000
     76711      9360  TIP3      H1             -6.9515126147      -53.0600560261      -30.8836948172  TIP3      8960            0.0000000000
     76712      9360  TIP3      H2             -6.7613527563      -53.3645384047      -32.3594990601  TIP3      8960            0.0000000000
     76713      9361  TIP3      OH2           -13.5016303449      -49.6485428105      -40.7388332532  TIP3      8961            0.0000000000
     76714      9361  TIP3      H1            -14.1022704272      -49.8762640664      -41.4494134749  TIP3      8961            0.0000000000
     76715      9361  TIP3      H2            -12.6789600503      -49.3634928240      -41.1826707718  TIP3      8961            0.0000000000
     76716      9362  TIP3      OH2            -3.0300373943      -37.5092001686      -25.2478983238  TIP3      8962            0.0000000000
     76717      9362  TIP3      H1             -2.7766111777      -37.0950898609      -26.0957493411  TIP3      8962            0.0000000000
     76718      9362  TIP3      H2             -2.3307263819      -37.1697887186      -24.6643161168  TIP3      8962            0.0000000000
     76719      9363  TIP3      OH2           -15.3783653951      -45.0266930403      -25.6868328778  TIP3      8963            0.0000000000
     76720      9363  TIP3      H1            -14.6600997595      -44.7791716850      -25.0787152285  TIP3      8963            0.0000000000
     76721      9363  TIP3      H2            -16.1642536608      -44.8743811952      -25.1159409548  TIP3      8963            0.0000000000
     76722      9364  TIP3      OH2            -9.3716648850      -49.6235438003      -32.9197463494  TIP3      8964            0.0000000000
     76723      9364  TIP3      H1             -8.7894495560      -50.1711197201      -33.4621794020  TIP3      8964            0.0000000000
     76724      9364  TIP3      H2             -9.5129463234      -50.1619841028      -32.1302269441  TIP3      8964            0.0000000000
     76725      9365  TIP3      OH2           -14.3730051003      -53.4786565312      -36.5134442034  TIP3      8965            0.0000000000
     76726      9365  TIP3      H1            -14.6752488490      -54.4024851974      -36.5183442954  TIP3      8965            0.0000000000
     76727      9365  TIP3      H2            -13.5705633461      -53.5223909209      -37.0413049512  TIP3      8965            0.0000000000
     76728      9366  TIP3      OH2           -10.7376016295      -51.2615723380      -30.5126540855  TIP3      8966            0.0000000000
     76729      9366  TIP3      H1            -11.5744553278      -50.7728489977      -30.3989424073  TIP3      8966            0.0000000000
     76730      9366  TIP3      H2            -10.1961940596      -50.9580738345      -29.7578680215  TIP3      8966            0.0000000000
     76731      9367  TIP3      OH2           -10.1613349258      -45.0492783114      -38.8142467782  TIP3      8967            0.0000000000
     76732      9367  TIP3      H1            -10.9460737740      -45.5433050135      -39.1366853063  TIP3      8967            0.0000000000
     76733      9367  TIP3      H2            -10.3440936839      -44.9757064485      -37.8561260908  TIP3      8967            0.0000000000
     76734      9368  TIP3      OH2            -3.0012795799      -45.9067899306      -30.0114909808  TIP3      8968            0.0000000000
     76735      9368  TIP3      H1             -2.4072688827      -45.4136976488      -30.6073190257  TIP3      8968            0.0000000000
     76736      9368  TIP3      H2             -3.8544852883      -45.7900247600      -30.4922237384  TIP3      8968            0.0000000000
     76737      9369  TIP3      OH2            -6.2837371972      -52.2418682884      -40.6391143218  TIP3      8969            0.0000000000
     76738      9369  TIP3      H1             -7.2382773766      -52.1067298762      -40.7777274110  TIP3      8969            0.0000000000
     76739      9369  TIP3      H2             -5.9919572566      -51.3678313166      -40.3126689933  TIP3      8969            0.0000000000
     76740      9370  TIP3      OH2            -8.6664536978      -44.8351869021      -27.5819432044  TIP3      8970            0.0000000000
     76741      9370  TIP3      H1             -9.0083234145      -45.2267718736      -26.7690540102  TIP3      8970            0.0000000000
     76742      9370  TIP3      H2             -8.8847218870      -43.9005612165      -27.4933059706  TIP3      8970            0.0000000000
     76743      9371  TIP3      OH2            -5.5803328170      -50.3445628999      -38.9568738024  TIP3      8971            0.0000000000
     76744      9371  TIP3      H1             -4.6733216296      -50.4817943722      -38.6229057797  TIP3      8971            0.0000000000
     76745      9371  TIP3      H2             -5.5081192030      -49.5429930530      -39.4951910545  TIP3      8971            0.0000000000
     76746      9372  TIP3      OH2           -15.0598821169      -45.7063490828      -33.0288439870  TIP3      8972            0.0000000000
     76747      9372  TIP3      H1            -14.3299937783      -45.7493063444      -33.6751519594  TIP3      8972            0.0000000000
     76748      9372  TIP3      H2            -14.9828705839      -46.5565732970      -32.5631104468  TIP3      8972            0.0000000000
     76749      9373  TIP3      OH2            -8.0459872061      -43.5831491766      -39.7823824114  TIP3      8973            0.0000000000
     76750      9373  TIP3      H1             -8.3810112185      -42.7465808634      -39.4097851472  TIP3      8973            0.0000000000
     76751      9373  TIP3      H2             -8.7831573878      -44.2025309352      -39.5867440774  TIP3      8973            0.0000000000
     76752      9374  TIP3      OH2           -18.0616346300      -47.2539393926      -27.7420650998  TIP3      8974            0.0000000000
     76753      9374  TIP3      H1            -17.8446908778      -47.7001915384      -26.9008576479  TIP3      8974            0.0000000000
     76754      9374  TIP3      H2            -18.6648102065      -47.8945263904      -28.1661368367  TIP3      8974            0.0000000000
     76755      9375  TIP3      OH2           -11.0403078175      -47.7236370090      -25.5436777456  TIP3      8975            0.0000000000
     76756      9375  TIP3      H1            -11.3411112165      -47.9624018289      -26.4297951320  TIP3      8975            0.0000000000
     76757      9375  TIP3      H2            -10.1049046434      -47.9981451035      -25.5515789648  TIP3      8975            0.0000000000
     76758      9376  TIP3      OH2            -6.3855785475      -42.3893672996      -27.6368019853  TIP3      8976            0.0000000000
     76759      9376  TIP3      H1             -7.3090406711      -42.1969116284      -27.8759165795  TIP3      8976            0.0000000000
     76760      9376  TIP3      H2             -6.3926051098      -42.1064259513      -26.7013157294  TIP3      8976            0.0000000000
     76761      9377  TIP3      OH2            -0.6818957098      -50.1748381202      -39.2277378320  TIP3      8977            0.0000000000
     76762      9377  TIP3      H1             -1.2455372249      -50.5166657969      -39.9479705945  TIP3      8977            0.0000000000
     76763      9377  TIP3      H2             -0.5991185139      -49.2404924889      -39.5307372711  TIP3      8977            0.0000000000
     76764      9378  TIP3      OH2            -0.7092240820      -44.3607352779      -26.4131414862  TIP3      8978            0.0000000000
     76765      9378  TIP3      H1             -1.5812045137      -44.0980580828      -26.7999666376  TIP3      8978            0.0000000000
     76766      9378  TIP3      H2             -0.1339859300      -44.3524603901      -27.2035623842  TIP3      8978            0.0000000000
     76767      9379  TIP3      OH2            -2.3832395300      -41.3675529534      -38.8186356376  TIP3      8979            0.0000000000
     76768      9379  TIP3      H1             -2.7524305841      -42.2154465501      -38.5131700408  TIP3      8979            0.0000000000
     76769      9379  TIP3      H2             -2.0914100634      -41.5616457285      -39.7375274819  TIP3      8979            0.0000000000
     76770      9380  TIP3      OH2            -5.2103401669      -46.5396670462      -31.7520305524  TIP3      8980            0.0000000000
     76771      9380  TIP3      H1             -6.1534360512      -46.7748339272      -31.8189629595  TIP3      8980            0.0000000000
     76772      9380  TIP3      H2             -4.7741698086      -47.3240990002      -32.1300268118  TIP3      8980            0.0000000000
     76773      9381  TIP3      OH2           -12.6820352556      -42.2243226212      -35.6326259544  TIP3      8981            0.0000000000
     76774      9381  TIP3      H1            -12.1660321669      -41.4295792051      -35.8423636362  TIP3      8981            0.0000000000
     76775      9381  TIP3      H2            -13.5630243547      -41.9867917245      -35.9523634401  TIP3      8981            0.0000000000
     76776      9382  TIP3      OH2           -16.9292522913      -47.3769153136      -41.0727465358  TIP3      8982            0.0000000000
     76777      9382  TIP3      H1            -16.3176572749      -46.7281533666      -40.6784194631  TIP3      8982            0.0000000000
     76778      9382  TIP3      H2            -17.7995703495      -47.0565567372      -40.7798461279  TIP3      8982            0.0000000000
     76779      9383  TIP3      OH2           -11.2452368674      -44.5609097057      -36.0852281231  TIP3      8983            0.0000000000
     76780      9383  TIP3      H1            -11.5292957494      -43.6291583773      -36.0195974042  TIP3      8983            0.0000000000
     76781      9383  TIP3      H2            -11.9984812411      -45.0249625314      -35.6672291502  TIP3      8983            0.0000000000
     76782      9384  TIP3      OH2           -10.7921528749      -40.3922358575      -29.7326227556  TIP3      8984            0.0000000000
     76783      9384  TIP3      H1            -10.3700353292      -39.5544001433      -29.9873555085  TIP3      8984            0.0000000000
     76784      9384  TIP3      H2            -10.2015459190      -40.7011595784      -29.0174860401  TIP3      8984            0.0000000000
     76785      9385  TIP3      OH2           -12.5784589349      -39.5368764682      -36.5653456047  TIP3      8985            0.0000000000
     76786      9385  TIP3      H1            -13.5423027287      -39.4281884912      -36.4456271173  TIP3      8985            0.0000000000
     76787      9385  TIP3      H2            -12.2169554598      -38.7154526953      -36.1840504906  TIP3      8985            0.0000000000
     76788      9386  TIP3      OH2            -7.2298467460      -44.3289000709      -30.0659046902  TIP3      8986            0.0000000000
     76789      9386  TIP3      H1             -7.6227970732      -44.5459099151      -29.1989728188  TIP3      8986            0.0000000000
     76790      9386  TIP3      H2             -6.6229994990      -45.0633579332      -30.2405385037  TIP3      8986            0.0000000000
     76791      9387  TIP3      OH2            -4.9896976108      -43.3410321393      -40.9695253807  TIP3      8987            0.0000000000
     76792      9387  TIP3      H1             -4.6665718852      -43.7823876262      -40.1598400094  TIP3      8987            0.0000000000
     76793      9387  TIP3      H2             -5.9480163990      -43.4845472758      -40.8895642835  TIP3      8987            0.0000000000
     76794      9388  TIP3      OH2            -4.5119706249      -39.7726398767      -27.5722306929  TIP3      8988            0.0000000000
     76795      9388  TIP3      H1             -5.1532212808      -40.2996374688      -28.0853334941  TIP3      8988            0.0000000000
     76796      9388  TIP3      H2             -4.2698894226      -39.0854574712      -28.2288644310  TIP3      8988            0.0000000000
     76797      9389  TIP3      OH2            -0.4937951361      -38.9182400271      -40.7504621473  TIP3      8989            0.0000000000
     76798      9389  TIP3      H1              0.2413293463      -38.3017702720      -40.9459890997  TIP3      8989            0.0000000000
     76799      9389  TIP3      H2             -1.1897056228      -38.3040291993      -40.4514242840  TIP3      8989            0.0000000000
     76800      9390  TIP3      OH2           -16.3971138304      -52.5184334079      -28.1836146027  TIP3      8990            0.0000000000
     76801      9390  TIP3      H1            -17.3145659294      -52.1861040682      -28.2269103215  TIP3      8990            0.0000000000
     76802      9390  TIP3      H2            -16.5315881078      -53.3885559349      -27.7604223020  TIP3      8990            0.0000000000
     76803      9391  TIP3      OH2            -4.1485625833      -44.6720780451      -38.7506570350  TIP3      8991            0.0000000000
     76804      9391  TIP3      H1             -4.4074534879      -45.4547235840      -38.2098937088  TIP3      8991            0.0000000000
     76805      9391  TIP3      H2             -3.2027759012      -44.6172857105      -38.5431020971  TIP3      8991            0.0000000000
     76806      9392  TIP3      OH2           -16.8176748745      -40.7620321948      -29.7312831146  TIP3      8992            0.0000000000
     76807      9392  TIP3      H1            -16.4673335992      -41.6615871262      -29.7846548128  TIP3      8992            0.0000000000
     76808      9392  TIP3      H2            -16.4856843801      -40.4334640472      -28.8765755087  TIP3      8992            0.0000000000
     76809      9393  TIP3      OH2           -11.9966973242      -42.6866179948      -40.0768894519  TIP3      8993            0.0000000000
     76810      9393  TIP3      H1            -11.8078352824      -43.2202756740      -39.2954672345  TIP3      8993            0.0000000000
     76811      9393  TIP3      H2            -11.9720362629      -41.7682311243      -39.7505326119  TIP3      8993            0.0000000000
     76812      9394  TIP3      OH2           -15.5330948554      -45.4458729273      -39.5860823191  TIP3      8994            0.0000000000
     76813      9394  TIP3      H1            -16.2099057481      -45.0629827993      -38.9929253511  TIP3      8994            0.0000000000
     76814      9394  TIP3      H2            -14.9873552958      -44.6748391843      -39.8167335371  TIP3      8994            0.0000000000
     76815      9395  TIP3      OH2            -7.6844769182      -52.7717366948      -29.2755937018  TIP3      8995            0.0000000000
     76816      9395  TIP3      H1             -6.9750896312      -52.7116324828      -28.6212744597  TIP3      8995            0.0000000000
     76817      9395  TIP3      H2             -8.0660869072      -53.6532031683      -29.0944230088  TIP3      8995            0.0000000000
     76818      9396  TIP3      OH2            -6.9155648248      -53.1541231526      -38.1611259414  TIP3      8996            0.0000000000
     76819      9396  TIP3      H1             -6.6854500707      -52.6746750539      -38.9877910333  TIP3      8996            0.0000000000
     76820      9396  TIP3      H2             -6.3394841631      -52.7329224171      -37.5178953192  TIP3      8996            0.0000000000
     76821      9397  TIP3      OH2            -9.2354747922      -41.0140645470      -39.3275927022  TIP3      8997            0.0000000000
     76822      9397  TIP3      H1            -10.0542501213      -40.4957599490      -39.2750865396  TIP3      8997            0.0000000000
     76823      9397  TIP3      H2             -8.7008041448      -40.5126418658      -39.9652685240  TIP3      8997            0.0000000000
     76824      9398  TIP3      OH2            -9.7069172086      -51.4177581036      -37.3485189493  TIP3      8998            0.0000000000
     76825      9398  TIP3      H1             -8.8940909759      -50.8804924291      -37.3112679358  TIP3      8998            0.0000000000
     76826      9398  TIP3      H2             -9.9547234212      -51.5523654473      -36.4212340550  TIP3      8998            0.0000000000
     76827      9399  TIP3      OH2            -9.1593052132      -50.4224148945      -28.1668317092  TIP3      8999            0.0000000000
     76828      9399  TIP3      H1             -9.0573395501      -49.8380437614      -27.3911673827  TIP3      8999            0.0000000000
     76829      9399  TIP3      H2             -8.4959539881      -51.1130569960      -28.0571655280  TIP3      8999            0.0000000000
     76830      9400  TIP3      OH2            -8.8438276177      -54.3295956505      -36.4281350119  TIP3      9000            0.0000000000
     76831      9400  TIP3      H1             -9.1704662454      -53.6963684852      -35.7749065312  TIP3      9000            0.0000000000
     76832      9400  TIP3      H2             -8.1516246425      -53.8071819325      -36.8984367965  TIP3      9000            0.0000000000
     76833      9401  TIP3      OH2           -11.9064591940      -39.9703085862      -39.3379725567  TIP3      9001            0.0000000000
     76834      9401  TIP3      H1            -11.7123122482      -39.1526162292      -39.8364688539  TIP3      9001            0.0000000000
     76835      9401  TIP3      H2            -12.0932466404      -39.6464357947      -38.4338482851  TIP3      9001            0.0000000000
     76836      9402  TIP3      OH2           -13.1707362348      -53.2313315812      -39.7917691107  TIP3      9002            0.0000000000
     76837      9402  TIP3      H1            -13.2389983320      -52.3657853196      -39.3392543414  TIP3      9002            0.0000000000
     76838      9402  TIP3      H2            -12.2789982161      -53.5128259901      -39.4630245307  TIP3      9002            0.0000000000
     76839      9403  TIP3      OH2            -2.9352940962      -52.4869206867      -27.3122783590  TIP3      9003            0.0000000000
     76840      9403  TIP3      H1             -3.8938446107      -52.2487606320      -27.4274487186  TIP3      9003            0.0000000000
     76841      9403  TIP3      H2             -2.6491641963      -52.5472807613      -28.2377334115  TIP3      9003            0.0000000000
     76842      9404  TIP3      OH2            -4.3592590421      -48.7495676686      -33.2604790807  TIP3      9004            0.0000000000
     76843      9404  TIP3      H1             -5.1716574905      -49.1862990855      -33.5678772161  TIP3      9004            0.0000000000
     76844      9404  TIP3      H2             -3.8978598947      -49.4527560887      -32.7538153940  TIP3      9004            0.0000000000
     76845      9405  TIP3      OH2           -14.9269894195      -42.8316576247      -40.6763513849  TIP3      9005            0.0000000000
     76846      9405  TIP3      H1            -14.2931668214      -42.1667211111      -40.3907733924  TIP3      9005            0.0000000000
     76847      9405  TIP3      H2            -14.4288702624      -43.2793218575      -41.3874543750  TIP3      9005            0.0000000000
     76848      9406  TIP3      OH2           -16.5440908266      -50.1712427634      -41.5352940658  TIP3      9006            0.0000000000
     76849      9406  TIP3      H1            -16.6250835275      -49.2067617545      -41.3746836824  TIP3      9006            0.0000000000
     76850      9406  TIP3      H2            -17.4542392139      -50.3836277163      -41.8312795904  TIP3      9006            0.0000000000
     76851      9407  TIP3      OH2            -3.2890257802      -39.5137208552      -31.6066413262  TIP3      9007            0.0000000000
     76852      9407  TIP3      H1             -3.4109462482      -38.8126247299      -32.2733762684  TIP3      9007            0.0000000000
     76853      9407  TIP3      H2             -2.3281669853      -39.4327059050      -31.4260707875  TIP3      9007            0.0000000000
     76854      9408  TIP3      OH2           -15.7610966704      -55.3413960715      -32.8639200496  TIP3      9008            0.0000000000
     76855      9408  TIP3      H1            -16.0091575024      -55.3253855366      -33.8121924068  TIP3      9008            0.0000000000
     76856      9408  TIP3      H2            -16.2181954017      -56.1707202358      -32.5748182475  TIP3      9008            0.0000000000
     76857      9409  TIP3      OH2           -16.8379723475      -41.4469941392      -36.6956065503  TIP3      9009            0.0000000000
     76858      9409  TIP3      H1            -17.6873817944      -40.9833704189      -36.7014945209  TIP3      9009            0.0000000000
     76859      9409  TIP3      H2            -16.3241468444      -40.9561014541      -37.3419040344  TIP3      9009            0.0000000000
     76860      9410  TIP3      OH2           -17.5885691355      -38.8256784078      -25.3929605544  TIP3      9010            0.0000000000
     76861      9410  TIP3      H1            -17.0302287490      -39.0332463124      -24.6338925220  TIP3      9010            0.0000000000
     76862      9410  TIP3      H2            -18.0489201826      -39.6548274157      -25.5690508823  TIP3      9010            0.0000000000
     76863      9411  TIP3      OH2           -12.9851253895      -39.9102531390      -23.7703597792  TIP3      9011            0.0000000000
     76864      9411  TIP3      H1            -12.1857435119      -40.3604179011      -23.4320668333  TIP3      9011            0.0000000000
     76865      9411  TIP3      H2            -12.9730155199      -40.1498660610      -24.7155913393  TIP3      9011            0.0000000000
     76866      9412  TIP3      OH2            -8.5425729022      -40.2532957678      -41.8976621060  TIP3      9012            0.0000000000
     76867      9412  TIP3      H1             -9.3408973301      -40.8405209098      -41.9662680675  TIP3      9012            0.0000000000
     76868      9412  TIP3      H2             -8.0736780285      -40.8166221769      -42.5206469424  TIP3      9012            0.0000000000
     76869      9413  TIP3      OH2            -6.3949732436      -41.5216569347      -25.0523445461  TIP3      9013            0.0000000000
     76870      9413  TIP3      H1             -6.7531770595      -42.3908407193      -24.7821109277  TIP3      9013            0.0000000000
     76871      9413  TIP3      H2             -5.6531468631      -41.3806804994      -24.4454019512  TIP3      9013            0.0000000000
     76872      9414  TIP3      OH2            -4.2616770451      -40.5815572652      -42.1532103464  TIP3      9014            0.0000000000
     76873      9414  TIP3      H1             -3.9862250416      -41.4057694118      -41.7124607209  TIP3      9014            0.0000000000
     76874      9414  TIP3      H2             -3.5097333319      -40.3704788639      -42.7272553401  TIP3      9014            0.0000000000
     76875      9415  TIP3      OH2           -17.6763910558      -45.0215091495      -24.4016984708  TIP3      9015            0.0000000000
     76876      9415  TIP3      H1            -17.5218547030      -45.9360443078      -24.7181827877  TIP3      9015            0.0000000000
     76877      9415  TIP3      H2            -18.4395068126      -44.7459897387      -24.9401766401  TIP3      9015            0.0000000000
     76878      9416  TIP3      OH2           -13.2923208859      -44.6310310349      -42.2594121877  TIP3      9016            0.0000000000
     76879      9416  TIP3      H1            -13.2409515098      -45.4643594879      -41.7772641635  TIP3      9016            0.0000000000
     76880      9416  TIP3      H2            -12.6818701855      -44.8258479247      -42.9945352139  TIP3      9016            0.0000000000
     76881      9417  TIP3      OH2           -10.9756994220      -45.0366132194      -25.0069284039  TIP3      9017            0.0000000000
     76882      9417  TIP3      H1            -11.3374659887      -44.7613443948      -25.8656325648  TIP3      9017            0.0000000000
     76883      9417  TIP3      H2            -10.8824742578      -46.0145454153      -25.0935348892  TIP3      9017            0.0000000000
     76884      9418  TIP3      OH2            -5.2766480487      -45.1697122640      -27.6068267484  TIP3      9018            0.0000000000
     76885      9418  TIP3      H1             -4.5211216712      -44.5526431687      -27.7199559212  TIP3      9018            0.0000000000
     76886      9418  TIP3      H2             -6.0138767464      -44.5408680113      -27.5689137654  TIP3      9018            0.0000000000
     76887      9419  TIP3      OH2           -16.8148737730      -47.8032695845      -25.0068648415  TIP3      9019            0.0000000000
     76888      9419  TIP3      H1            -16.4049567740      -48.6705362263      -25.1332247830  TIP3      9019            0.0000000000
     76889      9419  TIP3      H2            -17.0734170469      -47.8102036943      -24.0795594700  TIP3      9019            0.0000000000
     76890      9420  TIP3      OH2           -12.1693900993      -46.6752344889      -39.9847626783  TIP3      9020            0.0000000000
     76891      9420  TIP3      H1            -12.6367962544      -47.1875013839      -39.3066291358  TIP3      9020            0.0000000000
     76892      9420  TIP3      H2            -11.8793917116      -47.3675727925      -40.6175064636  TIP3      9020            0.0000000000
     76893      9421  TIP3      OH2           -12.8838388434      -48.8372996751      -27.6405247982  TIP3      9021            0.0000000000
     76894      9421  TIP3      H1            -13.4960703606      -48.1330040794      -27.3664727282  TIP3      9021            0.0000000000
     76895      9421  TIP3      H2            -12.5231447445      -48.4851413415      -28.4717000904  TIP3      9021            0.0000000000
     76896      9422  TIP3      OH2           -11.1055514477      -48.4712987376      -41.7368873881  TIP3      9022            0.0000000000
     76897      9422  TIP3      H1            -11.2359804774      -48.6083017591      -42.6814599408  TIP3      9022            0.0000000000
     76898      9422  TIP3      H2            -10.1226074355      -48.3488721371      -41.6662023475  TIP3      9022            0.0000000000
     76899      9423  TIP3      OH2            -7.8408271001      -46.2984476018      -24.3105755759  TIP3      9023            0.0000000000
     76900      9423  TIP3      H1             -6.8833534362      -46.2895581424      -24.4113617462  TIP3      9023            0.0000000000
     76901      9423  TIP3      H2             -8.0182771339      -47.0652085380      -23.7362589359  TIP3      9023            0.0000000000
     76902      9424  TIP3      OH2            -1.8259162395      -46.0409892408       42.7726610675  TIP3      9024            0.0000000000
     76903      9424  TIP3      H1             -1.9831713406      -46.5142496944       41.9311828129  TIP3      9024            0.0000000000
     76904      9424  TIP3      H2             -1.6690072463      -45.1313309279       42.4966601804  TIP3      9024            0.0000000000
     76905      9425  TIP3      OH2           -12.5096606873      -51.4674983565      -26.5561113418  TIP3      9025            0.0000000000
     76906      9425  TIP3      H1            -12.3801665265      -52.1873671933      -27.1921106215  TIP3      9025            0.0000000000
     76907      9425  TIP3      H2            -12.5368156872      -50.6707744162      -27.1255494770  TIP3      9025            0.0000000000
     76908      9426  TIP3      OH2           -12.1042625845      -53.1088130364      -29.0527168569  TIP3      9026            0.0000000000
     76909      9426  TIP3      H1            -11.5793002118      -52.6292279859      -29.7368063549  TIP3      9026            0.0000000000
     76910      9426  TIP3      H2            -12.9886031546      -53.1856861680      -29.4772336733  TIP3      9026            0.0000000000
     76911      9427  TIP3      OH2           -10.5459266753      -47.6404241457      -28.8070963420  TIP3      9027            0.0000000000
     76912      9427  TIP3      H1             -9.7928771949      -47.7949581819      -29.3896237912  TIP3      9027            0.0000000000
     76913      9427  TIP3      H2            -10.8933126341      -46.7867830165      -29.1126596497  TIP3      9027            0.0000000000
     76914      9428  TIP3      OH2            -6.1524152316      -49.8364245717      -23.8287204181  TIP3      9028            0.0000000000
     76915      9428  TIP3      H1             -5.9226671040      -50.7687307328      -23.8903454432  TIP3      9028            0.0000000000
     76916      9428  TIP3      H2             -5.2793153312      -49.4086518974      -23.7881230363  TIP3      9028            0.0000000000
     76917      9429  TIP3      OH2            -4.8193256174      -47.0620969492      -25.6989493090  TIP3      9029            0.0000000000
     76918      9429  TIP3      H1             -5.0840781293      -46.3275290717      -26.2997525609  TIP3      9029            0.0000000000
     76919      9429  TIP3      H2             -3.8599087797      -47.0925703483      -25.8695318117  TIP3      9029            0.0000000000
     76920      9430  TIP3      OH2           -14.0493034684      -50.2245745202      -24.6503173836  TIP3      9030            0.0000000000
     76921      9430  TIP3      H1            -14.8142332094      -50.8055569300      -24.8455989410  TIP3      9030            0.0000000000
     76922      9430  TIP3      H2            -13.3798797552      -50.5827306745      -25.2607573292  TIP3      9030            0.0000000000
     76923      9431  TIP3      OH2           -11.3040184709      -55.6578320808      -28.6292281098  TIP3      9031            0.0000000000
     76924      9431  TIP3      H1            -11.4356514559      -54.6872832315      -28.7432512683  TIP3      9031            0.0000000000
     76925      9431  TIP3      H2            -12.0682097286      -56.0075837969      -29.1225318041  TIP3      9031            0.0000000000
     76926      9432  TIP3      OH2           -10.0295465215      -51.3383527071      -25.0623722334  TIP3      9032            0.0000000000
     76927      9432  TIP3      H1            -10.3141562326      -51.5368022703      -24.1478692781  TIP3      9032            0.0000000000
     76928      9432  TIP3      H2            -10.8450718851      -51.5215738716      -25.5704693843  TIP3      9032            0.0000000000
     76929      9433  TIP3      OH2            -7.3275925506      -52.1822774659      -25.9759527814  TIP3      9033            0.0000000000
     76930      9433  TIP3      H1             -8.2933711195      -52.1534614276      -25.8475161604  TIP3      9033            0.0000000000
     76931      9433  TIP3      H2             -7.0320388910      -52.8224032073      -25.3085920517  TIP3      9033            0.0000000000
     76932      9434  TIP3      OH2            -5.7282283985      -53.5414284862      -23.9902431328  TIP3      9034            0.0000000000
     76933      9434  TIP3      H1             -5.7943291498      -54.5185514123      -24.0015634371  TIP3      9034            0.0000000000
     76934      9434  TIP3      H2             -6.0232095693      -53.2852245725      -23.1089886800  TIP3      9034            0.0000000000
     76935      9435  TIP3      OH2           -15.8935691845      -52.3087164119      -24.9325841500  TIP3      9035            0.0000000000
     76936      9435  TIP3      H1            -15.6789713604      -53.0485635408      -25.5431305345  TIP3      9035            0.0000000000
     76937      9435  TIP3      H2            -16.0049911290      -52.7764235234      -24.0909298678  TIP3      9035            0.0000000000
     76938      9436  TIP3      OH2           -11.1252007826       56.5241313161      -25.9504373979  TIP3      9036            0.0000000000
     76939      9436  TIP3      H1            -10.3959005384       55.8621235650      -25.9742723780  TIP3      9036            0.0000000000
     76940      9436  TIP3      H2            -11.1970159821       56.7469188049      -26.8901702901  TIP3      9036            0.0000000000
     76941      9437  TIP3      OH2           -10.7110259142      -54.6466263139      -23.9117878718  TIP3      9037            0.0000000000
     76942      9437  TIP3      H1            -10.8895154382      -55.1572243451      -24.7205176289  TIP3      9037            0.0000000000
     76943      9437  TIP3      H2            -11.3395043316      -53.9081603367      -23.9504330627  TIP3      9037            0.0000000000
     76944      9438  TIP3      OH2           -11.2386420278      -37.7543582916      -40.7240112980  TIP3      9038            0.0000000000
     76945      9438  TIP3      H1            -10.2647127718      -37.6306925315      -40.5944441077  TIP3      9038            0.0000000000
     76946      9438  TIP3      H2            -11.4360529261      -37.0878906870      -41.3766682007  TIP3      9038            0.0000000000
     76947      9439  TIP3      OH2           -17.6605434888      -43.1401865494      -41.2231937987  TIP3      9039            0.0000000000
     76948      9439  TIP3      H1            -16.7069297620      -43.0607248001      -40.9790277809  TIP3      9039            0.0000000000
     76949      9439  TIP3      H2            -17.6274325202      -43.7966243400      -41.9265399528  TIP3      9039            0.0000000000
     76950      9440  TIP3      OH2           -18.9350054785      -37.7610633178      -36.2188751148  TIP3      9040            0.0000000000
     76951      9440  TIP3      H1            -19.6421549151      -38.2412004288      -36.6938192146  TIP3      9040            0.0000000000
     76952      9440  TIP3      H2            -18.6415002227      -38.4279392253      -35.5710266641  TIP3      9040            0.0000000000
     76953      9441  TIP3      OH2           -18.1052264072      -39.6563599821      -34.3668845327  TIP3      9041            0.0000000000
     76954      9441  TIP3      H1            -18.4484068174      -40.5403630057      -34.1844543769  TIP3      9041            0.0000000000
     76955      9441  TIP3      H2            -17.8773328121      -39.3151146408      -33.4869579055  TIP3      9041            0.0000000000
     76956      9442  TIP3      OH2            -0.5685554746      -38.8570589586      -31.4053854801  TIP3      9042            0.0000000000
     76957      9442  TIP3      H1             -0.5603264724      -38.6730080757      -30.4506135603  TIP3      9042            0.0000000000
     76958      9442  TIP3      H2              0.1351533835      -38.2786288348      -31.7228716593  TIP3      9042            0.0000000000
     76959      9443  TIP3      OH2            -0.9945773345      -39.2596873141      -28.4644452338  TIP3      9043            0.0000000000
     76960      9443  TIP3      H1             -1.4745405763      -40.0303341920      -28.8423373417  TIP3      9043            0.0000000000
     76961      9443  TIP3      H2             -0.4619407605      -39.6956623254      -27.7831643864  TIP3      9043            0.0000000000
     76962      9444  TIP3      OH2            -2.5395974299      -43.4986166158      -23.8196346023  TIP3      9044            0.0000000000
     76963      9444  TIP3      H1             -3.4131234488      -43.6025648802      -23.4308874382  TIP3      9044            0.0000000000
     76964      9444  TIP3      H2             -2.1671203641      -42.7300434790      -23.3799337463  TIP3      9044            0.0000000000
     76965      9445  TIP3      OH2            -1.2454871366      -45.2090024031      -38.3408281285  TIP3      9045            0.0000000000
     76966      9445  TIP3      H1             -0.3761195577      -44.8197681472      -38.1726144075  TIP3      9045            0.0000000000
     76967      9445  TIP3      H2             -1.2407202211      -45.9591198072      -37.6985159709  TIP3      9045            0.0000000000
     76968      9446  TIP3      OH2            -0.8615700827      -47.1556382482      -36.4976868619  TIP3      9046            0.0000000000
     76969      9446  TIP3      H1             -1.5996912378      -47.6611217033      -36.0923697845  TIP3      9046            0.0000000000
     76970      9446  TIP3      H2             -0.2654738767      -46.9858550413      -35.7393052388  TIP3      9046            0.0000000000
     76971      9447  TIP3      OH2            -1.1086213414      -44.4220696666      -31.5185799082  TIP3      9047            0.0000000000
     76972      9447  TIP3      H1             -0.2677306542      -44.7885083612      -31.8501395186  TIP3      9047            0.0000000000
     76973      9447  TIP3      H2             -0.9709994208      -43.4616520452      -31.6696155722  TIP3      9047            0.0000000000
     76974      9448  TIP3      OH2            -2.5739914129      -41.5281919057      -29.2250338508  TIP3      9048            0.0000000000
     76975      9448  TIP3      H1             -3.2568374929      -41.1938008758      -28.6215778917  TIP3      9048            0.0000000000
     76976      9448  TIP3      H2             -3.1205445837      -41.9520800915      -29.9231951459  TIP3      9048            0.0000000000
     76977      9449  TIP3      OH2            -0.5751198369      -47.3050575443      -40.1026812346  TIP3      9049            0.0000000000
     76978      9449  TIP3      H1             -1.1277729232      -46.9307069682      -40.8149077627  TIP3      9049            0.0000000000
     76979      9449  TIP3      H2             -0.6298183570      -46.6045854492      -39.4261775213  TIP3      9049            0.0000000000
     76980      9450  TIP3      OH2            -2.4589481286      -50.0320117530      -41.4700182641  TIP3      9050            0.0000000000
     76981      9450  TIP3      H1             -2.1313929819      -49.4260876891      -42.1625562076  TIP3      9050            0.0000000000
     76982      9450  TIP3      H2             -2.3743220387      -50.8614534036      -41.9890141565  TIP3      9050            0.0000000000
     76983      9451  TIP3      OH2            -3.0557452119      -48.6582802535      -35.9305448863  TIP3      9051            0.0000000000
     76984      9451  TIP3      H1             -3.2102665421      -49.6144419940      -35.9470228147  TIP3      9051            0.0000000000
     76985      9451  TIP3      H2             -3.4078610784      -48.4049524841      -35.0617796356  TIP3      9051            0.0000000000
     76986      9452  TIP3      OH2           -18.0457249672      -46.5638540530      -31.8814477188  TIP3      9052            0.0000000000
     76987      9452  TIP3      H1            -17.8480423237      -46.6612109342      -32.8410148616  TIP3      9052            0.0000000000
     76988      9452  TIP3      H2            -17.1599578854      -46.7335437129      -31.5036170780  TIP3      9052            0.0000000000
     76989      9453  TIP3      OH2            -2.1997376748      -46.7128294847      -26.2848601539  TIP3      9053            0.0000000000
     76990      9453  TIP3      H1             -1.5948893354      -47.4228430695      -26.0496558577  TIP3      9053            0.0000000000
     76991      9453  TIP3      H2             -1.6281825650      -45.9097425683      -26.2391880093  TIP3      9053            0.0000000000
     76992      9454  TIP3      OH2            -0.6810074038      -48.7783883996      -25.4429653099  TIP3      9054            0.0000000000
     76993      9454  TIP3      H1             -1.5722293894      -49.1518600338      -25.6354406994  TIP3      9054            0.0000000000
     76994      9454  TIP3      H2             -0.0848378118      -49.5323750993      -25.5997110635  TIP3      9054            0.0000000000
     76995      9455  TIP3      OH2            -2.9702502256      -52.6148374116      -42.4334779271  TIP3      9055            0.0000000000
     76996      9455  TIP3      H1             -2.3690463961      -53.0334098443      -41.7919098643  TIP3      9055            0.0000000000
     76997      9455  TIP3      H2             -3.8254749341      -53.0382626024      -42.2499245736  TIP3      9055            0.0000000000
     76998      9456  TIP3      OH2            -3.3736583917      -51.0722801528      -37.4567304397  TIP3      9056            0.0000000000
     76999      9456  TIP3      H1             -3.0688150336      -51.9981710000      -37.3395358276  TIP3      9056            0.0000000000
     77000      9456  TIP3      H2             -2.5932977953      -50.6582213457      -37.8518313981  TIP3      9056            0.0000000000
     77001      9457  TIP3      OH2            -2.7487824068      -50.5159626569      -32.0236709682  TIP3      9057            0.0000000000
     77002      9457  TIP3      H1             -1.7905739389      -50.2887622802      -32.0550653284  TIP3      9057            0.0000000000
     77003      9457  TIP3      H2             -2.9626803135      -50.3964604228      -31.0929224744  TIP3      9057            0.0000000000
     77004      9458  TIP3      OH2            -2.6670473415      -49.7777101903      -29.1769900215  TIP3      9058            0.0000000000
     77005      9458  TIP3      H1             -3.5798545448      -49.5036814635      -28.9153747529  TIP3      9058            0.0000000000
     77006      9458  TIP3      H2             -2.2817507658      -48.9257892967      -29.5057527353  TIP3      9058            0.0000000000
     77007      9459  TIP3      OH2           -18.4319662961      -51.2820540479      -25.7643490559  TIP3      9059            0.0000000000
     77008      9459  TIP3      H1            -17.5016113093      -51.4743065823      -25.5339720764  TIP3      9059            0.0000000000
     77009      9459  TIP3      H2            -18.8799714832      -52.0855908699      -25.4081919863  TIP3      9059            0.0000000000
     77010      9460  TIP3      OH2            -0.4110729492      -55.7812618392      -23.8704302165  TIP3      9060            0.0000000000
     77011      9460  TIP3      H1             -0.0742131886      -56.4383088127      -24.4984488341  TIP3      9060            0.0000000000
     77012      9460  TIP3      H2             -0.3084095494      -54.9493318884      -24.3642090432  TIP3      9060            0.0000000000
     77013      9461  TIP3      OH2            -2.7282576313      -53.8005776477      -37.4152207688  TIP3      9061            0.0000000000
     77014      9461  TIP3      H1             -2.5449256819      -54.2616259815      -36.5741913568  TIP3      9061            0.0000000000
     77015      9461  TIP3      H2             -3.3459800841      -54.4161363414      -37.8751373154  TIP3      9061            0.0000000000
     77016      9462  TIP3      OH2           -17.2289048985      -52.9932042548      -32.8858099904  TIP3      9062            0.0000000000
     77017      9462  TIP3      H1            -16.7623255216      -53.7967417965      -32.5815228498  TIP3      9062            0.0000000000
     77018      9462  TIP3      H2            -16.7223658534      -52.2854780067      -32.4591742470  TIP3      9062            0.0000000000
     77019      9463  TIP3      OH2           -18.9348392735      -50.0017327039      -31.8100019433  TIP3      9063            0.0000000000
     77020      9463  TIP3      H1            -18.3932079939      -50.2219573604      -32.5973577978  TIP3      9063            0.0000000000
     77021      9463  TIP3      H2            -18.5150202800      -49.1690299694      -31.5437632048  TIP3      9063            0.0000000000
     77022      9464  TIP3      OH2            -0.8818093804      -53.6462792643      -25.5541111971  TIP3      9064            0.0000000000
     77023      9464  TIP3      H1             -1.8328386936      -53.4191765664      -25.5986529599  TIP3      9064            0.0000000000
     77024      9464  TIP3      H2             -0.8153089590      -54.2253233380      -26.3337764991  TIP3      9064            0.0000000000
     77025      9465  TIP3      OH2            -0.8905246518      -53.7530801192      -40.8537424232  TIP3      9065            0.0000000000
     77026      9465  TIP3      H1             -0.4585446095      -54.4611787025      -41.3614296864  TIP3      9065            0.0000000000
     77027      9465  TIP3      H2             -0.1776113537      -53.0868456423      -40.8347680988  TIP3      9065            0.0000000000
     77028      9466  TIP3      OH2           -18.5892728492      -53.7619518781      -37.7537161075  TIP3      9066            0.0000000000
     77029      9466  TIP3      H1            -19.5230895962      -53.5291296331      -37.8871085995  TIP3      9066            0.0000000000
     77030      9466  TIP3      H2            -18.1472356942      -53.2543793900      -38.4579343009  TIP3      9066            0.0000000000
     77031      9467  TIP3      OH2            -3.8393526331      -38.7544943555      -35.8059289215  TIP3      9067            0.0000000000
     77032      9467  TIP3      H1             -3.1278858332      -39.0551157874      -36.3168149647  TIP3      9067            0.0000000000
     77033      9467  TIP3      H2             -3.3329630844      -38.2569957375      -35.1333571426  TIP3      9067            0.0000000000
     77034      9468  TIP3      OH2           -18.6030823267      -55.0072368565      -29.4323948299  TIP3      9068            0.0000000000
     77035      9468  TIP3      H1            -19.2804874177      -55.2594707593      -28.7604966151  TIP3      9068            0.0000000000
     77036      9468  TIP3      H2            -19.0889975951      -54.3848376924      -29.9978233245  TIP3      9068            0.0000000000
     77037      9469  TIP3      OH2           -16.4184970149      -41.8311408467      -25.2724730637  TIP3      9069            0.0000000000
     77038      9469  TIP3      H1            -17.2574487730      -41.6552089272      -25.7131326009  TIP3      9069            0.0000000000
     77039      9469  TIP3      H2            -16.6835164292      -41.9205081653      -24.3513828642  TIP3      9069            0.0000000000
     77040      9470  TIP3      OH2           -13.5072116277      -40.8737342960      -29.0105401347  TIP3      9070            0.0000000000
     77041      9470  TIP3      H1            -13.8647645282      -40.0226986901      -29.2940991691  TIP3      9070            0.0000000000
     77042      9470  TIP3      H2            -12.5765989556      -40.7694892802      -29.3157038576  TIP3      9070            0.0000000000
     77043      9471  TIP3      OH2            -9.1732849870      -39.4498871336      -26.0984815435  TIP3      9071            0.0000000000
     77044      9471  TIP3      H1             -8.9956267595      -39.7886486383      -25.1817354060  TIP3      9071            0.0000000000
     77045      9471  TIP3      H2             -8.2888679610      -39.1415768872      -26.3645534227  TIP3      9071            0.0000000000
     77046      9472  TIP3      OH2            -6.8620995519      -38.1735862354      -26.8118035167  TIP3      9072            0.0000000000
     77047      9472  TIP3      H1             -6.1450905753      -38.7883617147      -27.0410930766  TIP3      9072            0.0000000000
     77048      9472  TIP3      H2             -6.4973832275      -37.7603350468      -25.9980794628  TIP3      9072            0.0000000000
     77049      9473  TIP3      OH2            -1.9076081476      -55.5438330123      -27.6991236741  TIP3      9073            0.0000000000
     77050      9473  TIP3      H1             -2.7214605215      -55.2409298495      -28.1162829231  TIP3      9073            0.0000000000
     77051      9473  TIP3      H2             -1.6774079935      -56.3441831052      -28.2369026349  TIP3      9073            0.0000000000
     77052      9474  TIP3      OH2           -16.0786001657      -37.6322870609      -28.9923434199  TIP3      9074            0.0000000000
     77053      9474  TIP3      H1            -16.7998452095      -37.1346004995      -29.4122692391  TIP3      9074            0.0000000000
     77054      9474  TIP3      H2            -16.4207807502      -37.8274901330      -28.1112633324  TIP3      9074            0.0000000000
     77055      9475  TIP3      OH2           -13.5945071753      -38.0293237989      -29.9336406082  TIP3      9075            0.0000000000
     77056      9475  TIP3      H1            -14.4863447403      -37.9101963154      -29.5340459983  TIP3      9075            0.0000000000
     77057      9475  TIP3      H2            -13.6677888436      -37.4509837180      -30.7190206295  TIP3      9075            0.0000000000
     77058      9476  TIP3      OH2            -8.8978408191      -38.1283481089      -30.7654067579  TIP3      9076            0.0000000000
     77059      9476  TIP3      H1             -9.3612586114      -37.5804441590      -31.4176607505  TIP3      9076            0.0000000000
     77060      9476  TIP3      H2             -8.7470633734      -37.4985470146      -30.0298462569  TIP3      9076            0.0000000000
     77061      9477  TIP3      OH2            -6.5787102145      -39.2784654317      -29.7886973354  TIP3      9077            0.0000000000
     77062      9477  TIP3      H1             -7.4723332622      -39.0558162526      -30.0939911046  TIP3      9077            0.0000000000
     77063      9477  TIP3      H2             -6.1418814854      -38.4124846510      -29.8659220884  TIP3      9077            0.0000000000
     77064      9478  TIP3      OH2            -3.9914458349      -37.7099409539      -29.5067886602  TIP3      9078            0.0000000000
     77065      9478  TIP3      H1             -4.1261059453      -36.7572909489      -29.7405742510  TIP3      9078            0.0000000000
     77066      9478  TIP3      H2             -3.7997129197      -38.0882508117      -30.3847309685  TIP3      9078            0.0000000000
     77067      9479  TIP3      OH2           -16.6584706252      -38.9824213297      -32.0636435196  TIP3      9079            0.0000000000
     77068      9479  TIP3      H1            -16.6821448649      -39.4153132257      -31.1927891419  TIP3      9079            0.0000000000
     77069      9479  TIP3      H2            -15.8282492374      -39.3134979509      -32.4693679900  TIP3      9079            0.0000000000
     77070      9480  TIP3      OH2           -14.5387588989      -40.2571071115      -33.4155033923  TIP3      9080            0.0000000000
     77071      9480  TIP3      H1            -14.7204594811      -41.1932326948      -33.2180643323  TIP3      9080            0.0000000000
     77072      9480  TIP3      H2            -13.6866967079      -40.1258646277      -32.9413723046  TIP3      9080            0.0000000000
     77073      9481  TIP3      OH2           -11.9675637539      -39.7815394395      -32.5505123574  TIP3      9081            0.0000000000
     77074      9481  TIP3      H1            -11.7705434339      -40.6955219559      -32.8230430331  TIP3      9081            0.0000000000
     77075      9481  TIP3      H2            -11.9058104692      -39.8424992073      -31.5880441126  TIP3      9081            0.0000000000
     77076      9482  TIP3      OH2            -8.4882440745      -54.1207922856      -33.4079383822  TIP3      9082            0.0000000000
     77077      9482  TIP3      H1             -9.1520282923      -54.7812132462      -33.1515237460  TIP3      9082            0.0000000000
     77078      9482  TIP3      H2             -7.9147924904      -54.6333245844      -33.9951653745  TIP3      9082            0.0000000000
     77079      9483  TIP3      OH2            -3.3425047165      -56.0571819473      -33.3243164702  TIP3      9083            0.0000000000
     77080      9483  TIP3      H1             -2.7272467820      -55.4676758892      -33.8159190107  TIP3      9083            0.0000000000
     77081      9483  TIP3      H2             -4.2238445893      -55.7100058978      -33.5449213775  TIP3      9083            0.0000000000
     77082      9484  TIP3      OH2            -1.6249014074      -54.8775600963      -35.0126731138  TIP3      9084            0.0000000000
     77083      9484  TIP3      H1             -0.9802207783      -55.4039627603      -35.4982833300  TIP3      9084            0.0000000000
     77084      9484  TIP3      H2             -1.1968861666      -53.9940310941      -34.9431458734  TIP3      9084            0.0000000000
     77085      9485  TIP3      OH2           -16.1496695207      -55.4530353233      -35.5738281591  TIP3      9085            0.0000000000
     77086      9485  TIP3      H1            -16.9256985271      -55.7231261502      -36.0879820403  TIP3      9085            0.0000000000
     77087      9485  TIP3      H2            -15.6369934160      -56.2981002807      -35.5917138620  TIP3      9085            0.0000000000
     77088      9486  TIP3      OH2           -17.3007878394      -55.7117156641      -39.7881418106  TIP3      9086            0.0000000000
     77089      9486  TIP3      H1            -16.8745605849      -55.0779642152      -40.3868326807  TIP3      9086            0.0000000000
     77090      9486  TIP3      H2            -17.9398941254      -55.1619934731      -39.3040317905  TIP3      9086            0.0000000000
     77091      9487  TIP3      OH2           -11.6101565302      -55.5747956777      -35.7613432959  TIP3      9087            0.0000000000
     77092      9487  TIP3      H1            -10.7085667720      -55.2070422400      -35.8101598062  TIP3      9087            0.0000000000
     77093      9487  TIP3      H2            -11.6939396952      -55.7897367696      -34.8322662721  TIP3      9087            0.0000000000
     77094      9488  TIP3      OH2            -5.9531227328      -55.5107085829      -34.1341259618  TIP3      9088            0.0000000000
     77095      9488  TIP3      H1             -5.9405597115      -55.4500633485      -35.0897014961  TIP3      9088            0.0000000000
     77096      9488  TIP3      H2             -6.2932625412      -56.4334202837      -34.0015879808  TIP3      9088            0.0000000000
     77097      9489  TIP3      OH2            -4.6252859520      -55.4967764398      -38.4644042755  TIP3      9089            0.0000000000
     77098      9489  TIP3      H1             -5.3713492600      -54.9160555185      -38.6459217557  TIP3      9089            0.0000000000
     77099      9489  TIP3      H2             -5.0980604483      -56.3481987773      -38.2875628955  TIP3      9089            0.0000000000
     77100      9490  TIP3      OH2           -17.3846464301      -39.7676344132      -38.8581454878  TIP3      9090            0.0000000000
     77101      9490  TIP3      H1            -18.0935904340      -39.8000041760      -39.5391639316  TIP3      9090            0.0000000000
     77102      9490  TIP3      H2            -17.4356461751      -38.8431434642      -38.6145541373  TIP3      9090            0.0000000000
     77103      9491  TIP3      OH2           -15.4464736223      -53.7804610614      -41.3630480632  TIP3      9091            0.0000000000
     77104      9491  TIP3      H1            -14.9757265061      -54.4514110318      -41.8610716348  TIP3      9091            0.0000000000
     77105      9491  TIP3      H2            -14.8387315620      -53.5185164357      -40.6547424410  TIP3      9091            0.0000000000
     77106      9492  TIP3      OH2           -10.4806742615      -53.5286622650      -38.9087864223  TIP3      9092            0.0000000000
     77107      9492  TIP3      H1            -10.2337307035      -54.1303843115      -38.1845672769  TIP3      9092            0.0000000000
     77108      9492  TIP3      H2            -10.4477129059      -52.6684851765      -38.4153240466  TIP3      9092            0.0000000000
     77109      9493  TIP3      OH2            -8.5820259030      -38.3654764179      -40.3965574582  TIP3      9093            0.0000000000
     77110      9493  TIP3      H1             -7.6611831623      -38.1974613853      -40.6522056427  TIP3      9093            0.0000000000
     77111      9493  TIP3      H2             -8.7693825856      -38.9407527146      -41.1972175233  TIP3      9093            0.0000000000
     77112      9494  TIP3      OH2            -1.3789684816      -38.8211568720      -37.9927553105  TIP3      9094            0.0000000000
     77113      9494  TIP3      H1             -1.7562032064      -39.6023531140      -38.4111519337  TIP3      9094            0.0000000000
     77114      9494  TIP3      H2             -1.8647834120      -38.1047029524      -38.4527263401  TIP3      9094            0.0000000000
     77115      9495  TIP3      OH2           -16.1983231346      -54.9356565583      -26.0846726154  TIP3      9095            0.0000000000
     77116      9495  TIP3      H1            -16.5807196546      -55.7509007678      -25.6667874694  TIP3      9095            0.0000000000
     77117      9495  TIP3      H2            -15.2773016527      -54.9898208001      -25.7526621831  TIP3      9095            0.0000000000
     77118      9496  TIP3      OH2           -14.2060347443      -55.6133512566      -24.5264545609  TIP3      9096            0.0000000000
     77119      9496  TIP3      H1            -13.3051487907      -55.9187085092      -24.7041695287  TIP3      9096            0.0000000000
     77120      9496  TIP3      H2            -14.6011169823      -56.3901844614      -24.0742048613  TIP3      9096            0.0000000000
     77121      9497  TIP3      OH2           -15.5794740214      -38.8057808521      -41.8541044332  TIP3      9097            0.0000000000
     77122      9497  TIP3      H1            -15.8801348937      -38.5710491669      -40.9801476006  TIP3      9097            0.0000000000
     77123      9497  TIP3      H2            -14.8310787058      -39.3900116418      -41.7128141550  TIP3      9097            0.0000000000
     77124      9498  TIP3      OH2            -5.7987120195       56.5509223955      -24.3550843953  TIP3      9098            0.0000000000
     77125      9498  TIP3      H1             -5.7201232887       56.0939865938      -23.4884723198  TIP3      9098            0.0000000000
     77126      9498  TIP3      H2             -4.8901076225       56.5382060380      -24.6760426640  TIP3      9098            0.0000000000
     77127      9499  TIP3      OH2            -2.6151171284      -40.2549067897      -25.6427085794  TIP3      9099            0.0000000000
     77128      9499  TIP3      H1             -3.4125623785      -40.3948106635      -26.1964918014  TIP3      9099            0.0000000000
     77129      9499  TIP3      H2             -2.7022939509      -39.2916156777      -25.4571796861  TIP3      9099            0.0000000000
     77130      9500  TIP3      OH2            11.8104330570      -46.3612492723      -35.6509098061  TIP3      9100            0.0000000000
     77131      9500  TIP3      H1             11.8531249524      -45.3875080839      -35.7506567103  TIP3      9100            0.0000000000
     77132      9500  TIP3      H2             11.1266040200      -46.6097100529      -36.2928051025  TIP3      9100            0.0000000000
     77133      9501  TIP3      OH2            10.7027958297      -47.0898088600      -32.1933483284  TIP3      9101            0.0000000000
     77134      9501  TIP3      H1             10.6759394989      -47.7484455665      -31.4925710641  TIP3      9101            0.0000000000
     77135      9501  TIP3      H2             10.3784485114      -47.5786386827      -32.9686497335  TIP3      9101            0.0000000000
     77136      9502  TIP3      OH2             3.0514161930      -47.4543365916      -30.6257352060  TIP3      9102            0.0000000000
     77137      9502  TIP3      H1              3.1425786040      -48.1138281156      -29.9092391444  TIP3      9102            0.0000000000
     77138      9502  TIP3      H2              3.7898203135      -46.8590677297      -30.4263768897  TIP3      9102            0.0000000000
     77139      9503  TIP3      OH2            14.4096598588      -44.1575608603      -33.9160139417  TIP3      9103            0.0000000000
     77140      9503  TIP3      H1             13.9724582733      -44.8716994428      -33.4401907231  TIP3      9103            0.0000000000
     77141      9503  TIP3      H2             14.4051829707      -43.4372843886      -33.2567688166  TIP3      9103            0.0000000000
     77142      9504  TIP3      OH2             3.9889006497      -43.0012788604      -32.0966012382  TIP3      9104            0.0000000000
     77143      9504  TIP3      H1              3.6505912614      -43.8428174939      -32.4546318679  TIP3      9104            0.0000000000
     77144      9504  TIP3      H2              4.9439996260      -43.1917379323      -32.0560972786  TIP3      9104            0.0000000000
     77145      9505  TIP3      OH2             0.6278238902      -49.3995346748      -36.6699897333  TIP3      9105            0.0000000000
     77146      9505  TIP3      H1              0.1706836847      -48.5320197026      -36.7096211149  TIP3      9105            0.0000000000
     77147      9505  TIP3      H2              0.0489349743      -49.9501259110      -37.2164162368  TIP3      9105            0.0000000000
     77148      9506  TIP3      OH2             1.3189213000      -47.1973159333      -34.5405910076  TIP3      9106            0.0000000000
     77149      9506  TIP3      H1              1.5655369102      -47.9972080422      -34.0417464336  TIP3      9106            0.0000000000
     77150      9506  TIP3      H2              2.0539229525      -47.1106732180      -35.1682765449  TIP3      9106            0.0000000000
     77151      9507  TIP3      OH2            11.5122762157      -39.0167004508      -33.6855997930  TIP3      9107            0.0000000000
     77152      9507  TIP3      H1             12.1546286737      -39.7207406189      -33.9604914945  TIP3      9107            0.0000000000
     77153      9507  TIP3      H2             11.3160136059      -39.2943003770      -32.7917518328  TIP3      9107            0.0000000000
     77154      9508  TIP3      OH2             9.0797833254      -44.6732198845      -31.7722256152  TIP3      9108            0.0000000000
     77155      9508  TIP3      H1              9.4150997477      -45.3409266469      -32.3923418767  TIP3      9108            0.0000000000
     77156      9508  TIP3      H2              9.8521432286      -44.5445665189      -31.1952500722  TIP3      9108            0.0000000000
     77157      9509  TIP3      OH2            17.7323975611      -53.0716677263      -30.9690792155  TIP3      9109            0.0000000000
     77158      9509  TIP3      H1             17.8337477337      -52.4471889091      -30.2136942373  TIP3      9109            0.0000000000
     77159      9509  TIP3      H2             18.2127902835      -52.5981505794      -31.6632078947  TIP3      9109            0.0000000000
     77160      9510  TIP3      OH2            12.2446678003      -50.2420661372      -31.4374186008  TIP3      9110            0.0000000000
     77161      9510  TIP3      H1             12.3881919920      -51.2119079628      -31.4484614826  TIP3      9110            0.0000000000
     77162      9510  TIP3      H2             12.1354639786      -50.0809250129      -32.3977693212  TIP3      9110            0.0000000000
     77163      9511  TIP3      OH2             5.3851622248      -52.1586627263      -34.1886373145  TIP3      9111            0.0000000000
     77164      9511  TIP3      H1              5.4500987053      -51.3031897140      -34.6472579058  TIP3      9111            0.0000000000
     77165      9511  TIP3      H2              4.9485105084      -52.7220967333      -34.8625294639  TIP3      9111            0.0000000000
     77166      9512  TIP3      OH2            13.1124796626      -52.0342380434      -35.8311819405  TIP3      9112            0.0000000000
     77167      9512  TIP3      H1             13.7582025756      -52.3672297066      -35.1582112945  TIP3      9112            0.0000000000
     77168      9512  TIP3      H2             13.6603140198      -51.4846363666      -36.4008352456  TIP3      9112            0.0000000000
     77169      9513  TIP3      OH2             1.9922831924      -49.7465299426      -33.4455779217  TIP3      9113            0.0000000000
     77170      9513  TIP3      H1              2.6682539629      -50.3088702012      -33.0095616351  TIP3      9113            0.0000000000
     77171      9513  TIP3      H2              2.0618352708      -50.0480076700      -34.3640126603  TIP3      9113            0.0000000000
     77172      9514  TIP3      OH2             7.1610298542      -48.1901377592      -34.1904096838  TIP3      9114            0.0000000000
     77173      9514  TIP3      H1              7.7993259961      -48.7582170345      -33.7274562070  TIP3      9114            0.0000000000
     77174      9514  TIP3      H2              6.6015315000      -48.8582881159      -34.6366198701  TIP3      9114            0.0000000000
     77175      9515  TIP3      OH2            18.1517547685      -51.6126525104      -28.7208000380  TIP3      9115            0.0000000000
     77176      9515  TIP3      H1             17.4789628198      -50.9040890421      -28.8065575495  TIP3      9115            0.0000000000
     77177      9515  TIP3      H2             18.1632151667      -51.7675995909      -27.7660050953  TIP3      9115            0.0000000000
     77178      9516  TIP3      OH2             4.2374758086      -53.2630046584      -30.1400924647  TIP3      9116            0.0000000000
     77179      9516  TIP3      H1              3.9821252057      -52.6977764021      -30.8973906691  TIP3      9116            0.0000000000
     77180      9516  TIP3      H2              3.5508870489      -53.0061667548      -29.4726503201  TIP3      9116            0.0000000000
     77181      9517  TIP3      OH2            11.5743777233      -43.7580652494      -36.5884620269  TIP3      9117            0.0000000000
     77182      9517  TIP3      H1             11.2764522690      -44.0629929229      -37.4551478435  TIP3      9117            0.0000000000
     77183      9517  TIP3      H2             11.2480754163      -42.8332745367      -36.5507216819  TIP3      9117            0.0000000000
     77184      9518  TIP3      OH2             6.7818978582      -45.5974901218      -29.8695343513  TIP3      9118            0.0000000000
     77185      9518  TIP3      H1              6.0498300589      -44.9607454117      -29.7189569671  TIP3      9118            0.0000000000
     77186      9518  TIP3      H2              7.4871595777      -45.0068442865      -30.1731008386  TIP3      9118            0.0000000000
     77187      9519  TIP3      OH2            14.9028410149      -52.7346644473      -33.8430882813  TIP3      9119            0.0000000000
     77188      9519  TIP3      H1             14.6599845368      -53.4931089819      -33.2908863746  TIP3      9119            0.0000000000
     77189      9519  TIP3      H2             15.5550017725      -52.2714152382      -33.2957130995  TIP3      9119            0.0000000000
     77190      9520  TIP3      OH2             3.7938264196      -51.3617988263      -32.1599666190  TIP3      9120            0.0000000000
     77191      9520  TIP3      H1              4.4413104594      -50.7088529523      -31.8073314565  TIP3      9120            0.0000000000
     77192      9520  TIP3      H2              4.3315911905      -51.8219132059      -32.8477800192  TIP3      9120            0.0000000000
     77193      9521  TIP3      OH2             5.2087468751      -43.6189895081      -29.0764348374  TIP3      9121            0.0000000000
     77194      9521  TIP3      H1              5.1755218840      -42.7091264856      -29.4321824215  TIP3      9121            0.0000000000
     77195      9521  TIP3      H2              4.3250062704      -43.6840378136      -28.6328856293  TIP3      9121            0.0000000000
     77196      9522  TIP3      OH2             1.2966978223      -43.9693795332      -38.2810781940  TIP3      9122            0.0000000000
     77197      9522  TIP3      H1              1.0560772555      -43.6855052995      -39.1816284811  TIP3      9122            0.0000000000
     77198      9522  TIP3      H2              1.3674989649      -43.1144017567      -37.8023877764  TIP3      9122            0.0000000000
     77199      9523  TIP3      OH2            14.9306892490      -42.3259222701      -31.5506337505  TIP3      9123            0.0000000000
     77200      9523  TIP3      H1             13.9650068689      -42.2337818808      -31.4083783338  TIP3      9123            0.0000000000
     77201      9523  TIP3      H2             15.1973656612      -41.3990620772      -31.7156441108  TIP3      9123            0.0000000000
     77202      9524  TIP3      OH2            15.2431969880      -54.0399453295      -30.1260364742  TIP3      9124            0.0000000000
     77203      9524  TIP3      H1             14.4988261351      -53.4276798199      -30.2079886189  TIP3      9124            0.0000000000
     77204      9524  TIP3      H2             15.9303511212      -53.6231774171      -30.6699512472  TIP3      9124            0.0000000000
     77205      9525  TIP3      OH2             7.9158224200      -55.9056057037      -32.7926685294  TIP3      9125            0.0000000000
     77206      9525  TIP3      H1              8.0630167106      -56.8795830596      -32.7121579588  TIP3      9125            0.0000000000
     77207      9525  TIP3      H2              7.1746898683      -55.6073296718      -32.3026364794  TIP3      9125            0.0000000000
     77208      9526  TIP3      OH2            13.1744664211      -40.5376639791      -34.9320127094  TIP3      9126            0.0000000000
     77209      9526  TIP3      H1             13.6118660930      -41.2485155469      -35.4402844239  TIP3      9126            0.0000000000
     77210      9526  TIP3      H2             13.5414057338      -39.7330471945      -35.3523694955  TIP3      9126            0.0000000000
     77211      9527  TIP3      OH2            14.3629215843      -42.6126982190      -36.4357459615  TIP3      9127            0.0000000000
     77212      9527  TIP3      H1             14.0857144660      -43.3187258836      -37.0446247686  TIP3      9127            0.0000000000
     77213      9527  TIP3      H2             14.4130192926      -43.0916128459      -35.5873578054  TIP3      9127            0.0000000000
     77214      9528  TIP3      OH2            16.0182731504      -44.0433698618      -27.9392734585  TIP3      9128            0.0000000000
     77215      9528  TIP3      H1             16.1626060396      -44.6646647794      -28.6855154495  TIP3      9128            0.0000000000
     77216      9528  TIP3      H2             16.1979841607      -43.1775146941      -28.3363768101  TIP3      9128            0.0000000000
     77217      9529  TIP3      OH2            10.4978717114      -47.1126971978      -38.1670204845  TIP3      9129            0.0000000000
     77218      9529  TIP3      H1              9.7912462465      -46.5575246775      -38.5487523891  TIP3      9129            0.0000000000
     77219      9529  TIP3      H2             11.1973253842      -47.0383382165      -38.8458920638  TIP3      9129            0.0000000000
     77220      9530  TIP3      OH2            10.5413681353      -48.6204666984      -41.1235123999  TIP3      9130            0.0000000000
     77221      9530  TIP3      H1             11.2654592740      -48.6051669935      -40.4808197998  TIP3      9130            0.0000000000
     77222      9530  TIP3      H2             10.8614531485      -49.2532429403      -41.7758571029  TIP3      9130            0.0000000000
     77223      9531  TIP3      OH2            17.8815580474      -47.7249962681      -29.8804215141  TIP3      9131            0.0000000000
     77224      9531  TIP3      H1             17.2184594359      -47.0087485658      -29.8184651573  TIP3      9131            0.0000000000
     77225      9531  TIP3      H2             18.3515596577      -47.4937413227      -30.7016867591  TIP3      9131            0.0000000000
     77226      9532  TIP3      OH2            13.9231728357      -46.8953881621      -37.2426319844  TIP3      9132            0.0000000000
     77227      9532  TIP3      H1             13.1774978332      -46.6646843197      -36.6403755325  TIP3      9132            0.0000000000
     77228      9532  TIP3      H2             14.3788302153      -47.6020360297      -36.7510895361  TIP3      9132            0.0000000000
     77229      9533  TIP3      OH2            13.8466575227      -48.7424916240      -28.1508339808  TIP3      9133            0.0000000000
     77230      9533  TIP3      H1             13.8774479828      -47.9446550141      -27.5915954606  TIP3      9133            0.0000000000
     77231      9533  TIP3      H2             13.2132614855      -48.4381692959      -28.8380709479  TIP3      9133            0.0000000000
     77232      9534  TIP3      OH2             5.5548313919      -46.2444077902      -35.3363644646  TIP3      9134            0.0000000000
     77233      9534  TIP3      H1              5.2264762191      -46.6415772864      -36.1770206836  TIP3      9134            0.0000000000
     77234      9534  TIP3      H2              6.1586048952      -46.9454374122      -34.9984767930  TIP3      9134            0.0000000000
     77235      9535  TIP3      OH2             6.8934060025      -42.8370220556      -32.6563296080  TIP3      9135            0.0000000000
     77236      9535  TIP3      H1              6.8447014609      -43.4083110757      -33.4336784074  TIP3      9135            0.0000000000
     77237      9535  TIP3      H2              7.6575055590      -43.2155625843      -32.1846360313  TIP3      9135            0.0000000000
     77238      9536  TIP3      OH2             5.9012139555      -47.5052537254      -31.6970718928  TIP3      9136            0.0000000000
     77239      9536  TIP3      H1              6.4739729440      -47.3810030950      -32.4777358726  TIP3      9136            0.0000000000
     77240      9536  TIP3      H2              6.2539651310      -46.8459798248      -31.0665947181  TIP3      9136            0.0000000000
     77241      9537  TIP3      OH2            12.2578386409      -41.9553356257      -30.9866638360  TIP3      9137            0.0000000000
     77242      9537  TIP3      H1             11.9955246813      -41.3209872495      -30.3186692732  TIP3      9137            0.0000000000
     77243      9537  TIP3      H2             12.0318207535      -42.8147142753      -30.5460159766  TIP3      9137            0.0000000000
     77244      9538  TIP3      OH2             6.8242672294      -43.0928842527      -26.9750374278  TIP3      9138            0.0000000000
     77245      9538  TIP3      H1              6.4619054514      -42.3113505553      -26.5186200308  TIP3      9138            0.0000000000
     77246      9538  TIP3      H2              6.1483385084      -43.2607042695      -27.6783203833  TIP3      9138            0.0000000000
     77247      9539  TIP3      OH2            12.7866095585      -47.7375565990      -39.5611971378  TIP3      9139            0.0000000000
     77248      9539  TIP3      H1             13.3659341455      -47.5603851127      -38.7803017457  TIP3      9139            0.0000000000
     77249      9539  TIP3      H2             13.2070588302      -47.2298264881      -40.2768629713  TIP3      9139            0.0000000000
     77250      9540  TIP3      OH2             3.7409410228      -46.9229986790      -27.7779459690  TIP3      9140            0.0000000000
     77251      9540  TIP3      H1              3.8013072071      -46.2402129922      -27.0740663405  TIP3      9140            0.0000000000
     77252      9540  TIP3      H2              2.8349992971      -46.7916369882      -28.0822362723  TIP3      9140            0.0000000000
     77253      9541  TIP3      OH2            10.5139784361      -40.9996811868      -36.1050423800  TIP3      9141            0.0000000000
     77254      9541  TIP3      H1             10.9743785341      -40.6902072142      -35.3180628828  TIP3      9141            0.0000000000
     77255      9541  TIP3      H2              9.9539392597      -40.2504379698      -36.3461589905  TIP3      9141            0.0000000000
     77256      9542  TIP3      OH2             5.0595299416      -41.0368136850      -26.2291968348  TIP3      9142            0.0000000000
     77257      9542  TIP3      H1              5.0347828909      -41.1550462057      -27.1913062260  TIP3      9142            0.0000000000
     77258      9542  TIP3      H2              4.1195304152      -41.1473722901      -25.9775552421  TIP3      9142            0.0000000000
     77259      9543  TIP3      OH2            16.4841262872      -55.9557884355      -39.7553178922  TIP3      9143            0.0000000000
     77260      9543  TIP3      H1             15.5712352460      -55.8531891911      -39.4152984696  TIP3      9143            0.0000000000
     77261      9543  TIP3      H2             16.7594325560      -55.1023568897      -40.1108519349  TIP3      9143            0.0000000000
     77262      9544  TIP3      OH2             4.5426445686      -47.2106932493      -37.7348287568  TIP3      9144            0.0000000000
     77263      9544  TIP3      H1              4.2472357886      -46.4313232622      -38.2520990906  TIP3      9144            0.0000000000
     77264      9544  TIP3      H2              3.8696152779      -47.8666575887      -37.9328007944  TIP3      9144            0.0000000000
     77265      9545  TIP3      OH2            17.6452252046      -41.6388232192      -41.3330372323  TIP3      9145            0.0000000000
     77266      9545  TIP3      H1             17.7586198200      -40.6781861740      -41.1881639357  TIP3      9145            0.0000000000
     77267      9545  TIP3      H2             18.5782282988      -41.9160154123      -41.4011755736  TIP3      9145            0.0000000000
     77268      9546  TIP3      OH2             0.6287284135      -44.8079948924      -28.8828907252  TIP3      9146            0.0000000000
     77269      9546  TIP3      H1              0.1500544353      -44.8678242070      -29.7329758202  TIP3      9146            0.0000000000
     77270      9546  TIP3      H2              0.6632735743      -45.7458332488      -28.6327879288  TIP3      9146            0.0000000000
     77271      9547  TIP3      OH2             0.3817733333      -42.0665299452      -32.0475990232  TIP3      9147            0.0000000000
     77272      9547  TIP3      H1              1.3376019670      -42.1877483265      -32.0702564267  TIP3      9147            0.0000000000
     77273      9547  TIP3      H2              0.2853831451      -41.2584212027      -31.5258475102  TIP3      9147            0.0000000000
     77274      9548  TIP3      OH2            18.6136812661      -41.3708838193      -26.3797240949  TIP3      9148            0.0000000000
     77275      9548  TIP3      H1             18.5138045543      -42.3344185008      -26.3968439530  TIP3      9148            0.0000000000
     77276      9548  TIP3      H2             17.7500382607      -41.1182215950      -25.9696179181  TIP3      9148            0.0000000000
     77277      9549  TIP3      OH2             9.5726350872      -41.8193252041      -27.5045106324  TIP3      9149            0.0000000000
     77278      9549  TIP3      H1              9.6452147175      -40.9757309875      -26.9999307285  TIP3      9149            0.0000000000
     77279      9549  TIP3      H2              8.6957567533      -42.1566173128      -27.2441768918  TIP3      9149            0.0000000000
     77280      9550  TIP3      OH2             9.9861827970      -38.0649793378      -37.6884235689  TIP3      9150            0.0000000000
     77281      9550  TIP3      H1              9.9117498417      -38.1562965675      -38.6551889872  TIP3      9150            0.0000000000
     77282      9550  TIP3      H2             10.0208160895      -37.0966517730      -37.5610733791  TIP3      9150            0.0000000000
     77283      9551  TIP3      OH2             3.6441640264      -39.2143914561      -35.8967444432  TIP3      9151            0.0000000000
     77284      9551  TIP3      H1              3.7820055155      -39.6126266024      -35.0119280997  TIP3      9151            0.0000000000
     77285      9551  TIP3      H2              2.7912899959      -39.6073348422      -36.1429805120  TIP3      9151            0.0000000000
     77286      9552  TIP3      OH2            13.0599395304      -38.8696000151      -40.7174014058  TIP3      9152            0.0000000000
     77287      9552  TIP3      H1             13.4807550085      -39.6401026390      -41.1553062434  TIP3      9152            0.0000000000
     77288      9552  TIP3      H2             13.0948724263      -39.1455324832      -39.7778719827  TIP3      9152            0.0000000000
     77289      9553  TIP3      OH2            12.7585505066      -38.9424080000      -37.9434407093  TIP3      9153            0.0000000000
     77290      9553  TIP3      H1             11.8031247093      -38.8629486958      -37.7547973335  TIP3      9153            0.0000000000
     77291      9553  TIP3      H2             13.0180146551      -39.6726251493      -37.3618939972  TIP3      9153            0.0000000000
     77292      9554  TIP3      OH2            15.7498590397      -49.9020313465      -25.8875980382  TIP3      9154            0.0000000000
     77293      9554  TIP3      H1             15.3176202984      -49.4192813696      -26.6123311388  TIP3      9154            0.0000000000
     77294      9554  TIP3      H2             15.7700351960      -50.8071920215      -26.2170188284  TIP3      9154            0.0000000000
     77295      9555  TIP3      OH2             2.8911147676      -43.4919284718      -27.8993738878  TIP3      9155            0.0000000000
     77296      9555  TIP3      H1              3.1098158735      -43.8631032949      -27.0184149970  TIP3      9155            0.0000000000
     77297      9555  TIP3      H2              2.0236118554      -43.8885816074      -28.1068389236  TIP3      9155            0.0000000000
     77298      9556  TIP3      OH2             5.5309840387      -55.0080558409      -31.9338943052  TIP3      9156            0.0000000000
     77299      9556  TIP3      H1              4.6354232991      -55.1181892505      -32.3183351528  TIP3      9156            0.0000000000
     77300      9556  TIP3      H2              5.4701658655      -54.1672633418      -31.4651436189  TIP3      9156            0.0000000000
     77301      9557  TIP3      OH2            10.2013162122      -55.2733743230      -28.4988527697  TIP3      9157            0.0000000000
     77302      9557  TIP3      H1             10.6030045112      -55.7499029764      -27.7563083987  TIP3      9157            0.0000000000
     77303      9557  TIP3      H2              9.2364552939      -55.4894238561      -28.4211537090  TIP3      9157            0.0000000000
     77304      9558  TIP3      OH2            13.4981678176      -51.5559921564      -27.6905824883  TIP3      9158            0.0000000000
     77305      9558  TIP3      H1             12.9610716381      -51.6974446198      -26.8744809938  TIP3      9158            0.0000000000
     77306      9558  TIP3      H2             13.3400434982      -50.6230239164      -27.9127361387  TIP3      9158            0.0000000000
     77307      9559  TIP3      OH2            14.3200251752      -46.6474200593      -41.8277519233  TIP3      9159            0.0000000000
     77308      9559  TIP3      H1             14.3277514742      -46.8747557780      -42.7844270700  TIP3      9159            0.0000000000
     77309      9559  TIP3      H2             15.1770749300      -46.2486287500      -41.6959615473  TIP3      9159            0.0000000000
     77310      9560  TIP3      OH2             9.8772118528      -52.8038291990      -41.2326603812  TIP3      9160            0.0000000000
     77311      9560  TIP3      H1              9.5540339383      -52.8189731499      -40.3104444730  TIP3      9160            0.0000000000
     77312      9560  TIP3      H2              9.5608903476      -53.6682935270      -41.5317895155  TIP3      9160            0.0000000000
     77313      9561  TIP3      OH2             5.6385121575      -50.0763672174      -30.7568020544  TIP3      9161            0.0000000000
     77314      9561  TIP3      H1              4.9421734372      -50.0880062173      -30.0739171155  TIP3      9161            0.0000000000
     77315      9561  TIP3      H2              5.6325879535      -49.1361865052      -31.0510580430  TIP3      9161            0.0000000000
     77316      9562  TIP3      OH2             5.6169539044      -49.8703846111      -35.8544609650  TIP3      9162            0.0000000000
     77317      9562  TIP3      H1              4.6956797338      -50.1866786953      -35.9588450848  TIP3      9162            0.0000000000
     77318      9562  TIP3      H2              6.0326032665      -50.2249731447      -36.6634779116  TIP3      9162            0.0000000000
     77319      9563  TIP3      OH2            11.1410577993      -49.4375468273      -37.0621573309  TIP3      9163            0.0000000000
     77320      9563  TIP3      H1             10.7314329380      -48.6033551436      -37.3796684448  TIP3      9163            0.0000000000
     77321      9563  TIP3      H2             11.8510306061      -49.5720010126      -37.7078180859  TIP3      9163            0.0000000000
     77322      9564  TIP3      OH2            10.2286529393      -49.2271106511      -25.5979138538  TIP3      9164            0.0000000000
     77323      9564  TIP3      H1              9.6798374792      -49.9815732073      -25.2680807907  TIP3      9164            0.0000000000
     77324      9564  TIP3      H2             11.0631646855      -49.3778013100      -25.1148719873  TIP3      9164            0.0000000000
     77325      9565  TIP3      OH2            12.1628332293      -49.9610771937      -34.2269210868  TIP3      9165            0.0000000000
     77326      9565  TIP3      H1             11.9294693434      -49.3806178328      -34.9728204570  TIP3      9165            0.0000000000
     77327      9565  TIP3      H2             12.2992673258      -50.8152850158      -34.6910206403  TIP3      9165            0.0000000000
     77328      9566  TIP3      OH2             3.3120740338      -49.7529631186      -28.9681444902  TIP3      9166            0.0000000000
     77329      9566  TIP3      H1              3.3460346870      -49.3615925220      -28.0792703138  TIP3      9166            0.0000000000
     77330      9566  TIP3      H2              2.8649528828      -50.5972353316      -28.8238752235  TIP3      9166            0.0000000000
     77331      9567  TIP3      OH2             6.8283219536      -52.2082167750      -41.8980639183  TIP3      9167            0.0000000000
     77332      9567  TIP3      H1              6.2966721417      -52.8276676866      -41.3664195825  TIP3      9167            0.0000000000
     77333      9567  TIP3      H2              6.1508094777      -51.9198579116      -42.5318959571  TIP3      9167            0.0000000000
     77334      9568  TIP3      OH2            -0.0483195910      -52.6371937579      -35.0593469129  TIP3      9168            0.0000000000
     77335      9568  TIP3      H1              0.6130981602      -52.6822113230      -34.3420728063  TIP3      9168            0.0000000000
     77336      9568  TIP3      H2              0.4129609818      -53.0536404645      -35.8115179977  TIP3      9168            0.0000000000
     77337      9569  TIP3      OH2             1.2422750513      -51.9294316574      -39.6436527702  TIP3      9169            0.0000000000
     77338      9569  TIP3      H1              1.7153882008      -51.3109162466      -40.2495672872  TIP3      9169            0.0000000000
     77339      9569  TIP3      H2              0.5310469760      -51.3359228978      -39.3168005243  TIP3      9169            0.0000000000
     77340      9570  TIP3      OH2            11.3974924278      -48.3398966161      -29.6149981518  TIP3      9170            0.0000000000
     77341      9570  TIP3      H1             11.7398297975      -49.0098094907      -30.2388606190  TIP3      9170            0.0000000000
     77342      9570  TIP3      H2             10.9473232640      -48.8837142640      -28.9441326410  TIP3      9170            0.0000000000
     77343      9571  TIP3      OH2             8.1671955358      -52.3722267691      -34.8276036590  TIP3      9171            0.0000000000
     77344      9571  TIP3      H1              7.2486666428      -52.3782771909      -34.5066278788  TIP3      9171            0.0000000000
     77345      9571  TIP3      H2              8.6965726245      -52.5141540461      -34.0094179087  TIP3      9171            0.0000000000
     77346      9572  TIP3      OH2             3.0094846530      -50.8020096315      -35.9601270237  TIP3      9172            0.0000000000
     77347      9572  TIP3      H1              2.1107796207      -50.6832814496      -36.3295231471  TIP3      9172            0.0000000000
     77348      9572  TIP3      H2              3.3000750764      -51.6496509072      -36.3337176556  TIP3      9172            0.0000000000
     77349      9573  TIP3      OH2             6.6517754991      -50.7855371927      -38.3169907967  TIP3      9173            0.0000000000
     77350      9573  TIP3      H1              7.6043080716      -50.6649151184      -38.1376936470  TIP3      9173            0.0000000000
     77351      9573  TIP3      H2              6.4273070952      -50.1139621426      -38.9851713812  TIP3      9173            0.0000000000
     77352      9574  TIP3      OH2            12.6101011803      -53.1439014063      -31.5668550579  TIP3      9174            0.0000000000
     77353      9574  TIP3      H1             11.9035595595      -53.0692636710      -30.8866375098  TIP3      9174            0.0000000000
     77354      9574  TIP3      H2             12.0946257773      -53.3762151006      -32.3552805628  TIP3      9174            0.0000000000
     77355      9575  TIP3      OH2             5.3343216658      -49.6007193275      -40.7336075338  TIP3      9175            0.0000000000
     77356      9575  TIP3      H1              4.7873236110      -49.9683941527      -41.4500775029  TIP3      9175            0.0000000000
     77357      9575  TIP3      H2              6.1660816127      -49.3995993372      -41.1905699956  TIP3      9175            0.0000000000
     77358      9576  TIP3      OH2            15.8307945530      -37.5125767852      -25.2515233999  TIP3      9176            0.0000000000
     77359      9576  TIP3      H1             16.0781771780      -37.0947447858      -26.0940159959  TIP3      9176            0.0000000000
     77360      9576  TIP3      H2             16.5242630235      -37.1756875715      -24.6528322201  TIP3      9176            0.0000000000
     77361      9577  TIP3      OH2             3.4836567785      -45.0437989266      -25.6792607394  TIP3      9177            0.0000000000
     77362      9577  TIP3      H1              4.1951846505      -44.7772435706      -25.0726582433  TIP3      9177            0.0000000000
     77363      9577  TIP3      H2              2.6950836357      -44.8665379448      -25.1160958349  TIP3      9177            0.0000000000
     77364      9578  TIP3      OH2             9.4865421951      -49.6264717369      -32.9185225119  TIP3      9178            0.0000000000
     77365      9578  TIP3      H1             10.0651187124      -50.1810908802      -33.4614679550  TIP3      9178            0.0000000000
     77366      9578  TIP3      H2              9.3444862868      -50.1706947932      -32.1331320547  TIP3      9178            0.0000000000
     77367      9579  TIP3      OH2             4.4857008427      -53.4831989901      -36.4987988027  TIP3      9179            0.0000000000
     77368      9579  TIP3      H1              4.1803283573      -54.4047719202      -36.5177255503  TIP3      9179            0.0000000000
     77369      9579  TIP3      H2              5.2763052350      -53.5170641463      -37.0518512907  TIP3      9179            0.0000000000
     77370      9580  TIP3      OH2             8.1149956415      -51.2522506150      -30.5075485132  TIP3      9180            0.0000000000
     77371      9580  TIP3      H1              7.2776365679      -50.7690128226      -30.3977346929  TIP3      9180            0.0000000000
     77372      9580  TIP3      H2              8.6572466757      -50.9495052812      -29.7532451617  TIP3      9180            0.0000000000
     77373      9581  TIP3      OH2             8.6970197703      -45.0445897329      -38.8131738782  TIP3      9181            0.0000000000
     77374      9581  TIP3      H1              7.9120691747      -45.5417267012      -39.1366605128  TIP3      9181            0.0000000000
     77375      9581  TIP3      H2              8.5111314854      -44.9772418085      -37.8564875261  TIP3      9181            0.0000000000
     77376      9582  TIP3      OH2            15.8481939472      -45.8925914707      -30.0118251524  TIP3      9182            0.0000000000
     77377      9582  TIP3      H1             16.4530340843      -45.4186318870      -30.6065854376  TIP3      9182            0.0000000000
     77378      9582  TIP3      H2             14.9998020095      -45.7937196203      -30.4938995199  TIP3      9182            0.0000000000
     77379      9583  TIP3      OH2            12.5702211938      -52.2371081672      -40.6394861150  TIP3      9183            0.0000000000
     77380      9583  TIP3      H1             11.6054585165      -52.0921504632      -40.7801843718  TIP3      9183            0.0000000000
     77381      9583  TIP3      H2             12.8473503137      -51.3447087138      -40.3144333744  TIP3      9183            0.0000000000
     77382      9584  TIP3      OH2            10.1940103787      -44.8310009284      -27.5763638635  TIP3      9184            0.0000000000
     77383      9584  TIP3      H1              9.8447195202      -45.2257050320      -26.7712450846  TIP3      9184            0.0000000000
     77384      9584  TIP3      H2              9.9693447037      -43.8993566499      -27.4956199278  TIP3      9184            0.0000000000
     77385      9585  TIP3      OH2            13.2858239781      -50.3678338727      -38.9795034774  TIP3      9185            0.0000000000
     77386      9585  TIP3      H1             14.1847012351      -50.4662704061      -38.6118892925  TIP3      9185            0.0000000000
     77387      9585  TIP3      H2             13.3437487442      -49.5372947779      -39.4862459911  TIP3      9185            0.0000000000
     77388      9586  TIP3      OH2             3.7958736990      -45.7065569727      -33.0281190603  TIP3      9186            0.0000000000
     77389      9586  TIP3      H1              4.5257253624      -45.7490832486      -33.6750069179  TIP3      9186            0.0000000000
     77390      9586  TIP3      H2              3.8733581299      -46.5569212703      -32.5633666004  TIP3      9186            0.0000000000
     77391      9587  TIP3      OH2            10.8104050590      -43.5829336995      -39.7823039952  TIP3      9187            0.0000000000
     77392      9587  TIP3      H1             10.4743803611      -42.7463683815      -39.4096243929  TIP3      9187            0.0000000000
     77393      9587  TIP3      H2             10.0729891152      -44.2024412336      -39.5865845021  TIP3      9187            0.0000000000
     77394      9588  TIP3      OH2             0.7820790304      -47.2698990586      -27.7265052179  TIP3      9188            0.0000000000
     77395      9588  TIP3      H1              1.0380398990      -47.6910729351      -26.8870657075  TIP3      9188            0.0000000000
     77396      9588  TIP3      H2              0.2128674865      -47.8774496086      -28.1977244307  TIP3      9188            0.0000000000
     77397      9589  TIP3      OH2             7.8109832404      -47.7271952334      -25.5387629348  TIP3      9189            0.0000000000
     77398      9589  TIP3      H1              7.5130108145      -47.9602477961      -26.4280145613  TIP3      9189            0.0000000000
     77399      9589  TIP3      H2              8.7512476965      -47.9962760083      -25.5533758627  TIP3      9189            0.0000000000
     77400      9590  TIP3      OH2            12.4701333715      -42.3920685754      -27.6334301903  TIP3      9190            0.0000000000
     77401      9590  TIP3      H1             11.5476508578      -42.1972915493      -27.8755727265  TIP3      9190            0.0000000000
     77402      9590  TIP3      H2             12.4627481352      -42.1037061566      -26.7021591601  TIP3      9190            0.0000000000
     77403      9591  TIP3      OH2            18.1650188765      -50.1781530886      -39.2264908944  TIP3      9191            0.0000000000
     77404      9591  TIP3      H1             17.6139116937      -50.5124515619      -39.9530867828  TIP3      9191            0.0000000000
     77405      9591  TIP3      H2             18.2565944329      -49.2435055935      -39.5292332228  TIP3      9191            0.0000000000
     77406      9592  TIP3      OH2            18.1471853212      -44.3343930790      -26.4129911071  TIP3      9192            0.0000000000
     77407      9592  TIP3      H1             17.2695893667      -44.1081742145      -26.8050485163  TIP3      9192            0.0000000000
     77408      9592  TIP3      H2             18.7198745210      -44.3617528952      -27.2020100750  TIP3      9192            0.0000000000
     77409      9593  TIP3      OH2            16.4668285550      -41.3568351216      -38.8118889920  TIP3      9193            0.0000000000
     77410      9593  TIP3      H1             16.0907848999      -42.1851781652      -38.4918360601  TIP3      9193            0.0000000000
     77411      9593  TIP3      H2             16.7527900526      -41.5470193733      -39.7217529765  TIP3      9193            0.0000000000
     77412      9594  TIP3      OH2            13.6455057655      -46.5395193165      -31.7518983391  TIP3      9194            0.0000000000
     77413      9594  TIP3      H1             12.7025891598      -46.7750421212      -31.8191139683  TIP3      9194            0.0000000000
     77414      9594  TIP3      H2             14.0815493166      -47.3241847431      -32.1298857150  TIP3      9194            0.0000000000
     77415      9595  TIP3      OH2             6.1765707651      -42.2254656401      -35.6355963413  TIP3      9195            0.0000000000
     77416      9595  TIP3      H1              6.6902310152      -41.4287842957      -35.8423240988  TIP3      9195            0.0000000000
     77417      9595  TIP3      H2              5.2937738929      -41.9868579623      -35.9517715630  TIP3      9195            0.0000000000
     77418      9596  TIP3      OH2             1.9184220827      -47.3651832346      -41.0751689179  TIP3      9196            0.0000000000
     77419      9596  TIP3      H1              2.5431227467      -46.7320398037      -40.6776910868  TIP3      9196            0.0000000000
     77420      9596  TIP3      H2              1.0515843273      -47.0519900107      -40.7763514564  TIP3      9196            0.0000000000
     77421      9597  TIP3      OH2             7.6106987199      -44.5611326564      -36.0852300420  TIP3      9197            0.0000000000
     77422      9597  TIP3      H1              7.3268031484      -43.6290913264      -36.0195960982  TIP3      9197            0.0000000000
     77423      9597  TIP3      H2              6.8574663990      -45.0248804164      -35.6671811947  TIP3      9197            0.0000000000
     77424      9598  TIP3      OH2             8.0705995649      -40.3926412037      -29.7339537240  TIP3      9198            0.0000000000
     77425      9598  TIP3      H1              8.4870422144      -39.5535048474      -29.9875822277  TIP3      9198            0.0000000000
     77426      9598  TIP3      H2              8.6555132200      -40.7011532300      -29.0165166916  TIP3      9198            0.0000000000
     77427      9599  TIP3      OH2             6.2824317226      -39.5483522684      -36.5502058797  TIP3      9199            0.0000000000
     77428      9599  TIP3      H1              5.3142014986      -39.4211191131      -36.4564400470  TIP3      9199            0.0000000000
     77429      9599  TIP3      H2              6.6326219376      -38.7108204333      -36.1923668960  TIP3      9199            0.0000000000
     77430      9600  TIP3      OH2            11.6261346145      -44.3288411831      -30.0661744792  TIP3      9200            0.0000000000
     77431      9600  TIP3      H1             11.2334252638      -44.5453093100      -29.1991545294  TIP3      9200            0.0000000000
     77432      9600  TIP3      H2             12.2330352777      -45.0633095839      -30.2405259168  TIP3      9200            0.0000000000
     77433      9601  TIP3      OH2            13.8635462364      -43.3569318855      -40.9810061073  TIP3      9201            0.0000000000
     77434      9601  TIP3      H1             14.1921511511      -43.7715754580      -40.1572645409  TIP3      9201            0.0000000000
     77435      9601  TIP3      H2             12.9062453450      -43.4816442712      -40.8854972977  TIP3      9201            0.0000000000
     77436      9602  TIP3      OH2            14.3476069294      -39.7712392277      -27.5706370691  TIP3      9202            0.0000000000
     77437      9602  TIP3      H1             13.7044971032      -40.2987031008      -28.0832115903  TIP3      9202            0.0000000000
     77438      9602  TIP3      H2             14.5839043681      -39.0857894240      -28.2309621042  TIP3      9202            0.0000000000
     77439      9603  TIP3      OH2            18.3722404750      -38.9162995667      -40.7547975136  TIP3      9203            0.0000000000
     77440      9603  TIP3      H1             19.0975854617      -38.2958041450      -40.9422435263  TIP3      9203            0.0000000000
     77441      9603  TIP3      H2             17.6594716162      -38.3175366063      -40.4436476130  TIP3      9203            0.0000000000
     77442      9604  TIP3      OH2             2.4498773311      -52.5141631736      -28.1711315661  TIP3      9204            0.0000000000
     77443      9604  TIP3      H1              1.5405307636      -52.1956063009      -28.2370532413  TIP3      9204            0.0000000000
     77444      9604  TIP3      H2              2.3359410803      -53.3890551192      -27.7592924372  TIP3      9204            0.0000000000
     77445      9605  TIP3      OH2            14.7076338108      -44.6857301016      -38.7612203099  TIP3      9205            0.0000000000
     77446      9605  TIP3      H1             14.4503310849      -45.4520229229      -38.2044213603  TIP3      9205            0.0000000000
     77447      9605  TIP3      H2             15.6503845272      -44.5983446442      -38.5397861956  TIP3      9205            0.0000000000
     77448      9606  TIP3      OH2             2.0843954496      -40.7224560850      -29.7601345192  TIP3      9206            0.0000000000
     77449      9606  TIP3      H1              2.3277460633      -41.6626347519      -29.7653516045  TIP3      9206            0.0000000000
     77450      9606  TIP3      H2              2.3309119949      -40.4520344317      -28.8655930350  TIP3      9206            0.0000000000
     77451      9607  TIP3      OH2             6.8589263665      -42.6867836483      -40.0769211285  TIP3      9207            0.0000000000
     77452      9607  TIP3      H1              7.0483128777      -43.2203340961      -39.2954875968  TIP3      9207            0.0000000000
     77453      9607  TIP3      H2              6.8853799990      -41.7686965605      -39.7499080336  TIP3      9207            0.0000000000
     77454      9608  TIP3      OH2             3.3231744073      -45.4458189832      -39.5858110825  TIP3      9208            0.0000000000
     77455      9608  TIP3      H1              2.6465409551      -45.0636039100      -38.9930389779  TIP3      9208            0.0000000000
     77456      9608  TIP3      H2              3.8687323620      -44.6748623223      -39.8167805069  TIP3      9208            0.0000000000
     77457      9609  TIP3      OH2            11.1669256820      -52.7613907262      -29.2616581439  TIP3      9209            0.0000000000
     77458      9609  TIP3      H1             11.8842045284      -52.7168596090      -28.6226079802  TIP3      9209            0.0000000000
     77459      9609  TIP3      H2             10.7914193976      -53.6545423096      -29.1047691271  TIP3      9209            0.0000000000
     77460      9610  TIP3      OH2            11.9870430307      -53.1834445157      -38.1830786054  TIP3      9210            0.0000000000
     77461      9610  TIP3      H1             12.1481348229      -52.6398436220      -38.9696246703  TIP3      9210            0.0000000000
     77462      9610  TIP3      H2             12.4999931606      -52.7257574974      -37.5028348547  TIP3      9210            0.0000000000
     77463      9611  TIP3      OH2             9.6212198015      -41.0143286184      -39.3275736859  TIP3      9211            0.0000000000
     77464      9611  TIP3      H1              8.8016467929      -40.4959071140      -39.2751047673  TIP3      9211            0.0000000000
     77465      9611  TIP3      H2             10.1550773924      -40.5123652625      -39.9653201450  TIP3      9211            0.0000000000
     77466      9612  TIP3      OH2             9.1481277261      -51.4174119916      -37.3468259460  TIP3      9212            0.0000000000
     77467      9612  TIP3      H1              9.9561351604      -50.8753452465      -37.3046090014  TIP3      9212            0.0000000000
     77468      9612  TIP3      H2              8.9032377817      -51.5634607238      -36.4163931883  TIP3      9212            0.0000000000
     77469      9613  TIP3      OH2             9.6977217659      -50.4209762983      -28.1800648372  TIP3      9213            0.0000000000
     77470      9613  TIP3      H1              9.7956221913      -49.8421195907      -27.3978148713  TIP3      9213            0.0000000000
     77471      9613  TIP3      H2             10.3586279687      -51.1123921559      -28.0529342883  TIP3      9213            0.0000000000
     77472      9614  TIP3      OH2             9.9991422887      -54.3219068486      -36.4665332376  TIP3      9214            0.0000000000
     77473      9614  TIP3      H1              9.6977450688      -53.7083477470      -35.7676786865  TIP3      9214            0.0000000000
     77474      9614  TIP3      H2             10.7078940771      -53.8021320583      -36.8837291195  TIP3      9214            0.0000000000
     77475      9615  TIP3      OH2             6.9665864544      -39.9770727882      -39.3352771840  TIP3      9215            0.0000000000
     77476      9615  TIP3      H1              7.1330070863      -39.1507855180      -39.8344219023  TIP3      9215            0.0000000000
     77477      9615  TIP3      H2              6.7553461634      -39.6406334498      -38.4396666220  TIP3      9215            0.0000000000
     77478      9616  TIP3      OH2             5.6751958247      -53.2706148474      -39.7371862891  TIP3      9216            0.0000000000
     77479      9616  TIP3      H1              5.6118335393      -52.3599556563      -39.3776856537  TIP3      9216            0.0000000000
     77480      9616  TIP3      H2              6.5855244227      -53.5047301459      -39.4703453838  TIP3      9216            0.0000000000
     77481      9617  TIP3      OH2            15.9062392455      -52.5166673933      -27.2895408477  TIP3      9217            0.0000000000
     77482      9617  TIP3      H1             14.9665954169      -52.2357363044      -27.4306822981  TIP3      9217            0.0000000000
     77483      9617  TIP3      H2             16.2177512992      -52.5248101097      -28.2154467073  TIP3      9217            0.0000000000
     77484      9618  TIP3      OH2            14.4969148528      -48.7495385224      -33.2606635645  TIP3      9218            0.0000000000
     77485      9618  TIP3      H1             13.6842659435      -49.1853971188      -33.5676731075  TIP3      9218            0.0000000000
     77486      9618  TIP3      H2             14.9584170456      -49.4524551179      -32.7502709737  TIP3      9218            0.0000000000
     77487      9619  TIP3      OH2             3.9299457598      -42.8308171781      -40.6763370826  TIP3      9219            0.0000000000
     77488      9619  TIP3      H1              4.5598460919      -42.1597319789      -40.3902950907  TIP3      9219            0.0000000000
     77489      9619  TIP3      H2              4.4275297954      -43.2786202182      -41.3870859062  TIP3      9219            0.0000000000
     77490      9620  TIP3      OH2             2.2848347303      -50.1648174739      -41.5230364265  TIP3      9220            0.0000000000
     77491      9620  TIP3      H1              2.2387674992      -49.2052299013      -41.3769150801  TIP3      9220            0.0000000000
     77492      9620  TIP3      H2              1.3979979341      -50.3863945040      -41.8370064111  TIP3      9220            0.0000000000
     77493      9621  TIP3      OH2            15.5667306193      -39.5114381999      -31.6101270827  TIP3      9221            0.0000000000
     77494      9621  TIP3      H1             15.4486978173      -38.8174404651      -32.2888412551  TIP3      9221            0.0000000000
     77495      9621  TIP3      H2             16.5274054779      -39.4323203838      -31.4260530580  TIP3      9221            0.0000000000
     77496      9622  TIP3      OH2             3.0914685017      -55.3455970906      -32.8641851114  TIP3      9222            0.0000000000
     77497      9622  TIP3      H1              2.8488374958      -55.3197018755      -33.8129670817  TIP3      9222            0.0000000000
     77498      9622  TIP3      H2              2.6383460486      -56.1695623771      -32.5707343568  TIP3      9222            0.0000000000
     77499      9623  TIP3      OH2             2.0090808146      -41.4564313026      -36.6996791847  TIP3      9223            0.0000000000
     77500      9623  TIP3      H1              1.1754236776      -40.9747778159      -36.7002740402  TIP3      9223            0.0000000000
     77501      9623  TIP3      H2              2.5363392305      -40.9534746491      -37.3369688110  TIP3      9223            0.0000000000
     77502      9624  TIP3      OH2             1.2848490671      -38.8354389868      -25.4021327436  TIP3      9224            0.0000000000
     77503      9624  TIP3      H1              1.8397642722      -39.0361292965      -24.6293010083  TIP3      9224            0.0000000000
     77504      9624  TIP3      H2              0.8046814312      -39.6529592844      -25.5697632958  TIP3      9224            0.0000000000
     77505      9625  TIP3      OH2             5.8878440364      -39.9006929675      -23.7724859975  TIP3      9225            0.0000000000
     77506      9625  TIP3      H1              6.6613344478      -40.3705239572      -23.4313189067  TIP3      9225            0.0000000000
     77507      9625  TIP3      H2              5.8773146944      -40.1494255741      -24.7129571565  TIP3      9225            0.0000000000
     77508      9626  TIP3      OH2            10.3134717380      -40.2534161935      -41.8978125061  TIP3      9226            0.0000000000
     77509      9626  TIP3      H1              9.5150205302      -40.8403742575      -41.9660670030  TIP3      9226            0.0000000000
     77510      9626  TIP3      H2             10.7823295050      -40.8167196624      -42.5204828063  TIP3      9226            0.0000000000
     77511      9627  TIP3      OH2            12.4436583742      -41.5186320597      -25.0384790287  TIP3      9227            0.0000000000
     77512      9627  TIP3      H1             12.1024510347      -42.3956434409      -24.7894347317  TIP3      9227            0.0000000000
     77513      9627  TIP3      H2             13.2021365676      -41.3725976265      -24.4450200839  TIP3      9227            0.0000000000
     77514      9628  TIP3      OH2            14.5861031243      -40.5915930378      -42.1711783674  TIP3      9228            0.0000000000
     77515      9628  TIP3      H1             14.8704256380      -41.3966746404      -41.6994147488  TIP3      9228            0.0000000000
     77516      9628  TIP3      H2             15.3529019941      -40.3738650541      -42.7139117247  TIP3      9228            0.0000000000
     77517      9629  TIP3      OH2             1.1765247096      -45.0358302893      -24.4049939062  TIP3      9229            0.0000000000
     77518      9629  TIP3      H1              1.3341081443      -45.9318890782      -24.7349406131  TIP3      9229            0.0000000000
     77519      9629  TIP3      H2              0.4200705503      -44.7376723815      -24.9381152682  TIP3      9229            0.0000000000
     77520      9630  TIP3      OH2             5.5641461459      -44.6306972066      -42.2602991259  TIP3      9230            0.0000000000
     77521      9630  TIP3      H1              5.6154985578      -45.4641031404      -41.7775185917  TIP3      9230            0.0000000000
     77522      9630  TIP3      H2              6.1746649209      -44.8239114735      -42.9980466015  TIP3      9230            0.0000000000
     77523      9631  TIP3      OH2             7.8793873996      -45.0432111838      -24.9943027086  TIP3      9231            0.0000000000
     77524      9631  TIP3      H1              7.5212728650      -44.7576768536      -25.8580050991  TIP3      9231            0.0000000000
     77525      9631  TIP3      H2              7.9638378493      -46.0151294732      -25.1034439674  TIP3      9231            0.0000000000
     77526      9632  TIP3      OH2            13.5724689837      -45.1634517805      -27.6007945193  TIP3      9232            0.0000000000
     77527      9632  TIP3      H1             14.3382304582      -44.5587841397      -27.7222066483  TIP3      9232            0.0000000000
     77528      9632  TIP3      H2             12.8386695206      -44.5344798421      -27.5728799574  TIP3      9232            0.0000000000
     77529      9633  TIP3      OH2             2.0270778734      -47.8214835857      -25.0096907037  TIP3      9233            0.0000000000
     77530      9633  TIP3      H1              2.4646077421      -48.6706674585      -25.1280711732  TIP3      9233            0.0000000000
     77531      9633  TIP3      H2              1.7778539766      -47.8072016375      -24.0866993448  TIP3      9233            0.0000000000
     77532      9634  TIP3      OH2             6.6915307974      -46.6668320402      -39.9807803283  TIP3      9234            0.0000000000
     77533      9634  TIP3      H1              6.2176380900      -47.1907346244      -39.3137163875  TIP3      9234            0.0000000000
     77534      9634  TIP3      H2              6.9693840097      -47.3687868806      -40.6168082959  TIP3      9234            0.0000000000
     77535      9635  TIP3      OH2             5.9720314160      -48.8369582059      -27.6395415236  TIP3      9235            0.0000000000
     77536      9635  TIP3      H1              5.3591736481      -48.1302938959      -27.3734831563  TIP3      9235            0.0000000000
     77537      9635  TIP3      H2              6.3334470799      -48.4862470546      -28.4711692458  TIP3      9235            0.0000000000
     77538      9636  TIP3      OH2             7.7572996286      -48.4512196211      -41.7349742603  TIP3      9236            0.0000000000
     77539      9636  TIP3      H1              7.6068780304      -48.6242985714      -42.6724404877  TIP3      9236            0.0000000000
     77540      9636  TIP3      H2              8.7357905302      -48.3543401132      -41.6690486518  TIP3      9236            0.0000000000
     77541      9637  TIP3      OH2            11.0189270561      -46.2920630004      -24.3146896823  TIP3      9237            0.0000000000
     77542      9637  TIP3      H1             11.9765454154      -46.2973390951      -24.4210674061  TIP3      9237            0.0000000000
     77543      9637  TIP3      H2             10.8432396860      -47.0581460341      -23.7544455024  TIP3      9237            0.0000000000
     77544      9638  TIP3      OH2            17.0306863384      -46.0405834019       42.7727478908  TIP3      9238            0.0000000000
     77545      9638  TIP3      H1             16.8725743222      -46.5135042147       41.9316184529  TIP3      9238            0.0000000000
     77546      9638  TIP3      H2             17.1868373176      -45.1312472971       42.4968583596  TIP3      9238            0.0000000000
     77547      9639  TIP3      OH2             6.3288134406      -51.4632415617      -26.5605431670  TIP3      9239            0.0000000000
     77548      9639  TIP3      H1              6.4742307770      -52.1874316325      -27.1926597135  TIP3      9239            0.0000000000
     77549      9639  TIP3      H2              6.3194054719      -50.6684681254      -27.1300623649  TIP3      9239            0.0000000000
     77550      9640  TIP3      OH2             6.7459139310      -53.0989355887      -29.0458846496  TIP3      9240            0.0000000000
     77551      9640  TIP3      H1              7.2795106383      -52.6358204768      -29.7379672260  TIP3      9240            0.0000000000
     77552      9640  TIP3      H2              5.8662614348      -53.1863324239      -29.4770591559  TIP3      9240            0.0000000000
     77553      9641  TIP3      OH2             8.3099190067      -47.6401252967      -28.8117344891  TIP3      9241            0.0000000000
     77554      9641  TIP3      H1              9.0637305755      -47.7950196565      -29.3902819379  TIP3      9241            0.0000000000
     77555      9641  TIP3      H2              7.9627132338      -46.7862661299      -29.1131555291  TIP3      9241            0.0000000000
     77556      9642  TIP3      OH2            12.7105486438      -49.8301854154      -23.8230037470  TIP3      9242            0.0000000000
     77557      9642  TIP3      H1             12.9189099067      -50.7695639432      -23.8982964429  TIP3      9242            0.0000000000
     77558      9642  TIP3      H2             13.5852262867      -49.4148953066      -23.7963784535  TIP3      9242            0.0000000000
     77559      9643  TIP3      OH2            14.0300528842      -47.0487668030      -25.6799406657  TIP3      9243            0.0000000000
     77560      9643  TIP3      H1             13.7796834129      -46.3348911834      -26.3108887501  TIP3      9243            0.0000000000
     77561      9643  TIP3      H2             14.9944687048      -47.1103320198      -25.8730883147  TIP3      9243            0.0000000000
     77562      9644  TIP3      OH2             4.7937930334      -50.2502718634      -24.6236531373  TIP3      9244            0.0000000000
     77563      9644  TIP3      H1              4.0434835532      -50.8120416815      -24.8773825439  TIP3      9244            0.0000000000
     77564      9644  TIP3      H2              5.4723750286      -50.5758198284      -25.2587711287  TIP3      9244            0.0000000000
     77565      9645  TIP3      OH2             7.5437611314      -55.6509107985      -28.6189847431  TIP3      9245            0.0000000000
     77566      9645  TIP3      H1              7.4263922102      -54.6833120352      -28.7549273123  TIP3      9245            0.0000000000
     77567      9645  TIP3      H2              6.7925013958      -56.0101507046      -29.1255995373  TIP3      9245            0.0000000000
     77568      9646  TIP3      OH2             8.8134426402      -51.3226286753      -25.0687706314  TIP3      9246            0.0000000000
     77569      9646  TIP3      H1              8.5521511238      -51.5457377543      -24.1525136012  TIP3      9246            0.0000000000
     77570      9646  TIP3      H2              8.0114813642      -51.5279113293      -25.5799546047  TIP3      9246            0.0000000000
     77571      9647  TIP3      OH2            11.5235909695      -52.1855370055      -25.9871192959  TIP3      9247            0.0000000000
     77572      9647  TIP3      H1             10.5605032064      -52.1524361180      -25.8442763497  TIP3      9247            0.0000000000
     77573      9647  TIP3      H2             11.8230165344      -52.8080218333      -25.3045332529  TIP3      9247            0.0000000000
     77574      9648  TIP3      OH2            13.1446995339      -53.5403187622      -23.9869294655  TIP3      9248            0.0000000000
     77575      9648  TIP3      H1             13.0503578073      -54.5100949399      -24.0070188580  TIP3      9248            0.0000000000
     77576      9648  TIP3      H2             12.8276872377      -53.2754419159      -23.1221645328  TIP3      9248            0.0000000000
     77577      9649  TIP3      OH2             2.9304653884      -52.3020538834      -24.9264921823  TIP3      9249            0.0000000000
     77578      9649  TIP3      H1              3.1855474165      -53.0362602211      -25.5427442855  TIP3      9249            0.0000000000
     77579      9649  TIP3      H2              2.8640266806      -52.7947360876      -24.0922695113  TIP3      9249            0.0000000000
     77580      9650  TIP3      OH2             7.7290348554       56.5256619600      -25.9505532647  TIP3      9250            0.0000000000
     77581      9650  TIP3      H1              8.4637752509       55.8656193534      -25.9751006367  TIP3      9250            0.0000000000
     77582      9650  TIP3      H2              7.6663360631       56.7466206859      -26.8938214395  TIP3      9250            0.0000000000
     77583      9651  TIP3      OH2             8.1312575854      -54.6570458282      -23.8866090322  TIP3      9251            0.0000000000
     77584      9651  TIP3      H1              7.9730897536      -55.1483574182      -24.7185316907  TIP3      9251            0.0000000000
     77585      9651  TIP3      H2              7.5237366014      -53.9032451525      -23.9471091839  TIP3      9251            0.0000000000
     77586      9652  TIP3      OH2             7.6281664403      -37.7656096777      -40.7336542186  TIP3      9252            0.0000000000
     77587      9652  TIP3      H1              8.5922739492      -37.6255183636      -40.5917313079  TIP3      9252            0.0000000000
     77588      9652  TIP3      H2              7.4094101002      -37.0864150509      -41.3672105063  TIP3      9252            0.0000000000
     77589      9653  TIP3      OH2             1.1985446547      -43.1444443290      -41.2267333049  TIP3      9253            0.0000000000
     77590      9653  TIP3      H1              2.1499833779      -43.0612842333      -40.9792986549  TIP3      9253            0.0000000000
     77591      9653  TIP3      H2              1.2293406079      -43.7985491273      -41.9282442036  TIP3      9253            0.0000000000
     77592      9654  TIP3      OH2            -0.0796040275      -37.7265782016      -36.1425503614  TIP3      9254            0.0000000000
     77593      9654  TIP3      H1             -0.7225591293      -38.2038119038      -36.7024211384  TIP3      9254            0.0000000000
     77594      9654  TIP3      H2              0.2467594505      -38.4290846387      -35.5602232057  TIP3      9254            0.0000000000
     77595      9655  TIP3      OH2             0.7348833711      -39.6538921182      -34.3751317254  TIP3      9255            0.0000000000
     77596      9655  TIP3      H1              0.4181027306      -40.5442437163      -34.1706668591  TIP3      9255            0.0000000000
     77597      9655  TIP3      H2              0.9823499151      -39.3202691058      -33.4880212624  TIP3      9255            0.0000000000
     77598      9656  TIP3      OH2            18.2875455525      -38.8570915852      -31.4052854644  TIP3      9256            0.0000000000
     77599      9656  TIP3      H1             18.2947245397      -38.6724573648      -30.4501079711  TIP3      9256            0.0000000000
     77600      9656  TIP3      H2             18.9911852379      -38.2785502872      -31.7226432656  TIP3      9256            0.0000000000
     77601      9657  TIP3      OH2            17.8647470186      -39.2587330705      -28.4669107395  TIP3      9257            0.0000000000
     77602      9657  TIP3      H1             17.3808843146      -40.0292115689      -28.8405814060  TIP3      9257            0.0000000000
     77603      9657  TIP3      H2             18.3901577363      -39.6946316540      -27.7775261181  TIP3      9257            0.0000000000
     77604      9658  TIP3      OH2            16.3060969123      -43.5194953484      -23.8168438149  TIP3      9258            0.0000000000
     77605      9658  TIP3      H1             15.4395612728      -43.5856060867      -23.4325891347  TIP3      9258            0.0000000000
     77606      9658  TIP3      H2             16.6949408042      -42.7271549078      -23.3783020887  TIP3      9258            0.0000000000
     77607      9659  TIP3      OH2            17.6160581748      -45.2223007407      -38.3469054419  TIP3      9259            0.0000000000
     77608      9659  TIP3      H1             18.4745233232      -44.8130866855      -38.1707327737  TIP3      9259            0.0000000000
     77609      9659  TIP3      H2             17.6167733172      -45.9624201337      -37.6959333385  TIP3      9259            0.0000000000
     77610      9660  TIP3      OH2            17.9943645249      -47.1560576165      -36.4973531246  TIP3      9260            0.0000000000
     77611      9660  TIP3      H1             17.2562321540      -47.6611533864      -36.0922348976  TIP3      9260            0.0000000000
     77612      9660  TIP3      H2             18.5900820691      -46.9863567563      -35.7395718652  TIP3      9260            0.0000000000
     77613      9661  TIP3      OH2            17.7474650063      -44.4230413145      -31.5192974505  TIP3      9261            0.0000000000
     77614      9661  TIP3      H1             18.5885010675      -44.7886670209      -31.8502245963  TIP3      9261            0.0000000000
     77615      9661  TIP3      H2             17.8849938446      -43.4618199489      -31.6695672527  TIP3      9261            0.0000000000
     77616      9662  TIP3      OH2            16.2820525150      -41.5276788448      -29.2252310170  TIP3      9262            0.0000000000
     77617      9662  TIP3      H1             15.5990651494      -41.1936816688      -28.6216141335  TIP3      9262            0.0000000000
     77618      9662  TIP3      H2             15.7356427036      -41.9517922403      -29.9234538449  TIP3      9262            0.0000000000
     77619      9663  TIP3      OH2            18.2812373690      -47.3054759711      -40.1028433497  TIP3      9263            0.0000000000
     77620      9663  TIP3      H1             17.7282515714      -46.9306753132      -40.8146972920  TIP3      9263            0.0000000000
     77621      9663  TIP3      H2             18.2259858146      -46.6044965678      -39.4260303282  TIP3      9263            0.0000000000
     77622      9664  TIP3      OH2            16.3888643620      -50.0415165270      -41.4729258424  TIP3      9264            0.0000000000
     77623      9664  TIP3      H1             16.7265366544      -49.4235118953      -42.1580773815  TIP3      9264            0.0000000000
     77624      9664  TIP3      H2             16.4920701597      -50.8574578710      -41.9995307299  TIP3      9264            0.0000000000
     77625      9665  TIP3      OH2            15.8000064387      -48.6588404174      -35.9309364748  TIP3      9265            0.0000000000
     77626      9665  TIP3      H1             15.6459593608      -49.6141608191      -35.9466446415  TIP3      9265            0.0000000000
     77627      9665  TIP3      H2             15.4483249427      -48.4048950152      -35.0618560470  TIP3      9265            0.0000000000
     77628      9666  TIP3      OH2             0.8086599142      -46.5864915132      -31.8755905484  TIP3      9266            0.0000000000
     77629      9666  TIP3      H1              1.0070506723      -46.6620732183      -32.8386292454  TIP3      9266            0.0000000000
     77630      9666  TIP3      H2              1.7011600624      -46.7211367119      -31.5045562769  TIP3      9266            0.0000000000
     77631      9667  TIP3      OH2            16.6343065981      -46.6863294618      -26.2592799159  TIP3      9267            0.0000000000
     77632      9667  TIP3      H1             17.2514467673      -47.4336568444      -26.0878369737  TIP3      9267            0.0000000000
     77633      9667  TIP3      H2             17.2397981980      -45.9191800475      -26.2448800345  TIP3      9267            0.0000000000
     77634      9668  TIP3      OH2            18.1573735491      -48.7850656187      -25.6093287664  TIP3      9268            0.0000000000
     77635      9668  TIP3      H1             17.2769361539      -49.1859344786      -25.7570958192  TIP3      9268            0.0000000000
     77636      9668  TIP3      H2             18.7484614497      -49.5511431094      -25.6743847827  TIP3      9268            0.0000000000
     77637      9669  TIP3      OH2            15.8793154941      -52.6275033054      -42.4216690862  TIP3      9269            0.0000000000
     77638      9669  TIP3      H1             16.5100900301      -53.0248724051      -41.7959195462  TIP3      9269            0.0000000000
     77639      9669  TIP3      H2             15.0317249581      -53.0295392034      -42.2793404462  TIP3      9269            0.0000000000
     77640      9670  TIP3      OH2            15.4742880231      -51.0830672635      -37.4800609984  TIP3      9270            0.0000000000
     77641      9670  TIP3      H1             15.7968712540      -51.9947710959      -37.3257283876  TIP3      9270            0.0000000000
     77642      9670  TIP3      H2             16.2651068304      -50.6518498554      -37.8425512970  TIP3      9270            0.0000000000
     77643      9671  TIP3      OH2            16.1047241141      -50.5196041400      -32.0312199980  TIP3      9271            0.0000000000
     77644      9671  TIP3      H1             17.0625976013      -50.2876864391      -32.0480214865  TIP3      9271            0.0000000000
     77645      9671  TIP3      H2             15.8990584831      -50.3947357770      -31.0905153985  TIP3      9271            0.0000000000
     77646      9672  TIP3      OH2            16.1601199139      -49.7907315510      -29.2515518864  TIP3      9272            0.0000000000
     77647      9672  TIP3      H1             15.2960299242      -49.5003141281      -28.8893361310  TIP3      9272            0.0000000000
     77648      9672  TIP3      H2             16.5983275748      -48.9339053367      -29.4634388182  TIP3      9272            0.0000000000
     77649      9673  TIP3      OH2             0.4124114497      -51.2582852695      -25.7456346621  TIP3      9273            0.0000000000
     77650      9673  TIP3      H1              1.3526843717      -51.4735154338      -25.5481439660  TIP3      9273            0.0000000000
     77651      9673  TIP3      H2             -0.0233077435      -52.0851525262      -25.4110826446  TIP3      9273            0.0000000000
     77652      9674  TIP3      OH2            18.4372154996      -55.7866736674      -23.8516094873  TIP3      9274            0.0000000000
     77653      9674  TIP3      H1             18.7812950437      -56.4229553548      -24.5098247874  TIP3      9274            0.0000000000
     77654      9674  TIP3      H2             18.5582431440      -54.9528866385      -24.3582604305  TIP3      9274            0.0000000000
     77655      9675  TIP3      OH2            16.1158830381      -53.8028349614      -37.4261960031  TIP3      9275            0.0000000000
     77656      9675  TIP3      H1             16.3139039310      -54.2541884726      -36.5727757432  TIP3      9275            0.0000000000
     77657      9675  TIP3      H2             15.5097556161      -54.4356444217      -37.8537775574  TIP3      9275            0.0000000000
     77658      9676  TIP3      OH2             1.6270012387      -52.9926639025      -32.8853733522  TIP3      9276            0.0000000000
     77659      9676  TIP3      H1              2.0932615404      -53.7967369759      -32.5820983378  TIP3      9276            0.0000000000
     77660      9676  TIP3      H2              2.1339070326      -52.2850523097      -32.4589406273  TIP3      9276            0.0000000000
     77661      9677  TIP3      OH2            -0.0771591583      -50.0052527094      -31.7976913819  TIP3      9277            0.0000000000
     77662      9677  TIP3      H1              0.4586501427      -50.2235946418      -32.5979492365  TIP3      9277            0.0000000000
     77663      9677  TIP3      H2              0.3454049030      -49.1673903310      -31.5564807127  TIP3      9277            0.0000000000
     77664      9678  TIP3      OH2            17.9546539201      -53.6751910791      -25.5293468411  TIP3      9278            0.0000000000
     77665      9678  TIP3      H1             17.0256696908      -53.4114157109      -25.6253297642  TIP3      9278            0.0000000000
     77666      9678  TIP3      H2             18.0438922444      -54.2158808985      -26.3403950699  TIP3      9278            0.0000000000
     77667      9679  TIP3      OH2            17.9503954651      -53.7507916953      -40.8573464961  TIP3      9279            0.0000000000
     77668      9679  TIP3      H1             18.4098242933      -54.4543623466      -41.3550814149  TIP3      9279            0.0000000000
     77669      9679  TIP3      H2             18.6777563388      -53.0900174769      -40.8330023462  TIP3      9279            0.0000000000
     77670      9680  TIP3      OH2             0.2698284746      -53.7613963609      -37.7551464777  TIP3      9280            0.0000000000
     77671      9680  TIP3      H1             -0.6657065179      -53.5343717780      -37.8834056919  TIP3      9280            0.0000000000
     77672      9680  TIP3      H2              0.7128596554      -53.2528990046      -38.4616398067  TIP3      9280            0.0000000000
     77673      9681  TIP3      OH2            15.0159061638      -38.7687295113      -35.8032533708  TIP3      9281            0.0000000000
     77674      9681  TIP3      H1             15.6940468195      -39.0978519896      -36.4206811226  TIP3      9281            0.0000000000
     77675      9681  TIP3      H2             15.5442423412      -38.2732360992      -35.1599777490  TIP3      9281            0.0000000000
     77676      9682  TIP3      OH2             0.2445297517      -55.0183380405      -29.4212221161  TIP3      9282            0.0000000000
     77677      9682  TIP3      H1             -0.4336414534      -55.2516007503      -28.7670430661  TIP3      9282            0.0000000000
     77678      9682  TIP3      H2             -0.2214343473      -54.3920040839      -30.0084356879  TIP3      9282            0.0000000000
     77679      9683  TIP3      OH2             2.4350129512      -41.8415092858      -25.2666665461  TIP3      9283            0.0000000000
     77680      9683  TIP3      H1              1.6012130942      -41.6516894903      -25.7223266204  TIP3      9283            0.0000000000
     77681      9683  TIP3      H2              2.1648475902      -41.9142568632      -24.3454878104  TIP3      9283            0.0000000000
     77682      9684  TIP3      OH2             5.3620005412      -40.8710994613      -29.0067053639  TIP3      9284            0.0000000000
     77683      9684  TIP3      H1              4.9823073919      -40.0291368400      -29.2937577642  TIP3      9284            0.0000000000
     77684      9684  TIP3      H2              6.2860249247      -40.7661827989      -29.3188212712  TIP3      9284            0.0000000000
     77685      9685  TIP3      OH2             9.6805941479      -39.4537805947      -26.0864797317  TIP3      9285            0.0000000000
     77686      9685  TIP3      H1              9.8594049247      -39.7829705901      -25.1694574608  TIP3      9285            0.0000000000
     77687      9685  TIP3      H2             10.5636341242      -39.1423244581      -26.3617698060  TIP3      9285            0.0000000000
     77688      9686  TIP3      OH2            11.9931337055      -38.1736449788      -26.8114880297  TIP3      9286            0.0000000000
     77689      9686  TIP3      H1             12.7109000382      -38.7879328613      -27.0407054636  TIP3      9286            0.0000000000
     77690      9686  TIP3      H2             12.3559842958      -37.7609033247      -25.9955207554  TIP3      9286            0.0000000000
     77691      9687  TIP3      OH2            16.9482816244      -55.5422776425      -27.7056894521  TIP3      9287            0.0000000000
     77692      9687  TIP3      H1             16.1323340625      -55.2420123223      -28.1183566181  TIP3      9287            0.0000000000
     77693      9687  TIP3      H2             17.1795148196      -56.3445904997      -28.2402534069  TIP3      9287            0.0000000000
     77694      9688  TIP3      OH2             2.7916115944      -37.6165613055      -28.9934936096  TIP3      9288            0.0000000000
     77695      9688  TIP3      H1              2.0506436635      -37.1439419627      -29.4061426604  TIP3      9288            0.0000000000
     77696      9688  TIP3      H2              2.4366215646      -37.8384166585      -28.1163467424  TIP3      9288            0.0000000000
     77697      9689  TIP3      OH2             5.2606635376      -38.0294863122      -29.9330377741  TIP3      9289            0.0000000000
     77698      9689  TIP3      H1              4.3650815264      -37.9167628377      -29.5345898263  TIP3      9289            0.0000000000
     77699      9689  TIP3      H2              5.1875624833      -37.4511021716      -30.7186198254  TIP3      9289            0.0000000000
     77700      9690  TIP3      OH2             9.9581652845      -38.1283730014      -30.7652552142  TIP3      9290            0.0000000000
     77701      9690  TIP3      H1              9.4947885966      -37.5805202873      -31.4177522055  TIP3      9290            0.0000000000
     77702      9690  TIP3      H2             10.1089142657      -37.4985019260      -30.0298813748  TIP3      9290            0.0000000000
     77703      9691  TIP3      OH2            12.2775693702      -39.2782131596      -29.7885933199  TIP3      9291            0.0000000000
     77704      9691  TIP3      H1             11.3837777251      -39.0557266033      -30.0940429362  TIP3      9291            0.0000000000
     77705      9691  TIP3      H2             12.7156846409      -38.4127701442      -29.8694429377  TIP3      9291            0.0000000000
     77706      9692  TIP3      OH2            14.8646145655      -37.7101443684      -29.5067225463  TIP3      9292            0.0000000000
     77707      9692  TIP3      H1             14.7304304274      -36.7578086641      -29.7413399161  TIP3      9292            0.0000000000
     77708      9692  TIP3      H2             15.0565505805      -38.0880604901      -30.3849063068  TIP3      9292            0.0000000000
     77709      9693  TIP3      OH2             2.2028737357      -38.9714865314      -32.0668810835  TIP3      9293            0.0000000000
     77710      9693  TIP3      H1              2.1654523072      -39.4187885485      -31.1939096545  TIP3      9293            0.0000000000
     77711      9693  TIP3      H2              3.0262038101      -39.3203163422      -32.4645004041  TIP3      9293            0.0000000000
     77712      9694  TIP3      OH2             4.3166290027      -40.2588185241      -33.4144196107  TIP3      9294            0.0000000000
     77713      9694  TIP3      H1              4.1301357790      -41.1937108654      -33.2109885211  TIP3      9294            0.0000000000
     77714      9694  TIP3      H2              5.1698719018      -40.1267492780      -32.9424974812  TIP3      9294            0.0000000000
     77715      9695  TIP3      OH2             6.8878914922      -39.7813094453      -32.5505698671  TIP3      9295            0.0000000000
     77716      9695  TIP3      H1              7.0853679533      -40.6954824847      -32.8231848946  TIP3      9295            0.0000000000
     77717      9695  TIP3      H2              6.9497933922      -39.8423635897      -31.5879270368  TIP3      9295            0.0000000000
     77718      9696  TIP3      OH2            10.2993069639      -53.5484173292      -33.7733674774  TIP3      9296            0.0000000000
     77719      9696  TIP3      H1              9.7383465668      -54.2826599294      -33.2981262515  TIP3      9296            0.0000000000
     77720      9696  TIP3      H2             10.8676444551      -54.3857475087      -33.9525150297  TIP3      9296            0.0000000000
     77721      9697  TIP3      OH2            15.5228627453      -56.0559741002      -33.3130289795  TIP3      9297            0.0000000000
     77722      9697  TIP3      H1             16.1330079912      -55.4750453040      -33.8204152040  TIP3      9297            0.0000000000
     77723      9697  TIP3      H2             14.6274239376      -55.7148117869      -33.5429429046  TIP3      9297            0.0000000000
     77724      9698  TIP3      OH2            17.2276112825      -54.8703507285      -35.0184777365  TIP3      9298            0.0000000000
     77725      9698  TIP3      H1             17.8703128263      -55.4152696382      -35.4926308938  TIP3      9298            0.0000000000
     77726      9698  TIP3      H2             17.6629319448      -53.9919479022      -34.9433979793  TIP3      9298            0.0000000000
     77727      9699  TIP3      OH2             2.6955297542      -55.4608288037      -35.5701497773  TIP3      9299            0.0000000000
     77728      9699  TIP3      H1              1.9298505584      -55.7157325205      -36.0957891330  TIP3      9299            0.0000000000
     77729      9699  TIP3      H2              3.2265020854      -56.2930041061      -35.5932901394  TIP3      9299            0.0000000000
     77730      9700  TIP3      OH2             1.5477703276      -55.7158136796      -39.7881658155  TIP3      9300            0.0000000000
     77731      9700  TIP3      H1              1.9863528198      -55.0760194321      -40.3844814912  TIP3      9300            0.0000000000
     77732      9700  TIP3      H2              0.9150514704      -55.1616366407      -39.3026523382  TIP3      9300            0.0000000000
     77733      9701  TIP3      OH2             7.2374346214      -55.5701751083      -35.7654173637  TIP3      9301            0.0000000000
     77734      9701  TIP3      H1              8.1476205166      -55.2121457063      -35.8012475342  TIP3      9301            0.0000000000
     77735      9701  TIP3      H2              7.1732296841      -55.7906301389      -34.8287811228  TIP3      9301            0.0000000000
     77736      9702  TIP3      OH2            13.0235008539      -55.5425339511      -34.1701565123  TIP3      9302            0.0000000000
     77737      9702  TIP3      H1             12.8938481006      -55.4533600184      -35.1001033445  TIP3      9302            0.0000000000
     77738      9702  TIP3      H2             12.5441852525      -56.4070337393      -33.9917121121  TIP3      9302            0.0000000000
     77739      9703  TIP3      OH2            14.2175195022      -55.4851591612      -38.5170156841  TIP3      9303            0.0000000000
     77740      9703  TIP3      H1             13.4499111512      -54.9279516684      -38.5867472200  TIP3      9303            0.0000000000
     77741      9703  TIP3      H2             13.7704604966      -56.3502231532      -38.2759640631  TIP3      9303            0.0000000000
     77742      9704  TIP3      OH2             1.4385968409      -39.7849061200      -38.8387625110  TIP3      9304            0.0000000000
     77743      9704  TIP3      H1              0.7644268923      -39.7811917153      -39.5474343373  TIP3      9304            0.0000000000
     77744      9704  TIP3      H2              1.4498771671      -38.8384128458      -38.6270070228  TIP3      9304            0.0000000000
     77745      9705  TIP3      OH2             3.3769577116      -53.8362056868      -41.3282573806  TIP3      9305            0.0000000000
     77746      9705  TIP3      H1              3.8929272844      -54.4261013103      -41.8704027449  TIP3      9305            0.0000000000
     77747      9705  TIP3      H2              4.0228947202      -53.4843817894      -40.6868630358  TIP3      9305            0.0000000000
     77748      9706  TIP3      OH2             8.4050343295      -53.5313901771      -38.9073558548  TIP3      9306            0.0000000000
     77749      9706  TIP3      H1              8.6124937038      -54.1307215022      -38.1731910728  TIP3      9306            0.0000000000
     77750      9706  TIP3      H2              8.4019869849      -52.6674698478      -38.4208463806  TIP3      9306            0.0000000000
     77751      9707  TIP3      OH2            10.2759473445      -38.3650976481      -40.3965619439  TIP3      9307            0.0000000000
     77752      9707  TIP3      H1             11.2007971528      -38.2013342319      -40.6473742090  TIP3      9307            0.0000000000
     77753      9707  TIP3      H2             10.0868447353      -38.9404473337      -41.1972376668  TIP3      9307            0.0000000000
     77754      9708  TIP3      OH2            17.0221560042      -38.9772532482      -37.7756238989  TIP3      9308            0.0000000000
     77755      9708  TIP3      H1             16.8119514909      -39.7460789247      -38.3622290626  TIP3      9308            0.0000000000
     77756      9708  TIP3      H2             16.9528956120      -38.2318231534      -38.3985229441  TIP3      9308            0.0000000000
     77757      9709  TIP3      OH2             2.6455091475      -54.9423384894      -26.0772924347  TIP3      9309            0.0000000000
     77758      9709  TIP3      H1              2.2829984526      -55.7559171769      -25.6613419859  TIP3      9309            0.0000000000
     77759      9709  TIP3      H2              3.5757402313      -54.9893543490      -25.7620622395  TIP3      9309            0.0000000000
     77760      9710  TIP3      OH2             4.6441112506      -55.5967621432      -24.4949797754  TIP3      9310            0.0000000000
     77761      9710  TIP3      H1              5.5406525160      -55.9143410534      -24.7124765523  TIP3      9310            0.0000000000
     77762      9710  TIP3      H2              4.2756096939      -56.3999957826      -24.0680706994  TIP3      9310            0.0000000000
     77763      9711  TIP3      OH2             3.2627378986      -38.8280758441      -41.8636545862  TIP3      9311            0.0000000000
     77764      9711  TIP3      H1              2.9846620637      -38.5496168838      -40.9809144408  TIP3      9311            0.0000000000
     77765      9711  TIP3      H2              4.0273726420      -39.3790928868      -41.7020587856  TIP3      9311            0.0000000000
     77766      9712  TIP3      OH2            13.0545113380       56.5581777414      -24.3431908229  TIP3      9312            0.0000000000
     77767      9712  TIP3      H1             13.1367878703       56.0758994124      -23.5181455902  TIP3      9312            0.0000000000
     77768      9712  TIP3      H2             13.9546374749       56.5375980222      -24.6962711116  TIP3      9312            0.0000000000
     77769      9713  TIP3      OH2            16.2523139436      -40.2490894441      -25.6525525238  TIP3      9313            0.0000000000
     77770      9713  TIP3      H1             15.4460823070      -40.3966816452      -26.1937598765  TIP3      9313            0.0000000000
     77771      9713  TIP3      H2             16.1504339976      -39.2918210283      -25.4450063789  TIP3      9313            0.0000000000
     77772      9714  TIP3      OH2            30.6483898612      -46.3544268753      -35.6390391452  TIP3      9314            0.0000000000
     77773      9714  TIP3      H1             30.7216994853      -45.3893808815      -35.7606501368  TIP3      9314            0.0000000000
     77774      9714  TIP3      H2             29.9895581833      -46.6185650148      -36.3002719394  TIP3      9314            0.0000000000
     77775      9715  TIP3      OH2            29.5456298060      -47.0795003001      -32.1966078542  TIP3      9315            0.0000000000
     77776      9715  TIP3      H1             29.5366405586      -47.7459077186      -31.4941653424  TIP3      9315            0.0000000000
     77777      9715  TIP3      H2             29.2388615470      -47.5874818059      -32.9671865747  TIP3      9315            0.0000000000
     77778      9716  TIP3      OH2            21.9179890314      -47.4550851691      -30.6346539199  TIP3      9316            0.0000000000
     77779      9716  TIP3      H1             21.9889663717      -48.1113700117      -29.9080857202  TIP3      9316            0.0000000000
     77780      9716  TIP3      H2             22.6490640809      -46.8570824338      -30.4246992073  TIP3      9316            0.0000000000
     77781      9717  TIP3      OH2            33.2375211089      -44.1483299600      -33.9234119536  TIP3      9317            0.0000000000
     77782      9717  TIP3      H1             32.8430780590      -44.8777729802      -33.4347714143  TIP3      9317            0.0000000000
     77783      9717  TIP3      H2             33.2698800092      -43.4381317261      -33.2535465182  TIP3      9317            0.0000000000
     77784      9718  TIP3      OH2            22.8519994118      -42.9987401938      -32.1063338064  TIP3      9318            0.0000000000
     77785      9718  TIP3      H1             22.5004803198      -43.8422747316      -32.4501243729  TIP3      9318            0.0000000000
     77786      9718  TIP3      H2             23.7968070167      -43.1965536170      -32.0483672559  TIP3      9318            0.0000000000
     77787      9719  TIP3      OH2            19.4870921111      -49.3977578152      -36.6712784413  TIP3      9319            0.0000000000
     77788      9719  TIP3      H1             19.0266181111      -48.5319519006      -36.7094945727  TIP3      9319            0.0000000000
     77789      9719  TIP3      H2             18.9066012105      -49.9493736703      -37.2151282719  TIP3      9319            0.0000000000
     77790      9720  TIP3      OH2            20.1751514169      -47.1973728156      -34.5408361497  TIP3      9320            0.0000000000
     77791      9720  TIP3      H1             20.4214392008      -47.9972873266      -34.0418202758  TIP3      9320            0.0000000000
     77792      9720  TIP3      H2             20.9099262812      -47.1107338779      -35.1684931389  TIP3      9320            0.0000000000
     77793      9721  TIP3      OH2            30.3516352714      -39.0336765899      -33.6915422740  TIP3      9321            0.0000000000
     77794      9721  TIP3      H1             31.0203431945      -39.7142757652      -33.9578490711  TIP3      9321            0.0000000000
     77795      9721  TIP3      H2             30.1797920829      -39.2846600622      -32.7855172683  TIP3      9321            0.0000000000
     77796      9722  TIP3      OH2            27.9503511756      -44.6369017654      -31.8176308035  TIP3      9322            0.0000000000
     77797      9722  TIP3      H1             28.2743798961      -45.3668318389      -32.3718006217  TIP3      9322            0.0000000000
     77798      9722  TIP3      H2             28.6985892723      -44.5530322795      -31.1852651231  TIP3      9322            0.0000000000
     77799      9723  TIP3      OH2            36.5860441302      -53.0751148215      -30.9685386112  TIP3      9323            0.0000000000
     77800      9723  TIP3      H1             36.6890485346      -52.4536299490      -30.2126882763  TIP3      9323            0.0000000000
     77801      9723  TIP3      H2             37.0656660141      -52.6056432906      -31.6648300452  TIP3      9323            0.0000000000
     77802      9724  TIP3      OH2            31.0973315115      -50.2403529029      -31.4373115602  TIP3      9324            0.0000000000
     77803      9724  TIP3      H1             31.2494876158      -51.2058497290      -31.4444397127  TIP3      9324            0.0000000000
     77804      9724  TIP3      H2             30.9929376409      -50.0779579287      -32.3978172160  TIP3      9324            0.0000000000
     77805      9725  TIP3      OH2            24.2382839882      -52.1577244513      -34.1896607658  TIP3      9325            0.0000000000
     77806      9725  TIP3      H1             24.3047338320      -51.3026093347      -34.6476060614  TIP3      9325            0.0000000000
     77807      9725  TIP3      H2             23.8027591205      -52.7244401938      -34.8625507564  TIP3      9325            0.0000000000
     77808      9726  TIP3      OH2            31.9558948986      -52.0299616979      -35.8072017415  TIP3      9326            0.0000000000
     77809      9726  TIP3      H1             32.6224719972      -52.3719424659      -35.1650923590  TIP3      9326            0.0000000000
     77810      9726  TIP3      H2             32.5059600387      -51.4995108955      -36.4039020628  TIP3      9326            0.0000000000
     77811      9727  TIP3      OH2            20.8492675306      -49.7460480955      -33.4458818985  TIP3      9327            0.0000000000
     77812      9727  TIP3      H1             21.5244536790      -50.3090928951      -33.0096997805  TIP3      9327            0.0000000000
     77813      9727  TIP3      H2             20.9178437565      -50.0480954063      -34.3641070502  TIP3      9327            0.0000000000
     77814      9728  TIP3      OH2            26.0229486267      -48.1812446287      -34.1910755199  TIP3      9328            0.0000000000
     77815      9728  TIP3      H1             26.6518976568      -48.7635418743      -33.7269942649  TIP3      9328            0.0000000000
     77816      9728  TIP3      H2             25.4599130913      -48.8517444757      -34.6351028239  TIP3      9328            0.0000000000
     77817      9729  TIP3      OH2            37.0355503585      -51.5767919059      -28.7318077812  TIP3      9329            0.0000000000
     77818      9729  TIP3      H1             36.3180303420      -50.9156313581      -28.7967926283  TIP3      9329            0.0000000000
     77819      9729  TIP3      H2             37.0174122412      -51.7723734052      -27.7772982860  TIP3      9329            0.0000000000
     77820      9730  TIP3      OH2            23.0943571266      -53.2640135826      -30.1416945502  TIP3      9330            0.0000000000
     77821      9730  TIP3      H1             22.8380074469      -52.6974826278      -30.8972845077  TIP3      9330            0.0000000000
     77822      9730  TIP3      H2             22.4073073887      -53.0069615230      -29.4730059431  TIP3      9330            0.0000000000
     77823      9731  TIP3      OH2            30.3878570143      -43.7602440832      -36.5677989337  TIP3      9331            0.0000000000
     77824      9731  TIP3      H1             30.1497561250      -44.0630857296      -37.4610704802  TIP3      9331            0.0000000000
     77825      9731  TIP3      H2             30.1216249849      -42.8207692370      -36.5705868169  TIP3      9331            0.0000000000
     77826      9732  TIP3      OH2            25.6378473745      -45.5950706434      -29.8827728899  TIP3      9332            0.0000000000
     77827      9732  TIP3      H1             24.9032878742      -44.9639459708      -29.7136096604  TIP3      9332            0.0000000000
     77828      9732  TIP3      H2             26.3446181840      -45.0047209307      -30.1631825661  TIP3      9332            0.0000000000
     77829      9733  TIP3      OH2            33.7526966187      -52.7296528390      -33.8402921276  TIP3      9333            0.0000000000
     77830      9733  TIP3      H1             33.5250275605      -53.4912717513      -33.2893806646  TIP3      9333            0.0000000000
     77831      9733  TIP3      H2             34.4096924195      -52.2721998490      -33.2924439004  TIP3      9333            0.0000000000
     77832      9734  TIP3      OH2            22.6495616812      -51.3607010283      -32.1610574471  TIP3      9334            0.0000000000
     77833      9734  TIP3      H1             23.2975077729      -50.7091212304      -31.8072471606  TIP3      9334            0.0000000000
     77834      9734  TIP3      H2             23.1886730808      -51.8231704742      -32.8466313822  TIP3      9334            0.0000000000
     77835      9735  TIP3      OH2            24.0654155958      -43.6160951317      -29.0767940569  TIP3      9335            0.0000000000
     77836      9735  TIP3      H1             24.0315032811      -42.7085494308      -29.4320859830  TIP3      9335            0.0000000000
     77837      9735  TIP3      H2             23.1812419415      -43.6840409403      -28.6328882261  TIP3      9335            0.0000000000
     77838      9736  TIP3      OH2            20.1539420566      -43.9663501377      -38.2813522584  TIP3      9336            0.0000000000
     77839      9736  TIP3      H1             19.9052006631      -43.6807498768      -39.1790031127  TIP3      9336            0.0000000000
     77840      9736  TIP3      H2             20.2148756776      -43.1107739192      -37.8018200742  TIP3      9336            0.0000000000
     77841      9737  TIP3      OH2            33.7894841061      -42.3260703039      -31.5503983468  TIP3      9337            0.0000000000
     77842      9737  TIP3      H1             32.8262229336      -42.2327998963      -31.4036997995  TIP3      9337            0.0000000000
     77843      9737  TIP3      H2             34.0536665686      -41.3988114152      -31.7158705944  TIP3      9337            0.0000000000
     77844      9738  TIP3      OH2            34.1046282618      -54.0402465377      -30.1260902078  TIP3      9338            0.0000000000
     77845      9738  TIP3      H1             33.3623324829      -53.4237665578      -30.2022826962  TIP3      9338            0.0000000000
     77846      9738  TIP3      H2             34.7879770892      -53.6228070369      -30.6709924882  TIP3      9338            0.0000000000
     77847      9739  TIP3      OH2            27.1017037186      -55.9142563632      -32.6952811026  TIP3      9339            0.0000000000
     77848      9739  TIP3      H1             26.9665195316      -56.8856557379      -32.7447926671  TIP3      9339            0.0000000000
     77849      9739  TIP3      H2             26.2217220483      -55.6171695388      -32.4015786247  TIP3      9339            0.0000000000
     77850      9740  TIP3      OH2            32.0162732015      -40.5425592444      -34.9393077405  TIP3      9340            0.0000000000
     77851      9740  TIP3      H1             32.4770832009      -41.2452191168      -35.4404101176  TIP3      9340            0.0000000000
     77852      9740  TIP3      H2             32.4003221025      -39.7339582489      -35.3486540502  TIP3      9340            0.0000000000
     77853      9741  TIP3      OH2            33.2013317695      -42.6114827353      -36.4321685367  TIP3      9341            0.0000000000
     77854      9741  TIP3      H1             32.9508014565      -43.3204898115      -37.0485224512  TIP3      9341            0.0000000000
     77855      9741  TIP3      H2             33.2781755370      -43.0927189908      -35.5877911840  TIP3      9341            0.0000000000
     77856      9742  TIP3      OH2            34.8764145835      -44.0420997669      -27.9348257469  TIP3      9342            0.0000000000
     77857      9742  TIP3      H1             35.0096535524      -44.6606740652      -28.6835595204  TIP3      9342            0.0000000000
     77858      9742  TIP3      H2             35.0558236828      -43.1793992989      -28.3402062202  TIP3      9342            0.0000000000
     77859      9743  TIP3      OH2            29.3539730771      -47.0988112930      -38.1571243643  TIP3      9343            0.0000000000
     77860      9743  TIP3      H1             28.6462625645      -46.5628650111      -38.5569605256  TIP3      9343            0.0000000000
     77861      9743  TIP3      H2             30.0513607424      -47.0390080048      -38.8422348848  TIP3      9343            0.0000000000
     77862      9744  TIP3      OH2            29.4003902956      -48.6228268474      -41.1240650668  TIP3      9344            0.0000000000
     77863      9744  TIP3      H1             30.1246170817      -48.6132190224      -40.4807468417  TIP3      9344            0.0000000000
     77864      9744  TIP3      H2             29.7213936218      -49.2604035227      -41.7727604554  TIP3      9344            0.0000000000
     77865      9745  TIP3      OH2            36.7870579870      -47.7012300664      -29.8769271461  TIP3      9345            0.0000000000
     77866      9745  TIP3      H1             36.0635095924      -47.0237310380      -29.8111934764  TIP3      9345            0.0000000000
     77867      9745  TIP3      H2             37.1429026042      -47.4907421485      -30.7392124997  TIP3      9345            0.0000000000
     77868      9746  TIP3      OH2            32.7805638396      -46.8957516761      -37.2432604823  TIP3      9346            0.0000000000
     77869      9746  TIP3      H1             32.0372622659      -46.6692364715      -36.6419744141  TIP3      9346            0.0000000000
     77870      9746  TIP3      H2             33.2355905438      -47.6025597749      -36.7516160600  TIP3      9346            0.0000000000
     77871      9747  TIP3      OH2            32.7031303876      -48.7428380155      -28.1519866838  TIP3      9347            0.0000000000
     77872      9747  TIP3      H1             32.7359730570      -47.9435599195      -27.5946371287  TIP3      9347            0.0000000000
     77873      9747  TIP3      H2             32.0689323530      -48.4382266736      -28.8380104895  TIP3      9347            0.0000000000
     77874      9748  TIP3      OH2            24.4261828346      -46.2345712993      -35.3419341348  TIP3      9348            0.0000000000
     77875      9748  TIP3      H1             24.0767935149      -46.6438627644      -36.1740868690  TIP3      9348            0.0000000000
     77876      9748  TIP3      H2             25.0066928127      -46.9538429559      -34.9987128243  TIP3      9348            0.0000000000
     77877      9749  TIP3      OH2            25.7997266323      -42.8175091630      -32.6950541456  TIP3      9349            0.0000000000
     77878      9749  TIP3      H1             25.6566942895      -43.4320039669      -33.4184423397  TIP3      9349            0.0000000000
     77879      9749  TIP3      H2             26.4965058815      -43.2276612005      -32.1511184368  TIP3      9349            0.0000000000
     77880      9750  TIP3      OH2            24.7545413753      -47.5055200732      -31.6969056410  TIP3      9350            0.0000000000
     77881      9750  TIP3      H1             25.3278758379      -47.3884691470      -32.4766639752  TIP3      9350            0.0000000000
     77882      9750  TIP3      H2             25.1070552473      -46.8509156911      -31.0613586638  TIP3      9350            0.0000000000
     77883      9751  TIP3      OH2            31.1063562908      -41.9604566793      -30.9939179056  TIP3      9351            0.0000000000
     77884      9751  TIP3      H1             30.8600268248      -41.3217365775      -30.3181542180  TIP3      9351            0.0000000000
     77885      9751  TIP3      H2             30.8937976667      -42.8152697442      -30.5382758608  TIP3      9351            0.0000000000
     77886      9752  TIP3      OH2            25.6772281384      -43.0941838846      -26.9718142987  TIP3      9352            0.0000000000
     77887      9752  TIP3      H1             25.3191482972      -42.3070189881      -26.5225084739  TIP3      9352            0.0000000000
     77888      9752  TIP3      H2             25.0041973428      -43.2606251007      -27.6778232622  TIP3      9352            0.0000000000
     77889      9753  TIP3      OH2            31.6419109591      -47.7361963623      -39.5609535138  TIP3      9353            0.0000000000
     77890      9753  TIP3      H1             32.2217701233      -47.5608562184      -38.7804195220  TIP3      9353            0.0000000000
     77891      9753  TIP3      H2             32.0632087781      -47.2296412097      -40.2770329228  TIP3      9353            0.0000000000
     77892      9754  TIP3      OH2            22.6060679985      -46.9099570581      -27.7938736421  TIP3      9354            0.0000000000
     77893      9754  TIP3      H1             22.6526475789      -46.2479265815      -27.0707160776  TIP3      9354            0.0000000000
     77894      9754  TIP3      H2             21.6840190974      -46.8021020681      -28.0717008903  TIP3      9354            0.0000000000
     77895      9755  TIP3      OH2            29.3288934096      -41.0267138830      -36.0643497920  TIP3      9355            0.0000000000
     77896      9755  TIP3      H1             29.8457151509      -40.6746715348      -35.3271611156  TIP3      9355            0.0000000000
     77897      9755  TIP3      H2             28.8242007215      -40.2449774465      -36.3574633329  TIP3      9355            0.0000000000
     77898      9756  TIP3      OH2            23.9159578909      -41.0390844588      -26.2252241620  TIP3      9356            0.0000000000
     77899      9756  TIP3      H1             23.8930331044      -41.1522710369      -27.1902962707  TIP3      9356            0.0000000000
     77900      9756  TIP3      H2             22.9771202014      -41.1494531314      -25.9864675694  TIP3      9356            0.0000000000
     77901      9757  TIP3      OH2            35.3612521728      -55.9561496688      -39.7219426021  TIP3      9357            0.0000000000
     77902      9757  TIP3      H1             34.4212474524      -55.8404165294      -39.4438937465  TIP3      9357            0.0000000000
     77903      9757  TIP3      H2             35.5905964880      -55.1114417840      -40.1292051208  TIP3      9357            0.0000000000
     77904      9758  TIP3      OH2            23.3985407693      -47.2104508745      -37.7341312903  TIP3      9358            0.0000000000
     77905      9758  TIP3      H1             23.1031553255      -46.4314475907      -38.2521507482  TIP3      9358            0.0000000000
     77906      9758  TIP3      H2             22.7256780079      -47.8666592859      -37.9328544895  TIP3      9358            0.0000000000
     77907      9759  TIP3      OH2            36.5011630217      -41.6387372619      -41.3317324658  TIP3      9359            0.0000000000
     77908      9759  TIP3      H1             36.6144512941      -40.6781177353      -41.1881919684  TIP3      9359            0.0000000000
     77909      9759  TIP3      H2             37.4335015231      -41.9146479422      -41.4017358578  TIP3      9359            0.0000000000
     77910      9760  TIP3      OH2            19.4871214757      -44.8084487043      -28.8920338790  TIP3      9360            0.0000000000
     77911      9760  TIP3      H1             19.0026056092      -44.8762036688      -29.7336354238  TIP3      9360            0.0000000000
     77912      9760  TIP3      H2             19.5147793020      -45.7463454256      -28.6262473032  TIP3      9360            0.0000000000
     77913      9761  TIP3      OH2            19.2374149783      -42.0626514750      -32.0517611028  TIP3      9361            0.0000000000
     77914      9761  TIP3      H1             20.1932108699      -42.1875570658      -32.0704329477  TIP3      9361            0.0000000000
     77915      9761  TIP3      H2             19.1414164921      -41.2581087523      -31.5256318461  TIP3      9361            0.0000000000
     77916      9762  TIP3      OH2            37.4660052098      -41.3718847174      -26.3828546853  TIP3      9362            0.0000000000
     77917      9762  TIP3      H1             37.3727262241      -42.3329458742      -26.3976151569  TIP3      9362            0.0000000000
     77918      9762  TIP3      H2             36.6067001301      -41.1135420650      -25.9660519636  TIP3      9362            0.0000000000
     77919      9763  TIP3      OH2            28.4273277576      -41.8206211905      -27.5099176226  TIP3      9363            0.0000000000
     77920      9763  TIP3      H1             28.5018070635      -40.9780577815      -27.0031021883  TIP3      9363            0.0000000000
     77921      9763  TIP3      H2             27.5527407889      -42.1556171461      -27.2411231352  TIP3      9363            0.0000000000
     77922      9764  TIP3      OH2            28.8448010325      -38.0635763282      -37.6892910491  TIP3      9364            0.0000000000
     77923      9764  TIP3      H1             28.7675995032      -38.1561418076      -38.6553539388  TIP3      9364            0.0000000000
     77924      9764  TIP3      H2             28.8767110231      -37.0962140314      -37.5610618008  TIP3      9364            0.0000000000
     77925      9765  TIP3      OH2            22.5013629742      -39.2136631492      -35.8957647934  TIP3      9365            0.0000000000
     77926      9765  TIP3      H1             22.6427441457      -39.6129766476      -35.0112321891  TIP3      9365            0.0000000000
     77927      9765  TIP3      H2             21.6470424352      -39.6079020145      -36.1411260418  TIP3      9365            0.0000000000
     77928      9766  TIP3      OH2            31.9157686983      -38.8696330745      -40.7173667791  TIP3      9366            0.0000000000
     77929      9766  TIP3      H1             32.3367121066      -39.6401094507      -41.1552069458  TIP3      9366            0.0000000000
     77930      9766  TIP3      H2             31.9508043622      -39.1455349910      -39.7779622268  TIP3      9366            0.0000000000
     77931      9767  TIP3      OH2            31.6144680608      -38.9426836896      -37.9432992196  TIP3      9367            0.0000000000
     77932      9767  TIP3      H1             30.6591081159      -38.8625444416      -37.7549953920  TIP3      9367            0.0000000000
     77933      9767  TIP3      H2             31.8742237588      -39.6726520336      -37.3618025426  TIP3      9367            0.0000000000
     77934      9768  TIP3      OH2            34.6043531963      -49.8897600548      -25.9101445742  TIP3      9368            0.0000000000
     77935      9768  TIP3      H1             34.1669645599      -49.4182485330      -26.6257425474  TIP3      9368            0.0000000000
     77936      9768  TIP3      H2             34.6269779789      -50.8089818792      -26.2049694568  TIP3      9368            0.0000000000
     77937      9769  TIP3      OH2            21.7466920621      -43.4892889134      -27.8989476367  TIP3      9369            0.0000000000
     77938      9769  TIP3      H1             21.9685851445      -43.8668890831      -27.0251160384  TIP3      9369            0.0000000000
     77939      9769  TIP3      H2             20.8806484795      -43.8893142461      -28.1095672315  TIP3      9369            0.0000000000
     77940      9770  TIP3      OH2            24.4088511410      -55.0100733857      -31.9469543684  TIP3      9370            0.0000000000
     77941      9770  TIP3      H1             23.5011217046      -55.1201083274      -32.3173615829  TIP3      9370            0.0000000000
     77942      9770  TIP3      H2             24.3249599690      -54.1723462038      -31.4656838571  TIP3      9370            0.0000000000
     77943      9771  TIP3      OH2            29.0504064427      -55.3100869255      -28.5402122305  TIP3      9371            0.0000000000
     77944      9771  TIP3      H1             29.4614909683      -55.7410472229      -27.7690555850  TIP3      9371            0.0000000000
     77945      9771  TIP3      H2             28.0860715101      -55.4843929189      -28.4102486954  TIP3      9371            0.0000000000
     77946      9772  TIP3      OH2            32.3510602551      -51.5560932334      -27.6899869636  TIP3      9372            0.0000000000
     77947      9772  TIP3      H1             31.8184712551      -51.6988291611      -26.8732901372  TIP3      9372            0.0000000000
     77948      9772  TIP3      H2             32.1996643535      -50.6231840871      -27.9120274434  TIP3      9372            0.0000000000
     77949      9773  TIP3      OH2            33.1762231481      -46.6473945797      -41.8275906669  TIP3      9373            0.0000000000
     77950      9773  TIP3      H1             33.1837173785      -46.8747687320      -42.7844016111  TIP3      9373            0.0000000000
     77951      9773  TIP3      H2             34.0330974232      -46.2484145376      -41.6960216394  TIP3      9373            0.0000000000
     77952      9774  TIP3      OH2            28.7043809322      -52.7919828947      -41.2415157185  TIP3      9374            0.0000000000
     77953      9774  TIP3      H1             28.4237040314      -52.8225993866      -40.3082308905  TIP3      9374            0.0000000000
     77954      9774  TIP3      H2             28.4306894527      -53.6722351698      -41.5287265568  TIP3      9374            0.0000000000
     77955      9775  TIP3      OH2            24.4943218221      -50.0731214438      -30.7557752721  TIP3      9375            0.0000000000
     77956      9775  TIP3      H1             23.7979323605      -50.0871682038      -30.0733907898  TIP3      9375            0.0000000000
     77957      9775  TIP3      H2             24.4879670061      -49.1343823206      -31.0509953190  TIP3      9375            0.0000000000
     77958      9776  TIP3      OH2            24.4732683354      -49.8702066046      -35.8542145100  TIP3      9376            0.0000000000
     77959      9776  TIP3      H1             23.5517751461      -50.1866455074      -35.9588319858  TIP3      9376            0.0000000000
     77960      9776  TIP3      H2             24.8884513511      -50.2248645498      -36.6635335790  TIP3      9376            0.0000000000
     77961      9777  TIP3      OH2            29.9998409771      -49.4358364047      -37.0658230777  TIP3      9377            0.0000000000
     77962      9777  TIP3      H1             29.5875880264      -48.6028447593      -37.3798164365  TIP3      9377            0.0000000000
     77963      9777  TIP3      H2             30.7099111505      -49.5746922392      -37.7157858194  TIP3      9377            0.0000000000
     77964      9778  TIP3      OH2            29.1034353022      -49.2461976399      -25.6303183019  TIP3      9378            0.0000000000
     77965      9778  TIP3      H1             28.5236717785      -49.9623189925      -25.2587099980  TIP3      9378            0.0000000000
     77966      9778  TIP3      H2             29.9114399848      -49.3589210881      -25.1053783294  TIP3      9378            0.0000000000
     77967      9779  TIP3      OH2            31.0152985478      -49.9605887994      -34.2258819399  TIP3      9379            0.0000000000
     77968      9779  TIP3      H1             30.7845027986      -49.3813012690      -34.9720592529  TIP3      9379            0.0000000000
     77969      9779  TIP3      H2             31.1622909519      -50.8080904606      -34.6959217620  TIP3      9379            0.0000000000
     77970      9780  TIP3      OH2            22.1841207211      -49.7598785852      -28.9682888104  TIP3      9380            0.0000000000
     77971      9780  TIP3      H1             22.1899879726      -49.3625659869      -28.0790374901  TIP3      9380            0.0000000000
     77972      9780  TIP3      H2             21.7088115139      -50.5895597419      -28.8229241856  TIP3      9380            0.0000000000
     77973      9781  TIP3      OH2            25.6826826517      -52.2052920278      -41.8987497445  TIP3      9381            0.0000000000
     77974      9781  TIP3      H1             25.1530672926      -52.8275458065      -41.3666930056  TIP3      9381            0.0000000000
     77975      9781  TIP3      H2             25.0075362034      -51.9192995162      -42.5318535749  TIP3      9381            0.0000000000
     77976      9782  TIP3      OH2            18.8066400449      -52.6394937426      -35.0618918928  TIP3      9382            0.0000000000
     77977      9782  TIP3      H1             19.4682138125      -52.6815633126      -34.3429422315  TIP3      9382            0.0000000000
     77978      9782  TIP3      H2             19.2696058439      -53.0537472923      -35.8125758681  TIP3      9382            0.0000000000
     77979      9783  TIP3      OH2            20.0976218400      -51.9294720227      -39.6437919887  TIP3      9383            0.0000000000
     77980      9783  TIP3      H1             20.5715563834      -51.3111624111      -40.2491640708  TIP3      9383            0.0000000000
     77981      9783  TIP3      H2             19.3865195739      -51.3360026980      -39.3168355678  TIP3      9383            0.0000000000
     77982      9784  TIP3      OH2            30.2524049963      -48.3379674881      -29.6138302781  TIP3      9384            0.0000000000
     77983      9784  TIP3      H1             30.5986319614      -49.0053937116      -30.2355057483  TIP3      9384            0.0000000000
     77984      9784  TIP3      H2             29.8033794912      -48.8838429845      -28.9436277289  TIP3      9384            0.0000000000
     77985      9785  TIP3      OH2            27.0460011439      -52.4024378433      -34.8172676833  TIP3      9385            0.0000000000
     77986      9785  TIP3      H1             26.1140108111      -52.3713212215      -34.5178389157  TIP3      9385            0.0000000000
     77987      9785  TIP3      H2             27.5429763543      -52.5068625218      -33.9912689662  TIP3      9385            0.0000000000
     77988      9786  TIP3      OH2            21.8658435035      -50.8016701405      -35.9599639135  TIP3      9386            0.0000000000
     77989      9786  TIP3      H1             20.9671147683      -50.6830807757      -36.3292950389  TIP3      9386            0.0000000000
     77990      9786  TIP3      H2             22.1560387710      -51.6493444224      -36.3338067618  TIP3      9386            0.0000000000
     77991      9787  TIP3      OH2            25.5072760765      -50.7851667689      -38.3167839018  TIP3      9387            0.0000000000
     77992      9787  TIP3      H1             26.4590117438      -50.6627137571      -38.1410975628  TIP3      9387            0.0000000000
     77993      9787  TIP3      H2             25.2829887074      -50.1141381627      -38.9853445048  TIP3      9387            0.0000000000
     77994      9788  TIP3      OH2            31.4601329715      -53.1646131243      -31.5676498742  TIP3      9388            0.0000000000
     77995      9788  TIP3      H1             30.7594395764      -53.0601492364      -30.8837894319  TIP3      9388            0.0000000000
     77996      9788  TIP3      H2             30.9502772247      -53.3647352992      -32.3599023583  TIP3      9388            0.0000000000
     77997      9789  TIP3      OH2            24.1902144463      -49.6004987019      -40.7336495959  TIP3      9389            0.0000000000
     77998      9789  TIP3      H1             23.6433912470      -49.9684785886      -41.4499802208  TIP3      9389            0.0000000000
     77999      9789  TIP3      H2             25.0221200337      -49.3997186663      -41.1905309585  TIP3      9389            0.0000000000
     78000      9790  TIP3      OH2            34.6870415347      -37.5097150642      -25.2550119800  TIP3      9390            0.0000000000
     78001      9790  TIP3      H1             34.9406966646      -37.0945861032      -26.0967529634  TIP3      9390            0.0000000000
     78002      9790  TIP3      H2             35.3780560431      -37.1707996212      -24.6446396288  TIP3      9390            0.0000000000
     78003      9791  TIP3      OH2            22.3320924491      -45.0300444219      -25.6776655583  TIP3      9391            0.0000000000
     78004      9791  TIP3      H1             23.0533020512      -44.7811124583      -25.0835890958  TIP3      9391            0.0000000000
     78005      9791  TIP3      H2             21.5390673965      -44.8725033491      -25.1143632958  TIP3      9391            0.0000000000
     78006      9792  TIP3      OH2            28.3400923525      -49.6237742108      -32.9196058468  TIP3      9392            0.0000000000
     78007      9792  TIP3      H1             28.9224608845      -50.1710080319      -33.4622649464  TIP3      9392            0.0000000000
     78008      9792  TIP3      H2             28.1990240090      -50.1621296434      -32.1301175444  TIP3      9392            0.0000000000
     78009      9793  TIP3      OH2            23.3430056597      -53.4831792193      -36.4984895855  TIP3      9393            0.0000000000
     78010      9793  TIP3      H1             23.0363907535      -54.4042861853      -36.5181432333  TIP3      9393            0.0000000000
     78011      9793  TIP3      H2             24.1350858521      -53.5175726257      -37.0494448355  TIP3      9393            0.0000000000
     78012      9794  TIP3      OH2            26.9743717318      -51.2615721921      -30.5126772196  TIP3      9394            0.0000000000
     78013      9794  TIP3      H1             26.1375672112      -50.7728173605      -30.3989279634  TIP3      9394            0.0000000000
     78014      9794  TIP3      H2             27.5159728110      -50.9581024431      -29.7579041895  TIP3      9394            0.0000000000
     78015      9795  TIP3      OH2            27.5501131359      -45.0380410429      -38.8068404354  TIP3      9395            0.0000000000
     78016      9795  TIP3      H1             26.7714414853      -45.5432213463      -39.1434994260  TIP3      9395            0.0000000000
     78017      9795  TIP3      H2             27.3635086649      -44.9864690186      -37.8592539105  TIP3      9395            0.0000000000
     78018      9796  TIP3      OH2            34.7148678610      -45.9045478031      -30.0176112477  TIP3      9396            0.0000000000
     78019      9796  TIP3      H1             35.2945822453      -45.4047188350      -30.6102462175  TIP3      9396            0.0000000000
     78020      9796  TIP3      H2             33.8543717567      -45.7932507319      -30.4871532828  TIP3      9396            0.0000000000
     78021      9797  TIP3      OH2            31.4284457543      -52.2418319494      -40.6392694534  TIP3      9397            0.0000000000
     78022      9797  TIP3      H1             30.4736741479      -52.1068374132      -40.7777592903  TIP3      9397            0.0000000000
     78023      9797  TIP3      H2             31.7199532344      -51.3679601623      -40.3127278645  TIP3      9397            0.0000000000
     78024      9798  TIP3      OH2            29.0482966583      -44.8295364612      -27.5815432117  TIP3      9398            0.0000000000
     78025      9798  TIP3      H1             28.7047945799      -45.2268020363      -26.7706276098  TIP3      9398            0.0000000000
     78026      9798  TIP3      H2             28.8268388988      -43.8983887395      -27.4931607890  TIP3      9398            0.0000000000
     78027      9799  TIP3      OH2            32.1316389150      -50.3444318289      -38.9567954103  TIP3      9399            0.0000000000
     78028      9799  TIP3      H1             33.0386900830      -50.4818288721      -38.6229541568  TIP3      9399            0.0000000000
     78029      9799  TIP3      H2             32.2039526276      -49.5430270481      -39.4952716429  TIP3      9399            0.0000000000
     78030      9800  TIP3      OH2            22.6627695894      -45.6986706873      -33.0259674272  TIP3      9400            0.0000000000
     78031      9800  TIP3      H1             23.3791904435      -45.7549187760      -33.6786854742  TIP3      9400            0.0000000000
     78032      9800  TIP3      H2             22.7292443975      -46.5541108951      -32.5643810318  TIP3      9400            0.0000000000
     78033      9801  TIP3      OH2            29.6683667897      -43.5842760507      -39.7681224839  TIP3      9401            0.0000000000
     78034      9801  TIP3      H1             29.3286447788      -42.7422059455      -39.4174642010  TIP3      9401            0.0000000000
     78035      9801  TIP3      H2             28.9280319293      -44.2046339852      -39.5945146745  TIP3      9401            0.0000000000
     78036      9802  TIP3      OH2            19.6582125933      -47.2685675204      -27.7485714891  TIP3      9402            0.0000000000
     78037      9802  TIP3      H1             19.8632217971      -47.7008411607      -26.8939413538  TIP3      9402            0.0000000000
     78038      9802  TIP3      H2             19.0420669309      -47.8941139002      -28.1653193426  TIP3      9402            0.0000000000
     78039      9803  TIP3      OH2            26.6727857603      -47.7028828386      -25.5497667044  TIP3      9403            0.0000000000
     78040      9803  TIP3      H1             26.3722736230      -47.9684084858      -26.4239170580  TIP3      9403            0.0000000000
     78041      9803  TIP3      H2             27.5992317796      -48.0088040967      -25.5257773308  TIP3      9403            0.0000000000
     78042      9804  TIP3      OH2            31.3240482265      -42.3921097233      -27.6297607447  TIP3      9404            0.0000000000
     78043      9804  TIP3      H1             30.4031472563      -42.1969282759      -27.8752460445  TIP3      9404            0.0000000000
     78044      9804  TIP3      H2             31.3156986440      -42.1037892918      -26.6975714434  TIP3      9404            0.0000000000
     78045      9805  TIP3      OH2            37.0296162120      -50.1738506704      -39.2275345679  TIP3      9405            0.0000000000
     78046      9805  TIP3      H1             36.4664921764      -50.5165913191      -39.9479433595  TIP3      9405            0.0000000000
     78047      9805  TIP3      H2             37.1128473904      -49.2402770089      -39.5308161496  TIP3      9405            0.0000000000
     78048      9806  TIP3      OH2            36.9996222853      -44.3430613561      -26.4087854552  TIP3      9406            0.0000000000
     78049      9806  TIP3      H1             36.1267627148      -44.1036405936      -26.8069358517  TIP3      9406            0.0000000000
     78050      9806  TIP3      H2             37.5724209536      -44.3496635015      -27.1948140788  TIP3      9406            0.0000000000
     78051      9807  TIP3      OH2            35.3210218910      -41.3573776358      -38.8117683389  TIP3      9407            0.0000000000
     78052      9807  TIP3      H1             34.9468257984      -42.1852811568      -38.4920967164  TIP3      9407            0.0000000000
     78053      9807  TIP3      H2             35.6088203660      -41.5467634339      -39.7218033428  TIP3      9407            0.0000000000
     78054      9808  TIP3      OH2            32.4951580659      -46.5403504866      -31.7508877382  TIP3      9408            0.0000000000
     78055      9808  TIP3      H1             31.5581412774      -46.7825158399      -31.8156259004  TIP3      9408            0.0000000000
     78056      9808  TIP3      H2             32.9364699332      -47.3226837201      -32.1299773560  TIP3      9408            0.0000000000
     78057      9809  TIP3      OH2            25.0550421806      -42.2296961446      -35.6262618284  TIP3      9409            0.0000000000
     78058      9809  TIP3      H1             25.5299703530      -41.4131567124      -35.8538345149  TIP3      9409            0.0000000000
     78059      9809  TIP3      H2             24.1570555859      -41.9946994957      -35.9467083854  TIP3      9409            0.0000000000
     78060      9810  TIP3      OH2            20.7749117846      -47.3645708539      -41.0751109632  TIP3      9410            0.0000000000
     78061      9810  TIP3      H1             21.3995381586      -46.7315261740      -40.6752051080  TIP3      9410            0.0000000000
     78062      9810  TIP3      H2             19.9076721079      -47.0519351160      -40.7761808772  TIP3      9410            0.0000000000
     78063      9811  TIP3      OH2            26.4980514064      -44.5339086225      -36.0201375258  TIP3      9411            0.0000000000
     78064      9811  TIP3      H1             26.1404024716      -43.6293012600      -36.0570220399  TIP3      9411            0.0000000000
     78065      9811  TIP3      H2             25.7111204637      -45.0334442955      -35.6844676736  TIP3      9411            0.0000000000
     78066      9812  TIP3      OH2            26.9339021148      -40.4011715077      -29.7476935680  TIP3      9412            0.0000000000
     78067      9812  TIP3      H1             27.3411921183      -39.5503718498      -29.9827323360  TIP3      9412            0.0000000000
     78068      9812  TIP3      H2             27.5073984252      -40.6972253832      -29.0123400886  TIP3      9412            0.0000000000
     78069      9813  TIP3      OH2            25.1438185356      -39.5596406471      -36.5356154659  TIP3      9413            0.0000000000
     78070      9813  TIP3      H1             24.1710712976      -39.4177158764      -36.4615710735  TIP3      9413            0.0000000000
     78071      9813  TIP3      H2             25.4845830816      -38.7064295647      -36.1979591294  TIP3      9413            0.0000000000
     78072      9814  TIP3      OH2            30.4692736060      -44.3326044514      -30.0808535455  TIP3      9414            0.0000000000
     78073      9814  TIP3      H1             30.0949496604      -44.5435533623      -29.1985040647  TIP3      9414            0.0000000000
     78074      9814  TIP3      H2             31.0926230963      -45.0615000402      -30.2350529963  TIP3      9414            0.0000000000
     78075      9815  TIP3      OH2            32.7195403972      -43.3569266341      -40.9809022160  TIP3      9415            0.0000000000
     78076      9815  TIP3      H1             33.0481819339      -43.7715961424      -40.1573079038  TIP3      9415            0.0000000000
     78077      9815  TIP3      H2             31.7623235760      -43.4816918902      -40.8855708528  TIP3      9415            0.0000000000
     78078      9816  TIP3      OH2            33.2026145521      -39.7698034828      -27.5677922347  TIP3      9416            0.0000000000
     78079      9816  TIP3      H1             32.5581980247      -40.2960540853      -28.0806780119  TIP3      9416            0.0000000000
     78080      9816  TIP3      H2             33.4398451763      -39.0861294726      -28.2301323468  TIP3      9416            0.0000000000
     78081      9817  TIP3      OH2            37.2285245382      -38.9168783039      -40.7534425048  TIP3      9417            0.0000000000
     78082      9817  TIP3      H1             37.9534444932      -38.2957660201      -40.9425258227  TIP3      9417            0.0000000000
     78083      9817  TIP3      H2             36.5154511295      -38.3175022591      -40.4440555502  TIP3      9417            0.0000000000
     78084      9818  TIP3      OH2            21.3091909202      -52.5258549423      -28.1898436162  TIP3      9418            0.0000000000
     78085      9818  TIP3      H1             20.3980436756      -52.1841462367      -28.2264097235  TIP3      9418            0.0000000000
     78086      9818  TIP3      H2             21.1852942412      -53.3831711009      -27.7515639732  TIP3      9418            0.0000000000
     78087      9819  TIP3      OH2            33.5636099270      -44.6853956723      -38.7607426695  TIP3      9419            0.0000000000
     78088      9819  TIP3      H1             33.3064499758      -45.4523592383      -38.2046839305  TIP3      9419            0.0000000000
     78089      9819  TIP3      H2             34.5065059378      -44.5984802641      -38.5399911227  TIP3      9419            0.0000000000
     78090      9820  TIP3      OH2            20.9455815256      -40.7236377110      -29.7633032087  TIP3      9420            0.0000000000
     78091      9820  TIP3      H1             21.1838037600      -41.6635657888      -29.7654897111  TIP3      9420            0.0000000000
     78092      9820  TIP3      H2             21.1889468696      -40.4536909367      -28.8678615499  TIP3      9420            0.0000000000
     78093      9821  TIP3      OH2            25.7141691077      -42.6853578958      -40.0815947896  TIP3      9421            0.0000000000
     78094      9821  TIP3      H1             25.9006548703      -43.2215427667      -39.3036672549  TIP3      9421            0.0000000000
     78095      9821  TIP3      H2             25.7412810102      -41.7672886399      -39.7544521111  TIP3      9421            0.0000000000
     78096      9822  TIP3      OH2            22.1793046821      -45.4458342635      -39.5855199111  TIP3      9422            0.0000000000
     78097      9822  TIP3      H1             21.5029083942      -45.0631284073      -38.9919884381  TIP3      9422            0.0000000000
     78098      9822  TIP3      H2             22.7246078343      -44.6748026950      -39.8168907524  TIP3      9422            0.0000000000
     78099      9823  TIP3      OH2            30.0271944927      -52.7722582000      -29.2762191230  TIP3      9423            0.0000000000
     78100      9823  TIP3      H1             30.7369993507      -52.7107867845      -28.6210618064  TIP3      9423            0.0000000000
     78101      9823  TIP3      H2             29.6458637253      -53.6537081309      -29.0941477450  TIP3      9423            0.0000000000
     78102      9824  TIP3      OH2            30.7968562777      -53.1540736467      -38.1607383069  TIP3      9424            0.0000000000
     78103      9824  TIP3      H1             31.0310181210      -52.6749459755      -38.9857807646  TIP3      9424            0.0000000000
     78104      9824  TIP3      H2             31.3724987403      -52.7330514148      -37.5175257222  TIP3      9424            0.0000000000
     78105      9825  TIP3      OH2            28.4767693568      -41.0155992768      -39.3101093307  TIP3      9425            0.0000000000
     78106      9825  TIP3      H1             27.6571856592      -40.4935948447      -39.2823954528  TIP3      9425            0.0000000000
     78107      9825  TIP3      H2             29.0089083694      -40.5184334497      -39.9594855594  TIP3      9425            0.0000000000
     78108      9826  TIP3      OH2            28.0060659552      -51.4182375290      -37.3487499884  TIP3      9426            0.0000000000
     78109      9826  TIP3      H1             28.8179722437      -50.8801791179      -37.3109025719  TIP3      9426            0.0000000000
     78110      9826  TIP3      H2             27.7570864907      -51.5521059000      -36.4213307464  TIP3      9426            0.0000000000
     78111      9827  TIP3      OH2            28.5538136997      -50.4221636940      -28.1657720406  TIP3      9427            0.0000000000
     78112      9827  TIP3      H1             28.6533889436      -49.8422673257      -27.3844478444  TIP3      9427            0.0000000000
     78113      9827  TIP3      H2             29.2136024368      -51.1143175126      -28.0469852185  TIP3      9427            0.0000000000
     78114      9828  TIP3      OH2            28.8685091600      -54.3298481984      -36.4277960516  TIP3      9428            0.0000000000
     78115      9828  TIP3      H1             28.5415859722      -53.6964906907      -35.7749203532  TIP3      9428            0.0000000000
     78116      9828  TIP3      H2             29.5601978140      -53.8071795147      -36.8985769294  TIP3      9428            0.0000000000
     78117      9829  TIP3      OH2            25.8228113342      -39.9763955509      -39.3367660184  TIP3      9429            0.0000000000
     78118      9829  TIP3      H1             25.9893689846      -39.1505775928      -39.8354982650  TIP3      9429            0.0000000000
     78119      9829  TIP3      H2             25.6066019441      -39.6352890382      -38.4453170602  TIP3      9429            0.0000000000
     78120      9830  TIP3      OH2            24.5307435300      -53.2706544139      -39.7371732443  TIP3      9430            0.0000000000
     78121      9830  TIP3      H1             24.4678557478      -52.3600078958      -39.3777941920  TIP3      9430            0.0000000000
     78122      9830  TIP3      H2             25.4416764823      -53.5045408068      -39.4703693647  TIP3      9430            0.0000000000
     78123      9831  TIP3      OH2            34.7606071105      -52.5214219771      -27.3097764665  TIP3      9431            0.0000000000
     78124      9831  TIP3      H1             33.8210660595      -52.2362419212      -27.4286931721  TIP3      9431            0.0000000000
     78125      9831  TIP3      H2             35.0734557612      -52.5240174233      -28.2265290226  TIP3      9431            0.0000000000
     78126      9832  TIP3      OH2            33.3524988449      -48.7494464274      -33.2602386251  TIP3      9432            0.0000000000
     78127      9832  TIP3      H1             32.5403263620      -49.1866688048      -33.5676440371  TIP3      9432            0.0000000000
     78128      9832  TIP3      H2             33.8155649975      -49.4521838133      -32.7513297022  TIP3      9432            0.0000000000
     78129      9833  TIP3      OH2            22.7850455745      -42.8312512130      -40.6761660285  TIP3      9433            0.0000000000
     78130      9833  TIP3      H1             23.4098219849      -42.1553908887      -40.3911230265  TIP3      9433            0.0000000000
     78131      9833  TIP3      H2             23.2834947573      -43.2781721976      -41.3870211119  TIP3      9433            0.0000000000
     78132      9834  TIP3      OH2            21.1407823665      -50.1647095465      -41.5237645260  TIP3      9434            0.0000000000
     78133      9834  TIP3      H1             21.0952665635      -49.2049060342      -41.3766120939  TIP3      9434            0.0000000000
     78134      9834  TIP3      H2             20.2537444802      -50.3864902807      -41.8364364572  TIP3      9434            0.0000000000
     78135      9835  TIP3      OH2            34.4227568570      -39.5116712525      -31.6102204191  TIP3      9435            0.0000000000
     78136      9835  TIP3      H1             34.3047617651      -38.8173921107      -32.2887291157  TIP3      9435            0.0000000000
     78137      9835  TIP3      H2             35.3834257347      -39.4321886172      -31.4260201527  TIP3      9435            0.0000000000
     78138      9836  TIP3      OH2            21.9509138169      -55.3412690045      -32.8639274199  TIP3      9436            0.0000000000
     78139      9836  TIP3      H1             21.7029312894      -55.3253473365      -33.8122323808  TIP3      9436            0.0000000000
     78140      9836  TIP3      H2             21.4940516892      -56.1705288054      -32.5748201169  TIP3      9436            0.0000000000
     78141      9837  TIP3      OH2            20.8718296058      -41.4551758081      -36.6964485765  TIP3      9437            0.0000000000
     78142      9837  TIP3      H1             20.0271281161      -40.9794103956      -36.7012590380  TIP3      9437            0.0000000000
     78143      9837  TIP3      H2             21.3865456104      -40.9509765898      -37.3395779751  TIP3      9437            0.0000000000
     78144      9838  TIP3      OH2            20.1292556189      -38.8246279133      -25.3904496710  TIP3      9438            0.0000000000
     78145      9838  TIP3      H1             20.7009258655      -39.0324619433      -24.6287394907  TIP3      9438            0.0000000000
     78146      9838  TIP3      H2             19.6632281243      -39.6536630278      -25.5757886185  TIP3      9438            0.0000000000
     78147      9839  TIP3      OH2            24.7140905765      -39.9333513713      -23.7619090721  TIP3      9439            0.0000000000
     78148      9839  TIP3      H1             25.5254716737      -40.3626373747      -23.4465748744  TIP3      9439            0.0000000000
     78149      9839  TIP3      H2             24.7319713685      -40.1445185048      -24.7198867647  TIP3      9439            0.0000000000
     78150      9840  TIP3      OH2            29.1691176082      -40.2543524350      -41.8964910261  TIP3      9440            0.0000000000
     78151      9840  TIP3      H1             28.3705882357      -40.8403759749      -41.9681203533  TIP3      9440            0.0000000000
     78152      9840  TIP3      H2             29.6383958547      -40.8163604193      -42.5204598280  TIP3      9440            0.0000000000
     78153      9841  TIP3      OH2            31.3060439540      -41.5218004427      -25.0669570173  TIP3      9441            0.0000000000
     78154      9841  TIP3      H1             30.9589660269      -42.3891018227      -24.7705309054  TIP3      9441            0.0000000000
     78155      9841  TIP3      H2             32.0466897041      -41.3793085323      -24.4488344691  TIP3      9441            0.0000000000
     78156      9842  TIP3      OH2            33.4428700906      -40.5904692926      -42.1723040187  TIP3      9442            0.0000000000
     78157      9842  TIP3      H1             33.7271725698      -41.3960929883      -41.7001715235  TIP3      9442            0.0000000000
     78158      9842  TIP3      H2             34.2074469641      -40.3678885436      -42.7185653609  TIP3      9442            0.0000000000
     78159      9843  TIP3      OH2            20.0464908639      -45.0135896205      -24.4168416635  TIP3      9443            0.0000000000
     78160      9843  TIP3      H1             20.1883186868      -45.9336099535      -24.7138346599  TIP3      9443            0.0000000000
     78161      9843  TIP3      H2             19.2704785619      -44.7488173149      -24.9352095559  TIP3      9443            0.0000000000
     78162      9844  TIP3      OH2            24.4204533191      -44.6304296842      -42.2600761441  TIP3      9444            0.0000000000
     78163      9844  TIP3      H1             24.4716159655      -45.4639407271      -41.7774231841  TIP3      9444            0.0000000000
     78164      9844  TIP3      H2             25.0306446881      -44.8239380139      -42.9980917150  TIP3      9444            0.0000000000
     78165      9845  TIP3      OH2            26.7234461957      -45.0342784683      -24.9992326797  TIP3      9445            0.0000000000
     78166      9845  TIP3      H1             26.3783003362      -44.7614144273      -25.8691784987  TIP3      9445            0.0000000000
     78167      9845  TIP3      H2             26.8295192880      -46.0159138369      -25.0929718162  TIP3      9445            0.0000000000
     78168      9846  TIP3      OH2            32.4293331011      -45.1637126688      -27.6083860377  TIP3      9446            0.0000000000
     78169      9846  TIP3      H1             33.1931012244      -44.5572814344      -27.7201013101  TIP3      9446            0.0000000000
     78170      9846  TIP3      H2             31.6945766176      -44.5354111753      -27.5685759568  TIP3      9446            0.0000000000
     78171      9847  TIP3      OH2            20.8726327992      -47.8138638451      -25.0210138518  TIP3      9447            0.0000000000
     78172      9847  TIP3      H1             21.3070693485      -48.6704087096      -25.1231783172  TIP3      9447            0.0000000000
     78173      9847  TIP3      H2             20.6421648438      -47.8091233806      -24.0800213100  TIP3      9447            0.0000000000
     78174      9848  TIP3      OH2            25.5480285132      -46.6666032267      -39.9806402160  TIP3      9448            0.0000000000
     78175      9848  TIP3      H1             25.0736268923      -47.1906852247      -39.3139385271  TIP3      9448            0.0000000000
     78176      9848  TIP3      H2             25.8252874469      -47.3687622909      -40.6169294826  TIP3      9448            0.0000000000
     78177      9849  TIP3      OH2            24.8258984406      -48.8379001092      -27.6428431920  TIP3      9449            0.0000000000
     78178      9849  TIP3      H1             24.2167276871      -48.1323226612      -27.3662942555  TIP3      9449            0.0000000000
     78179      9849  TIP3      H2             25.1879302025      -48.4854248573      -28.4738584345  TIP3      9449            0.0000000000
     78180      9850  TIP3      OH2            26.6133735457      -48.4509697294      -41.7349312545  TIP3      9450            0.0000000000
     78181      9850  TIP3      H1             26.4629860896      -48.6243254403      -42.6723922979  TIP3      9450            0.0000000000
     78182      9850  TIP3      H2             27.5918473229      -48.3544458344      -41.6691340260  TIP3      9450            0.0000000000
     78183      9851  TIP3      OH2            29.8690113225      -46.3002777800      -24.3272030779  TIP3      9451            0.0000000000
     78184      9851  TIP3      H1             30.8294885397      -46.2891927955      -24.4011873656  TIP3      9451            0.0000000000
     78185      9851  TIP3      H2             29.6993909283      -47.0603715248      -23.7410487349  TIP3      9451            0.0000000000
     78186      9852  TIP3      OH2            35.8865132621      -46.0410690686       42.7728741859  TIP3      9452            0.0000000000
     78187      9852  TIP3      H1             35.7286704110      -46.5136832675       41.9314219752  TIP3      9452            0.0000000000
     78188      9852  TIP3      H2             36.0429035612      -45.1313914179       42.4967728290  TIP3      9452            0.0000000000
     78189      9853  TIP3      OH2            25.1956818903      -51.4683373074      -26.5595525814  TIP3      9453            0.0000000000
     78190      9853  TIP3      H1             25.3316704196      -52.1897468281      -27.1909516579  TIP3      9453            0.0000000000
     78191      9853  TIP3      H2             25.1764429166      -50.6699703893      -27.1264115935  TIP3      9453            0.0000000000
     78192      9854  TIP3      OH2            25.6077947044      -53.1089383517      -29.0526853217  TIP3      9454            0.0000000000
     78193      9854  TIP3      H1             26.1327091247      -52.6292417992      -29.7367721759  TIP3      9454            0.0000000000
     78194      9854  TIP3      H2             24.7234066538      -53.1856522636      -29.4772332999  TIP3      9454            0.0000000000
     78195      9855  TIP3      OH2            27.1644384320      -47.6412573732      -28.8132821476  TIP3      9455            0.0000000000
     78196      9855  TIP3      H1             27.9208616750      -47.7951125714      -29.3883756887  TIP3      9455            0.0000000000
     78197      9855  TIP3      H2             26.8186999550      -46.7860762812      -29.1102248997  TIP3      9455            0.0000000000
     78198      9856  TIP3      OH2            31.5651943897      -49.8382458809      -23.8279233951  TIP3      9456            0.0000000000
     78199      9856  TIP3      H1             31.7904917055      -50.7690054569      -23.8920909460  TIP3      9456            0.0000000000
     78200      9856  TIP3      H2             32.4428505117      -49.4102747270      -23.8049848576  TIP3      9456            0.0000000000
     78201      9857  TIP3      OH2            32.8953033986      -47.0526658040      -25.6965987055  TIP3      9457            0.0000000000
     78202      9857  TIP3      H1             32.6325177387      -46.3301401783      -26.3098196917  TIP3      9457            0.0000000000
     78203      9857  TIP3      H2             33.8544235795      -47.1108319721      -25.8800794637  TIP3      9457            0.0000000000
     78204      9858  TIP3      OH2            23.6626248136      -50.2388260504      -24.6370562093  TIP3      9458            0.0000000000
     78205      9858  TIP3      H1             22.8972035307      -50.8010046972      -24.8480995589  TIP3      9458            0.0000000000
     78206      9858  TIP3      H2             24.3373774855      -50.5780810866      -25.2486924590  TIP3      9458            0.0000000000
     78207      9859  TIP3      OH2            26.4078699970      -55.6584828322      -28.6285308445  TIP3      9459            0.0000000000
     78208      9859  TIP3      H1             26.2757981954      -54.6880841447      -28.7423802107  TIP3      9459            0.0000000000
     78209      9859  TIP3      H2             25.6437303553      -56.0077527053      -29.1224521075  TIP3      9459            0.0000000000
     78210      9860  TIP3      OH2            27.6830447238      -51.3418948044      -25.0663225637  TIP3      9460            0.0000000000
     78211      9860  TIP3      H1             27.4006807735      -51.5300908333      -24.1485572082  TIP3      9460            0.0000000000
     78212      9860  TIP3      H2             26.8669841588      -51.5136348435      -25.5692043257  TIP3      9460            0.0000000000
     78213      9861  TIP3      OH2            30.3841223714      -52.1978622941      -25.9924243636  TIP3      9461            0.0000000000
     78214      9861  TIP3      H1             29.4211064350      -52.1505579668      -25.8431443652  TIP3      9461            0.0000000000
     78215      9861  TIP3      H2             30.6799176387      -52.8169412442      -25.3060123416  TIP3      9461            0.0000000000
     78216      9862  TIP3      OH2            31.9787394900      -53.5450437540      -23.9973653325  TIP3      9462            0.0000000000
     78217      9862  TIP3      H1             31.9199556869      -54.5187622919      -24.0067436244  TIP3      9462            0.0000000000
     78218      9862  TIP3      H2             31.6893262890      -53.2816370298      -23.1238709585  TIP3      9462            0.0000000000
     78219      9863  TIP3      OH2            21.8153093570      -52.3177654470      -24.9476910504  TIP3      9463            0.0000000000
     78220      9863  TIP3      H1             22.0403412367      -53.0518575176      -25.5500699148  TIP3      9463            0.0000000000
     78221      9863  TIP3      H2             21.7271853247      -52.7715545366      -24.0912804786  TIP3      9463            0.0000000000
     78222      9864  TIP3      OH2            26.5855690983       56.5219675234      -25.9454041496  TIP3      9464            0.0000000000
     78223      9864  TIP3      H1             27.3209813910       55.8686274980      -25.9819554888  TIP3      9464            0.0000000000
     78224      9864  TIP3      H2             26.5212741762       56.7487980870      -26.8884100903  TIP3      9464            0.0000000000
     78225      9865  TIP3      OH2            26.9956182839      -54.6520494844      -23.8823052536  TIP3      9465            0.0000000000
     78226      9865  TIP3      H1             26.8301252518      -55.1462123288      -24.7158136273  TIP3      9465            0.0000000000
     78227      9865  TIP3      H2             26.3781130922      -53.8964370188      -23.9531628222  TIP3      9465            0.0000000000
     78228      9866  TIP3      OH2            26.4841418442      -37.7655887609      -40.7336293658  TIP3      9466            0.0000000000
     78229      9866  TIP3      H1             27.4482692259      -37.6254848713      -40.5917605203  TIP3      9466            0.0000000000
     78230      9866  TIP3      H2             26.2654283071      -37.0864398118      -41.3672314218  TIP3      9466            0.0000000000
     78231      9867  TIP3      OH2            20.0518482474      -43.1404256691      -41.2232611437  TIP3      9467            0.0000000000
     78232      9867  TIP3      H1             21.0051388975      -43.0607153776      -40.9789696240  TIP3      9467            0.0000000000
     78233      9867  TIP3      H2             20.0845599611      -43.7967113551      -41.9265365899  TIP3      9467            0.0000000000
     78234      9868  TIP3      OH2            18.7680291698      -37.7558294487      -36.2024368097  TIP3      9468            0.0000000000
     78235      9868  TIP3      H1             18.0767946446      -38.2366975830      -36.7040091363  TIP3      9468            0.0000000000
     78236      9868  TIP3      H2             19.0792130137      -38.4286486221      -35.5757797560  TIP3      9468            0.0000000000
     78237      9869  TIP3      OH2            19.6083332788      -39.6546616009      -34.3719427080  TIP3      9469            0.0000000000
     78238      9869  TIP3      H1             19.2647744657      -40.5393948142      -34.1789447923  TIP3      9469            0.0000000000
     78239      9869  TIP3      H2             19.8318264166      -39.3196782974      -33.4851541538  TIP3      9469            0.0000000000
     78240      9870  TIP3      OH2            37.1435563976      -38.8572533487      -31.4055953372  TIP3      9470            0.0000000000
     78241      9870  TIP3      H1             37.1521894023      -38.6731647136      -30.4507289412  TIP3      9470            0.0000000000
     78242      9870  TIP3      H2             37.8471892649      -38.2785467222      -31.7226707052  TIP3      9470            0.0000000000
     78243      9871  TIP3      OH2            36.7201432874      -39.2583943757      -28.4672815363  TIP3      9471            0.0000000000
     78244      9871  TIP3      H1             36.2371130601      -40.0294509310      -28.8404034327  TIP3      9471            0.0000000000
     78245      9871  TIP3      H2             37.2481602668      -39.6922660333      -27.7791864580  TIP3      9471            0.0000000000
     78246      9872  TIP3      OH2            36.4722898042      -45.2223790826      -38.3458851958  TIP3      9472            0.0000000000
     78247      9872  TIP3      H1             37.3303943056      -44.8135382241      -38.1705620234  TIP3      9472            0.0000000000
     78248      9872  TIP3      H2             36.4725761397      -45.9625994718      -37.6961347280  TIP3      9472            0.0000000000
     78249      9873  TIP3      OH2            36.8496292624      -47.1568283974      -36.4998334207  TIP3      9473            0.0000000000
     78250      9873  TIP3      H1             36.1121033754      -47.6610965713      -36.0920785619  TIP3      9473            0.0000000000
     78251      9873  TIP3      H2             37.4451743072      -46.9826285760      -35.7456565500  TIP3      9473            0.0000000000
     78252      9874  TIP3      OH2            36.6117118754      -44.4259240726      -31.5035004221  TIP3      9474            0.0000000000
     78253      9874  TIP3      H1             37.4409113214      -44.7774842289      -31.8675992922  TIP3      9474            0.0000000000
     78254      9874  TIP3      H2             36.7300424001      -43.4587658124      -31.6717805981  TIP3      9474            0.0000000000
     78255      9875  TIP3      OH2            35.1370774221      -41.5315357114      -29.2199881459  TIP3      9475            0.0000000000
     78256      9875  TIP3      H1             34.4527709680      -41.1909723939      -28.6213834752  TIP3      9475            0.0000000000
     78257      9875  TIP3      H2             34.5920386356      -41.9512954363      -29.9223593556  TIP3      9475            0.0000000000
     78258      9876  TIP3      OH2            37.1372342094      -47.3053307656      -40.1028147064  TIP3      9476            0.0000000000
     78259      9876  TIP3      H1             36.5842334019      -46.9307302219      -40.8147361196  TIP3      9476            0.0000000000
     78260      9876  TIP3      H2             37.0819596199      -46.6044823872      -39.4260508088  TIP3      9476            0.0000000000
     78261      9877  TIP3      OH2            35.2530673360      -50.0320999590      -41.4700532469  TIP3      9477            0.0000000000
     78262      9877  TIP3      H1             35.5806160001      -49.4260990124      -42.1625421881  TIP3      9477            0.0000000000
     78263      9877  TIP3      H2             35.3376823563      -50.8615122438      -41.9890731218  TIP3      9477            0.0000000000
     78264      9878  TIP3      OH2            34.6560968013      -48.6588507448      -35.9306633867  TIP3      9478            0.0000000000
     78265      9878  TIP3      H1             34.4996978596      -49.6149167301      -35.9491753265  TIP3      9478            0.0000000000
     78266      9878  TIP3      H2             34.3043555837      -48.4049969820      -35.0618215879  TIP3      9478            0.0000000000
     78267      9879  TIP3      OH2            19.6675191562      -46.5767604534      -31.8855553377  TIP3      9479            0.0000000000
     78268      9879  TIP3      H1             19.8662508364      -46.6624968581      -32.8441399053  TIP3      9479            0.0000000000
     78269      9879  TIP3      H2             20.5524260769      -46.7257794570      -31.4994895167  TIP3      9479            0.0000000000
     78270      9880  TIP3      OH2            35.5030680804      -46.6807189997      -26.2637849347  TIP3      9480            0.0000000000
     78271      9880  TIP3      H1             36.1021600872      -47.4427033677      -26.0823886564  TIP3      9480            0.0000000000
     78272      9880  TIP3      H2             36.1006793465      -45.9145056439      -26.2393032178  TIP3      9480            0.0000000000
     78273      9881  TIP3      OH2            37.0196879527      -48.7675111108      -25.6429517379  TIP3      9481            0.0000000000
     78274      9881  TIP3      H1             36.1347412021      -49.1906862353      -25.7335173785  TIP3      9481            0.0000000000
     78275      9881  TIP3      H2             37.5942657193      -49.5523297220      -25.6591879631  TIP3      9481            0.0000000000
     78276      9882  TIP3      OH2            34.7417243826      -52.6148409659      -42.4334794302  TIP3      9482            0.0000000000
     78277      9882  TIP3      H1             35.3429443696      -53.0334181963      -41.7919203830  TIP3      9482            0.0000000000
     78278      9882  TIP3      H2             33.8864604718      -53.0382862827      -42.2499621164  TIP3      9482            0.0000000000
     78279      9883  TIP3      OH2            34.3383092553      -51.0722713397      -37.4567952402  TIP3      9483            0.0000000000
     78280      9883  TIP3      H1             34.6431633412      -51.9982079222      -37.3394688217  TIP3      9483            0.0000000000
     78281      9883  TIP3      H2             35.1187291793      -50.6582177822      -37.8518059314  TIP3      9483            0.0000000000
     78282      9884  TIP3      OH2            34.9634765068      -50.5133493444      -32.0290558887  TIP3      9484            0.0000000000
     78283      9884  TIP3      H1             35.9168001326      -50.2969241298      -32.0492280312  TIP3      9484            0.0000000000
     78284      9884  TIP3      H2             34.7499149180      -50.3986126273      -31.0901440026  TIP3      9484            0.0000000000
     78285      9885  TIP3      OH2            35.0160356039      -49.7909621941      -29.2551421302  TIP3      9485            0.0000000000
     78286      9885  TIP3      H1             34.1489948645      -49.5073147113      -28.8886467569  TIP3      9485            0.0000000000
     78287      9885  TIP3      H2             35.4364208371      -48.9331855059      -29.4594521379  TIP3      9485            0.0000000000
     78288      9886  TIP3      OH2            19.2733506429      -51.2830534383      -25.7426764010  TIP3      9486            0.0000000000
     78289      9886  TIP3      H1             20.2146206297      -51.4696708198      -25.5412849146  TIP3      9486            0.0000000000
     78290      9886  TIP3      H2             18.8381148192      -52.0914078544      -25.4103298222  TIP3      9486            0.0000000000
     78291      9887  TIP3      OH2            37.2933285914      -55.7899218982      -23.8801381680  TIP3      9487            0.0000000000
     78292      9887  TIP3      H1             37.6407839229      -56.4302804519      -24.5154325453  TIP3      9487            0.0000000000
     78293      9887  TIP3      H2             37.4079064093      -54.9466024818      -24.3669868646  TIP3      9487            0.0000000000
     78294      9888  TIP3      OH2            34.9836205101      -53.8004226749      -37.4155516171  TIP3      9488            0.0000000000
     78295      9888  TIP3      H1             35.1664893981      -54.2619696970      -36.5741507894  TIP3      9488            0.0000000000
     78296      9888  TIP3      H2             34.3659737589      -54.4162715189      -37.8751316684  TIP3      9488            0.0000000000
     78297      9889  TIP3      OH2            20.4829900954      -52.9931345469      -32.8858793186  TIP3      9489            0.0000000000
     78298      9889  TIP3      H1             20.9496921957      -53.7967167705      -32.5815588691  TIP3      9489            0.0000000000
     78299      9889  TIP3      H2             20.9896575363      -52.2854965797      -32.4591924014  TIP3      9489            0.0000000000
     78300      9890  TIP3      OH2            18.7771755429      -50.0044134123      -31.8110171448  TIP3      9490            0.0000000000
     78301      9890  TIP3      H1             19.3193545477      -50.2224286182      -32.5984159902  TIP3      9490            0.0000000000
     78302      9890  TIP3      H2             19.1957876497      -49.1708018605      -31.5443026249  TIP3      9490            0.0000000000
     78303      9891  TIP3      OH2            36.8314334703      -53.6793226870      -25.5439202104  TIP3      9491            0.0000000000
     78304      9891  TIP3      H1             35.8917745556      -53.4069868863      -25.5936609470  TIP3      9491            0.0000000000
     78305      9891  TIP3      H2             36.8943640792      -54.2226459987      -26.3439594375  TIP3      9491            0.0000000000
     78306      9892  TIP3      OH2            36.8215852270      -53.7527227578      -40.8550213219  TIP3      9492            0.0000000000
     78307      9892  TIP3      H1             37.2534845198      -54.4612379889      -41.3614298791  TIP3      9492            0.0000000000
     78308      9892  TIP3      H2             37.5344632192      -53.0868480295      -40.8348007390  TIP3      9492            0.0000000000
     78309      9893  TIP3      OH2            19.1180820990      -53.7650383876      -37.7618352908  TIP3      9493            0.0000000000
     78310      9893  TIP3      H1             18.1906628499      -53.5242560554      -37.8836344738  TIP3      9493            0.0000000000
     78311      9893  TIP3      H2             19.5679390426      -53.2528409141      -38.4615818048  TIP3      9493            0.0000000000
     78312      9894  TIP3      OH2            33.8713669424      -38.7698818202      -35.8024982132  TIP3      9494            0.0000000000
     78313      9894  TIP3      H1             34.5498792656      -39.0976928493      -36.4206642481  TIP3      9494            0.0000000000
     78314      9894  TIP3      H2             34.4001714351      -38.2731983157      -35.1601456044  TIP3      9494            0.0000000000
     78315      9895  TIP3      OH2            19.0996082823      -55.0158144981      -29.4215116369  TIP3      9495            0.0000000000
     78316      9895  TIP3      H1             18.4223403674      -55.2516014350      -28.7676615441  TIP3      9495            0.0000000000
     78317      9895  TIP3      H2             18.6330673527      -54.3833455062      -30.0031621650  TIP3      9495            0.0000000000
     78318      9896  TIP3      OH2            21.2985957495      -41.8470669503      -25.2593558611  TIP3      9496            0.0000000000
     78319      9896  TIP3      H1             20.4645340869      -41.6544485037      -25.7286747894  TIP3      9496            0.0000000000
     78320      9896  TIP3      H2             21.0115278217      -41.9188367769      -24.3568825227  TIP3      9496            0.0000000000
     78321      9897  TIP3      OH2            24.2193906185      -40.8723087883      -29.0075917883  TIP3      9497            0.0000000000
     78322      9897  TIP3      H1             23.8384810251      -40.0296030213      -29.2936362694  TIP3      9497            0.0000000000
     78323      9897  TIP3      H2             25.1424784339      -40.7663187846      -29.3193246075  TIP3      9497            0.0000000000
     78324      9898  TIP3      OH2            28.5372790421      -39.4532162552      -26.0843604331  TIP3      9498            0.0000000000
     78325      9898  TIP3      H1             28.7191566925      -39.7865138094      -25.1668677106  TIP3      9498            0.0000000000
     78326      9898  TIP3      H2             29.4188892519      -39.1432771204      -26.3639917506  TIP3      9498            0.0000000000
     78327      9899  TIP3      OH2            30.8503862441      -38.1737472834      -26.8059601222  TIP3      9499            0.0000000000
     78328      9899  TIP3      H1             31.5659748872      -38.7883963938      -27.0435226160  TIP3      9499            0.0000000000
     78329      9899  TIP3      H2             31.2155345050      -37.7608325679      -25.9935967918  TIP3      9499            0.0000000000
     78330      9900  TIP3      OH2            35.8046404309      -55.5440219121      -27.6997695803  TIP3      9500            0.0000000000
     78331      9900  TIP3      H1             34.9903054839      -55.2412324569      -28.1165821043  TIP3      9500            0.0000000000
     78332      9900  TIP3      H2             36.0357520966      -56.3439740507      -28.2390112109  TIP3      9500            0.0000000000
     78333      9901  TIP3      OH2            21.6445414494      -37.6161442592      -28.9848322551  TIP3      9501            0.0000000000
     78334      9901  TIP3      H1             20.9092440767      -37.1449762436      -29.4117198539  TIP3      9501            0.0000000000
     78335      9901  TIP3      H2             21.2883284606      -37.8384100389      -28.1112590646  TIP3      9501            0.0000000000
     78336      9902  TIP3      OH2            24.1161593061      -38.0297395512      -29.9331165311  TIP3      9502            0.0000000000
     78337      9902  TIP3      H1             23.2209709652      -37.9166509621      -29.5343422423  TIP3      9502            0.0000000000
     78338      9902  TIP3      H2             24.0435709754      -37.4509598556      -30.7185542324  TIP3      9502            0.0000000000
     78339      9903  TIP3      OH2            28.8142747029      -38.1279973990      -30.7650591029  TIP3      9503            0.0000000000
     78340      9903  TIP3      H1             28.3508021920      -37.5807407408      -31.4178864477  TIP3      9503            0.0000000000
     78341      9903  TIP3      H2             28.9649688387      -37.4983458520      -30.0297920353  TIP3      9503            0.0000000000
     78342      9904  TIP3      OH2            31.1337994712      -39.2783344986      -29.7886428230  TIP3      9504            0.0000000000
     78343      9904  TIP3      H1             30.2397331529      -39.0559983507      -30.0940757123  TIP3      9504            0.0000000000
     78344      9904  TIP3      H2             31.5716580957      -38.4127444102      -29.8694059855  TIP3      9504            0.0000000000
     78345      9905  TIP3      OH2            33.7178466213      -37.7128034222      -29.5072546848  TIP3      9505            0.0000000000
     78346      9905  TIP3      H1             33.5863954275      -36.7581940441      -29.7408379154  TIP3      9505            0.0000000000
     78347      9905  TIP3      H2             33.9126896464      -38.0881582132      -30.3851659323  TIP3      9505            0.0000000000
     78348      9906  TIP3      OH2            21.0595959048      -38.9711019304      -32.0662503406  TIP3      9506            0.0000000000
     78349      9906  TIP3      H1             21.0214434263      -39.4190465381      -31.1938168222  TIP3      9506            0.0000000000
     78350      9906  TIP3      H2             21.8819622472      -39.3202172368      -32.4646208601  TIP3      9506            0.0000000000
     78351      9907  TIP3      OH2            23.1822200916      -40.2649470006      -33.4228618704  TIP3      9507            0.0000000000
     78352      9907  TIP3      H1             22.9785440115      -41.1926649784      -33.2074777831  TIP3      9507            0.0000000000
     78353      9907  TIP3      H2             24.0223909932      -40.1216806037      -32.9370820221  TIP3      9507            0.0000000000
     78354      9908  TIP3      OH2            25.7452328143      -39.7847799490      -32.5553917298  TIP3      9508            0.0000000000
     78355      9908  TIP3      H1             25.9305717325      -40.6962266500      -32.8166366866  TIP3      9508            0.0000000000
     78356      9908  TIP3      H2             25.8008322860      -39.8334774772      -31.5879787859  TIP3      9508            0.0000000000
     78357      9909  TIP3      OH2            29.2237903990      -54.1209007387      -33.4080620914  TIP3      9509            0.0000000000
     78358      9909  TIP3      H1             28.5599844046      -54.7812125907      -33.1515197013  TIP3      9509            0.0000000000
     78359      9909  TIP3      H2             29.7973752689      -54.6336332876      -33.9951724572  TIP3      9509            0.0000000000
     78360      9910  TIP3      OH2            34.3654345249      -56.0505810894      -33.3155797381  TIP3      9510            0.0000000000
     78361      9910  TIP3      H1             34.9874387483      -55.4755543292      -33.8184279679  TIP3      9510            0.0000000000
     78362      9910  TIP3      H2             33.4849390409      -55.7073804948      -33.5465410989  TIP3      9510            0.0000000000
     78363      9911  TIP3      OH2            36.0841412740      -54.8710895177      -35.0164049997  TIP3      9511            0.0000000000
     78364      9911  TIP3      H1             36.7275759272      -55.4139228333      -35.4928892247  TIP3      9511            0.0000000000
     78365      9911  TIP3      H2             36.5187865753      -53.9920055292      -34.9436702689  TIP3      9511            0.0000000000
     78366      9912  TIP3      OH2            21.5618535602      -55.4532809394      -35.5735938494  TIP3      9512            0.0000000000
     78367      9912  TIP3      H1             20.7861782900      -55.7230292324      -36.0878436769  TIP3      9512            0.0000000000
     78368      9912  TIP3      H2             22.0751376172      -56.2979716328      -35.5917737241  TIP3      9512            0.0000000000
     78369      9913  TIP3      OH2            20.4031380212      -55.7167333239      -39.7889390596  TIP3      9513            0.0000000000
     78370      9913  TIP3      H1             20.8426645027      -55.0763195057      -40.3843572316  TIP3      9513            0.0000000000
     78371      9913  TIP3      H2             19.7712349439      -55.1616348469      -39.3028407536  TIP3      9513            0.0000000000
     78372      9914  TIP3      OH2            26.1020608087      -55.5751713816      -35.7613044329  TIP3      9514            0.0000000000
     78373      9914  TIP3      H1             27.0033565101      -55.2069112264      -35.8102090165  TIP3      9514            0.0000000000
     78374      9914  TIP3      H2             26.0179927045      -55.7896368405      -34.8322607099  TIP3      9514            0.0000000000
     78375      9915  TIP3      OH2            31.7584256757      -55.5106281874      -34.1342157395  TIP3      9515            0.0000000000
     78376      9915  TIP3      H1             31.7716023908      -55.4501262140      -35.0897879050  TIP3      9515            0.0000000000
     78377      9915  TIP3      H2             31.4187240085      -56.4334081500      -34.0016295491  TIP3      9515            0.0000000000
     78378      9916  TIP3      OH2            33.0864890938      -55.4966754436      -38.4646009674  TIP3      9516            0.0000000000
     78379      9916  TIP3      H1             32.3403291946      -54.9163277312      -38.6461504336  TIP3      9516            0.0000000000
     78380      9916  TIP3      H2             32.6141812185      -56.3482870955      -38.2874282641  TIP3      9516            0.0000000000
     78381      9917  TIP3      OH2            20.3069184983      -39.7810923039      -38.8492437933  TIP3      9517            0.0000000000
     78382      9917  TIP3      H1             19.6146975171      -39.7860026711      -39.5418521699  TIP3      9517            0.0000000000
     78383      9917  TIP3      H2             20.2995156401      -38.8391816152      -38.6241126000  TIP3      9517            0.0000000000
     78384      9918  TIP3      OH2            22.2324596829      -53.8344302906      -41.3295823813  TIP3      9518            0.0000000000
     78385      9918  TIP3      H1             22.7489110797      -54.4257764244      -41.8704166036  TIP3      9518            0.0000000000
     78386      9918  TIP3      H2             22.8788379477      -53.4844287561      -40.6870431724  TIP3      9518            0.0000000000
     78387      9919  TIP3      OH2            27.2439362124      -53.5307392294      -38.9074693368  TIP3      9519            0.0000000000
     78388      9919  TIP3      H1             27.4750402244      -54.1298709950      -38.1817139426  TIP3      9519            0.0000000000
     78389      9919  TIP3      H2             27.2564187767      -52.6663047064      -38.4211939656  TIP3      9519            0.0000000000
     78390      9920  TIP3      OH2            29.1319414125      -38.3654455069      -40.3963378678  TIP3      9520            0.0000000000
     78391      9920  TIP3      H1             30.0567922041      -38.2013902523      -40.6472483485  TIP3      9520            0.0000000000
     78392      9920  TIP3      H2             28.9429300054      -38.9403656749      -41.1973462267  TIP3      9520            0.0000000000
     78393      9921  TIP3      OH2            35.8781124256      -38.9771261871      -37.7756359095  TIP3      9521            0.0000000000
     78394      9921  TIP3      H1             35.6679648546      -39.7459533929      -38.3623326779  TIP3      9521            0.0000000000
     78395      9921  TIP3      H2             35.8090845244      -38.2316325076      -38.3986331545  TIP3      9521            0.0000000000
     78396      9922  TIP3      OH2            21.5008101865      -54.9482275834      -26.0894896834  TIP3      9522            0.0000000000
     78397      9922  TIP3      H1             21.1382827927      -55.7515909934      -25.6584388820  TIP3      9522            0.0000000000
     78398      9922  TIP3      H2             22.4265696328      -54.9841943736      -25.7615976210  TIP3      9522            0.0000000000
     78399      9923  TIP3      OH2            23.5023820951      -55.6020822741      -24.5026396952  TIP3      9523            0.0000000000
     78400      9923  TIP3      H1             24.3979524017      -55.9132342332      -24.7165688707  TIP3      9523            0.0000000000
     78401      9923  TIP3      H2             23.1214224628      -56.3906468657      -24.0634149250  TIP3      9523            0.0000000000
     78402      9924  TIP3      OH2            22.1189418601      -38.8281007204      -41.8640558894  TIP3      9524            0.0000000000
     78403      9924  TIP3      H1             21.8413827440      -38.5495608645      -40.9812895937  TIP3      9524            0.0000000000
     78404      9924  TIP3      H2             22.8833747514      -39.3791464113      -41.7021193218  TIP3      9524            0.0000000000
     78405      9925  TIP3      OH2            31.9141193713       56.5447145381      -24.3550577571  TIP3      9525            0.0000000000
     78406      9925  TIP3      H1             31.9880296638       56.0965753159      -23.4854148652  TIP3      9525            0.0000000000
     78407      9925  TIP3      H2             32.8199527110       56.5428436578      -24.6826425258  TIP3      9525            0.0000000000
     78408      9926  TIP3      OH2            35.0993537593      -40.2522544187      -25.6434832844  TIP3      9526            0.0000000000
     78409      9926  TIP3      H1             34.3003602046      -40.3935902602      -26.1969065093  TIP3      9526            0.0000000000
     78410      9926  TIP3      H2             35.0088633571      -39.2899680091      -25.4582037714  TIP3      9526            0.0000000000
     78411      9927  TIP3      OH2            49.5006450345      -46.3612248113      -35.6379041958  TIP3      9527            0.0000000000
     78412      9927  TIP3      H1             49.5758874651      -45.3877291414      -35.7570352343  TIP3      9527            0.0000000000
     78413      9927  TIP3      H2             48.8441369284      -46.6102875699      -36.3003113742  TIP3      9527            0.0000000000
     78414      9928  TIP3      OH2            48.4305841463      -47.0947140708      -32.1981506608  TIP3      9528            0.0000000000
     78415      9928  TIP3      H1             48.3821964865      -47.7439938774      -31.4906187591  TIP3      9528            0.0000000000
     78416      9928  TIP3      H2             48.0835934464      -47.5754821167      -32.9659638385  TIP3      9528            0.0000000000
     78417      9929  TIP3      OH2            41.2306527180      -47.6280838113      -30.6776342246  TIP3      9529            0.0000000000
     78418      9929  TIP3      H1             40.9820059746      -48.1139527078      -29.8521116632  TIP3      9529            0.0000000000
     78419      9929  TIP3      H2             41.6263363654      -46.7845165567      -30.3511680074  TIP3      9529            0.0000000000
     78420      9930  TIP3      OH2            52.0998574842      -44.1343454631      -33.9031185572  TIP3      9530            0.0000000000
     78421      9930  TIP3      H1             51.7045172604      -44.8754673528      -33.4440838246  TIP3      9530            0.0000000000
     78422      9930  TIP3      H2             52.1181993724      -43.4302351677      -33.2506137314  TIP3      9530            0.0000000000
     78423      9931  TIP3      OH2            41.6933474358      -43.0017733978      -32.1018698944  TIP3      9531            0.0000000000
     78424      9931  TIP3      H1             41.3739481666      -43.8446296344      -32.4578180826  TIP3      9531            0.0000000000
     78425      9931  TIP3      H2             42.6583483809      -43.1925700488      -32.0427835871  TIP3      9531            0.0000000000
     78426      9932  TIP3      OH2            38.3400945052      -49.3993219421      -36.6694435841  TIP3      9532            0.0000000000
     78427      9932  TIP3      H1             37.8835695142      -48.5314275247      -36.7091602728  TIP3      9532            0.0000000000
     78428      9932  TIP3      H2             37.7610454311      -49.9500309918      -37.2163553097  TIP3      9532            0.0000000000
     78429      9933  TIP3      OH2            39.0434386500      -47.1939986603      -34.5206541462  TIP3      9533            0.0000000000
     78430      9933  TIP3      H1             39.2822703924      -48.0131715740      -34.0633711492  TIP3      9533            0.0000000000
     78431      9933  TIP3      H2             39.7609799465      -47.1100307614      -35.1773593170  TIP3      9533            0.0000000000
     78432      9934  TIP3      OH2            49.2240629481      -39.0162476595      -33.6853980810  TIP3      9534            0.0000000000
     78433      9934  TIP3      H1             49.8666096764      -39.7204843583      -33.9605976351  TIP3      9534            0.0000000000
     78434      9934  TIP3      H2             49.0278949742      -39.2943062272      -32.7917942856  TIP3      9534            0.0000000000
     78435      9935  TIP3      OH2            46.8269671601      -44.6551936725      -31.8024651644  TIP3      9535            0.0000000000
     78436      9935  TIP3      H1             47.1266624966      -45.3508910609      -32.3917841593  TIP3      9535            0.0000000000
     78437      9935  TIP3      H2             47.5605167977      -44.5475269684      -31.1862623717  TIP3      9535            0.0000000000
     78438      9936  TIP3      OH2            55.4576590724      -53.0390341151      -30.9616049888  TIP3      9536            0.0000000000
     78439      9936  TIP3      H1             55.5609726946      -52.4026325256      -30.1984461555  TIP3      9536            0.0000000000
     78440      9936  TIP3      H2             55.9376023554      -52.5584111156      -31.6660208948  TIP3      9536            0.0000000000
     78441      9937  TIP3      OH2            49.9593439507      -50.2321020210      -31.4311612296  TIP3      9537            0.0000000000
     78442      9937  TIP3      H1             50.0943671456      -51.1975437794      -31.4392867401  TIP3      9537            0.0000000000
     78443      9937  TIP3      H2             49.8501294772      -50.0764635520      -32.3936767698  TIP3      9537            0.0000000000
     78444      9938  TIP3      OH2            43.0949083385      -52.1577002178      -34.1893184772  TIP3      9538            0.0000000000
     78445      9938  TIP3      H1             43.1574625826      -51.2979721530      -34.6410385103  TIP3      9538            0.0000000000
     78446      9938  TIP3      H2             42.6587865754      -52.7237531916      -34.8627335769  TIP3      9538            0.0000000000
     78447      9939  TIP3      OH2            50.8361876165      -52.1185472480      -35.8735418577  TIP3      9539            0.0000000000
     78448      9939  TIP3      H1             51.4786868377      -52.3434928564      -35.1518886769  TIP3      9539            0.0000000000
     78449      9939  TIP3      H2             51.3678268698      -51.4707051420      -36.3888836623  TIP3      9539            0.0000000000
     78450      9940  TIP3      OH2            39.7059165080      -49.7292832839      -33.4306165011  TIP3      9540            0.0000000000
     78451      9940  TIP3      H1             40.3829365139      -50.3164222409      -33.0188219184  TIP3      9540            0.0000000000
     78452      9940  TIP3      H2             39.7709451338      -50.0454720360      -34.3564742218  TIP3      9540            0.0000000000
     78453      9941  TIP3      OH2            44.8871332116      -48.1966263798      -34.2091740635  TIP3      9541            0.0000000000
     78454      9941  TIP3      H1             45.5074073243      -48.7566653680      -33.7181394043  TIP3      9541            0.0000000000
     78455      9941  TIP3      H2             44.3103089403      -48.8623010052      -34.6335404389  TIP3      9541            0.0000000000
     78456      9942  TIP3      OH2            55.8752918464      -51.6051742115      -28.7239803069  TIP3      9542            0.0000000000
     78457      9942  TIP3      H1             55.2009057619      -50.9036483181      -28.8129197032  TIP3      9542            0.0000000000
     78458      9942  TIP3      H2             55.8806527240      -51.7616752102      -27.7605303977  TIP3      9542            0.0000000000
     78459      9943  TIP3      OH2            41.9515152084      -53.2672796473      -30.1409289460  TIP3      9543            0.0000000000
     78460      9943  TIP3      H1             41.6974307412      -52.7044749718      -30.8986764795  TIP3      9543            0.0000000000
     78461      9943  TIP3      H2             41.2651407645      -53.0119236397      -29.4720371036  TIP3      9543            0.0000000000
     78462      9944  TIP3      OH2            49.2630666252      -43.7554910508      -36.5866702111  TIP3      9544            0.0000000000
     78463      9944  TIP3      H1             49.0002375646      -44.0705040727      -37.4574634628  TIP3      9544            0.0000000000
     78464      9944  TIP3      H2             48.9673065480      -42.8305562347      -36.5500345213  TIP3      9544            0.0000000000
     78465      9945  TIP3      OH2            44.5414980794      -44.4983397986      -30.4373763191  TIP3      9545            0.0000000000
     78466      9945  TIP3      H1             43.8566728642      -44.9178695377      -29.7893368212  TIP3      9545            0.0000000000
     78467      9945  TIP3      H2             45.2563013207      -45.0607778790      -30.1474343857  TIP3      9545            0.0000000000
     78468      9946  TIP3      OH2            52.6331126900      -52.7603967532      -33.8522178015  TIP3      9546            0.0000000000
     78469      9946  TIP3      H1             52.3739514693      -53.4813450144      -33.2730027706  TIP3      9546            0.0000000000
     78470      9946  TIP3      H2             53.2581555547      -52.2588529262      -33.2976295010  TIP3      9546            0.0000000000
     78471      9947  TIP3      OH2            41.4953943026      -51.3545486241      -32.1697515688  TIP3      9547            0.0000000000
     78472      9947  TIP3      H1             42.1561275859      -50.7166571919      -31.8090333366  TIP3      9547            0.0000000000
     78473      9947  TIP3      H2             42.0434021466      -51.8252249820      -32.8458193915  TIP3      9547            0.0000000000
     78474      9948  TIP3      OH2            42.8532563202      -43.5630254978      -28.9670540261  TIP3      9548            0.0000000000
     78475      9948  TIP3      H1             42.8761622332      -42.7092586790      -29.4351310289  TIP3      9548            0.0000000000
     78476      9948  TIP3      H2             41.9747552596      -43.6686567449      -28.6083037037  TIP3      9548            0.0000000000
     78477      9949  TIP3      OH2            39.0134789582      -43.9671622039      -38.2800536135  TIP3      9549            0.0000000000
     78478      9949  TIP3      H1             38.7582448901      -43.6817683152      -39.1773475297  TIP3      9549            0.0000000000
     78479      9949  TIP3      H2             39.0684196162      -43.1112460921      -37.8007774141  TIP3      9549            0.0000000000
     78480      9950  TIP3      OH2            52.6360949909      -42.3233815740      -31.5316301072  TIP3      9550            0.0000000000
     78481      9950  TIP3      H1             51.6682095435      -42.2327094947      -31.4059823065  TIP3      9550            0.0000000000
     78482      9950  TIP3      H2             52.9131738648      -41.4025349281      -31.7104666605  TIP3      9550            0.0000000000
     78483      9951  TIP3      OH2            52.9712776377      -54.0535157795      -30.1492492136  TIP3      9551            0.0000000000
     78484      9951  TIP3      H1             52.2081123532      -53.4270187546      -30.1852487603  TIP3      9551            0.0000000000
     78485      9951  TIP3      H2             53.6037717700      -53.5316993583      -30.6482611755  TIP3      9551            0.0000000000
     78486      9952  TIP3      OH2            45.9575765326      -55.9140088641      -32.6949592518  TIP3      9552            0.0000000000
     78487      9952  TIP3      H1             45.8224663449      -56.8855379941      -32.7447905369  TIP3      9552            0.0000000000
     78488      9952  TIP3      H2             45.0770004837      -55.6169190375      -32.3993953504  TIP3      9552            0.0000000000
     78489      9953  TIP3      OH2            50.8896356286      -40.5310050562      -34.9303558058  TIP3      9553            0.0000000000
     78490      9953  TIP3      H1             51.3272028707      -41.2530186098      -35.4370437342  TIP3      9553            0.0000000000
     78491      9953  TIP3      H2             51.2613881616      -39.7312406028      -35.3527027870  TIP3      9553            0.0000000000
     78492      9954  TIP3      OH2            52.0443619451      -42.5903341604      -36.4308334187  TIP3      9554            0.0000000000
     78493      9954  TIP3      H1             51.8242757388      -43.3264653692      -37.0348269297  TIP3      9554            0.0000000000
     78494      9954  TIP3      H2             52.1445384498      -43.1014733383      -35.5967420247  TIP3      9554            0.0000000000
     78495      9955  TIP3      OH2            53.7323303787      -44.0627867223      -27.9393382374  TIP3      9555            0.0000000000
     78496      9955  TIP3      H1             53.8749987182      -44.6497599935      -28.7031213080  TIP3      9555            0.0000000000
     78497      9955  TIP3      H2             53.9183691037      -43.1828537319      -28.3268235446  TIP3      9555            0.0000000000
     78498      9956  TIP3      OH2            48.2111436217      -47.1051018245      -38.1642155758  TIP3      9556            0.0000000000
     78499      9956  TIP3      H1             47.5038509995      -46.5577125526      -38.5504569698  TIP3      9556            0.0000000000
     78500      9956  TIP3      H2             48.9167310860      -47.0432162577      -38.8403498981  TIP3      9556            0.0000000000
     78501      9957  TIP3      OH2            48.2562037575      -48.6212535034      -41.1259162428  TIP3      9557            0.0000000000
     78502      9957  TIP3      H1             48.9786118592      -48.6134498734      -40.4806399031  TIP3      9557            0.0000000000
     78503      9957  TIP3      H2             48.5771524657      -49.2612044427      -41.7717807683  TIP3      9557            0.0000000000
     78504      9958  TIP3      OH2            55.5396415998      -47.7453710983      -29.8875254201  TIP3      9558            0.0000000000
     78505      9958  TIP3      H1             54.9358647421      -46.9898957760      -29.8290203392  TIP3      9558            0.0000000000
     78506      9958  TIP3      H2             56.0549807401      -47.4927963477      -30.6936258342  TIP3      9558            0.0000000000
     78507      9959  TIP3      OH2            51.5569630852      -46.9627754728      -37.2793393496  TIP3      9559            0.0000000000
     78508      9959  TIP3      H1             50.8963743995      -46.6517026776      -36.6281363256  TIP3      9559            0.0000000000
     78509      9959  TIP3      H2             52.1124055893      -47.5707077359      -36.7486849661  TIP3      9559            0.0000000000
     78510      9960  TIP3      OH2            51.5450792428      -48.7451340965      -28.1624109590  TIP3      9560            0.0000000000
     78511      9960  TIP3      H1             51.4635982184      -47.9571375642      -27.6076850928  TIP3      9560            0.0000000000
     78512      9960  TIP3      H2             50.9021125688      -48.4611139526      -28.8565493415  TIP3      9560            0.0000000000
     78513      9961  TIP3      OH2            43.2670123614      -46.2450248687      -35.3342191916  TIP3      9561            0.0000000000
     78514      9961  TIP3      H1             42.9359211109      -46.6450505794      -36.1709475139  TIP3      9561            0.0000000000
     78515      9961  TIP3      H2             43.8697878408      -46.9439787475      -34.9885918613  TIP3      9561            0.0000000000
     78516      9962  TIP3      OH2            44.6223757071      -42.8006420275      -32.6900973297  TIP3      9562            0.0000000000
     78517      9962  TIP3      H1             44.5535901418      -43.4201065980      -33.4220394517  TIP3      9562            0.0000000000
     78518      9962  TIP3      H2             45.3423750687      -43.2266562673      -32.1653897087  TIP3      9562            0.0000000000
     78519      9963  TIP3      OH2            43.6029624941      -47.5243160984      -31.8418807620  TIP3      9563            0.0000000000
     78520      9963  TIP3      H1             44.2381128615      -47.3653296150      -32.5202026939  TIP3      9563            0.0000000000
     78521      9963  TIP3      H2             43.9246480005      -46.9101915375      -31.1134154980  TIP3      9563            0.0000000000
     78522      9964  TIP3      OH2            49.9690200370      -41.9550374205      -30.9868816927  TIP3      9564            0.0000000000
     78523      9964  TIP3      H1             49.7073528020      -41.3205648890      -30.3186531493  TIP3      9564            0.0000000000
     78524      9964  TIP3      H2             49.7427500241      -42.8147497009      -30.5462829112  TIP3      9564            0.0000000000
     78525      9965  TIP3      OH2            44.5349565005      -43.0873734515      -26.9548320251  TIP3      9565            0.0000000000
     78526      9965  TIP3      H1             44.1673894655      -42.3016269218      -26.5362495630  TIP3      9565            0.0000000000
     78527      9965  TIP3      H2             43.8716070211      -43.2724446214      -27.6822273142  TIP3      9565            0.0000000000
     78528      9966  TIP3      OH2            50.4931873516      -47.7452879210      -39.5698100678  TIP3      9566            0.0000000000
     78529      9966  TIP3      H1             51.0705062012      -47.5550211753      -38.7797473649  TIP3      9566            0.0000000000
     78530      9966  TIP3      H2             50.9239684101      -47.2267679069      -40.2713143091  TIP3      9566            0.0000000000
     78531      9967  TIP3      OH2            41.3967856742      -46.9391715521      -27.7619685090  TIP3      9567            0.0000000000
     78532      9967  TIP3      H1             41.5288437039      -46.2436289473      -27.0831431047  TIP3      9567            0.0000000000
     78533      9967  TIP3      H2             40.5227598642      -46.7806221795      -28.0539786864  TIP3      9567            0.0000000000
     78534      9968  TIP3      OH2            48.2264560552      -40.9882570549      -36.1212326214  TIP3      9568            0.0000000000
     78535      9968  TIP3      H1             48.6869460678      -40.6981878678      -35.3173934181  TIP3      9568            0.0000000000
     78536      9968  TIP3      H2             47.6664341865      -40.2439636446      -36.3252620139  TIP3      9568            0.0000000000
     78537      9969  TIP3      OH2            42.7757523539      -41.0284528033      -26.2095786575  TIP3      9569            0.0000000000
     78538      9969  TIP3      H1             42.7501827628      -41.1483450618      -27.1815873970  TIP3      9569            0.0000000000
     78539      9969  TIP3      H2             41.8317812988      -41.1454457454      -25.9843721361  TIP3      9569            0.0000000000
     78540      9970  TIP3      OH2            54.1945278345      -55.9488471215      -39.6811639562  TIP3      9570            0.0000000000
     78541      9970  TIP3      H1             53.2642950734      -55.8105181662      -39.4911428723  TIP3      9570            0.0000000000
     78542      9970  TIP3      H2             54.4682008825      -55.1261640562      -40.1368055317  TIP3      9570            0.0000000000
     78543      9971  TIP3      OH2            42.2522125976      -47.2101091118      -37.7316761375  TIP3      9571            0.0000000000
     78544      9971  TIP3      H1             41.9592932197      -46.4314332672      -38.2518921907  TIP3      9571            0.0000000000
     78545      9971  TIP3      H2             41.5815142126      -47.8668353026      -37.9329700310  TIP3      9571            0.0000000000
     78546      9972  TIP3      OH2            55.3337968569      -41.6193251740      -41.3299070384  TIP3      9572            0.0000000000
     78547      9972  TIP3      H1             55.4653595565      -40.6667375189      -41.1861091897  TIP3      9572            0.0000000000
     78548      9972  TIP3      H2             56.2696867817      -41.9151393222      -41.3947135726  TIP3      9572            0.0000000000
     78549      9973  TIP3      OH2            38.3634464941      -44.8229010416      -28.9097087698  TIP3      9573            0.0000000000
     78550      9973  TIP3      H1             37.8382117182      -44.8529166449      -29.7279777844  TIP3      9573            0.0000000000
     78551      9973  TIP3      H2             38.3589435970      -45.7447236103      -28.6039086068  TIP3      9573            0.0000000000
     78552      9974  TIP3      OH2            38.0944264414      -42.0718432971      -32.0471929389  TIP3      9574            0.0000000000
     78553      9974  TIP3      H1             39.0504062746      -42.1731620783      -32.0762458227  TIP3      9574            0.0000000000
     78554      9974  TIP3      H2             37.9962351666      -41.2615693564      -31.5275866787  TIP3      9574            0.0000000000
     78555      9975  TIP3      OH2            47.2895569933      -41.8216144610      -27.5032387507  TIP3      9575            0.0000000000
     78556      9975  TIP3      H1             47.3538177188      -40.9767156942      -27.0070756637  TIP3      9575            0.0000000000
     78557      9975  TIP3      H2             46.4113628848      -42.1632570252      -27.2563404133  TIP3      9575            0.0000000000
     78558      9976  TIP3      OH2            47.6817739968      -38.0565057841      -37.6946547850  TIP3      9576            0.0000000000
     78559      9976  TIP3      H1             47.7013398646      -38.0797762258      -38.6516838024  TIP3      9576            0.0000000000
     78560      9976  TIP3      H2             47.7458579793      -37.0885197350      -37.5365518512  TIP3      9576            0.0000000000
     78561      9977  TIP3      OH2            41.3584635003      -39.2145917473      -35.8958826069  TIP3      9577            0.0000000000
     78562      9977  TIP3      H1             41.4974497110      -39.6124346298      -35.0113424173  TIP3      9577            0.0000000000
     78563      9977  TIP3      H2             40.5031919098      -39.6077284917      -36.1413306617  TIP3      9577            0.0000000000
     78564      9978  TIP3      OH2            50.7480310459      -38.8775744301      -40.7148282159  TIP3      9578            0.0000000000
     78565      9978  TIP3      H1             51.1982336758      -39.6357090507      -41.1548700900  TIP3      9578            0.0000000000
     78566      9978  TIP3      H2             50.8191266501      -39.1460949368      -39.7774806339  TIP3      9578            0.0000000000
     78567      9979  TIP3      OH2            50.4607124529      -38.9496319100      -37.9531913352  TIP3      9579            0.0000000000
     78568      9979  TIP3      H1             49.5232860975      -38.8604135828      -37.7366853241  TIP3      9579            0.0000000000
     78569      9979  TIP3      H2             50.7472284678      -39.6657018060      -37.3592226597  TIP3      9579            0.0000000000
     78570      9980  TIP3      OH2            53.4773750278      -49.8606369323      -25.9122469665  TIP3      9580            0.0000000000
     78571      9980  TIP3      H1             52.9900366035      -49.4769391863      -26.6226210645  TIP3      9580            0.0000000000
     78572      9980  TIP3      H2             53.4891285781      -50.8064769832      -26.1861442963  TIP3      9580            0.0000000000
     78573      9981  TIP3      OH2            40.5721758705      -43.4891179431      -27.8872914903  TIP3      9581            0.0000000000
     78574      9981  TIP3      H1             40.8324585306      -43.8655905778      -27.0222912493  TIP3      9581            0.0000000000
     78575      9981  TIP3      H2             39.7272220161      -43.8906576118      -28.1043707935  TIP3      9581            0.0000000000
     78576      9982  TIP3      OH2            43.2649186222      -55.0100996759      -31.9470070234  TIP3      9582            0.0000000000
     78577      9982  TIP3      H1             42.3571639414      -55.1202090580      -32.3173856160  TIP3      9582            0.0000000000
     78578      9982  TIP3      H2             43.1810865358      -54.1725014546      -31.4656830967  TIP3      9582            0.0000000000
     78579      9983  TIP3      OH2            47.9050018123      -55.3060932861      -28.5376900627  TIP3      9583            0.0000000000
     78580      9983  TIP3      H1             48.3183756845      -55.7402572684      -27.7709543869  TIP3      9583            0.0000000000
     78581      9983  TIP3      H2             46.9414729214      -55.4844882246      -28.4099609742  TIP3      9583            0.0000000000
     78582      9984  TIP3      OH2            51.2256103260      -51.5366407233      -27.6827121502  TIP3      9584            0.0000000000
     78583      9984  TIP3      H1             50.6683809990      -51.7064767353      -26.8792373742  TIP3      9584            0.0000000000
     78584      9984  TIP3      H2             51.0292071384      -50.6273750075      -27.9247588130  TIP3      9584            0.0000000000
     78585      9985  TIP3      OH2            52.0346613204      -46.6501177628      -41.8352933926  TIP3      9585            0.0000000000
     78586      9985  TIP3      H1             52.0417133521      -46.8788686450      -42.7889067828  TIP3      9585            0.0000000000
     78587      9985  TIP3      H2             52.8891673655      -46.2482262635      -41.6907634103  TIP3      9585            0.0000000000
     78588      9986  TIP3      OH2            47.5780370093      -52.8023382445      -41.2324696872  TIP3      9586            0.0000000000
     78589      9986  TIP3      H1             47.2722672417      -52.8175043108      -40.3091842843  TIP3      9586            0.0000000000
     78590      9986  TIP3      H2             47.2798834916      -53.6698774052      -41.5347398425  TIP3      9586            0.0000000000
     78591      9987  TIP3      OH2            43.3345397907      -50.0823131794      -30.7720171726  TIP3      9587            0.0000000000
     78592      9987  TIP3      H1             42.6679646648      -50.0779609297      -30.0661408863  TIP3      9587            0.0000000000
     78593      9987  TIP3      H2             43.3481764322      -49.1293661171      -31.0397804173  TIP3      9587            0.0000000000
     78594      9988  TIP3      OH2            43.3290522561      -49.8712352642      -35.8543385417  TIP3      9588            0.0000000000
     78595      9988  TIP3      H1             42.4069720104      -50.1853388686      -35.9562451416  TIP3      9588            0.0000000000
     78596      9988  TIP3      H2             43.7441757001      -50.2246617894      -36.6637710607  TIP3      9588            0.0000000000
     78597      9989  TIP3      OH2            48.8542440746      -49.4438445713      -37.0680462752  TIP3      9589            0.0000000000
     78598      9989  TIP3      H1             48.4428783889      -48.6035560745      -37.3769854623  TIP3      9589            0.0000000000
     78599      9989  TIP3      H2             49.5631901967      -49.5637303789      -37.7196229718  TIP3      9589            0.0000000000
     78600      9990  TIP3      OH2            47.9581767347      -49.2325399397      -25.6032680840  TIP3      9590            0.0000000000
     78601      9990  TIP3      H1             47.3912208410      -49.9742347208      -25.2758211072  TIP3      9590            0.0000000000
     78602      9990  TIP3      H2             48.7755832975      -49.3736174894      -25.1068444663  TIP3      9590            0.0000000000
     78603      9991  TIP3      OH2            49.8738342795      -49.9679741516      -34.2319359837  TIP3      9591            0.0000000000
     78604      9991  TIP3      H1             49.6388521089      -49.3738341158      -34.9677076695  TIP3      9591            0.0000000000
     78605      9991  TIP3      H2             50.0157418753      -50.8055304113      -34.6947897638  TIP3      9591            0.0000000000
     78606      9992  TIP3      OH2            40.9913890034      -49.7365141625      -28.9767249538  TIP3      9592            0.0000000000
     78607      9992  TIP3      H1             41.0657450976      -49.3708375342      -28.0737680191  TIP3      9592            0.0000000000
     78608      9992  TIP3      H2             40.5821356128      -50.5990830704      -28.8150098456  TIP3      9592            0.0000000000
     78609      9993  TIP3      OH2            44.5400846765      -52.2080087512      -41.8979364557  TIP3      9593            0.0000000000
     78610      9993  TIP3      H1             44.0085968883      -52.8275288308      -41.3664295508  TIP3      9593            0.0000000000
     78611      9993  TIP3      H2             43.8627934992      -51.9198563226      -42.5319425008  TIP3      9593            0.0000000000
     78612      9994  TIP3      OH2            37.6639459081      -52.6375648152      -35.0590869880  TIP3      9594            0.0000000000
     78613      9994  TIP3      H1             38.3253119824      -52.6818154163      -34.3419141816  TIP3      9594            0.0000000000
     78614      9994  TIP3      H2             38.1249737344      -53.0532130132      -35.8118697707  TIP3      9594            0.0000000000
     78615      9995  TIP3      OH2            38.9542179240      -51.9294241520      -39.6436770450  TIP3      9595            0.0000000000
     78616      9995  TIP3      H1             39.4273821615      -51.3109084872      -40.2495604208  TIP3      9595            0.0000000000
     78617      9995  TIP3      H2             38.2430322319      -51.3359623767      -39.3167735594  TIP3      9595            0.0000000000
     78618      9996  TIP3      OH2            49.1424740125      -48.3382805050      -29.6001423740  TIP3      9596            0.0000000000
     78619      9996  TIP3      H1             49.4435315818      -49.0086114211      -30.2416291966  TIP3      9596            0.0000000000
     78620      9996  TIP3      H2             48.6427387167      -48.8771791800      -28.9510210833  TIP3      9596            0.0000000000
     78621      9997  TIP3      OH2            45.9146328709      -52.4145671962      -34.8214839921  TIP3      9597            0.0000000000
     78622      9997  TIP3      H1             44.9754213523      -52.3713489995      -34.5242085882  TIP3      9597            0.0000000000
     78623      9997  TIP3      H2             46.3934819983      -52.5029764170      -33.9845111293  TIP3      9597            0.0000000000
     78624      9998  TIP3      OH2            40.7193741320      -50.8036060901      -35.9611207572  TIP3      9598            0.0000000000
     78625      9998  TIP3      H1             39.8219486122      -50.6835579901      -36.3301871381  TIP3      9598            0.0000000000
     78626      9998  TIP3      H2             41.0118933974      -51.6500274362      -36.3344131303  TIP3      9598            0.0000000000
     78627      9999  TIP3      OH2            44.3648667280      -50.7858280252      -38.3157453033  TIP3      9599            0.0000000000
     78628      9999  TIP3      H1             45.3154523309      -50.6626690236      -38.1415785523  TIP3      9599            0.0000000000
     78629      9999  TIP3      H2             44.1427624057      -50.1153736354      -38.9861645751  TIP3      9599            0.0000000000
     78630     10000  TIP3      OH2            50.3259347234      -53.1760710169      -31.5659906969  TIP3      9600            0.0000000000
     78631     10000  TIP3      H1             49.6179547839      -53.0570901591      -30.8855593868  TIP3      9600            0.0000000000
     78632     10000  TIP3      H2             49.8003628901      -53.3649134373      -32.3487006692  TIP3      9600            0.0000000000
     78633     10001  TIP3      OH2            43.0464200527      -49.6007255578      -40.7335471394  TIP3      9601            0.0000000000
     78634     10001  TIP3      H1             42.4993394355      -49.9683906000      -41.4500438244  TIP3      9601            0.0000000000
     78635     10001  TIP3      H2             43.8784448829      -49.3995194443      -41.1903255758  TIP3      9601            0.0000000000
     78636     10002  TIP3      OH2            53.5472137996      -37.5200604492      -25.2422248030  TIP3      9602            0.0000000000
     78637     10002  TIP3      H1             53.7872360284      -37.1094730230      -26.0986992472  TIP3      9602            0.0000000000
     78638     10002  TIP3      H2             54.2347986094      -37.1699328406      -24.6678521402  TIP3      9602            0.0000000000
     78639     10003  TIP3      OH2            41.1851058521      -45.0409525019      -25.6737420045  TIP3      9603            0.0000000000
     78640     10003  TIP3      H1             41.9114326661      -44.7907746661      -25.1013155228  TIP3      9603            0.0000000000
     78641     10003  TIP3      H2             40.4001788624      -44.8730706898      -25.1193712218  TIP3      9603            0.0000000000
     78642     10004  TIP3      OH2            47.1904378746      -49.6223902403      -32.9187524504  TIP3      9604            0.0000000000
     78643     10004  TIP3      H1             47.7763804216      -50.1663088574      -33.4590304995  TIP3      9604            0.0000000000
     78644     10004  TIP3      H2             47.0533248317      -50.1618142721      -32.1290946246  TIP3      9604            0.0000000000
     78645     10005  TIP3      OH2            42.1990545012      -53.4847265045      -36.4985515534  TIP3      9605            0.0000000000
     78646     10005  TIP3      H1             41.8945014762      -54.4075705263      -36.5211204016  TIP3      9605            0.0000000000
     78647     10005  TIP3      H2             42.9908669198      -53.5172386998      -37.0495039115  TIP3      9605            0.0000000000
     78648     10006  TIP3      OH2            45.8364315607      -51.2678688046      -30.5130485220  TIP3      9606            0.0000000000
     78649     10006  TIP3      H1             44.9976537950      -50.7738672720      -30.3990245439  TIP3      9606            0.0000000000
     78650     10006  TIP3      H2             46.3714429166      -50.9566289607      -29.7563260580  TIP3      9606            0.0000000000
     78651     10007  TIP3      OH2            46.4041970061      -45.0290454731      -38.8140154151  TIP3      9607            0.0000000000
     78652     10007  TIP3      H1             45.6261997195      -45.5383063386      -39.1370748811  TIP3      9607            0.0000000000
     78653     10007  TIP3      H2             46.2239505007      -44.9851757985      -37.8548111881  TIP3      9607            0.0000000000
     78654     10008  TIP3      OH2            53.5624846542      -45.9088732590      -30.0012448750  TIP3      9608            0.0000000000
     78655     10008  TIP3      H1             54.1627026025      -45.4178209957      -30.6084548306  TIP3      9608            0.0000000000
     78656     10008  TIP3      H2             52.7185438730      -45.7892912738      -30.5010231824  TIP3      9608            0.0000000000
     78657     10009  TIP3      OH2            50.3086007077      -52.2320879445      -40.6779057083  TIP3      9609            0.0000000000
     78658     10009  TIP3      H1             49.3397743360      -52.1046876088      -40.7867988081  TIP3      9609            0.0000000000
     78659     10009  TIP3      H2             50.5746002973      -51.3555465904      -40.3296712842  TIP3      9609            0.0000000000
     78660     10010  TIP3      OH2            47.9433299145      -44.8293928651      -27.5697958155  TIP3      9610            0.0000000000
     78661     10010  TIP3      H1             47.5515733637      -45.2308470205      -26.7838548583  TIP3      9610            0.0000000000
     78662     10010  TIP3      H2             47.6732134575      -43.9081839840      -27.4997388908  TIP3      9610            0.0000000000
     78663     10011  TIP3      OH2            51.0020332820      -50.3607184806      -38.9557722414  TIP3      9611            0.0000000000
     78664     10011  TIP3      H1             51.9140215262      -50.4665535146      -38.6285364626  TIP3      9611            0.0000000000
     78665     10011  TIP3      H2             51.0544169495      -49.5441543437      -39.4906088831  TIP3      9611            0.0000000000
     78666     10012  TIP3      OH2            41.4741499787      -45.7233411274      -33.0410506834  TIP3      9612            0.0000000000
     78667     10012  TIP3      H1             42.2371805805      -45.7400521278      -33.6610046679  TIP3      9612            0.0000000000
     78668     10012  TIP3      H2             41.6183938287      -46.5579907929      -32.5646143249  TIP3      9612            0.0000000000
     78669     10013  TIP3      OH2            48.5209267317      -43.5828337341      -39.7853017546  TIP3      9613            0.0000000000
     78670     10013  TIP3      H1             48.1863187784      -42.7521931112      -39.4061561624  TIP3      9613            0.0000000000
     78671     10013  TIP3      H2             47.7883423063      -44.2104070154      -39.5878510209  TIP3      9613            0.0000000000
     78672     10014  TIP3      OH2            38.5205326894      -47.2813153624      -27.7796249938  TIP3      9614            0.0000000000
     78673     10014  TIP3      H1             38.7224263132      -47.6919048690      -26.8971022818  TIP3      9614            0.0000000000
     78674     10014  TIP3      H2             37.8716835067      -47.9032005846      -28.1341255698  TIP3      9614            0.0000000000
     78675     10015  TIP3      OH2            45.5226246738      -47.7358870317      -25.5294251090  TIP3      9615            0.0000000000
     78676     10015  TIP3      H1             45.2215244479      -47.9473713916      -26.4349219692  TIP3      9615            0.0000000000
     78677     10015  TIP3      H2             46.4627920206      -48.0018640646      -25.5571701286  TIP3      9615            0.0000000000
     78678     10016  TIP3      OH2            50.1783886799      -42.4060421041      -27.6342728607  TIP3      9616            0.0000000000
     78679     10016  TIP3      H1             49.2570088010      -42.2021098390      -27.8806845633  TIP3      9616            0.0000000000
     78680     10016  TIP3      H2             50.1789577175      -42.1051362456      -26.7058807691  TIP3      9616            0.0000000000
     78681     10017  TIP3      OH2            55.8198683197      -50.1418226275      -39.2090503774  TIP3      9617            0.0000000000
     78682     10017  TIP3      H1             55.3026968835      -50.5090476464      -39.9520001576  TIP3      9617            0.0000000000
     78683     10017  TIP3      H2             55.9700235415      -49.2242288825      -39.5385340485  TIP3      9617            0.0000000000
     78684     10018  TIP3      OH2            55.8504004824      -44.3594620038      -26.4192970860  TIP3      9618            0.0000000000
     78685     10018  TIP3      H1             54.9841737202      -44.0878525161      -26.8028915537  TIP3      9618            0.0000000000
     78686     10018  TIP3      H2             56.4249271294      -44.3454605686      -27.2023258863  TIP3      9618            0.0000000000
     78687     10019  TIP3      OH2            54.1739761827      -41.3559096822      -38.8136157595  TIP3      9619            0.0000000000
     78688     10019  TIP3      H1             53.8036087963      -42.1896635209      -38.4827261437  TIP3      9619            0.0000000000
     78689     10019  TIP3      H2             54.4664149181      -41.5617542875      -39.7170407359  TIP3      9619            0.0000000000
     78690     10020  TIP3      OH2            51.3538443289      -46.5502451974      -31.7189695923  TIP3      9620            0.0000000000
     78691     10020  TIP3      H1             50.4106616565      -46.7736343789      -31.8318504976  TIP3      9620            0.0000000000
     78692     10020  TIP3      H2             51.7899833378      -47.3129302548      -32.1474940701  TIP3      9620            0.0000000000
     78693     10021  TIP3      OH2            43.8879820114      -42.2269417496      -35.6572754488  TIP3      9621            0.0000000000
     78694     10021  TIP3      H1             44.3980851258      -41.4270870718      -35.8337860477  TIP3      9621            0.0000000000
     78695     10021  TIP3      H2             42.9975834443      -41.9894330446      -35.9471728673  TIP3      9621            0.0000000000
     78696     10022  TIP3      OH2            39.6304388103      -47.3651870989      -41.0752339039  TIP3      9622            0.0000000000
     78697     10022  TIP3      H1             40.2550814343      -46.7320469778      -40.6776536541  TIP3      9622            0.0000000000
     78698     10022  TIP3      H2             38.7635712216      -47.0519862332      -40.7763161929  TIP3      9622            0.0000000000
     78699     10023  TIP3      OH2            45.3199595528      -44.5633576115      -36.0978739785  TIP3      9623            0.0000000000
     78700     10023  TIP3      H1             45.0368020525      -43.6349060948      -36.0082401037  TIP3      9623            0.0000000000
     78701     10023  TIP3      H2             44.5718971491      -45.0257465807      -35.6668950941  TIP3      9623            0.0000000000
     78702     10024  TIP3      OH2            45.7810564729      -40.3907698311      -29.7317256574  TIP3      9624            0.0000000000
     78703     10024  TIP3      H1             46.1986200467      -39.5574094631      -29.9893420702  TIP3      9624            0.0000000000
     78704     10024  TIP3      H2             46.3684391292      -40.7033406015      -29.0212228506  TIP3      9624            0.0000000000
     78705     10025  TIP3      OH2            44.0076016650      -39.5379492294      -36.5810496932  TIP3      9625            0.0000000000
     78706     10025  TIP3      H1             43.0307156504      -39.4275753795      -36.4508947361  TIP3      9625            0.0000000000
     78707     10025  TIP3      H2             44.3350814192      -38.7097700996      -36.1782741105  TIP3      9625            0.0000000000
     78708     10026  TIP3      OH2            49.3533350376      -44.3275125604      -30.0561111493  TIP3      9626            0.0000000000
     78709     10026  TIP3      H1             48.9301558825      -44.5447617761      -29.2042998983  TIP3      9626            0.0000000000
     78710     10026  TIP3      H2             49.9422975797      -45.0657878947      -30.2476578108  TIP3      9626            0.0000000000
     78711     10027  TIP3      OH2            51.5622996202      -43.3494286946      -40.9827686740  TIP3      9627            0.0000000000
     78712     10027  TIP3      H1             51.9058991874      -43.7711580270      -40.1578313048  TIP3      9627            0.0000000000
     78713     10027  TIP3      H2             50.6130870809      -43.4865062230      -40.8783143949  TIP3      9627            0.0000000000
     78714     10028  TIP3      OH2            52.0539380115      -39.7724062789      -27.5727942897  TIP3      9628            0.0000000000
     78715     10028  TIP3      H1             51.4132522407      -40.3014518445      -28.0843742960  TIP3      9628            0.0000000000
     78716     10028  TIP3      H2             52.3007564884      -39.0835900444      -28.2242165994  TIP3      9628            0.0000000000
     78717     10029  TIP3      OH2            56.0653174581      -38.9126442243      -40.7702006482  TIP3      9629            0.0000000000
     78718     10029  TIP3      H1             56.8115694168      -38.2983628925      -40.9253026313  TIP3      9629            0.0000000000
     78719     10029  TIP3      H2             55.3650175880      -38.3088001806      -40.4474105297  TIP3      9629            0.0000000000
     78720     10030  TIP3      OH2            40.1670509340      -52.5173666373      -28.1885281105  TIP3      9630            0.0000000000
     78721     10030  TIP3      H1             39.2516544425      -52.1909803041      -28.2221728396  TIP3      9630            0.0000000000
     78722     10030  TIP3      H2             40.0433828979      -53.3805192197      -27.7581491791  TIP3      9630            0.0000000000
     78723     10031  TIP3      OH2            52.3953444088      -44.6995479823      -38.8204771410  TIP3      9631            0.0000000000
     78724     10031  TIP3      H1             52.1751541503      -45.4340280164      -38.1950047093  TIP3      9631            0.0000000000
     78725     10031  TIP3      H2             53.3287969326      -44.6032229525      -38.5145737162  TIP3      9631            0.0000000000
     78726     10032  TIP3      OH2            39.7990346881      -40.7181218492      -29.7630116289  TIP3      9632            0.0000000000
     78727     10032  TIP3      H1             40.0432956483      -41.6525187419      -29.7650437853  TIP3      9632            0.0000000000
     78728     10032  TIP3      H2             40.0449204678      -40.4528234420      -28.8675031355  TIP3      9632            0.0000000000
     78729     10033  TIP3      OH2            44.5906999433      -42.6781953457      -40.0754194077  TIP3      9633            0.0000000000
     78730     10033  TIP3      H1             44.7527132719      -43.2306738909      -39.2983204919  TIP3      9633            0.0000000000
     78731     10033  TIP3      H2             44.5809026150      -41.7739134560      -39.7437829808  TIP3      9633            0.0000000000
     78732     10034  TIP3      OH2            41.0352783433      -45.4460018528      -39.5858350827  TIP3      9634            0.0000000000
     78733     10034  TIP3      H1             40.3585444767      -45.0634631646      -38.9931242419  TIP3      9634            0.0000000000
     78734     10034  TIP3      H2             41.5805981256      -44.6747926739      -39.8167373948  TIP3      9634            0.0000000000
     78735     10035  TIP3      OH2            48.8837132853      -52.7729474779      -29.2784019903  TIP3      9635            0.0000000000
     78736     10035  TIP3      H1             49.5889676157      -52.7051643012      -28.6208054490  TIP3      9635            0.0000000000
     78737     10035  TIP3      H2             48.5019854092      -53.6535889402      -29.0939797682  TIP3      9635            0.0000000000
     78738     10036  TIP3      OH2            49.3682601811      -52.7394016004      -38.3604314121  TIP3      9636            0.0000000000
     78739     10036  TIP3      H1             49.9158619954      -52.5936065273      -39.1646401832  TIP3      9636            0.0000000000
     78740     10036  TIP3      H2             50.0400413570      -52.5514072169      -37.7104427129  TIP3      9636            0.0000000000
     78741     10037  TIP3      OH2            47.3996753946      -41.1380767628      -39.3493914733  TIP3      9637            0.0000000000
     78742     10037  TIP3      H1             46.5325506034      -40.7439240981      -39.2982900246  TIP3      9637            0.0000000000
     78743     10037  TIP3      H2             47.9113303555      -40.5894242956      -39.9804619612  TIP3      9637            0.0000000000
     78744     10038  TIP3      OH2            46.8734116983      -51.4362952775      -37.3421256659  TIP3      9638            0.0000000000
     78745     10038  TIP3      H1             47.6673887462      -50.8710918281      -37.3148362332  TIP3      9638            0.0000000000
     78746     10038  TIP3      H2             46.6028547594      -51.5416245355      -36.4181811748  TIP3      9638            0.0000000000
     78747     10039  TIP3      OH2            47.4075794578      -50.4304748040      -28.1752291692  TIP3      9639            0.0000000000
     78748     10039  TIP3      H1             47.5000349016      -49.8442041611      -27.3950887997  TIP3      9639            0.0000000000
     78749     10039  TIP3      H2             48.0740758528      -51.1133570094      -28.0473159071  TIP3      9639            0.0000000000
     78750     10040  TIP3      OH2            47.7869216889      -54.3405114848      -36.4122565884  TIP3      9640            0.0000000000
     78751     10040  TIP3      H1             47.3805723224      -53.7102706072      -35.7776329913  TIP3      9640            0.0000000000
     78752     10040  TIP3      H2             48.3533851617      -53.7542485308      -36.9088346429  TIP3      9640            0.0000000000
     78753     10041  TIP3      OH2            44.6197253563      -39.9839522695      -39.3394170502  TIP3      9641            0.0000000000
     78754     10041  TIP3      H1             44.7560485782      -39.1579245019      -39.8603846677  TIP3      9641            0.0000000000
     78755     10041  TIP3      H2             44.4090261457      -39.6537287278      -38.4304989962  TIP3      9641            0.0000000000
     78756     10042  TIP3      OH2            43.3879317679      -53.2708702608      -39.7367834526  TIP3      9642            0.0000000000
     78757     10042  TIP3      H1             43.3235690303      -52.3600991302      -39.3779456754  TIP3      9642            0.0000000000
     78758     10042  TIP3      H2             44.2984817645      -53.5039799035      -39.4705622728  TIP3      9642            0.0000000000
     78759     10043  TIP3      OH2            53.6134339620      -52.4928635719      -27.3127343764  TIP3      9643            0.0000000000
     78760     10043  TIP3      H1             52.6639374048      -52.2497212444      -27.4229123669  TIP3      9643            0.0000000000
     78761     10043  TIP3      H2             53.9334800399      -52.5167240684      -28.2225370062  TIP3      9643            0.0000000000
     78762     10044  TIP3      OH2            52.1815124752      -48.7451257479      -33.2348574121  TIP3      9644            0.0000000000
     78763     10044  TIP3      H1             51.3914190064      -49.1861515838      -33.5735307265  TIP3      9644            0.0000000000
     78764     10044  TIP3      H2             52.6725389561      -49.4530874167      -32.7649348577  TIP3      9644            0.0000000000
     78765     10045  TIP3      OH2            41.6387800747      -42.8347852757      -40.6772314763  TIP3      9645            0.0000000000
     78766     10045  TIP3      H1             42.2583044718      -42.1579544120      -40.3922067119  TIP3      9645            0.0000000000
     78767     10045  TIP3      H2             42.1408114211      -43.2786692881      -41.3871282188  TIP3      9645            0.0000000000
     78768     10046  TIP3      OH2            39.9968376518      -50.1648209953      -41.5230386723  TIP3      9646            0.0000000000
     78769     10046  TIP3      H1             39.9507618947      -49.2052326836      -41.3769104448  TIP3      9646            0.0000000000
     78770     10046  TIP3      H2             39.1099979316      -50.3863901485      -41.8370077011  TIP3      9646            0.0000000000
     78771     10047  TIP3      OH2            53.2826613878      -39.5115288581      -31.6073887631  TIP3      9647            0.0000000000
     78772     10047  TIP3      H1             53.1579277094      -38.8191885787      -32.2876322886  TIP3      9647            0.0000000000
     78773     10047  TIP3      H2             54.2411187462      -39.4294261695      -31.4295039382  TIP3      9647            0.0000000000
     78774     10048  TIP3      OH2            40.8070096400      -55.3412391281      -32.8638838472  TIP3      9648            0.0000000000
     78775     10048  TIP3      H1             40.5588991349      -55.3253816606      -33.8122346959  TIP3      9648            0.0000000000
     78776     10048  TIP3      H2             40.3500415141      -56.1705309947      -32.5748373033  TIP3      9648            0.0000000000
     78777     10049  TIP3      OH2            39.7273144137      -41.4549288287      -36.6960696450  TIP3      9649            0.0000000000
     78778     10049  TIP3      H1             38.8819096209      -40.9800715760      -36.7008214727  TIP3      9649            0.0000000000
     78779     10049  TIP3      H2             40.2422983872      -40.9509620560      -37.3395596994  TIP3      9649            0.0000000000
     78780     10050  TIP3      OH2            38.9917903945      -38.8195668562      -25.3991404803  TIP3      9650            0.0000000000
     78781     10050  TIP3      H1             39.5462926694      -39.0368370696      -24.6256222125  TIP3      9650            0.0000000000
     78782     10050  TIP3      H2             38.5212527162      -39.6487571270      -25.5698568669  TIP3      9650            0.0000000000
     78783     10051  TIP3      OH2            43.5959860136      -39.9197152811      -23.7556911977  TIP3      9651            0.0000000000
     78784     10051  TIP3      H1             44.3817841298      -40.3602384474      -23.4356791129  TIP3      9651            0.0000000000
     78785     10051  TIP3      H2             43.5778790513      -40.1407724902      -24.7113501876  TIP3      9651            0.0000000000
     78786     10052  TIP3      OH2            48.0119211083      -40.2613845726      -41.8728062180  TIP3      9652            0.0000000000
     78787     10052  TIP3      H1             47.2262600050      -40.8561759441      -41.9851506248  TIP3      9652            0.0000000000
     78788     10052  TIP3      H2             48.4922703102      -40.8090316077      -42.5192152858  TIP3      9652            0.0000000000
     78789     10053  TIP3      OH2            50.1475249587      -41.5116871279      -25.0359194541  TIP3      9653            0.0000000000
     78790     10053  TIP3      H1             49.8167355407      -42.3981146749      -24.7910708510  TIP3      9653            0.0000000000
     78791     10053  TIP3      H2             50.9084696836      -41.3797479571      -24.4435958357  TIP3      9653            0.0000000000
     78792     10054  TIP3      OH2            52.2926063613      -40.5847107539      -42.1708136167  TIP3      9654            0.0000000000
     78793     10054  TIP3      H1             52.5772120775      -41.3932353178      -41.7024353225  TIP3      9654            0.0000000000
     78794     10054  TIP3      H2             53.0612319921      -40.3702295958      -42.7148628828  TIP3      9654            0.0000000000
     78795     10055  TIP3      OH2            38.8964449590      -45.0117970712      -24.4142483535  TIP3      9655            0.0000000000
     78796     10055  TIP3      H1             39.0429522614      -45.9328575338      -24.7146023094  TIP3      9655            0.0000000000
     78797     10055  TIP3      H2             38.1331535262      -44.7513062765      -24.9516699663  TIP3      9655            0.0000000000
     78798     10056  TIP3      OH2            43.2797793159      -44.6276643374      -42.2574098700  TIP3      9656            0.0000000000
     78799     10056  TIP3      H1             43.3273554041      -45.4636655332      -41.7777004065  TIP3      9656            0.0000000000
     78800     10056  TIP3      H2             43.8865833209      -44.8238406986      -42.9978352009  TIP3      9656            0.0000000000
     78801     10057  TIP3      OH2            45.5687516099      -45.0410441940      -24.9748088452  TIP3      9657            0.0000000000
     78802     10057  TIP3      H1             45.2345841891      -44.7653381619      -25.8583887870  TIP3      9657            0.0000000000
     78803     10057  TIP3      H2             45.6817059605      -46.0108920612      -25.1032444994  TIP3      9657            0.0000000000
     78804     10058  TIP3      OH2            51.2973019146      -45.1879982173      -27.5960026290  TIP3      9658            0.0000000000
     78805     10058  TIP3      H1             52.0380982197      -44.5450359878      -27.7247901642  TIP3      9658            0.0000000000
     78806     10058  TIP3      H2             50.5513294114      -44.5462366674      -27.5727596756  TIP3      9658            0.0000000000
     78807     10059  TIP3      OH2            39.7313733127      -47.8127115535      -25.0337338508  TIP3      9659            0.0000000000
     78808     10059  TIP3      H1             40.1725700865      -48.6671111201      -25.1182073684  TIP3      9659            0.0000000000
     78809     10059  TIP3      H2             39.4993894852      -47.8066293610      -24.0859480911  TIP3      9659            0.0000000000
     78810     10060  TIP3      OH2            44.4058376896      -46.6670251165      -39.9840320799  TIP3      9660            0.0000000000
     78811     10060  TIP3      H1             43.9303358032      -47.1899556276      -39.3147388471  TIP3      9660            0.0000000000
     78812     10060  TIP3      H2             44.6817612412      -47.3695838610      -40.6177519457  TIP3      9660            0.0000000000
     78813     10061  TIP3      OH2            43.6515138396      -48.9453197345      -27.5747965703  TIP3      9661            0.0000000000
     78814     10061  TIP3      H1             43.1039482482      -48.1507006058      -27.3718692220  TIP3      9661            0.0000000000
     78815     10061  TIP3      H2             44.0231817160      -48.5118409525      -28.4104027370  TIP3      9661            0.0000000000
     78816     10062  TIP3      OH2            45.4692481837      -48.4513832007      -41.7348220786  TIP3      9662            0.0000000000
     78817     10062  TIP3      H1             45.3189496924      -48.6242842188      -42.6724034489  TIP3      9662            0.0000000000
     78818     10062  TIP3      H2             46.4476771369      -48.3543921313      -41.6685883074  TIP3      9662            0.0000000000
     78819     10063  TIP3      OH2            48.7226144292      -46.3020057827      -24.3123742347  TIP3      9663            0.0000000000
     78820     10063  TIP3      H1             49.6768975754      -46.2808602601      -24.4142471510  TIP3      9663            0.0000000000
     78821     10063  TIP3      H2             48.5642006772      -47.0664134339      -23.7504360282  TIP3      9663            0.0000000000
     78822     10064  TIP3      OH2            54.7362111187      -46.0313615215       42.7693643467  TIP3      9664            0.0000000000
     78823     10064  TIP3      H1             54.5848933123      -46.5131036957       41.9282005658  TIP3      9664            0.0000000000
     78824     10064  TIP3      H2             54.8896517745      -45.1229370465       42.4956579494  TIP3      9664            0.0000000000
     78825     10065  TIP3      OH2            44.0525709271      -51.4767099307      -26.5538907675  TIP3      9665            0.0000000000
     78826     10065  TIP3      H1             44.1915141282      -52.1843439656      -27.1979141955  TIP3      9665            0.0000000000
     78827     10065  TIP3      H2             44.0288184536      -50.6696310850      -27.1225535530  TIP3      9665            0.0000000000
     78828     10066  TIP3      OH2            44.4634945733      -53.1074088175      -29.0534585782  TIP3      9666            0.0000000000
     78829     10066  TIP3      H1             44.9875880411      -52.6234367674      -29.7355690731  TIP3      9666            0.0000000000
     78830     10066  TIP3      H2             43.5791974403      -53.1858488800      -29.4775210598  TIP3      9666            0.0000000000
     78831     10067  TIP3      OH2            46.4395558954      -47.6950293288      -28.6519355226  TIP3      9667            0.0000000000
     78832     10067  TIP3      H1             46.8486866742      -47.8410388948      -29.4795271671  TIP3      9667            0.0000000000
     78833     10067  TIP3      H2             45.8408935736      -46.9644069450      -28.9791450037  TIP3      9667            0.0000000000
     78834     10068  TIP3      OH2            50.4257048903      -49.8263745431      -23.8434483653  TIP3      9668            0.0000000000
     78835     10068  TIP3      H1             50.6313137162      -50.7718473068      -23.8804490492  TIP3      9668            0.0000000000
     78836     10068  TIP3      H2             51.2980188411      -49.4207725039      -23.7851127283  TIP3      9668            0.0000000000
     78837     10069  TIP3      OH2            51.7219767419      -47.0428158423      -25.6758529694  TIP3      9669            0.0000000000
     78838     10069  TIP3      H1             51.4492611971      -46.3072905940      -26.2774919076  TIP3      9669            0.0000000000
     78839     10069  TIP3      H2             52.6874588936      -47.0583288749      -25.7469779351  TIP3      9669            0.0000000000
     78840     10070  TIP3      OH2            42.5172125193      -50.2427519313      -24.6389143932  TIP3      9670            0.0000000000
     78841     10070  TIP3      H1             41.7489223206      -50.8023129051      -24.8510052337  TIP3      9670            0.0000000000
     78842     10070  TIP3      H2             43.1889500884      -50.5704671984      -25.2660564966  TIP3      9670            0.0000000000
     78843     10071  TIP3      OH2            45.2607516109      -55.6573017460      -28.6271580372  TIP3      9671            0.0000000000
     78844     10071  TIP3      H1             45.1324550278      -54.6884052335      -28.7411867535  TIP3      9671            0.0000000000
     78845     10071  TIP3      H2             44.4990006171      -56.0076292193      -29.1228650516  TIP3      9671            0.0000000000
     78846     10072  TIP3      OH2            46.5341043310      -51.3272230838      -25.0727817796  TIP3      9672            0.0000000000
     78847     10072  TIP3      H1             46.2576916471      -51.5446022105      -24.1633072788  TIP3      9672            0.0000000000
     78848     10072  TIP3      H2             45.7238983551      -51.5257354361      -25.5734112263  TIP3      9672            0.0000000000
     78849     10073  TIP3      OH2            49.2432381160      -52.1936746058      -25.9797585810  TIP3      9673            0.0000000000
     78850     10073  TIP3      H1             48.2780535168      -52.1524868487      -25.8430054425  TIP3      9673            0.0000000000
     78851     10073  TIP3      H2             49.5379421860      -52.8229527712      -25.3015097833  TIP3      9673            0.0000000000
     78852     10074  TIP3      OH2            50.8557177804      -53.5501229961      -24.0139173225  TIP3      9674            0.0000000000
     78853     10074  TIP3      H1             50.7695971747      -54.5148517432      -23.9902343421  TIP3      9674            0.0000000000
     78854     10074  TIP3      H2             50.5595718220      -53.2719626745      -23.1147962461  TIP3      9674            0.0000000000
     78855     10075  TIP3      OH2            40.6722817230      -52.3197166792      -24.9392166581  TIP3      9675            0.0000000000
     78856     10075  TIP3      H1             40.8996736770      -53.0525885390      -25.5435572564  TIP3      9675            0.0000000000
     78857     10075  TIP3      H2             40.5746364486      -52.7705678280      -24.0934552723  TIP3      9675            0.0000000000
     78858     10076  TIP3      OH2            45.4439910529       56.5180500133      -25.9464726471  TIP3      9676            0.0000000000
     78859     10076  TIP3      H1             46.1767734842       55.8692340009      -25.9877733669  TIP3      9676            0.0000000000
     78860     10076  TIP3      H2             45.3682059821       56.7559895482      -26.8870318941  TIP3      9676            0.0000000000
     78861     10077  TIP3      OH2            45.8451429787      -54.6556594646      -23.8795969978  TIP3      9677            0.0000000000
     78862     10077  TIP3      H1             45.6759917744      -55.1376791303      -24.7159213698  TIP3      9677            0.0000000000
     78863     10077  TIP3      H2             45.2311193289      -53.8990259231      -23.9533373663  TIP3      9677            0.0000000000
     78864     10078  TIP3      OH2            45.3637310463      -37.7827373046      -40.7171178649  TIP3      9678            0.0000000000
     78865     10078  TIP3      H1             46.3132941297      -37.5819007764      -40.6261355584  TIP3      9678            0.0000000000
     78866     10078  TIP3      H2             45.1106294819      -37.0990837966      -41.3599111625  TIP3      9678            0.0000000000
     78867     10079  TIP3      OH2            38.9079091494      -43.1403686286      -41.2232332448  TIP3      9679            0.0000000000
     78868     10079  TIP3      H1             39.8612654814      -43.0607544230      -40.9788912205  TIP3      9679            0.0000000000
     78869     10079  TIP3      H2             38.9405936206      -43.7966748699      -41.9265091049  TIP3      9679            0.0000000000
     78870     10080  TIP3      OH2            37.6237995777      -37.7576418702      -36.2001599253  TIP3      9680            0.0000000000
     78871     10080  TIP3      H1             36.9329661951      -38.2370636581      -36.7036655678  TIP3      9680            0.0000000000
     78872     10080  TIP3      H2             37.9356198889      -38.4303662145      -35.5746400540  TIP3      9680            0.0000000000
     78873     10081  TIP3      OH2            38.4643243130      -39.6548521134      -34.3719157948  TIP3      9681            0.0000000000
     78874     10081  TIP3      H1             38.1208493929      -40.5394184836      -34.1790022734  TIP3      9681            0.0000000000
     78875     10081  TIP3      H2             38.6869884599      -39.3194913344      -33.4852222906  TIP3      9681            0.0000000000
     78876     10082  TIP3      OH2            55.9707120064      -38.8604204881      -31.3839721655  TIP3      9682            0.0000000000
     78877     10082  TIP3      H1             55.9904433970      -38.6633587588      -30.4377453716  TIP3      9682            0.0000000000
     78878     10082  TIP3      H2             56.6904500535      -38.2958465485      -31.7210555206  TIP3      9682            0.0000000000
     78879     10083  TIP3      OH2            55.6059088922      -39.2720541966      -28.4832868709  TIP3      9683            0.0000000000
     78880     10083  TIP3      H1             55.0754146001      -40.0257374622      -28.8403727168  TIP3      9683            0.0000000000
     78881     10083  TIP3      H2             56.1013368495      -39.6820009951      -27.7710874173  TIP3      9683            0.0000000000
     78882     10084  TIP3      OH2            54.0155627348      -43.5329586778      -23.8076025561  TIP3      9684            0.0000000000
     78883     10084  TIP3      H1             53.1403049569      -43.5761485994      -23.4527052403  TIP3      9684            0.0000000000
     78884     10084  TIP3      H2             54.4091611194      -42.7276286882      -23.3921491328  TIP3      9684            0.0000000000
     78885     10085  TIP3      OH2            55.5316080939      -45.3432851548      -38.6203627530  TIP3      9685            0.0000000000
     78886     10085  TIP3      H1             56.1826770814      -44.7842393734      -38.1656816794  TIP3      9685            0.0000000000
     78887     10085  TIP3      H2             55.2954789814      -45.8715096755      -37.7975832429  TIP3      9685            0.0000000000
     78888     10086  TIP3      OH2            55.8205755102      -47.2800554919      -36.5080683211  TIP3      9686            0.0000000000
     78889     10086  TIP3      H1             54.9753760597      -47.6108512634      -36.1131115410  TIP3      9686            0.0000000000
     78890     10086  TIP3      H2             56.2984060825      -46.9582920600      -35.7230796531  TIP3      9686            0.0000000000
     78891     10087  TIP3      OH2            55.4812840663      -44.4270685033      -31.4642489098  TIP3      9687            0.0000000000
     78892     10087  TIP3      H1             56.2956659169      -44.8005033128      -31.8526682588  TIP3      9687            0.0000000000
     78893     10087  TIP3      H2             55.5789890749      -43.4704701833      -31.6885690424  TIP3      9687            0.0000000000
     78894     10088  TIP3      OH2            53.9881201433      -41.5459836516      -29.2236916536  TIP3      9688            0.0000000000
     78895     10088  TIP3      H1             53.3136443576      -41.1928063484      -28.6175144050  TIP3      9688            0.0000000000
     78896     10088  TIP3      H2             53.4355979637      -41.9582326685      -29.9213528358  TIP3      9688            0.0000000000
     78897     10089  TIP3      OH2            55.9455947108      -47.3399402966      -40.1019522107  TIP3      9689            0.0000000000
     78898     10089  TIP3      H1             55.4260668213      -46.9203934184      -40.8098893168  TIP3      9689            0.0000000000
     78899     10089  TIP3      H2             55.9338488014      -46.6033145749      -39.4257401116  TIP3      9689            0.0000000000
     78900     10090  TIP3      OH2            54.0826733156      -50.0338352573      -41.4579629216  TIP3      9690            0.0000000000
     78901     10090  TIP3      H1             54.4288838449      -49.4286384801      -42.1548028864  TIP3      9690            0.0000000000
     78902     10090  TIP3      H2             54.1919368072      -50.8545966738      -41.9893845489  TIP3      9690            0.0000000000
     78903     10091  TIP3      OH2            53.5123993623      -48.6740174751      -35.9297594184  TIP3      9691            0.0000000000
     78904     10091  TIP3      H1             53.3579474805      -49.6158615435      -35.9433435088  TIP3      9691            0.0000000000
     78905     10091  TIP3      H2             53.1593973125      -48.3850317228      -35.0707680927  TIP3      9691            0.0000000000
     78906     10092  TIP3      OH2            38.4691389373      -46.4311960331      -32.0288898662  TIP3      9692            0.0000000000
     78907     10092  TIP3      H1             38.6975223913      -46.6443601789      -32.9684960649  TIP3      9692            0.0000000000
     78908     10092  TIP3      H2             39.3540581681      -46.5400521147      -31.6988675671  TIP3      9692            0.0000000000
     78909     10093  TIP3      OH2            54.4324640102      -46.6288425219      -26.1056004035  TIP3      9693            0.0000000000
     78910     10093  TIP3      H1             55.0436792519      -47.4096670806      -26.0613985394  TIP3      9693            0.0000000000
     78911     10093  TIP3      H2             55.0369282455      -45.8541172574      -26.2296914218  TIP3      9693            0.0000000000
     78912     10094  TIP3      OH2            55.8474547214      -48.7754658884      -25.6400273322  TIP3      9694            0.0000000000
     78913     10094  TIP3      H1             54.9907870556      -49.2170401860      -25.7413669624  TIP3      9694            0.0000000000
     78914     10094  TIP3      H2             56.4537710499      -49.5515035744      -25.6604956322  TIP3      9694            0.0000000000
     78915     10095  TIP3      OH2            53.5973280007      -52.6151490474      -42.4428487619  TIP3      9695            0.0000000000
     78916     10095  TIP3      H1             54.1954165765      -53.0312786785      -41.7949746289  TIP3      9695            0.0000000000
     78917     10095  TIP3      H2             52.7473762594      -53.0426452503      -42.2561376798  TIP3      9695            0.0000000000
     78918     10096  TIP3      OH2            53.1844694456      -51.0902397971      -37.4692023132  TIP3      9696            0.0000000000
     78919     10096  TIP3      H1             53.5192782964      -51.9948630093      -37.3392418712  TIP3      9696            0.0000000000
     78920     10096  TIP3      H2             53.9667284120      -50.6444012992      -37.8444219285  TIP3      9696            0.0000000000
     78921     10097  TIP3      OH2            53.7777040189      -50.5362485611      -32.0276345810  TIP3      9697            0.0000000000
     78922     10097  TIP3      H1             54.7487136667      -50.2917828663      -32.0541554843  TIP3      9697            0.0000000000
     78923     10097  TIP3      H2             53.5975430030      -50.3870201936      -31.0916015514  TIP3      9697            0.0000000000
     78924     10098  TIP3      OH2            53.8765091900      -49.7851997336      -29.2174947482  TIP3      9698            0.0000000000
     78925     10098  TIP3      H1             52.9918710301      -49.5164486404      -28.9236898060  TIP3      9698            0.0000000000
     78926     10098  TIP3      H2             54.3224588400      -48.9475864997      -29.4862558591  TIP3      9698            0.0000000000
     78927     10099  TIP3      OH2            38.1382846682      -51.2812733000      -25.7545999242  TIP3      9699            0.0000000000
     78928     10099  TIP3      H1             39.0699045507      -51.4736124324      -25.5290753782  TIP3      9699            0.0000000000
     78929     10099  TIP3      H2             37.6818336583      -52.0784026775      -25.3989336300  TIP3      9699            0.0000000000
     78930     10100  TIP3      OH2            53.7982416853      -53.8023682158      -37.4075684211  TIP3      9700            0.0000000000
     78931     10100  TIP3      H1             54.0449479358      -54.2478547636      -36.5757374181  TIP3      9700            0.0000000000
     78932     10100  TIP3      H2             53.2371805339      -54.4152067392      -37.8969860047  TIP3      9700            0.0000000000
     78933     10101  TIP3      OH2            39.3377815987      -52.9967149132      -32.8872351434  TIP3      9701            0.0000000000
     78934     10101  TIP3      H1             39.8051631087      -53.7988278513      -32.5819372134  TIP3      9701            0.0000000000
     78935     10101  TIP3      H2             39.8514023617      -52.2967219948      -32.4622412062  TIP3      9701            0.0000000000
     78936     10102  TIP3      OH2            37.6412370492      -50.0033762451      -31.8046545691  TIP3      9702            0.0000000000
     78937     10102  TIP3      H1             38.1669987161      -50.2348538556      -32.6035079255  TIP3      9702            0.0000000000
     78938     10102  TIP3      H2             38.0399299747      -49.1799905287      -31.5623807491  TIP3      9702            0.0000000000
     78939     10103  TIP3      OH2            55.6657730099      -53.6709299685      -25.5385936897  TIP3      9703            0.0000000000
     78940     10103  TIP3      H1             54.7331653279      -53.4061323930      -25.5950555195  TIP3      9703            0.0000000000
     78941     10103  TIP3      H2             55.7666545940      -54.2282596437      -26.3164920869  TIP3      9703            0.0000000000
     78942     10104  TIP3      OH2            55.6669695091      -53.7671249677      -40.8603971820  TIP3      9704            0.0000000000
     78943     10104  TIP3      H1             56.1151088287      -54.4622477661      -41.3628651900  TIP3      9704            0.0000000000
     78944     10104  TIP3      H2             56.3793705403      -53.0908063423      -40.8309688297  TIP3      9704            0.0000000000
     78945     10105  TIP3      OH2            37.9801913492      -53.7606271443      -37.7553038359  TIP3      9705            0.0000000000
     78946     10105  TIP3      H1             37.0455400694      -53.5288750520      -37.8876403493  TIP3      9705            0.0000000000
     78947     10105  TIP3      H2             38.4253793940      -53.2532441009      -38.4612879948  TIP3      9705            0.0000000000
     78948     10106  TIP3      OH2            52.7300396536      -38.7634282376      -35.8005138773  TIP3      9706            0.0000000000
     78949     10106  TIP3      H1             53.4000583047      -39.0959522590      -36.4245996064  TIP3      9706            0.0000000000
     78950     10106  TIP3      H2             53.2697827347      -38.2764263900      -35.1583896258  TIP3      9706            0.0000000000
     78951     10107  TIP3      OH2            37.9548490841      -55.0149270093      -29.4219900015  TIP3      9707            0.0000000000
     78952     10107  TIP3      H1             37.2784916305      -55.2516491385      -28.7675079752  TIP3      9707            0.0000000000
     78953     10107  TIP3      H2             37.4890841465      -54.3832571525      -30.0033112045  TIP3      9707            0.0000000000
     78954     10108  TIP3      OH2            40.1495133906      -41.8558053736      -25.2667572619  TIP3      9708            0.0000000000
     78955     10108  TIP3      H1             39.3127300709      -41.6522252473      -25.7235125500  TIP3      9708            0.0000000000
     78956     10108  TIP3      H2             39.8658702876      -41.9073331725      -24.3538067372  TIP3      9708            0.0000000000
     78957     10109  TIP3      OH2            43.0747961166      -40.8634252589      -29.0101178559  TIP3      9709            0.0000000000
     78958     10109  TIP3      H1             42.6952951703      -40.0270187332      -29.2972830126  TIP3      9709            0.0000000000
     78959     10109  TIP3      H2             44.0003146281      -40.7710603353      -29.3189952033  TIP3      9709            0.0000000000
     78960     10110  TIP3      OH2            47.3904203435      -39.4560187104      -26.0814416263  TIP3      9710            0.0000000000
     78961     10110  TIP3      H1             47.5806172907      -39.7844848416      -25.1707287169  TIP3      9710            0.0000000000
     78962     10110  TIP3      H2             48.2719021075      -39.1402552257      -26.3647108214  TIP3      9710            0.0000000000
     78963     10111  TIP3      OH2            49.7081481068      -38.1776456024      -26.8161453665  TIP3      9711            0.0000000000
     78964     10111  TIP3      H1             50.4274510666      -38.7909444910      -27.0408131530  TIP3      9711            0.0000000000
     78965     10111  TIP3      H2             50.0712450167      -37.7636481908      -26.0010430221  TIP3      9711            0.0000000000
     78966     10112  TIP3      OH2            54.6344800446      -55.5519710194      -27.7148923152  TIP3      9712            0.0000000000
     78967     10112  TIP3      H1             53.8163779119      -55.2262803896      -28.0954621426  TIP3      9712            0.0000000000
     78968     10112  TIP3      H2             54.9091131960      -56.3449397005      -28.2043945829  TIP3      9712            0.0000000000
     78969     10113  TIP3      OH2            40.5009769049      -37.6160605648      -28.9855138588  TIP3      9713            0.0000000000
     78970     10113  TIP3      H1             39.7652826262      -37.1451128704      -29.4119255820  TIP3      9713            0.0000000000
     78971     10113  TIP3      H2             40.1452990629      -37.8395930634      -28.1128194493  TIP3      9713            0.0000000000
     78972     10114  TIP3      OH2            42.9721992174      -38.0293062163      -29.9330881697  TIP3      9714            0.0000000000
     78973     10114  TIP3      H1             42.0773291649      -37.9151809072      -29.5347235663  TIP3      9714            0.0000000000
     78974     10114  TIP3      H2             42.8996098531      -37.4510809874      -30.7186970949  TIP3      9714            0.0000000000
     78975     10115  TIP3      OH2            47.6702838202      -38.1283215991      -30.7652084890  TIP3      9715            0.0000000000
     78976     10115  TIP3      H1             47.2067418506      -37.5806434343      -31.4177968816  TIP3      9715            0.0000000000
     78977     10115  TIP3      H2             47.8209054068      -37.4984946596      -30.0298561002  TIP3      9715            0.0000000000
     78978     10116  TIP3      OH2            49.9890393524      -39.2787972356      -29.7888424977  TIP3      9716            0.0000000000
     78979     10116  TIP3      H1             49.0954713276      -39.0560446797      -30.0940209333  TIP3      9716            0.0000000000
     78980     10116  TIP3      H2             50.4249096994      -38.4133128742      -29.8702523276  TIP3      9716            0.0000000000
     78981     10117  TIP3      OH2            52.5817666845      -37.7059884180      -29.5081384146  TIP3      9717            0.0000000000
     78982     10117  TIP3      H1             52.4378610929      -36.7562053797      -29.7436527793  TIP3      9717            0.0000000000
     78983     10117  TIP3      H2             52.7673883435      -38.0927957470      -30.3833876503  TIP3      9717            0.0000000000
     78984     10118  TIP3      OH2            39.9151432718      -38.9708661323      -32.0660012964  TIP3      9718            0.0000000000
     78985     10118  TIP3      H1             39.8777646504      -39.4188839431      -31.1937033446  TIP3      9718            0.0000000000
     78986     10118  TIP3      H2             40.7378789594      -39.3203081324      -32.4647323565  TIP3      9718            0.0000000000
     78987     10119  TIP3      OH2            42.0273042050      -40.2568625037      -33.4165754005  TIP3      9719            0.0000000000
     78988     10119  TIP3      H1             41.8470572551      -41.1953094937      -33.2064908302  TIP3      9719            0.0000000000
     78989     10119  TIP3      H2             42.8808239051      -40.1314207725      -32.9396611726  TIP3      9719            0.0000000000
     78990     10120  TIP3      OH2            44.6042099352      -39.7739092514      -32.5528648523  TIP3      9720            0.0000000000
     78991     10120  TIP3      H1             44.7961263378      -40.6929309173      -32.8225648602  TIP3      9720            0.0000000000
     78992     10120  TIP3      H2             44.6577515943      -39.8529070125      -31.5879333471  TIP3      9720            0.0000000000
     78993     10121  TIP3      OH2            48.0794822628      -54.1182632954      -33.4218674460  TIP3      9721            0.0000000000
     78994     10121  TIP3      H1             47.4148021627      -54.7762543534      -33.1426292786  TIP3      9721            0.0000000000
     78995     10121  TIP3      H2             48.6501783203      -54.6432793397      -33.9823338754  TIP3      9721            0.0000000000
     78996     10122  TIP3      OH2            53.2473428219      -56.0089444638      -33.2669561316  TIP3      9722            0.0000000000
     78997     10122  TIP3      H1             53.8399695066      -55.4694613049      -33.8435965901  TIP3      9722            0.0000000000
     78998     10122  TIP3      H2             52.3451708000      -55.7191993503      -33.5329007676  TIP3      9722            0.0000000000
     78999     10123  TIP3      OH2            54.9283892383      -54.8871794941      -35.0147052685  TIP3      9723            0.0000000000
     79000     10123  TIP3      H1             55.6024449918      -55.4022802463      -35.4891478538  TIP3      9723            0.0000000000
     79001     10123  TIP3      H2             55.3622716028      -53.9942448422      -34.9472653137  TIP3      9723            0.0000000000
     79002     10124  TIP3      OH2            40.4178562130      -55.4534282747      -35.5735815007  TIP3      9724            0.0000000000
     79003     10124  TIP3      H1             39.6425271785      -55.7233776674      -36.0885475603  TIP3      9724            0.0000000000
     79004     10124  TIP3      H2             40.9311164889      -56.2980224689      -35.5917779578  TIP3      9724            0.0000000000
     79005     10125  TIP3      OH2            39.2599813853      -55.7156653184      -39.7883956106  TIP3      9725            0.0000000000
     79006     10125  TIP3      H1             39.6984792946      -55.0759325847      -40.3846093933  TIP3      9725            0.0000000000
     79007     10125  TIP3      H2             38.6269520585      -55.1616554627      -39.3029815390  TIP3      9725            0.0000000000
     79008     10126  TIP3      OH2            44.9660971932      -55.5760687630      -35.7644559689  TIP3      9726            0.0000000000
     79009     10126  TIP3      H1             45.8574123604      -55.2051420747      -35.8050280229  TIP3      9726            0.0000000000
     79010     10126  TIP3      H2             44.8744713183      -55.7887561745      -34.8339866987  TIP3      9726            0.0000000000
     79011     10127  TIP3      OH2            50.6405301772      -55.5138114103      -34.1504365317  TIP3      9727            0.0000000000
     79012     10127  TIP3      H1             50.6104161568      -55.4668048851      -35.0815146198  TIP3      9727            0.0000000000
     79013     10127  TIP3      H2             50.2611415834      -56.4268007079      -33.9825400975  TIP3      9727            0.0000000000
     79014     10128  TIP3      OH2            51.8709571680      -55.3986944698      -38.4693183864  TIP3      9728            0.0000000000
     79015     10128  TIP3      H1             51.1541542167      -54.8689858576      -38.7657918875  TIP3      9728            0.0000000000
     79016     10128  TIP3      H2             51.3975614680      -56.2641932575      -38.3880787620  TIP3      9728            0.0000000000
     79017     10129  TIP3      OH2            39.1633523656      -39.7814503853      -38.8472377266  TIP3      9729            0.0000000000
     79018     10129  TIP3      H1             38.4707733245      -39.7859633438      -39.5418069679  TIP3      9729            0.0000000000
     79019     10129  TIP3      H2             39.1556340396      -38.8391677637      -38.6241488024  TIP3      9729            0.0000000000
     79020     10130  TIP3      OH2            41.0889928335      -53.8360573500      -41.3283084794  TIP3      9730            0.0000000000
     79021     10130  TIP3      H1             41.6042343448      -54.4261992065      -41.8708871279  TIP3      9730            0.0000000000
     79022     10130  TIP3      H2             41.7349071721      -53.4844452507      -40.6868387994  TIP3      9730            0.0000000000
     79023     10131  TIP3      OH2            46.1190563060      -53.5324618745      -38.9056667589  TIP3      9731            0.0000000000
     79024     10131  TIP3      H1             46.3155199726      -54.1321667546      -38.1781317472  TIP3      9731            0.0000000000
     79025     10131  TIP3      H2             46.1044617268      -52.6632941167      -38.4256026274  TIP3      9731            0.0000000000
     79026     10132  TIP3      OH2            48.0040985904      -38.3577428638      -40.4089102268  TIP3      9732            0.0000000000
     79027     10132  TIP3      H1             48.9342654931      -38.1911577779      -40.6602469321  TIP3      9732            0.0000000000
     79028     10132  TIP3      H2             47.8253509526      -38.9250777423      -41.2285881301  TIP3      9732            0.0000000000
     79029     10133  TIP3      OH2            54.6995805866      -38.9946152088      -37.7925796667  TIP3      9733            0.0000000000
     79030     10133  TIP3      H1             54.5214499098      -39.7676637281      -38.3720618731  TIP3      9733            0.0000000000
     79031     10133  TIP3      H2             54.6734002205      -38.2368095545      -38.4054033079  TIP3      9733            0.0000000000
     79032     10134  TIP3      OH2            40.3548881318      -54.9456585361      -26.0835380901  TIP3      9734            0.0000000000
     79033     10134  TIP3      H1             39.9944666538      -55.7529635734      -25.6596143897  TIP3      9734            0.0000000000
     79034     10134  TIP3      H2             41.2846076256      -54.9832404126      -25.7563734010  TIP3      9734            0.0000000000
     79035     10135  TIP3      OH2            42.3545005126      -55.6009717953      -24.5360367104  TIP3      9735            0.0000000000
     79036     10135  TIP3      H1             43.2563655308      -55.9009290038      -24.7089845626  TIP3      9735            0.0000000000
     79037     10135  TIP3      H2             41.9727236579      -56.3720926847      -24.0743215926  TIP3      9735            0.0000000000
     79038     10136  TIP3      OH2            40.9725007503      -38.8260988606      -41.8651219710  TIP3      9736            0.0000000000
     79039     10136  TIP3      H1             40.6972479443      -38.5496285157      -40.9810654750  TIP3      9736            0.0000000000
     79040     10136  TIP3      H2             41.7320072172      -39.3812355194      -41.7063717416  TIP3      9736            0.0000000000
     79041     10137  TIP3      OH2            50.7594653226       56.5291059234      -24.3524765942  TIP3      9737            0.0000000000
     79042     10137  TIP3      H1             50.8450011244       56.1115324743      -23.4682741529  TIP3      9737            0.0000000000
     79043     10137  TIP3      H2             51.6639211605       56.5532088486      -24.6757887302  TIP3      9737            0.0000000000
     79044     10138  TIP3      OH2            53.9635580330      -40.2440386286      -25.6462536507  TIP3      9738            0.0000000000
     79045     10138  TIP3      H1             53.1671605423      -40.3993563150      -26.1962448979  TIP3      9738            0.0000000000
     79046     10138  TIP3      H2             53.8649698692      -39.2879427683      -25.4594353126  TIP3      9738            0.0000000000
     79047     10139  TIP3      OH2           -44.7610222228      -27.5151108004      -35.6511249146  TIP3      9739            0.0000000000
     79048     10139  TIP3      H1            -44.7124254938      -26.5391071695      -35.7537618705  TIP3      9739            0.0000000000
     79049     10139  TIP3      H2            -45.4421814530      -27.7566167816      -36.2948341430  TIP3      9739            0.0000000000
     79050     10140  TIP3      OH2           -45.8649327228      -28.2333600204      -32.1939097509  TIP3      9740            0.0000000000
     79051     10140  TIP3      H1            -45.8914978363      -28.8904554026      -31.4918990734  TIP3      9740            0.0000000000
     79052     10140  TIP3      H2            -46.1896073749      -28.7227460345      -32.9685893482  TIP3      9740            0.0000000000
     79053     10141  TIP3      OH2           -53.5080892065      -28.5951810259      -30.6351421642  TIP3      9741            0.0000000000
     79054     10141  TIP3      H1            -53.4310906381      -29.2541937823      -29.9095345329  TIP3      9741            0.0000000000
     79055     10141  TIP3      H2            -52.7762117819      -27.9949353696      -30.4279708976  TIP3      9741            0.0000000000
     79056     10142  TIP3      OH2           -42.1545780395      -25.3079891164      -33.9157128452  TIP3      9742            0.0000000000
     79057     10142  TIP3      H1            -42.5963552448      -26.0170078859      -33.4388483630  TIP3      9742            0.0000000000
     79058     10142  TIP3      H2            -42.1671267067      -24.5757567707      -33.2608867501  TIP3      9742            0.0000000000
     79059     10143  TIP3      OH2           -52.5711900824      -24.4901598568      -32.7500462973  TIP3      9743            0.0000000000
     79060     10143  TIP3      H1            -53.0019244776      -25.2681860157      -32.4078591255  TIP3      9743            0.0000000000
     79061     10143  TIP3      H2            -51.7972513672      -24.3529123541      -32.1143320708  TIP3      9743            0.0000000000
     79062     10144  TIP3      OH2           -55.9220578817      -30.5714573341      -36.6680024798  TIP3      9744            0.0000000000
     79063     10144  TIP3      H1            -56.3657008816      -29.6864892973      -36.7151628726  TIP3      9744            0.0000000000
     79064     10144  TIP3      H2            -56.5102588925      -31.0979444481      -37.2134916575  TIP3      9744            0.0000000000
     79065     10145  TIP3      OH2           -55.2460156662      -28.3413804745      -34.5425385823  TIP3      9745            0.0000000000
     79066     10145  TIP3      H1            -55.0068623199      -29.1445906504      -34.0460890529  TIP3      9745            0.0000000000
     79067     10145  TIP3      H2            -54.5080346768      -28.2543806827      -35.1631030200  TIP3      9745            0.0000000000
     79068     10146  TIP3      OH2           -45.6271417318      -20.4731486607      -33.9213621167  TIP3      9746            0.0000000000
     79069     10146  TIP3      H1            -44.6696749546      -20.7852103508      -34.0369220128  TIP3      9746            0.0000000000
     79070     10146  TIP3      H2            -45.3505408517      -20.3916721458      -32.9729902175  TIP3      9746            0.0000000000
     79071     10147  TIP3      OH2           -47.4835028738      -25.8193454211      -31.7690240657  TIP3      9747            0.0000000000
     79072     10147  TIP3      H1            -47.1516326580      -26.4857521885      -32.3929437187  TIP3      9747            0.0000000000
     79073     10147  TIP3      H2            -46.7120785725      -25.6880417394      -31.1941098929  TIP3      9747            0.0000000000
     79074     10148  TIP3      OH2           -38.8464557200      -34.2084809801      -30.9660467438  TIP3      9748            0.0000000000
     79075     10148  TIP3      H1            -38.7333609163      -33.5881343890      -30.2140418988  TIP3      9748            0.0000000000
     79076     10148  TIP3      H2            -38.3527370004      -33.7479429392      -31.6612932569  TIP3      9748            0.0000000000
     79077     10149  TIP3      OH2           -44.3267666615      -31.3844300947      -31.4372880235  TIP3      9749            0.0000000000
     79078     10149  TIP3      H1            -44.1771058372      -32.3503171449      -31.4446277449  TIP3      9749            0.0000000000
     79079     10149  TIP3      H2            -44.4310333099      -31.2217533083      -32.3976708375  TIP3      9749            0.0000000000
     79080     10150  TIP3      OH2           -51.1849580071      -33.2988583862      -34.1879341431  TIP3      9750            0.0000000000
     79081     10150  TIP3      H1            -51.1224617399      -32.4432423847      -34.6451310640  TIP3      9750            0.0000000000
     79082     10150  TIP3      H2            -51.6215755658      -33.8634264627      -34.8605428043  TIP3      9750            0.0000000000
     79083     10151  TIP3      OH2           -43.4616214541      -33.2023524509      -35.8342054038  TIP3      9751            0.0000000000
     79084     10151  TIP3      H1            -42.8059734778      -33.5122649565      -35.1586105445  TIP3      9751            0.0000000000
     79085     10151  TIP3      H2            -42.9158064082      -32.6376272626      -36.3893658142  TIP3      9751            0.0000000000
     79086     10152  TIP3      OH2           -54.5712836021      -30.8875216738      -33.4485320818  TIP3      9752            0.0000000000
     79087     10152  TIP3      H1            -53.8979397034      -31.4523480812      -33.0107440136  TIP3      9752            0.0000000000
     79088     10152  TIP3      H2            -54.5016151774      -31.1967817959      -34.3658351126  TIP3      9752            0.0000000000
     79089     10153  TIP3      OH2           -49.4046117129      -29.3375171970      -34.1915608031  TIP3      9753            0.0000000000
     79090     10153  TIP3      H1            -48.7685343618      -29.9038972784      -33.7266212870  TIP3      9753            0.0000000000
     79091     10153  TIP3      H2            -49.9668452231      -30.0024774425      -34.6367037258  TIP3      9753            0.0000000000
     79092     10154  TIP3      OH2           -38.4207780741      -32.7507861675      -28.7170938267  TIP3      9754            0.0000000000
     79093     10154  TIP3      H1            -39.0909169670      -32.0415196927      -28.8077454635  TIP3      9754            0.0000000000
     79094     10154  TIP3      H2            -38.4030938821      -32.9048152133      -27.7613584262  TIP3      9754            0.0000000000
     79095     10155  TIP3      OH2           -52.3320419538      -34.3980240280      -30.1388226247  TIP3      9755            0.0000000000
     79096     10155  TIP3      H1            -52.5848190895      -33.8407339684      -30.9001003961  TIP3      9755            0.0000000000
     79097     10155  TIP3      H2            -53.0193066399      -34.1537829704      -29.4712080872  TIP3      9755            0.0000000000
     79098     10156  TIP3      OH2           -44.9913963022      -24.9004193080      -36.5860343557  TIP3      9756            0.0000000000
     79099     10156  TIP3      H1            -45.2926531932      -25.2007339619      -37.4524791216  TIP3      9756            0.0000000000
     79100     10156  TIP3      H2            -45.3158217014      -23.9706737332      -36.5426806337  TIP3      9756            0.0000000000
     79101     10157  TIP3      OH2           -49.7827293634      -26.7468936314      -29.8650395433  TIP3      9757            0.0000000000
     79102     10157  TIP3      H1            -50.5165222750      -26.1020095883      -29.7219328611  TIP3      9757            0.0000000000
     79103     10157  TIP3      H2            -49.0877706300      -26.1457035403      -30.1752810090  TIP3      9757            0.0000000000
     79104     10158  TIP3      OH2           -41.6865542564      -33.8742333121      -33.8283104065  TIP3      9758            0.0000000000
     79105     10158  TIP3      H1            -41.8915585469      -34.6453707523      -33.2885526638  TIP3      9758            0.0000000000
     79106     10158  TIP3      H2            -41.0139078886      -33.4213649464      -33.2916380778  TIP3      9758            0.0000000000
     79107     10159  TIP3      OH2           -52.7746567472      -32.5177766984      -32.1526465425  TIP3      9759            0.0000000000
     79108     10159  TIP3      H1            -52.1344434713      -31.8585639480      -31.8012810496  TIP3      9759            0.0000000000
     79109     10159  TIP3      H2            -52.2325752292      -32.9636129317      -32.8487538671  TIP3      9759            0.0000000000
     79110     10160  TIP3      OH2           -51.3418649297      -24.7798835328      -29.0315305702  TIP3      9760            0.0000000000
     79111     10160  TIP3      H1            -51.3990820992      -23.8791660025      -29.4553707322  TIP3      9760            0.0000000000
     79112     10160  TIP3      H2            -52.2454788270      -24.8242325340      -28.6424829638  TIP3      9760            0.0000000000
     79113     10161  TIP3      OH2           -55.2438968115      -25.1047575013      -38.2841369514  TIP3      9761            0.0000000000
     79114     10161  TIP3      H1            -55.5103283178      -24.8217648272      -39.1789662761  TIP3      9761            0.0000000000
     79115     10161  TIP3      H2            -55.1960427274      -24.2534100011      -37.7901372794  TIP3      9761            0.0000000000
     79116     10162  TIP3      OH2           -41.6314738576      -23.4765519972      -31.5420929209  TIP3      9762            0.0000000000
     79117     10162  TIP3      H1            -42.6012817789      -23.3669035177      -31.4156486158  TIP3      9762            0.0000000000
     79118     10162  TIP3      H2            -41.3818709682      -22.5394836722      -31.7208229398  TIP3      9762            0.0000000000
     79119     10163  TIP3      OH2           -41.3329075911      -35.1752447241      -30.1425506144  TIP3      9763            0.0000000000
     79120     10163  TIP3      H1            -42.0678659119      -34.5522722480      -30.2043482278  TIP3      9763            0.0000000000
     79121     10163  TIP3      H2            -40.6367228191      -34.7534083526      -30.6766056507  TIP3      9763            0.0000000000
     79122     10164  TIP3      OH2           -48.3400400495      -37.0710109234      -32.6883437535  TIP3      9764            0.0000000000
     79123     10164  TIP3      H1            -48.4702365739      -38.0370065725      -32.7418858479  TIP3      9764            0.0000000000
     79124     10164  TIP3      H2            -49.2147398113      -36.7538674059      -32.3932825215  TIP3      9764            0.0000000000
     79125     10165  TIP3      OH2           -43.4392496699      -21.7149387497      -35.0162302414  TIP3      9765            0.0000000000
     79126     10165  TIP3      H1            -42.9330667463      -22.4065345669      -35.4545862047  TIP3      9765            0.0000000000
     79127     10165  TIP3      H2            -43.0302630033      -20.8816951857      -35.3257281434  TIP3      9765            0.0000000000
     79128     10166  TIP3      OH2           -42.1923532167      -23.7660832954      -36.4453369106  TIP3      9766            0.0000000000
     79129     10166  TIP3      H1            -42.4869877335      -24.4659286414      -37.0454875428  TIP3      9766            0.0000000000
     79130     10166  TIP3      H2            -42.1604142320      -24.2254724022      -35.5840807252  TIP3      9766            0.0000000000
     79131     10167  TIP3      OH2           -40.5489062242      -25.1876823995      -27.9382604049  TIP3      9767            0.0000000000
     79132     10167  TIP3      H1            -40.4054519437      -25.8084453994      -28.6853810737  TIP3      9767            0.0000000000
     79133     10167  TIP3      H2            -40.3698643496      -24.3216594204      -28.3363925168  TIP3      9767            0.0000000000
     79134     10168  TIP3      OH2           -46.0680039819      -28.2653235881      -38.1722134359  TIP3      9768            0.0000000000
     79135     10168  TIP3      H1            -46.7742756781      -27.7040445789      -38.5467916039  TIP3      9768            0.0000000000
     79136     10168  TIP3      H2            -45.3702842746      -28.1766531940      -38.8456892729  TIP3      9768            0.0000000000
     79137     10169  TIP3      OH2           -46.0202130982      -29.7779157905      -41.1198917997  TIP3      9769            0.0000000000
     79138     10169  TIP3      H1            -45.3022754163      -29.7440181749      -40.4771789351  TIP3      9769            0.0000000000
     79139     10169  TIP3      H2            -45.7088373238      -30.3996733781      -41.7830317467  TIP3      9769            0.0000000000
     79140     10170  TIP3      OH2           -38.6863536534      -28.8688478586      -29.8804557196  TIP3      9770            0.0000000000
     79141     10170  TIP3      H1            -39.3502586824      -28.1525364264      -29.8190576651  TIP3      9770            0.0000000000
     79142     10170  TIP3      H2            -38.2169063458      -28.6373593939      -30.7017260013  TIP3      9770            0.0000000000
     79143     10171  TIP3      OH2           -42.6486282550      -28.0498467125      -37.2503227580  TIP3      9771            0.0000000000
     79144     10171  TIP3      H1            -43.3888270184      -27.8071257677      -36.6420243740  TIP3      9771            0.0000000000
     79145     10171  TIP3      H2            -42.1880557636      -28.7409625048      -36.7444996282  TIP3      9771            0.0000000000
     79146     10172  TIP3      OH2           -42.7192427659      -29.8869227528      -28.1477284276  TIP3      9772            0.0000000000
     79147     10172  TIP3      H1            -42.6883382909      -29.0859355408      -27.5937801807  TIP3      9772            0.0000000000
     79148     10172  TIP3      H2            -43.3529689832      -29.5832119861      -28.8362535665  TIP3      9772            0.0000000000
     79149     10173  TIP3      OH2           -51.0124917149      -27.3896956568      -35.3383169125  TIP3      9773            0.0000000000
     79150     10173  TIP3      H1            -51.3462604997      -27.7872794627      -36.1765030875  TIP3      9773            0.0000000000
     79151     10173  TIP3      H2            -50.4103043266      -28.0892609371      -34.9984837468  TIP3      9773            0.0000000000
     79152     10174  TIP3      OH2           -49.6534249937      -23.9832765543      -32.6693489164  TIP3      9774            0.0000000000
     79153     10174  TIP3      H1            -49.7316407238      -24.5534633711      -33.4352688518  TIP3      9774            0.0000000000
     79154     10174  TIP3      H2            -48.9135083569      -24.3626893994      -32.1783918552  TIP3      9774            0.0000000000
     79155     10175  TIP3      OH2           -50.6650008224      -28.6483067612      -31.6944338033  TIP3      9775            0.0000000000
     79156     10175  TIP3      H1            -50.0948059885      -28.5242229605      -32.4779056530  TIP3      9775            0.0000000000
     79157     10175  TIP3      H2            -50.3175457669      -27.9817300330      -31.0678931956  TIP3      9775            0.0000000000
     79158     10176  TIP3      OH2           -44.3022102021      -23.1170500204      -30.9762780381  TIP3      9776            0.0000000000
     79159     10176  TIP3      H1            -44.5671941496      -22.4558960881      -30.3328394600  TIP3      9776            0.0000000000
     79160     10176  TIP3      H2            -44.5397432955      -23.9627873696      -30.5397610132  TIP3      9776            0.0000000000
     79161     10177  TIP3      OH2           -49.7513331447      -24.2418913947      -26.9719461676  TIP3      9777            0.0000000000
     79162     10177  TIP3      H1            -50.1099545432      -23.4468146368      -26.5353561204  TIP3      9777            0.0000000000
     79163     10177  TIP3      H2            -50.4192582264      -24.3974532537      -27.6905003363  TIP3      9777            0.0000000000
     79164     10178  TIP3      OH2           -43.7737637912      -28.8722781686      -39.5816108094  TIP3      9778            0.0000000000
     79165     10178  TIP3      H1            -43.2121696415      -28.6936540065      -38.7809394846  TIP3      9778            0.0000000000
     79166     10178  TIP3      H2            -43.3581064065      -28.3499806810      -40.2833334838  TIP3      9778            0.0000000000
     79167     10179  TIP3      OH2           -52.8218682417      -28.0472975250      -27.7929908141  TIP3      9779            0.0000000000
     79168     10179  TIP3      H1            -52.7824007851      -27.3947650877      -27.0614216868  TIP3      9779            0.0000000000
     79169     10179  TIP3      H2            -53.7400458653      -27.9382725841      -28.0834134450  TIP3      9779            0.0000000000
     79170     10180  TIP3      OH2           -46.0574198527      -22.1549169692      -36.1210000452  TIP3      9780            0.0000000000
     79171     10180  TIP3      H1            -45.6010501949      -21.8305532133      -35.3166750699  TIP3      9780            0.0000000000
     79172     10180  TIP3      H2            -46.6076683522      -21.3921785225      -36.3350722244  TIP3      9780            0.0000000000
     79173     10181  TIP3      OH2           -51.5193500887      -22.1965109054      -26.1887811873  TIP3      9781            0.0000000000
     79174     10181  TIP3      H1            -51.5147901319      -22.2815308767      -27.1789643595  TIP3      9781            0.0000000000
     79175     10181  TIP3      H2            -52.4612396147      -22.2941380365      -25.9866950157  TIP3      9781            0.0000000000
     79176     10182  TIP3      OH2           -40.0602545621      -37.1266522965      -39.7122480805  TIP3      9782            0.0000000000
     79177     10182  TIP3      H1            -40.9994968302      -37.0095356157      -39.4332532053  TIP3      9782            0.0000000000
     79178     10182  TIP3      H2            -39.8267628401      -36.2829848009      -40.1249918915  TIP3      9782            0.0000000000
     79179     10183  TIP3      OH2           -52.0044969462      -28.3521102072      -37.7384701003  TIP3      9783            0.0000000000
     79180     10183  TIP3      H1            -52.3170175702      -27.5748007723      -38.2505443351  TIP3      9783            0.0000000000
     79181     10183  TIP3      H2            -52.6874564174      -29.0054908704      -37.9283189455  TIP3      9783            0.0000000000
     79182     10184  TIP3      OH2           -38.9230833289      -22.7827535343      -41.3328937738  TIP3      9784            0.0000000000
     79183     10184  TIP3      H1            -38.8094664874      -21.8221050224      -41.1882692705  TIP3      9784            0.0000000000
     79184     10184  TIP3      H2            -37.9903197377      -23.0585828036      -41.4017844064  TIP3      9784            0.0000000000
     79185     10185  TIP3      OH2           -55.9147504385      -25.9483074923      -28.8983907773  TIP3      9785            0.0000000000
     79186     10185  TIP3      H1            -56.4101419731      -26.0140975286      -29.7380382533  TIP3      9785            0.0000000000
     79187     10185  TIP3      H2            -55.9128580449      -26.8929754034      -28.6291155052  TIP3      9785            0.0000000000
     79188     10186  TIP3      OH2           -56.2076405479      -23.1968962156      -32.0485217430  TIP3      9786            0.0000000000
     79189     10186  TIP3      H1            -55.2357412914      -23.3324113792      -32.0694045227  TIP3      9786            0.0000000000
     79190     10186  TIP3      H2            -56.2671840590      -22.3943095969      -31.5271931551  TIP3      9786            0.0000000000
     79191     10187  TIP3      OH2           -37.9586929068      -22.5152024853      -26.3749107421  TIP3      9787            0.0000000000
     79192     10187  TIP3      H1            -38.0510862488      -23.4792900789      -26.3997024493  TIP3      9787            0.0000000000
     79193     10187  TIP3      H2            -38.8212472748      -22.2604990708      -25.9725028896  TIP3      9787            0.0000000000
     79194     10188  TIP3      OH2           -46.9975441580      -22.9673881185      -27.5101625005  TIP3      9788            0.0000000000
     79195     10188  TIP3      H1            -46.9233856227      -22.1224670098      -27.0076033985  TIP3      9788            0.0000000000
     79196     10188  TIP3      H2            -47.8783425883      -23.2966525567      -27.2491483261  TIP3      9788            0.0000000000
     79197     10189  TIP3      OH2           -46.5890978636      -19.2112906267      -37.6968008312  TIP3      9789            0.0000000000
     79198     10189  TIP3      H1            -46.6578909126      -19.2996254030      -38.6632265066  TIP3      9789            0.0000000000
     79199     10189  TIP3      H2            -46.5471725675      -18.2446026681      -37.5608062696  TIP3      9789            0.0000000000
     79200     10190  TIP3      OH2           -52.9340379204      -20.3504679908      -35.9103544953  TIP3      9790            0.0000000000
     79201     10190  TIP3      H1            -52.7789243765      -20.7563954460      -35.0162768626  TIP3      9790            0.0000000000
     79202     10190  TIP3      H2            -53.7810175445      -20.7625595076      -36.1394192794  TIP3      9790            0.0000000000
     79203     10191  TIP3      OH2           -43.5078860472      -20.0110327353      -40.7251109438  TIP3      9791            0.0000000000
     79204     10191  TIP3      H1            -43.0875792764      -20.7847516363      -41.1558405375  TIP3      9791            0.0000000000
     79205     10191  TIP3      H2            -43.4737683299      -20.2871429791      -39.7814935688  TIP3      9791            0.0000000000
     79206     10192  TIP3      OH2           -43.8122530993      -20.1009306170      -37.9620736029  TIP3      9792            0.0000000000
     79207     10192  TIP3      H1            -44.7603507632      -20.0019799694      -37.7436967223  TIP3      9792            0.0000000000
     79208     10192  TIP3      H2            -43.5506849737      -20.8114633842      -37.3522629877  TIP3      9792            0.0000000000
     79209     10193  TIP3      OH2           -40.8105656405      -31.0361787666      -25.8940937123  TIP3      9793            0.0000000000
     79210     10193  TIP3      H1            -41.2552467410      -30.5639925783      -26.6139374436  TIP3      9793            0.0000000000
     79211     10193  TIP3      H2            -40.8003374590      -31.9523069101      -26.2035413165  TIP3      9793            0.0000000000
     79212     10194  TIP3      OH2           -53.6799772916      -24.6297372206      -27.8849619966  TIP3      9794            0.0000000000
     79213     10194  TIP3      H1            -53.4653505748      -25.0135542498      -27.0156452316  TIP3      9794            0.0000000000
     79214     10194  TIP3      H2            -54.5370983516      -25.0279391992      -28.1176425601  TIP3      9794            0.0000000000
     79215     10195  TIP3      OH2           -51.0215996831      -36.1782796342      -31.9130697402  TIP3      9795            0.0000000000
     79216     10195  TIP3      H1            -51.9222649481      -36.2658957979      -32.3044527772  TIP3      9795            0.0000000000
     79217     10195  TIP3      H2            -51.0992381989      -35.3211318937      -31.4661857750  TIP3      9795            0.0000000000
     79218     10196  TIP3      OH2           -46.3703475421      -36.4664539177      -28.5474604349  TIP3      9796            0.0000000000
     79219     10196  TIP3      H1            -45.9696236348      -36.8883859590      -27.7648004142  TIP3      9796            0.0000000000
     79220     10196  TIP3      H2            -47.3373992448      -36.6282086864      -28.4121530964  TIP3      9796            0.0000000000
     79221     10197  TIP3      OH2           -43.0602176942      -32.6798224276      -27.6783547999  TIP3      9797            0.0000000000
     79222     10197  TIP3      H1            -43.6024424747      -32.8461137584      -26.8738622495  TIP3      9797            0.0000000000
     79223     10197  TIP3      H2            -43.2326975533      -31.7573505395      -27.9161946343  TIP3      9797            0.0000000000
     79224     10198  TIP3      OH2           -42.2395637763      -27.8248236827      -41.8222776835  TIP3      9798            0.0000000000
     79225     10198  TIP3      H1            -42.2408325830      -28.0106496620      -42.7882606606  TIP3      9798            0.0000000000
     79226     10198  TIP3      H2            -41.3966668281      -27.3852839286      -41.6990685899  TIP3      9798            0.0000000000
     79227     10199  TIP3      OH2           -46.7056381984      -33.9391504004      -41.2378360413  TIP3      9799            0.0000000000
     79228     10199  TIP3      H1            -47.0193937128      -33.9618161120      -40.3112041965  TIP3      9799            0.0000000000
     79229     10199  TIP3      H2            -46.9976030739      -34.8183242641      -41.5291651358  TIP3      9799            0.0000000000
     79230     10200  TIP3      OH2           -50.9278200109      -31.2137262743      -30.7558818478  TIP3      9800            0.0000000000
     79231     10200  TIP3      H1            -51.6240199097      -31.2364692743      -30.0731617308  TIP3      9800            0.0000000000
     79232     10200  TIP3      H2            -50.9366076523      -30.2760729962      -31.0508018891  TIP3      9800            0.0000000000
     79233     10201  TIP3      OH2           -50.9511828042      -31.0148578153      -35.8543533237  TIP3      9801            0.0000000000
     79234     10201  TIP3      H1            -51.8721896986      -31.3310561758      -35.9587083852  TIP3      9801            0.0000000000
     79235     10201  TIP3      H2            -50.5356104428      -31.3688179906      -36.6636912745  TIP3      9801            0.0000000000
     79236     10202  TIP3      OH2           -45.4388496259      -30.5833034061      -37.0575435585  TIP3      9802            0.0000000000
     79237     10202  TIP3      H1            -45.8414584785      -29.7436438862      -37.3724799229  TIP3      9802            0.0000000000
     79238     10202  TIP3      H2            -44.7136528132      -30.7070686927      -37.7017675570  TIP3      9802            0.0000000000
     79239     10203  TIP3      OH2           -46.3429341096      -30.3730270865      -25.5926307405  TIP3      9803            0.0000000000
     79240     10203  TIP3      H1            -46.8956354625      -31.1242670118      -25.2797843130  TIP3      9803            0.0000000000
     79241     10203  TIP3      H2            -45.5033636327      -30.5064989072      -25.1257526238  TIP3      9803            0.0000000000
     79242     10204  TIP3      OH2           -44.4080338619      -31.1044064948      -34.2225142320  TIP3      9804            0.0000000000
     79243     10204  TIP3      H1            -44.6423080496      -30.5222223176      -34.9658803470  TIP3      9804            0.0000000000
     79244     10204  TIP3      H2            -44.2655705917      -31.9515263016      -34.6888560181  TIP3      9804            0.0000000000
     79245     10205  TIP3      OH2           -53.2373224655      -30.9046150302      -28.9698443987  TIP3      9805            0.0000000000
     79246     10205  TIP3      H1            -53.2384925175      -30.5096809975      -28.0823673732  TIP3      9805            0.0000000000
     79247     10205  TIP3      H2            -53.7078809707      -31.7383842125      -28.8240582399  TIP3      9805            0.0000000000
     79248     10206  TIP3      OH2           -49.7415629970      -33.3457234015      -41.9015193900  TIP3      9806            0.0000000000
     79249     10206  TIP3      H1            -50.2757335844      -33.9597074023      -41.3638074878  TIP3      9806            0.0000000000
     79250     10206  TIP3      H2            -50.4195904453      -33.0635490836      -42.5342724393  TIP3      9806            0.0000000000
     79251     10207  TIP3      OH2           -56.6022258976      -33.7726472935      -35.0725776356  TIP3      9807            0.0000000000
     79252     10207  TIP3      H1            -55.9542429327      -33.8275263369      -34.3415186314  TIP3      9807            0.0000000000
     79253     10207  TIP3      H2            -56.1587616336      -34.2057402697      -35.8230374719  TIP3      9807            0.0000000000
     79254     10208  TIP3      OH2           -55.3113713045      -33.0961460457      -39.6599099959  TIP3      9808            0.0000000000
     79255     10208  TIP3      H1            -54.8442550711      -32.4606888742      -40.2496245890  TIP3      9808            0.0000000000
     79256     10208  TIP3      H2            -56.0208162867      -32.5040835893      -39.3153404916  TIP3      9808            0.0000000000
     79257     10209  TIP3      OH2           -45.1713639845      -29.4822928507      -29.6131434763  TIP3      9809            0.0000000000
     79258     10209  TIP3      H1            -44.8254420863      -30.1491185475      -30.2356146309  TIP3      9809            0.0000000000
     79259     10209  TIP3      H2            -45.6209192540      -30.0280341182      -28.9436565302  TIP3      9809            0.0000000000
     79260     10210  TIP3      OH2           -48.3819506088      -33.5459812887      -34.8162014941  TIP3      9810            0.0000000000
     79261     10210  TIP3      H1            -49.3166388543      -33.5096972516      -34.5122467021  TIP3      9810            0.0000000000
     79262     10210  TIP3      H2            -47.8867412214      -33.6456807069      -33.9891538594  TIP3      9810            0.0000000000
     79263     10211  TIP3      OH2           -53.5670827943      -31.9521146927      -35.9520038425  TIP3      9811            0.0000000000
     79264     10211  TIP3      H1            -54.4586246239      -31.8269822024      -36.3321695642  TIP3      9811            0.0000000000
     79265     10211  TIP3      H2            -53.2774496482      -32.7926987633      -36.3385338459  TIP3      9811            0.0000000000
     79266     10212  TIP3      OH2           -49.9199750573      -31.9249952134      -38.3159417763  TIP3      9812            0.0000000000
     79267     10212  TIP3      H1            -48.9679469660      -31.8067338918      -38.1404313928  TIP3      9812            0.0000000000
     79268     10212  TIP3      H2            -50.1411881671      -31.2564387002      -38.9867010708  TIP3      9812            0.0000000000
     79269     10213  TIP3      OH2           -43.9718701694      -34.3090102802      -31.5568502868  TIP3      9813            0.0000000000
     79270     10213  TIP3      H1            -44.6667838316      -34.2109746855      -30.8716264082  TIP3      9813            0.0000000000
     79271     10213  TIP3      H2            -44.4772795115      -34.5039389949      -32.3573414890  TIP3      9813            0.0000000000
     79272     10214  TIP3      OH2           -51.2343885240      -30.7436878270      -40.7332823322  TIP3      9814            0.0000000000
     79273     10214  TIP3      H1            -51.7834658270      -31.1078330011      -41.4492491947  TIP3      9814            0.0000000000
     79274     10214  TIP3      H2            -50.4003776519      -30.5441907815      -41.1913190942  TIP3      9814            0.0000000000
     79275     10215  TIP3      OH2           -40.7322426134      -18.6594200407      -25.2417032431  TIP3      9815            0.0000000000
     79276     10215  TIP3      H1            -40.4913314574      -18.2410655030      -26.0956968568  TIP3      9815            0.0000000000
     79277     10215  TIP3      H2            -40.0342349707      -18.3092448032      -24.6627926747  TIP3      9815            0.0000000000
     79278     10216  TIP3      OH2           -53.0892181354      -26.1864950864      -25.6735052101  TIP3      9816            0.0000000000
     79279     10216  TIP3      H1            -52.3685857598      -25.9232981097      -25.0750945998  TIP3      9816            0.0000000000
     79280     10216  TIP3      H2            -53.8811404407      -25.9984938933      -25.1236914228  TIP3      9816            0.0000000000
     79281     10217  TIP3      OH2           -47.0868468947      -30.7688608196      -32.9201855994  TIP3      9817            0.0000000000
     79282     10217  TIP3      H1            -46.5020335106      -31.3148840678      -33.4616132157  TIP3      9817            0.0000000000
     79283     10217  TIP3      H2            -47.2249644453      -31.3062014113      -32.1296633433  TIP3      9817            0.0000000000
     79284     10218  TIP3      OH2           -52.0772962542      -34.6223684373      -36.4882406487  TIP3      9818            0.0000000000
     79285     10218  TIP3      H1            -52.3911597547      -35.5460794956      -36.5215987488  TIP3      9818            0.0000000000
     79286     10218  TIP3      H2            -51.2894889679      -34.6571436302      -37.0467774320  TIP3      9818            0.0000000000
     79287     10219  TIP3      OH2           -48.4464047390      -32.4158854494      -30.5108461840  TIP3      9819            0.0000000000
     79288     10219  TIP3      H1            -49.2832066813      -31.9237294331      -30.4010710143  TIP3      9819            0.0000000000
     79289     10219  TIP3      H2            -47.9092024068      -32.0968044145      -29.7583782854  TIP3      9819            0.0000000000
     79290     10220  TIP3      OH2           -47.8704940346      -26.1891048495      -38.8130274545  TIP3      9820            0.0000000000
     79291     10220  TIP3      H1            -48.6562730347      -26.6849182384      -39.1368538131  TIP3      9820            0.0000000000
     79292     10220  TIP3      H2            -48.0570705361      -26.1210748815      -37.8564828299  TIP3      9820            0.0000000000
     79293     10221  TIP3      OH2           -40.7197207119      -27.0368649681      -30.0120004854  TIP3      9821            0.0000000000
     79294     10221  TIP3      H1            -40.1150653277      -26.5624597872      -30.6065410028  TIP3      9821            0.0000000000
     79295     10221  TIP3      H2            -41.5682253307      -26.9375377215      -30.4938233190  TIP3      9821            0.0000000000
     79296     10222  TIP3      OH2           -44.1109203449      -33.4408696788      -40.6715017446  TIP3      9822            0.0000000000
     79297     10222  TIP3      H1            -45.0622634177      -33.2892356043      -40.8158384236  TIP3      9822            0.0000000000
     79298     10222  TIP3      H2            -43.9080278858      -32.5494653644      -40.4298295110  TIP3      9822            0.0000000000
     79299     10223  TIP3      OH2           -46.3775095779      -25.9758924106      -27.5784253080  TIP3      9823            0.0000000000
     79300     10223  TIP3      H1            -46.7214454707      -26.3709986558      -26.7700429749  TIP3      9823            0.0000000000
     79301     10223  TIP3      H2            -46.5972955097      -25.0432589198      -27.4934137085  TIP3      9823            0.0000000000
     79302     10224  TIP3      OH2           -43.3643106281      -31.2094007817      -38.6708656612  TIP3      9824            0.0000000000
     79303     10224  TIP3      H1            -42.4606026219      -31.5258527306      -38.5028342604  TIP3      9824            0.0000000000
     79304     10224  TIP3      H2            -43.2702445728      -30.6181807554      -39.4433808439  TIP3      9824            0.0000000000
     79305     10225  TIP3      OH2           -52.8000861921      -26.9380831559      -33.0686000014  TIP3      9825            0.0000000000
     79306     10225  TIP3      H1            -52.0360106177      -26.8806753956      -33.6697100070  TIP3      9825            0.0000000000
     79307     10225  TIP3      H2            -52.6799233658      -27.7282294503      -32.5552436177  TIP3      9825            0.0000000000
     79308     10226  TIP3      OH2           -45.7579866434      -24.7256274542      -39.7815072678  TIP3      9826            0.0000000000
     79309     10226  TIP3      H1            -46.0976445202      -23.8877298649      -39.4077943450  TIP3      9826            0.0000000000
     79310     10226  TIP3      H2            -46.4944333397      -25.3465252985      -39.5863351695  TIP3      9826            0.0000000000
     79311     10227  TIP3      OH2           -55.7594826920      -28.4037566715      -27.7294506506  TIP3      9827            0.0000000000
     79312     10227  TIP3      H1            -55.5610645600      -28.8538842264      -26.8978226129  TIP3      9827            0.0000000000
     79313     10227  TIP3      H2            -56.3745213213      -29.0263741340      -28.1696072590  TIP3      9827            0.0000000000
     79314     10228  TIP3      OH2           -48.7539224400      -28.8849677536      -25.5277074843  TIP3      9828            0.0000000000
     79315     10228  TIP3      H1            -49.0527240008      -29.0990605620      -26.4243348094  TIP3      9828            0.0000000000
     79316     10228  TIP3      H2            -47.8127744405      -29.1364663350      -25.5541668762  TIP3      9828            0.0000000000
     79317     10229  TIP3      OH2           -44.0977491022      -23.5327605780      -27.6360419928  TIP3      9829            0.0000000000
     79318     10229  TIP3      H1            -45.0209998347      -23.3408548971      -27.8764111080  TIP3      9829            0.0000000000
     79319     10229  TIP3      H2            -44.1060612858      -23.2490469619      -26.7027797024  TIP3      9829            0.0000000000
     79320     10230  TIP3      OH2           -38.4118295623      -31.3218330812      -39.2243609578  TIP3      9830            0.0000000000
     79321     10230  TIP3      H1            -38.9429086771      -31.6597582889      -39.9586946699  TIP3      9830            0.0000000000
     79322     10230  TIP3      H2            -38.3037525525      -30.3850669216      -39.5279444351  TIP3      9830            0.0000000000
     79323     10231  TIP3      OH2           -38.4169895604      -25.4846507357      -26.4052666753  TIP3      9831            0.0000000000
     79324     10231  TIP3      H1            -39.2939150609      -25.2539977284      -26.7974921499  TIP3      9831            0.0000000000
     79325     10231  TIP3      H2            -37.8485881949      -25.5097452962      -27.1998842701  TIP3      9831            0.0000000000
     79326     10232  TIP3      OH2           -40.0999953165      -22.4994318845      -38.8105613673  TIP3      9832            0.0000000000
     79327     10232  TIP3      H1            -40.4773887875      -23.3286627024      -38.4917192753  TIP3      9832            0.0000000000
     79328     10232  TIP3      H2            -39.8153885509      -22.6906634840      -39.7212936566  TIP3      9832            0.0000000000
     79329     10233  TIP3      OH2           -42.9226341009      -27.6833077204      -31.7518004948  TIP3      9833            0.0000000000
     79330     10233  TIP3      H1            -43.8654333432      -27.9189707779      -31.8190582880  TIP3      9833            0.0000000000
     79331     10233  TIP3      H2            -42.4864146300      -28.4681839838      -32.1297411326  TIP3      9833            0.0000000000
     79332     10234  TIP3      OH2           -50.3913090595      -23.3830467251      -35.6636328204  TIP3      9834            0.0000000000
     79333     10234  TIP3      H1            -49.8850070908      -22.5727568997      -35.8330694086  TIP3      9834            0.0000000000
     79334     10234  TIP3      H2            -51.2813434903      -23.1307532629      -35.9382350191  TIP3      9834            0.0000000000
     79335     10235  TIP3      OH2           -54.6051597600      -28.5006349539      -41.1046554529  TIP3      9835            0.0000000000
     79336     10235  TIP3      H1            -54.0116917891      -27.8699676407      -40.6720683880  TIP3      9835            0.0000000000
     79337     10235  TIP3      H2            -55.4831709320      -28.2082906348      -40.7817780579  TIP3      9835            0.0000000000
     79338     10236  TIP3      OH2           -48.9558249796      -25.7058566817      -36.0852545504  TIP3      9836            0.0000000000
     79339     10236  TIP3      H1            -49.2423049547      -24.7731079159      -36.0199005716  TIP3      9836            0.0000000000
     79340     10236  TIP3      H2            -49.7112499054      -26.1679498296      -35.6680113995  TIP3      9836            0.0000000000
     79341     10237  TIP3      OH2           -48.4817946314      -21.5372308741      -29.7403957124  TIP3      9837            0.0000000000
     79342     10237  TIP3      H1            -48.0774441176      -20.6956135975      -29.9932123319  TIP3      9837            0.0000000000
     79343     10237  TIP3      H2            -47.9186402645      -21.8461488017      -29.0133013531  TIP3      9837            0.0000000000
     79344     10238  TIP3      OH2           -50.2846878249      -20.6862381892      -36.5609411542  TIP3      9838            0.0000000000
     79345     10238  TIP3      H1            -51.2540429746      -20.5673851286      -36.4535025730  TIP3      9838            0.0000000000
     79346     10238  TIP3      H2            -49.9368659331      -19.8535388416      -36.1925008337  TIP3      9838            0.0000000000
     79347     10239  TIP3      OH2           -44.9431972370      -25.4753156148      -30.0662471324  TIP3      9839            0.0000000000
     79348     10239  TIP3      H1            -45.3345217610      -25.6884507312      -29.1992764916  TIP3      9839            0.0000000000
     79349     10239  TIP3      H2            -44.3345399096      -26.2078268127      -30.2401888863  TIP3      9839            0.0000000000
     79350     10240  TIP3      OH2           -42.7044381799      -24.5015105493      -40.9812754645  TIP3      9840            0.0000000000
     79351     10240  TIP3      H1            -42.3757545773      -24.9153922571      -40.1571138038  TIP3      9840            0.0000000000
     79352     10240  TIP3      H2            -43.6618231450      -24.6253874940      -40.8853881719  TIP3      9840            0.0000000000
     79353     10241  TIP3      OH2           -42.2201308271      -20.9133339484      -27.5601548395  TIP3      9841            0.0000000000
     79354     10241  TIP3      H1            -42.8623538555      -21.4368411821      -28.0848272119  TIP3      9841            0.0000000000
     79355     10241  TIP3      H2            -41.9882597127      -20.2332659883      -28.2352462998  TIP3      9841            0.0000000000
     79356     10242  TIP3      OH2           -38.1956231724      -20.0608525308      -40.7533682365  TIP3      9842            0.0000000000
     79357     10242  TIP3      H1            -37.4705837313      -19.4397867659      -40.9425099463  TIP3      9842            0.0000000000
     79358     10242  TIP3      H2            -38.9086568882      -19.4613626068      -40.4440336228  TIP3      9842            0.0000000000
     79359     10243  TIP3      OH2           -54.1190834573      -33.6677389497      -28.2006986562  TIP3      9843            0.0000000000
     79360     10243  TIP3      H1            -55.0301132528      -33.3289980610      -28.2468140087  TIP3      9843            0.0000000000
     79361     10243  TIP3      H2            -54.2206221086      -34.5232450715      -27.7515418008  TIP3      9843            0.0000000000
     79362     10244  TIP3      OH2           -41.8609119291      -25.8293925735      -38.7618796723  TIP3      9844            0.0000000000
     79363     10244  TIP3      H1            -42.1199861920      -26.5913899222      -38.2009840508  TIP3      9844            0.0000000000
     79364     10244  TIP3      H2            -40.9186964498      -25.7470190385      -38.5398673742  TIP3      9844            0.0000000000
     79365     10245  TIP3      OH2           -54.5782957335      -21.8649868581      -29.7139041413  TIP3      9845            0.0000000000
     79366     10245  TIP3      H1            -54.2075030734      -22.7722920766      -29.7916568520  TIP3      9845            0.0000000000
     79367     10245  TIP3      H2            -54.2078242521      -21.5944076838      -28.8726635394  TIP3      9845            0.0000000000
     79368     10246  TIP3      OH2           -49.7094781470      -23.8314151273      -40.0773820218  TIP3      9846            0.0000000000
     79369     10246  TIP3      H1            -49.5197024301      -24.3641556904      -39.2953496834  TIP3      9846            0.0000000000
     79370     10246  TIP3      H2            -49.6880918584      -22.9128064228      -39.7513981377  TIP3      9846            0.0000000000
     79371     10247  TIP3      OH2           -53.2288302442      -26.5923272104      -39.5710057584  TIP3      9847            0.0000000000
     79372     10247  TIP3      H1            -53.9205276442      -26.2153947874      -38.9925421434  TIP3      9847            0.0000000000
     79373     10247  TIP3      H2            -52.7017878383      -25.8137470332      -39.8171886150  TIP3      9847            0.0000000000
     79374     10248  TIP3      OH2           -45.3956374320      -33.9110261261      -29.2788967450  TIP3      9848            0.0000000000
     79375     10248  TIP3      H1            -44.6897181319      -33.8524284553      -28.6214165291  TIP3      9848            0.0000000000
     79376     10248  TIP3      H2            -45.7765637877      -34.7933928173      -29.0960366758  TIP3      9848            0.0000000000
     79377     10249  TIP3      OH2           -44.6097780437      -34.2977530766      -38.1706879231  TIP3      9849            0.0000000000
     79378     10249  TIP3      H1            -44.4201634474      -33.8289740390      -38.9896060560  TIP3      9849            0.0000000000
     79379     10249  TIP3      H2            -44.0622392958      -33.8838674305      -37.4958629094  TIP3      9849            0.0000000000
     79380     10250  TIP3      OH2           -46.9488686019      -22.1631416900      -39.3360997107  TIP3      9850            0.0000000000
     79381     10250  TIP3      H1            -47.7630772090      -21.6379993984      -39.2679479254  TIP3      9850            0.0000000000
     79382     10250  TIP3      H2            -46.4124318563      -21.6554249753      -39.9661804216  TIP3      9850            0.0000000000
     79383     10251  TIP3      OH2           -47.4067127601      -32.5676642936      -37.3532359438  TIP3      9851            0.0000000000
     79384     10251  TIP3      H1            -46.6101665268      -32.0137674511      -37.3036275006  TIP3      9851            0.0000000000
     79385     10251  TIP3      H2            -47.6663568821      -32.6951470360      -36.4259326085  TIP3      9851            0.0000000000
     79386     10252  TIP3      OH2           -46.8663393337      -31.5580006378      -28.1707531055  TIP3      9852            0.0000000000
     79387     10252  TIP3      H1            -46.7676475827      -30.9783638634      -27.3935606277  TIP3      9852            0.0000000000
     79388     10252  TIP3      H2            -46.2087073491      -32.2538079406      -28.0579942780  TIP3      9852            0.0000000000
     79389     10253  TIP3      OH2           -46.5464095950      -35.5021821761      -36.4272694526  TIP3      9853            0.0000000000
     79390     10253  TIP3      H1            -46.8768769585      -34.8552580060      -35.7800188845  TIP3      9853            0.0000000000
     79391     10253  TIP3      H2            -45.8691362833      -34.9599319265      -36.8934356060  TIP3      9853            0.0000000000
     79392     10254  TIP3      OH2           -49.6011833395      -21.1209183048      -39.3356968931  TIP3      9854            0.0000000000
     79393     10254  TIP3      H1            -49.4351791384      -20.2946568777      -39.8344391721  TIP3      9854            0.0000000000
     79394     10254  TIP3      H2            -49.8130989774      -20.7848237304      -38.4396424123  TIP3      9854            0.0000000000
     79395     10255  TIP3      OH2           -50.8862017467      -34.4235258972      -39.7323178245  TIP3      9855            0.0000000000
     79396     10255  TIP3      H1            -50.9510983713      -33.5105331393      -39.3739728699  TIP3      9855            0.0000000000
     79397     10255  TIP3      H2            -49.9775587035      -34.6566825016      -39.4710559780  TIP3      9855            0.0000000000
     79398     10256  TIP3      OH2           -40.6602650407      -33.6754455480      -27.3079677948  TIP3      9856            0.0000000000
     79399     10256  TIP3      H1            -41.5997054033      -33.3834330707      -27.4286105635  TIP3      9856            0.0000000000
     79400     10256  TIP3      H2            -40.3568645023      -33.6728667688      -28.2299879233  TIP3      9856            0.0000000000
     79401     10257  TIP3      OH2           -42.0712540297      -29.8904962093      -33.2471684578  TIP3      9857            0.0000000000
     79402     10257  TIP3      H1            -42.8807790189      -30.3285181931      -33.5667247604  TIP3      9857            0.0000000000
     79403     10257  TIP3      H2            -41.6077026632      -30.5974329104      -32.7464852420  TIP3      9857            0.0000000000
     79404     10258  TIP3      OH2           -52.6410782478      -23.9706418050      -40.6850346681  TIP3      9858            0.0000000000
     79405     10258  TIP3      H1            -52.0131674881      -23.2983482826      -40.3928819044  TIP3      9858            0.0000000000
     79406     10258  TIP3      H2            -52.1343394488      -24.4249533908      -41.3849852672  TIP3      9858            0.0000000000
     79407     10259  TIP3      OH2           -54.2841254476      -31.3088030741      -41.5139464924  TIP3      9859            0.0000000000
     79408     10259  TIP3      H1            -54.3292318265      -30.3466862917      -41.3740195119  TIP3      9859            0.0000000000
     79409     10259  TIP3      H2            -55.1666994958      -31.5278235755      -41.8405550163  TIP3      9859            0.0000000000
     79410     10260  TIP3      OH2           -40.9134546665      -20.6791045283      -31.5639095329  TIP3      9860            0.0000000000
     79411     10260  TIP3      H1            -41.1548662340      -19.9955031101      -32.2644968248  TIP3      9860            0.0000000000
     79412     10260  TIP3      H2            -39.9897467029      -20.5601792702      -31.4268376033  TIP3      9860            0.0000000000
     79413     10261  TIP3      OH2           -53.4929181715      -36.5154265629      -32.8492726062  TIP3      9861            0.0000000000
     79414     10261  TIP3      H1            -53.7200776715      -36.4853580249      -33.8039383612  TIP3      9861            0.0000000000
     79415     10261  TIP3      H2            -53.9325516817      -37.3435212192      -32.5752823841  TIP3      9861            0.0000000000
     79416     10262  TIP3      OH2           -54.5570454036      -22.6016718314      -36.6977512060  TIP3      9862            0.0000000000
     79417     10262  TIP3      H1            -55.3966208141      -22.1159650467      -36.7094318444  TIP3      9862            0.0000000000
     79418     10262  TIP3      H2            -54.0339302456      -22.0991920765      -37.3379531441  TIP3      9862            0.0000000000
     79419     10263  TIP3      OH2           -55.2625703714      -19.9746113773      -25.4263777743  TIP3      9863            0.0000000000
     79420     10263  TIP3      H1            -54.7356169860      -20.1678564567      -24.6268576276  TIP3      9863            0.0000000000
     79421     10263  TIP3      H2            -55.7592189012      -20.7841622823      -25.5591127716  TIP3      9863            0.0000000000
     79422     10264  TIP3      OH2           -50.6705070200      -21.0416579536      -23.7539379712  TIP3      9864            0.0000000000
     79423     10264  TIP3      H1            -49.9057871767      -21.5341363118      -23.4580809375  TIP3      9864            0.0000000000
     79424     10264  TIP3      H2            -50.7035252516      -21.2900433496      -24.7060431797  TIP3      9864            0.0000000000
     79425     10265  TIP3      OH2           -46.2544741520      -21.3971646443      -41.8980963746  TIP3      9865            0.0000000000
     79426     10265  TIP3      H1            -47.0527865024      -21.9844404293      -41.9653133883  TIP3      9865            0.0000000000
     79427     10265  TIP3      H2            -45.7856731672      -21.9606246924      -42.5205711221  TIP3      9865            0.0000000000
     79428     10266  TIP3      OH2           -44.1234676598      -22.6560632197      -25.0288472766  TIP3      9866            0.0000000000
     79429     10266  TIP3      H1            -44.4595760292      -23.5428143775      -24.7952903301  TIP3      9866            0.0000000000
     79430     10266  TIP3      H2            -43.3629726782      -22.5223461923      -24.4434715516  TIP3      9866            0.0000000000
     79431     10267  TIP3      OH2           -41.9810547895      -21.7346240303      -42.1724917731  TIP3      9867            0.0000000000
     79432     10267  TIP3      H1            -41.6968056260      -22.5400609872      -41.7001631194  TIP3      9867            0.0000000000
     79433     10267  TIP3      H2            -41.2165404676      -21.5116848294      -42.7185903082  TIP3      9867            0.0000000000
     79434     10268  TIP3      OH2           -55.3825086551      -26.1872112204      -24.3817724391  TIP3      9868            0.0000000000
     79435     10268  TIP3      H1            -55.2413080037      -27.0805788099      -24.7372068179  TIP3      9868            0.0000000000
     79436     10268  TIP3      H2            -56.1366082237      -25.8779483256      -24.9423124771  TIP3      9868            0.0000000000
     79437     10269  TIP3      OH2           -51.0017330433      -25.7735784012      -42.2578818737  TIP3      9869            0.0000000000
     79438     10269  TIP3      H1            -50.9529406390      -26.6082095021      -41.7771833944  TIP3      9869            0.0000000000
     79439     10269  TIP3      H2            -50.3929624395      -25.9696080929      -42.9949674549  TIP3      9869            0.0000000000
     79440     10270  TIP3      OH2           -48.6911259940      -26.1858447067      -24.9921970267  TIP3      9870            0.0000000000
     79441     10270  TIP3      H1            -49.0472281139      -25.9022525527      -25.8588477185  TIP3      9870            0.0000000000
     79442     10270  TIP3      H2            -48.5948816522      -27.1595461692      -25.0989719243  TIP3      9870            0.0000000000
     79443     10271  TIP3      OH2           -42.9955730604      -26.3077298549      -27.6080326905  TIP3      9871            0.0000000000
     79444     10271  TIP3      H1            -42.2298337459      -25.7022402953      -27.7194884050  TIP3      9871            0.0000000000
     79445     10271  TIP3      H2            -43.7288569557      -25.6787679848      -27.5701431227  TIP3      9871            0.0000000000
     79446     10272  TIP3      OH2           -54.5078696175      -28.9411897950      -24.9960753171  TIP3      9872            0.0000000000
     79447     10272  TIP3      H1            -54.1216160571      -29.8195682167      -25.1448824403  TIP3      9872            0.0000000000
     79448     10272  TIP3      H2            -54.8000550736      -28.9619619551      -24.0993265321  TIP3      9872            0.0000000000
     79449     10273  TIP3      OH2           -49.8760323540      -27.8106265137      -39.9811204954  TIP3      9873            0.0000000000
     79450     10273  TIP3      H1            -50.3505492128      -28.3333313934      -39.3131200598  TIP3      9873            0.0000000000
     79451     10273  TIP3      H2            -49.5987520677      -28.5129934491      -40.6166439327  TIP3      9873            0.0000000000
     79452     10274  TIP3      OH2           -50.5933703097      -29.9846272336      -27.6352403579  TIP3      9874            0.0000000000
     79453     10274  TIP3      H1            -51.2063330391      -29.2779967241      -27.3722437586  TIP3      9874            0.0000000000
     79454     10274  TIP3      H2            -50.2346610381      -29.6333359110      -28.4678192746  TIP3      9874            0.0000000000
     79455     10275  TIP3      OH2           -48.8073524631      -29.5988491707      -41.7332039653  TIP3      9875            0.0000000000
     79456     10275  TIP3      H1            -48.9656359823      -29.7672042259      -42.6705708154  TIP3      9875            0.0000000000
     79457     10275  TIP3      H2            -47.8306823387      -29.4996281924      -41.6690781681  TIP3      9875            0.0000000000
     79458     10276  TIP3      OH2           -45.5541726709      -27.4343066805      -24.3181774314  TIP3      9876            0.0000000000
     79459     10276  TIP3      H1            -44.5942030499      -27.4313534583      -24.4153511353  TIP3      9876            0.0000000000
     79460     10276  TIP3      H2            -45.7252516470      -28.2066957408      -23.7539183284  TIP3      9876            0.0000000000
     79461     10277  TIP3      OH2           -39.5369970686      -27.1845009097       42.7727927617  TIP3      9877            0.0000000000
     79462     10277  TIP3      H1            -39.6955334498      -27.6578233538       41.9317926542  TIP3      9877            0.0000000000
     79463     10277  TIP3      H2            -39.3810335022      -26.2751825508       42.4966071638  TIP3      9877            0.0000000000
     79464     10278  TIP3      OH2           -50.2228740404      -32.6105000057      -26.5499565117  TIP3      9878            0.0000000000
     79465     10278  TIP3      H1            -50.1023759871      -33.3343598966      -27.1916705810  TIP3      9878            0.0000000000
     79466     10278  TIP3      H2            -50.2510017554      -31.8160215195      -27.1249847899  TIP3      9878            0.0000000000
     79467     10279  TIP3      OH2           -49.8180614163      -34.2369380963      -29.0403640785  TIP3      9879            0.0000000000
     79468     10279  TIP3      H1            -49.2944479557      -33.7772196174      -29.7373160107  TIP3      9879            0.0000000000
     79469     10279  TIP3      H2            -50.6988462403      -34.3314924706      -29.4716794519  TIP3      9879            0.0000000000
     79470     10280  TIP3      OH2           -48.2575211451      -28.7846612156      -28.8066435468  TIP3      9880            0.0000000000
     79471     10280  TIP3      H1            -47.5048814221      -28.9389185651      -29.3897022240  TIP3      9880            0.0000000000
     79472     10280  TIP3      H2            -48.6055436105      -27.9309036954      -29.1127209082  TIP3      9880            0.0000000000
     79473     10281  TIP3      OH2           -43.8670619723      -30.9870145679      -23.8150322564  TIP3      9881            0.0000000000
     79474     10281  TIP3      H1            -43.6305287430      -31.9180211668      -23.8986856166  TIP3      9881            0.0000000000
     79475     10281  TIP3      H2            -42.9907038017      -30.5565400207      -23.8042653865  TIP3      9881            0.0000000000
     79476     10282  TIP3      OH2           -42.5406449873      -28.2071492798      -25.7053400175  TIP3      9882            0.0000000000
     79477     10282  TIP3      H1            -42.7870368395      -27.4719273718      -26.3062295532  TIP3      9882            0.0000000000
     79478     10282  TIP3      H2            -41.5766292896      -28.2479560889      -25.8783093386  TIP3      9882            0.0000000000
     79479     10283  TIP3      OH2           -51.7720345598      -31.3794563910      -24.6263909450  TIP3      9883            0.0000000000
     79480     10283  TIP3      H1            -52.5282921396      -31.9547273276      -24.8723313521  TIP3      9883            0.0000000000
     79481     10283  TIP3      H2            -51.0994879083      -31.7250562148      -25.2604969930  TIP3      9883            0.0000000000
     79482     10284  TIP3      OH2           -49.0181781228      -36.7942352770      -28.6288621258  TIP3      9884            0.0000000000
     79483     10284  TIP3      H1            -49.1556209513      -35.8275712781      -28.7450293266  TIP3      9884            0.0000000000
     79484     10284  TIP3      H2            -49.7732596538      -37.1477986977      -29.1287604883  TIP3      9884            0.0000000000
     79485     10285  TIP3      OH2           -47.7475091900      -32.4816810001      -25.0491012567  TIP3      9885            0.0000000000
     79486     10285  TIP3      H1            -48.0254473535      -32.6742791381      -24.1502628776  TIP3      9885            0.0000000000
     79487     10285  TIP3      H2            -48.5473191000      -32.6599625046      -25.5889250731  TIP3      9885            0.0000000000
     79488     10286  TIP3      OH2           -45.0385760515      -33.3289910932      -25.9762157916  TIP3      9886            0.0000000000
     79489     10286  TIP3      H1            -46.0011663497      -33.2934063583      -25.8505344202  TIP3      9886            0.0000000000
     79490     10286  TIP3      H2            -44.7392587129      -33.9709750934      -25.3115135628  TIP3      9886            0.0000000000
     79491     10287  TIP3      OH2           -43.4457453971      -34.6965019282      -24.0097624921  TIP3      9887            0.0000000000
     79492     10287  TIP3      H1            -43.5072909500      -35.6722179449      -23.9985136616  TIP3      9887            0.0000000000
     79493     10287  TIP3      H2            -43.7205221498      -34.4261023471      -23.1052066699  TIP3      9887            0.0000000000
     79494     10288  TIP3      OH2           -53.5921533815      -33.4445985473      -24.9269088006  TIP3      9888            0.0000000000
     79495     10288  TIP3      H1            -53.3922920761      -34.1853474931      -25.5405218807  TIP3      9888            0.0000000000
     79496     10288  TIP3      H2            -53.7208772107      -33.9280655183      -24.0850911399  TIP3      9888            0.0000000000
     79497     10289  TIP3      OH2           -48.8072417814      -37.4441696837      -25.9482489818  TIP3      9889            0.0000000000
     79498     10289  TIP3      H1            -48.1016765677      -38.1278564092      -25.9785839014  TIP3      9889            0.0000000000
     79499     10289  TIP3      H2            -48.9070675961      -37.2397578038      -26.8948454887  TIP3      9889            0.0000000000
     79500     10290  TIP3      OH2           -48.4539368334      -35.7641196670      -23.8765219518  TIP3      9890            0.0000000000
     79501     10290  TIP3      H1            -48.5892983078      -36.2968022431      -24.7042758324  TIP3      9890            0.0000000000
     79502     10290  TIP3      H2            -49.0698540179      -35.0555617176      -23.9854580291  TIP3      9890            0.0000000000
     79503     10291  TIP3      OH2           -48.9398291149      -18.9095452382      -40.7336816051  TIP3      9891            0.0000000000
     79504     10291  TIP3      H1            -47.9757328528      -18.7695862259      -40.5917197457  TIP3      9891            0.0000000000
     79505     10291  TIP3      H2            -49.1586030506      -18.2304296227      -41.3672150921  TIP3      9891            0.0000000000
     79506     10292  TIP3      OH2           -55.3335425332      -24.2865035297      -41.2346515967  TIP3      9892            0.0000000000
     79507     10292  TIP3      H1            -54.3936183136      -24.2008519687      -40.9832683755  TIP3      9892            0.0000000000
     79508     10292  TIP3      H2            -55.3200615160      -24.9466907012      -41.9292808822  TIP3      9892            0.0000000000
     79509     10293  TIP3      OH2            56.2152951594      -18.9032554788      -36.2106950496  TIP3      9893            0.0000000000
     79510     10293  TIP3      H1             55.4985843357      -19.3753649590      -36.6977024968  TIP3      9893            0.0000000000
     79511     10293  TIP3      H2             56.4996770126      -19.5783520429      -35.5710336570  TIP3      9893            0.0000000000
     79512     10294  TIP3      OH2           -55.8361693681      -20.7889996004      -34.3771983804  TIP3      9894            0.0000000000
     79513     10294  TIP3      H1            -56.1514179472      -21.6863753084      -34.1796220219  TIP3      9894            0.0000000000
     79514     10294  TIP3      H2            -55.5876671156      -20.4667009590      -33.4871802617  TIP3      9894            0.0000000000
     79515     10295  TIP3      OH2           -38.2615660301      -20.0083262957      -31.4025871772  TIP3      9895            0.0000000000
     79516     10295  TIP3      H1            -38.2796512971      -19.8151893210      -30.4517735326  TIP3      9895            0.0000000000
     79517     10295  TIP3      H2            -37.5781566579      -19.4173499239      -31.7241703563  TIP3      9895            0.0000000000
     79518     10296  TIP3      OH2           -38.7049820297      -20.4026832704      -28.4678020604  TIP3      9896            0.0000000000
     79519     10296  TIP3      H1            -39.1920501190      -21.1706969091      -28.8457289208  TIP3      9896            0.0000000000
     79520     10296  TIP3      H2            -38.1763176703      -20.8389981961      -27.7814865900  TIP3      9896            0.0000000000
     79521     10297  TIP3      OH2           -40.2573727435      -24.6295367208      -23.8207862760  TIP3      9897            0.0000000000
     79522     10297  TIP3      H1            -41.1259776182      -24.7595252931      -23.4397923376  TIP3      9897            0.0000000000
     79523     10297  TIP3      H2            -39.8757632451      -23.8794200788      -23.3863173817  TIP3      9897            0.0000000000
     79524     10298  TIP3      OH2           -38.9519994457      -26.3664956211      -38.3470088299  TIP3      9898            0.0000000000
     79525     10298  TIP3      H1            -38.0938940125      -25.9580909597      -38.1700579635  TIP3      9898            0.0000000000
     79526     10298  TIP3      H2            -38.9513052641      -27.1065519264      -37.6961144420  TIP3      9898            0.0000000000
     79527     10299  TIP3      OH2           -38.5724998809      -28.2992079448      -36.4957843423  TIP3      9899            0.0000000000
     79528     10299  TIP3      H1            -39.3114947778      -28.8045665713      -36.0928589709  TIP3      9899            0.0000000000
     79529     10299  TIP3      H2            -37.9768832958      -28.1300932423      -35.7380972300  TIP3      9899            0.0000000000
     79530     10300  TIP3      OH2           -38.8204212628      -25.5672089314      -31.5194730212  TIP3      9900            0.0000000000
     79531     10300  TIP3      H1            -37.9794192889      -25.9326783349      -31.8502484509  TIP3      9900            0.0000000000
     79532     10300  TIP3      H2            -38.6831307317      -24.6057739893      -31.6693826322  TIP3      9900            0.0000000000
     79533     10301  TIP3      OH2           -40.2830011278      -22.6771600281      -29.2221698473  TIP3      9901            0.0000000000
     79534     10301  TIP3      H1            -40.9712899327      -22.3327559105      -28.6301228912  TIP3      9901            0.0000000000
     79535     10301  TIP3      H2            -40.8377202822      -23.0835468728      -29.9306371696  TIP3      9901            0.0000000000
     79536     10302  TIP3      OH2           -38.2979082877      -28.4582230352      -40.0993398828  TIP3      9902            0.0000000000
     79537     10302  TIP3      H1            -38.8342135857      -28.0682657193      -40.8161094488  TIP3      9902            0.0000000000
     79538     10302  TIP3      H2            -38.3418873673      -27.7508406661      -39.4267458144  TIP3      9902            0.0000000000
     79539     10303  TIP3      OH2           -40.2077809482      -31.1915199076      -41.4695254500  TIP3      9903            0.0000000000
     79540     10303  TIP3      H1            -39.8409365314      -30.5730149220      -42.1533770316  TIP3      9903            0.0000000000
     79541     10303  TIP3      H2            -40.0649696709      -32.0032321918      -42.0049404942  TIP3      9903            0.0000000000
     79542     10304  TIP3      OH2           -40.7713236209      -29.8054236137      -35.9357837415  TIP3      9904            0.0000000000
     79543     10304  TIP3      H1            -40.9191331191      -30.7567291788      -35.9352571390  TIP3      9904            0.0000000000
     79544     10304  TIP3      H2            -41.1155629088      -29.5448229163      -35.0615562254  TIP3      9904            0.0000000000
     79545     10305  TIP3      OH2           -55.7383409291      -27.7275938380      -31.8767829961  TIP3      9905            0.0000000000
     79546     10305  TIP3      H1            -55.5598445804      -27.8071547397      -32.8417734607  TIP3      9905            0.0000000000
     79547     10305  TIP3      H2            -54.8586297426      -27.8686410542      -31.4911414216  TIP3      9905            0.0000000000
     79548     10306  TIP3      OH2           -39.9233823590      -27.8339170578      -26.2620600374  TIP3      9906            0.0000000000
     79549     10306  TIP3      H1            -39.3171720892      -28.5855705490      -26.0898250262  TIP3      9906            0.0000000000
     79550     10306  TIP3      H2            -39.3274239685      -27.0610057289      -26.2437706263  TIP3      9906            0.0000000000
     79551     10307  TIP3      OH2           -38.4109981681      -29.9251244581      -25.6220866195  TIP3      9907            0.0000000000
     79552     10307  TIP3      H1            -39.2920979713      -30.3332830807      -25.7603400725  TIP3      9907            0.0000000000
     79553     10307  TIP3      H2            -37.8240217560      -30.6959912924      -25.6665149493  TIP3      9907            0.0000000000
     79554     10308  TIP3      OH2           -40.7045081597      -33.7584314383      -42.4107817221  TIP3      9908            0.0000000000
     79555     10308  TIP3      H1            -40.0685384647      -34.1927921880      -41.8077768541  TIP3      9908            0.0000000000
     79556     10308  TIP3      H2            -41.5421591197      -34.2125727618      -42.2657399663  TIP3      9908            0.0000000000
     79557     10309  TIP3      OH2           -41.1082498053      -32.2338117071      -37.5295589632  TIP3      9909            0.0000000000
     79558     10309  TIP3      H1            -40.7688976217      -33.1411246582      -37.3147660553  TIP3      9909            0.0000000000
     79559     10309  TIP3      H2            -40.2915384801      -31.7952130989      -37.8262195497  TIP3      9909            0.0000000000
     79560     10310  TIP3      OH2           -40.4638964148      -31.6696926841      -32.0293948284  TIP3      9910            0.0000000000
     79561     10310  TIP3      H1            -39.5063656924      -31.4324596774      -32.0468236373  TIP3      9910            0.0000000000
     79562     10310  TIP3      H2            -40.6685006951      -31.5345961563      -31.0904888813  TIP3      9910            0.0000000000
     79563     10311  TIP3      OH2           -40.4031061489      -30.9404362599      -29.2459117385  TIP3      9911            0.0000000000
     79564     10311  TIP3      H1            -41.2723149820      -30.6454615605      -28.8955958084  TIP3      9911            0.0000000000
     79565     10311  TIP3      H2            -39.9696136471      -30.0804381168      -29.4627300192  TIP3      9911            0.0000000000
     79566     10312  TIP3      OH2           -56.1284694605      -32.4268250403      -25.7506681976  TIP3      9912            0.0000000000
     79567     10312  TIP3      H1            -55.1986273317      -32.6108159123      -25.5323949207  TIP3      9912            0.0000000000
     79568     10312  TIP3      H2            -56.5793639927      -33.2331763523      -25.4017628580  TIP3      9912            0.0000000000
     79569     10313  TIP3      OH2           -38.1532776384      -36.9285653827      -23.9117473800  TIP3      9913            0.0000000000
     79570     10313  TIP3      H1            -37.7737002493      -37.5810628640      -24.5124015034  TIP3      9913            0.0000000000
     79571     10313  TIP3      H2            -37.9935088393      -36.0754533130      -24.3487493731  TIP3      9913            0.0000000000
     79572     10314  TIP3      OH2           -40.4520077186      -34.9327393570      -37.4195796673  TIP3      9914            0.0000000000
     79573     10314  TIP3      H1            -40.2436900269      -35.3992680530      -36.5778727204  TIP3      9914            0.0000000000
     79574     10314  TIP3      H2            -41.0434692929      -35.5759739270      -37.8691933949  TIP3      9914            0.0000000000
     79575     10315  TIP3      OH2           -54.9291844093      -34.1313444689      -32.8889639984  TIP3      9915            0.0000000000
     79576     10315  TIP3      H1            -54.4825176901      -34.9442074623      -32.5774940069  TIP3      9915            0.0000000000
     79577     10315  TIP3      H2            -54.4384968198      -33.4231962526      -32.4520069892  TIP3      9915            0.0000000000
     79578     10316  TIP3      OH2           -56.5900747276      -31.1546133938      -31.7877245969  TIP3      9916            0.0000000000
     79579     10316  TIP3      H1            -56.0921499020      -31.3628803773      -32.5994355031  TIP3      9916            0.0000000000
     79580     10316  TIP3      H2            -56.2228616882      -30.2984898491      -31.5491566228  TIP3      9916            0.0000000000
     79581     10317  TIP3      OH2           -38.5992283475      -34.8071838551      -25.5384033835  TIP3      9917            0.0000000000
     79582     10317  TIP3      H1            -39.5407149845      -34.5433886450      -25.5840662149  TIP3      9917            0.0000000000
     79583     10317  TIP3      H2            -38.5251203920      -35.3514636463      -26.3340962261  TIP3      9917            0.0000000000
     79584     10318  TIP3      OH2           -38.6161914232      -34.8819622083      -40.8636154429  TIP3      9918            0.0000000000
     79585     10318  TIP3      H1            -38.1688368408      -35.6024551326      -41.3553812220  TIP3      9918            0.0000000000
     79586     10318  TIP3      H2            -37.8852040378      -34.2317468224      -40.8343834759  TIP3      9918            0.0000000000
     79587     10319  TIP3      OH2            56.5387517847      -34.8821009136      -37.7549800652  TIP3      9919            0.0000000000
     79588     10319  TIP3      H1             55.5978260676      -34.6785180946      -37.8882994381  TIP3      9919            0.0000000000
     79589     10319  TIP3      H2             56.9809870888      -34.3904383565      -38.4647885232  TIP3      9919            0.0000000000
     79590     10320  TIP3      OH2           -41.5495345602      -19.8998840449      -35.8276417194  TIP3      9920            0.0000000000
     79591     10320  TIP3      H1            -40.8675294499      -20.2462523596      -36.4189684066  TIP3      9920            0.0000000000
     79592     10320  TIP3      H2            -41.0372745776      -19.4248425517      -35.1525079923  TIP3      9920            0.0000000000
     79593     10321  TIP3      OH2            56.5283512861      -36.1881409274      -29.4472099105  TIP3      9921            0.0000000000
     79594     10321  TIP3      H1             55.8554063535      -36.3854273787      -28.7659684902  TIP3      9921            0.0000000000
     79595     10321  TIP3      H2             56.0527271968      -35.5273169497      -29.9974192957  TIP3      9921            0.0000000000
     79596     10322  TIP3      OH2           -54.1413763970      -22.9768670488      -25.2709473589  TIP3      9922            0.0000000000
     79597     10322  TIP3      H1            -54.9646928442      -22.8176126651      -25.7266620455  TIP3      9922            0.0000000000
     79598     10322  TIP3      H2            -54.3978499481      -23.0554352819      -24.3454720516  TIP3      9922            0.0000000000
     79599     10323  TIP3      OH2           -51.0117572759      -21.7714958872      -28.6446153740  TIP3      9923            0.0000000000
     79600     10323  TIP3      H1            -51.5849116935      -21.2509252433      -29.2723048564  TIP3      9923            0.0000000000
     79601     10323  TIP3      H2            -50.3044265674      -21.9261505971      -29.3123866519  TIP3      9923            0.0000000000
     79602     10324  TIP3      OH2           -46.8908481517      -20.5911594447      -26.0807069754  TIP3      9924            0.0000000000
     79603     10324  TIP3      H1            -46.7039624142      -20.9364080404      -25.1826680751  TIP3      9924            0.0000000000
     79604     10324  TIP3      H2            -46.0100766172      -20.2895387079      -26.3729336521  TIP3      9924            0.0000000000
     79605     10325  TIP3      OH2           -44.5790612045      -19.3224745764      -26.8007689321  TIP3      9925            0.0000000000
     79606     10325  TIP3      H1            -43.8599726476      -19.9299931859      -27.0550041329  TIP3      9925            0.0000000000
     79607     10325  TIP3      H2            -44.2080620850      -18.9037148013      -25.9959821383  TIP3      9925            0.0000000000
     79608     10326  TIP3      OH2           -39.5977239126      -36.7084114880      -27.7109279353  TIP3      9926            0.0000000000
     79609     10326  TIP3      H1            -40.4289100878      -36.4067081334      -28.1200002187  TIP3      9926            0.0000000000
     79610     10326  TIP3      H2            -39.4008197837      -37.5060526991      -28.2514444062  TIP3      9926            0.0000000000
     79611     10327  TIP3      OH2           -53.7882058779      -18.7555150042      -28.9828170319  TIP3      9927            0.0000000000
     79612     10327  TIP3      H1            -54.5245716489      -18.2928722608      -29.4164189670  TIP3      9927            0.0000000000
     79613     10327  TIP3      H2            -54.1461420171      -18.9833412041      -28.1105219821  TIP3      9927            0.0000000000
     79614     10328  TIP3      OH2           -51.2907070007      -19.1472460229      -29.9251263980  TIP3      9928            0.0000000000
     79615     10328  TIP3      H1            -52.1924960837      -19.0706317142      -29.5362566495  TIP3      9928            0.0000000000
     79616     10328  TIP3      H2            -51.3816860002      -18.5989996329      -30.7224254810  TIP3      9928            0.0000000000
     79617     10329  TIP3      OH2           -46.6352150978      -19.2794240764      -30.7484100234  TIP3      9929            0.0000000000
     79618     10329  TIP3      H1            -47.0612303591      -18.7292227704      -31.4239363328  TIP3      9929            0.0000000000
     79619     10329  TIP3      H2            -46.4491319374      -18.6413289059      -30.0332427273  TIP3      9929            0.0000000000
     79620     10330  TIP3      OH2           -44.3131355604      -20.4195722383      -29.7161073573  TIP3      9930            0.0000000000
     79621     10330  TIP3      H1            -45.1706436922      -20.2043840640      -30.1154217968  TIP3      9930            0.0000000000
     79622     10330  TIP3      H2            -43.8508203098      -19.5730235813      -29.8950489934  TIP3      9930            0.0000000000
     79623     10331  TIP3      OH2           -41.6953945028      -18.8541813983      -29.5015659251  TIP3      9931            0.0000000000
     79624     10331  TIP3      H1            -41.8383955367      -17.9085325939      -29.7490578352  TIP3      9931            0.0000000000
     79625     10331  TIP3      H2            -41.5289506787      -19.2373914088      -30.3915601280  TIP3      9931            0.0000000000
     79626     10332  TIP3      OH2           -54.3379352659      -20.0906619377      -32.0729563533  TIP3      9932            0.0000000000
     79627     10332  TIP3      H1            -54.3720489849      -20.5676030038      -31.2081207745  TIP3      9932            0.0000000000
     79628     10332  TIP3      H2            -53.5344644512      -20.4801798330      -32.4616159719  TIP3      9932            0.0000000000
     79629     10333  TIP3      OH2           -52.2362390838      -21.3876953404      -33.5010594525  TIP3      9933            0.0000000000
     79630     10333  TIP3      H1            -52.4336302540      -22.3139558993      -33.1965195529  TIP3      9933            0.0000000000
     79631     10333  TIP3      H2            -51.4268881383      -21.2786840603      -32.9323462791  TIP3      9933            0.0000000000
     79632     10334  TIP3      OH2           -49.6490034100      -20.9077227294      -32.5589951642  TIP3      9934            0.0000000000
     79633     10334  TIP3      H1            -49.5006588154      -21.8386624303      -32.8161240034  TIP3      9934            0.0000000000
     79634     10334  TIP3      H2            -49.6447078338      -20.9996262483      -31.5909814654  TIP3      9934            0.0000000000
     79635     10335  TIP3      OH2           -46.1889454710      -35.2724325170      -33.4002523146  TIP3      9935            0.0000000000
     79636     10335  TIP3      H1            -46.8660836145      -35.9176115232      -33.1425093602  TIP3      9935            0.0000000000
     79637     10335  TIP3      H2            -45.6313593129      -35.7832749622      -34.0011692257  TIP3      9935            0.0000000000
     79638     10336  TIP3      OH2           -41.0538961523      -37.1990317639      -33.3016698575  TIP3      9936            0.0000000000
     79639     10336  TIP3      H1            -40.4350251153      -36.6219776262      -33.8181664838  TIP3      9936            0.0000000000
     79640     10336  TIP3      H2            -41.9303294021      -36.8540365690      -33.5507849797  TIP3      9936            0.0000000000
     79641     10337  TIP3      OH2           -39.3623221676      -36.0098720034      -34.9988050457  TIP3      9937            0.0000000000
     79642     10337  TIP3      H1            -38.6945792244      -36.5524899028      -35.4824775308  TIP3      9937            0.0000000000
     79643     10337  TIP3      H2            -38.9079667892      -35.1422898427      -34.9435911858  TIP3      9937            0.0000000000
     79644     10338  TIP3      OH2           -53.8423724003      -36.6372636436      -35.5702959501  TIP3      9938            0.0000000000
     79645     10338  TIP3      H1            -54.6350287335      -36.8776065102      -36.0909894490  TIP3      9938            0.0000000000
     79646     10338  TIP3      H2            -53.3373225834      -37.4726699474      -35.5951814905  TIP3      9938            0.0000000000
     79647     10339  TIP3      OH2           -55.0217103607      -36.8769912029      -39.7897732729  TIP3      9939            0.0000000000
     79648     10339  TIP3      H1            -54.5766059678      -36.2349177035      -40.3752582981  TIP3      9939            0.0000000000
     79649     10339  TIP3      H2            -55.6454111605      -36.3185776985      -39.2953415256  TIP3      9939            0.0000000000
     79650     10340  TIP3      OH2           -49.3131114407      -36.7218258044      -35.7742675175  TIP3      9940            0.0000000000
     79651     10340  TIP3      H1            -48.4171103190      -36.3412829707      -35.8112082525  TIP3      9940            0.0000000000
     79652     10340  TIP3      H2            -49.4017926467      -36.9327386309      -34.8446978978  TIP3      9940            0.0000000000
     79653     10341  TIP3      OH2           -43.6878683211      -36.6871244966      -34.1264659954  TIP3      9941            0.0000000000
     79654     10341  TIP3      H1            -43.6621572100      -36.5960611893      -35.0843519364  TIP3      9941            0.0000000000
     79655     10341  TIP3      H2            -44.0147356402      -37.6088560118      -34.0007122302  TIP3      9941            0.0000000000
     79656     10342  TIP3      OH2           -42.3626620938      -36.6521014515      -38.4588463922  TIP3      9942            0.0000000000
     79657     10342  TIP3      H1            -43.1041327367      -36.0673615600      -38.6353044576  TIP3      9942            0.0000000000
     79658     10342  TIP3      H2            -42.8114668577      -37.5184317690      -38.2831167271  TIP3      9942            0.0000000000
     79659     10343  TIP3      OH2           -55.1026524161      -20.9284724169      -38.8467855031  TIP3      9943            0.0000000000
     79660     10343  TIP3      H1            -55.8019271995      -20.9325025828      -39.5408958561  TIP3      9943            0.0000000000
     79661     10343  TIP3      H2            -55.1227436552      -19.9870684265      -38.6172894005  TIP3      9943            0.0000000000
     79662     10344  TIP3      OH2           -53.2026168351      -34.9703941178      -41.3314327795  TIP3      9944            0.0000000000
     79663     10344  TIP3      H1            -52.6774381651      -35.5680405778      -41.8624972817  TIP3      9944            0.0000000000
     79664     10344  TIP3      H2            -52.5514316039      -34.6210445617      -40.6928569716  TIP3      9944            0.0000000000
     79665     10345  TIP3      OH2           -48.1614333940      -34.6720217403      -38.9128615476  TIP3      9945            0.0000000000
     79666     10345  TIP3      H1            -47.9464343583      -35.2783153106      -38.1840635599  TIP3      9945            0.0000000000
     79667     10345  TIP3      H2            -48.1688536086      -33.8166673966      -38.4169228018  TIP3      9945            0.0000000000
     79668     10346  TIP3      OH2           -46.2919835427      -19.5089105408      -40.3967914752  TIP3      9946            0.0000000000
     79669     10346  TIP3      H1            -45.3663097053      -19.3464074363      -40.6457564156  TIP3      9946            0.0000000000
     79670     10346  TIP3      H2            -46.4809248544      -20.0844109768      -41.1974512968  TIP3      9946            0.0000000000
     79671     10347  TIP3      OH2           -39.5552278581      -20.1182017527      -37.7695705263  TIP3      9947            0.0000000000
     79672     10347  TIP3      H1            -39.7557981699      -20.8887500688      -38.3607386934  TIP3      9947            0.0000000000
     79673     10347  TIP3      H2            -39.6157319388      -19.3762854548      -38.3977170689  TIP3      9947            0.0000000000
     79674     10348  TIP3      OH2           -53.9341497145      -36.1058171221      -26.0960913272  TIP3      9948            0.0000000000
     79675     10348  TIP3      H1            -54.2817944555      -36.8933734352      -25.6402657889  TIP3      9948            0.0000000000
     79676     10348  TIP3      H2            -53.0068299595      -36.1280289572      -25.7698188194  TIP3      9948            0.0000000000
     79677     10349  TIP3      OH2           -51.9255094265      -36.7437538736      -24.5008903519  TIP3      9949            0.0000000000
     79678     10349  TIP3      H1            -51.0379130306      -37.0779657447      -24.7166972959  TIP3      9949            0.0000000000
     79679     10349  TIP3      H2            -52.3163408268      -37.5295198087      -24.0699865010  TIP3      9949            0.0000000000
     79680     10350  TIP3      OH2           -53.2851949691      -19.9629982638      -41.8571883566  TIP3      9950            0.0000000000
     79681     10350  TIP3      H1            -53.5808965638      -19.6928840575      -40.9786047175  TIP3      9950            0.0000000000
     79682     10350  TIP3      H2            -52.5318801836      -20.5247425484      -41.6957477891  TIP3      9950            0.0000000000
     79683     10351  TIP3      OH2           -43.5164382927      -37.4257335746      -24.3355872850  TIP3      9951            0.0000000000
     79684     10351  TIP3      H1            -43.4337665453      -37.8937963466      -23.4901088201  TIP3      9951            0.0000000000
     79685     10351  TIP3      H2            -42.6058471275      -37.4546885253      -24.6895219173  TIP3      9951            0.0000000000
     79686     10352  TIP3      OH2           -40.3261130231      -21.3935514155      -25.6267081874  TIP3      9952            0.0000000000
     79687     10352  TIP3      H1            -41.1179939229      -21.5398647752      -26.1958021900  TIP3      9952            0.0000000000
     79688     10352  TIP3      H2            -40.4170902774      -20.4287357689      -25.4628488558  TIP3      9952            0.0000000000
     79689     10353  TIP3      OH2           -25.9007720026      -27.5039594866      -35.6507222583  TIP3      9953            0.0000000000
     79690     10353  TIP3      H1            -25.8588229213      -26.5303729014      -35.7508575686  TIP3      9953            0.0000000000
     79691     10353  TIP3      H2            -26.5847484958      -27.7534853309      -36.2922997886  TIP3      9953            0.0000000000
     79692     10354  TIP3      OH2           -27.0092143603      -28.2338896869      -32.1933756772  TIP3      9954            0.0000000000
     79693     10354  TIP3      H1            -27.0360648197      -28.8923998291      -31.4925616976  TIP3      9954            0.0000000000
     79694     10354  TIP3      H2            -27.3335510665      -28.7226661751      -32.9686996474  TIP3      9954            0.0000000000
     79695     10355  TIP3      OH2           -34.6500663851      -28.5988822688      -30.6341258171  TIP3      9955            0.0000000000
     79696     10355  TIP3      H1            -34.5789758294      -29.2556254460      -29.9081171176  TIP3      9955            0.0000000000
     79697     10355  TIP3      H2            -33.9187383560      -28.0010301479      -30.4248643851  TIP3      9955            0.0000000000
     79698     10356  TIP3      OH2           -23.3024885726      -25.3015961702      -33.9158570591  TIP3      9956            0.0000000000
     79699     10356  TIP3      H1            -23.7395764751      -26.0156476257      -33.4398248964  TIP3      9956            0.0000000000
     79700     10356  TIP3      H2            -23.3068702439      -24.5813046820      -33.2565468510  TIP3      9956            0.0000000000
     79701     10357  TIP3      OH2           -33.7230328580      -24.1451996570      -32.0965088500  TIP3      9957            0.0000000000
     79702     10357  TIP3      H1            -34.0609349286      -24.9864646900      -32.4542169706  TIP3      9957            0.0000000000
     79703     10357  TIP3      H2            -32.7680051126      -24.3357547040      -32.0561017991  TIP3      9957            0.0000000000
     79704     10358  TIP3      OH2           -37.0839410521      -30.5413719487      -36.6681587797  TIP3      9958            0.0000000000
     79705     10358  TIP3      H1            -37.5418051400      -29.6751301391      -36.7096290863  TIP3      9958            0.0000000000
     79706     10358  TIP3      H2            -37.6567515771      -31.0939821227      -37.2135631170  TIP3      9958            0.0000000000
     79707     10359  TIP3      OH2           -36.3930497073      -28.3414724218      -34.5409279418  TIP3      9959            0.0000000000
     79708     10359  TIP3      H1            -36.1464085928      -29.1412200048      -34.0418525005  TIP3      9959            0.0000000000
     79709     10359  TIP3      H2            -35.6579590639      -28.2547423348      -35.1683479537  TIP3      9959            0.0000000000
     79710     10360  TIP3      OH2           -26.1997236636      -20.1606985124      -33.6855980138  TIP3      9960            0.0000000000
     79711     10360  TIP3      H1            -25.5573715121      -20.8647406152      -33.9604919001  TIP3      9960            0.0000000000
     79712     10360  TIP3      H2            -26.3959856226      -20.4383060902      -32.7917536447  TIP3      9960            0.0000000000
     79713     10361  TIP3      OH2           -28.6322296482      -25.8172541701      -31.7722529956  TIP3      9961            0.0000000000
     79714     10361  TIP3      H1            -28.2968858742      -26.4849264192      -32.3923452575  TIP3      9961            0.0000000000
     79715     10361  TIP3      H2            -27.8598232140      -25.6885417058      -31.1952326122  TIP3      9961            0.0000000000
     79716     10362  TIP3      OH2           -19.9901191907      -34.2089846921      -30.9656680545  TIP3      9962            0.0000000000
     79717     10362  TIP3      H1            -19.8775076210      -33.5881054010      -30.2140603350  TIP3      9962            0.0000000000
     79718     10362  TIP3      H2            -19.4976665391      -33.7466528120      -31.6600219692  TIP3      9962            0.0000000000
     79719     10363  TIP3      OH2           -25.4706210281      -31.3842955676      -31.4373633743  TIP3      9963            0.0000000000
     79720     10363  TIP3      H1            -25.3211951322      -32.3503428356      -31.4447918914  TIP3      9963            0.0000000000
     79721     10363  TIP3      H2            -25.5751257753      -31.2219075852      -32.3977658527  TIP3      9963            0.0000000000
     79722     10364  TIP3      OH2           -32.3423472688      -33.2940851378      -34.1807172598  TIP3      9964            0.0000000000
     79723     10364  TIP3      H1            -32.2615601421      -32.4532022804      -34.6554262282  TIP3      9964            0.0000000000
     79724     10364  TIP3      H2            -32.7575917764      -33.8685822737      -34.8618142569  TIP3      9964            0.0000000000
     79725     10365  TIP3      OH2           -24.6140856627      -33.1922756562      -35.8155407941  TIP3      9965            0.0000000000
     79726     10365  TIP3      H1            -23.9436554754      -33.5131971389      -35.1656564526  TIP3      9965            0.0000000000
     79727     10365  TIP3      H2            -24.0645160159      -32.6494156579      -36.4021137310  TIP3      9965            0.0000000000
     79728     10366  TIP3      OH2           -35.7174051227      -30.8913309164      -33.4461133520  TIP3      9966            0.0000000000
     79729     10366  TIP3      H1            -35.0435337172      -31.4534085051      -33.0100161695  TIP3      9966            0.0000000000
     79730     10366  TIP3      H2            -35.6499088550      -31.1922362699      -34.3646617192  TIP3      9966            0.0000000000
     79731     10367  TIP3      OH2           -30.5511751784      -29.3342015552      -34.1898051524  TIP3      9967            0.0000000000
     79732     10367  TIP3      H1            -29.9129359127      -29.9032945494      -33.7270560440  TIP3      9967            0.0000000000
     79733     10367  TIP3      H2            -31.1109094102      -30.0018046683      -34.6367579662  TIP3      9967            0.0000000000
     79734     10368  TIP3      OH2           -19.5609812392      -32.7532284704      -28.7199018009  TIP3      9968            0.0000000000
     79735     10368  TIP3      H1            -20.2326130505      -32.0429971817      -28.8076358891  TIP3      9968            0.0000000000
     79736     10368  TIP3      H2            -19.5468543302      -32.9031520030      -27.7656215730  TIP3      9968            0.0000000000
     79737     10369  TIP3      OH2           -33.4728393893      -34.3973973645      -30.1393585277  TIP3      9969            0.0000000000
     79738     10369  TIP3      H1            -33.7314917016      -33.8403215523      -30.8988472180  TIP3      9969            0.0000000000
     79739     10369  TIP3      H2            -34.1637060212      -34.1583805734      -29.4724021130  TIP3      9969            0.0000000000
     79740     10370  TIP3      OH2           -26.1376439106      -24.9020030869      -36.5884806448  TIP3      9970            0.0000000000
     79741     10370  TIP3      H1            -26.4355326379      -25.2069973285      -37.4551647694  TIP3      9970            0.0000000000
     79742     10370  TIP3      H2            -26.4639333623      -23.9772457741      -36.5507320864  TIP3      9970            0.0000000000
     79743     10371  TIP3      OH2           -30.9300433044      -26.7415037985      -29.8695941029  TIP3      9971            0.0000000000
     79744     10371  TIP3      H1            -31.6621509727      -26.1048101875      -29.7189409171  TIP3      9971            0.0000000000
     79745     10371  TIP3      H2            -30.2248398773      -26.1508012902      -30.1730555828  TIP3      9971            0.0000000000
     79746     10372  TIP3      OH2           -22.8301467931      -33.8739748207      -33.8279852514  TIP3      9972            0.0000000000
     79747     10372  TIP3      H1            -23.0358125574      -34.6451347224      -33.2888331005  TIP3      9972            0.0000000000
     79748     10372  TIP3      H2            -22.1578587826      -33.4209502010      -33.2915041384  TIP3      9972            0.0000000000
     79749     10373  TIP3      OH2           -33.9145337866      -32.5172975075      -32.1516302455  TIP3      9973            0.0000000000
     79750     10373  TIP3      H1            -33.2726839133      -31.8534757008      -31.8038982051  TIP3      9973            0.0000000000
     79751     10373  TIP3      H2            -33.3792807816      -32.9638517843      -32.8518948647  TIP3      9973            0.0000000000
     79752     10374  TIP3      OH2           -32.5021214023      -24.7619617458      -29.0754920434  TIP3      9974            0.0000000000
     79753     10374  TIP3      H1            -32.5364537855      -23.8529356888      -29.4322315937  TIP3      9974            0.0000000000
     79754     10374  TIP3      H2            -33.3868690136      -24.8281746463      -28.6329846085  TIP3      9974            0.0000000000
     79755     10375  TIP3      OH2           -36.4140771571      -25.1103705040      -38.2814166934  TIP3      9975            0.0000000000
     79756     10375  TIP3      H1            -36.6628152100      -24.8247041139      -39.1790045559  TIP3      9975            0.0000000000
     79757     10375  TIP3      H2            -36.3530967423      -24.2548084575      -37.8017940223  TIP3      9975            0.0000000000
     79758     10376  TIP3      OH2           -22.7812829025      -23.4699016751      -31.5506810651  TIP3      9976            0.0000000000
     79759     10376  TIP3      H1            -23.7469984739      -23.3778146240      -31.4083424752  TIP3      9976            0.0000000000
     79760     10376  TIP3      H2            -22.5146466106      -22.5430530080      -31.7156364631  TIP3      9976            0.0000000000
     79761     10377  TIP3      OH2           -22.4767736729      -35.1754035264      -30.1424434502  TIP3      9977            0.0000000000
     79762     10377  TIP3      H1            -23.2118801867      -34.5523414469      -30.2043373429  TIP3      9977            0.0000000000
     79763     10377  TIP3      H2            -21.7808102566      -34.7533091989      -30.6766519400  TIP3      9977            0.0000000000
     79764     10378  TIP3      OH2           -29.4724535829      -37.0628381981      -32.6137706516  TIP3      9978            0.0000000000
     79765     10378  TIP3      H1            -29.6118066298      -38.0211030756      -32.7689337700  TIP3      9978            0.0000000000
     79766     10378  TIP3      H2            -30.3657149134      -36.7522846452      -32.4091097509  TIP3      9978            0.0000000000
     79767     10379  TIP3      OH2           -24.5375342014      -21.6816621041      -34.9320102342  TIP3      9979            0.0000000000
     79768     10379  TIP3      H1            -24.1001373605      -22.3925211697      -35.4402871254  TIP3      9979            0.0000000000
     79769     10379  TIP3      H2            -24.1705954676      -20.8770482344      -35.3523713469  TIP3      9979            0.0000000000
     79770     10380  TIP3      OH2           -23.3492547119      -23.7566058641      -36.4357123097  TIP3      9980            0.0000000000
     79771     10380  TIP3      H1            -23.6262059327      -24.4627508169      -37.0446235117  TIP3      9980            0.0000000000
     79772     10380  TIP3      H2            -23.2988947691      -24.2356519021      -35.5874062035  TIP3      9980            0.0000000000
     79773     10381  TIP3      OH2           -21.6939145001      -25.1872063790      -27.9385442046  TIP3      9981            0.0000000000
     79774     10381  TIP3      H1            -21.5494460174      -25.8086706732      -28.6852095125  TIP3      9981            0.0000000000
     79775     10381  TIP3      H2            -21.5138130775      -24.3216459155      -28.3364585592  TIP3      9981            0.0000000000
     79776     10382  TIP3      OH2           -27.2141012296      -28.2569116253      -38.1668970259  TIP3      9982            0.0000000000
     79777     10382  TIP3      H1            -27.9206770692      -27.7016255521      -38.5487427451  TIP3      9982            0.0000000000
     79778     10382  TIP3      H2            -26.5146232296      -28.1825180434      -38.8458534425  TIP3      9982            0.0000000000
     79779     10383  TIP3      OH2           -27.1708615603      -29.7662791520      -41.1239915611  TIP3      9983            0.0000000000
     79780     10383  TIP3      H1            -26.4439907603      -29.7570245858      -40.4808783601  TIP3      9983            0.0000000000
     79781     10383  TIP3      H2            -26.8468093083      -30.4041616263      -41.7724763769  TIP3      9983            0.0000000000
     79782     10384  TIP3      OH2           -19.8306221538      -28.8692006419      -29.8806919306  TIP3      9984            0.0000000000
     79783     10384  TIP3      H1            -20.4932800775      -28.1526367789      -29.8176667852  TIP3      9984            0.0000000000
     79784     10384  TIP3      H2            -19.3608092893      -28.6373384268      -30.7018311429  TIP3      9984            0.0000000000
     79785     10385  TIP3      OH2           -23.7890341116      -28.0389143785      -37.2426369226  TIP3      9985            0.0000000000
     79786     10385  TIP3      H1            -24.5346022273      -27.8087406613      -36.6402178527  TIP3      9985            0.0000000000
     79787     10385  TIP3      H2            -23.3327224901      -28.7461335655      -36.7516444104  TIP3      9985            0.0000000000
     79788     10386  TIP3      OH2           -23.8631088853      -29.8870405122      -28.1482172492  TIP3      9986            0.0000000000
     79789     10386  TIP3      H1            -23.8322778654      -29.0861150539      -27.5934895702  TIP3      9986            0.0000000000
     79790     10386  TIP3      H2            -24.4970984966      -29.5831020501      -28.8361928979  TIP3      9986            0.0000000000
     79791     10387  TIP3      OH2           -32.1558098899      -27.3875220507      -35.3364134835  TIP3      9987            0.0000000000
     79792     10387  TIP3      H1            -32.4854291458      -27.7854536797      -36.1766816874  TIP3      9987            0.0000000000
     79793     10387  TIP3      H2            -31.5533492581      -28.0895056801      -34.9983818220  TIP3      9987            0.0000000000
     79794     10388  TIP3      OH2           -30.8177887026      -23.9812348938      -32.6567459337  TIP3      9988            0.0000000000
     79795     10388  TIP3      H1            -30.8672571983      -24.5524354731      -33.4337887100  TIP3      9988            0.0000000000
     79796     10388  TIP3      H2            -30.0539242666      -24.3601115908      -32.1842471468  TIP3      9988            0.0000000000
     79797     10389  TIP3      OH2           -31.8106238296      -28.6490016971      -31.6973368273  TIP3      9989            0.0000000000
     79798     10389  TIP3      H1            -31.2385999683      -28.5255284066      -32.4784444527  TIP3      9989            0.0000000000
     79799     10389  TIP3      H2            -31.4579730223      -27.9899358894      -31.0666879545  TIP3      9989            0.0000000000
     79800     10390  TIP3      OH2           -25.4535286652      -23.0993427955      -30.9865563838  TIP3      9990            0.0000000000
     79801     10390  TIP3      H1            -25.7162989295      -22.4650732063      -30.3180978314  TIP3      9990            0.0000000000
     79802     10390  TIP3      H2            -25.6801309407      -23.9586772710      -30.5460505867  TIP3      9990            0.0000000000
     79803     10391  TIP3      OH2           -30.8855900163      -24.2347502970      -26.9865486861  TIP3      9991            0.0000000000
     79804     10391  TIP3      H1            -31.2489433840      -23.4606576744      -26.5146663545  TIP3      9991            0.0000000000
     79805     10391  TIP3      H2            -31.5666313217      -24.4047206643      -27.6814325882  TIP3      9991            0.0000000000
     79806     10392  TIP3      OH2           -24.9259438800      -28.8799839282      -39.5616699907  TIP3      9992            0.0000000000
     79807     10392  TIP3      H1            -24.3461614711      -28.7050126478      -38.7803108928  TIP3      9992            0.0000000000
     79808     10392  TIP3      H2            -24.5047254053      -28.3733542600      -40.2769776448  TIP3      9992            0.0000000000
     79809     10393  TIP3      OH2           -33.9635453146      -28.0619320136      -27.7793998621  TIP3      9993            0.0000000000
     79810     10393  TIP3      H1            -33.9165081143      -27.3838115285      -27.0741849378  TIP3      9993            0.0000000000
     79811     10393  TIP3      H2            -34.8791895132      -27.9449254712      -28.0764418631  TIP3      9993            0.0000000000
     79812     10394  TIP3      OH2           -27.1980232043      -22.1436795605      -36.1050413949  TIP3      9994            0.0000000000
     79813     10394  TIP3      H1            -26.7376207566      -21.8342084862      -35.3180633376  TIP3      9994            0.0000000000
     79814     10394  TIP3      H2            -27.7580626840      -21.3944364788      -36.3461602764  TIP3      9994            0.0000000000
     79815     10395  TIP3      OH2           -32.6515759079      -22.1710177714      -26.2310969058  TIP3      9995            0.0000000000
     79816     10395  TIP3      H1            -32.6772469631      -22.2991439206      -27.1917683943  TIP3      9995            0.0000000000
     79817     10395  TIP3      H2            -33.5878680179      -22.2965367831      -25.9742453289  TIP3      9995            0.0000000000
     79818     10396  TIP3      OH2           -21.2282856281      -37.1430707687      -39.7289360806  TIP3      9996            0.0000000000
     79819     10396  TIP3      H1            -22.1038922600      -36.9208813728      -39.3966781855  TIP3      9996            0.0000000000
     79820     10396  TIP3      H2            -20.9555142057      -36.2826274698      -40.1139411947  TIP3      9996            0.0000000000
     79821     10397  TIP3      OH2           -33.1694514882      -28.3547453177      -37.7348983518  TIP3      9997            0.0000000000
     79822     10397  TIP3      H1            -33.4648244711      -27.5753396998      -38.2520808595  TIP3      9997            0.0000000000
     79823     10397  TIP3      H2            -33.8424937688      -29.0109887071      -37.9325890851  TIP3      9997            0.0000000000
     79824     10398  TIP3      OH2           -20.0670235590      -22.7826091526      -41.3330723500  TIP3      9998            0.0000000000
     79825     10398  TIP3      H1            -19.9534330753      -21.8220320067      -41.1882112700  TIP3      9998            0.0000000000
     79826     10398  TIP3      H2            -19.1343424567      -23.0586641646      -41.4018242357  TIP3      9998            0.0000000000
     79827     10399  TIP3      OH2           -37.0817078357      -25.9526788452      -28.8876462283  TIP3      9999            0.0000000000
     79828     10399  TIP3      H1            -37.5642023032      -26.0191719990      -29.7318179348  TIP3      9999            0.0000000000
     79829     10399  TIP3      H2            -37.0541541254      -26.8925357331      -28.6288669549  TIP3      9999            0.0000000000
     79830     10400  TIP3      OH2           -37.3314283605      -23.2065091989      -32.0537306143  TIP3      10000           0.0000000000
     79831     10400  TIP3      H1            -36.3750661194      -23.3315633291      -32.0703209920  TIP3      10000           0.0000000000
     79832     10400  TIP3      H2            -37.4268155981      -22.4021655706      -31.5257376029  TIP3      10000           0.0000000000
     79833     10401  TIP3      OH2           -19.0995284636      -22.5120732993      -26.3774836795  TIP3      10001           0.0000000000
     79834     10401  TIP3      H1            -19.1936304740      -23.4766913336      -26.3961461938  TIP3      10001           0.0000000000
     79835     10401  TIP3      H2            -19.9640494466      -22.2659527061      -25.9698337228  TIP3      10001           0.0000000000
     79836     10402  TIP3      OH2           -28.1392364042      -22.9632323301      -27.5044920107  TIP3      10002           0.0000000000
     79837     10402  TIP3      H1            -28.0668746334      -22.1197510339      -26.9999249236  TIP3      10002           0.0000000000
     79838     10402  TIP3      H2            -29.0162947805      -23.3006615039      -27.2442399326  TIP3      10002           0.0000000000
     79839     10403  TIP3      OH2           -27.7258135687      -19.2089779662      -37.6884220063  TIP3      10003           0.0000000000
     79840     10403  TIP3      H1            -27.8002527852      -19.3002993788      -38.6551926606  TIP3      10003           0.0000000000
     79841     10403  TIP3      H2            -27.6911841582      -18.2406519854      -37.5610746239  TIP3      10003           0.0000000000
     79842     10404  TIP3      OH2           -34.0666951489      -20.3578744441      -35.8955141122  TIP3      10004           0.0000000000
     79843     10404  TIP3      H1            -33.9262957089      -20.7563719537      -35.0112781268  TIP3      10004           0.0000000000
     79844     10404  TIP3      H2            -34.9209880071      -20.7518763177      -36.1411418890  TIP3      10004           0.0000000000
     79845     10405  TIP3      OH2           -24.6520498263      -20.0135534234      -40.7174181553  TIP3      10005           0.0000000000
     79846     10405  TIP3      H1            -24.2312978378      -20.7841162466      -41.1552864674  TIP3      10005           0.0000000000
     79847     10405  TIP3      H2            -24.6170974767      -20.2895216607      -39.7778983088  TIP3      10005           0.0000000000
     79848     10406  TIP3      OH2           -24.9534505336      -20.0864062899      -37.9434354311  TIP3      10006           0.0000000000
     79849     10406  TIP3      H1            -25.9088781822      -20.0069490102      -37.7548003296  TIP3      10006           0.0000000000
     79850     10406  TIP3      H2            -24.6939844027      -20.8166279971      -37.3618975369  TIP3      10006           0.0000000000
     79851     10407  TIP3      OH2           -21.9628679160      -31.0368535518      -25.8902913008  TIP3      10007           0.0000000000
     79852     10407  TIP3      H1            -22.3993578026      -30.5632250171      -26.6137818160  TIP3      10007           0.0000000000
     79853     10407  TIP3      H2            -21.9415654718      -31.9501780075      -26.2068514400  TIP3      10007           0.0000000000
     79854     10408  TIP3      OH2           -34.8207946513      -24.6362129541      -27.8981018148  TIP3      10008           0.0000000000
     79855     10408  TIP3      H1            -34.6011774912      -25.0080716243      -27.0155977537  TIP3      10008           0.0000000000
     79856     10408  TIP3      H2            -35.6892245246      -25.0322699157      -28.1072593167  TIP3      10008           0.0000000000
     79857     10409  TIP3      OH2           -32.1710605387      -36.1827128300      -31.8985338531  TIP3      10009           0.0000000000
     79858     10409  TIP3      H1            -33.0589258319      -36.2692429007      -32.3138509338  TIP3      10009           0.0000000000
     79859     10409  TIP3      H2            -32.2454020857      -35.3190617211      -31.4720532184  TIP3      10009           0.0000000000
     79860     10410  TIP3      OH2           -27.5147948065      -36.4657176452      -28.5479768129  TIP3      10010           0.0000000000
     79861     10410  TIP3      H1            -27.1137805807      -36.8918615978      -27.7687965763  TIP3      10010           0.0000000000
     79862     10410  TIP3      H2            -28.4815729014      -36.6287132599      -28.4135948144  TIP3      10010           0.0000000000
     79863     10411  TIP3      OH2           -24.2050550560      -32.6799140696      -27.6771712513  TIP3      10011           0.0000000000
     79864     10411  TIP3      H1            -24.7490971370      -32.8443450050      -26.8721343003  TIP3      10011           0.0000000000
     79865     10411  TIP3      H2            -24.3766087300      -31.7573932860      -27.9161289815  TIP3      10011           0.0000000000
     79866     10412  TIP3      OH2           -23.4033327248      -27.7818285153      -41.8317440495  TIP3      10012           0.0000000000
     79867     10412  TIP3      H1            -23.3775937307      -28.0240910823      -42.7829063987  TIP3      10012           0.0000000000
     79868     10412  TIP3      H2            -22.5324670954      -27.4021033889      -41.6944241094  TIP3      10012           0.0000000000
     79869     10413  TIP3      OH2           -27.8610544610      -33.9387382854      -41.2445660065  TIP3      10013           0.0000000000
     79870     10413  TIP3      H1            -28.1523449482      -33.9604950644      -40.3104906701  TIP3      10013           0.0000000000
     79871     10413  TIP3      H2            -28.1416315941      -34.8200518472      -41.5232889985  TIP3      10013           0.0000000000
     79872     10414  TIP3      OH2           -32.0720064787      -31.2130492768      -30.7555173817  TIP3      10014           0.0000000000
     79873     10414  TIP3      H1            -32.7687520273      -31.2341274226      -30.0743236318  TIP3      10014           0.0000000000
     79874     10414  TIP3      H2            -32.0805227589      -30.2757577936      -31.0510779884  TIP3      10014           0.0000000000
     79875     10415  TIP3      OH2           -32.0947936309      -31.0102905069      -35.8542415882  TIP3      10015           0.0000000000
     79876     10415  TIP3      H1            -33.0149463285      -31.3344183268      -35.9597566562  TIP3      10015           0.0000000000
     79877     10415  TIP3      H2            -31.6813958856      -31.3724756761      -36.6628981499  TIP3      10015           0.0000000000
     79878     10416  TIP3      OH2           -26.5687142091      -30.5823795589      -37.0639083833  TIP3      10016           0.0000000000
     79879     10416  TIP3      H1            -26.9801777987      -29.7478849968      -37.3798754403  TIP3      10016           0.0000000000
     79880     10416  TIP3      H2            -25.8580471258      -30.7187565842      -37.7157312100  TIP3      10016           0.0000000000
     79881     10417  TIP3      OH2           -27.4877404352      -30.3783540048      -25.5946276285  TIP3      10017           0.0000000000
     79882     10417  TIP3      H1            -28.0385532884      -31.1250714442      -25.2776764608  TIP3      10017           0.0000000000
     79883     10417  TIP3      H2            -26.6502436331      -30.5066715547      -25.1191871981  TIP3      10017           0.0000000000
     79884     10418  TIP3      OH2           -25.5522410261      -31.1050199400      -34.2264660089  TIP3      10018           0.0000000000
     79885     10418  TIP3      H1            -25.7834100492      -30.5253113835      -34.9721351819  TIP3      10018           0.0000000000
     79886     10418  TIP3      H2            -25.4060330819      -31.9522936984      -34.6957004558  TIP3      10018           0.0000000000
     79887     10419  TIP3      OH2           -34.3854633051      -30.9054478997      -28.9693589200  TIP3      10019           0.0000000000
     79888     10419  TIP3      H1            -34.3771378404      -30.5070454798      -28.0797612798  TIP3      10019           0.0000000000
     79889     10419  TIP3      H2            -34.8582304912      -31.7365385061      -28.8225394245  TIP3      10019           0.0000000000
     79890     10420  TIP3      OH2           -30.8850513691      -33.3389766155      -41.9065468377  TIP3      10020           0.0000000000
     79891     10420  TIP3      H1            -31.4158774465      -33.9588788275      -41.3565311875  TIP3      10020           0.0000000000
     79892     10420  TIP3      H2            -31.5657014922      -33.0636837457      -42.5355053860  TIP3      10020           0.0000000000
     79893     10421  TIP3      OH2           -37.7644651507      -33.7897122223      -35.0616600287  TIP3      10021           0.0000000000
     79894     10421  TIP3      H1            -37.1003999693      -33.8267443046      -34.3460617126  TIP3      10021           0.0000000000
     79895     10421  TIP3      H2            -37.3013613334      -34.2053523788      -35.8135835259  TIP3      10021           0.0000000000
     79896     10422  TIP3      OH2           -36.4723775563      -33.0717817557      -39.6556639421  TIP3      10022           0.0000000000
     79897     10422  TIP3      H1            -35.9936176432      -32.4580495039      -40.2546988783  TIP3      10022           0.0000000000
     79898     10422  TIP3      H2            -37.1743473545      -32.4786586193      -39.3228899193  TIP3      10022           0.0000000000
     79899     10423  TIP3      OH2           -26.3154863432      -29.4822943543      -29.6132390401  TIP3      10023           0.0000000000
     79900     10423  TIP3      H1            -25.9694506634      -30.1491526323      -30.2355778752  TIP3      10023           0.0000000000
     79901     10423  TIP3      H2            -26.7648838422      -30.0280644348      -28.9435321988  TIP3      10023           0.0000000000
     79902     10424  TIP3      OH2           -29.5175218430      -33.5157745016      -34.8089103247  TIP3      10024           0.0000000000
     79903     10424  TIP3      H1            -30.4579597937      -33.5238861579      -34.5236008410  TIP3      10024           0.0000000000
     79904     10424  TIP3      H2            -29.0324211680      -33.6571090628      -33.9871887462  TIP3      10024           0.0000000000
     79905     10425  TIP3      OH2           -34.7083004050      -31.9324383031      -35.9579656720  TIP3      10025           0.0000000000
     79906     10425  TIP3      H1            -35.6013539596      -31.8332608541      -36.3326014179  TIP3      10025           0.0000000000
     79907     10425  TIP3      H2            -34.4099205938      -32.7908069426      -36.3351491808  TIP3      10025           0.0000000000
     79908     10426  TIP3      OH2           -31.0620837761      -31.9193900453      -38.3128711880  TIP3      10026           0.0000000000
     79909     10426  TIP3      H1            -30.1093226303      -31.8098877943      -38.1413919381  TIP3      10026           0.0000000000
     79910     10426  TIP3      H2            -31.2858055161      -31.2609960482      -38.9870421602  TIP3      10026           0.0000000000
     79911     10427  TIP3      OH2           -25.1173033922      -34.3095650393      -31.5590030160  TIP3      10027           0.0000000000
     79912     10427  TIP3      H1            -25.8110296580      -34.2112170180      -30.8731262362  TIP3      10027           0.0000000000
     79913     10427  TIP3      H2            -25.6262967049      -34.5076106132      -32.3593318612  TIP3      10027           0.0000000000
     79914     10428  TIP3      OH2           -32.3771881884      -30.7440220946      -40.7327311593  TIP3      10028           0.0000000000
     79915     10428  TIP3      H1            -32.9252004575      -31.1167708307      -41.4451042851  TIP3      10028           0.0000000000
     79916     10428  TIP3      H2            -31.5456591637      -30.5439636299      -41.1908529845  TIP3      10028           0.0000000000
     79917     10429  TIP3      OH2           -21.8876094324      -18.6531177664      -25.2432135931  TIP3      10029           0.0000000000
     79918     10429  TIP3      H1            -21.6371841985      -18.2398856095      -26.0935993342  TIP3      10029           0.0000000000
     79919     10429  TIP3      H2            -21.1789622950      -18.3182991323      -24.6660164015  TIP3      10029           0.0000000000
     79920     10430  TIP3      OH2           -34.2291719794      -26.1934584200      -25.6773447725  TIP3      10030           0.0000000000
     79921     10430  TIP3      H1            -33.5148310751      -25.9213950532      -25.0777916572  TIP3      10030           0.0000000000
     79922     10430  TIP3      H2            -35.0192984779      -26.0197834198      -25.1134357236  TIP3      10030           0.0000000000
     79923     10431  TIP3      OH2           -28.2278444226      -30.7675413489      -32.9196667881  TIP3      10031           0.0000000000
     79924     10431  TIP3      H1            -27.6455850232      -31.3151107140      -33.4622042087  TIP3      10031           0.0000000000
     79925     10431  TIP3      H2            -28.3688372265      -31.3061097008      -32.1302489103  TIP3      10031           0.0000000000
     79926     10432  TIP3      OH2           -33.5381994392      -34.4213507219      -36.5775782705  TIP3      10032           0.0000000000
     79927     10432  TIP3      H1            -33.5417105265      -35.4241723192      -36.5045321959  TIP3      10032           0.0000000000
     79928     10432  TIP3      H2            -32.6069412506      -34.5642812599      -36.9679995952  TIP3      10032           0.0000000000
     79929     10433  TIP3      OH2           -29.5904298795      -32.4157349871      -30.5108986575  TIP3      10033           0.0000000000
     79930     10433  TIP3      H1            -30.4272582288      -31.9237971939      -30.4010409995  TIP3      10033           0.0000000000
     79931     10433  TIP3      H2            -29.0531600106      -32.0969125944      -29.7583743115  TIP3      10033           0.0000000000
     79932     10434  TIP3      OH2           -29.0149910602      -26.1885827156      -38.8131598426  TIP3      10034           0.0000000000
     79933     10434  TIP3      H1            -29.7998566680      -26.6859302592      -39.1365942577  TIP3      10034           0.0000000000
     79934     10434  TIP3      H2            -29.2008625003      -26.1212452073      -37.8564814007  TIP3      10034           0.0000000000
     79935     10435  TIP3      OH2           -21.8637160235      -27.0366209727      -30.0120261185  TIP3      10035           0.0000000000
     79936     10435  TIP3      H1            -21.2589558758      -26.5626050162      -30.6066095902  TIP3      10035           0.0000000000
     79937     10435  TIP3      H2            -22.7122610523      -26.9376740755      -30.4937707537  TIP3      10035           0.0000000000
     79938     10436  TIP3      OH2           -25.1427028787      -33.4045306340      -40.6119042620  TIP3      10036           0.0000000000
     79939     10436  TIP3      H1            -26.0880185559      -33.2480490600      -40.7881570100  TIP3      10036           0.0000000000
     79940     10436  TIP3      H2            -24.8515566221      -32.5161993257      -40.3130890483  TIP3      10036           0.0000000000
     79941     10437  TIP3      OH2           -27.5221139033      -25.9760864870      -27.5796967048  TIP3      10037           0.0000000000
     79942     10437  TIP3      H1            -27.8667252990      -26.3720446742      -26.7714486999  TIP3      10037           0.0000000000
     79943     10437  TIP3      H2            -27.7410853148      -25.0436946283      -27.4929974276  TIP3      10037           0.0000000000
     79944     10438  TIP3      OH2           -24.4353263565      -31.4881181886      -38.9568708503  TIP3      10038           0.0000000000
     79945     10438  TIP3      H1            -23.5261452073      -31.6220014783      -38.6261471999  TIP3      10038           0.0000000000
     79946     10438  TIP3      H2            -24.3657284518      -30.6860231515      -39.4933426383  TIP3      10038           0.0000000000
     79947     10439  TIP3      OH2           -33.9160101942      -26.8504462301      -33.0282506123  TIP3      10039           0.0000000000
     79948     10439  TIP3      H1            -33.1862195463      -26.8931438889      -33.6750226167  TIP3      10039           0.0000000000
     79949     10439  TIP3      H2            -33.8388083908      -27.7008725057      -32.5631547502  TIP3      10039           0.0000000000
     79950     10440  TIP3      OH2           -26.9015959384      -24.7268850384      -39.7822693394  TIP3      10040           0.0000000000
     79951     10440  TIP3      H1            -27.2376327755      -23.8903546054      -39.4096177356  TIP3      10040           0.0000000000
     79952     10440  TIP3      H2            -27.6388954665      -25.3464930958      -39.5865702894  TIP3      10040           0.0000000000
     79953     10441  TIP3      OH2           -36.9153073628      -28.4060734085      -27.7411762021  TIP3      10041           0.0000000000
     79954     10441  TIP3      H1            -36.7034242473      -28.8489962880      -26.8982871523  TIP3      10041           0.0000000000
     79955     10441  TIP3      H2            -37.5228528888      -29.0353747597      -28.1680788944  TIP3      10041           0.0000000000
     79956     10442  TIP3      OH2           -29.9013225387      -28.8881168051      -25.5283628052  TIP3      10042           0.0000000000
     79957     10442  TIP3      H1            -30.1966538724      -29.0991252158      -26.4263755275  TIP3      10042           0.0000000000
     79958     10442  TIP3      H2            -28.9568331977      -29.1374861416      -25.5498605737  TIP3      10042           0.0000000000
     79959     10443  TIP3      OH2           -25.2418458384      -23.5308415858      -27.6386685441  TIP3      10043           0.0000000000
     79960     10443  TIP3      H1            -26.1665011824      -23.3406039770      -27.8763248300  TIP3      10043           0.0000000000
     79961     10443  TIP3      H2            -25.2478512521      -23.2511218813      -26.7022851915  TIP3      10043           0.0000000000
     79962     10444  TIP3      OH2           -19.7803437117      -31.3526109540      -38.9496448352  TIP3      10044           0.0000000000
     79963     10444  TIP3      H1            -20.0548517211      -31.6561095004      -39.8708606386  TIP3      10044           0.0000000000
     79964     10444  TIP3      H2            -19.4557011221      -30.4986305996      -39.4538173194  TIP3      10044           0.0000000000
     79965     10445  TIP3      OH2           -19.5660644410      -25.4787350536      -26.4075045326  TIP3      10045           0.0000000000
     79966     10445  TIP3      H1            -20.4450753055      -25.2539928737      -26.7968680546  TIP3      10045           0.0000000000
     79967     10445  TIP3      H2            -18.9939793037      -25.5145944122      -27.2011784722  TIP3      10045           0.0000000000
     79968     10446  TIP3      OH2           -21.2451819168      -22.5008712997      -38.8119785019  TIP3      10046           0.0000000000
     79969     10446  TIP3      H1            -21.6210571449      -23.3293793501      -38.4918199839  TIP3      10046           0.0000000000
     79970     10446  TIP3      H2            -20.9591767692      -22.6913539880      -39.7218533699  TIP3      10046           0.0000000000
     79971     10447  TIP3      OH2           -24.0663543065      -27.6838810734      -31.7520076908  TIP3      10047           0.0000000000
     79972     10447  TIP3      H1            -25.0093648294      -27.9189835237      -31.8192552798  TIP3      10047           0.0000000000
     79973     10447  TIP3      H2            -23.6305973107      -28.4685066534      -32.1304093308  TIP3      10047           0.0000000000
     79974     10448  TIP3      OH2           -31.5354237551      -23.3694528724      -35.6355767509  TIP3      10048           0.0000000000
     79975     10448  TIP3      H1            -31.0217860739      -22.5727834386      -35.8423377261  TIP3      10048           0.0000000000
     79976     10448  TIP3      H2            -32.4182785849      -23.1308485902      -35.9517830533  TIP3      10048           0.0000000000
     79977     10449  TIP3      OH2           -35.7937864003      -28.5088289122      -41.0745422528  TIP3      10049           0.0000000000
     79978     10449  TIP3      H1            -35.1683196054      -27.8752106607      -40.6775219898  TIP3      10049           0.0000000000
     79979     10449  TIP3      H2            -36.6603302269      -28.1957365775      -40.7763122537  TIP3      10049           0.0000000000
     79980     10450  TIP3      OH2           -30.1012660137      -25.7050947485      -36.0852439960  TIP3      10050           0.0000000000
     79981     10450  TIP3      H1            -30.3852112707      -24.7730833649      -36.0195944188  TIP3      10050           0.0000000000
     79982     10450  TIP3      H2            -30.8545342221      -26.1689050682      -35.6671797865  TIP3      10050           0.0000000000
     79983     10451  TIP3      OH2           -29.6413982401      -21.5365854692      -29.7339539906  TIP3      10051           0.0000000000
     79984     10451  TIP3      H1            -29.2249268861      -20.6975174549      -29.9875896703  TIP3      10051           0.0000000000
     79985     10451  TIP3      H2            -29.0565149719      -21.8452097360      -29.0165025933  TIP3      10051           0.0000000000
     79986     10452  TIP3      OH2           -31.4295727060      -20.6923559945      -36.5501835315  TIP3      10052           0.0000000000
     79987     10452  TIP3      H1            -32.3978844366      -20.5651574473      -36.4565501052  TIP3      10052           0.0000000000
     79988     10452  TIP3      H2            -31.0793988674      -19.8548065591      -36.1923844682  TIP3      10052           0.0000000000
     79989     10453  TIP3      OH2           -26.0868396876      -25.4721421017      -30.0703054387  TIP3      10053           0.0000000000
     79990     10453  TIP3      H1            -26.4778231296      -25.6869888983      -29.2017762960  TIP3      10053           0.0000000000
     79991     10453  TIP3      H2            -25.4788899023      -26.2069250639      -30.2407128819  TIP3      10053           0.0000000000
     79992     10454  TIP3      OH2           -23.8485373228      -24.5005890176      -40.9808632891  TIP3      10054           0.0000000000
     79993     10454  TIP3      H1            -23.5197518229      -24.9156844601      -40.1573507584  TIP3      10054           0.0000000000
     79994     10454  TIP3      H2            -24.8057696553      -24.6257474589      -40.8855791958  TIP3      10054           0.0000000000
     79995     10455  TIP3      OH2           -23.3640140563      -20.9153550075      -27.5703821571  TIP3      10055           0.0000000000
     79996     10455  TIP3      H1            -24.0074986745      -21.4426781764      -28.0831120855  TIP3      10055           0.0000000000
     79997     10455  TIP3      H2            -23.1281582397      -20.2298436924      -28.2309836692  TIP3      10055           0.0000000000
     79998     10456  TIP3      OH2           -19.3398998930      -20.0606246247      -40.7535263795  TIP3      10056           0.0000000000
     79999     10456  TIP3      H1            -18.6146005397      -19.4397655322      -40.9425075104  TIP3      10056           0.0000000000
     80000     10456  TIP3      H2            -20.0525172281      -19.4614302743      -40.4438768916  TIP3      10056           0.0000000000
     80001     10457  TIP3      OH2           -35.2648778545      -33.6707586051      -28.1964442292  TIP3      10057           0.0000000000
     80002     10457  TIP3      H1            -36.1750117708      -33.3267083071      -28.2348642059  TIP3      10057           0.0000000000
     80003     10457  TIP3      H2            -35.3745557245      -34.5230016358      -27.7461489612  TIP3      10057           0.0000000000
     80004     10458  TIP3      OH2           -23.0046534106      -25.8300339446      -38.7608299838  TIP3      10058           0.0000000000
     80005     10458  TIP3      H1            -23.2588788000      -26.5989580717      -38.2053020640  TIP3      10058           0.0000000000
     80006     10458  TIP3      H2            -22.0612973021      -25.7423436143      -38.5398523243  TIP3      10058           0.0000000000
     80007     10459  TIP3      OH2           -35.6283069922      -21.8668501755      -29.7605003381  TIP3      10059           0.0000000000
     80008     10459  TIP3      H1            -35.3843107444      -22.8067956448      -29.7657267092  TIP3      10059           0.0000000000
     80009     10459  TIP3      H2            -35.3789012476      -21.5974439191      -28.8676420253  TIP3      10059           0.0000000000
     80010     10460  TIP3      OH2           -30.8528810515      -23.8307771394      -40.0769559071  TIP3      10060           0.0000000000
     80011     10460  TIP3      H1            -30.6637205981      -24.3643257298      -39.2954839155  TIP3      10060           0.0000000000
     80012     10460  TIP3      H2            -30.8266598627      -22.9127035726      -39.7499122373  TIP3      10060           0.0000000000
     80013     10461  TIP3      OH2           -34.3888466928      -26.5898912311      -39.5859006499  TIP3      10061           0.0000000000
     80014     10461  TIP3      H1            -35.0654439077      -26.2075009876      -38.9930843092  TIP3      10061           0.0000000000
     80015     10461  TIP3      H2            -33.8432748443      -25.8188441018      -39.8167395734  TIP3      10061           0.0000000000
     80016     10462  TIP3      OH2           -26.5384363458      -33.9096433100      -29.2801479657  TIP3      10062           0.0000000000
     80017     10462  TIP3      H1            -25.8336177053      -33.8523247350      -28.6214726612  TIP3      10062           0.0000000000
     80018     10462  TIP3      H2            -26.9204347270      -34.7928327316      -29.0963758566  TIP3      10062           0.0000000000
     80019     10463  TIP3      OH2           -25.7546028082      -34.3169222098      -38.1718167762  TIP3      10063           0.0000000000
     80020     10463  TIP3      H1            -25.5411880075      -33.8087130624      -38.9844507290  TIP3      10063           0.0000000000
     80021     10463  TIP3      H2            -25.2069909920      -33.8674779502      -37.5135571226  TIP3      10063           0.0000000000
     80022     10464  TIP3      OH2           -28.0907569885      -22.1583231173      -39.3275647104  TIP3      10064           0.0000000000
     80023     10464  TIP3      H1            -28.9103577445      -21.6399080496      -39.2751045923  TIP3      10064           0.0000000000
     80024     10464  TIP3      H2            -27.5569202037      -21.6563707293      -39.9653601795  TIP3      10064           0.0000000000
     80025     10465  TIP3      OH2           -28.5605268789      -32.5495970110      -37.3504809904  TIP3      10065           0.0000000000
     80026     10465  TIP3      H1            -27.7478405672      -32.0223200416      -37.3066663141  TIP3      10065           0.0000000000
     80027     10465  TIP3      H2            -28.8181017358      -32.7106040441      -36.4264663411  TIP3      10065           0.0000000000
     80028     10466  TIP3      OH2           -28.0104453619      -31.5592223086      -28.1695659068  TIP3      10066           0.0000000000
     80029     10466  TIP3      H1            -27.9123528905      -30.9828103155      -27.3873788892  TIP3      10066           0.0000000000
     80030     10466  TIP3      H2            -27.3541837850      -32.2559780975      -28.0509522772  TIP3      10066           0.0000000000
     80031     10467  TIP3      OH2           -27.6629724090      -35.4947058490      -36.4296411537  TIP3      10067           0.0000000000
     80032     10467  TIP3      H1            -28.0322506571      -34.8660678374      -35.7873409233  TIP3      10067           0.0000000000
     80033     10467  TIP3      H2            -27.0136463906      -34.9371684628      -36.8962388201  TIP3      10067           0.0000000000
     80034     10468  TIP3      OH2           -30.7450326043      -21.1209533513      -39.3355022325  TIP3      10068           0.0000000000
     80035     10468  TIP3      H1            -30.5789871421      -20.2946157435      -39.8344567159  TIP3      10068           0.0000000000
     80036     10468  TIP3      H2            -30.9576516392      -20.7849907449      -38.4397496531  TIP3      10068           0.0000000000
     80037     10469  TIP3      OH2           -32.0196513618      -34.4098182850      -39.7687632899  TIP3      10069           0.0000000000
     80038     10469  TIP3      H1            -32.0999200299      -33.5181579869      -39.3647951397  TIP3      10069           0.0000000000
     80039     10469  TIP3      H2            -31.1319356644      -34.6691536061      -39.4516126700  TIP3      10069           0.0000000000
     80040     10470  TIP3      OH2           -21.8045491614      -33.6812063791      -27.3139135397  TIP3      10070           0.0000000000
     80041     10470  TIP3      H1            -22.7435494502      -33.3834371133      -27.4292115672  TIP3      10070           0.0000000000
     80042     10470  TIP3      H2            -21.5007429365      -33.6725530069      -28.2335101375  TIP3      10070           0.0000000000
     80043     10471  TIP3      OH2           -23.2149213093      -29.8937002438      -33.2603217216  TIP3      10071           0.0000000000
     80044     10471  TIP3      H1            -24.0274808866      -30.3307418000      -33.5672619625  TIP3      10071           0.0000000000
     80045     10471  TIP3      H2            -22.7512292990      -30.5967328456      -32.7526967886  TIP3      10071           0.0000000000
     80046     10472  TIP3      OH2           -33.7829054078      -23.9752837186      -40.6762880927  TIP3      10072           0.0000000000
     80047     10472  TIP3      H1            -33.1581523023      -23.2994618695      -40.3910128861  TIP3      10072           0.0000000000
     80048     10472  TIP3      H2            -33.2842703801      -24.4222284804      -41.3869615164  TIP3      10072           0.0000000000
     80049     10473  TIP3      OH2           -35.4273006654      -31.3088807589      -41.5238710938  TIP3      10073           0.0000000000
     80050     10473  TIP3      H1            -35.4730946246      -30.3492929853      -41.3769588265  TIP3      10073           0.0000000000
     80051     10473  TIP3      H2            -36.3142083386      -31.5304380989      -41.8368813068  TIP3      10073           0.0000000000
     80052     10474  TIP3      OH2           -22.1451717076      -20.6554127604      -31.6101291292  TIP3      10074           0.0000000000
     80053     10474  TIP3      H1            -22.2632608296      -19.9614321930      -32.2888446877  TIP3      10074           0.0000000000
     80054     10474  TIP3      H2            -21.1844971708      -20.5762587026      -31.4259729398  TIP3      10074           0.0000000000
     80055     10475  TIP3      OH2           -34.6471760080      -36.5141936718      -32.8406747038  TIP3      10075           0.0000000000
     80056     10475  TIP3      H1            -34.8535124276      -36.4822738654      -33.8050937120  TIP3      10075           0.0000000000
     80057     10475  TIP3      H2            -35.0811269771      -37.3464752822      -32.5722069716  TIP3      10075           0.0000000000
     80058     10476  TIP3      OH2           -35.6961855950      -22.5992001990      -36.6964544831  TIP3      10076           0.0000000000
     80059     10476  TIP3      H1            -36.5407335656      -22.1233035661      -36.7013014328  TIP3      10076           0.0000000000
     80060     10476  TIP3      H2            -35.1813576585      -22.0950048537      -37.3395535354  TIP3      10076           0.0000000000
     80061     10477  TIP3      OH2           -36.4468451037      -19.9668956250      -25.3951127118  TIP3      10077           0.0000000000
     80062     10477  TIP3      H1            -35.8676569629      -20.1767846458      -24.6347608924  TIP3      10077           0.0000000000
     80063     10477  TIP3      H2            -36.8973415971      -20.8017016182      -25.5784629932  TIP3      10077           0.0000000000
     80064     10478  TIP3      OH2           -31.8281753593      -21.0483964216      -23.7590312438  TIP3      10078           0.0000000000
     80065     10478  TIP3      H1            -31.0452937063      -21.5142984683      -23.4432802454  TIP3      10078           0.0000000000
     80066     10478  TIP3      H2            -31.8439444092      -21.2854766281      -24.7009682139  TIP3      10078           0.0000000000
     80067     10479  TIP3      OH2           -27.3986513668      -21.3974301821      -41.8977369554  TIP3      10079           0.0000000000
     80068     10479  TIP3      H1            -28.1969778430      -21.9844163008      -41.9661079268  TIP3      10079           0.0000000000
     80069     10479  TIP3      H2            -26.9295839404      -21.9605416895      -42.5206010262  TIP3      10079           0.0000000000
     80070     10480  TIP3      OH2           -25.2588333767      -22.6571335909      -25.0485779697  TIP3      10080           0.0000000000
     80071     10480  TIP3      H1            -25.6007932979      -23.5379850227      -24.7785910465  TIP3      10080           0.0000000000
     80072     10480  TIP3      H2            -24.5150960458      -22.5327103898      -24.4325853193  TIP3      10080           0.0000000000
     80073     10481  TIP3      OH2           -23.1251768242      -21.7340504292      -42.1721516917  TIP3      10081           0.0000000000
     80074     10481  TIP3      H1            -22.8410209397      -22.5399267192      -41.7002746934  TIP3      10081           0.0000000000
     80075     10481  TIP3      H2            -22.3605829833      -21.5120114170      -42.7185752069  TIP3      10081           0.0000000000
     80076     10482  TIP3      OH2           -36.5258221231      -26.1633947320      -24.4139858283  TIP3      10082           0.0000000000
     80077     10482  TIP3      H1            -36.3847291505      -27.0796780712      -24.7184596333  TIP3      10082           0.0000000000
     80078     10482  TIP3      H2            -37.2996478372      -25.8964447934      -24.9350599498  TIP3      10082           0.0000000000
     80079     10483  TIP3      OH2           -32.1478196482      -25.7750597981      -42.2609764985  TIP3      10083           0.0000000000
     80080     10483  TIP3      H1            -32.0963957717      -26.6081447153      -41.7775787642  TIP3      10083           0.0000000000
     80081     10483  TIP3      H2            -31.5369000220      -25.9681707327      -42.9984340226  TIP3      10083           0.0000000000
     80082     10484  TIP3      OH2           -29.8470761830      -26.1868462818      -25.0042378896  TIP3      10084           0.0000000000
     80083     10484  TIP3      H1            -30.1939733682      -25.9028723927      -25.8668621399  TIP3      10084           0.0000000000
     80084     10484  TIP3      H2            -29.7372412250      -27.1574798906      -25.0890327541  TIP3      10084           0.0000000000
     80085     10485  TIP3      OH2           -24.1407854767      -26.3087530215      -27.6160882050  TIP3      10085           0.0000000000
     80086     10485  TIP3      H1            -23.3738803173      -25.7021455893      -27.7153131796  TIP3      10085           0.0000000000
     80087     10485  TIP3      H2            -24.8718364414      -25.6783408279      -27.5657229607  TIP3      10085           0.0000000000
     80088     10486  TIP3      OH2           -35.6668539621      -28.9519396776      -25.0151835491  TIP3      10086           0.0000000000
     80089     10486  TIP3      H1            -35.2642694152      -29.8215369776      -25.1211562061  TIP3      10086           0.0000000000
     80090     10486  TIP3      H2            -35.9365571086      -28.9573196838      -24.0901323335  TIP3      10086           0.0000000000
     80091     10487  TIP3      OH2           -31.0194340919      -27.8110630667      -39.9803058382  TIP3      10087           0.0000000000
     80092     10487  TIP3      H1            -31.4943617452      -28.3335835443      -39.3131470158  TIP3      10087           0.0000000000
     80093     10487  TIP3      H2            -30.7426634442      -28.5129397559      -40.6166227080  TIP3      10087           0.0000000000
     80094     10488  TIP3      OH2           -31.7378694424      -29.9847174785      -27.6346579654  TIP3      10088           0.0000000000
     80095     10488  TIP3      H1            -32.3536490878      -29.2806178284      -27.3672428262  TIP3      10088           0.0000000000
     80096     10488  TIP3      H2            -31.3792530682      -29.6329405716      -28.4674044257  TIP3      10088           0.0000000000
     80097     10489  TIP3      OH2           -29.9551379549      -29.5948521794      -41.7348743585  TIP3      10089           0.0000000000
     80098     10489  TIP3      H1            -30.1051652036      -29.7683122816      -42.6722377978  TIP3      10089           0.0000000000
     80099     10489  TIP3      H2            -28.9768791765      -29.5004676591      -41.6674080746  TIP3      10089           0.0000000000
     80100     10490  TIP3      OH2           -26.7010109438      -27.4535944256      -24.3407290595  TIP3      10090           0.0000000000
     80101     10490  TIP3      H1            -25.7380736755      -27.4232469842      -24.3961742408  TIP3      10090           0.0000000000
     80102     10490  TIP3      H2            -26.8665340830      -28.1870928383      -23.7266708961  TIP3      10090           0.0000000000
     80103     10491  TIP3      OH2           -20.6877474991      -27.1811308390       42.7699127753  TIP3      10091           0.0000000000
     80104     10491  TIP3      H1            -20.8356592932      -27.6631547120       41.9334768794  TIP3      10091           0.0000000000
     80105     10491  TIP3      H2            -20.5183722543      -26.2786358035       42.4950378317  TIP3      10091           0.0000000000
     80106     10492  TIP3      OH2           -31.3580629648      -32.6177264222      -26.5480552805  TIP3      10092           0.0000000000
     80107     10492  TIP3      H1            -31.2445254976      -33.3338255390      -27.1980570857  TIP3      10092           0.0000000000
     80108     10492  TIP3      H2            -31.3980285138      -31.8184818779      -27.1196919616  TIP3      10092           0.0000000000
     80109     10493  TIP3      OH2           -30.9617057468      -34.2369059852      -29.0401204201  TIP3      10093           0.0000000000
     80110     10493  TIP3      H1            -30.4384890675      -33.7774361106      -29.7373199981  TIP3      10093           0.0000000000
     80111     10493  TIP3      H2            -31.8426877990      -34.3323720070      -29.4717235447  TIP3      10093           0.0000000000
     80112     10494  TIP3      OH2           -29.4020175716      -28.7843203699      -28.8069808630  TIP3      10094           0.0000000000
     80113     10494  TIP3      H1            -28.6488479300      -28.9389964750      -29.3895265524  TIP3      10094           0.0000000000
     80114     10494  TIP3      H2            -29.7493402619      -27.9307719069      -29.1127476817  TIP3      10094           0.0000000000
     80115     10495  TIP3      OH2           -25.0051427763      -30.9889518327      -23.8222631086  TIP3      10095           0.0000000000
     80116     10495  TIP3      H1            -24.7768659218      -31.9194280034      -23.8973241768  TIP3      10095           0.0000000000
     80117     10495  TIP3      H2            -24.1323239979      -30.5538074834      -23.7896437797  TIP3      10095           0.0000000000
     80118     10496  TIP3      OH2           -23.6797695532      -28.2102743763      -25.7164163860  TIP3      10096           0.0000000000
     80119     10496  TIP3      H1            -23.9307858925      -27.4698623147      -26.3058920554  TIP3      10096           0.0000000000
     80120     10496  TIP3      H2            -22.7140219112      -28.2467312880      -25.8777391608  TIP3      10096           0.0000000000
     80121     10497  TIP3      OH2           -32.8969944361      -31.3938803828      -24.6305304328  TIP3      10097           0.0000000000
     80122     10497  TIP3      H1            -33.6788754746      -31.9444993013      -24.8558620353  TIP3      10097           0.0000000000
     80123     10497  TIP3      H2            -32.2416705946      -31.7272211030      -25.2696743911  TIP3      10097           0.0000000000
     80124     10498  TIP3      OH2           -30.1664547629      -36.8007558189      -28.6214803055  TIP3      10098           0.0000000000
     80125     10498  TIP3      H1            -30.2997808222      -35.8309194439      -28.7448605280  TIP3      10098           0.0000000000
     80126     10498  TIP3      H2            -30.9201853854      -37.1535236126      -29.1277809729  TIP3      10098           0.0000000000
     80127     10499  TIP3      OH2           -28.9009066924      -32.4874792788      -25.0510583573  TIP3      10099           0.0000000000
     80128     10499  TIP3      H1            -29.1499509868      -32.6726913851      -24.1447689846  TIP3      10099           0.0000000000
     80129     10499  TIP3      H2            -29.6988406059      -32.6572921947      -25.5909031199  TIP3      10099           0.0000000000
     80130     10500  TIP3      OH2           -26.1815013948      -33.3331825846      -25.9767791274  TIP3      10100           0.0000000000
     80131     10500  TIP3      H1            -27.1434353524      -33.2904076299      -25.8494887988  TIP3      10100           0.0000000000
     80132     10500  TIP3      H2            -25.8820534524      -33.9682614620      -25.3075729940  TIP3      10100           0.0000000000
     80133     10501  TIP3      OH2           -24.5703390686      -34.6842128153      -23.9868991570  TIP3      10101           0.0000000000
     80134     10501  TIP3      H1            -24.6483096420      -35.6637182823      -24.0012659668  TIP3      10101           0.0000000000
     80135     10501  TIP3      H2            -24.8758942699      -34.4340723037      -23.1115356213  TIP3      10101           0.0000000000
     80136     10502  TIP3      OH2           -34.7353398585      -33.4504361335      -24.9483500651  TIP3      10102           0.0000000000
     80137     10502  TIP3      H1            -34.5388310732      -34.1893757621      -25.5496049278  TIP3      10102           0.0000000000
     80138     10502  TIP3      H2            -34.8699128665      -33.9099842295      -24.0914835894  TIP3      10102           0.0000000000
     80139     10503  TIP3      OH2           -29.9533810651      -37.4435923538      -25.9343731166  TIP3      10103           0.0000000000
     80140     10503  TIP3      H1            -29.2486041280      -38.1304448099      -25.9733681820  TIP3      10103           0.0000000000
     80141     10503  TIP3      H2            -30.0504024446      -37.2408566316      -26.8877565077  TIP3      10103           0.0000000000
     80142     10504  TIP3      OH2           -29.5975656340      -35.7730191559      -23.8643807797  TIP3      10104           0.0000000000
     80143     10504  TIP3      H1            -29.7210495029      -36.3055762376      -24.7062852634  TIP3      10104           0.0000000000
     80144     10504  TIP3      H2            -30.1998132091      -35.0589632296      -24.0165087696  TIP3      10104           0.0000000000
     80145     10505  TIP3      OH2           -30.0838414695      -18.9095824614      -40.7336610227  TIP3      10105           0.0000000000
     80146     10505  TIP3      H1            -29.1197204303      -18.7695402174      -40.5917487577  TIP3      10105           0.0000000000
     80147     10505  TIP3      H2            -30.3025854359      -18.2304086368      -41.3672202186  TIP3      10105           0.0000000000
     80148     10506  TIP3      OH2           -36.5161382957      -24.2845391428      -41.2231870185  TIP3      10106           0.0000000000
     80149     10506  TIP3      H1            -35.5628458261      -24.2047011166      -40.9789852710  TIP3      10106           0.0000000000
     80150     10506  TIP3      H2            -36.4834425880      -24.9406601045      -41.9266031102  TIP3      10106           0.0000000000
     80151     10507  TIP3      OH2           -37.7998014329      -18.8994941715      -36.2035034632  TIP3      10107           0.0000000000
     80152     10507  TIP3      H1            -38.4914204392      -19.3805294457      -36.7041094883  TIP3      10107           0.0000000000
     80153     10507  TIP3      H2            -37.4888100074      -19.5724502604      -35.5757817763  TIP3      10107           0.0000000000
     80154     10508  TIP3      OH2           -36.9597577110      -20.7987214575      -34.3721833336  TIP3      10108           0.0000000000
     80155     10508  TIP3      H1            -37.3030896218      -21.6833918658      -34.1786892649  TIP3      10108           0.0000000000
     80156     10508  TIP3      H2            -36.7367675482      -20.4636386361      -33.4850720315  TIP3      10108           0.0000000000
     80157     10509  TIP3      OH2           -19.4227111952      -20.0006561894      -31.4054347614  TIP3      10109           0.0000000000
     80158     10509  TIP3      H1            -19.4159255138      -19.8174681245      -30.4503492910  TIP3      10109           0.0000000000
     80159     10509  TIP3      H2            -18.7138652233      -19.4267177541      -31.7200031946  TIP3      10109           0.0000000000
     80160     10510  TIP3      OH2           -19.8474618807      -20.4027466922      -28.4663572960  TIP3      10110           0.0000000000
     80161     10510  TIP3      H1            -20.3308022472      -21.1732576855      -28.8405964806  TIP3      10110           0.0000000000
     80162     10510  TIP3      H2            -19.3205412098      -20.8383371536      -27.7778009543  TIP3      10110           0.0000000000
     80163     10511  TIP3      OH2           -21.3859628207      -24.6507756915      -23.8165237373  TIP3      10111           0.0000000000
     80164     10511  TIP3      H1            -22.2805351011      -24.7364939449      -23.4287107068  TIP3      10111           0.0000000000
     80165     10511  TIP3      H2            -21.0343198748      -23.8755873972      -23.3894971797  TIP3      10111           0.0000000000
     80166     10512  TIP3      OH2           -20.1064318463      -26.3457443394      -38.3278204399  TIP3      10112           0.0000000000
     80167     10512  TIP3      H1            -19.2332744856      -25.9633273196      -38.1759380863  TIP3      10112           0.0000000000
     80168     10512  TIP3      H2            -20.0927509471      -27.1124968314      -37.7055734954  TIP3      10112           0.0000000000
     80169     10513  TIP3      OH2           -19.7220630977      -28.2911288410      -36.4916922248  TIP3      10113           0.0000000000
     80170     10513  TIP3      H1            -20.4544111946      -28.8108071981      -36.0983727449  TIP3      10113           0.0000000000
     80171     10513  TIP3      H2            -19.1207916730      -28.1324174011      -35.7379859352  TIP3      10113           0.0000000000
     80172     10514  TIP3      OH2           -19.9645172585      -25.5668557668      -31.5191970974  TIP3      10114           0.0000000000
     80173     10514  TIP3      H1            -19.1235771701      -25.9326253329      -31.8502782738  TIP3      10114           0.0000000000
     80174     10514  TIP3      H2            -19.8269432104      -24.6057600369      -31.6695287683  TIP3      10114           0.0000000000
     80175     10515  TIP3      OH2           -21.4299557279      -22.6716938129      -29.2251889000  TIP3      10115           0.0000000000
     80176     10515  TIP3      H1            -22.1129136250      -22.3377638303      -28.6216721493  TIP3      10115           0.0000000000
     80177     10515  TIP3      H2            -21.9761100167      -23.0955532559      -29.9236415545  TIP3      10115           0.0000000000
     80178     10516  TIP3      OH2           -19.4705329845      -28.3385928641      -40.0476461640  TIP3      10116           0.0000000000
     80179     10516  TIP3      H1            -19.9856859269      -28.0703107828      -40.8191195867  TIP3      10116           0.0000000000
     80180     10516  TIP3      H2            -19.5011496979      -27.6852672726      -39.3906535562  TIP3      10116           0.0000000000
     80181     10517  TIP3      OH2           -21.3851176782      -31.1894724580      -41.5252764667  TIP3      10117           0.0000000000
     80182     10517  TIP3      H1            -20.9618841624      -30.5743731480      -42.1565414056  TIP3      10117           0.0000000000
     80183     10517  TIP3      H2            -21.2123665456      -32.0141075246      -42.0091716619  TIP3      10117           0.0000000000
     80184     10518  TIP3      OH2           -21.9123201481      -29.8014477974      -35.9298788786  TIP3      10118           0.0000000000
     80185     10518  TIP3      H1            -22.0653952766      -30.7583700062      -35.9483638453  TIP3      10118           0.0000000000
     80186     10518  TIP3      H2            -22.2638261387      -29.5491308611      -35.0614429801  TIP3      10118           0.0000000000
     80187     10519  TIP3      OH2           -36.9003448514      -27.7207403546      -31.8853427835  TIP3      10119           0.0000000000
     80188     10519  TIP3      H1            -36.7016550113      -27.8064405578      -32.8441261126  TIP3      10119           0.0000000000
     80189     10519  TIP3      H2            -36.0155165552      -27.8696995858      -31.4996528999  TIP3      10119           0.0000000000
     80190     10520  TIP3      OH2           -21.0686602720      -27.8407312915      -26.2779916486  TIP3      10120           0.0000000000
     80191     10520  TIP3      H1            -20.4581940533      -28.5839210929      -26.0863955859  TIP3      10120           0.0000000000
     80192     10520  TIP3      H2            -20.4773408004      -27.0629933781      -26.2392361174  TIP3      10120           0.0000000000
     80193     10521  TIP3      OH2           -19.5553009977      -29.9319645719      -25.6072258192  TIP3      10121           0.0000000000
     80194     10521  TIP3      H1            -20.4342845058      -30.3367938948      -25.7554776335  TIP3      10121           0.0000000000
     80195     10521  TIP3      H2            -18.9649727401      -30.6987774895      -25.6695713332  TIP3      10121           0.0000000000
     80196     10522  TIP3      OH2           -21.8212335825      -33.8008665048      -42.4630286350  TIP3      10122           0.0000000000
     80197     10522  TIP3      H1            -21.2099868829      -34.1525226580      -41.7933938868  TIP3      10122           0.0000000000
     80198     10522  TIP3      H2            -22.6828239453      -34.1633762501      -42.2277605480  TIP3      10122           0.0000000000
     80199     10523  TIP3      OH2           -22.2336909404      -32.2142140783      -37.4454928403  TIP3      10123           0.0000000000
     80200     10523  TIP3      H1            -21.9183411720      -33.1380446179      -37.3366954778  TIP3      10123           0.0000000000
     80201     10523  TIP3      H2            -21.4470727999      -31.8008330361      -37.8613391635  TIP3      10123           0.0000000000
     80202     10524  TIP3      OH2           -21.6070472934      -31.6711002053      -32.0282774623  TIP3      10124           0.0000000000
     80203     10524  TIP3      H1            -20.6507410638      -31.4324295161      -32.0472189577  TIP3      10124           0.0000000000
     80204     10524  TIP3      H2            -21.8125755064      -31.5345674482      -31.0903531173  TIP3      10124           0.0000000000
     80205     10525  TIP3      OH2           -21.5469648074      -30.9407676521      -29.2460481209  TIP3      10125           0.0000000000
     80206     10525  TIP3      H1            -22.4166553966      -30.6451029311      -28.8969626380  TIP3      10125           0.0000000000
     80207     10525  TIP3      H2            -21.1136522609      -30.0804178228      -29.4627674560  TIP3      10125           0.0000000000
     80208     10526  TIP3      OH2           -37.2951685185      -32.4341801316      -25.7690691420  TIP3      10126           0.0000000000
     80209     10526  TIP3      H1            -36.3618441012      -32.6013895721      -25.5245977273  TIP3      10126           0.0000000000
     80210     10526  TIP3      H2            -37.7370865369      -33.2278062966      -25.3922119635  TIP3      10126           0.0000000000
     80211     10527  TIP3      OH2           -19.2824050122      -36.9273323026      -23.8917696166  TIP3      10127           0.0000000000
     80212     10527  TIP3      H1            -18.9291103848      -37.5756377687      -24.5107359557  TIP3      10127           0.0000000000
     80213     10527  TIP3      H2            -19.1442096859      -36.0829107889      -24.3599678770  TIP3      10127           0.0000000000
     80214     10528  TIP3      OH2           -21.5798350324      -34.9571153066      -37.4258775218  TIP3      10128           0.0000000000
     80215     10528  TIP3      H1            -21.3896270511      -35.3946493394      -36.5698197660  TIP3      10128           0.0000000000
     80216     10528  TIP3      H2            -22.2009774013      -35.5580695234      -37.8673632198  TIP3      10128           0.0000000000
     80217     10529  TIP3      OH2           -36.0815990104      -34.1368967292      -32.8770411942  TIP3      10129           0.0000000000
     80218     10529  TIP3      H1            -35.6111727568      -34.9474697079      -32.5919112438  TIP3      10129           0.0000000000
     80219     10529  TIP3      H2            -35.5760779372      -33.4281637120      -32.4566941507  TIP3      10129           0.0000000000
     80220     10530  TIP3      OH2           -37.7908939820      -31.1476990454      -31.8108790197  TIP3      10130           0.0000000000
     80221     10530  TIP3      H1            -37.2487660013      -31.3663385505      -32.5981276655  TIP3      10130           0.0000000000
     80222     10530  TIP3      H2            -37.3719885798      -30.3144363910      -31.5441553079  TIP3      10130           0.0000000000
     80223     10531  TIP3      OH2           -19.7427043784      -34.8111743631      -25.5367439964  TIP3      10131           0.0000000000
     80224     10531  TIP3      H1            -20.6813710489      -34.5419587267      -25.5954122575  TIP3      10131           0.0000000000
     80225     10531  TIP3      H2            -19.6701181294      -35.3507537325      -26.3369389414  TIP3      10131           0.0000000000
     80226     10532  TIP3      OH2           -19.7432240417      -34.9172641381      -40.8384404427  TIP3      10132           0.0000000000
     80227     10532  TIP3      H1            -19.3091316323      -35.5924343494      -41.3758063246  TIP3      10132           0.0000000000
     80228     10532  TIP3      H2            -19.0543244138      -34.2111801074      -40.8434050952  TIP3      10132           0.0000000000
     80229     10533  TIP3      OH2           -37.4363573026      -34.8881212469      -37.7579517456  TIP3      10133           0.0000000000
     80230     10533  TIP3      H1            -38.3698025113      -34.6845359081      -37.8849226182  TIP3      10133           0.0000000000
     80231     10533  TIP3      H2            -36.9977658757      -34.3890760973      -38.4641222615  TIP3      10133           0.0000000000
     80232     10534  TIP3      OH2           -22.6960932964      -19.9127313573      -35.8032566385  TIP3      10134           0.0000000000
     80233     10534  TIP3      H1            -22.0179530020      -20.2418541186      -36.4206768774  TIP3      10134           0.0000000000
     80234     10534  TIP3      H2            -22.1677566868      -19.4172365613      -35.1599718194  TIP3      10134           0.0000000000
     80235     10535  TIP3      OH2           -37.4760691504      -36.1763644777      -29.4284154205  TIP3      10135           0.0000000000
     80236     10535  TIP3      H1            -38.1567032498      -36.3974172067      -28.7694863180  TIP3      10135           0.0000000000
     80237     10535  TIP3      H2            -37.9395983205      -35.5235454778      -29.9956355305  TIP3      10135           0.0000000000
     80238     10536  TIP3      OH2           -35.2723415846      -22.9879981614      -25.2642691309  TIP3      10136           0.0000000000
     80239     10536  TIP3      H1            -36.1045461337      -22.7975626411      -25.7287063685  TIP3      10136           0.0000000000
     80240     10536  TIP3      H2            -35.5445984899      -23.0520597200      -24.3481797508  TIP3      10136           0.0000000000
     80241     10537  TIP3      OH2           -32.3501438111      -22.0151095475      -29.0068904177  TIP3      10137           0.0000000000
     80242     10537  TIP3      H1            -32.7296637493      -21.1730865014      -29.2937436377  TIP3      10137           0.0000000000
     80243     10537  TIP3      H2            -31.4259886440      -21.9102558220      -29.3187596323  TIP3      10137           0.0000000000
     80244     10538  TIP3      OH2           -28.0316492019      -20.5952022821      -26.0882315630  TIP3      10138           0.0000000000
     80245     10538  TIP3      H1            -27.8540082142      -20.9326217105      -25.1744668066  TIP3      10138           0.0000000000
     80246     10538  TIP3      H2            -27.1478841704      -20.2870213354      -26.3625164713  TIP3      10138           0.0000000000
     80247     10539  TIP3      OH2           -25.7188796199      -19.3186989394      -26.8124105866  TIP3      10139           0.0000000000
     80248     10539  TIP3      H1            -25.0010420078      -19.9324212168      -27.0414020033  TIP3      10139           0.0000000000
     80249     10539  TIP3      H2            -25.3538080118      -18.9052174259      -26.0007043866  TIP3      10139           0.0000000000
     80250     10540  TIP3      OH2           -20.7443834751      -36.7121778917      -27.7017402532  TIP3      10140           0.0000000000
     80251     10540  TIP3      H1            -21.5712289621      -36.4063546651      -28.1180182913  TIP3      10140           0.0000000000
     80252     10540  TIP3      H2            -20.5467634326      -37.4983037774      -28.2526724417  TIP3      10140           0.0000000000
     80253     10541  TIP3      OH2           -34.9234294662      -18.7599632510      -28.9848250206  TIP3      10141           0.0000000000
     80254     10541  TIP3      H1            -35.6596915663      -18.2895658393      -29.4113758553  TIP3      10141           0.0000000000
     80255     10541  TIP3      H2            -35.2753177400      -18.9809983269      -28.1089623846  TIP3      10141           0.0000000000
     80256     10542  TIP3      OH2           -32.4518091173      -19.1734216495      -29.9330274741  TIP3      10142           0.0000000000
     80257     10542  TIP3      H1            -33.3470519408      -19.0607243423      -29.5343433775  TIP3      10142           0.0000000000
     80258     10542  TIP3      H2            -32.5244909229      -18.5950928218      -30.7186476508  TIP3      10142           0.0000000000
     80259     10543  TIP3      OH2           -27.7539041573      -19.2723549053      -30.7652388632  TIP3      10143           0.0000000000
     80260     10543  TIP3      H1            -28.2171894455      -18.7245199635      -31.4177691206  TIP3      10143           0.0000000000
     80261     10543  TIP3      H2            -27.6030399798      -18.6425028657      -30.0298707927  TIP3      10143           0.0000000000
     80262     10544  TIP3      OH2           -25.4344077733      -20.4221650502      -29.7886072755  TIP3      10144           0.0000000000
     80263     10544  TIP3      H1            -26.3281982452      -20.1997516720      -30.0940169152  TIP3      10144           0.0000000000
     80264     10544  TIP3      H2            -24.9963297693      -19.5567390201      -29.8694688630  TIP3      10144           0.0000000000
     80265     10545  TIP3      OH2           -22.8478463187      -18.8546926033      -29.5067509034  TIP3      10145           0.0000000000
     80266     10545  TIP3      H1            -22.9818211891      -17.9017643071      -29.7410426883  TIP3      10145           0.0000000000
     80267     10545  TIP3      H2            -22.6556809834      -19.2321385481      -30.3850246198  TIP3      10145           0.0000000000
     80268     10546  TIP3      OH2           -35.5078353293      -20.1146792553      -32.0662961241  TIP3      10146           0.0000000000
     80269     10546  TIP3      H1            -35.5465767762      -20.5628483123      -31.1940339354  TIP3      10146           0.0000000000
     80270     10546  TIP3      H2            -34.6857048138      -20.4646030749      -32.4647555517  TIP3      10146           0.0000000000
     80271     10547  TIP3      OH2           -33.3951472143      -21.4027275695      -33.4143960073  TIP3      10147           0.0000000000
     80272     10547  TIP3      H1            -33.5824120956      -22.3373682409      -33.2108109012  TIP3      10147           0.0000000000
     80273     10547  TIP3      H2            -32.5427835187      -21.2702317373      -32.9413220028  TIP3      10147           0.0000000000
     80274     10548  TIP3      OH2           -30.8231135449      -20.9251751259      -32.5504847920  TIP3      10148           0.0000000000
     80275     10548  TIP3      H1            -30.6266375857      -21.8394683291      -32.8231914496  TIP3      10148           0.0000000000
     80276     10548  TIP3      H2            -30.7617393056      -20.9866247052      -31.5880810536  TIP3      10148           0.0000000000
     80277     10549  TIP3      OH2           -27.3172465333      -35.2663673512      -33.3861207439  TIP3      10149           0.0000000000
     80278     10549  TIP3      H1            -28.0150457108      -35.9141253992      -33.1573863087  TIP3      10149           0.0000000000
     80279     10549  TIP3      H2            -26.7889453223      -35.7841157040      -34.0072726200  TIP3      10149           0.0000000000
     80280     10550  TIP3      OH2           -22.1970265820      -37.2028835323      -33.2979478588  TIP3      10150           0.0000000000
     80281     10550  TIP3      H1            -21.5800184633      -36.6229085295      -33.8175836446  TIP3      10150           0.0000000000
     80282     10550  TIP3      H2            -23.0736709860      -36.8546503593      -33.5506050479  TIP3      10150           0.0000000000
     80283     10551  TIP3      OH2           -20.5127997798      -36.0132470440      -35.0025876972  TIP3      10151           0.0000000000
     80284     10551  TIP3      H1            -19.8392358712      -36.5546309364      -35.4741248203  TIP3      10151           0.0000000000
     80285     10551  TIP3      H2            -20.0543185795      -35.1445234477      -34.9441069087  TIP3      10151           0.0000000000
     80286     10552  TIP3      OH2           -35.0054890855      -36.6432732668      -35.5493366494  TIP3      10152           0.0000000000
     80287     10552  TIP3      H1            -35.7772752676      -36.8705873288      -36.0969555575  TIP3      10152           0.0000000000
     80288     10552  TIP3      H2            -34.4744828605      -37.4616300097      -35.6012266612  TIP3      10152           0.0000000000
     80289     10553  TIP3      OH2           -36.2030489246      -36.8737128958      -39.8120491156  TIP3      10153           0.0000000000
     80290     10553  TIP3      H1            -35.7149515138      -36.2366036563      -40.3699654040  TIP3      10153           0.0000000000
     80291     10553  TIP3      H2            -36.7841077200      -36.3027601627      -39.2887748095  TIP3      10153           0.0000000000
     80292     10554  TIP3      OH2           -29.6344564878      -37.2580287562      -35.2014309394  TIP3      10154           0.0000000000
     80293     10554  TIP3      H1            -29.5672960862      -36.4411026332      -35.7873828718  TIP3      10154           0.0000000000
     80294     10554  TIP3      H2            -30.5166191760      -36.9625342449      -34.8932311687  TIP3      10154           0.0000000000
     80295     10555  TIP3      OH2           -24.8212827702      -36.6918636629      -34.1329553171  TIP3      10155           0.0000000000
     80296     10555  TIP3      H1            -24.8096633111      -36.5946595420      -35.0843757475  TIP3      10155           0.0000000000
     80297     10555  TIP3      H2            -25.1599203585      -37.6090780472      -34.0044562624  TIP3      10155           0.0000000000
     80298     10556  TIP3      OH2           -23.5227251173      -36.6057775606      -38.3793814627  TIP3      10156           0.0000000000
     80299     10556  TIP3      H1            -24.2527810891      -36.0061483197      -38.6131148933  TIP3      10156           0.0000000000
     80300     10556  TIP3      H2            -23.9859573028      -37.4596821848      -38.1808866906  TIP3      10156           0.0000000000
     80301     10557  TIP3      OH2           -36.2611823813      -20.9252107548      -38.8473706495  TIP3      10157           0.0000000000
     80302     10557  TIP3      H1            -36.9588035250      -20.9288838262      -39.5370523970  TIP3      10157           0.0000000000
     80303     10557  TIP3      H2            -36.2682259192      -19.9830738821      -38.6239768548  TIP3      10157           0.0000000000
     80304     10558  TIP3      OH2           -34.3408477969      -34.9598064682      -41.3358014296  TIP3      10158           0.0000000000
     80305     10558  TIP3      H1            -33.8151378655      -35.5675788130      -41.8533651149  TIP3      10158           0.0000000000
     80306     10558  TIP3      H2            -33.6907780881      -34.6285133408      -40.6813802541  TIP3      10158           0.0000000000
     80307     10559  TIP3      OH2           -29.2754265358      -34.6624768781      -38.9273530008  TIP3      10159           0.0000000000
     80308     10559  TIP3      H1            -29.1161288821      -35.2797173321      -38.1827044208  TIP3      10159           0.0000000000
     80309     10559  TIP3      H2            -29.3215143325      -33.8250378277      -38.4109271051  TIP3      10159           0.0000000000
     80310     10560  TIP3      OH2           -27.4360608722      -19.5090676968      -40.3965333496  TIP3      10160           0.0000000000
     80311     10560  TIP3      H1            -26.5112090075      -19.3453879560      -40.6474305439  TIP3      10160           0.0000000000
     80312     10560  TIP3      H2            -27.6251095599      -20.0844439072      -41.1972732870  TIP3      10160           0.0000000000
     80313     10561  TIP3      OH2           -20.6898544446      -20.1212011831      -37.7756297115  TIP3      10161           0.0000000000
     80314     10561  TIP3      H1            -20.9000419259      -20.8900638981      -38.3622634490  TIP3      10161           0.0000000000
     80315     10561  TIP3      H2            -20.7591091186      -19.3758648888      -38.3986047626  TIP3      10161           0.0000000000
     80316     10562  TIP3      OH2           -35.0725232440      -36.1133037434      -26.0929748475  TIP3      10162           0.0000000000
     80317     10562  TIP3      H1            -35.4320058022      -36.8970642494      -25.6359633874  TIP3      10162           0.0000000000
     80318     10562  TIP3      H2            -34.1454023866      -36.1254778888      -25.7644202878  TIP3      10162           0.0000000000
     80319     10563  TIP3      OH2           -33.0548654250      -36.7316001564      -24.4908017909  TIP3      10163           0.0000000000
     80320     10563  TIP3      H1            -32.1768221625      -37.0842245048      -24.7284710825  TIP3      10163           0.0000000000
     80321     10563  TIP3      H2            -33.4663925140      -37.5259559634      -24.0734233099  TIP3      10163           0.0000000000
     80322     10564  TIP3      OH2           -34.4489531045      -19.9720927479      -41.8640941612  TIP3      10164           0.0000000000
     80323     10564  TIP3      H1            -34.7267451975      -19.6936261526      -40.9813604113  TIP3      10164           0.0000000000
     80324     10564  TIP3      H2            -33.6846144481      -20.5231532202      -41.7020654664  TIP3      10164           0.0000000000
     80325     10565  TIP3      OH2           -24.6616308010      -37.4239429496      -24.3572456472  TIP3      10165           0.0000000000
     80326     10565  TIP3      H1            -24.5812927512      -37.8879776771      -23.4885187730  TIP3      10165           0.0000000000
     80327     10565  TIP3      H2            -23.7459645021      -37.4487649945      -24.6881385894  TIP3      10165           0.0000000000
     80328     10566  TIP3      OH2           -21.4633517874      -21.3960729306      -25.6387204612  TIP3      10166           0.0000000000
     80329     10566  TIP3      H1            -22.2651982070      -21.5432061585      -26.1882363922  TIP3      10166           0.0000000000
     80330     10566  TIP3      H2            -21.5618504277      -20.4381284226      -25.4510125682  TIP3      10166           0.0000000000
     80331     10567  TIP3      OH2            -7.0466437170      -27.5067796710      -35.6509671721  TIP3      10167           0.0000000000
     80332     10567  TIP3      H1             -7.0029143556      -26.5319438162      -35.7505766780  TIP3      10167           0.0000000000
     80333     10567  TIP3      H2             -7.7295962691      -27.7538604479      -36.2930340783  TIP3      10167           0.0000000000
     80334     10568  TIP3      OH2            -8.1529074763      -28.2341316702      -32.1934323027  TIP3      10168           0.0000000000
     80335     10568  TIP3      H1             -8.1800995893      -28.8924099792      -31.4925088864  TIP3      10168           0.0000000000
     80336     10568  TIP3      H2             -8.4776163117      -28.7227517089      -32.9686011216  TIP3      10168           0.0000000000
     80337     10569  TIP3      OH2           -15.7955643543      -28.6023422764      -30.6368691354  TIP3      10169           0.0000000000
     80338     10569  TIP3      H1            -15.7233581902      -29.2558613781      -29.9082383241  TIP3      10169           0.0000000000
     80339     10569  TIP3      H2            -15.0645847665      -28.0022559920      -30.4253471946  TIP3      10169           0.0000000000
     80340     10570  TIP3      OH2            -4.4464252819      -25.3016394146      -33.9158635438  TIP3      10170           0.0000000000
     80341     10570  TIP3      H1             -4.8836032892      -26.0156419430      -33.4398037810  TIP3      10170           0.0000000000
     80342     10570  TIP3      H2             -4.4508796959      -24.5813174113      -33.2565509796  TIP3      10170           0.0000000000
     80343     10571  TIP3      OH2           -14.8729353293      -24.1521793912      -32.1086056560  TIP3      10171           0.0000000000
     80344     10571  TIP3      H1            -15.2040443505      -24.9945478391      -32.4562396355  TIP3      10171           0.0000000000
     80345     10571  TIP3      H2            -13.9140604793      -24.3246884545      -32.0453160816  TIP3      10171           0.0000000000
     80346     10572  TIP3      OH2           -18.2328360016      -30.5464516756      -36.6475722553  TIP3      10172           0.0000000000
     80347     10572  TIP3      H1            -18.6841275680      -29.6778540724      -36.7198083289  TIP3      10172           0.0000000000
     80348     10572  TIP3      H2            -18.8041523389      -31.0891241359      -37.2218299229  TIP3      10172           0.0000000000
     80349     10573  TIP3      OH2           -17.5364104062      -28.3408672630      -34.5411597617  TIP3      10173           0.0000000000
     80350     10573  TIP3      H1            -17.2930280155      -29.1439600731      -34.0463127788  TIP3      10173           0.0000000000
     80351     10573  TIP3      H2            -16.8019091793      -28.2544553412      -35.1684116864  TIP3      10173           0.0000000000
     80352     10574  TIP3      OH2            -7.3433986242      -20.1604269937      -33.6858262041  TIP3      10174           0.0000000000
     80353     10574  TIP3      H1             -6.7014998395      -20.8648491138      -33.9603169524  TIP3      10174           0.0000000000
     80354     10574  TIP3      H2             -7.5403542789      -20.4382733159      -32.7916626638  TIP3      10174           0.0000000000
     80355     10575  TIP3      OH2            -9.7716573973      -25.8236666649      -31.7781596110  TIP3      10175           0.0000000000
     80356     10575  TIP3      H1             -9.4360618335      -26.4897393165      -32.3953863574  TIP3      10175           0.0000000000
     80357     10575  TIP3      H2             -9.0077070124      -25.6851962027      -31.1916136359  TIP3      10175           0.0000000000
     80358     10576  TIP3      OH2            -1.1344571536      -34.2086394769      -30.9661050960  TIP3      10176           0.0000000000
     80359     10576  TIP3      H1             -1.0214251987      -33.5880198923      -30.2141349664  TIP3      10176           0.0000000000
     80360     10576  TIP3      H2             -0.6408395673      -33.7476892538      -31.6611109920  TIP3      10176           0.0000000000
     80361     10577  TIP3      OH2            -6.6147095112      -31.3843049139      -31.4374328330  TIP3      10177           0.0000000000
     80362     10577  TIP3      H1             -6.4651235728      -32.3502777392      -31.4446334131  TIP3      10177           0.0000000000
     80363     10577  TIP3      H2             -6.7190547455      -31.2218445299      -32.3977877516  TIP3      10177           0.0000000000
     80364     10578  TIP3      OH2           -13.4715193182      -33.2991602925      -34.1860624212  TIP3      10178           0.0000000000
     80365     10578  TIP3      H1            -13.4083651656      -32.4469441631      -34.6469819096  TIP3      10178           0.0000000000
     80366     10578  TIP3      H2            -13.9110885239      -33.8604724277      -34.8527783535  TIP3      10178           0.0000000000
     80367     10579  TIP3      OH2            -5.7564070971      -33.1925749447      -35.8163338224  TIP3      10179           0.0000000000
     80368     10579  TIP3      H1             -5.0874802476      -33.5122216460      -35.1651898174  TIP3      10179           0.0000000000
     80369     10579  TIP3      H2             -5.2076946768      -32.6485958863      -36.4024867310  TIP3      10179           0.0000000000
     80370     10580  TIP3      OH2           -16.8621209180      -30.8905821496      -33.4457085424  TIP3      10180           0.0000000000
     80371     10580  TIP3      H1            -16.1875722901      -31.4531281441      -33.0095948420  TIP3      10180           0.0000000000
     80372     10580  TIP3      H2            -16.7947948927      -31.1920578348      -34.3642321495  TIP3      10180           0.0000000000
     80373     10581  TIP3      OH2           -11.6951167310      -29.3344529977      -34.1900684433  TIP3      10181           0.0000000000
     80374     10581  TIP3      H1            -11.0569194416      -29.9031273802      -33.7269038442  TIP3      10181           0.0000000000
     80375     10581  TIP3      H2            -12.2546449401      -30.0021086665      -34.6366004313  TIP3      10181           0.0000000000
     80376     10582  TIP3      OH2            -0.7062037613      -32.7488813601      -28.7196101624  TIP3      10182           0.0000000000
     80377     10582  TIP3      H1             -1.3781230267      -32.0413893635      -28.8071400513  TIP3      10182           0.0000000000
     80378     10582  TIP3      H2             -0.6882517439      -32.9039312065      -27.7609227751  TIP3      10182           0.0000000000
     80379     10583  TIP3      OH2           -14.6172301519      -34.3984917170      -30.1397319596  TIP3      10183           0.0000000000
     80380     10583  TIP3      H1            -14.8750494839      -33.8402410171      -30.8987295775  TIP3      10183           0.0000000000
     80381     10583  TIP3      H2            -15.3073316296      -34.1581022337      -29.4723350856  TIP3      10183           0.0000000000
     80382     10584  TIP3      OH2            -7.2815937181      -24.9019986849      -36.5885221129  TIP3      10184           0.0000000000
     80383     10584  TIP3      H1             -7.5795517778      -25.2070144842      -37.4551592548  TIP3      10184           0.0000000000
     80384     10584  TIP3      H2             -7.6079255801      -23.9771807402      -36.5507910463  TIP3      10184           0.0000000000
     80385     10585  TIP3      OH2           -12.0747949081      -26.7487462615      -29.8778106699  TIP3      10185           0.0000000000
     80386     10585  TIP3      H1            -12.8018273086      -26.1017904720      -29.7152295804  TIP3      10185           0.0000000000
     80387     10585  TIP3      H2            -11.3727584781      -26.1450525595      -30.1672437196  TIP3      10185           0.0000000000
     80388     10586  TIP3      OH2            -3.9744197732      -33.8741499585      -33.8279023168  TIP3      10186           0.0000000000
     80389     10586  TIP3      H1             -4.1797958670      -34.6448720111      -33.2884998568  TIP3      10186           0.0000000000
     80390     10586  TIP3      H2             -3.3019155987      -33.4205348735      -33.2926231867  TIP3      10186           0.0000000000
     80391     10587  TIP3      OH2           -15.0589828022      -32.5164507507      -32.1526816629  TIP3      10187           0.0000000000
     80392     10587  TIP3      H1            -14.4164133130      -31.8537857563      -31.8041158209  TIP3      10187           0.0000000000
     80393     10587  TIP3      H2            -14.5216661967      -32.9646899231      -32.8485388319  TIP3      10187           0.0000000000
     80394     10588  TIP3      OH2           -13.6572016406      -24.7783833225      -29.0945994278  TIP3      10188           0.0000000000
     80395     10588  TIP3      H1            -13.6688070467      -23.8577556397      -29.4282788928  TIP3      10188           0.0000000000
     80396     10588  TIP3      H2            -14.5265279888      -24.8203604652      -28.6279870639  TIP3      10188           0.0000000000
     80397     10589  TIP3      OH2           -17.5579254611      -25.1102957648      -38.2811625752  TIP3      10189           0.0000000000
     80398     10589  TIP3      H1            -17.8068808104      -24.8248120546      -39.1789913605  TIP3      10189           0.0000000000
     80399     10589  TIP3      H2            -17.4959900971      -24.2540409553      -37.8002619428  TIP3      10189           0.0000000000
     80400     10590  TIP3      OH2            -3.9250562754      -23.4698253690      -31.5507385929  TIP3      10190           0.0000000000
     80401     10590  TIP3      H1             -4.8910093839      -23.3778248703      -31.4082539665  TIP3      10190           0.0000000000
     80402     10590  TIP3      H2             -3.6587294770      -22.5430850824      -31.7156377160  TIP3      10190           0.0000000000
     80403     10591  TIP3      OH2            -3.6210255405      -35.1754571614      -30.1429346393  TIP3      10191           0.0000000000
     80404     10591  TIP3      H1             -4.3563694098      -34.5520852419      -30.2035417768  TIP3      10191           0.0000000000
     80405     10591  TIP3      H2             -2.9246858927      -34.7531854474      -30.6764600939  TIP3      10191           0.0000000000
     80406     10592  TIP3      OH2           -10.6262325316      -37.0700550070      -32.6873051786  TIP3      10192           0.0000000000
     80407     10592  TIP3      H1            -10.7541799546      -38.0367806625      -32.7414267897  TIP3      10192           0.0000000000
     80408     10592  TIP3      H2            -11.5023127025      -36.7540527546      -32.3932606789  TIP3      10192           0.0000000000
     80409     10593  TIP3      OH2            -5.6815094552      -21.6817109806      -34.9320248911  TIP3      10193           0.0000000000
     80410     10593  TIP3      H1             -5.2441274132      -22.3925343271      -35.4402886552  TIP3      10193           0.0000000000
     80411     10593  TIP3      H2             -5.3145882451      -20.8770638562      -35.3523637536  TIP3      10193           0.0000000000
     80412     10594  TIP3      OH2            -4.4931726609      -23.7566406521      -36.4357381147  TIP3      10194           0.0000000000
     80413     10594  TIP3      H1             -4.7702298301      -24.4627484617      -37.0446179938  TIP3      10194           0.0000000000
     80414     10594  TIP3      H2             -4.4429396412      -24.2356297483      -35.5873900153  TIP3      10194           0.0000000000
     80415     10595  TIP3      OH2            -2.8371318546      -25.1874131352      -27.9383972235  TIP3      10195           0.0000000000
     80416     10595  TIP3      H1             -2.6936157141      -25.8086874000      -28.6853520879  TIP3      10195           0.0000000000
     80417     10595  TIP3      H2             -2.6579958860      -24.3216559899      -28.3364315867  TIP3      10195           0.0000000000
     80418     10596  TIP3      OH2            -8.3584076300      -28.2557630616      -38.1672378389  TIP3      10196           0.0000000000
     80419     10596  TIP3      H1             -9.0646813992      -27.7014665039      -38.5488967809  TIP3      10196           0.0000000000
     80420     10596  TIP3      H2             -7.6587659525      -28.1822674001      -38.8461419424  TIP3      10196           0.0000000000
     80421     10597  TIP3      OH2            -8.3030413066      -29.7527812354      -41.1407740206  TIP3      10197           0.0000000000
     80422     10597  TIP3      H1             -7.5950506125      -29.7606541698      -40.4741314830  TIP3      10197           0.0000000000
     80423     10597  TIP3      H2             -7.9939486573      -30.4179117890      -41.7623414875  TIP3      10197           0.0000000000
     80424     10598  TIP3      OH2            -0.9743369766      -28.8690480513      -29.8806073234  TIP3      10198           0.0000000000
     80425     10598  TIP3      H1             -1.6370349109      -28.1525759045      -29.8173229391  TIP3      10198           0.0000000000
     80426     10598  TIP3      H2             -0.5044318505      -28.6376614278      -30.7017507626  TIP3      10198           0.0000000000
     80427     10599  TIP3      OH2            -4.9336840249      -28.0395311566      -37.2425780918  TIP3      10199           0.0000000000
     80428     10599  TIP3      H1             -5.6788675948      -27.8088329803      -36.6397891704  TIP3      10199           0.0000000000
     80429     10599  TIP3      H2             -4.4768179276      -28.7459676562      -36.7513510412  TIP3      10199           0.0000000000
     80430     10600  TIP3      OH2            -5.0072055636      -29.8866876287      -28.1477286780  TIP3      10200           0.0000000000
     80431     10600  TIP3      H1             -4.9796595222      -29.0866267760      -27.5920459990  TIP3      10200           0.0000000000
     80432     10600  TIP3      H2             -5.6410033326      -29.5831185589      -28.8360841286  TIP3      10200           0.0000000000
     80433     10601  TIP3      OH2           -13.3001038434      -27.3877881654      -35.3361536998  TIP3      10201           0.0000000000
     80434     10601  TIP3      H1            -13.6294440883      -27.7852321428      -36.1768972369  TIP3      10201           0.0000000000
     80435     10601  TIP3      H2            -12.6972959253      -28.0894147840      -34.9983610012  TIP3      10201           0.0000000000
     80436     10602  TIP3      OH2           -11.9612811921      -23.9831857240      -32.6665776279  TIP3      10202           0.0000000000
     80437     10602  TIP3      H1            -12.0108375974      -24.5572369220      -33.4374250859  TIP3      10202           0.0000000000
     80438     10602  TIP3      H2            -11.2034454928      -24.3538734350      -32.1750893158  TIP3      10202           0.0000000000
     80439     10603  TIP3      OH2           -12.9543741149      -28.6492817772      -31.6975415628  TIP3      10203           0.0000000000
     80440     10603  TIP3      H1            -12.3807019041      -28.5236298170      -32.4767362224  TIP3      10203           0.0000000000
     80441     10603  TIP3      H2            -12.6023454491      -27.9901413289      -31.0659960262  TIP3      10203           0.0000000000
     80442     10604  TIP3      OH2            -6.5919429074      -23.1008605029      -30.9844413983  TIP3      10204           0.0000000000
     80443     10604  TIP3      H1             -6.8625972813      -22.4653210594      -30.3186449074  TIP3      10204           0.0000000000
     80444     10604  TIP3      H2             -6.8244709074      -23.9589088297      -30.5457965424  TIP3      10204           0.0000000000
     80445     10605  TIP3      OH2           -12.0851782298      -24.5316535518      -26.7994599611  TIP3      10205           0.0000000000
     80446     10605  TIP3      H1            -12.3076415906      -23.5780260392      -26.5533949487  TIP3      10205           0.0000000000
     80447     10605  TIP3      H2            -12.6279728287      -24.4237582478      -27.6305346505  TIP3      10205           0.0000000000
     80448     10606  TIP3      OH2            -6.0682706816      -28.8844126231      -39.5678415511  TIP3      10206           0.0000000000
     80449     10606  TIP3      H1             -5.4933451016      -28.7062883191      -38.7829775176  TIP3      10206           0.0000000000
     80450     10606  TIP3      H2             -5.6443045828      -28.3692944621      -40.2704138359  TIP3      10206           0.0000000000
     80451     10607  TIP3      OH2           -15.1042736066      -28.0570679898      -27.7901007375  TIP3      10207           0.0000000000
     80452     10607  TIP3      H1            -15.0594808046      -27.3891732959      -27.0720960284  TIP3      10207           0.0000000000
     80453     10607  TIP3      H2            -16.0262460242      -27.9467333889      -28.0715065703  TIP3      10207           0.0000000000
     80454     10608  TIP3      OH2            -8.3417805334      -22.1435294695      -36.1048373354  TIP3      10208           0.0000000000
     80455     10608  TIP3      H1             -7.8823214452      -21.8341016162      -35.3172152384  TIP3      10208           0.0000000000
     80456     10608  TIP3      H2             -8.9020992356      -21.3945004691      -36.3461147434  TIP3      10208           0.0000000000
     80457     10609  TIP3      OH2           -14.0619090033      -22.1480006983      -25.8436114520  TIP3      10209           0.0000000000
     80458     10609  TIP3      H1            -13.9206872196      -22.2699701942      -26.8337153905  TIP3      10209           0.0000000000
     80459     10609  TIP3      H2            -14.9542692228      -22.3365679645      -25.9095601056  TIP3      10209           0.0000000000
     80460     10610  TIP3      OH2            -2.3653695638      -37.1359081797      -39.7047438109  TIP3      10210           0.0000000000
     80461     10610  TIP3      H1             -3.2982807108      -36.9669535232      -39.4502985716  TIP3      10210           0.0000000000
     80462     10610  TIP3      H2             -2.1136140262      -36.2860716698      -40.1239083303  TIP3      10210           0.0000000000
     80463     10611  TIP3      OH2           -14.3132477389      -28.3540724105      -37.7305434529  TIP3      10211           0.0000000000
     80464     10611  TIP3      H1            -14.6115393015      -27.5788263462      -38.2547411859  TIP3      10211           0.0000000000
     80465     10611  TIP3      H2            -14.9874955753      -29.0106829463      -37.9377405222  TIP3      10211           0.0000000000
     80466     10612  TIP3      OH2            -1.2109171716      -22.7759453613      -41.3271897535  TIP3      10212           0.0000000000
     80467     10612  TIP3      H1             -1.0965690699      -21.8183936629      -41.1875597435  TIP3      10212           0.0000000000
     80468     10612  TIP3      H2             -0.2793942838      -23.0576722436      -41.4018647213  TIP3      10212           0.0000000000
     80469     10613  TIP3      OH2           -18.2267511160      -25.9537523482      -28.8921067720  TIP3      10213           0.0000000000
     80470     10613  TIP3      H1            -18.7091707413      -26.0199413122      -29.7339580834  TIP3      10213           0.0000000000
     80471     10613  TIP3      H2            -18.1977575507      -26.8910826827      -28.6262239668  TIP3      10213           0.0000000000
     80472     10614  TIP3      OH2           -18.4767336988      -23.2072476872      -32.0531808784  TIP3      10214           0.0000000000
     80473     10614  TIP3      H1            -17.5188365332      -23.3303618626      -32.0710247133  TIP3      10214           0.0000000000
     80474     10614  TIP3      H2            -18.5689500653      -22.4019432833      -31.5264611098  TIP3      10214           0.0000000000
     80475     10615  TIP3      OH2            -0.2448414372      -22.5166520139      -26.3678881033  TIP3      10215           0.0000000000
     80476     10615  TIP3      H1             -0.3392580986      -23.4797303104      -26.4037800660  TIP3      10215           0.0000000000
     80477     10615  TIP3      H2             -1.1127451971      -22.2622005672      -25.9758463556  TIP3      10215           0.0000000000
     80478     10616  TIP3      OH2            -9.2592473505      -22.9808479928      -27.4849332616  TIP3      10216           0.0000000000
     80479     10616  TIP3      H1             -9.2251589442      -22.1186175399      -27.0084413421  TIP3      10216           0.0000000000
     80480     10616  TIP3      H2            -10.1668111252      -23.2829148228      -27.2612330943  TIP3      10216           0.0000000000
     80481     10617  TIP3      OH2            -8.8699126278      -19.2090595901      -37.6888904217  TIP3      10217           0.0000000000
     80482     10617  TIP3      H1             -8.9442933905      -19.3008155863      -38.6557940046  TIP3      10217           0.0000000000
     80483     10617  TIP3      H2             -8.8351624618      -18.2407508150      -37.5613168128  TIP3      10217           0.0000000000
     80484     10618  TIP3      OH2           -15.2092180078      -20.3581486874      -35.8937138594  TIP3      10218           0.0000000000
     80485     10618  TIP3      H1            -15.0690773689      -20.7573635366      -35.0076524496  TIP3      10218           0.0000000000
     80486     10618  TIP3      H2            -16.0640329128      -20.7516508424      -36.1406150591  TIP3      10218           0.0000000000
     80487     10619  TIP3      OH2            -5.7961615900      -20.0135701291      -40.7173723017  TIP3      10219           0.0000000000
     80488     10619  TIP3      H1             -5.3752545165      -20.7840079481      -41.1552881412  TIP3      10219           0.0000000000
     80489     10619  TIP3      H2             -5.7610898662      -20.2894939822      -39.7778729059  TIP3      10219           0.0000000000
     80490     10620  TIP3      OH2            -6.0974431422      -20.0864434734      -37.9434676804  TIP3      10220           0.0000000000
     80491     10620  TIP3      H1             -7.0528690552      -20.0069488156      -37.7548143085  TIP3      10220           0.0000000000
     80492     10620  TIP3      H2             -5.8379902529      -20.8166146546      -37.3618655971  TIP3      10220           0.0000000000
     80493     10621  TIP3      OH2            -3.1071637114      -31.0364293379      -25.8995095075  TIP3      10221           0.0000000000
     80494     10621  TIP3      H1             -3.5501875635      -30.5656948970      -26.6188955372  TIP3      10221           0.0000000000
     80495     10621  TIP3      H2             -3.0801582961      -31.9539109989      -26.2043365360  TIP3      10221           0.0000000000
     80496     10622  TIP3      OH2           -15.9705428783      -24.6359069230      -27.8939612781  TIP3      10222           0.0000000000
     80497     10622  TIP3      H1            -15.7386883447      -25.0046376447      -27.0152968494  TIP3      10222           0.0000000000
     80498     10622  TIP3      H2            -16.8315182238      -25.0336883116      -28.1096006841  TIP3      10222           0.0000000000
     80499     10623  TIP3      OH2           -13.3081210387      -36.1780001044      -31.9145011870  TIP3      10223           0.0000000000
     80500     10623  TIP3      H1            -14.2075303036      -36.2698139952      -32.3051781349  TIP3      10223           0.0000000000
     80501     10623  TIP3      H2            -13.3907529518      -35.3226074900      -31.4655778337  TIP3      10223           0.0000000000
     80502     10624  TIP3      OH2            -8.6591204322      -36.4654511959      -28.5497061334  TIP3      10224           0.0000000000
     80503     10624  TIP3      H1             -8.2569804430      -36.8908311443      -27.7714995583  TIP3      10224           0.0000000000
     80504     10624  TIP3      H2             -9.6254987010      -36.6284254915      -28.4123801105  TIP3      10224           0.0000000000
     80505     10625  TIP3      OH2            -5.3479229761      -32.6809906542      -27.6798668895  TIP3      10225           0.0000000000
     80506     10625  TIP3      H1             -5.8925457119      -32.8437336212      -26.8718015446  TIP3      10225           0.0000000000
     80507     10625  TIP3      H2             -5.5215981849      -31.7572622725      -27.9131774541  TIP3      10225           0.0000000000
     80508     10626  TIP3      OH2            -4.5462931301      -27.7712446906      -41.8324814968  TIP3      10226           0.0000000000
     80509     10626  TIP3      H1             -4.4938532828      -28.0221493725      -42.7707807761  TIP3      10226           0.0000000000
     80510     10626  TIP3      H2             -3.6691243204      -27.3988312751      -41.6842432721  TIP3      10226           0.0000000000
     80511     10627  TIP3      OH2            -9.0049900093      -33.9393196806      -41.2445957473  TIP3      10227           0.0000000000
     80512     10627  TIP3      H1             -9.2929323844      -33.9594857313      -40.3115001801  TIP3      10227           0.0000000000
     80513     10627  TIP3      H2             -9.2793548195      -34.8219020822      -41.5261754472  TIP3      10227           0.0000000000
     80514     10628  TIP3      OH2           -13.2163650889      -31.2131805069      -30.7557504299  TIP3      10228           0.0000000000
     80515     10628  TIP3      H1            -13.9137017118      -31.2343571702      -30.0740246323  TIP3      10228           0.0000000000
     80516     10628  TIP3      H2            -13.2245193229      -30.2756739556      -31.0509332278  TIP3      10228           0.0000000000
     80517     10629  TIP3      OH2           -13.2388453644      -31.0147129057      -35.8542036698  TIP3      10229           0.0000000000
     80518     10629  TIP3      H1            -14.1598660393      -31.3310817294      -35.9578311794  TIP3      10229           0.0000000000
     80519     10629  TIP3      H2            -12.8239327071      -31.3691495335      -36.6635369189  TIP3      10229           0.0000000000
     80520     10630  TIP3      OH2            -7.7123559895      -30.5817659131      -37.0648239312  TIP3      10230           0.0000000000
     80521     10630  TIP3      H1             -8.1252216847      -29.7476177119      -37.3809253211  TIP3      10230           0.0000000000
     80522     10630  TIP3      H2             -7.0017224021      -30.7187023209      -37.7159157765  TIP3      10230           0.0000000000
     80523     10631  TIP3      OH2            -8.6228193567      -30.3762755622      -25.6143059747  TIP3      10231           0.0000000000
     80524     10631  TIP3      H1             -9.1790725377      -31.1192802414      -25.2717035594  TIP3      10231           0.0000000000
     80525     10631  TIP3      H2             -7.8006086720      -30.5067643013      -25.1070204930  TIP3      10231           0.0000000000
     80526     10632  TIP3      OH2            -6.6963198947      -31.1051530564      -34.2264604573  TIP3      10232           0.0000000000
     80527     10632  TIP3      H1             -6.9273605207      -30.5252799530      -34.9721200429  TIP3      10232           0.0000000000
     80528     10632  TIP3      H2             -6.5500233348      -31.9522778285      -34.6958459259  TIP3      10232           0.0000000000
     80529     10633  TIP3      OH2           -15.5272991475      -30.9046720642      -28.9676770454  TIP3      10233           0.0000000000
     80530     10633  TIP3      H1            -15.5216009340      -30.5013906281      -28.0808534489  TIP3      10233           0.0000000000
     80531     10633  TIP3      H2            -16.0020761002      -31.7361999630      -28.8218965894  TIP3      10233           0.0000000000
     80532     10634  TIP3      OH2           -12.0319163768      -33.3439687183      -41.8953363067  TIP3      10234           0.0000000000
     80533     10634  TIP3      H1            -12.5617562360      -33.9584453019      -41.3671384886  TIP3      10234           0.0000000000
     80534     10634  TIP3      H2            -12.7062684405      -33.0597782338      -42.5341923993  TIP3      10234           0.0000000000
     80535     10635  TIP3      OH2           -18.9051637763      -33.7946597375      -35.0674248197  TIP3      10235           0.0000000000
     80536     10635  TIP3      H1            -18.2445693648      -33.8270866858      -34.3473305462  TIP3      10235           0.0000000000
     80537     10635  TIP3      H2            -18.4470168036      -34.2056689222      -35.8132211458  TIP3      10235           0.0000000000
     80538     10636  TIP3      OH2           -17.5932959784      -33.0901388451      -39.6221754623  TIP3      10236           0.0000000000
     80539     10636  TIP3      H1            -17.1678215204      -32.4533773366      -40.2492705107  TIP3      10236           0.0000000000
     80540     10636  TIP3      H2            -18.3213645024      -32.4775673369      -39.3468431689  TIP3      10236           0.0000000000
     80541     10637  TIP3      OH2            -7.4593748723      -29.4822059745      -29.6133769032  TIP3      10237           0.0000000000
     80542     10637  TIP3      H1             -7.1133857959      -30.1491803499      -30.2356283498  TIP3      10237           0.0000000000
     80543     10637  TIP3      H2             -7.9087197536      -30.0278890372      -28.9436314664  TIP3      10237           0.0000000000
     80544     10638  TIP3      OH2           -10.6689336175      -33.5461632740      -34.8164239559  TIP3      10238           0.0000000000
     80545     10638  TIP3      H1            -11.6015475502      -33.5100496106      -34.5143686260  TIP3      10238           0.0000000000
     80546     10638  TIP3      H2            -10.1746545641      -33.6456291911      -33.9890016793  TIP3      10238           0.0000000000
     80547     10639  TIP3      OH2           -15.8488259709      -31.9513499145      -35.9617588870  TIP3      10239           0.0000000000
     80548     10639  TIP3      H1            -16.7481082115      -31.8198234720      -36.3343854042  TIP3      10239           0.0000000000
     80549     10639  TIP3      H2            -15.5571580017      -32.7897346729      -36.3362474528  TIP3      10239           0.0000000000
     80550     10640  TIP3      OH2           -12.2127313648      -31.9362353956      -38.3207600474  TIP3      10240           0.0000000000
     80551     10640  TIP3      H1            -11.2591194345      -31.8095159747      -38.1408563482  TIP3      10240           0.0000000000
     80552     10640  TIP3      H2            -12.4281980807      -31.2553802496      -38.9849866275  TIP3      10240           0.0000000000
     80553     10641  TIP3      OH2            -6.2597502499      -34.3094738566      -31.5569206876  TIP3      10241           0.0000000000
     80554     10641  TIP3      H1             -6.9546714657      -34.2107849803      -30.8717386986  TIP3      10241           0.0000000000
     80555     10641  TIP3      H2             -6.7653591123      -34.5035814994      -32.3574047950  TIP3      10241           0.0000000000
     80556     10642  TIP3      OH2           -13.5021020661      -30.7487792823      -40.7275468711  TIP3      10242           0.0000000000
     80557     10642  TIP3      H1            -14.0786095217      -31.1029567794      -41.4435869761  TIP3      10242           0.0000000000
     80558     10642  TIP3      H2            -12.6885936042      -30.5421272400      -41.1977578719  TIP3      10242           0.0000000000
     80559     10643  TIP3      OH2            -3.0260924587      -18.6546523247      -25.2418130350  TIP3      10243           0.0000000000
     80560     10643  TIP3      H1             -2.7798479096      -18.2415216359      -26.0939608179  TIP3      10243           0.0000000000
     80561     10643  TIP3      H2             -2.3182664291      -18.3183797893      -24.6561416588  TIP3      10243           0.0000000000
     80562     10644  TIP3      OH2           -15.3701262724      -26.1780846805      -25.6829209378  TIP3      10244           0.0000000000
     80563     10644  TIP3      H1            -14.6621397625      -25.9162867663      -25.0767385429  TIP3      10244           0.0000000000
     80564     10644  TIP3      H2            -16.1636717264      -26.0135653264      -25.1175848004  TIP3      10244           0.0000000000
     80565     10645  TIP3      OH2            -9.3720764012      -30.7678029097      -32.9198795817  TIP3      10245           0.0000000000
     80566     10645  TIP3      H1             -8.7894541037      -31.3151511383      -33.4620080290  TIP3      10245           0.0000000000
     80567     10645  TIP3      H2             -9.5128192400      -31.3059827263      -32.1301231379  TIP3      10245           0.0000000000
     80568     10646  TIP3      OH2           -14.3814988119      -34.6281711731      -36.5272697216  TIP3      10246           0.0000000000
     80569     10646  TIP3      H1            -14.6631482007      -35.5527267694      -36.4923296455  TIP3      10246           0.0000000000
     80570     10646  TIP3      H2            -13.5600280600      -34.6505796334      -37.0358166455  TIP3      10246           0.0000000000
     80571     10647  TIP3      OH2           -10.7343344389      -32.4156110663      -30.5111510954  TIP3      10247           0.0000000000
     80572     10647  TIP3      H1            -11.5712390824      -31.9237834534      -30.4009285627  TIP3      10247           0.0000000000
     80573     10647  TIP3      H2            -10.1971608998      -32.0969390732      -29.7582464709  TIP3      10247           0.0000000000
     80574     10648  TIP3      OH2           -10.1588857159      -26.1885466050      -38.8130871111  TIP3      10248           0.0000000000
     80575     10648  TIP3      H1            -10.9438691888      -26.6856797941      -39.1366991704  TIP3      10248           0.0000000000
     80576     10648  TIP3      H2            -10.3449562288      -26.1211844652      -37.8564521395  TIP3      10248           0.0000000000
     80577     10649  TIP3      OH2            -3.0077015157      -27.0365777077      -30.0119744497  TIP3      10249           0.0000000000
     80578     10649  TIP3      H1             -2.4029794212      -26.5625878799      -30.6066449887  TIP3      10249           0.0000000000
     80579     10649  TIP3      H2             -3.8562800113      -26.9376570318      -30.4937490219  TIP3      10249           0.0000000000
     80580     10650  TIP3      OH2            -6.2840059279      -33.3909466935      -40.6276388382  TIP3      10250           0.0000000000
     80581     10650  TIP3      H1             -7.2344876634      -33.2507367984      -40.7792592824  TIP3      10250           0.0000000000
     80582     10650  TIP3      H2             -5.9876358731      -32.5154119941      -40.3142346301  TIP3      10250           0.0000000000
     80583     10651  TIP3      OH2            -8.6474220956      -25.9844248747      -27.5758027718  TIP3      10251           0.0000000000
     80584     10651  TIP3      H1             -9.0192593005      -26.3661938413      -26.7754718952  TIP3      10251           0.0000000000
     80585     10651  TIP3      H2             -8.8800519936      -25.0503859384      -27.4964414787  TIP3      10251           0.0000000000
     80586     10652  TIP3      OH2            -5.5793825317      -31.4880298734      -38.9568458670  TIP3      10252           0.0000000000
     80587     10652  TIP3      H1             -4.6706816027      -31.6258218691      -38.6266051564  TIP3      10252           0.0000000000
     80588     10652  TIP3      H2             -5.5067237855      -30.6873976907      -39.4966232042  TIP3      10252           0.0000000000
     80589     10653  TIP3      OH2           -15.0600579253      -26.8504934643      -33.0286477464  TIP3      10253           0.0000000000
     80590     10653  TIP3      H1            -14.3306924464      -26.8934800716      -33.6755846877  TIP3      10253           0.0000000000
     80591     10653  TIP3      H2            -14.9827180077      -27.7009124924      -32.5631013812  TIP3      10253           0.0000000000
     80592     10654  TIP3      OH2            -8.0444407853      -24.7288141339      -39.7853215097  TIP3      10254           0.0000000000
     80593     10654  TIP3      H1             -8.3807479331      -23.8921208921      -39.4108904349  TIP3      10254           0.0000000000
     80594     10654  TIP3      H2             -8.7825483087      -25.3468785248      -39.5870497291  TIP3      10254           0.0000000000
     80595     10655  TIP3      OH2           -18.0588424587      -28.4098224443      -27.7496100871  TIP3      10255           0.0000000000
     80596     10655  TIP3      H1            -17.8476064759      -28.8443749646      -26.8979932844  TIP3      10255           0.0000000000
     80597     10655  TIP3      H2            -18.6692437662      -29.0380825044      -28.1696745129  TIP3      10255           0.0000000000
     80598     10656  TIP3      OH2           -11.0426008344      -28.8706569622      -25.5346114197  TIP3      10256           0.0000000000
     80599     10656  TIP3      H1            -11.3418550735      -29.1032679544      -26.4266091049  TIP3      10256           0.0000000000
     80600     10656  TIP3      H2            -10.1028212701      -29.1471068263      -25.5432966625  TIP3      10256           0.0000000000
     80601     10657  TIP3      OH2            -6.3900491740      -23.5306269250      -27.6375439419  TIP3      10257           0.0000000000
     80602     10657  TIP3      H1             -7.3182428314      -23.3388915929      -27.8741991392  TIP3      10257           0.0000000000
     80603     10657  TIP3      H2             -6.3910997377      -23.2509028882      -26.7010401812  TIP3      10257           0.0000000000
     80604     10658  TIP3      OH2            -0.6920898435      -31.3235884755      -39.2154126042  TIP3      10258           0.0000000000
     80605     10658  TIP3      H1             -1.2365234240      -31.6542305081      -39.9553200829  TIP3      10258           0.0000000000
     80606     10658  TIP3      H2             -0.5890611145      -30.3893420687      -39.5413391409  TIP3      10258           0.0000000000
     80607     10659  TIP3      OH2            -0.7083144805      -25.4726849554      -26.4047737675  TIP3      10259           0.0000000000
     80608     10659  TIP3      H1             -1.5876136627      -25.2552266518      -26.8032333255  TIP3      10259           0.0000000000
     80609     10659  TIP3      H2             -0.1384768443      -25.5141043983      -27.2031269521  TIP3      10259           0.0000000000
     80610     10660  TIP3      OH2            -2.3903666022      -22.5011848516      -38.8127183240  TIP3      10260           0.0000000000
     80611     10660  TIP3      H1             -2.7652252845      -23.3298201118      -38.4920181057  TIP3      10260           0.0000000000
     80612     10660  TIP3      H2             -2.1029816607      -22.6909399749      -39.7222827866  TIP3      10260           0.0000000000
     80613     10661  TIP3      OH2            -5.2103715742      -27.6838786360      -31.7520625646  TIP3      10261           0.0000000000
     80614     10661  TIP3      H1             -6.1534824511      -27.9188837675      -31.8189423550  TIP3      10261           0.0000000000
     80615     10661  TIP3      H2             -4.7746616740      -28.4685598870      -32.1304448865  TIP3      10261           0.0000000000
     80616     10662  TIP3      OH2           -12.6765788741      -23.3740177329      -35.6491130942  TIP3      10262           0.0000000000
     80617     10662  TIP3      H1            -12.1657428669      -22.5724228635      -35.8425301908  TIP3      10262           0.0000000000
     80618     10662  TIP3      H2            -13.5625454627      -23.1305570027      -35.9519827367  TIP3      10262           0.0000000000
     80619     10663  TIP3      OH2           -16.8771605589      -28.3984527460      -41.1105245284  TIP3      10263           0.0000000000
     80620     10663  TIP3      H1            -16.2890232306      -27.8365604553      -40.6410063109  TIP3      10263           0.0000000000
     80621     10663  TIP3      H2            -17.7891007752      -28.2282394468      -40.7823955414  TIP3      10263           0.0000000000
     80622     10664  TIP3      OH2           -11.2451205575      -25.7054097736      -36.0851698376  TIP3      10264           0.0000000000
     80623     10664  TIP3      H1            -11.5293361715      -24.7730704088      -36.0197142467  TIP3      10264           0.0000000000
     80624     10664  TIP3      H2            -11.9985415498      -26.1687815141      -35.6668405207  TIP3      10264           0.0000000000
     80625     10665  TIP3      OH2           -10.6416870087      -21.5470048181      -29.8830441685  TIP3      10265           0.0000000000
     80626     10665  TIP3      H1            -10.3588223259      -20.6554568282      -29.9806968180  TIP3      10265           0.0000000000
     80627     10665  TIP3      H2            -10.2431063519      -21.8345279296      -29.0217611930  TIP3      10265           0.0000000000
     80628     10666  TIP3      OH2           -12.5738405283      -20.6920279808      -36.5502198481  TIP3      10266           0.0000000000
     80629     10666  TIP3      H1            -13.5419120166      -20.5652616089      -36.4563686670  TIP3      10266           0.0000000000
     80630     10666  TIP3      H2            -12.2234092223      -19.8549020488      -36.1922808718  TIP3      10266           0.0000000000
     80631     10667  TIP3      OH2            -7.2305554392      -25.4728846295      -30.0661168337  TIP3      10267           0.0000000000
     80632     10667  TIP3      H1             -7.6220468557      -25.6905188177      -29.1986355567  TIP3      10267           0.0000000000
     80633     10667  TIP3      H2             -6.6229393112      -26.2070716559      -30.2403642690  TIP3      10267           0.0000000000
     80634     10668  TIP3      OH2            -4.9918927334      -24.5128146455      -40.9858147186  TIP3      10268           0.0000000000
     80635     10668  TIP3      H1             -4.6639068462      -24.9163585312      -40.1575923159  TIP3      10268           0.0000000000
     80636     10668  TIP3      H2             -5.9503055742      -24.6195192580      -40.8799183106  TIP3      10268           0.0000000000
     80637     10669  TIP3      OH2            -4.5074256208      -20.9156169361      -27.5701491094  TIP3      10269           0.0000000000
     80638     10669  TIP3      H1             -5.1515068936      -21.4426039412      -28.0830999358  TIP3      10269           0.0000000000
     80639     10669  TIP3      H2             -4.2722786494      -20.2299069055      -28.2309999749  TIP3      10269           0.0000000000
     80640     10670  TIP3      OH2            -0.4873878423      -20.0584339449      -40.7548787216  TIP3      10270           0.0000000000
     80641     10670  TIP3      H1              0.2406728539      -19.4398888391      -40.9423516221  TIP3      10270           0.0000000000
     80642     10670  TIP3      H2             -1.1980034428      -19.4596520975      -40.4432040241  TIP3      10270           0.0000000000
     80643     10671  TIP3      OH2           -16.4070019632      -33.6686510635      -28.1903825468  TIP3      10271           0.0000000000
     80644     10671  TIP3      H1            -17.3174594950      -33.3264459728      -28.2345348041  TIP3      10271           0.0000000000
     80645     10671  TIP3      H2            -16.5212329731      -34.5244628195      -27.7486240729  TIP3      10271           0.0000000000
     80646     10672  TIP3      OH2            -4.1485973781      -25.8295195861      -38.7607274605  TIP3      10272           0.0000000000
     80647     10672  TIP3      H1             -4.4051106387      -26.5970871801      -38.2053115796  TIP3      10272           0.0000000000
     80648     10672  TIP3      H2             -3.2054502744      -25.7425788192      -38.5399655725  TIP3      10272           0.0000000000
     80649     10673  TIP3      OH2           -16.7872506447      -21.8758328449      -29.7527236635  TIP3      10273           0.0000000000
     80650     10673  TIP3      H1            -16.5113081230      -22.8038703196      -29.7686143244  TIP3      10273           0.0000000000
     80651     10673  TIP3      H2            -16.5083737234      -21.5972503735      -28.8726033051  TIP3      10273           0.0000000000
     80652     10674  TIP3      OH2           -11.9967552837      -23.8307514032      -40.0769739261  TIP3      10274           0.0000000000
     80653     10674  TIP3      H1            -11.8078036749      -24.3643302694      -39.2954346468  TIP3      10274           0.0000000000
     80654     10674  TIP3      H2            -11.9707476708      -22.9127077617      -39.7499205650  TIP3      10274           0.0000000000
     80655     10675  TIP3      OH2           -15.5189584349      -26.5811964881      -39.5743067223  TIP3      10275           0.0000000000
     80656     10675  TIP3      H1            -16.2137429733      -26.2117618508      -38.9956902342  TIP3      10275           0.0000000000
     80657     10675  TIP3      H2            -14.9847167279      -25.8108819504      -39.8172212381  TIP3      10275           0.0000000000
     80658     10676  TIP3      OH2            -7.6818480679      -33.9096562581      -29.2811983946  TIP3      10276           0.0000000000
     80659     10676  TIP3      H1             -6.9779125763      -33.8519952020      -28.6211351671  TIP3      10276           0.0000000000
     80660     10676  TIP3      H2             -8.0643423589      -34.7922893534      -29.0961746700  TIP3      10276           0.0000000000
     80661     10677  TIP3      OH2            -6.9207131034      -34.2990051054      -38.1644423149  TIP3      10277           0.0000000000
     80662     10677  TIP3      H1             -6.6786347535      -33.8198062991      -38.9862111521  TIP3      10277           0.0000000000
     80663     10677  TIP3      H2             -6.3407870389      -33.8822314198      -37.5185183182  TIP3      10277           0.0000000000
     80664     10678  TIP3      OH2            -9.2346878355      -22.1583939082      -39.3275897796  TIP3      10278           0.0000000000
     80665     10678  TIP3      H1            -10.0543381055      -21.6399540909      -39.2750942099  TIP3      10278           0.0000000000
     80666     10678  TIP3      H2             -8.7009425207      -21.6563345626      -39.9653747263  TIP3      10278           0.0000000000
     80667     10679  TIP3      OH2            -9.7057115085      -32.5617448163      -37.3487722243  TIP3      10279           0.0000000000
     80668     10679  TIP3      H1             -8.8947915857      -32.0207109668      -37.3111761419  TIP3      10279           0.0000000000
     80669     10679  TIP3      H2             -9.9548069334      -32.6959966055      -36.4214734334  TIP3      10279           0.0000000000
     80670     10680  TIP3      OH2            -9.1584719070      -31.5621829315      -28.1698801813  TIP3      10280           0.0000000000
     80671     10680  TIP3      H1             -9.0588885259      -30.9863030541      -27.3884080547  TIP3      10280           0.0000000000
     80672     10680  TIP3      H2             -8.4984797223      -32.2547606244      -28.0474300733  TIP3      10280           0.0000000000
     80673     10681  TIP3      OH2            -8.8306199359      -35.5009927650      -36.4277406583  TIP3      10281           0.0000000000
     80674     10681  TIP3      H1             -9.1633977180      -34.8525886968      -35.7829542084  TIP3      10281           0.0000000000
     80675     10681  TIP3      H2             -8.1523888013      -34.9575258197      -36.8988126092  TIP3      10281           0.0000000000
     80676     10682  TIP3      OH2           -11.8890313839      -21.1209122560      -39.3355052536  TIP3      10282           0.0000000000
     80677     10682  TIP3      H1            -11.7229682610      -20.2946160708      -39.8344714866  TIP3      10282           0.0000000000
     80678     10682  TIP3      H2            -12.1014897833      -20.7849704529      -38.4396971764  TIP3      10282           0.0000000000
     80679     10683  TIP3      OH2           -13.1984072830      -34.4484484436      -39.7046470438  TIP3      10283           0.0000000000
     80680     10683  TIP3      H1            -13.2349907396      -33.5095649334      -39.3834244501  TIP3      10283           0.0000000000
     80681     10683  TIP3      H2            -12.2618657044      -34.6508136714      -39.4803492632  TIP3      10283           0.0000000000
     80682     10684  TIP3      OH2            -2.9480368405      -33.6761172255      -27.3072196494  TIP3      10284           0.0000000000
     80683     10684  TIP3      H1             -3.8865516858      -33.3850504198      -27.4265533531  TIP3      10284           0.0000000000
     80684     10684  TIP3      H2             -2.6442724497      -33.6732146031      -28.2297111754  TIP3      10284           0.0000000000
     80685     10685  TIP3      OH2            -4.3589178367      -29.8937309741      -33.2603605091  TIP3      10285           0.0000000000
     80686     10685  TIP3      H1             -5.1715001250      -30.3304678587      -33.5675659264  TIP3      10285           0.0000000000
     80687     10685  TIP3      H2             -3.8960666858      -30.5967420947      -32.7518911258  TIP3      10285           0.0000000000
     80688     10686  TIP3      OH2           -14.9272107256      -23.9744775479      -40.6753223242  TIP3      10286           0.0000000000
     80689     10686  TIP3      H1            -14.3007904736      -23.3005401471      -40.3933333791  TIP3      10286           0.0000000000
     80690     10686  TIP3      H2            -14.4284407300      -24.4224032346      -41.3870622437  TIP3      10286           0.0000000000
     80691     10687  TIP3      OH2           -16.1241669849      -31.3917419767      -41.6808500615  TIP3      10287           0.0000000000
     80692     10687  TIP3      H1            -16.5184564923      -30.4980460938      -41.3955383682  TIP3      10287           0.0000000000
     80693     10687  TIP3      H2            -17.1012074131      -31.6248029311      -41.8559214194  TIP3      10287           0.0000000000
     80694     10688  TIP3      OH2            -3.2925294810      -20.6485944693      -31.6083472007  TIP3      10288           0.0000000000
     80695     10688  TIP3      H1             -3.4074240289      -19.9600196459      -32.2902119092  TIP3      10288           0.0000000000
     80696     10688  TIP3      H2             -2.3296961985      -20.5761571269      -31.4263037296  TIP3      10288           0.0000000000
     80697     10689  TIP3      OH2           -15.7800916334      -36.5189807239      -32.8453933441  TIP3      10289           0.0000000000
     80698     10689  TIP3      H1            -16.0091422232      -36.4819230099      -33.7959045241  TIP3      10289           0.0000000000
     80699     10689  TIP3      H2            -16.2234739103      -37.3445910011      -32.5691586292  TIP3      10289           0.0000000000
     80700     10690  TIP3      OH2           -16.8402960206      -22.5991997372      -36.6965066311  TIP3      10290           0.0000000000
     80701     10690  TIP3      H1            -17.6848725884      -22.1233603664      -36.7012428519  TIP3      10290           0.0000000000
     80702     10690  TIP3      H2            -16.3253227650      -22.0950140288      -37.3394775648  TIP3      10290           0.0000000000
     80703     10691  TIP3      OH2           -17.5738934581      -19.9540045628      -25.3887876506  TIP3      10291           0.0000000000
     80704     10691  TIP3      H1            -17.0181216845      -20.2022790212      -24.6453857688  TIP3      10291           0.0000000000
     80705     10691  TIP3      H2            -18.0478026433      -20.7883684962      -25.5724810498  TIP3      10291           0.0000000000
     80706     10692  TIP3      OH2           -12.9686596876      -21.0326989309      -23.7425843948  TIP3      10292           0.0000000000
     80707     10692  TIP3      H1            -12.1920504830      -21.5180043152      -23.4439506178  TIP3      10292           0.0000000000
     80708     10692  TIP3      H2            -12.9944230428      -21.3012031754      -24.6972706898  TIP3      10292           0.0000000000
     80709     10693  TIP3      OH2            -8.5425112154      -21.3974028052      -41.8975606176  TIP3      10293           0.0000000000
     80710     10693  TIP3      H1             -9.3410638607      -21.9841963570      -41.9662347162  TIP3      10293           0.0000000000
     80711     10693  TIP3      H2             -8.0737999689      -21.9605126535      -42.5205033953  TIP3      10293           0.0000000000
     80712     10694  TIP3      OH2            -6.4072849283      -22.6584767181      -25.0403913767  TIP3      10294           0.0000000000
     80713     10694  TIP3      H1             -6.7440163656      -23.5404112423      -24.7854612572  TIP3      10294           0.0000000000
     80714     10694  TIP3      H2             -5.6555351658      -22.5316545178      -24.4394634487  TIP3      10294           0.0000000000
     80715     10695  TIP3      OH2            -4.2686808266      -21.7333024383      -42.1712964451  TIP3      10295           0.0000000000
     80716     10695  TIP3      H1             -3.9851585520      -22.5394330446      -41.7003948547  TIP3      10295           0.0000000000
     80717     10695  TIP3      H2             -3.5045871653      -21.5119523059      -42.7186470064  TIP3      10295           0.0000000000
     80718     10696  TIP3      OH2           -17.6688002101      -26.1659577337      -24.4182914694  TIP3      10296           0.0000000000
     80719     10696  TIP3      H1            -17.5235318391      -27.0842636661      -24.7082398969  TIP3      10296           0.0000000000
     80720     10696  TIP3      H2            -18.4363481357      -25.8862774623      -24.9302895534  TIP3      10296           0.0000000000
     80721     10697  TIP3      OH2           -13.2870092680      -25.7749217715      -42.2594867679  TIP3      10297           0.0000000000
     80722     10697  TIP3      H1            -13.2398050698      -26.6091114110      -41.7777206105  TIP3      10297           0.0000000000
     80723     10697  TIP3      H2            -12.6816100283      -25.9677370478      -43.0027630005  TIP3      10297           0.0000000000
     80724     10698  TIP3      OH2           -10.9807636935      -26.2003582658      -24.9761538462  TIP3      10298           0.0000000000
     80725     10698  TIP3      H1            -11.3354379302      -25.8942949537      -25.8508715218  TIP3      10298           0.0000000000
     80726     10698  TIP3      H2            -10.8824900792      -27.1642731812      -25.1118950152  TIP3      10298           0.0000000000
     80727     10699  TIP3      OH2            -5.2846747566      -26.3087745085      -27.6162078983  TIP3      10299           0.0000000000
     80728     10699  TIP3      H1             -4.5179322537      -25.7020801060      -27.7152818672  TIP3      10299           0.0000000000
     80729     10699  TIP3      H2             -6.0160152307      -25.6784057305      -27.5657626962  TIP3      10299           0.0000000000
     80730     10700  TIP3      OH2           -16.8246927574      -28.9554953749      -25.0217737112  TIP3      10300           0.0000000000
     80731     10700  TIP3      H1            -16.4019469840      -29.8169159956      -25.1171603765  TIP3      10300           0.0000000000
     80732     10700  TIP3      H2            -17.0689695866      -28.9491579482      -24.0753172326  TIP3      10300           0.0000000000
     80733     10701  TIP3      OH2           -12.1638570784      -27.8104610494      -39.9804227314  TIP3      10301           0.0000000000
     80734     10701  TIP3      H1            -12.6384518327      -28.3337506570      -39.3136984569  TIP3      10301           0.0000000000
     80735     10701  TIP3      H2            -11.8872830865      -28.5126956210      -40.6171891147  TIP3      10301           0.0000000000
     80736     10702  TIP3      OH2           -12.8840987782      -29.9813257806      -27.6406936943  TIP3      10302           0.0000000000
     80737     10702  TIP3      H1            -13.4962974607      -29.2764468821      -27.3663394290  TIP3      10302           0.0000000000
     80738     10702  TIP3      H2            -12.5231623382      -29.6288225637      -28.4714813933  TIP3      10302           0.0000000000
     80739     10703  TIP3      OH2           -11.0919209129      -29.5979007333      -41.7331104942  TIP3      10303           0.0000000000
     80740     10703  TIP3      H1            -11.2604588034      -29.7703257344      -42.6677731925  TIP3      10303           0.0000000000
     80741     10703  TIP3      H2            -10.1196129331      -29.4980754525      -41.6669000202  TIP3      10303           0.0000000000
     80742     10704  TIP3      OH2            -7.8513227255      -27.4444859574      -24.3069512906  TIP3      10304           0.0000000000
     80743     10704  TIP3      H1             -6.8882602433      -27.4279650349      -24.4137537504  TIP3      10304           0.0000000000
     80744     10704  TIP3      H2             -7.9987624581      -28.2135489857      -23.7472008815  TIP3      10304           0.0000000000
     80745     10705  TIP3      OH2            -1.8792241051      -27.1879586915       42.7943679354  TIP3      10305           0.0000000000
     80746     10705  TIP3      H1             -1.9483071090      -27.6603571551       41.9454831746  TIP3      10305           0.0000000000
     80747     10705  TIP3      H2             -1.6473161309      -26.2934205851       42.5050520026  TIP3      10305           0.0000000000
     80748     10706  TIP3      OH2           -12.5130356454      -32.6094523430      -26.5666361807  TIP3      10306           0.0000000000
     80749     10706  TIP3      H1            -12.3845616182      -33.3366079999      -27.1931200891  TIP3      10306           0.0000000000
     80750     10706  TIP3      H2            -12.5397865609      -31.8112459671      -27.1285602497  TIP3      10306           0.0000000000
     80751     10707  TIP3      OH2           -12.1066246534      -34.2386874236      -29.0456434785  TIP3      10307           0.0000000000
     80752     10707  TIP3      H1            -11.5820879673      -33.7764586158      -29.7388872245  TIP3      10307           0.0000000000
     80753     10707  TIP3      H2            -12.9875366453      -34.3321918539      -29.4765996195  TIP3      10307           0.0000000000
     80754     10708  TIP3      OH2           -10.5459892439      -28.7819429382      -28.8099033359  TIP3      10308           0.0000000000
     80755     10708  TIP3      H1             -9.7927615066      -28.9388329166      -29.3897034193  TIP3      10308           0.0000000000
     80756     10708  TIP3      H2            -10.8940040476      -27.9302071867      -29.1128604303  TIP3      10308           0.0000000000
     80757     10709  TIP3      OH2            -6.1442848910      -30.9829629683      -23.8759273722  TIP3      10309           0.0000000000
     80758     10709  TIP3      H1             -5.9284513874      -31.9158192031      -23.8764426143  TIP3      10309           0.0000000000
     80759     10709  TIP3      H2             -5.2797429846      -30.5536644134      -23.7812096983  TIP3      10309           0.0000000000
     80760     10710  TIP3      OH2            -4.8239174413      -28.2047897115      -25.7121805781  TIP3      10310           0.0000000000
     80761     10710  TIP3      H1             -5.0756468376      -27.4697055479      -26.3089984633  TIP3      10310           0.0000000000
     80762     10710  TIP3      H2             -3.8612576369      -28.2484590531      -25.8716034230  TIP3      10310           0.0000000000
     80763     10711  TIP3      OH2           -14.0448264292      -31.3741812194      -24.6570449985  TIP3      10311           0.0000000000
     80764     10711  TIP3      H1            -14.8185546818      -31.9462503012      -24.8402434550  TIP3      10311           0.0000000000
     80765     10711  TIP3      H2            -13.3786094886      -31.7309648610      -25.2656882893  TIP3      10311           0.0000000000
     80766     10712  TIP3      OH2           -11.3082559840      -36.8006362437      -28.6237448792  TIP3      10312           0.0000000000
     80767     10712  TIP3      H1            -11.4434769435      -35.8297145613      -28.7412761866  TIP3      10312           0.0000000000
     80768     10712  TIP3      H2            -12.0641038395      -37.1531524705      -29.1273795932  TIP3      10312           0.0000000000
     80769     10713  TIP3      OH2           -10.0450919419      -32.4844249804      -25.0775160455  TIP3      10313           0.0000000000
     80770     10713  TIP3      H1            -10.3066939965      -32.6843890705      -24.1555637090  TIP3      10313           0.0000000000
     80771     10713  TIP3      H2            -10.8552358142      -32.6668600614      -25.5793055994  TIP3      10313           0.0000000000
     80772     10714  TIP3      OH2            -7.3245164318      -33.3501627655      -26.0045842572  TIP3      10314           0.0000000000
     80773     10714  TIP3      H1             -8.2835530989      -33.2859573203      -25.8389308813  TIP3      10314           0.0000000000
     80774     10714  TIP3      H2             -7.0366003595      -33.9498744864      -25.2971911827  TIP3      10314           0.0000000000
     80775     10715  TIP3      OH2            -5.7081098899      -34.6930116318      -23.9844046102  TIP3      10315           0.0000000000
     80776     10715  TIP3      H1             -5.7974007954      -35.6643966582      -23.9978431587  TIP3      10315           0.0000000000
     80777     10715  TIP3      H2             -6.0295897196      -34.4218170577      -23.1153770130  TIP3      10315           0.0000000000
     80778     10716  TIP3      OH2           -15.9108474446      -33.4662249205      -24.9545230755  TIP3      10316           0.0000000000
     80779     10716  TIP3      H1            -15.6738339834      -34.1949141772      -25.5472076282  TIP3      10316           0.0000000000
     80780     10716  TIP3      H2            -16.0042715633      -33.9102090209      -24.0864690711  TIP3      10316           0.0000000000
     80781     10717  TIP3      OH2           -11.1054929679      -37.4477788492      -25.9543690160  TIP3      10317           0.0000000000
     80782     10717  TIP3      H1            -10.3967231735      -38.1299488146      -25.9685135540  TIP3      10317           0.0000000000
     80783     10717  TIP3      H2            -11.1968051777      -37.2373907071      -26.8986083661  TIP3      10317           0.0000000000
     80784     10718  TIP3      OH2           -10.7311840813      -35.7941870506      -23.8881748718  TIP3      10318           0.0000000000
     80785     10718  TIP3      H1            -10.8808763012      -36.2979033584      -24.7196024749  TIP3      10318           0.0000000000
     80786     10718  TIP3      H2            -11.3425034197      -35.0404467487      -23.9696501090  TIP3      10318           0.0000000000
     80787     10719  TIP3      OH2           -11.2278457377      -18.9095445899      -40.7336292041  TIP3      10319           0.0000000000
     80788     10719  TIP3      H1            -10.2637177569      -18.7695377418      -40.5917538097  TIP3      10319           0.0000000000
     80789     10719  TIP3      H2            -11.4465801890      -18.2304030011      -41.3672197215  TIP3      10319           0.0000000000
     80790     10720  TIP3      OH2           -17.6600870819      -24.2855300680      -41.2245226928  TIP3      10320           0.0000000000
     80791     10720  TIP3      H1            -16.7069643651      -24.2051229098      -40.9793401019  TIP3      10320           0.0000000000
     80792     10720  TIP3      H2            -17.6285643749      -24.9492102900      -41.9232345989  TIP3      10320           0.0000000000
     80793     10721  TIP3      OH2           -18.9440116228      -18.8992974384      -36.2030423144  TIP3      10321           0.0000000000
     80794     10721  TIP3      H1            -19.6352242171      -19.3807119639      -36.7039873046  TIP3      10321           0.0000000000
     80795     10721  TIP3      H2            -18.6327721073      -19.5725582460      -35.5757315236  TIP3      10321           0.0000000000
     80796     10722  TIP3      OH2           -18.1033367299      -20.7981951895      -34.3701152927  TIP3      10322           0.0000000000
     80797     10722  TIP3      H1            -18.4471978370      -21.6832802267      -34.1789873255  TIP3      10322           0.0000000000
     80798     10722  TIP3      H2            -17.8765185898      -20.4661644323      -33.4817168397  TIP3      10322           0.0000000000
     80799     10723  TIP3      OH2            -0.5685781221      -20.0010543354      -31.4054066543  TIP3      10323           0.0000000000
     80800     10723  TIP3      H1             -0.5602855897      -19.8167663590      -30.4503155396  TIP3      10323           0.0000000000
     80801     10723  TIP3      H2              0.1352394376      -19.4226256073      -31.7226732000  TIP3      10323           0.0000000000
     80802     10724  TIP3      OH2            -0.9907635390      -20.4036001484      -28.4656923661  TIP3      10324           0.0000000000
     80803     10724  TIP3      H1             -1.4750539445      -21.1732042010      -28.8406868336  TIP3      10324           0.0000000000
     80804     10724  TIP3      H2             -0.4617322083      -20.8412806711      -27.7787988474  TIP3      10324           0.0000000000
     80805     10725  TIP3      OH2            -2.5243626004      -24.6537026879      -23.8028115803  TIP3      10325           0.0000000000
     80806     10725  TIP3      H1             -3.4294990541      -24.7419400002      -23.4437257893  TIP3      10325           0.0000000000
     80807     10725  TIP3      H2             -2.1967474825      -23.8659324425      -23.4081634357  TIP3      10325           0.0000000000
     80808     10726  TIP3      OH2            -1.2461060772      -26.3571670660      -38.3422742134  TIP3      10326           0.0000000000
     80809     10726  TIP3      H1             -0.3786100014      -25.9630201853      -38.1787442822  TIP3      10326           0.0000000000
     80810     10726  TIP3      H2             -1.2366547185      -27.1104081495      -37.7052286806  TIP3      10326           0.0000000000
     80811     10727  TIP3      OH2            -0.8615326382      -28.2989073961      -36.4979828443  TIP3      10327           0.0000000000
     80812     10727  TIP3      H1             -1.5981918903      -28.8055522743      -36.0949662621  TIP3      10327           0.0000000000
     80813     10727  TIP3      H2             -0.2652602118      -28.1300851357      -35.7396934161  TIP3      10327           0.0000000000
     80814     10728  TIP3      OH2            -1.1084830341      -25.5669968046      -31.5192450680  TIP3      10328           0.0000000000
     80815     10728  TIP3      H1             -0.2674973828      -25.9326679980      -31.8502565649  TIP3      10328           0.0000000000
     80816     10728  TIP3      H2             -0.9710058298      -24.6058173194      -31.6696268466  TIP3      10328           0.0000000000
     80817     10729  TIP3      OH2            -2.5737984337      -22.6717088305      -29.2251421059  TIP3      10329           0.0000000000
     80818     10729  TIP3      H1             -3.2569623515      -22.3377897567      -28.6217805808  TIP3      10329           0.0000000000
     80819     10729  TIP3      H2             -3.1204802287      -23.0954563806      -29.9237480062  TIP3      10329           0.0000000000
     80820     10730  TIP3      OH2            -0.6148866669      -28.4489270519      -40.0504830375  TIP3      10330           0.0000000000
     80821     10730  TIP3      H1             -1.1026323007      -28.0892740285      -40.8204784593  TIP3      10330           0.0000000000
     80822     10730  TIP3      H2             -0.6294824322      -27.7253967851      -39.4172889306  TIP3      10330           0.0000000000
     80823     10731  TIP3      OH2            -2.5055036314      -31.1553266619      -41.4599557430  TIP3      10331           0.0000000000
     80824     10731  TIP3      H1             -2.1100534483      -30.5698136864      -42.1426494957  TIP3      10331           0.0000000000
     80825     10731  TIP3      H2             -2.3565431791      -31.9833759799      -41.9815084528  TIP3      10331           0.0000000000
     80826     10732  TIP3      OH2            -3.0559309232      -29.8022202024      -35.9303063014  TIP3      10332           0.0000000000
     80827     10732  TIP3      H1             -3.2101283535      -30.7584035877      -35.9471955267  TIP3      10332           0.0000000000
     80828     10732  TIP3      H2             -3.4077813597      -29.5489273629      -35.0616461304  TIP3      10332           0.0000000000
     80829     10733  TIP3      OH2           -18.0488778741      -27.7266220802      -31.8876334953  TIP3      10333           0.0000000000
     80830     10733  TIP3      H1            -17.8459857869      -27.8067674087      -32.8457944914  TIP3      10333           0.0000000000
     80831     10733  TIP3      H2            -17.1628467889      -27.8693594189      -31.5007355174  TIP3      10333           0.0000000000
     80832     10734  TIP3      OH2            -2.2119234403      -27.8393306467      -26.2694810008  TIP3      10334           0.0000000000
     80833     10734  TIP3      H1             -1.6019162696      -28.5850625588      -26.0875823385  TIP3      10334           0.0000000000
     80834     10734  TIP3      H2             -1.6218346126      -27.0621459132      -26.2449699068  TIP3      10334           0.0000000000
     80835     10735  TIP3      OH2            -0.6993287753      -29.9258033440      -25.6325308754  TIP3      10335           0.0000000000
     80836     10735  TIP3      H1             -1.5800845841      -30.3360822953      -25.7590191307  TIP3      10335           0.0000000000
     80837     10735  TIP3      H2             -0.1073347511      -30.6989300401      -25.6506439914  TIP3      10335           0.0000000000
     80838     10736  TIP3      OH2            -2.9801702072      -33.7943154670      -42.4532517141  TIP3      10336           0.0000000000
     80839     10736  TIP3      H1             -2.3667240679      -34.1693200914      -41.7961135511  TIP3      10336           0.0000000000
     80840     10736  TIP3      H2             -3.8372692686      -34.1875855198      -42.2413651741  TIP3      10336           0.0000000000
     80841     10737  TIP3      OH2            -3.3732441527      -32.2152555737      -37.4550917644  TIP3      10337           0.0000000000
     80842     10737  TIP3      H1             -3.0672465288      -33.1436609425      -37.3380724598  TIP3      10337           0.0000000000
     80843     10737  TIP3      H2             -2.5931633985      -31.8019155529      -37.8530241854  TIP3      10337           0.0000000000
     80844     10738  TIP3      OH2            -2.7517074187      -31.6701681237      -32.0287971641  TIP3      10338           0.0000000000
     80845     10738  TIP3      H1             -1.7947931342      -31.4324823147      -32.0472400507  TIP3      10338           0.0000000000
     80846     10738  TIP3      H2             -2.9565443023      -31.5345722899      -31.0903478658  TIP3      10338           0.0000000000
     80847     10739  TIP3      OH2            -2.6912557954      -30.9405045356      -29.2461108625  TIP3      10339           0.0000000000
     80848     10739  TIP3      H1             -3.5603105632      -30.6455113204      -28.8952786338  TIP3      10339           0.0000000000
     80849     10739  TIP3      H2             -2.2576087561      -30.0804416815      -29.4626426084  TIP3      10339           0.0000000000
     80850     10740  TIP3      OH2           -18.4403886586      -32.4384607758      -25.7672901928  TIP3      10340           0.0000000000
     80851     10740  TIP3      H1            -17.5034639096      -32.5991510821      -25.5301719641  TIP3      10340           0.0000000000
     80852     10740  TIP3      H2            -18.8809813956      -33.2288547111      -25.3933799018  TIP3      10340           0.0000000000
     80853     10741  TIP3      OH2            -2.7245925852      -34.9532743765      -37.4171234214  TIP3      10341           0.0000000000
     80854     10741  TIP3      H1             -2.5340362414      -35.3928822520      -36.5673010453  TIP3      10341           0.0000000000
     80855     10741  TIP3      H2             -3.3433326913      -35.5526737725      -37.8784337748  TIP3      10341           0.0000000000
     80856     10742  TIP3      OH2           -17.2259944088      -34.1365259580      -32.8779237457  TIP3      10342           0.0000000000
     80857     10742  TIP3      H1            -16.7612321870      -34.9461555370      -32.5845245050  TIP3      10342           0.0000000000
     80858     10742  TIP3      H2            -16.7201511097      -33.4281722382      -32.4565292473  TIP3      10342           0.0000000000
     80859     10743  TIP3      OH2           -18.9348733728      -31.1483889357      -31.8110261964  TIP3      10343           0.0000000000
     80860     10743  TIP3      H1            -18.3927227814      -31.3663248628      -32.5983987789  TIP3      10343           0.0000000000
     80861     10743  TIP3      H2            -18.5162325594      -30.3147405954      -31.5443370146  TIP3      10343           0.0000000000
     80862     10744  TIP3      OH2            -0.8913646638      -34.8057643189      -25.5354789998  TIP3      10344           0.0000000000
     80863     10744  TIP3      H1             -1.8273490978      -34.5451748474      -25.5964503812  TIP3      10344           0.0000000000
     80864     10744  TIP3      H2             -0.8047261266      -35.3518037017      -26.3271723642  TIP3      10344           0.0000000000
     80865     10745  TIP3      OH2            -0.8938885805      -34.9007716500      -40.8527200524  TIP3      10345           0.0000000000
     80866     10745  TIP3      H1             -0.4553897720      -35.6047221823      -41.3596377662  TIP3      10345           0.0000000000
     80867     10745  TIP3      H2             -0.1848411155      -34.2221461877      -40.8393357693  TIP3      10345           0.0000000000
     80868     10746  TIP3      OH2           -18.5658127557      -34.9106109866      -37.7704109893  TIP3      10346           0.0000000000
     80869     10746  TIP3      H1            -19.5098660630      -34.6666148623      -37.8773238818  TIP3      10346           0.0000000000
     80870     10746  TIP3      H2            -18.1616284034      -34.3660631063      -38.4651895467  TIP3      10346           0.0000000000
     80871     10747  TIP3      OH2            -3.8400672985      -19.9127526621      -35.8032554711  TIP3      10347           0.0000000000
     80872     10747  TIP3      H1             -3.1619582677      -20.2418603030      -36.4206980201  TIP3      10347           0.0000000000
     80873     10747  TIP3      H2             -3.3117719145      -19.4172335380      -35.1600039357  TIP3      10347           0.0000000000
     80874     10748  TIP3      OH2           -18.6238195494      -36.1895130743      -29.4322278068  TIP3      10348           0.0000000000
     80875     10748  TIP3      H1            -19.3025530546      -36.3886925859      -28.7666964880  TIP3      10348           0.0000000000
     80876     10748  TIP3      H2            -19.0802834772      -35.5265685185      -29.9946891481  TIP3      10348           0.0000000000
     80877     10749  TIP3      OH2           -16.4428327612      -22.9894100897      -25.2669358274  TIP3      10349           0.0000000000
     80878     10749  TIP3      H1            -17.2672251604      -22.8059389584      -25.7264884308  TIP3      10349           0.0000000000
     80879     10749  TIP3      H2            -16.6889144080      -23.0754937495      -24.3456867031  TIP3      10349           0.0000000000
     80880     10750  TIP3      OH2           -13.7520445429      -21.7252570561      -30.1121685577  TIP3      10350           0.0000000000
     80881     10750  TIP3      H1            -13.9268973985      -21.1722104323      -29.3210087238  TIP3      10350           0.0000000000
     80882     10750  TIP3      H2            -12.8492321903      -21.8827007498      -29.6513973701  TIP3      10350           0.0000000000
     80883     10751  TIP3      OH2            -9.1732483558      -20.5920480069      -26.0915303358  TIP3      10351           0.0000000000
     80884     10751  TIP3      H1             -9.0066167364      -20.9313302586      -25.1799669783  TIP3      10351           0.0000000000
     80885     10751  TIP3      H2             -8.2929950530      -20.2873198630      -26.3657011745  TIP3      10351           0.0000000000
     80886     10752  TIP3      OH2            -6.8604969574      -19.3204042981      -26.8160156839  TIP3      10352           0.0000000000
     80887     10752  TIP3      H1             -6.1434270311      -19.9341973583      -27.0421046017  TIP3      10352           0.0000000000
     80888     10752  TIP3      H2             -6.4964105179      -18.9074715517      -26.0015682244  TIP3      10352           0.0000000000
     80889     10753  TIP3      OH2            -1.8883031773      -36.7094967426      -27.7143358607  TIP3      10353           0.0000000000
     80890     10753  TIP3      H1             -2.7177925197      -36.4063693546      -28.1210680673  TIP3      10353           0.0000000000
     80891     10753  TIP3      H2             -1.6885476319      -37.5055477983      -28.2553089223  TIP3      10353           0.0000000000
     80892     10754  TIP3      OH2           -16.0728951642      -18.7485035710      -28.9837287697  TIP3      10354           0.0000000000
     80893     10754  TIP3      H1            -16.8078141272      -18.2882465985      -29.4149610473  TIP3      10354           0.0000000000
     80894     10754  TIP3      H2            -16.4188795944      -18.9863573503      -28.1127089560  TIP3      10354           0.0000000000
     80895     10755  TIP3      OH2           -13.5823638987      -19.0989144420      -29.9116368837  TIP3      10355           0.0000000000
     80896     10755  TIP3      H1            -14.4896453937      -19.0735107219      -29.5377876176  TIP3      10355           0.0000000000
     80897     10755  TIP3      H2            -13.6727896217      -18.5946292215      -30.7330889271  TIP3      10355           0.0000000000
     80898     10756  TIP3      OH2            -8.8754881612      -19.2734398199      -30.7754206902  TIP3      10356           0.0000000000
     80899     10756  TIP3      H1             -9.3683949644      -18.7386155876      -31.4154464845  TIP3      10356           0.0000000000
     80900     10756  TIP3      H2             -8.7541902333      -18.6574390987      -30.0259463511  TIP3      10356           0.0000000000
     80901     10757  TIP3      OH2            -6.5795686561      -20.4222380331      -29.7881246799  TIP3      10357           0.0000000000
     80902     10757  TIP3      H1             -7.4778691934      -20.2035124057      -30.0904250602  TIP3      10357           0.0000000000
     80903     10757  TIP3      H2             -6.1419236571      -19.5565572174      -29.8697237758  TIP3      10357           0.0000000000
     80904     10758  TIP3      OH2            -3.9961982890      -18.8575840216      -29.5083381931  TIP3      10358           0.0000000000
     80905     10758  TIP3      H1             -4.1260168431      -17.9028637356      -29.7402194304  TIP3      10358           0.0000000000
     80906     10758  TIP3      H2             -3.7993270573      -19.2329144090      -30.3858535631  TIP3      10358           0.0000000000
     80907     10759  TIP3      OH2           -16.6526342135      -20.1160790199      -32.0666669318  TIP3      10359           0.0000000000
     80908     10759  TIP3      H1            -16.6806441516      -20.5659799673      -31.1962390140  TIP3      10359           0.0000000000
     80909     10759  TIP3      H2            -15.8230214143      -20.4679181909      -32.4514233254  TIP3      10359           0.0000000000
     80910     10760  TIP3      OH2           -14.5348413114      -21.4058408208      -33.4340815095  TIP3      10360           0.0000000000
     80911     10760  TIP3      H1            -14.7224744453      -22.3330708912      -33.1983787016  TIP3      10360           0.0000000000
     80912     10760  TIP3      H2            -13.6952173066      -21.2732277285      -32.9253757722  TIP3      10360           0.0000000000
     80913     10761  TIP3      OH2           -11.9500482230      -20.9147258951      -32.5690230952  TIP3      10361           0.0000000000
     80914     10761  TIP3      H1            -11.7776256214      -21.8407747083      -32.8133938666  TIP3      10361           0.0000000000
     80915     10761  TIP3      H2            -11.9246439268      -20.9929892702      -31.5932870324  TIP3      10361           0.0000000000
     80916     10762  TIP3      OH2            -8.4762421027      -35.2713947535      -33.4012267682  TIP3      10362           0.0000000000
     80917     10762  TIP3      H1             -9.1540863116      -35.9173086325      -33.1425249845  TIP3      10362           0.0000000000
     80918     10762  TIP3      H2             -7.9198375023      -35.7830626133      -34.0015413042  TIP3      10362           0.0000000000
     80919     10763  TIP3      OH2            -3.3423649951      -37.2150133746      -33.3236322603  TIP3      10363           0.0000000000
     80920     10763  TIP3      H1             -2.7216326604      -36.6128645301      -33.8089640138  TIP3      10363           0.0000000000
     80921     10763  TIP3      H2             -4.2197445365      -36.8465456962      -33.5406705037  TIP3      10363           0.0000000000
     80922     10764  TIP3      OH2            -1.6595607539      -36.0137865635      -35.0074935297  TIP3      10364           0.0000000000
     80923     10764  TIP3      H1             -0.9727187254      -36.5450982109      -35.4769952390  TIP3      10364           0.0000000000
     80924     10764  TIP3      H2             -1.1994353424      -35.1438689456      -34.9386912038  TIP3      10364           0.0000000000
     80925     10765  TIP3      OH2           -16.1135447363      -36.6320713791      -35.6011933893  TIP3      10365           0.0000000000
     80926     10765  TIP3      H1            -16.9340503988      -36.8781441210      -36.0695840331  TIP3      10365           0.0000000000
     80927     10765  TIP3      H2            -15.6329943050      -37.4809083006      -35.5740154360  TIP3      10365           0.0000000000
     80928     10766  TIP3      OH2           -17.3429623341      -36.8584409442      -39.7964392808  TIP3      10366           0.0000000000
     80929     10766  TIP3      H1            -16.9304534996      -36.2248828923      -40.4246631349  TIP3      10366           0.0000000000
     80930     10766  TIP3      H2            -17.9693998125      -36.2957728233      -39.3034741818  TIP3      10366           0.0000000000
     80931     10767  TIP3      OH2           -11.6096664960      -36.7176463449      -35.7790098019  TIP3      10367           0.0000000000
     80932     10767  TIP3      H1            -10.7054381932      -36.3438824316      -35.8091286841  TIP3      10367           0.0000000000
     80933     10767  TIP3      H2            -11.6853691047      -36.9332826374      -34.8450841368  TIP3      10367           0.0000000000
     80934     10768  TIP3      OH2            -5.9557646253      -36.6992580277      -34.1354990143  TIP3      10368           0.0000000000
     80935     10768  TIP3      H1             -5.9568202164      -36.5905066062      -35.0874504030  TIP3      10368           0.0000000000
     80936     10768  TIP3      H2             -6.3091672295      -37.6089284896      -33.9982924627  TIP3      10368           0.0000000000
     80937     10769  TIP3      OH2            -4.6442841561      -36.6798763475      -38.4448975590  TIP3      10369           0.0000000000
     80938     10769  TIP3      H1             -5.3688085446      -36.0526140620      -38.6405940548  TIP3      10369           0.0000000000
     80939     10769  TIP3      H2             -5.1331365948      -37.5099134298      -38.2899415722  TIP3      10369           0.0000000000
     80940     10770  TIP3      OH2           -17.4045597334      -20.9254191375      -38.8472959622  TIP3      10370           0.0000000000
     80941     10770  TIP3      H1            -18.0972320343      -20.9299845106      -39.5417941199  TIP3      10370           0.0000000000
     80942     10770  TIP3      H2            -17.4124270551      -19.9831643613      -38.6241147001  TIP3      10370           0.0000000000
     80943     10771  TIP3      OH2           -15.4844301783      -35.0338601512      -41.2660165833  TIP3      10371           0.0000000000
     80944     10771  TIP3      H1            -14.9562328962      -35.5477685870      -41.8882486018  TIP3      10371           0.0000000000
     80945     10771  TIP3      H2            -14.8162114539      -34.5815771066      -40.7194033291  TIP3      10371           0.0000000000
     80946     10772  TIP3      OH2           -10.4731671137      -34.6748512342      -38.9078377981  TIP3      10372           0.0000000000
     80947     10772  TIP3      H1            -10.2263988635      -35.2764583623      -38.1844176046  TIP3      10372           0.0000000000
     80948     10772  TIP3      H2            -10.4456132972      -33.8146250826      -38.4189888937  TIP3      10372           0.0000000000
     80949     10773  TIP3      OH2            -8.5800414177      -19.5092608682      -40.3965096193  TIP3      10373           0.0000000000
     80950     10773  TIP3      H1             -7.6552281774      -19.3454056881      -40.6474725604  TIP3      10373           0.0000000000
     80951     10773  TIP3      H2             -8.7691296200      -20.0844915399      -41.1973955244  TIP3      10373           0.0000000000
     80952     10774  TIP3      OH2            -1.8338859569      -20.1213050266      -37.7756283521  TIP3      10374           0.0000000000
     80953     10774  TIP3      H1             -2.0440261600      -20.8900503343      -38.3623688709  TIP3      10374           0.0000000000
     80954     10774  TIP3      H2             -1.9031034418      -19.3759063899      -38.3986063831  TIP3      10374           0.0000000000
     80955     10775  TIP3      OH2           -16.2183388616      -36.1189743181      -26.0892992748  TIP3      10375           0.0000000000
     80956     10775  TIP3      H1            -16.5759119829      -36.9032390624      -25.6444961641  TIP3      10375           0.0000000000
     80957     10775  TIP3      H2            -15.2883602811      -36.1213385098      -25.7537335177  TIP3      10375           0.0000000000
     80958     10776  TIP3      OH2           -14.2138577346      -36.7586466678      -24.5056013790  TIP3      10376           0.0000000000
     80959     10776  TIP3      H1            -13.3079657486      -37.0692694869      -24.7076352390  TIP3      10376           0.0000000000
     80960     10776  TIP3      H2            -14.5687992670      -37.5363700428      -24.0654573289  TIP3      10376           0.0000000000
     80961     10777  TIP3      OH2           -15.5929386596      -19.9720179266      -41.8640593707  TIP3      10377           0.0000000000
     80962     10777  TIP3      H1            -15.8707418862      -19.6936280203      -40.9813471207  TIP3      10377           0.0000000000
     80963     10777  TIP3      H2            -14.8286412818      -20.5232023288      -41.7021034288  TIP3      10377           0.0000000000
     80964     10778  TIP3      OH2            -5.8108499900      -37.4294754979      -24.3385863925  TIP3      10378           0.0000000000
     80965     10778  TIP3      H1             -5.7233954376      -37.8856954019      -23.4790018772  TIP3      10378           0.0000000000
     80966     10778  TIP3      H2             -4.8975981790      -37.4484866368      -24.6883900538  TIP3      10378           0.0000000000
     80967     10779  TIP3      OH2            -2.6085114388      -21.4050575806      -25.6325633857  TIP3      10379           0.0000000000
     80968     10779  TIP3      H1             -3.4076168018      -21.5434200243      -26.1915304639  TIP3      10379           0.0000000000
     80969     10779  TIP3      H2             -2.7074613501      -20.4398585392      -25.4576923567  TIP3      10379           0.0000000000
     80970     10780  TIP3      OH2            11.8093454099      -27.5049320020      -35.6513767990  TIP3      10380           0.0000000000
     80971     10780  TIP3      H1             11.8508869197      -26.5290144975      -35.7538894922  TIP3      10380           0.0000000000
     80972     10780  TIP3      H2             11.1265139386      -27.7540646228      -36.2930348905  TIP3      10380           0.0000000000
     80973     10781  TIP3      OH2            10.7027711968      -28.2338698151      -32.1933632091  TIP3      10381           0.0000000000
     80974     10781  TIP3      H1             10.6759545268      -28.8923810413      -31.4925526250  TIP3      10381           0.0000000000
     80975     10781  TIP3      H2             10.3784711728      -28.7226059385      -32.9686925321  TIP3      10381           0.0000000000
     80976     10782  TIP3      OH2             3.0618997619      -28.5989258869      -30.6342329752  TIP3      10382           0.0000000000
     80977     10782  TIP3      H1              3.1330131910      -29.2556008176      -29.9080819644  TIP3      10382           0.0000000000
     80978     10782  TIP3      H2              3.7932037254      -28.0010029201      -30.4248162458  TIP3      10382           0.0000000000
     80979     10783  TIP3      OH2            14.4095546462      -25.3018298982      -33.9157804143  TIP3      10383           0.0000000000
     80980     10783  TIP3      H1             13.9722904193      -26.0157371484      -33.4395100195  TIP3      10383           0.0000000000
     80981     10783  TIP3      H2             14.4051224259      -24.5813951853      -33.2565075617  TIP3      10383           0.0000000000
     80982     10784  TIP3      OH2             3.9888457237      -24.1453255109      -32.0965670868  TIP3      10384           0.0000000000
     80983     10784  TIP3      H1              3.6504814532      -24.9868787333      -32.4547477707  TIP3      10384           0.0000000000
     80984     10784  TIP3      H2              4.9439763115      -24.3356932213      -32.0561613721  TIP3      10384           0.0000000000
     80985     10785  TIP3      OH2             0.6214530304      -30.5480117751      -36.6566415934  TIP3      10385           0.0000000000
     80986     10785  TIP3      H1              0.1734004401      -29.6758824954      -36.7175278597  TIP3      10385           0.0000000000
     80987     10785  TIP3      H2              0.0524018545      -31.0902507012      -37.2247614492  TIP3      10385           0.0000000000
     80988     10786  TIP3      OH2             1.3191704041      -28.3413804659      -34.5411074848  TIP3      10386           0.0000000000
     80989     10786  TIP3      H1              1.5654804153      -29.1411992624      -34.0418395452  TIP3      10386           0.0000000000
     80990     10786  TIP3      H2              2.0540656858      -28.2547328804      -35.1688227886  TIP3      10386           0.0000000000
     80991     10787  TIP3      OH2            11.5276804413      -20.1486384797      -33.6813377715  TIP3      10387           0.0000000000
     80992     10787  TIP3      H1             12.1456480525      -20.8713717258      -33.9682454019  TIP3      10387           0.0000000000
     80993     10787  TIP3      H2             11.3147479010      -20.4391898422      -32.7938979816  TIP3      10387           0.0000000000
     80994     10788  TIP3      OH2             9.0798061416      -25.8172773629      -31.7721772276  TIP3      10388           0.0000000000
     80995     10788  TIP3      H1              9.4150899146      -26.4849094936      -32.3923539389  TIP3      10388           0.0000000000
     80996     10788  TIP3      H2              9.8521824624      -25.6885686653      -31.1952297855  TIP3      10388           0.0000000000
     80997     10789  TIP3      OH2            17.7217215516      -34.2086047319      -30.9660033618  TIP3      10389           0.0000000000
     80998     10789  TIP3      H1             17.8345421751      -33.5880946070      -30.2140952082  TIP3      10389           0.0000000000
     80999     10789  TIP3      H2             18.2150997095      -33.7477869660      -31.6612356564  TIP3      10389           0.0000000000
     81000     10790  TIP3      OH2            12.2413052683      -31.3843241673      -31.4374213297  TIP3      10390           0.0000000000
     81001     10790  TIP3      H1             12.3908823177      -32.3502971876      -31.4446833156  TIP3      10390           0.0000000000
     81002     10790  TIP3      H2             12.1369275185      -31.2218632758      -32.3977824819  TIP3      10390           0.0000000000
     81003     10791  TIP3      OH2             5.3825965431      -33.3009267742      -34.1880320924  TIP3      10391           0.0000000000
     81004     10791  TIP3      H1              5.4474816569      -32.4475368583      -34.6470039317  TIP3      10391           0.0000000000
     81005     10791  TIP3      H2              4.9439250966      -33.8641240143      -34.8602831379  TIP3      10391           0.0000000000
     81006     10792  TIP3      OH2            13.0990804948      -33.1926899585      -35.8159667616  TIP3      10392           0.0000000000
     81007     10792  TIP3      H1             13.7686750572      -33.5129698950      -35.1652987502  TIP3      10392           0.0000000000
     81008     10792  TIP3      H2             13.6480424271      -32.6487209102      -36.4023348894  TIP3      10392           0.0000000000
     81009     10793  TIP3      OH2             1.9938252062      -30.8904937660      -33.4455506520  TIP3      10393           0.0000000000
     81010     10793  TIP3      H1              2.6684257918      -31.4531651005      -33.0096258900  TIP3      10393           0.0000000000
     81011     10793  TIP3      H2              2.0617391462      -31.1919640827      -34.3641549086  TIP3      10393           0.0000000000
     81012     10794  TIP3      OH2             7.1610067538      -29.3345049115      -34.1899317384  TIP3      10394           0.0000000000
     81013     10794  TIP3      H1              7.7991227128      -29.9032289574      -33.7269096999  TIP3      10394           0.0000000000
     81014     10794  TIP3      H2              6.6013523875      -30.0021265842      -34.6366210099  TIP3      10394           0.0000000000
     81015     10795  TIP3      OH2            18.1476860635      -32.7509535963      -28.7183359062  TIP3      10395           0.0000000000
     81016     10795  TIP3      H1             17.4780656751      -32.0417711584      -28.8072729034  TIP3      10395           0.0000000000
     81017     10795  TIP3      H2             18.1666123680      -32.9013069314      -27.7631416469  TIP3      10395           0.0000000000
     81018     10796  TIP3      OH2             4.2389403429      -34.3983879602      -30.1398648767  TIP3      10396           0.0000000000
     81019     10796  TIP3      H1              3.9808898228      -33.8403164923      -30.8988100419  TIP3      10396           0.0000000000
     81020     10796  TIP3      H2              3.5487947440      -34.1580766746      -29.4723556299  TIP3      10396           0.0000000000
     81021     10797  TIP3      OH2            11.5673443119      -24.9012642636      -36.5933972584  TIP3      10397           0.0000000000
     81022     10797  TIP3      H1             11.2716467575      -25.2036344628      -37.4590578583  TIP3      10397           0.0000000000
     81023     10797  TIP3      H2             11.2472344390      -23.9757337605      -36.5539565265  TIP3      10397           0.0000000000
     81024     10798  TIP3      OH2             6.7821188995      -26.7414956280      -29.8694200550  TIP3      10398           0.0000000000
     81025     10798  TIP3      H1              6.0497106658      -26.1048955756      -29.7190798514  TIP3      10398           0.0000000000
     81026     10798  TIP3      H2              7.4871488741      -26.1508304062      -30.1731787937  TIP3      10398           0.0000000000
     81027     10799  TIP3      OH2            14.8815795120      -33.8741035312      -33.8280679860  TIP3      10399           0.0000000000
     81028     10799  TIP3      H1             14.6764124837      -34.6452542253      -33.2888091098  TIP3      10399           0.0000000000
     81029     10799  TIP3      H2             15.5541420160      -33.4210152299      -33.2916922905  TIP3      10399           0.0000000000
     81030     10800  TIP3      OH2             3.7969736638      -32.5169520298      -32.1532593858  TIP3      10400           0.0000000000
     81031     10800  TIP3      H1              4.4402349443      -31.8548940894      -31.8073035442  TIP3      10400           0.0000000000
     81032     10800  TIP3      H2              4.3341939100      -32.9652318990      -32.8490068364  TIP3      10400           0.0000000000
     81033     10801  TIP3      OH2             5.2091624572      -24.7618577910      -29.0796479270  TIP3      10401           0.0000000000
     81034     10801  TIP3      H1              5.1750781450      -23.8519925734      -29.4327671000  TIP3      10401           0.0000000000
     81035     10801  TIP3      H2              4.3277233534      -24.8275268252      -28.6299753856  TIP3      10401           0.0000000000
     81036     10802  TIP3      OH2             1.2961465010      -25.1106405371      -38.2822443192  TIP3      10402           0.0000000000
     81037     10802  TIP3      H1              1.0501249099      -24.8321760001      -39.1829701460  TIP3      10402           0.0000000000
     81038     10802  TIP3      H2              1.3589950109      -24.2548361987      -37.8028595528  TIP3      10402           0.0000000000
     81039     10803  TIP3      OH2            14.9308789570      -23.4695167858      -31.5505285609  TIP3      10403           0.0000000000
     81040     10803  TIP3      H1             13.9649858312      -23.3778315109      -31.4083876391  TIP3      10403           0.0000000000
     81041     10803  TIP3      H2             15.1971228411      -22.5431249006      -31.7157682668  TIP3      10403           0.0000000000
     81042     10804  TIP3      OH2            15.2350678047      -35.1753149457      -30.1425711601  TIP3      10404           0.0000000000
     81043     10804  TIP3      H1             14.4997474148      -34.5521651916      -30.2038374369  TIP3      10404           0.0000000000
     81044     10804  TIP3      H2             15.9312337740      -34.7533656388      -30.6766187384  TIP3      10404           0.0000000000
     81045     10805  TIP3      OH2             8.2303200781      -37.0697143919      -32.6863729614  TIP3      10405           0.0000000000
     81046     10805  TIP3      H1              8.1014386104      -38.0363008808      -32.7422190660  TIP3      10405           0.0000000000
     81047     10805  TIP3      H2              7.3538290368      -36.7539464671      -32.3933714966  TIP3      10405           0.0000000000
     81048     10806  TIP3      OH2            13.1746132290      -21.6836686962      -34.9313865699  TIP3      10406           0.0000000000
     81049     10806  TIP3      H1             13.6114531217      -22.3933913474      -35.4403565866  TIP3      10406           0.0000000000
     81050     10806  TIP3      H2             13.5372503903      -20.8823817679      -35.3577312789  TIP3      10406           0.0000000000
     81051     10807  TIP3      OH2            14.3676647919      -23.7574601029      -36.4367209917  TIP3      10407           0.0000000000
     81052     10807  TIP3      H1             14.0852075791      -24.4622887673      -37.0443967463  TIP3      10407           0.0000000000
     81053     10807  TIP3      H2             14.4127849458      -24.2349435407      -35.5870414679  TIP3      10407           0.0000000000
     81054     10808  TIP3      OH2            16.0187242442      -25.1873123763      -27.9381334970  TIP3      10408           0.0000000000
     81055     10808  TIP3      H1             16.1625916660      -25.8086494712      -28.6850767213  TIP3      10408           0.0000000000
     81056     10808  TIP3      H2             16.1980795783      -24.3217571520      -28.3363188029  TIP3      10408           0.0000000000
     81057     10809  TIP3      OH2            10.4989892894      -28.2581716586      -38.1665081919  TIP3      10409           0.0000000000
     81058     10809  TIP3      H1              9.7925490833      -27.7028976027      -38.5469529561  TIP3      10409           0.0000000000
     81059     10809  TIP3      H2             11.1980205434      -28.1828299414      -38.8458410463  TIP3      10409           0.0000000000
     81060     10810  TIP3      OH2            10.5445546264      -29.7668829781      -41.1243121018  TIP3      10410           0.0000000000
     81061     10810  TIP3      H1             11.2684583964      -29.7570810578      -40.4805408954  TIP3      10410           0.0000000000
     81062     10810  TIP3      H2             10.8653988139      -30.4044138121      -41.7727580493  TIP3      10410           0.0000000000
     81063     10811  TIP3      OH2            17.8817533466      -28.8690356108      -29.8806143315  TIP3      10411           0.0000000000
     81064     10811  TIP3      H1             17.2186679315      -28.1527307285      -29.8178633045  TIP3      10411           0.0000000000
     81065     10811  TIP3      H2             18.3515545291      -28.6376813493      -30.7016986347  TIP3      10411           0.0000000000
     81066     10812  TIP3      OH2            13.9235594951      -28.0385450264      -37.2425021364  TIP3      10412           0.0000000000
     81067     10812  TIP3      H1             13.1773018947      -27.8090282959      -36.6404424930  TIP3      10412           0.0000000000
     81068     10812  TIP3      H2             14.3788284034      -28.7460806699      -36.7514924138  TIP3      10412           0.0000000000
     81069     10813  TIP3      OH2            13.8488371785      -29.8867991840      -28.1476490146  TIP3      10413           0.0000000000
     81070     10813  TIP3      H1             13.8776715594      -29.0873350097      -27.5911377518  TIP3      10413           0.0000000000
     81071     10813  TIP3      H2             13.2150044069      -29.5830957367      -28.8361160822  TIP3      10413           0.0000000000
     81072     10814  TIP3      OH2             5.5513539342      -27.3938000896      -35.3286663724  TIP3      10414           0.0000000000
     81073     10814  TIP3      H1              5.2267044784      -27.7849174136      -36.1757358539  TIP3      10414           0.0000000000
     81074     10814  TIP3      H2              6.1599436820      -28.0914500374      -34.9975174190  TIP3      10414           0.0000000000
     81075     10815  TIP3      OH2             6.8941025401      -23.9813593634      -32.6563441070  TIP3      10415           0.0000000000
     81076     10815  TIP3      H1              6.8446612123      -24.5521760232      -33.4338030534  TIP3      10415           0.0000000000
     81077     10815  TIP3      H2              7.6579659431      -24.3600445111      -32.1839581351  TIP3      10415           0.0000000000
     81078     10816  TIP3      OH2             5.9015545314      -28.6489802779      -31.6973005464  TIP3      10416           0.0000000000
     81079     10816  TIP3      H1              6.4740299625      -28.5248350212      -32.4778707028  TIP3      10416           0.0000000000
     81080     10816  TIP3      H2              6.2538896175      -27.9899376263      -31.0665411625  TIP3      10416           0.0000000000
     81081     10817  TIP3      OH2            12.2584861217      -23.0995775172      -30.9865041522  TIP3      10417           0.0000000000
     81082     10817  TIP3      H1             11.9956803218      -22.4650216218      -30.3181952156  TIP3      10417           0.0000000000
     81083     10817  TIP3      H2             12.0318225401      -23.9587720564      -30.5459597547  TIP3      10417           0.0000000000
     81084     10818  TIP3      OH2             6.8229173602      -24.2340682737      -26.9732638078  TIP3      10418           0.0000000000
     81085     10818  TIP3      H1              6.4588318726      -23.4515071329      -26.5267509713  TIP3      10418           0.0000000000
     81086     10818  TIP3      H2              6.1518472084      -24.4061462736      -27.6827229862  TIP3      10418           0.0000000000
     81087     10819  TIP3      OH2            12.7871837235      -28.8813714497      -39.5606738909  TIP3      10419           0.0000000000
     81088     10819  TIP3      H1             13.3656986532      -28.7048105546      -38.7802694594  TIP3      10419           0.0000000000
     81089     10819  TIP3      H2             13.2072107461      -28.3734411811      -40.2770669174  TIP3      10419           0.0000000000
     81090     10820  TIP3      OH2             3.7501611981      -28.0576380187      -27.7841690528  TIP3      10420           0.0000000000
     81091     10820  TIP3      H1              3.7921951179      -27.3895938737      -27.0685774740  TIP3      10420           0.0000000000
     81092     10820  TIP3      H2              2.8320792660      -27.9455021628      -28.0778207902  TIP3      10420           0.0000000000
     81093     10821  TIP3      OH2            10.5165680465      -22.1452804607      -36.0927160282  TIP3      10421           0.0000000000
     81094     10821  TIP3      H1             10.9766255023      -21.8302987111      -35.3132119136  TIP3      10421           0.0000000000
     81095     10821  TIP3      H2              9.9543414272      -21.3999724199      -36.3556562832  TIP3      10421           0.0000000000
     81096     10822  TIP3      OH2             5.0639639381      -22.1814963277      -26.2257811862  TIP3      10422           0.0000000000
     81097     10822  TIP3      H1              5.0349046110      -22.2977503537      -27.1897486117  TIP3      10422           0.0000000000
     81098     10822  TIP3      H2              4.1202629417      -22.2936803061      -25.9845773080  TIP3      10422           0.0000000000
     81099     10823  TIP3      OH2            16.5109585658      -37.1296032438      -39.7091730187  TIP3      10423           0.0000000000
     81100     10823  TIP3      H1             15.5705076475      -36.9935035728      -39.4340107738  TIP3      10423           0.0000000000
     81101     10823  TIP3      H2             16.7384600115      -36.2808343370      -40.1215565241  TIP3      10423           0.0000000000
     81102     10824  TIP3      OH2             4.5403337167      -28.3559227419      -37.7344694444  TIP3      10424           0.0000000000
     81103     10824  TIP3      H1              4.2433339075      -27.5781730835      -38.2571821788  TIP3      10424           0.0000000000
     81104     10824  TIP3      H2              3.8650703075      -29.0098647118      -37.9418840078  TIP3      10424           0.0000000000
     81105     10825  TIP3      OH2            17.6538671604      -22.7938727590      -41.3164324785  TIP3      10425           0.0000000000
     81106     10825  TIP3      H1             17.7514216095      -21.8222528467      -41.1935750365  TIP3      10425           0.0000000000
     81107     10825  TIP3      H2             18.5825512705      -23.0455346880      -41.4130083424  TIP3      10425           0.0000000000
     81108     10826  TIP3      OH2             0.6308950857      -25.9531271921      -28.8915823130  TIP3      10426           0.0000000000
     81109     10826  TIP3      H1              0.1465618309      -26.0202297924      -29.7334306644  TIP3      10426           0.0000000000
     81110     10826  TIP3      H2              0.6582093479      -26.8914277443      -28.6263411274  TIP3      10426           0.0000000000
     81111     10827  TIP3      OH2             0.3800821425      -23.2061656024      -32.0543695953  TIP3      10427           0.0000000000
     81112     10827  TIP3      H1              1.3365599449      -23.3317366979      -32.0705475250  TIP3      10427           0.0000000000
     81113     10827  TIP3      H2              0.2852758238      -22.4024587682      -31.5259300680  TIP3      10427           0.0000000000
     81114     10828  TIP3      OH2            18.6128641552      -22.5149325294      -26.3706537881  TIP3      10428           0.0000000000
     81115     10828  TIP3      H1             18.5147365495      -23.4790518950      -26.3998676820  TIP3      10428           0.0000000000
     81116     10828  TIP3      H2             17.7436953046      -22.2655743996      -25.9651769022  TIP3      10428           0.0000000000
     81117     10829  TIP3      OH2             9.5714058325      -22.9648105360      -27.5061150655  TIP3      10429           0.0000000000
     81118     10829  TIP3      H1              9.6466188345      -22.1201153663      -27.0064963518  TIP3      10429           0.0000000000
     81119     10829  TIP3      H2              8.6957880215      -23.3020108842      -27.2444946822  TIP3      10429           0.0000000000
     81120     10830  TIP3      OH2             9.9941642939      -19.2028682255      -37.6840607241  TIP3      10430           0.0000000000
     81121     10830  TIP3      H1              9.9052571754      -19.3102536493      -38.6536432368  TIP3      10430           0.0000000000
     81122     10830  TIP3      H2             10.0173605100      -18.2385989522      -37.5673827988  TIP3      10430           0.0000000000
     81123     10831  TIP3      OH2             3.6433916017      -20.3572966700      -35.8956140085  TIP3      10431           0.0000000000
     81124     10831  TIP3      H1              3.7864545641      -20.7572662431      -35.0127256050  TIP3      10431           0.0000000000
     81125     10831  TIP3      H2              2.7908104415      -20.7522999347      -36.1417999864  TIP3      10431           0.0000000000
     81126     10832  TIP3      OH2            13.0814622394      -20.0033767308      -40.7146373686  TIP3      10432           0.0000000000
     81127     10832  TIP3      H1             13.4701655132      -20.7871427931      -41.1561440659  TIP3      10432           0.0000000000
     81128     10832  TIP3      H2             13.0848611931      -20.2929179566      -39.7794943549  TIP3      10432           0.0000000000
     81129     10833  TIP3      OH2            12.7571248302      -20.0856986296      -37.9427912649  TIP3      10433           0.0000000000
     81130     10833  TIP3      H1             11.7975849954      -20.0120075946      -37.7622087117  TIP3      10433           0.0000000000
     81131     10833  TIP3      H2             13.0168141830      -20.8165704817      -37.3622460024  TIP3      10433           0.0000000000
     81132     10834  TIP3      OH2            15.7471717896      -31.0330102542      -25.8931848274  TIP3      10434           0.0000000000
     81133     10834  TIP3      H1             15.3108664136      -30.5625825031      -26.6171183302  TIP3      10434           0.0000000000
     81134     10834  TIP3      H2             15.7731923413      -31.9502045023      -26.2024265315  TIP3      10434           0.0000000000
     81135     10835  TIP3      OH2             2.8935792611      -24.6352916286      -27.8913962632  TIP3      10435           0.0000000000
     81136     10835  TIP3      H1              3.1135200224      -25.0090598750      -27.0100382063  TIP3      10435           0.0000000000
     81137     10835  TIP3      H2              2.0265412342      -25.0329042848      -28.1082484344  TIP3      10435           0.0000000000
     81138     10836  TIP3      OH2             5.5479359558      -36.1780420096      -31.9145001216  TIP3      10436           0.0000000000
     81139     10836  TIP3      H1              4.6483842931      -36.2698877311      -32.3051645756  TIP3      10436           0.0000000000
     81140     10836  TIP3      H2              5.4651159929      -35.3226519366      -31.4656257734  TIP3      10436           0.0000000000
     81141     10837  TIP3      OH2            10.1969611940      -36.4653926974      -28.5496226961  TIP3      10437           0.0000000000
     81142     10837  TIP3      H1             10.5990873916      -36.8907996440      -27.7714887991  TIP3      10437           0.0000000000
     81143     10837  TIP3      H2              9.2304696771      -36.6285185004      -28.4127158904  TIP3      10437           0.0000000000
     81144     10838  TIP3      OH2            13.5070829964      -32.6812016836      -27.6793052507  TIP3      10438           0.0000000000
     81145     10838  TIP3      H1             12.9634996766      -32.8439099088      -26.8703133952  TIP3      10438           0.0000000000
     81146     10838  TIP3      H2             13.3342969514      -31.7573518299      -27.9131026721  TIP3      10438           0.0000000000
     81147     10839  TIP3      OH2            14.3224357425      -27.7918704231      -41.8269715485  TIP3      10439           0.0000000000
     81148     10839  TIP3      H1             14.3271692984      -28.0188193921      -42.7844769905  TIP3      10439           0.0000000000
     81149     10839  TIP3      H2             15.1732666606      -27.3918555502      -41.6977988014  TIP3      10439           0.0000000000
     81150     10840  TIP3      OH2             9.8513042854      -33.9393518542      -41.2447843961  TIP3      10440           0.0000000000
     81151     10840  TIP3      H1              9.5630826582      -33.9595277645      -40.3113256097  TIP3      10440           0.0000000000
     81152     10840  TIP3      H2              9.5769072388      -34.8213368601      -41.5266923198  TIP3      10440           0.0000000000
     81153     10841  TIP3      OH2             5.6397085375      -31.2131618607      -30.7557594266  TIP3      10441           0.0000000000
     81154     10841  TIP3      H1              4.9422673023      -31.2344230296      -30.0740648632  TIP3      10441           0.0000000000
     81155     10841  TIP3      H2              5.6314258204      -30.2757427242      -31.0509582920  TIP3      10441           0.0000000000
     81156     10842  TIP3      OH2             5.6170870744      -31.0146657994      -35.8542249246  TIP3      10442           0.0000000000
     81157     10842  TIP3      H1              4.6953096146      -31.3306602642      -35.9598437559  TIP3      10442           0.0000000000
     81158     10842  TIP3      H2              6.0324262890      -31.3687439909      -36.6637151001  TIP3      10442           0.0000000000
     81159     10843  TIP3      OH2            11.1438203775      -30.5813636805      -37.0648252438  TIP3      10443           0.0000000000
     81160     10843  TIP3      H1             10.7309260156      -29.7476559386      -37.3809562021  TIP3      10443           0.0000000000
     81161     10843  TIP3      H2             11.8539542284      -30.7186848025      -37.7157566249  TIP3      10443           0.0000000000
     81162     10844  TIP3      OH2            10.2356663441      -30.3736601907      -25.6055686897  TIP3      10444           0.0000000000
     81163     10844  TIP3      H1              9.6742556503      -31.1228692265      -25.2798935196  TIP3      10444           0.0000000000
     81164     10844  TIP3      H2             11.0571262826      -30.5101289772      -25.1064291673  TIP3      10444           0.0000000000
     81165     10845  TIP3      OH2            12.1597112112      -31.1051245251      -34.2264566102  TIP3      10445           0.0000000000
     81166     10845  TIP3      H1             11.9286326002      -30.5252768928      -34.9721323308  TIP3      10445           0.0000000000
     81167     10845  TIP3      H2             12.3059706115      -31.9523020209      -34.6958327525  TIP3      10445           0.0000000000
     81168     10846  TIP3      OH2             3.3276999469      -30.9046017981      -28.9683986800  TIP3      10446           0.0000000000
     81169     10846  TIP3      H1              3.3333196522      -30.5050947552      -28.0798672005  TIP3      10446           0.0000000000
     81170     10846  TIP3      H2              2.8540160143      -31.7363986979      -28.8221549324  TIP3      10446           0.0000000000
     81171     10847  TIP3      OH2             6.8267694546      -33.3420636099      -41.9004484607  TIP3      10447           0.0000000000
     81172     10847  TIP3      H1              6.2930381097      -33.9592640495      -41.3641325859  TIP3      10447           0.0000000000
     81173     10847  TIP3      H2              6.1483382480      -33.0638737015      -42.5343867693  TIP3      10447           0.0000000000
     81174     10848  TIP3      OH2            -0.0484002089      -33.7783538707      -35.0588243048  TIP3      10448           0.0000000000
     81175     10848  TIP3      H1              0.6128114591      -33.8266661755      -34.3431946691  TIP3      10448           0.0000000000
     81176     10848  TIP3      H2              0.4078318278      -34.2056358040      -35.8097803490  TIP3      10448           0.0000000000
     81177     10849  TIP3      OH2             1.2440515846      -33.0804782098      -39.6392152777  TIP3      10449           0.0000000000
     81178     10849  TIP3      H1              1.7161406130      -32.4638836529      -40.2503941794  TIP3      10449           0.0000000000
     81179     10849  TIP3      H2              0.5311851353      -32.4740874098      -39.3376084392  TIP3      10449           0.0000000000
     81180     10850  TIP3      OH2            11.3966786287      -29.4821578234      -29.6135793474  TIP3      10450           0.0000000000
     81181     10850  TIP3      H1             11.7426456120      -30.1492048796      -30.2356980841  TIP3      10450           0.0000000000
     81182     10850  TIP3      H2             10.9472882813      -30.0276729158      -28.9437294365  TIP3      10450           0.0000000000
     81183     10851  TIP3      OH2             8.1872154743      -33.5460948963      -34.8164993549  TIP3      10451           0.0000000000
     81184     10851  TIP3      H1              7.2548390795      -33.5100904766      -34.5145566132  TIP3      10451           0.0000000000
     81185     10851  TIP3      H2              8.6813279207      -33.6457203547      -33.9890251390  TIP3      10451           0.0000000000
     81186     10852  TIP3      OH2             3.0093727602      -31.9483636921      -35.9580479119  TIP3      10452           0.0000000000
     81187     10852  TIP3      H1              2.1107148503      -31.8261996801      -36.3292769602  TIP3      10452           0.0000000000
     81188     10852  TIP3      H2              3.2947249463      -32.7941784452      -36.3386391684  TIP3      10452           0.0000000000
     81189     10853  TIP3      OH2             6.6487121230      -31.9243218694      -38.3155121818  TIP3      10453           0.0000000000
     81190     10853  TIP3      H1              7.6020740008      -31.8068489587      -38.1415857908  TIP3      10453           0.0000000000
     81191     10853  TIP3      H2              6.4262297800      -31.2564577478      -38.9869489530  TIP3      10453           0.0000000000
     81192     10854  TIP3      OH2            12.5965780075      -34.3093928878      -31.5570647330  TIP3      10454           0.0000000000
     81193     10854  TIP3      H1             11.9013457786      -34.2108790966      -30.8718604338  TIP3      10454           0.0000000000
     81194     10854  TIP3      H2             12.0907692101      -34.5038011950      -32.3574552183  TIP3      10454           0.0000000000
     81195     10855  TIP3      OH2             5.3460467758      -30.7552016154      -40.7292504199  TIP3      10455           0.0000000000
     81196     10855  TIP3      H1              4.7786380537      -31.1046433812      -41.4456357965  TIP3      10455           0.0000000000
     81197     10855  TIP3      H2              6.1649025115      -30.5411139546      -41.1950652041  TIP3      10455           0.0000000000
     81198     10856  TIP3      OH2            15.8375597249      -18.6485490238      -25.2487637326  TIP3      10456           0.0000000000
     81199     10856  TIP3      H1             16.0695025396      -18.2439243088      -26.1004574072  TIP3      10456           0.0000000000
     81200     10856  TIP3      H2             16.5270595932      -18.3199869605      -24.6524905294  TIP3      10456           0.0000000000
     81201     10857  TIP3      OH2             3.4854956140      -26.1733043554      -25.6863326362  TIP3      10457           0.0000000000
     81202     10857  TIP3      H1              4.1926709336      -25.9354849301      -25.0696318731  TIP3      10457           0.0000000000
     81203     10857  TIP3      H2              2.7014198798      -26.0182744816      -25.1092158076  TIP3      10457           0.0000000000
     81204     10858  TIP3      OH2             9.4834404595      -30.7679722496      -32.9199443063  TIP3      10458           0.0000000000
     81205     10858  TIP3      H1             10.0665449841      -31.3149860534      -33.4620162423  TIP3      10458           0.0000000000
     81206     10858  TIP3      H2              9.3431736340      -31.3060624090      -32.1300636048  TIP3      10458           0.0000000000
     81207     10859  TIP3      OH2             4.4920127656      -34.6216317172      -36.4891687894  TIP3      10459           0.0000000000
     81208     10859  TIP3      H1              4.1835716293      -35.5463136883      -36.5232875479  TIP3      10459           0.0000000000
     81209     10859  TIP3      H2              5.2795906150      -34.6563421082      -37.0471313878  TIP3      10459           0.0000000000
     81210     10860  TIP3      OH2             8.1216896885      -32.4156355769      -30.5110646326  TIP3      10460           0.0000000000
     81211     10860  TIP3      H1              7.2847408214      -31.9238016783      -30.4009683743  TIP3      10460           0.0000000000
     81212     10860  TIP3      H2              8.6588326134      -32.0968458985      -29.7582913423  TIP3      10460           0.0000000000
     81213     10861  TIP3      OH2             8.7064989170      -26.1986833017      -38.8119786487  TIP3      10461           0.0000000000
     81214     10861  TIP3      H1              7.9106242253      -26.6759709737      -39.1405017027  TIP3      10461           0.0000000000
     81215     10861  TIP3      H2              8.5085840048      -26.1136014516      -37.8595450874  TIP3      10461           0.0000000000
     81216     10862  TIP3      OH2            15.8482523632      -27.0366641494      -30.0120474802  TIP3      10462           0.0000000000
     81217     10862  TIP3      H1             16.4530188730      -26.5625340777      -30.6065378554  TIP3      10462           0.0000000000
     81218     10862  TIP3      H2             14.9997241303      -26.9376451613      -30.4937859412  TIP3      10462           0.0000000000
     81219     10863  TIP3      OH2            12.5702809604      -33.3963579278      -40.6233294874  TIP3      10463           0.0000000000
     81220     10863  TIP3      H1             11.6212459426      -33.2518362924      -40.7794777628  TIP3      10463           0.0000000000
     81221     10863  TIP3      H2             12.8621079802      -32.5172701464      -40.3106768534  TIP3      10463           0.0000000000
     81222     10864  TIP3      OH2            10.1922797343      -25.9760815469      -27.5817140603  TIP3      10464           0.0000000000
     81223     10864  TIP3      H1              9.8439252501      -26.3711553336      -26.7755940772  TIP3      10464           0.0000000000
     81224     10864  TIP3      H2              9.9712714103      -25.0447760604      -27.4946394271  TIP3      10464           0.0000000000
     81225     10865  TIP3      OH2            13.2805051045      -31.4858912210      -38.9583739619  TIP3      10465           0.0000000000
     81226     10865  TIP3      H1             14.1841736031      -31.6254753636      -38.6225346213  TIP3      10465           0.0000000000
     81227     10865  TIP3      H2             13.3484279258      -30.6856391202      -39.4957322200  TIP3      10465           0.0000000000
     81228     10866  TIP3      OH2             3.7956607274      -26.8505149736      -33.0288530473  TIP3      10466           0.0000000000
     81229     10866  TIP3      H1              4.5258713788      -26.8933267639      -33.6753600450  TIP3      10466           0.0000000000
     81230     10866  TIP3      H2              3.8732057898      -27.7006643093      -32.5632772132  TIP3      10466           0.0000000000
     81231     10867  TIP3      OH2            10.8216714122      -24.7348348274      -39.7687979133  TIP3      10467           0.0000000000
     81232     10867  TIP3      H1             10.4755510890      -23.8886262147      -39.4155761909  TIP3      10467           0.0000000000
     81233     10867  TIP3      H2             10.0681721423      -25.3389195531      -39.5912042926  TIP3      10467           0.0000000000
     81234     10868  TIP3      OH2             0.7998285586      -28.4103960605      -27.7447946603  TIP3      10468           0.0000000000
     81235     10868  TIP3      H1              1.0064558483      -28.8445495894      -26.8936545419  TIP3      10468           0.0000000000
     81236     10868  TIP3      H2              0.1885337538      -29.0388907951      -28.1652415309  TIP3      10468           0.0000000000
     81237     10869  TIP3      OH2             7.8133760139      -28.8659383131      -25.5392953118  TIP3      10469           0.0000000000
     81238     10869  TIP3      H1              7.5149551822      -29.1028580857      -26.4261582767  TIP3      10469           0.0000000000
     81239     10869  TIP3      H2              8.7512169283      -29.1410689066      -25.5428941174  TIP3      10469           0.0000000000
     81240     10870  TIP3      OH2            12.4673743948      -23.5305464559      -27.6372244540  TIP3      10470           0.0000000000
     81241     10870  TIP3      H1             11.5457102810      -23.3408222850      -27.8789585600  TIP3      10470           0.0000000000
     81242     10870  TIP3      H2             12.4639502721      -23.2508252504      -26.7020509669  TIP3      10470           0.0000000000
     81243     10871  TIP3      OH2            18.1766074987      -31.3168530042      -39.2285460093  TIP3      10471           0.0000000000
     81244     10871  TIP3      H1             17.6106422740      -31.6661554964      -39.9454631672  TIP3      10471           0.0000000000
     81245     10871  TIP3      H2             18.2522363228      -30.3933092990      -39.5364929254  TIP3      10471           0.0000000000
     81246     10872  TIP3      OH2            18.1511049954      -25.4851113357      -26.4046979041  TIP3      10472           0.0000000000
     81247     10872  TIP3      H1             17.2703536205      -25.2528657516      -26.7896064008  TIP3      10472           0.0000000000
     81248     10872  TIP3      H2             18.7169552195      -25.5122532226      -27.2001577310  TIP3      10472           0.0000000000
     81249     10873  TIP3      OH2            16.4851952620      -22.5137327899      -38.8092470469  TIP3      10473           0.0000000000
     81250     10873  TIP3      H1             16.0772264455      -23.3251945544      -38.4907186065  TIP3      10473           0.0000000000
     81251     10873  TIP3      H2             16.7449170079      -22.6850174936      -39.7284061443  TIP3      10473           0.0000000000
     81252     10874  TIP3      OH2            13.6457013149      -27.6838758265      -31.7520627916  TIP3      10474           0.0000000000
     81253     10874  TIP3      H1             12.7028958862      -27.9191660609      -31.8198451505  TIP3      10474           0.0000000000
     81254     10874  TIP3      H2             14.0814023737      -28.4684925962      -32.1303779217  TIP3      10474           0.0000000000
     81255     10875  TIP3      OH2             6.1755907052      -23.3678259905      -35.6277343803  TIP3      10475           0.0000000000
     81256     10875  TIP3      H1              6.6904120533      -22.5747647853      -35.8512588361  TIP3      10475           0.0000000000
     81257     10875  TIP3      H2              5.2979769350      -23.1298017103      -35.9599632952  TIP3      10475           0.0000000000
     81258     10876  TIP3      OH2             2.1101031618      -28.4511650520      -40.6962081933  TIP3      10476           0.0000000000
     81259     10876  TIP3      H1              2.6266794451      -27.7042737339      -40.6283166093  TIP3      10476           0.0000000000
     81260     10876  TIP3      H2              1.1363488802      -28.2150916771      -40.8070200604  TIP3      10476           0.0000000000
     81261     10877  TIP3      OH2             7.6109113294      -25.7040302848      -36.0863969230  TIP3      10477           0.0000000000
     81262     10877  TIP3      H1              7.3272440684      -24.7702741586      -36.0271118428  TIP3      10477           0.0000000000
     81263     10877  TIP3      H2              6.8575613501      -26.1679102120      -35.6674585775  TIP3      10477           0.0000000000
     81264     10878  TIP3      OH2             8.0700881683      -21.5362833995      -29.7346182439  TIP3      10478           0.0000000000
     81265     10878  TIP3      H1              8.4868959065      -20.6973207221      -29.9877383298  TIP3      10478           0.0000000000
     81266     10878  TIP3      H2              8.6566992304      -21.8454350410      -29.0198702312  TIP3      10478           0.0000000000
     81267     10879  TIP3      OH2             6.2813889202      -20.6980541714      -36.5011609210  TIP3      10479           0.0000000000
     81268     10879  TIP3      H1              5.3129695752      -20.5638491288      -36.4661567877  TIP3      10479           0.0000000000
     81269     10879  TIP3      H2              6.6344473673      -19.8477685059      -36.2007250296  TIP3      10479           0.0000000000
     81270     10880  TIP3      OH2            11.6259511432      -25.4728434016      -30.0662560891  TIP3      10480           0.0000000000
     81271     10880  TIP3      H1             11.2334046518      -25.6896756557      -29.1990763230  TIP3      10480           0.0000000000
     81272     10880  TIP3      H2             12.2331130219      -26.2072563209      -30.2403666296  TIP3      10480           0.0000000000
     81273     10881  TIP3      OH2            13.8574411098      -24.4997995147      -40.9812840024  TIP3      10481           0.0000000000
     81274     10881  TIP3      H1             14.1837277938      -24.9138562485      -40.1573886284  TIP3      10481           0.0000000000
     81275     10881  TIP3      H2             12.8996221814      -24.6198670488      -40.8855697534  TIP3      10481           0.0000000000
     81276     10882  TIP3      OH2            14.3442898948      -20.9138600113      -27.5640209510  TIP3      10482           0.0000000000
     81277     10882  TIP3      H1             13.7041432046      -21.4427116337      -28.0786747890  TIP3      10482           0.0000000000
     81278     10882  TIP3      H2             14.5829956212      -20.2340668756      -28.2260222779  TIP3      10482           0.0000000000
     81279     10883  TIP3      OH2            18.3679099062      -20.0580701622      -40.7553867024  TIP3      10483           0.0000000000
     81280     10883  TIP3      H1             19.0963859956      -19.4399113095      -40.9424093746  TIP3      10483           0.0000000000
     81281     10883  TIP3      H2             17.6569831284      -19.4575280459      -40.4451463951  TIP3      10483           0.0000000000
     81282     10884  TIP3      OH2             2.4535769382      -33.6615412707      -28.1919356241  TIP3      10484           0.0000000000
     81283     10884  TIP3      H1              1.5390768840      -33.3276220314      -28.2376324319  TIP3      10484           0.0000000000
     81284     10884  TIP3      H2              2.3355447427      -34.5223968243      -27.7536122468  TIP3      10484           0.0000000000
     81285     10885  TIP3      OH2            14.7159950583      -25.8358523661      -38.7671511880  TIP3      10485           0.0000000000
     81286     10885  TIP3      H1             14.4353865956      -26.5946381533      -38.2048329503  TIP3      10485           0.0000000000
     81287     10885  TIP3      H2             15.6448767685      -25.7402820362      -38.5306627892  TIP3      10485           0.0000000000
     81288     10886  TIP3      OH2             2.0833942493      -21.8668630623      -29.7605673058  TIP3      10486           0.0000000000
     81289     10886  TIP3      H1              2.3277309388      -22.8067534572      -29.7657551893  TIP3      10486           0.0000000000
     81290     10886  TIP3      H2              2.3330910291      -21.5974943459      -28.8676826486  TIP3      10486           0.0000000000
     81291     10887  TIP3      OH2             6.6757673030      -23.9710541898      -39.9630640026  TIP3      10487           0.0000000000
     81292     10887  TIP3      H1              7.0810111251      -24.3906655311      -39.2355882241  TIP3      10487           0.0000000000
     81293     10887  TIP3      H2              6.8974396331      -22.9907886165      -39.8096183183  TIP3      10487           0.0000000000
     81294     10888  TIP3      OH2             3.3564140002      -26.5648544359      -39.5566977073  TIP3      10488           0.0000000000
     81295     10888  TIP3      H1              2.6416933691      -26.2096918661      -38.9942810984  TIP3      10488           0.0000000000
     81296     10888  TIP3      H2              3.8766997356      -25.7985918594      -39.8211138183  TIP3      10488           0.0000000000
     81297     10889  TIP3      OH2            11.1728219265      -33.9102494805      -29.2767371891  TIP3      10489           0.0000000000
     81298     10889  TIP3      H1             11.8787297813      -33.8523266375      -28.6207752566  TIP3      10489           0.0000000000
     81299     10889  TIP3      H2             10.7915712269      -34.7931975141      -29.0958866371  TIP3      10489           0.0000000000
     81300     10890  TIP3      OH2            11.9351642220      -34.2988814493      -38.1639748910  TIP3      10490           0.0000000000
     81301     10890  TIP3      H1             12.1772879668      -33.8200025630      -38.9860680583  TIP3      10490           0.0000000000
     81302     10890  TIP3      H2             12.5152411054      -33.8822246225      -37.5185096422  TIP3      10490           0.0000000000
     81303     10891  TIP3      OH2             9.7794366993      -22.0977136792      -39.1160042954  TIP3      10491           0.0000000000
     81304     10891  TIP3      H1              8.8665369062      -21.7129466538      -39.2829462152  TIP3      10491           0.0000000000
     81305     10891  TIP3      H2             10.1370664190      -21.6974788839      -39.9422834455  TIP3      10491           0.0000000000
     81306     10892  TIP3      OH2             9.1502181443      -32.5612654868      -37.3482423426  TIP3      10492           0.0000000000
     81307     10892  TIP3      H1              9.9612432742      -32.0205321209      -37.3113216740  TIP3      10492           0.0000000000
     81308     10892  TIP3      H2              8.9012819405      -32.6959648865      -36.4212554459  TIP3      10492           0.0000000000
     81309     10893  TIP3      OH2             9.6971976004      -31.5619889569      -28.1695091957  TIP3      10493           0.0000000000
     81310     10893  TIP3      H1              9.7966658845      -30.9865717872      -27.3874672724  TIP3      10493           0.0000000000
     81311     10893  TIP3      H2             10.3571478523      -32.2551918819      -28.0508519918  TIP3      10493           0.0000000000
     81312     10894  TIP3      OH2            10.0238940579      -35.5002780810      -36.4282890067  TIP3      10494           0.0000000000
     81313     10894  TIP3      H1              9.6925131870      -34.8521690500      -35.7826004473  TIP3      10494           0.0000000000
     81314     10894  TIP3      H2             10.7033053169      -34.9576538824      -36.8987909498  TIP3      10494           0.0000000000
     81315     10895  TIP3      OH2             6.6448953787      -20.9590084618      -39.1149241212  TIP3      10495           0.0000000000
     81316     10895  TIP3      H1              7.1195670601      -20.3588596170      -39.7649719742  TIP3      10495           0.0000000000
     81317     10895  TIP3      H2              6.7747291985      -20.6675070729      -38.2401444804  TIP3      10495           0.0000000000
     81318     10896  TIP3      OH2             5.6818264986      -34.4243107942      -39.7324008681  TIP3      10496           0.0000000000
     81319     10896  TIP3      H1              5.6133059707      -33.5109322634      -39.3750331697  TIP3      10496           0.0000000000
     81320     10896  TIP3      H2              6.5910267088      -34.6581312409      -39.4727068905  TIP3      10496           0.0000000000
     81321     10897  TIP3      OH2            15.9068661087      -33.6759222737      -27.3122336426  TIP3      10497           0.0000000000
     81322     10897  TIP3      H1             14.9676538739      -33.3831544143      -27.4292705191  TIP3      10497           0.0000000000
     81323     10897  TIP3      H2             16.2110141161      -33.6725817497      -28.2328065816  TIP3      10497           0.0000000000
     81324     10898  TIP3      OH2            14.4970206639      -29.8939033502      -33.2603872284  TIP3      10498           0.0000000000
     81325     10898  TIP3      H1             13.6843840895      -30.3305652299      -33.5673454614  TIP3      10498           0.0000000000
     81326     10898  TIP3      H2             14.9565827308      -30.5967309164      -32.7488817078  TIP3      10498           0.0000000000
     81327     10899  TIP3      OH2             3.9174317804      -23.9752836499      -40.6780914781  TIP3      10499           0.0000000000
     81328     10899  TIP3      H1              4.5654468245      -23.3074114042      -40.3912543818  TIP3      10499           0.0000000000
     81329     10899  TIP3      H2              4.4339678558      -24.4150514924      -41.3825987384  TIP3      10499           0.0000000000
     81330     10900  TIP3      OH2             2.3467517469      -31.3763547045      -41.4670801325  TIP3      10500           0.0000000000
     81331     10900  TIP3      H1              2.2345505458      -30.3830307380      -41.3976577862  TIP3      10500           0.0000000000
     81332     10900  TIP3      H2              1.4337872801      -31.5066763671      -41.8347067058  TIP3      10500           0.0000000000
     81333     10901  TIP3      OH2            15.5658343916      -20.6405676608      -31.6030256599  TIP3      10501           0.0000000000
     81334     10901  TIP3      H1             15.4478544297      -19.9737195140      -32.2976199728  TIP3      10501           0.0000000000
     81335     10901  TIP3      H2             16.5298317523      -20.5879163863      -31.4247364035  TIP3      10501           0.0000000000
     81336     10902  TIP3      OH2             3.0757090108      -36.5176881586      -32.8478101382  TIP3      10502           0.0000000000
     81337     10902  TIP3      H1              2.8489796962      -36.4827576368      -33.8033643952  TIP3      10502           0.0000000000
     81338     10902  TIP3      H2              2.6328652608      -37.3440997348      -32.5700433867  TIP3      10502           0.0000000000
     81339     10903  TIP3      OH2             2.0090248725      -22.5968470383      -36.6909915891  TIP3      10503           0.0000000000
     81340     10903  TIP3      H1              1.1666304484      -22.1221800683      -36.7008700341  TIP3      10503           0.0000000000
     81341     10903  TIP3      H2              2.5291745455      -22.0966084566      -37.3373901387  TIP3      10503           0.0000000000
     81342     10904  TIP3      OH2             1.2592636373      -19.9501455048      -25.3838590529  TIP3      10504           0.0000000000
     81343     10904  TIP3      H1              1.8427697700      -20.1690102035      -24.6311087221  TIP3      10504           0.0000000000
     81344     10904  TIP3      H2              0.8163340070      -20.7908470115      -25.5768003468  TIP3      10504           0.0000000000
     81345     10905  TIP3      OH2             5.8782913954      -21.0737800690      -23.7613468664  TIP3      10505           0.0000000000
     81346     10905  TIP3      H1              6.6654183796      -21.4964721438      -23.4470550476  TIP3      10505           0.0000000000
     81347     10905  TIP3      H2              5.8614864123      -21.2829261411      -24.7158906705  TIP3      10505           0.0000000000
     81348     10906  TIP3      OH2            10.4899629100      -21.3568347080      -41.9960367782  TIP3      10506           0.0000000000
     81349     10906  TIP3      H1              9.6071866170      -21.9121235520      -41.9714958760  TIP3      10506           0.0000000000
     81350     10906  TIP3      H2             10.8106792311      -22.0125890305      -42.5631876271  TIP3      10506           0.0000000000
     81351     10907  TIP3      OH2            12.4382873496      -22.6520087831      -25.0306288832  TIP3      10507           0.0000000000
     81352     10907  TIP3      H1             12.1177191686      -23.5432886309      -24.7891344659  TIP3      10507           0.0000000000
     81353     10907  TIP3      H2             13.2031235516      -22.5319282752      -24.4313658838  TIP3      10507           0.0000000000
     81354     10908  TIP3      OH2            14.5853393588      -21.7359723664      -42.1747495940  TIP3      10508           0.0000000000
     81355     10908  TIP3      H1             14.8709535332      -22.5400512671      -41.7001131455  TIP3      10508           0.0000000000
     81356     10908  TIP3      H2             15.3510083385      -21.5116117948      -42.7187336839  TIP3      10508           0.0000000000
     81357     10909  TIP3      OH2             1.1731362969      -26.1623245500      -24.4159233870  TIP3      10509           0.0000000000
     81358     10909  TIP3      H1              1.3379301026      -27.0849460978      -24.7042776775  TIP3      10509           0.0000000000
     81359     10909  TIP3      H2              0.4159547347      -25.8980603767      -24.9495246276  TIP3      10509           0.0000000000
     81360     10910  TIP3      OH2             5.5502481829      -25.7872018914      -42.2706273130  TIP3      10510           0.0000000000
     81361     10910  TIP3      H1              5.6145288021      -26.6081334417      -41.7742247312  TIP3      10510           0.0000000000
     81362     10910  TIP3      H2              6.1825476231      -25.9577505150      -42.9942126151  TIP3      10510           0.0000000000
     81363     10911  TIP3      OH2             7.8574652867      -26.1905672365      -24.9876849181  TIP3      10511           0.0000000000
     81364     10911  TIP3      H1              7.5227066536      -25.9064123510      -25.8610932481  TIP3      10511           0.0000000000
     81365     10911  TIP3      H2              7.9805467692      -27.1625268020      -25.1016405138  TIP3      10511           0.0000000000
     81366     10912  TIP3      OH2            13.5705478835      -26.3085360075      -27.6154104549  TIP3      10512           0.0000000000
     81367     10912  TIP3      H1             14.3377926997      -25.7020862748      -27.7152808864  TIP3      10512           0.0000000000
     81368     10912  TIP3      H2             12.8382340779      -25.6781974292      -27.5637763199  TIP3      10512           0.0000000000
     81369     10913  TIP3      OH2             2.0491112492      -28.9466766503      -25.0022580360  TIP3      10513           0.0000000000
     81370     10913  TIP3      H1              2.4492770012      -29.8160134284      -25.1167471564  TIP3      10513           0.0000000000
     81371     10913  TIP3      H2              1.7819933520      -28.9615416399      -24.0731047700  TIP3      10513           0.0000000000
     81372     10914  TIP3      OH2             6.6932403502      -27.8109351128      -39.9814089215  TIP3      10514           0.0000000000
     81373     10914  TIP3      H1              6.2167354056      -28.3328572001      -39.3134532251  TIP3      10514           0.0000000000
     81374     10914  TIP3      H2              6.9688237626      -28.5134752938      -40.6164795870  TIP3      10514           0.0000000000
     81375     10915  TIP3      OH2             5.9724554234      -29.9804714740      -27.6409607500  TIP3      10515           0.0000000000
     81376     10915  TIP3      H1              5.3594634296      -29.2750262734      -27.3727745199  TIP3      10515           0.0000000000
     81377     10915  TIP3      H2              6.3333217179      -29.6296644524      -28.4721174576  TIP3      10515           0.0000000000
     81378     10916  TIP3      OH2             7.7577420036      -29.6006916934      -41.7349870456  TIP3      10516           0.0000000000
     81379     10916  TIP3      H1              7.6006480782      -29.7669952934      -42.6718583875  TIP3      10516           0.0000000000
     81380     10916  TIP3      H2              8.7355279032      -29.5004664379      -41.6693213407  TIP3      10516           0.0000000000
     81381     10917  TIP3      OH2            11.0136437049      -27.4412943312      -24.3389683261  TIP3      10517           0.0000000000
     81382     10917  TIP3      H1             11.9746018638      -27.4179954839      -24.4139283334  TIP3      10517           0.0000000000
     81383     10917  TIP3      H2             10.8503997889      -28.1905212820      -23.7530420328  TIP3      10517           0.0000000000
     81384     10918  TIP3      OH2            17.0518027501      -27.1793879487       42.7826856130  TIP3      10518           0.0000000000
     81385     10918  TIP3      H1             16.8686500348      -27.6569951766       41.9384127747  TIP3      10518           0.0000000000
     81386     10918  TIP3      H2             17.1757986315      -26.2725709990       42.4856102354  TIP3      10518           0.0000000000
     81387     10919  TIP3      OH2             6.3324998460      -32.6080763512      -26.5624803844  TIP3      10519           0.0000000000
     81388     10919  TIP3      H1              6.4706062189      -33.3348856294      -27.1897229492  TIP3      10519           0.0000000000
     81389     10919  TIP3      H2              6.3190692301      -31.8121594675      -27.1297959175  TIP3      10519           0.0000000000
     81390     10920  TIP3      OH2             6.7494092222      -34.2383426235      -29.0454972366  TIP3      10520           0.0000000000
     81391     10920  TIP3      H1              7.2738422735      -33.7764872638      -29.7389857008  TIP3      10520           0.0000000000
     81392     10920  TIP3      H2              5.8684412303      -34.3322626347      -29.4765021516  TIP3      10520           0.0000000000
     81393     10921  TIP3      OH2             8.3100516473      -28.7842859420      -28.8070977556  TIP3      10521           0.0000000000
     81394     10921  TIP3      H1              9.0631833015      -28.9390127677      -29.3895404413  TIP3      10521           0.0000000000
     81395     10921  TIP3      H2              7.9626433801      -27.9307616580      -29.1127608409  TIP3      10521           0.0000000000
     81396     10922  TIP3      OH2            12.7136145059      -30.9914012355      -23.8156116622  TIP3      10522           0.0000000000
     81397     10922  TIP3      H1             12.9364921647      -31.9261926068      -23.9086997627  TIP3      10522           0.0000000000
     81398     10922  TIP3      H2             13.5811946053      -30.5544074607      -23.8072256823  TIP3      10522           0.0000000000
     81399     10923  TIP3      OH2            14.0301710875      -28.2091148992      -25.7026059200  TIP3      10523           0.0000000000
     81400     10923  TIP3      H1             13.7822041064      -27.4730850287      -26.3039555941  TIP3      10523           0.0000000000
     81401     10923  TIP3      H2             14.9963544434      -28.2462799733      -25.8779670229  TIP3      10523           0.0000000000
     81402     10924  TIP3      OH2             4.8044918604      -31.3832472212      -24.6569174349  TIP3      10524           0.0000000000
     81403     10924  TIP3      H1              4.0349317565      -31.9523213407      -24.8492326615  TIP3      10524           0.0000000000
     81404     10924  TIP3      H2              5.4805199910      -31.7294034224      -25.2669501749  TIP3      10524           0.0000000000
     81405     10925  TIP3      OH2             7.5504563429      -36.7965143658      -28.6298811891  TIP3      10525           0.0000000000
     81406     10925  TIP3      H1              7.4119826906      -35.8280678108      -28.7417760394  TIP3      10525           0.0000000000
     81407     10925  TIP3      H2              6.7918462614      -37.1528314076      -29.1273413795  TIP3      10525           0.0000000000
     81408     10926  TIP3      OH2             8.8199002335      -32.4695052494      -25.0602780027  TIP3      10526           0.0000000000
     81409     10926  TIP3      H1              8.5432061259      -32.6920243282      -24.1497466933  TIP3      10526           0.0000000000
     81410     10926  TIP3      H2              8.0159324928      -32.6687738659      -25.5731210399  TIP3      10526           0.0000000000
     81411     10927  TIP3      OH2            11.5322234984      -33.3361143210      -25.9881840043  TIP3      10527           0.0000000000
     81412     10927  TIP3      H1             10.5690064035      -33.2917167325      -25.8424464284  TIP3      10527           0.0000000000
     81413     10927  TIP3      H2             11.8215671488      -33.9610578799      -25.3033455896  TIP3      10527           0.0000000000
     81414     10928  TIP3      OH2            13.1347202144      -34.6916920580      -24.0193942352  TIP3      10528           0.0000000000
     81415     10928  TIP3      H1             13.0641988191      -35.6638441742      -23.9966817383  TIP3      10528           0.0000000000
     81416     10928  TIP3      H2             12.8514710084      -34.4236474250      -23.1149438051  TIP3      10528           0.0000000000
     81417     10929  TIP3      OH2             2.9513034514      -33.4535398510      -24.9397939924  TIP3      10529           0.0000000000
     81418     10929  TIP3      H1              3.1809497415      -34.1851191047      -25.5421403775  TIP3      10529           0.0000000000
     81419     10929  TIP3      H2              2.8513576599      -33.9187714066      -24.0827299916  TIP3      10529           0.0000000000
     81420     10930  TIP3      OH2             7.7541318093      -37.4530600021      -25.9628443752  TIP3      10530           0.0000000000
     81421     10930  TIP3      H1              8.4683811657      -38.1236969182      -25.9727248781  TIP3      10530           0.0000000000
     81422     10930  TIP3      H2              7.6631393302      -37.2353170374      -26.9037720568  TIP3      10530           0.0000000000
     81423     10931  TIP3      OH2             8.1561012459      -35.7777383661      -23.9086179305  TIP3      10531           0.0000000000
     81424     10931  TIP3      H1              7.9685222348      -36.2957693455      -24.7223037690  TIP3      10531           0.0000000000
     81425     10931  TIP3      H2              7.5127641102      -35.0505008419      -23.9519753421  TIP3      10531           0.0000000000
     81426     10932  TIP3      OH2             7.6220455102      -18.8550122501      -40.7057429846  TIP3      10532           0.0000000000
     81427     10932  TIP3      H1              8.5924890468      -18.7836737593      -40.5971902731  TIP3      10532           0.0000000000
     81428     10932  TIP3      H2              7.4109079723      -18.2328351895      -41.3826260211  TIP3      10532           0.0000000000
     81429     10933  TIP3      OH2             1.1977077315      -24.2742943845      -41.2295819711  TIP3      10533           0.0000000000
     81430     10933  TIP3      H1              2.1512750711      -24.2095879243      -40.9802831634  TIP3      10533           0.0000000000
     81431     10933  TIP3      H2              1.2293173699      -24.9484852282      -41.9206597113  TIP3      10533           0.0000000000
     81432     10934  TIP3      OH2            -0.0883783177      -18.8983949191      -36.2032372277  TIP3      10534           0.0000000000
     81433     10934  TIP3      H1             -0.7792169370      -19.3805819713      -36.7041008007  TIP3      10534           0.0000000000
     81434     10934  TIP3      H2              0.2231122607      -19.5721105184      -35.5761450080  TIP3      10534           0.0000000000
     81435     10935  TIP3      OH2             0.7520579014      -20.7985424028      -34.3720223645  TIP3      10535           0.0000000000
     81436     10935  TIP3      H1              0.4088482834      -21.6834177501      -34.1789306245  TIP3      10535           0.0000000000
     81437     10935  TIP3      H2              0.9753505330      -20.4636652318      -33.4852077631  TIP3      10535           0.0000000000
     81438     10936  TIP3      OH2            18.2700238842      -19.9781909937      -31.4151719787  TIP3      10536           0.0000000000
     81439     10936  TIP3      H1             18.2961437689      -19.8350459506      -30.4546311610  TIP3      10536           0.0000000000
     81440     10936  TIP3      H2             19.0039711488      -19.4323717982      -31.7195774581  TIP3      10536           0.0000000000
     81441     10937  TIP3      OH2            17.8687451047      -20.3997546460      -28.4620310120  TIP3      10537           0.0000000000
     81442     10937  TIP3      H1             17.3811843904      -21.1705361064      -28.8421802315  TIP3      10537           0.0000000000
     81443     10937  TIP3      H2             18.3917868008      -20.8538001422      -27.7821222308  TIP3      10537           0.0000000000
     81444     10938  TIP3      OH2            16.3123126728      -24.6554077201      -23.8223513930  TIP3      10538           0.0000000000
     81445     10938  TIP3      H1             15.4320931063      -24.7354171404      -23.4194947046  TIP3      10538           0.0000000000
     81446     10938  TIP3      H2             16.6803951754      -23.8764239026      -23.3658822827  TIP3      10538           0.0000000000
     81447     10939  TIP3      OH2            17.6636071240      -26.3859242300      -38.3814002184  TIP3      10539           0.0000000000
     81448     10939  TIP3      H1             18.4414997540      -25.9311591194      -38.0844369757  TIP3      10539           0.0000000000
     81449     10939  TIP3      H2             17.5925973596      -27.1038677981      -37.6894744593  TIP3      10539           0.0000000000
     81450     10940  TIP3      OH2            17.9974418721      -28.2877216606      -36.5060915870  TIP3      10540           0.0000000000
     81451     10940  TIP3      H1             17.2600408560      -28.8046388004      -36.0942844877  TIP3      10540           0.0000000000
     81452     10940  TIP3      H2             18.5871259711      -28.1360438138      -35.7332910726  TIP3      10540           0.0000000000
     81453     10941  TIP3      OH2            17.7480898030      -25.5631889198      -31.5158767238  TIP3      10541           0.0000000000
     81454     10941  TIP3      H1             18.5877430033      -25.9321231648      -31.8499096760  TIP3      10541           0.0000000000
     81455     10941  TIP3      H2             17.8853349876      -24.6044159501      -31.6698214181  TIP3      10541           0.0000000000
     81456     10942  TIP3      OH2            16.2823058492      -22.6710826987      -29.2254156337  TIP3      10542           0.0000000000
     81457     10942  TIP3      H1             15.5992229907      -22.3379910229      -28.6215203489  TIP3      10542           0.0000000000
     81458     10942  TIP3      H2             15.7356901041      -23.0958970036      -29.9233254840  TIP3      10542           0.0000000000
     81459     10943  TIP3      OH2            18.3155872311      -28.4094162219      -40.1170940695  TIP3      10543           0.0000000000
     81460     10943  TIP3      H1             17.7110768535      -28.0937966595      -40.8211241819  TIP3      10543           0.0000000000
     81461     10943  TIP3      H2             18.1765909262      -27.7745932408      -39.4046847402  TIP3      10543           0.0000000000
     81462     10944  TIP3      OH2            16.3953215811      -31.1788082808      -41.4710683655  TIP3      10544           0.0000000000
     81463     10944  TIP3      H1             16.7217397285      -30.5744560123      -42.1650141310  TIP3      10544           0.0000000000
     81464     10944  TIP3      H2             16.4824125401      -32.0057995402      -41.9899082358  TIP3      10544           0.0000000000
     81465     10945  TIP3      OH2            15.8014398832      -29.8017984712      -35.9303735565  TIP3      10545           0.0000000000
     81466     10945  TIP3      H1             15.6457861771      -30.7581679525      -35.9471739766  TIP3      10545           0.0000000000
     81467     10945  TIP3      H2             15.4480942401      -29.5489836466      -35.0617919277  TIP3      10545           0.0000000000
     81468     10946  TIP3      OH2             0.8101020890      -27.7224747334      -31.8861628206  TIP3      10546           0.0000000000
     81469     10946  TIP3      H1              1.0102874667      -27.8065030221      -32.8445374913  TIP3      10546           0.0000000000
     81470     10946  TIP3      H2              1.6956331228      -27.8695893931      -31.4999114002  TIP3      10546           0.0000000000
     81471     10947  TIP3      OH2            16.6484248982      -27.8374962327      -26.2710394970  TIP3      10547           0.0000000000
     81472     10947  TIP3      H1             17.2531763235      -28.5865761972      -26.0882435412  TIP3      10547           0.0000000000
     81473     10947  TIP3      H2             17.2352398050      -27.0564329527      -26.2352756330  TIP3      10547           0.0000000000
     81474     10948  TIP3      OH2            18.1585130942      -29.9264736958      -25.6239285810  TIP3      10548           0.0000000000
     81475     10948  TIP3      H1             17.2769197759      -30.3355095547      -25.7560264337  TIP3      10548           0.0000000000
     81476     10948  TIP3      H2             18.7421671202      -30.6988681419      -25.6614902334  TIP3      10548           0.0000000000
     81477     10949  TIP3      OH2            15.8860187094      -33.7987567757      -42.4697942666  TIP3      10549           0.0000000000
     81478     10949  TIP3      H1             16.4840282674      -34.1710377279      -41.7889158596  TIP3      10549           0.0000000000
     81479     10949  TIP3      H2             15.0225325702      -34.1778856393      -42.2335745935  TIP3      10549           0.0000000000
     81480     10950  TIP3      OH2            15.4826693209      -32.2158522547      -37.4546472790  TIP3      10550           0.0000000000
     81481     10950  TIP3      H1             15.7849118786      -33.1474975991      -37.3352151086  TIP3      10550           0.0000000000
     81482     10950  TIP3      H2             16.2627416082      -31.8025683124      -37.8515254213  TIP3      10550           0.0000000000
     81483     10951  TIP3      OH2            16.1039887074      -31.6694632317      -32.0291527908  TIP3      10551           0.0000000000
     81484     10951  TIP3      H1             17.0611967108      -31.4325048197      -32.0471555741  TIP3      10551           0.0000000000
     81485     10951  TIP3      H2             15.8994499759      -31.5346093977      -31.0903883035  TIP3      10551           0.0000000000
     81486     10952  TIP3      OH2            16.1649064650      -30.9406633931      -29.2461548808  TIP3      10552           0.0000000000
     81487     10952  TIP3      H1             15.2955954156      -30.6454190231      -28.8958568943  TIP3      10552           0.0000000000
     81488     10952  TIP3      H2             16.5983805109      -30.0804049988      -29.4627263937  TIP3      10552           0.0000000000
     81489     10953  TIP3      OH2             0.4145215302      -32.4377807943      -25.7759356181  TIP3      10553           0.0000000000
     81490     10953  TIP3      H1              1.3475726594      -32.6014347251      -25.5304245597  TIP3      10553           0.0000000000
     81491     10953  TIP3      H2             -0.0226670695      -33.2258756903      -25.3823268600  TIP3      10553           0.0000000000
     81492     10954  TIP3      OH2            18.4425096674      -36.9162175742      -23.8866881269  TIP3      10554           0.0000000000
     81493     10954  TIP3      H1             18.7773245137      -37.5822126949      -24.5026509578  TIP3      10554           0.0000000000
     81494     10954  TIP3      H2             18.5680624103      -36.0842903058      -24.3750972318  TIP3      10554           0.0000000000
     81495     10955  TIP3      OH2            16.1291781206      -34.9429150077      -37.4141976613  TIP3      10555           0.0000000000
     81496     10955  TIP3      H1             16.3203493430      -35.4025509533      -36.5737089682  TIP3      10555           0.0000000000
     81497     10955  TIP3      H2             15.5188292874      -35.5612595866      -37.8755929581  TIP3      10555           0.0000000000
     81498     10956  TIP3      OH2             1.6301685273      -34.1363026858      -32.8775868465  TIP3      10556           0.0000000000
     81499     10956  TIP3      H1              2.0958359025      -34.9451644339      -32.5831621835  TIP3      10556           0.0000000000
     81500     10956  TIP3      H2              2.1359829355      -33.4280618987      -32.4564869311  TIP3      10556           0.0000000000
     81501     10957  TIP3      OH2            -0.0789097476      -31.1483033361      -31.8110526182  TIP3      10557           0.0000000000
     81502     10957  TIP3      H1              0.4632482298      -31.3664026537      -32.5984312778  TIP3      10557           0.0000000000
     81503     10957  TIP3      H2              0.3397887511      -30.3148144391      -31.5442740952  TIP3      10557           0.0000000000
     81504     10958  TIP3      OH2            17.9698333288      -34.8078001462      -25.5356450091  TIP3      10558           0.0000000000
     81505     10958  TIP3      H1             17.0257724981      -34.5413660961      -25.5926134119  TIP3      10558           0.0000000000
     81506     10958  TIP3      H2             18.0425848629      -35.3442358258      -26.3398980711  TIP3      10558           0.0000000000
     81507     10959  TIP3      OH2            17.9619229042      -34.8903756911      -40.8609620955  TIP3      10559           0.0000000000
     81508     10959  TIP3      H1             18.3993841036      -35.6031023368      -41.3583623715  TIP3      10559           0.0000000000
     81509     10959  TIP3      H2             18.6772320822      -34.2266987924      -40.8338626920  TIP3      10559           0.0000000000
     81510     10960  TIP3      OH2             0.2681719585      -34.8908668697      -37.7592546658  TIP3      10560           0.0000000000
     81511     10960  TIP3      H1             -0.6636620099      -34.6656918774      -37.8953579873  TIP3      10560           0.0000000000
     81512     10960  TIP3      H2              0.7101240106      -34.3891785237      -38.4628431214  TIP3      10560           0.0000000000
     81513     10961  TIP3      OH2            15.0167333532      -19.9036145389      -35.8012444753  TIP3      10561           0.0000000000
     81514     10961  TIP3      H1             15.6888919985      -20.2469492883      -36.4233982647  TIP3      10561           0.0000000000
     81515     10961  TIP3      H2             15.5514774966      -19.4259989688      -35.1626122490  TIP3      10561           0.0000000000
     81516     10962  TIP3      OH2             0.2356078650      -36.1772837389      -29.4296430512  TIP3      10562           0.0000000000
     81517     10962  TIP3      H1             -0.4431183490      -36.3975134769      -28.7676874805  TIP3      10562           0.0000000000
     81518     10962  TIP3      H2             -0.2283638246      -35.5232018452      -29.9910425285  TIP3      10562           0.0000000000
     81519     10963  TIP3      OH2             2.4382760517      -22.9784715661      -25.2735057278  TIP3      10563           0.0000000000
     81520     10963  TIP3      H1              1.6031027823      -22.7960362252      -25.7286475844  TIP3      10563           0.0000000000
     81521     10963  TIP3      H2              2.1735287782      -23.0611234750      -24.3540314513  TIP3      10563           0.0000000000
     81522     10964  TIP3      OH2             5.3591296664      -22.0145545879      -29.0114991216  TIP3      10564           0.0000000000
     81523     10964  TIP3      H1              4.9821207494      -21.1712353553      -29.2947456776  TIP3      10564           0.0000000000
     81524     10964  TIP3      H2              6.2864977194      -21.9112424250      -29.3154764618  TIP3      10564           0.0000000000
     81525     10965  TIP3      OH2             9.6775543758      -20.5974260459      -26.0805832228  TIP3      10565           0.0000000000
     81526     10965  TIP3      H1              9.8689659476      -20.9259559385      -25.1759551907  TIP3      10565           0.0000000000
     81527     10965  TIP3      H2             10.5597602799      -20.2888343783      -26.3656393715  TIP3      10565           0.0000000000
     81528     10966  TIP3      OH2            11.9939900465      -19.3181110159      -26.8079622318  TIP3      10566           0.0000000000
     81529     10966  TIP3      H1             12.7101456223      -19.9326082896      -27.0434035428  TIP3      10566           0.0000000000
     81530     10966  TIP3      H2             12.3594236838      -18.9046804995      -25.9975282161  TIP3      10566           0.0000000000
     81531     10967  TIP3      OH2            16.9710185241      -36.7079872595      -27.7054245365  TIP3      10567           0.0000000000
     81532     10967  TIP3      H1             16.1405432318      -36.4065533062      -28.1184950744  TIP3      10567           0.0000000000
     81533     10967  TIP3      H2             17.1674866808      -37.5045453747      -28.2496181104  TIP3      10567           0.0000000000
     81534     10968  TIP3      OH2             2.7880415283      -18.7586989808      -28.9846853796  TIP3      10568           0.0000000000
     81535     10968  TIP3      H1              2.0525137183      -18.2886500113      -29.4115069976  TIP3      10568           0.0000000000
     81536     10968  TIP3      H2              2.4345659535      -18.9815126297      -28.1101574358  TIP3      10568           0.0000000000
     81537     10969  TIP3      OH2             5.2601351952      -19.1734029982      -29.9330175234  TIP3      10569           0.0000000000
     81538     10969  TIP3      H1              4.3649680614      -19.0606453424      -29.5343176429  TIP3      10569           0.0000000000
     81539     10969  TIP3      H2              5.1875415744      -18.5950813880      -30.7186468550  TIP3      10569           0.0000000000
     81540     10970  TIP3      OH2             9.9578052936      -19.2725031207      -30.7651644702  TIP3      10570           0.0000000000
     81541     10970  TIP3      H1              9.4949654921      -18.7244673573      -31.4177399222  TIP3      10570           0.0000000000
     81542     10970  TIP3      H2             10.1091294738      -18.6424913460      -30.0300286568  TIP3      10570           0.0000000000
     81543     10971  TIP3      OH2            12.2756082348      -20.4254343554      -29.7872981997  TIP3      10571           0.0000000000
     81544     10971  TIP3      H1             11.3834475995      -20.2001272608      -30.0943426389  TIP3      10571           0.0000000000
     81545     10971  TIP3      H2             12.7107953695      -19.5608022627      -29.8637496720  TIP3      10571           0.0000000000
     81546     10972  TIP3      OH2            14.8673740797      -18.8529292073      -29.5143077761  TIP3      10572           0.0000000000
     81547     10972  TIP3      H1             14.7205279358      -17.9039191246      -29.7299838249  TIP3      10572           0.0000000000
     81548     10972  TIP3      H2             15.0542564060      -19.2490046676      -30.3827574129  TIP3      10572           0.0000000000
     81549     10973  TIP3      OH2             2.2033026247      -20.1147973579      -32.0660581447  TIP3      10573           0.0000000000
     81550     10973  TIP3      H1              2.1657545555      -20.5629085995      -31.1939441015  TIP3      10573           0.0000000000
     81551     10973  TIP3      H2              3.0259987087      -20.4644629143      -32.4647640664  TIP3      10573           0.0000000000
     81552     10974  TIP3      OH2             4.3164829711      -21.4030602787      -33.4139185547  TIP3      10574           0.0000000000
     81553     10974  TIP3      H1              4.1292035992      -22.3379903782      -33.2088873031  TIP3      10574           0.0000000000
     81554     10974  TIP3      H2              5.1692221004      -21.2703371226      -32.9415094449  TIP3      10574           0.0000000000
     81555     10975  TIP3      OH2             6.8891983793      -20.9252171540      -32.5499348933  TIP3      10575           0.0000000000
     81556     10975  TIP3      H1              7.0851526454      -21.8394448995      -32.8234247458  TIP3      10575           0.0000000000
     81557     10975  TIP3      H2              6.9474808349      -20.9897643661      -31.5870874526  TIP3      10575           0.0000000000
     81558     10976  TIP3      OH2            10.3792008433      -35.2717388804      -33.4008040243  TIP3      10576           0.0000000000
     81559     10976  TIP3      H1              9.7019255077      -35.9175113258      -33.1425451989  TIP3      10576           0.0000000000
     81560     10976  TIP3      H2             10.9366419408      -35.7830963330      -34.0013142211  TIP3      10576           0.0000000000
     81561     10977  TIP3      OH2            15.5142599951      -37.1989306136      -33.3014016841  TIP3      10577           0.0000000000
     81562     10977  TIP3      H1             16.1329355576      -36.6219456019      -33.8181764912  TIP3      10577           0.0000000000
     81563     10977  TIP3      H2             14.6377368311      -36.8541092198      -33.5507626118  TIP3      10577           0.0000000000
     81564     10978  TIP3      OH2            17.2058202033      -36.0091688867      -35.0006068873  TIP3      10578           0.0000000000
     81565     10978  TIP3      H1             17.8720083088      -36.5547531715      -35.4844753310  TIP3      10578           0.0000000000
     81566     10978  TIP3      H2             17.6605273602      -35.1419183021      -34.9440103931  TIP3      10578           0.0000000000
     81567     10979  TIP3      OH2             2.7319654912      -36.6351615905      -35.5667109191  TIP3      10579           0.0000000000
     81568     10979  TIP3      H1              1.9379070925      -36.8685807108      -36.0884734037  TIP3      10579           0.0000000000
     81569     10979  TIP3      H2              3.2264828500      -37.4741487986      -35.5949965588  TIP3      10579           0.0000000000
     81570     10980  TIP3      OH2             1.5161145905      -36.8739215838      -39.7998778827  TIP3      10580           0.0000000000
     81571     10980  TIP3      H1              1.9857905853      -36.2370630047      -40.3769701068  TIP3      10580           0.0000000000
     81572     10980  TIP3      H2              0.9256865075      -36.2998168219      -39.2928524042  TIP3      10580           0.0000000000
     81573     10981  TIP3      OH2             7.2548862112      -36.7217467160      -35.7742622048  TIP3      10581           0.0000000000
     81574     10981  TIP3      H1              8.1508986323      -36.3412602141      -35.8112111765  TIP3      10581           0.0000000000
     81575     10981  TIP3      H2              7.1661720677      -36.9328393837      -34.8447088414  TIP3      10581           0.0000000000
     81576     10982  TIP3      OH2            12.8800477228      -36.6876453710      -34.1264595477  TIP3      10582           0.0000000000
     81577     10982  TIP3      H1             12.9057633404      -36.5959960474      -35.0842485634  TIP3      10582           0.0000000000
     81578     10982  TIP3      H2             12.5536172849      -37.6097233832      -34.0010277333  TIP3      10582           0.0000000000
     81579     10983  TIP3      OH2            14.2063195755      -36.6620588948      -38.4521840151  TIP3      10583           0.0000000000
     81580     10983  TIP3      H1             13.4762211978      -36.0557228781      -38.6405186012  TIP3      10583           0.0000000000
     81581     10983  TIP3      H2             13.7497037236      -37.5184829027      -38.2847652214  TIP3      10583           0.0000000000
     81582     10984  TIP3      OH2             1.4502542414      -20.9238543895      -38.8462989209  TIP3      10584           0.0000000000
     81583     10984  TIP3      H1              0.7619584143      -20.9299919817      -39.5424776698  TIP3      10584           0.0000000000
     81584     10984  TIP3      H2              1.4442199841      -19.9831461184      -38.6241467841  TIP3      10584           0.0000000000
     81585     10985  TIP3      OH2             3.3730863579      -34.9665508941      -41.3261807094  TIP3      10585           0.0000000000
     81586     10985  TIP3      H1              3.8936343914      -35.5655006755      -41.8606131211  TIP3      10585           0.0000000000
     81587     10985  TIP3      H2              4.0229308313      -34.6229391375      -40.6868625557  TIP3      10585           0.0000000000
     81588     10986  TIP3      OH2             8.4036003326      -34.6715378416      -38.9107732606  TIP3      10586           0.0000000000
     81589     10986  TIP3      H1              8.6211944326      -35.2788427501      -38.1838354366  TIP3      10586           0.0000000000
     81590     10986  TIP3      H2              8.4023800670      -33.8160399259      -38.4179681518  TIP3      10586           0.0000000000
     81591     10987  TIP3      OH2            10.2797144297      -19.5099219310      -40.4059447086  TIP3      10587           0.0000000000
     81592     10987  TIP3      H1             11.2007631405      -19.3541666775      -40.6564370641  TIP3      10587           0.0000000000
     81593     10987  TIP3      H2             10.0733790647      -20.1033705104      -41.1925748781  TIP3      10587           0.0000000000
     81594     10988  TIP3      OH2            17.0229033536      -20.1227173602      -37.7762007664  TIP3      10588           0.0000000000
     81595     10988  TIP3      H1             16.8114341415      -20.8894808765      -38.3633987018  TIP3      10588           0.0000000000
     81596     10988  TIP3      H2             16.9527037738      -19.3757854231      -38.3985081124  TIP3      10588           0.0000000000
     81597     10989  TIP3      OH2             2.6409423414      -36.1119978669      -26.0914000477  TIP3      10589           0.0000000000
     81598     10989  TIP3      H1              2.2770219913      -36.8985508191      -25.6403375415  TIP3      10589           0.0000000000
     81599     10989  TIP3      H2              3.5666920516      -36.1261646226      -25.7530827908  TIP3      10589           0.0000000000
     81600     10990  TIP3      OH2             4.6442717225      -36.7529595325      -24.5158359773  TIP3      10590           0.0000000000
     81601     10990  TIP3      H1              5.5441034166      -37.0698116074      -24.7056729969  TIP3      10590           0.0000000000
     81602     10990  TIP3      H2              4.2629351427      -37.5293377125      -24.0558110009  TIP3      10590           0.0000000000
     81603     10991  TIP3      OH2             3.2532355054      -19.9735003399      -41.8649163540  TIP3      10591           0.0000000000
     81604     10991  TIP3      H1              2.9936199247      -19.6963487250      -40.9788966293  TIP3      10591           0.0000000000
     81605     10991  TIP3      H2              4.0329004305      -20.5199968261      -41.7055966331  TIP3      10591           0.0000000000
     81606     10992  TIP3      OH2            13.0539441421      -37.4382907986      -24.3469046701  TIP3      10592           0.0000000000
     81607     10992  TIP3      H1             13.1489979866      -37.8776805114      -23.4756785979  TIP3      10592           0.0000000000
     81608     10992  TIP3      H2             13.9686503806      -37.4423555010      -24.6778919125  TIP3      10592           0.0000000000
     81609     10993  TIP3      OH2            16.2554624365      -21.3912502300      -25.6620743897  TIP3      10593           0.0000000000
     81610     10993  TIP3      H1             15.4433845202      -21.5455133876      -26.1898714924  TIP3      10593           0.0000000000
     81611     10993  TIP3      H2             16.1383873344      -20.4444594188      -25.4428911355  TIP3      10593           0.0000000000
     81612     10994  TIP3      OH2            30.6544984036      -27.4961560157      -35.6418128323  TIP3      10594           0.0000000000
     81613     10994  TIP3      H1             30.7183152103      -26.5346674738      -35.7617213702  TIP3      10594           0.0000000000
     81614     10994  TIP3      H2             29.9874776385      -27.7632316205      -36.2963735813  TIP3      10594           0.0000000000
     81615     10995  TIP3      OH2            29.5529299997      -28.2223401024      -32.1992253068  TIP3      10595           0.0000000000
     81616     10995  TIP3      H1             29.5337851839      -28.8836422292      -31.4958527824  TIP3      10595           0.0000000000
     81617     10995  TIP3      H2             29.2360266099      -28.7291709769      -32.9670651854  TIP3      10595           0.0000000000
     81618     10996  TIP3      OH2            21.9177848473      -28.5990882584      -30.6343214598  TIP3      10596           0.0000000000
     81619     10996  TIP3      H1             21.9891114196      -29.2555440006      -29.9080603539  TIP3      10596           0.0000000000
     81620     10996  TIP3      H2             22.6491056861      -28.0010596727      -30.4248245855  TIP3      10596           0.0000000000
     81621     10997  TIP3      OH2            33.2395244424      -25.2922000203      -33.9218133083  TIP3      10597           0.0000000000
     81622     10997  TIP3      H1             32.8420223484      -26.0233897201      -33.4344196819  TIP3      10597           0.0000000000
     81623     10997  TIP3      H2             33.2744677982      -24.5841544223      -33.2503236074  TIP3      10597           0.0000000000
     81624     10998  TIP3      OH2            22.8422759424      -24.1449586575      -32.0971396000  TIP3      10598           0.0000000000
     81625     10998  TIP3      H1             22.5054810715      -24.9869914881      -32.4557614356  TIP3      10598           0.0000000000
     81626     10998  TIP3      H2             23.7935664039      -24.3378928902      -32.0512397326  TIP3      10598           0.0000000000
     81627     10999  TIP3      OH2            19.4894020731      -30.5354497782      -36.6852631325  TIP3      10599           0.0000000000
     81628     10999  TIP3      H1             19.0194744372      -29.6795883345      -36.7028580942  TIP3      10599           0.0000000000
     81629     10999  TIP3      H2             18.9042757581      -31.1009337363      -37.2111270453  TIP3      10599           0.0000000000
     81630     11000  TIP3      OH2            20.1708108791      -28.3402574124      -34.5536517013  TIP3      10600           0.0000000000
     81631     11000  TIP3      H1             20.4188137343      -29.1359695528      -34.0439119320  TIP3      10600           0.0000000000
     81632     11000  TIP3      H2             20.9176292629      -28.2576322562      -35.1620192683  TIP3      10600           0.0000000000
     81633     11001  TIP3      OH2            30.3430854150      -20.1905361157      -33.6952197764  TIP3      10601           0.0000000000
     81634     11001  TIP3      H1             31.0297612490      -20.8520112625      -33.9549429256  TIP3      10601           0.0000000000
     81635     11001  TIP3      H2             30.1816308471      -20.4216667951      -32.7809221152  TIP3      10601           0.0000000000
     81636     11002  TIP3      OH2            27.9541074643      -25.7868410638      -31.8033265904  TIP3      10602           0.0000000000
     81637     11002  TIP3      H1             28.2669351559      -26.5038382920      -32.3792059565  TIP3      10602           0.0000000000
     81638     11002  TIP3      H2             28.7024491767      -25.7000715173      -31.1822814234  TIP3      10602           0.0000000000
     81639     11003  TIP3      OH2            36.5777872544      -34.2084155489      -30.9659166552  TIP3      10603           0.0000000000
     81640     11003  TIP3      H1             36.6904180979      -33.5882487615      -30.2139189426  TIP3      10603           0.0000000000
     81641     11003  TIP3      H2             37.0711031882      -33.7477548415      -31.6612046030  TIP3      10603           0.0000000000
     81642     11004  TIP3      OH2            31.0972895835      -31.3842512809      -31.4374329326  TIP3      10604           0.0000000000
     81643     11004  TIP3      H1             31.2468857584      -32.3502754935      -31.4446851620  TIP3      10604           0.0000000000
     81644     11004  TIP3      H2             30.9929440196      -31.2219415457      -32.3978127035  TIP3      10604           0.0000000000
     81645     11005  TIP3      OH2            24.2385831335      -33.3009119097      -34.1880539443  TIP3      10605           0.0000000000
     81646     11005  TIP3      H1             24.3035291291      -32.4475797027      -34.6470038623  TIP3      10605           0.0000000000
     81647     11005  TIP3      H2             23.7999322081      -33.8641428719      -34.8602919772  TIP3      10605           0.0000000000
     81648     11006  TIP3      OH2            31.9550734761      -33.1926308377      -35.8159407089  TIP3      10606           0.0000000000
     81649     11006  TIP3      H1             32.6246713921      -33.5129700239      -35.1653150300  TIP3      10606           0.0000000000
     81650     11006  TIP3      H2             32.5040748691      -32.6487966674      -36.4023548426  TIP3      10606           0.0000000000
     81651     11007  TIP3      OH2            20.8496456405      -30.8903049326      -33.4457554090  TIP3      10607           0.0000000000
     81652     11007  TIP3      H1             21.5243550195      -31.4530604585      -33.0095999018  TIP3      10607           0.0000000000
     81653     11007  TIP3      H2             20.9180931476      -31.1919630873      -34.3641354371  TIP3      10607           0.0000000000
     81654     11008  TIP3      OH2            26.0175829096      -29.3341181586      -34.1929650766  TIP3      10608           0.0000000000
     81655     11008  TIP3      H1             26.6545457338      -29.9023598224      -33.7275432449  TIP3      10608           0.0000000000
     81656     11008  TIP3      H2             25.4570727539      -30.0025079484      -34.6369694607  TIP3      10608           0.0000000000
     81657     11009  TIP3      OH2            36.9990794437      -32.7530135459      -28.7101041751  TIP3      10609           0.0000000000
     81658     11009  TIP3      H1             36.3358852974      -32.0395022628      -28.8121502471  TIP3      10609           0.0000000000
     81659     11009  TIP3      H2             37.0205464451      -32.9045470630      -27.7569292117  TIP3      10609           0.0000000000
     81660     11010  TIP3      OH2            23.0947805261      -34.3982449637      -30.1396686181  TIP3      10610           0.0000000000
     81661     11010  TIP3      H1             22.8368683567      -33.8403171131      -30.8987904793  TIP3      10610           0.0000000000
     81662     11010  TIP3      H2             22.4047224405      -34.1582561396      -29.4722220982  TIP3      10610           0.0000000000
     81663     11011  TIP3      OH2            30.3893850399      -24.8943095285      -36.5601382976  TIP3      10611           0.0000000000
     81664     11011  TIP3      H1             30.1477955451      -25.2133940614      -37.4533488667  TIP3      10611           0.0000000000
     81665     11011  TIP3      H2             30.1206805526      -23.9626777960      -36.5949672423  TIP3      10611           0.0000000000
     81666     11012  TIP3      OH2            25.6358594109      -26.7432216012      -29.8691113476  TIP3      10612           0.0000000000
     81667     11012  TIP3      H1             24.9052442253      -26.1049732761      -29.7194170894  TIP3      10612           0.0000000000
     81668     11012  TIP3      H2             26.3408018203      -26.1533466590      -30.1655251693  TIP3      10612           0.0000000000
     81669     11013  TIP3      OH2            33.7375870107      -33.8741443583      -33.8280113456  TIP3      10613           0.0000000000
     81670     11013  TIP3      H1             33.5324474720      -34.6451029007      -33.2884990678  TIP3      10613           0.0000000000
     81671     11013  TIP3      H2             34.4101534983      -33.4209886628      -33.2917195374  TIP3      10613           0.0000000000
     81672     11014  TIP3      OH2            22.6528331391      -32.5169493904      -32.1533243872  TIP3      10614           0.0000000000
     81673     11014  TIP3      H1             23.2962342303      -31.8549711094      -31.8073775036  TIP3      10614           0.0000000000
     81674     11014  TIP3      H2             23.1901974858      -32.9652598433      -32.8489940294  TIP3      10614           0.0000000000
     81675     11015  TIP3      OH2            24.0656207925      -24.7621375597      -29.0759488211  TIP3      10615           0.0000000000
     81676     11015  TIP3      H1             24.0314712357      -23.8528633397      -29.4321070352  TIP3      10615           0.0000000000
     81677     11015  TIP3      H2             23.1810764888      -24.8282293207      -28.6327728213  TIP3      10615           0.0000000000
     81678     11016  TIP3      OH2            20.2783153668      -24.9321578623      -38.0899587673  TIP3      10616           0.0000000000
     81679     11016  TIP3      H1             19.9913012684      -24.6765470136      -38.9727816406  TIP3      10616           0.0000000000
     81680     11016  TIP3      H2             20.2159391174      -24.0510303923      -37.6699013170  TIP3      10616           0.0000000000
     81681     11017  TIP3      OH2            33.7799892628      -23.4705124043      -31.5626871628  TIP3      10617           0.0000000000
     81682     11017  TIP3      H1             32.8227788148      -23.3754691647      -31.3998145091  TIP3      10617           0.0000000000
     81683     11017  TIP3      H2             34.0594478188      -22.5431678504      -31.7109418604  TIP3      10617           0.0000000000
     81684     11018  TIP3      OH2            34.0909464860      -35.1754633452      -30.1426266992  TIP3      10618           0.0000000000
     81685     11018  TIP3      H1             33.3559252956      -34.5521702019      -30.2040637727  TIP3      10618           0.0000000000
     81686     11018  TIP3      H2             34.7872629307      -34.7534042289      -30.6765099305  TIP3      10618           0.0000000000
     81687     11019  TIP3      OH2            27.0860319479      -37.0660862201      -32.6861882903  TIP3      10619           0.0000000000
     81688     11019  TIP3      H1             26.9560547360      -38.0301673419      -32.7392607447  TIP3      10619           0.0000000000
     81689     11019  TIP3      H2             26.2093654671      -36.7529777097      -32.3932461091  TIP3      10619           0.0000000000
     81690     11020  TIP3      OH2            32.0057330393      -21.6921738933      -34.9431263814  TIP3      10620           0.0000000000
     81691     11020  TIP3      H1             32.4836874039      -22.3873792222      -35.4415684790  TIP3      10620           0.0000000000
     81692     11020  TIP3      H2             32.4002835114      -20.8799533972      -35.3459828057  TIP3      10620           0.0000000000
     81693     11021  TIP3      OH2            33.1931597416      -23.7538653078      -36.4293367786  TIP3      10621           0.0000000000
     81694     11021  TIP3      H1             32.9538825154      -24.4652014212      -37.0497933767  TIP3      10621           0.0000000000
     81695     11021  TIP3      H2             33.2829070567      -24.2387305915      -35.5886760499  TIP3      10621           0.0000000000
     81696     11022  TIP3      OH2            34.8743660152      -25.1872894020      -27.9385131588  TIP3      10622           0.0000000000
     81697     11022  TIP3      H1             35.0184791963      -25.8086952664      -28.6852503933  TIP3      10622           0.0000000000
     81698     11022  TIP3      H2             35.0541208599      -24.3216672199      -28.3363662611  TIP3      10622           0.0000000000
     81699     11023  TIP3      OH2            29.3497165305      -28.2624959227      -38.1761433368  TIP3      10623           0.0000000000
     81700     11023  TIP3      H1             28.6479425847      -27.7012103008      -38.5450155683  TIP3      10623           0.0000000000
     81701     11023  TIP3      H2             30.0599460106      -28.1807897892      -38.8406506236  TIP3      10623           0.0000000000
     81702     11024  TIP3      OH2            29.3950859984      -29.7524215275      -41.1429159626  TIP3      10624           0.0000000000
     81703     11024  TIP3      H1             30.1200986075      -29.7609077413      -40.4793107446  TIP3      10624           0.0000000000
     81704     11024  TIP3      H2             29.7304328034      -30.4141380067      -41.7632174912  TIP3      10624           0.0000000000
     81705     11025  TIP3      OH2            36.7361841684      -28.8684005219      -29.8818358914  TIP3      10625           0.0000000000
     81706     11025  TIP3      H1             36.0740995387      -28.1525569184      -29.8186224481  TIP3      10625           0.0000000000
     81707     11025  TIP3      H2             37.2075961830      -28.6375538698      -30.7018711791  TIP3      10625           0.0000000000
     81708     11026  TIP3      OH2            32.7803131725      -28.0401017223      -37.2437250953  TIP3      10626           0.0000000000
     81709     11026  TIP3      H1             32.0363300948      -27.8152797263      -36.6423491685  TIP3      10626           0.0000000000
     81710     11026  TIP3      H2             33.2358306857      -28.7464614141      -36.7517539999  TIP3      10626           0.0000000000
     81711     11027  TIP3      OH2            32.7052222995      -29.8865651345      -28.1480776499  TIP3      10627           0.0000000000
     81712     11027  TIP3      H1             32.7355975407      -29.0861390817      -27.5937041197  TIP3      10627           0.0000000000
     81713     11027  TIP3      H2             32.0708565472      -29.5832898142      -28.8360644309  TIP3      10627           0.0000000000
     81714     11028  TIP3      OH2            24.4151619002      -27.3867568672      -35.3359967775  TIP3      10628           0.0000000000
     81715     11028  TIP3      H1             24.0882874423      -27.7884344541      -36.1728832299  TIP3      10628           0.0000000000
     81716     11028  TIP3      H2             25.0156648269      -28.0894633547      -34.9970015043  TIP3      10628           0.0000000000
     81717     11029  TIP3      OH2            25.7780927804      -23.9641749907      -32.6759986756  TIP3      10629           0.0000000000
     81718     11029  TIP3      H1             25.6813237054      -24.5631905479      -33.4275813088  TIP3      10629           0.0000000000
     81719     11029  TIP3      H2             26.5017550385      -24.3711034602      -32.1690300161  TIP3      10629           0.0000000000
     81720     11030  TIP3      OH2            24.7577395715      -28.6491160968      -31.6974172292  TIP3      10630           0.0000000000
     81721     11030  TIP3      H1             25.3300780696      -28.5247795118      -32.4779155996  TIP3      10630           0.0000000000
     81722     11030  TIP3      H2             25.1097275951      -27.9900661601      -31.0664926737  TIP3      10630           0.0000000000
     81723     11031  TIP3      OH2            31.1009387810      -23.1037654798      -31.0005454939  TIP3      10631           0.0000000000
     81724     11031  TIP3      H1             30.8612344871      -22.4677056513      -30.3169350967  TIP3      10631           0.0000000000
     81725     11031  TIP3      H2             30.8951256930      -23.9588045085      -30.5365493792  TIP3      10631           0.0000000000
     81726     11032  TIP3      OH2            25.6809366931      -24.2344747403      -26.9847755851  TIP3      10632           0.0000000000
     81727     11032  TIP3      H1             25.3202887542      -23.4552632531      -26.5187923788  TIP3      10632           0.0000000000
     81728     11032  TIP3      H2             25.0038109525      -24.4044128045      -27.6847826428  TIP3      10632           0.0000000000
     81729     11033  TIP3      OH2            31.6375863495      -28.8802375102      -39.5640593992  TIP3      10633           0.0000000000
     81730     11033  TIP3      H1             32.2189347466      -28.7062834498      -38.7821536875  TIP3      10633           0.0000000000
     81731     11033  TIP3      H2             32.0703017261      -28.3740574303      -40.2735499577  TIP3      10633           0.0000000000
     81732     11034  TIP3      OH2            22.6036837814      -28.0565553386      -27.7901679285  TIP3      10634           0.0000000000
     81733     11034  TIP3      H1             22.6525914949      -27.3903234041      -27.0740843510  TIP3      10634           0.0000000000
     81734     11034  TIP3      H2             21.6860355164      -27.9440638518      -28.0773947868  TIP3      10634           0.0000000000
     81735     11035  TIP3      OH2            29.3492550067      -22.1488779271      -36.0751907393  TIP3      10635           0.0000000000
     81736     11035  TIP3      H1             29.8626832079      -21.7757470690      -35.3486784086  TIP3      10635           0.0000000000
     81737     11035  TIP3      H2             28.8178112911      -21.3821921905      -36.3697359847  TIP3      10635           0.0000000000
     81738     11036  TIP3      OH2            23.9175319754      -22.1600562049      -26.2313466928  TIP3      10636           0.0000000000
     81739     11036  TIP3      H1             23.8898919777      -22.3044018058      -27.1914906332  TIP3      10636           0.0000000000
     81740     11036  TIP3      H2             22.9809566475      -22.3034513298      -25.9846438799  TIP3      10636           0.0000000000
     81741     11037  TIP3      OH2            35.3642111514      -37.1313497725      -39.7133092069  TIP3      10637           0.0000000000
     81742     11037  TIP3      H1             34.4259640673      -36.9933473140      -39.4341115190  TIP3      10637           0.0000000000
     81743     11037  TIP3      H2             35.5943613716      -36.2810729886      -40.1218092427  TIP3      10637           0.0000000000
     81744     11038  TIP3      OH2            23.3907173700      -28.3489324614      -37.7389565461  TIP3      10638           0.0000000000
     81745     11038  TIP3      H1             23.1115951572      -27.5739720113      -38.2539736773  TIP3      10638           0.0000000000
     81746     11038  TIP3      H2             22.7315871322      -29.0196188852      -37.9303661007  TIP3      10638           0.0000000000
     81747     11039  TIP3      OH2            36.4998354267      -22.7830048050      -41.3322443811  TIP3      10639           0.0000000000
     81748     11039  TIP3      H1             36.6142713904      -21.8225142256      -41.1881151180  TIP3      10639           0.0000000000
     81749     11039  TIP3      H2             37.4329633725      -23.0587500434      -41.4017100969  TIP3      10639           0.0000000000
     81750     11040  TIP3      OH2            19.4864001474      -25.9527329105      -28.8876683854  TIP3      10640           0.0000000000
     81751     11040  TIP3      H1             19.0040785391      -26.0190962567      -29.7319658152  TIP3      10640           0.0000000000
     81752     11040  TIP3      H2             19.5140792694      -26.8926327763      -28.6289396791  TIP3      10640           0.0000000000
     81753     11041  TIP3      OH2            19.2355309488      -23.2068700740      -32.0516088516  TIP3      10641           0.0000000000
     81754     11041  TIP3      H1             20.1927886235      -23.3319443423      -32.0703577323  TIP3      10641           0.0000000000
     81755     11041  TIP3      H2             19.1414373998      -22.4027108289      -31.5257937482  TIP3      10641           0.0000000000
     81756     11042  TIP3      OH2            37.4684633548      -22.5151243255      -26.3709072301  TIP3      10642           0.0000000000
     81757     11042  TIP3      H1             37.3689146282      -23.4784275273      -26.3994692009  TIP3      10642           0.0000000000
     81758     11042  TIP3      H2             36.5992609769      -22.2642311460      -25.9662361393  TIP3      10642           0.0000000000
     81759     11043  TIP3      OH2            28.4277729624      -22.9662181359      -27.5106943721  TIP3      10643           0.0000000000
     81760     11043  TIP3      H1             28.5053714647      -22.1260896236      -27.0062685454  TIP3      10643           0.0000000000
     81761     11043  TIP3      H2             27.5523239409      -23.2994761998      -27.2413136564  TIP3      10643           0.0000000000
     81762     11044  TIP3      OH2            28.8407009458      -19.2104895420      -37.6878315459  TIP3      10644           0.0000000000
     81763     11044  TIP3      H1             28.7674878113      -19.2952954556      -38.6569142690  TIP3      10644           0.0000000000
     81764     11044  TIP3      H2             28.8766448994      -18.2437186289      -37.5591497261  TIP3      10644           0.0000000000
     81765     11045  TIP3      OH2            22.5002522459      -20.3608243980      -35.8977910850  TIP3      10645           0.0000000000
     81766     11045  TIP3      H1             22.6422706381      -20.7577234402      -35.0127361053  TIP3      10645           0.0000000000
     81767     11045  TIP3      H2             21.6458207399      -20.7527067794      -36.1414074550  TIP3      10645           0.0000000000
     81768     11046  TIP3      OH2            31.9154586798      -20.0148853953      -40.7158475251  TIP3      10646           0.0000000000
     81769     11046  TIP3      H1             32.3371072608      -20.7834967164      -41.1560030654  TIP3      10646           0.0000000000
     81770     11046  TIP3      H2             31.9505693490      -20.2899628240      -39.7774004903  TIP3      10646           0.0000000000
     81771     11047  TIP3      OH2            31.6114566579      -20.0904233804      -37.9400587931  TIP3      10647           0.0000000000
     81772     11047  TIP3      H1             30.6581341331      -20.0007422215      -37.7593532771  TIP3      10647           0.0000000000
     81773     11047  TIP3      H2             31.8805372005      -20.8156514347      -37.3637140247  TIP3      10647           0.0000000000
     81774     11048  TIP3      OH2            34.6016433835      -31.0383069495      -25.8783083120  TIP3      10648           0.0000000000
     81775     11048  TIP3      H1             34.1709250453      -30.5648841109      -26.6122283591  TIP3      10648           0.0000000000
     81776     11048  TIP3      H2             34.6266584958      -31.9492808950      -26.2103638883  TIP3      10648           0.0000000000
     81777     11049  TIP3      OH2            21.7480534146      -24.6341986405      -27.8937588410  TIP3      10649           0.0000000000
     81778     11049  TIP3      H1             21.9687624650      -25.0112046477      -27.0152420529  TIP3      10649           0.0000000000
     81779     11049  TIP3      H2             20.8812042403      -25.0321573251      -28.1060899533  TIP3      10649           0.0000000000
     81780     11050  TIP3      OH2            24.4038401022      -36.1781763118      -31.9143579702  TIP3      10650           0.0000000000
     81781     11050  TIP3      H1             23.5043762556      -36.2698422630      -32.3052408366  TIP3      10650           0.0000000000
     81782     11050  TIP3      H2             24.3211453116      -35.3226236884      -31.4656794484  TIP3      10650           0.0000000000
     81783     11051  TIP3      OH2            29.0533232488      -36.4665941900      -28.5488145644  TIP3      10651           0.0000000000
     81784     11051  TIP3      H1             29.4540415458      -36.8915849187      -27.7685394716  TIP3      10651           0.0000000000
     81785     11051  TIP3      H2             28.0865110817      -36.6287793521      -28.4137168013  TIP3      10651           0.0000000000
     81786     11052  TIP3      OH2            32.3657102266      -32.6783024755      -27.6733620783  TIP3      10652           0.0000000000
     81787     11052  TIP3      H1             31.8196859620      -32.8449148974      -26.8663178650  TIP3      10652           0.0000000000
     81788     11052  TIP3      H2             32.1879778687      -31.7576417501      -27.9188806594  TIP3      10652           0.0000000000
     81789     11053  TIP3      OH2            33.1765818962      -27.7932204052      -41.8291239207  TIP3      10653           0.0000000000
     81790     11053  TIP3      H1             33.1899172680      -28.0184106784      -42.7844719667  TIP3      10653           0.0000000000
     81791     11053  TIP3      H2             34.0327601790      -27.3924033621      -41.6954866102  TIP3      10653           0.0000000000
     81792     11054  TIP3      OH2            28.7070343830      -33.9391345307      -41.2447452893  TIP3      10654           0.0000000000
     81793     11054  TIP3      H1             28.4192228958      -33.9597645083      -40.3111983019  TIP3      10654           0.0000000000
     81794     11054  TIP3      H2             28.4330362613      -34.8213717041      -41.5267085079  TIP3      10654           0.0000000000
     81795     11055  TIP3      OH2            24.4957575172      -31.2132128381      -30.7558217214  TIP3      10655           0.0000000000
     81796     11055  TIP3      H1             23.7988429580      -31.2342066054      -30.0742216692  TIP3      10655           0.0000000000
     81797     11055  TIP3      H2             24.4873999802      -30.2757688035      -31.0509356118  TIP3      10655           0.0000000000
     81798     11056  TIP3      OH2            24.4728660753      -31.0142494212      -35.8543200998  TIP3      10656           0.0000000000
     81799     11056  TIP3      H1             23.5516189298      -31.3307199031      -35.9587779531  TIP3      10656           0.0000000000
     81800     11056  TIP3      H2             24.8883731223      -31.3691563250      -36.6632397197  TIP3      10656           0.0000000000
     81801     11057  TIP3      OH2            29.9998348406      -30.5810702472      -37.0644823742  TIP3      10657           0.0000000000
     81802     11057  TIP3      H1             29.5873801595      -29.7474270540      -37.3804327329  TIP3      10657           0.0000000000
     81803     11057  TIP3      H2             30.7097657837      -30.7188200690      -37.7156081625  TIP3      10657           0.0000000000
     81804     11058  TIP3      OH2            29.1001066407      -30.3939892746      -25.6416303107  TIP3      10658           0.0000000000
     81805     11058  TIP3      H1             28.5246914954      -31.1016544559      -25.2527378248  TIP3      10658           0.0000000000
     81806     11058  TIP3      H2             29.9047577007      -30.4973896440      -25.1076669110  TIP3      10658           0.0000000000
     81807     11059  TIP3      OH2            31.0157745970      -31.1050468151      -34.2264487755  TIP3      10659           0.0000000000
     81808     11059  TIP3      H1             30.7844914779      -30.5253607215      -34.9720944562  TIP3      10659           0.0000000000
     81809     11059  TIP3      H2             31.1619499598      -31.9523303180      -34.6957877835  TIP3      10659           0.0000000000
     81810     11060  TIP3      OH2            22.1843377437      -30.9049227869      -28.9692115885  TIP3      10660           0.0000000000
     81811     11060  TIP3      H1             22.1881788298      -30.5045216442      -28.0824349539  TIP3      10660           0.0000000000
     81812     11060  TIP3      H2             21.7100972315      -31.7362575985      -28.8222567686  TIP3      10660           0.0000000000
     81813     11061  TIP3      OH2            25.6836365799      -33.3278294111      -41.9015709975  TIP3      10661           0.0000000000
     81814     11061  TIP3      H1             25.1543102015      -33.9558243799      -41.3669142996  TIP3      10661           0.0000000000
     81815     11061  TIP3      H2             24.9986654596      -33.0715931588      -42.5353729458  TIP3      10661           0.0000000000
     81816     11062  TIP3      OH2            18.8045467860      -33.7887972932      -35.0620157904  TIP3      10662           0.0000000000
     81817     11062  TIP3      H1             19.4672405027      -33.8270126918      -34.3453021063  TIP3      10662           0.0000000000
     81818     11062  TIP3      H2             19.2656084441      -34.2060953495      -35.8136530529  TIP3      10662           0.0000000000
     81819     11063  TIP3      OH2            20.0982903752      -33.0731497298      -39.6527487356  TIP3      10663           0.0000000000
     81820     11063  TIP3      H1             20.5731061421      -32.4573934656      -40.2543781441  TIP3      10663           0.0000000000
     81821     11063  TIP3      H2             19.3849763738      -32.4833278895      -39.3228457693  TIP3      10663           0.0000000000
     81822     11064  TIP3      OH2            30.2525303625      -29.4819177095      -29.6138901055  TIP3      10664           0.0000000000
     81823     11064  TIP3      H1             30.5986049009      -30.1493265898      -30.2355980686  TIP3      10664           0.0000000000
     81824     11064  TIP3      H2             29.8034191901      -30.0277243345      -28.9435905160  TIP3      10664           0.0000000000
     81825     11065  TIP3      OH2            27.0432175995      -33.5460880546      -34.8165204207  TIP3      10665           0.0000000000
     81826     11065  TIP3      H1             26.1108508357      -33.5100929988      -34.5145537435  TIP3      10665           0.0000000000
     81827     11065  TIP3      H2             27.5373326086      -33.6457322353      -33.9890219503  TIP3      10665           0.0000000000
     81828     11066  TIP3      OH2            21.8647991846      -31.9456013370      -35.9598354784  TIP3      10666           0.0000000000
     81829     11066  TIP3      H1             20.9667037075      -31.8265352773      -36.3296992008  TIP3      10666           0.0000000000
     81830     11066  TIP3      H2             22.1540943698      -32.7902166204      -36.3392209223  TIP3      10666           0.0000000000
     81831     11067  TIP3      OH2            25.5046473138      -31.9264571527      -38.3146082260  TIP3      10667           0.0000000000
     81832     11067  TIP3      H1             26.4580526454      -31.8068896317      -38.1412677948  TIP3      10667           0.0000000000
     81833     11067  TIP3      H2             25.2788760739      -31.2590350469      -38.9825061759  TIP3      10667           0.0000000000
     81834     11068  TIP3      OH2            31.4526081673      -34.3094831458      -31.5571002890  TIP3      10668           0.0000000000
     81835     11068  TIP3      H1             30.7573407200      -34.2108476942      -30.8718616089  TIP3      10668           0.0000000000
     81836     11068  TIP3      H2             30.9467342029      -34.5037350785      -32.3574583694  TIP3      10668           0.0000000000
     81837     11069  TIP3      OH2            24.1932844756      -30.7335760785      -40.7397108826  TIP3      10669           0.0000000000
     81838     11069  TIP3      H1             23.6375952463      -31.1173998473      -41.4444361310  TIP3      10669           0.0000000000
     81839     11069  TIP3      H2             25.0216674559      -30.5545935891      -41.1895388486  TIP3      10669           0.0000000000
     81840     11070  TIP3      OH2            34.6857927792      -18.6441313034      -25.2433240697  TIP3      10670           0.0000000000
     81841     11070  TIP3      H1             34.9342841672      -18.2385390033      -26.0986531707  TIP3      10670           0.0000000000
     81842     11070  TIP3      H2             35.3931223411      -18.3184880797      -24.6631578492  TIP3      10670           0.0000000000
     81843     11071  TIP3      OH2            22.3397051393      -26.1707199000      -25.6809885792  TIP3      10671           0.0000000000
     81844     11071  TIP3      H1             23.0507251701      -25.9226487457      -25.0732917166  TIP3      10671           0.0000000000
     81845     11071  TIP3      H2             21.5439103274      -26.0098485075      -25.1205181656  TIP3      10671           0.0000000000
     81846     11072  TIP3      OH2            28.3398942174      -30.7676242454      -32.9196857222  TIP3      10672           0.0000000000
     81847     11072  TIP3      H1             28.9224709838      -31.3149757930      -33.4620864880  TIP3      10672           0.0000000000
     81848     11072  TIP3      H2             28.1991128117      -31.3061193684      -32.1301316385  TIP3      10672           0.0000000000
     81849     11073  TIP3      OH2            23.3480157918      -34.6216141513      -36.4890206032  TIP3      10673           0.0000000000
     81850     11073  TIP3      H1             23.0393311510      -35.5462005817      -36.5234738638  TIP3      10673           0.0000000000
     81851     11073  TIP3      H2             24.1355497116      -34.6563393548      -37.0470480878  TIP3      10673           0.0000000000
     81852     11074  TIP3      OH2            26.9776991832      -32.4156230559      -30.5110499301  TIP3      10674           0.0000000000
     81853     11074  TIP3      H1             26.1407739136      -31.9237677689      -30.4009740608  TIP3      10674           0.0000000000
     81854     11074  TIP3      H2             27.5148550394      -32.0968652846      -29.7582836355  TIP3      10674           0.0000000000
     81855     11075  TIP3      OH2            27.5548818278      -26.1881781976      -38.8141445365  TIP3      10675           0.0000000000
     81856     11075  TIP3      H1             26.7659670431      -26.6818416966      -39.1252255003  TIP3      10675           0.0000000000
     81857     11075  TIP3      H2             27.3657662368      -26.1247297816      -37.8589923163  TIP3      10675           0.0000000000
     81858     11076  TIP3      OH2            34.7042646500      -27.0365182651      -30.0119331160  TIP3      10676           0.0000000000
     81859     11076  TIP3      H1             35.3090758521      -26.5626851097      -30.6065836927  TIP3      10676           0.0000000000
     81860     11076  TIP3      H2             33.8557061008      -26.9377329657      -30.4938059725  TIP3      10676           0.0000000000
     81861     11077  TIP3      OH2            31.4261549339      -33.3964079578      -40.6236344492  TIP3      10677           0.0000000000
     81862     11077  TIP3      H1             30.4772400897      -33.2519085229      -40.7794077796  TIP3      10677           0.0000000000
     81863     11077  TIP3      H2             31.7182929366      -32.5173907639      -40.3106774001  TIP3      10677           0.0000000000
     81864     11078  TIP3      OH2            29.0486679757      -25.9733102885      -27.5818259115  TIP3      10678           0.0000000000
     81865     11078  TIP3      H1             28.7021221231      -26.3721798738      -26.7733814156  TIP3      10678           0.0000000000
     81866     11078  TIP3      H2             28.8266374201      -25.0423972164      -27.4933350765  TIP3      10678           0.0000000000
     81867     11079  TIP3      OH2            32.1317743353      -31.4880880305      -38.9570215336  TIP3      10679           0.0000000000
     81868     11079  TIP3      H1             33.0386044558      -31.6258440722      -38.6228297754  TIP3      10679           0.0000000000
     81869     11079  TIP3      H2             32.2040435088      -30.6868645724      -39.4953024255  TIP3      10679           0.0000000000
     81870     11080  TIP3      OH2            22.6598168908      -26.8496755962      -33.0162146517  TIP3      10680           0.0000000000
     81871     11080  TIP3      H1             23.3805328781      -26.8934820070      -33.6739497699  TIP3      10680           0.0000000000
     81872     11080  TIP3      H2             22.7302613541      -27.7045751282      -32.5612360501  TIP3      10680           0.0000000000
     81873     11081  TIP3      OH2            29.6642457060      -24.7312913241      -39.7790430657  TIP3      10681           0.0000000000
     81874     11081  TIP3      H1             29.3277053256      -23.8900896716      -39.4221492090  TIP3      10681           0.0000000000
     81875     11081  TIP3      H2             28.9292420006      -25.3451085694      -39.5797656795  TIP3      10681           0.0000000000
     81876     11082  TIP3      OH2            19.6542471977      -28.4069664213      -27.7417131371  TIP3      10682           0.0000000000
     81877     11082  TIP3      H1             19.8636573332      -28.8484054226      -26.8972133089  TIP3      10682           0.0000000000
     81878     11082  TIP3      H2             19.0455318527      -29.0370429436      -28.1649755729  TIP3      10682           0.0000000000
     81879     11083  TIP3      OH2            26.6682256217      -28.8569972081      -25.5406831103  TIP3      10683           0.0000000000
     81880     11083  TIP3      H1             26.3728106554      -29.1085080691      -26.4212353912  TIP3      10683           0.0000000000
     81881     11083  TIP3      H2             27.6012858661      -29.1485288697      -25.5319758439  TIP3      10683           0.0000000000
     81882     11084  TIP3      OH2            31.3251371508      -23.5311981697      -27.6408027605  TIP3      10684           0.0000000000
     81883     11084  TIP3      H1             30.4010124789      -23.3407497556      -27.8768068376  TIP3      10684           0.0000000000
     81884     11084  TIP3      H2             31.3190838908      -23.2508890205      -26.7040925937  TIP3      10684           0.0000000000
     81885     11085  TIP3      OH2            37.0312375443      -31.3209783432      -39.2282755610  TIP3      10685           0.0000000000
     81886     11085  TIP3      H1             36.4664286646      -31.6607943368      -39.9480687609  TIP3      10685           0.0000000000
     81887     11085  TIP3      H2             37.1132219350      -30.3853284544      -39.5302009308  TIP3      10685           0.0000000000
     81888     11086  TIP3      OH2            37.0047055410      -25.4743690177      -26.4097263326  TIP3      10686           0.0000000000
     81889     11086  TIP3      H1             36.1229744794      -25.2524277890      -26.7993660316  TIP3      10686           0.0000000000
     81890     11086  TIP3      H2             37.5718549138      -25.5090973767      -27.2058322624  TIP3      10686           0.0000000000
     81891     11087  TIP3      OH2            35.3235549724      -22.4989402055      -38.8112099447  TIP3      10687           0.0000000000
     81892     11087  TIP3      H1             34.9471231225      -23.3285451366      -38.4921893985  TIP3      10687           0.0000000000
     81893     11087  TIP3      H2             35.6087801543      -22.6906474579      -39.7214249702  TIP3      10687           0.0000000000
     81894     11088  TIP3      OH2            32.5028931893      -27.6846580833      -31.7517637042  TIP3      10688           0.0000000000
     81895     11088  TIP3      H1             31.5622317873      -27.9262331462      -31.8150848561  TIP3      10688           0.0000000000
     81896     11088  TIP3      H2             32.9381836674      -28.4686089471      -32.1305812749  TIP3      10688           0.0000000000
     81897     11089  TIP3      OH2            25.0436810367      -23.3719189681      -35.6298697931  TIP3      10689           0.0000000000
     81898     11089  TIP3      H1             25.5326742235      -22.5640160585      -35.8498017572  TIP3      10689           0.0000000000
     81899     11089  TIP3      H2             24.1515677265      -23.1377263162      -35.9487014151  TIP3      10689           0.0000000000
     81900     11090  TIP3      OH2            20.7715756771      -28.4929233181      -41.0688627670  TIP3      10690           0.0000000000
     81901     11090  TIP3      H1             21.4232655733      -27.8860382163      -40.6850357875  TIP3      10690           0.0000000000
     81902     11090  TIP3      H2             19.8961306926      -28.2224979975      -40.7882804020  TIP3      10690           0.0000000000
     81903     11091  TIP3      OH2            26.4859128376      -25.6913807543      -36.0588244458  TIP3      10691           0.0000000000
     81904     11091  TIP3      H1             26.1605540222      -24.7743936826      -36.0313728635  TIP3      10691           0.0000000000
     81905     11091  TIP3      H2             25.7155566802      -26.1715140914      -35.6754198027  TIP3      10691           0.0000000000
     81906     11092  TIP3      OH2            26.9355733872      -21.5441235811      -29.7477144036  TIP3      10692           0.0000000000
     81907     11092  TIP3      H1             27.3402750036      -20.6935635174      -29.9823011982  TIP3      10692           0.0000000000
     81908     11092  TIP3      H2             27.5062094123      -21.8421169148      -29.0116907009  TIP3      10692           0.0000000000
     81909     11093  TIP3      OH2            25.1467301131      -20.7005915698      -36.5383758971  TIP3      10693           0.0000000000
     81910     11093  TIP3      H1             24.1746822802      -20.5726197077      -36.4545572781  TIP3      10693           0.0000000000
     81911     11093  TIP3      H2             25.4827821504      -19.8493516008      -36.1966933992  TIP3      10693           0.0000000000
     81912     11094  TIP3      OH2            30.4731116372      -25.4736124765      -30.0809829354  TIP3      10694           0.0000000000
     81913     11094  TIP3      H1             30.0937983176      -25.6877975253      -29.2002764268  TIP3      10694           0.0000000000
     81914     11094  TIP3      H2             31.0912378428      -26.2070865118      -30.2343641120  TIP3      10694           0.0000000000
     81915     11095  TIP3      OH2            32.7194744958      -24.5007888213      -40.9808752744  TIP3      10695           0.0000000000
     81916     11095  TIP3      H1             33.0481238364      -24.9156281023      -40.1573661095  TIP3      10695           0.0000000000
     81917     11095  TIP3      H2             31.7620115781      -24.6260317927      -40.8864950151  TIP3      10695           0.0000000000
     81918     11096  TIP3      OH2            33.2017945297      -20.9126301735      -27.5660001435  TIP3      10696           0.0000000000
     81919     11096  TIP3      H1             32.5603851436      -21.4421922364      -28.0786229374  TIP3      10696           0.0000000000
     81920     11096  TIP3      H2             33.4397922964      -20.2302935489      -28.2299586475  TIP3      10696           0.0000000000
     81921     11097  TIP3      OH2            37.2331879836      -20.0559070080      -40.7457333188  TIP3      10697           0.0000000000
     81922     11097  TIP3      H1             37.9522678040      -19.4434213974      -40.9508477916  TIP3      10697           0.0000000000
     81923     11097  TIP3      H2             36.5086295419      -19.4661756229      -40.4461264801  TIP3      10697           0.0000000000
     81924     11098  TIP3      OH2            21.3066291448      -33.6659906909      -28.1840225891  TIP3      10698           0.0000000000
     81925     11098  TIP3      H1             20.3943027599      -33.3281102168      -28.2375365983  TIP3      10698           0.0000000000
     81926     11098  TIP3      H2             21.1902601906      -34.5266178429      -27.7516506002  TIP3      10698           0.0000000000
     81927     11099  TIP3      OH2            33.5635670265      -25.8293035152      -38.7605538665  TIP3      10699           0.0000000000
     81928     11099  TIP3      H1             33.3064774312      -26.5963512935      -38.2045817898  TIP3      10699           0.0000000000
     81929     11099  TIP3      H2             34.5065720927      -25.7425425375      -38.5400646993  TIP3      10699           0.0000000000
     81930     11100  TIP3      OH2            20.9458235824      -21.8672259834      -29.7633489735  TIP3      10700           0.0000000000
     81931     11100  TIP3      H1             21.1839489872      -22.8075191670      -29.7656493691  TIP3      10700           0.0000000000
     81932     11100  TIP3      H2             21.1891402473      -21.5978649692      -28.8676944822  TIP3      10700           0.0000000000
     81933     11101  TIP3      OH2            25.7270908196      -23.8373529731      -40.0874958429  TIP3      10701           0.0000000000
     81934     11101  TIP3      H1             25.8998394633      -24.3614990826      -39.2969849650  TIP3      10701           0.0000000000
     81935     11101  TIP3      H2             25.7438322551      -22.9193220979      -39.7530789149  TIP3      10701           0.0000000000
     81936     11102  TIP3      OH2            22.1352928297      -26.5761401649      -39.6071336661  TIP3      10702           0.0000000000
     81937     11102  TIP3      H1             21.5605204018      -26.1948120400      -38.9420231650  TIP3      10702           0.0000000000
     81938     11102  TIP3      H2             22.7440395650      -25.8305115091      -39.8145938613  TIP3      10702           0.0000000000
     81939     11103  TIP3      OH2            30.0290007146      -33.9108230610      -29.2780530611  TIP3      10703           0.0000000000
     81940     11103  TIP3      H1             30.7340863703      -33.8521904377      -28.6208992033  TIP3      10703           0.0000000000
     81941     11103  TIP3      H2             29.6474259804      -34.7932141888      -29.0957719519  TIP3      10703           0.0000000000
     81942     11104  TIP3      OH2            30.7910895866      -34.2988400050      -38.1639748289  TIP3      10704           0.0000000000
     81943     11104  TIP3      H1             31.0333321439      -33.8200135277      -38.9860513497  TIP3      10704           0.0000000000
     81944     11104  TIP3      H2             31.3712708656      -33.8822508040      -37.5185212710  TIP3      10704           0.0000000000
     81945     11105  TIP3      OH2            28.4816535186      -22.1553141979      -39.3083065499  TIP3      10705           0.0000000000
     81946     11105  TIP3      H1             27.6564651601      -21.6396378337      -39.2833069310  TIP3      10705           0.0000000000
     81947     11105  TIP3      H2             29.0076046378      -21.6605361600      -39.9669764411  TIP3      10705           0.0000000000
     81948     11106  TIP3      OH2            28.0060767694      -32.5611620486      -37.3484880933  TIP3      10706           0.0000000000
     81949     11106  TIP3      H1             28.8172854653      -32.0206082878      -37.3110635740  TIP3      10706           0.0000000000
     81950     11106  TIP3      H2             27.7559488651      -32.6984386968      -36.4217862118  TIP3      10706           0.0000000000
     81951     11107  TIP3      OH2            28.5537679078      -31.5608082675      -28.1654007690  TIP3      10707           0.0000000000
     81952     11107  TIP3      H1             28.6548209179      -30.9862146007      -27.3811917056  TIP3      10707           0.0000000000
     81953     11107  TIP3      H2             29.2120822316      -32.2547107803      -28.0472333178  TIP3      10707           0.0000000000
     81954     11108  TIP3      OH2            28.8799119526      -35.4999951640      -36.4280910617  TIP3      10708           0.0000000000
     81955     11108  TIP3      H1             28.5482727767      -34.8513630736      -35.7828465915  TIP3      10708           0.0000000000
     81956     11108  TIP3      H2             29.5592777084      -34.9576117609      -36.8988930170  TIP3      10708           0.0000000000
     81957     11109  TIP3      OH2            25.8230615512      -21.1192235559      -39.3380766280  TIP3      10709           0.0000000000
     81958     11109  TIP3      H1             25.9867077073      -20.2911406393      -39.8381521243  TIP3      10709           0.0000000000
     81959     11109  TIP3      H2             25.6056625952      -20.7804818477      -38.4454332863  TIP3      10709           0.0000000000
     81960     11110  TIP3      OH2            24.5379477298      -34.4238801936      -39.7335255896  TIP3      10710           0.0000000000
     81961     11110  TIP3      H1             24.4695991122      -33.5113706575      -39.3744963153  TIP3      10710           0.0000000000
     81962     11110  TIP3      H2             25.4457084662      -34.6612144763      -39.4712244353  TIP3      10710           0.0000000000
     81963     11111  TIP3      OH2            34.7653161688      -33.6707120200      -27.3108624540  TIP3      10711           0.0000000000
     81964     11111  TIP3      H1             33.8232705820      -33.3864436102      -27.4249883924  TIP3      10711           0.0000000000
     81965     11111  TIP3      H2             35.0672551176      -33.6747787369      -28.2306702109  TIP3      10711           0.0000000000
     81966     11112  TIP3      OH2            33.3530630137      -29.8937374297      -33.2603692664  TIP3      10712           0.0000000000
     81967     11112  TIP3      H1             32.5404843947      -30.3304874239      -33.5675642220  TIP3      10712           0.0000000000
     81968     11112  TIP3      H2             33.8152002344      -30.5967462692      -32.7512252443  TIP3      10712           0.0000000000
     81969     11113  TIP3      OH2            22.7738074714      -23.9840986932      -40.6690225280  TIP3      10713           0.0000000000
     81970     11113  TIP3      H1             23.4134384789      -23.3059965988      -40.3928262391  TIP3      10713           0.0000000000
     81971     11113  TIP3      H2             23.2814887481      -24.4137088464      -41.3854557141  TIP3      10713           0.0000000000
     81972     11114  TIP3      OH2            21.1377723581      -31.3052177604      -41.5182867906  TIP3      10714           0.0000000000
     81973     11114  TIP3      H1             21.0968225959      -30.3504359234      -41.3811498332  TIP3      10714           0.0000000000
     81974     11114  TIP3      H2             20.2547072234      -31.5347291244      -41.8391274086  TIP3      10714           0.0000000000
     81975     11115  TIP3      OH2            34.4229136596      -20.6555637553      -31.6100872363  TIP3      10715           0.0000000000
     81976     11115  TIP3      H1             34.3047990789      -19.9614825292      -32.2886695613  TIP3      10715           0.0000000000
     81977     11115  TIP3      H2             35.3835963879      -20.5761701464      -31.4259325930  TIP3      10715           0.0000000000
     81978     11116  TIP3      OH2            21.9316219740      -36.5177034753      -32.8479133110  TIP3      10716           0.0000000000
     81979     11116  TIP3      H1             21.7050445764      -36.4827610403      -33.8034214544  TIP3      10716           0.0000000000
     81980     11116  TIP3      H2             21.4888885321      -37.3441773369      -32.5701429694  TIP3      10716           0.0000000000
     81981     11117  TIP3      OH2            20.8648533221      -22.6023029125      -36.7066303901  TIP3      10717           0.0000000000
     81982     11117  TIP3      H1             20.0284104230      -22.1116236218      -36.6924314448  TIP3      10717           0.0000000000
     81983     11117  TIP3      H2             21.3913748212      -22.0854343993      -37.3324323163  TIP3      10717           0.0000000000
     81984     11118  TIP3      OH2            20.1060934248      -19.9398437493      -25.3819812573  TIP3      10718           0.0000000000
     81985     11118  TIP3      H1             20.6917612578      -20.1878513925      -24.6380348991  TIP3      10718           0.0000000000
     81986     11118  TIP3      H2             19.6738166177      -20.7967247890      -25.5820771101  TIP3      10718           0.0000000000
     81987     11119  TIP3      OH2            24.7616563622      -21.0137111334      -23.7669220296  TIP3      10719           0.0000000000
     81988     11119  TIP3      H1             25.5173553474      -21.5363878340      -23.4422724280  TIP3      10719           0.0000000000
     81989     11119  TIP3      H2             24.7165498083      -21.3165556917      -24.6986913717  TIP3      10719           0.0000000000
     81990     11120  TIP3      OH2            29.1670801566      -21.3974141177      -41.8999171843  TIP3      10720           0.0000000000
     81991     11120  TIP3      H1             28.3699592472      -21.9853822833      -41.9681117228  TIP3      10720           0.0000000000
     81992     11120  TIP3      H2             29.6383666235      -21.9609280305      -42.5207567584  TIP3      10720           0.0000000000
     81993     11121  TIP3      OH2            31.2959579868      -22.6606789859      -25.0468335010  TIP3      10721           0.0000000000
     81994     11121  TIP3      H1             30.9661011147      -23.5399547085      -24.7856696501  TIP3      10721           0.0000000000
     81995     11121  TIP3      H2             32.0544945042      -22.5257513291      -24.4442745839  TIP3      10721           0.0000000000
     81996     11122  TIP3      OH2            33.4434843922      -21.7343907104      -42.1716728156  TIP3      10722           0.0000000000
     81997     11122  TIP3      H1             33.7271900960      -22.5401721748      -41.7001867639  TIP3      10722           0.0000000000
     81998     11122  TIP3      H2             34.2074201888      -21.5119415456      -42.7186437278  TIP3      10722           0.0000000000
     81999     11123  TIP3      OH2            20.0468983209      -26.1598210829      -24.4196961449  TIP3      10723           0.0000000000
     82000     11123  TIP3      H1             20.1814811829      -27.0816121826      -24.7057982228  TIP3      10723           0.0000000000
     82001     11123  TIP3      H2             19.2672537122      -25.9011320404      -24.9371955942  TIP3      10723           0.0000000000
     82002     11124  TIP3      OH2            24.4275249289      -25.7704255195      -42.2393547222  TIP3      10724           0.0000000000
     82003     11124  TIP3      H1             24.4605517045      -26.6078908297      -41.7717830155  TIP3      10724           0.0000000000
     82004     11124  TIP3      H2             25.0046795723      -25.9538467708      -42.9955786037  TIP3      10724           0.0000000000
     82005     11125  TIP3      OH2            26.7226674922      -26.1853949939      -24.9952374805  TIP3      10725           0.0000000000
     82006     11125  TIP3      H1             26.3784838658      -25.9070223157      -25.8600401363  TIP3      10725           0.0000000000
     82007     11125  TIP3      H2             26.8325863622      -27.1606176508      -25.0915902251  TIP3      10725           0.0000000000
     82008     11126  TIP3      OH2            32.4271771397      -26.3090304829      -27.6160618265  TIP3      10726           0.0000000000
     82009     11126  TIP3      H1             33.1941191191      -25.7023153513      -27.7151460573  TIP3      10726           0.0000000000
     82010     11126  TIP3      H2             31.6962575405      -25.6784658844      -27.5653371436  TIP3      10726           0.0000000000
     82011     11127  TIP3      OH2            20.8915362467      -28.9511199387      -25.0042740984  TIP3      10727           0.0000000000
     82012     11127  TIP3      H1             21.3025128775      -29.8163977371      -25.1263614008  TIP3      10727           0.0000000000
     82013     11127  TIP3      H2             20.6319224550      -28.9593392063      -24.0774936472  TIP3      10727           0.0000000000
     82014     11128  TIP3      OH2            25.5545282502      -27.8122462422      -39.9923107739  TIP3      10728           0.0000000000
     82015     11128  TIP3      H1             25.0877417784      -28.3326924454      -39.3086685751  TIP3      10728           0.0000000000
     82016     11128  TIP3      H2             25.8171637323      -28.5278026492      -40.6032530180  TIP3      10728           0.0000000000
     82017     11129  TIP3      OH2            24.8261581972      -29.9816831556      -27.6414626259  TIP3      10729           0.0000000000
     82018     11129  TIP3      H1             24.2180362161      -29.2736554176      -27.3695916591  TIP3      10729           0.0000000000
     82019     11129  TIP3      H2             25.1880743097      -29.6303458124      -28.4732650530  TIP3      10729           0.0000000000
     82020     11130  TIP3      OH2            26.6241452540      -29.5180958785      -41.7790957341  TIP3      10730           0.0000000000
     82021     11130  TIP3      H1             26.4428527471      -29.8450802930      -42.6629081706  TIP3      10730           0.0000000000
     82022     11130  TIP3      H2             27.6024503797      -29.5387664747      -41.6346775850  TIP3      10730           0.0000000000
     82023     11131  TIP3      OH2            29.8682197816      -27.4415557784      -24.3307047023  TIP3      10731           0.0000000000
     82024     11131  TIP3      H1             30.8255513151      -27.4364638406      -24.3954020366  TIP3      10731           0.0000000000
     82025     11131  TIP3      H2             29.6833401991      -28.1941560539      -23.7333447883  TIP3      10731           0.0000000000
     82026     11132  TIP3      OH2            35.8864746416      -27.1850571840       42.7728788594  TIP3      10732           0.0000000000
     82027     11132  TIP3      H1             35.7287634612      -27.6575433298       41.9314959254  TIP3      10732           0.0000000000
     82028     11132  TIP3      H2             36.0429363367      -26.2753652226       42.4968124253  TIP3      10732           0.0000000000
     82029     11133  TIP3      OH2            25.1843647209      -32.6111384107      -26.5536779874  TIP3      10733           0.0000000000
     82030     11133  TIP3      H1             25.3254813430      -33.3351067273      -27.1881667667  TIP3      10733           0.0000000000
     82031     11133  TIP3      H2             25.1764600558      -31.8151241456      -27.1259014208  TIP3      10733           0.0000000000
     82032     11134  TIP3      OH2            25.6054198030      -34.2382421103      -29.0454649560  TIP3      10734           0.0000000000
     82033     11134  TIP3      H1             26.1298823130      -33.7765038109      -29.7389819186  TIP3      10734           0.0000000000
     82034     11134  TIP3      H2             24.7244461314      -34.3322984313      -29.4764795018  TIP3      10734           0.0000000000
     82035     11135  TIP3      OH2            27.1646896929      -28.7853443263      -28.8131013611  TIP3      10735           0.0000000000
     82036     11135  TIP3      H1             27.9209162806      -28.9391563829      -29.3883152157  TIP3      10735           0.0000000000
     82037     11135  TIP3      H2             26.8184167084      -27.9300761845      -29.1100392305  TIP3      10735           0.0000000000
     82038     11136  TIP3      OH2            31.5706429707      -30.9851378533      -23.8349479082  TIP3      10736           0.0000000000
     82039     11136  TIP3      H1             31.7803847631      -31.9209366578      -23.9017752647  TIP3      10736           0.0000000000
     82040     11136  TIP3      H2             32.4404437582      -30.5575133525      -23.7954120423  TIP3      10736           0.0000000000
     82041     11137  TIP3      OH2            32.8893216599      -28.2038573068      -25.6973491414  TIP3      10737           0.0000000000
     82042     11137  TIP3      H1             32.6350203819      -27.4736897928      -26.3029767160  TIP3      10737           0.0000000000
     82043     11137  TIP3      H2             33.8539966369      -28.2482848599      -25.8717240108  TIP3      10737           0.0000000000
     82044     11138  TIP3      OH2            23.6567544862      -31.3917774710      -24.6460943172  TIP3      10738           0.0000000000
     82045     11138  TIP3      H1             22.8890381114      -31.9499064815      -24.8637915315  TIP3      10738           0.0000000000
     82046     11138  TIP3      H2             24.3375331113      -31.7247206906      -25.2625110499  TIP3      10738           0.0000000000
     82047     11139  TIP3      OH2            26.4026633905      -36.8002661549      -28.6236247356  TIP3      10739           0.0000000000
     82048     11139  TIP3      H1             26.2682603481      -35.8295589536      -28.7412479548  TIP3      10739           0.0000000000
     82049     11139  TIP3      H2             25.6473784973      -37.1530792079      -29.1274670606  TIP3      10739           0.0000000000
     82050     11140  TIP3      OH2            27.6816183177      -32.4930222076      -25.0703163314  TIP3      10740           0.0000000000
     82051     11140  TIP3      H1             27.4043551469      -32.6695881052      -24.1470759561  TIP3      10740           0.0000000000
     82052     11140  TIP3      H2             26.8686505586      -32.6637801809      -25.5759312649  TIP3      10740           0.0000000000
     82053     11141  TIP3      OH2            30.3903800774      -33.3416830355      -25.9932864849  TIP3      10741           0.0000000000
     82054     11141  TIP3      H1             29.4240997448      -33.2894166098      -25.8461347927  TIP3      10741           0.0000000000
     82055     11141  TIP3      H2             30.6773820697      -33.9662317222      -25.3052364759  TIP3      10741           0.0000000000
     82056     11142  TIP3      OH2            31.9511900947      -34.6748733875      -24.0214276183  TIP3      10742           0.0000000000
     82057     11142  TIP3      H1             31.9329042772      -35.6559332156      -23.9977802135  TIP3      10742           0.0000000000
     82058     11142  TIP3      H2             31.7084428750      -34.4366056307      -23.1220798922  TIP3      10742           0.0000000000
     82059     11143  TIP3      OH2            21.8036030432      -33.4528168478      -24.9404664215  TIP3      10743           0.0000000000
     82060     11143  TIP3      H1             22.0378989960      -34.1898880982      -25.5387328462  TIP3      10743           0.0000000000
     82061     11143  TIP3      H2             21.7176702721      -33.9184689916      -24.0799806839  TIP3      10743           0.0000000000
     82062     11144  TIP3      OH2            26.6133393540      -37.4518844944      -25.9587744191  TIP3      10744           0.0000000000
     82063     11144  TIP3      H1             27.3250172730      -38.1248019164      -25.9730812498  TIP3      10744           0.0000000000
     82064     11144  TIP3      H2             26.5209085758      -37.2361439932      -26.8997214047  TIP3      10744           0.0000000000
     82065     11145  TIP3      OH2            27.0060789303      -35.7738556277      -23.9013663453  TIP3      10745           0.0000000000
     82066     11145  TIP3      H1             26.8281599038      -36.2966160704      -24.7145420183  TIP3      10745           0.0000000000
     82067     11145  TIP3      H2             26.3645530483      -35.0503299430      -23.9554647868  TIP3      10745           0.0000000000
     82068     11146  TIP3      OH2            26.4852453788      -18.9119941917      -40.7308040318  TIP3      10746           0.0000000000
     82069     11146  TIP3      H1             27.4488143922      -18.7698609935      -40.5913008142  TIP3      10746           0.0000000000
     82070     11146  TIP3      H2             26.2682732398      -18.2347152420      -41.3636569292  TIP3      10746           0.0000000000
     82071     11147  TIP3      OH2            20.0480514602      -24.3601907644      -41.1714401035  TIP3      10747           0.0000000000
     82072     11147  TIP3      H1             21.0131309710      -24.1805131197      -41.0001262102  TIP3      10747           0.0000000000
     82073     11147  TIP3      H2             20.0916418630      -24.9165023127      -41.9610319376  TIP3      10747           0.0000000000
     82074     11148  TIP3      OH2            18.7512379710      -18.8902194116      -36.1884409391  TIP3      10748           0.0000000000
     82075     11148  TIP3      H1             18.0804499173      -19.3829723764      -36.7092256635  TIP3      10748           0.0000000000
     82076     11148  TIP3      H2             19.0853158485      -19.5766401721      -35.5840572033  TIP3      10748           0.0000000000
     82077     11149  TIP3      OH2            19.6084479566      -20.7991952464      -34.3726963959  TIP3      10749           0.0000000000
     82078     11149  TIP3      H1             19.2648162668      -21.6836262291      -34.1792870832  TIP3      10749           0.0000000000
     82079     11149  TIP3      H2             19.8401840226      -20.4698391398      -33.4859432742  TIP3      10749           0.0000000000
     82080     11150  TIP3      OH2            37.1434782313      -20.0010851320      -31.4056770610  TIP3      10750           0.0000000000
     82081     11150  TIP3      H1             37.1516238017      -19.8170553517      -30.4506231452  TIP3      10750           0.0000000000
     82082     11150  TIP3      H2             37.8472548655      -19.4226090270      -31.7226062408  TIP3      10750           0.0000000000
     82083     11151  TIP3      OH2            36.7206768613      -20.4028242672      -28.4667188579  TIP3      10751           0.0000000000
     82084     11151  TIP3      H1             36.2369554321      -21.1731717803      -28.8406788443  TIP3      10751           0.0000000000
     82085     11151  TIP3      H2             37.2462771970      -20.8386295225      -27.7775935829  TIP3      10751           0.0000000000
     82086     11152  TIP3      OH2            35.1783299129      -24.6736859880      -23.8099311723  TIP3      10752           0.0000000000
     82087     11152  TIP3      H1             34.2857006594      -24.7318278335      -23.4348784007  TIP3      10752           0.0000000000
     82088     11152  TIP3      H2             35.5323357044      -23.8693706029      -23.3799997417  TIP3      10752           0.0000000000
     82089     11153  TIP3      OH2            36.4719411844      -26.3661289581      -38.3467274119  TIP3      10753           0.0000000000
     82090     11153  TIP3      H1             37.3306912706      -25.9569317430      -38.1709036333  TIP3      10753           0.0000000000
     82091     11153  TIP3      H2             36.4728157642      -27.1065185800      -37.6959880580  TIP3      10753           0.0000000000
     82092     11154  TIP3      OH2            36.8504093671      -28.2996967121      -36.4971827000  TIP3      10754           0.0000000000
     82093     11154  TIP3      H1             36.1122874900      -28.8053397231      -36.0923194903  TIP3      10754           0.0000000000
     82094     11154  TIP3      H2             37.4466686505      -28.1299805284      -35.7391251013  TIP3      10754           0.0000000000
     82095     11155  TIP3      OH2            36.6034093401      -25.5668717688      -31.5194329001  TIP3      10755           0.0000000000
     82096     11155  TIP3      H1             37.4445380433      -25.9327072165      -31.8501864881  TIP3      10755           0.0000000000
     82097     11155  TIP3      H2             36.7410962422      -24.6057844201      -31.6696249606  TIP3      10755           0.0000000000
     82098     11156  TIP3      OH2            35.1377596278      -22.6718677573      -29.2256228744  TIP3      10756           0.0000000000
     82099     11156  TIP3      H1             34.4552491755      -22.3377508108      -28.6216413552  TIP3      10756           0.0000000000
     82100     11156  TIP3      H2             34.5915306861      -23.0960325714      -29.9231225344  TIP3      10756           0.0000000000
     82101     11157  TIP3      OH2            37.1372854524      -28.4492523263      -40.1026120288  TIP3      10757           0.0000000000
     82102     11157  TIP3      H1             36.5843430193      -28.0747222101      -40.8146189459  TIP3      10757           0.0000000000
     82103     11157  TIP3      H2             37.0819968445      -27.7483333886      -39.4258760155  TIP3      10757           0.0000000000
     82104     11158  TIP3      OH2            35.2511709919      -31.1772258349      -41.4711621997  TIP3      10758           0.0000000000
     82105     11158  TIP3      H1             35.5807470885      -30.5701503602      -42.1622918496  TIP3      10758           0.0000000000
     82106     11158  TIP3      H2             35.3383912542      -32.0053636543      -41.9895242867  TIP3      10758           0.0000000000
     82107     11159  TIP3      OH2            34.6561231427      -29.8020623904      -35.9304655357  TIP3      10759           0.0000000000
     82108     11159  TIP3      H1             34.5019377949      -30.7583363840      -35.9471674919  TIP3      10759           0.0000000000
     82109     11159  TIP3      H2             34.3042020587      -29.5490237870      -35.0616391021  TIP3      10759           0.0000000000
     82110     11160  TIP3      OH2            19.6682789217      -27.7207636567      -31.8879412217  TIP3      10760           0.0000000000
     82111     11160  TIP3      H1             19.8667267211      -27.8021883084      -32.8483729352  TIP3      10760           0.0000000000
     82112     11160  TIP3      H2             20.5525067785      -27.8696562115      -31.5000163483  TIP3      10760           0.0000000000
     82113     11161  TIP3      OH2            35.4947890709      -27.8365340852      -26.2658181326  TIP3      10761           0.0000000000
     82114     11161  TIP3      H1             36.1123658655      -28.5779368749      -26.0952671219  TIP3      10761           0.0000000000
     82115     11161  TIP3      H2             36.0885571168      -27.0603550092      -26.2397316091  TIP3      10761           0.0000000000
     82116     11162  TIP3      OH2            37.0108662431      -29.9350750080      -25.5936836193  TIP3      10762           0.0000000000
     82117     11162  TIP3      H1             36.1333373017      -30.3364053275      -25.7597733438  TIP3      10762           0.0000000000
     82118     11162  TIP3      H2             37.6064065666      -30.6978625206      -25.6722760046  TIP3      10762           0.0000000000
     82119     11163  TIP3      OH2            34.7392621970      -33.7853702041      -42.4510919393  TIP3      10763           0.0000000000
     82120     11163  TIP3      H1             35.3415548155      -34.1790768116      -41.7930910942  TIP3      10763           0.0000000000
     82121     11163  TIP3      H2             33.8786726697      -34.1844885296      -42.2441403142  TIP3      10763           0.0000000000
     82122     11164  TIP3      OH2            34.3385468003      -32.2145072351      -37.4550067500  TIP3      10764           0.0000000000
     82123     11164  TIP3      H1             34.6439825555      -33.1438187522      -37.3380495755  TIP3      10764           0.0000000000
     82124     11164  TIP3      H2             35.1186992500      -31.8017928770      -37.8517856422  TIP3      10764           0.0000000000
     82125     11165  TIP3      OH2            34.9599839675      -31.6695156276      -32.0291079123  TIP3      10765           0.0000000000
     82126     11165  TIP3      H1             35.9171922543      -31.4324818735      -32.0472249921  TIP3      10765           0.0000000000
     82127     11165  TIP3      H2             34.7554088890      -31.5346084416      -31.0903650665  TIP3      10765           0.0000000000
     82128     11166  TIP3      OH2            35.0209936255      -30.9404820116      -29.2461631948  TIP3      10766           0.0000000000
     82129     11166  TIP3      H1             34.1518528335      -30.6457995454      -28.8947137738  TIP3      10766           0.0000000000
     82130     11166  TIP3      H2             35.4542615441      -30.0802936964      -29.4628385236  TIP3      10766           0.0000000000
     82131     11167  TIP3      OH2            19.2780310026      -32.4367705420      -25.7571785700  TIP3      10767           0.0000000000
     82132     11167  TIP3      H1             20.2114898780      -32.5983622869      -25.5245605632  TIP3      10767           0.0000000000
     82133     11167  TIP3      H2             18.8280883186      -33.2285988118      -25.3916083721  TIP3      10767           0.0000000000
     82134     11168  TIP3      OH2            37.2958465128      -36.9322121001      -23.9028705625  TIP3      10768           0.0000000000
     82135     11168  TIP3      H1             37.6471426383      -37.5785541072      -24.5145883031  TIP3      10768           0.0000000000
     82136     11168  TIP3      H2             37.4210765915      -36.0780002676      -24.3449605558  TIP3      10768           0.0000000000
     82137     11169  TIP3      OH2            34.9853446377      -34.9430708446      -37.4142362931  TIP3      10769           0.0000000000
     82138     11169  TIP3      H1             35.1763294167      -35.4025223904      -36.5736571194  TIP3      10769           0.0000000000
     82139     11169  TIP3      H2             34.3748171093      -35.5612120826      -37.8756479146  TIP3      10769           0.0000000000
     82140     11170  TIP3      OH2            20.4859208905      -34.1362621478      -32.8779075323  TIP3      10770           0.0000000000
     82141     11170  TIP3      H1             20.9505608371      -34.9464499867      -32.5850448678  TIP3      10770           0.0000000000
     82142     11170  TIP3      H2             20.9922177782      -33.4286634822      -32.4560808064  TIP3      10770           0.0000000000
     82143     11171  TIP3      OH2            18.7771075911      -31.1476679287      -31.8109264794  TIP3      10771           0.0000000000
     82144     11171  TIP3      H1             19.3192317547      -31.3663681526      -32.5981012033  TIP3      10771           0.0000000000
     82145     11171  TIP3      H2             19.1960195223      -30.3144343215      -31.5440830381  TIP3      10771           0.0000000000
     82146     11172  TIP3      OH2            36.8239054152      -34.7933325503      -25.5484590656  TIP3      10772           0.0000000000
     82147     11172  TIP3      H1             35.8811553501      -34.5537004037      -25.5937877404  TIP3      10772           0.0000000000
     82148     11172  TIP3      H2             36.8978751045      -35.3510338509      -26.3380103887  TIP3      10772           0.0000000000
     82149     11173  TIP3      OH2            36.8181619189      -34.8906672765      -40.8605740875  TIP3      10773           0.0000000000
     82150     11173  TIP3      H1             37.2553335078      -35.6032371882      -41.3588310282  TIP3      10773           0.0000000000
     82151     11173  TIP3      H2             37.5330784809      -34.2266481171      -40.8340001252  TIP3      10773           0.0000000000
     82152     11174  TIP3      OH2            19.1285889053      -34.8844175183      -37.7563156220  TIP3      10774           0.0000000000
     82153     11174  TIP3      H1             18.1908086159      -34.6770854610      -37.8891486210  TIP3      10774           0.0000000000
     82154     11174  TIP3      H2             19.5652864303      -34.3883299764      -38.4660155040  TIP3      10774           0.0000000000
     82155     11175  TIP3      OH2            33.8716394093      -19.9138788923      -35.8025519863  TIP3      10775           0.0000000000
     82156     11175  TIP3      H1             34.5496209268      -20.2417413054      -36.4204737456  TIP3      10775           0.0000000000
     82157     11175  TIP3      H2             34.3999615412      -19.4172817041      -35.1602179997  TIP3      10775           0.0000000000
     82158     11176  TIP3      OH2            19.0918635972      -36.1763058787      -29.4284907550  TIP3      10776           0.0000000000
     82159     11176  TIP3      H1             18.4114472745      -36.3973802342      -28.7694193073  TIP3      10776           0.0000000000
     82160     11176  TIP3      H2             18.6282908724      -35.5235257324      -29.9955648537  TIP3      10776           0.0000000000
     82161     11177  TIP3      OH2            21.2954789626      -22.9771189574      -25.2633749406  TIP3      10777           0.0000000000
     82162     11177  TIP3      H1             20.4595493018      -22.8007844254      -25.7279501516  TIP3      10777           0.0000000000
     82163     11177  TIP3      H2             21.0262440486      -23.0643236906      -24.3488877537  TIP3      10777           0.0000000000
     82164     11178  TIP3      OH2            24.2183118698      -22.0155253917      -29.0072541540  TIP3      10778           0.0000000000
     82165     11178  TIP3      H1             23.8385426601      -21.1734142410      -29.2936013399  TIP3      10778           0.0000000000
     82166     11178  TIP3      H2             25.1421789275      -21.9104261773      -29.3190905219  TIP3      10778           0.0000000000
     82167     11179  TIP3      OH2            28.5268779948      -20.5727741413      -26.0722850024  TIP3      10779           0.0000000000
     82168     11179  TIP3      H1             28.7251557450      -20.9394043947      -25.1730233673  TIP3      10779           0.0000000000
     82169     11179  TIP3      H2             29.4196224053      -20.2954003532      -26.3682371512  TIP3      10779           0.0000000000
     82170     11180  TIP3      OH2            30.8498714750      -19.3196394736      -26.8084857524  TIP3      10780           0.0000000000
     82171     11180  TIP3      H1             31.5667905569      -19.9326603687      -27.0436367005  TIP3      10780           0.0000000000
     82172     11180  TIP3      H2             31.2170155934      -18.9049833723      -25.9973789860  TIP3      10780           0.0000000000
     82173     11181  TIP3      OH2            35.8307535783      -36.7072359046      -27.7207905060  TIP3      10781           0.0000000000
     82174     11181  TIP3      H1             34.9930955636      -36.4066261262      -28.1148653954  TIP3      10781           0.0000000000
     82175     11181  TIP3      H2             36.0227562923      -37.5083898346      -28.2546450086  TIP3      10781           0.0000000000
     82176     11182  TIP3      OH2            21.6433347018      -18.7390251718      -28.9711720592  TIP3      10782           0.0000000000
     82177     11182  TIP3      H1             20.9083079350      -18.2967405068      -29.4246355994  TIP3      10782           0.0000000000
     82178     11182  TIP3      H2             21.2884358482      -18.9997946025      -28.1142223008  TIP3      10782           0.0000000000
     82179     11183  TIP3      OH2            24.1184890985      -19.1740640763      -29.9351529574  TIP3      10783           0.0000000000
     82180     11183  TIP3      H1             23.2248775200      -19.0650067501      -29.5387014564  TIP3      10783           0.0000000000
     82181     11183  TIP3      H2             24.0435803559      -18.5952064652      -30.7207587795  TIP3      10783           0.0000000000
     82182     11184  TIP3      OH2            28.8149301610      -19.2784839312      -30.7726728229  TIP3      10784           0.0000000000
     82183     11184  TIP3      H1             28.3496684694      -18.7189080441      -31.4142198258  TIP3      10784           0.0000000000
     82184     11184  TIP3      H2             28.9651831223      -18.6487792209      -30.0337653761  TIP3      10784           0.0000000000
     82185     11185  TIP3      OH2            31.1347408730      -20.4217713146      -29.7879498931  TIP3      10785           0.0000000000
     82186     11185  TIP3      H1             30.2406460507      -20.1943418241      -30.0863727453  TIP3      10785           0.0000000000
     82187     11185  TIP3      H2             31.5728125292      -19.5568067087      -29.8693955781  TIP3      10785           0.0000000000
     82188     11186  TIP3      OH2            33.7202030221      -18.8545165012      -29.5067815285  TIP3      10786           0.0000000000
     82189     11186  TIP3      H1             33.5865150732      -17.9017955951      -29.7413207236  TIP3      10786           0.0000000000
     82190     11186  TIP3      H2             33.9126345331      -19.2320121462      -30.3848780122  TIP3      10786           0.0000000000
     82191     11187  TIP3      OH2            21.0586440796      -20.1151270284      -32.0656615686  TIP3      10787           0.0000000000
     82192     11187  TIP3      H1             21.0218110888      -20.5633210680      -31.1937445410  TIP3      10787           0.0000000000
     82193     11187  TIP3      H2             21.8816756362      -20.4642499468      -32.4647868059  TIP3      10787           0.0000000000
     82194     11188  TIP3      OH2            23.1691425403      -21.4052070118      -33.4193150638  TIP3      10788           0.0000000000
     82195     11188  TIP3      H1             22.9869916114      -22.3393377903      -33.2118010909  TIP3      10788           0.0000000000
     82196     11188  TIP3      H2             24.0176642769      -21.2671001489      -32.9414759416  TIP3      10788           0.0000000000
     82197     11189  TIP3      OH2            25.7500536315      -20.9269307885      -32.5562692215  TIP3      10789           0.0000000000
     82198     11189  TIP3      H1             25.9272743017      -21.8434154321      -32.8184545566  TIP3      10789           0.0000000000
     82199     11189  TIP3      H2             25.7986101758      -20.9803755114      -31.5884750074  TIP3      10789           0.0000000000
     82200     11190  TIP3      OH2            29.2353224035      -35.2714550068      -33.4010014019  TIP3      10790           0.0000000000
     82201     11190  TIP3      H1             28.5578710919      -35.9174279933      -33.1425859098  TIP3      10790           0.0000000000
     82202     11190  TIP3      H2             29.7925179747      -35.7830296415      -34.0013870487  TIP3      10790           0.0000000000
     82203     11191  TIP3      OH2            34.3703529605      -37.2002595708      -33.3003958734  TIP3      10791           0.0000000000
     82204     11191  TIP3      H1             34.9889292538      -36.6220198706      -33.8180628861  TIP3      10791           0.0000000000
     82205     11191  TIP3      H2             33.4938584847      -36.8539871626      -33.5507178029  TIP3      10791           0.0000000000
     82206     11192  TIP3      OH2            36.0618234413      -36.0091694150      -35.0006733956  TIP3      10792           0.0000000000
     82207     11192  TIP3      H1             36.7280293560      -36.5548066360      -35.4844101276  TIP3      10792           0.0000000000
     82208     11192  TIP3      H2             36.5165370700      -35.1418921110      -34.9440095857  TIP3      10792           0.0000000000
     82209     11193  TIP3      OH2            21.5842430217      -36.6352172128      -35.5693533438  TIP3      10793           0.0000000000
     82210     11193  TIP3      H1             20.7914530837      -36.8706675294      -36.0890514638  TIP3      10793           0.0000000000
     82211     11193  TIP3      H2             22.0824137649      -37.4733124391      -35.5943775764  TIP3      10793           0.0000000000
     82212     11194  TIP3      OH2            20.3793719006      -36.8705539741      -39.7993424573  TIP3      10794           0.0000000000
     82213     11194  TIP3      H1             20.8463758365      -36.2366087255      -40.3772005547  TIP3      10794           0.0000000000
     82214     11194  TIP3      H2             19.7779708725      -36.3042434557      -39.2931359499  TIP3      10794           0.0000000000
     82215     11195  TIP3      OH2            26.1106832742      -36.7216422959      -35.7744804642  TIP3      10795           0.0000000000
     82216     11195  TIP3      H1             27.0068457588      -36.3413694474      -35.8111404320  TIP3      10795           0.0000000000
     82217     11195  TIP3      H2             26.0222693603      -36.9330840122      -34.8447746592  TIP3      10795           0.0000000000
     82218     11196  TIP3      OH2            31.7354881631      -36.6889291782      -34.1262696329  TIP3      10796           0.0000000000
     82219     11196  TIP3      H1             31.7617156340      -36.5958357534      -35.0841456563  TIP3      10796           0.0000000000
     82220     11196  TIP3      H2             31.4098063527      -37.6102756975      -34.0015370400  TIP3      10796           0.0000000000
     82221     11197  TIP3      OH2            33.0622984745      -36.6620464694      -38.4519521921  TIP3      10797           0.0000000000
     82222     11197  TIP3      H1             32.3322707867      -36.0556957250      -38.6405653769  TIP3      10797           0.0000000000
     82223     11197  TIP3      H2             32.6057245495      -37.5184481882      -38.2848726728  TIP3      10797           0.0000000000
     82224     11198  TIP3      OH2            20.3013273185      -20.9322252767      -38.8483045150  TIP3      10798           0.0000000000
     82225     11198  TIP3      H1             19.6126947241      -20.9198644380      -39.5439168112  TIP3      10798           0.0000000000
     82226     11198  TIP3      H2             20.3014334520      -19.9893259629      -38.6240223647  TIP3      10798           0.0000000000
     82227     11199  TIP3      OH2            22.2288949590      -34.9675178762      -41.3255698765  TIP3      10799           0.0000000000
     82228     11199  TIP3      H1             22.7495182098      -35.5657910793      -41.8605299750  TIP3      10799           0.0000000000
     82229     11199  TIP3      H2             22.8788519060      -34.6234773808      -40.6868360869  TIP3      10799           0.0000000000
     82230     11200  TIP3      OH2            27.2594623649      -34.6714008400      -38.9108784394  TIP3      10800           0.0000000000
     82231     11200  TIP3      H1             27.4772269636      -35.2787542154      -38.1839020745  TIP3      10800           0.0000000000
     82232     11200  TIP3      H2             27.2584311353      -33.8161445388      -38.4177795483  TIP3      10800           0.0000000000
     82233     11201  TIP3      OH2            29.1321232085      -19.5098517063      -40.3968667597  TIP3      10801           0.0000000000
     82234     11201  TIP3      H1             30.0568941731      -19.3455424858      -40.6472120192  TIP3      10801           0.0000000000
     82235     11201  TIP3      H2             28.9430591579      -20.0846671577      -41.1977337074  TIP3      10801           0.0000000000
     82236     11202  TIP3      OH2            35.8883938070      -20.1165091970      -37.7779397845  TIP3      10802           0.0000000000
     82237     11202  TIP3      H1             35.6693696953      -20.8877824634      -38.3602455942  TIP3      10802           0.0000000000
     82238     11202  TIP3      H2             35.8010179134      -19.3767529193      -38.4005635304  TIP3      10802           0.0000000000
     82239     11203  TIP3      OH2            21.4910188963      -36.1077202023      -26.0956705202  TIP3      10803           0.0000000000
     82240     11203  TIP3      H1             21.1425552135      -36.8995462734      -25.6392257990  TIP3      10803           0.0000000000
     82241     11203  TIP3      H2             22.4226402012      -36.1278812809      -25.7608406295  TIP3      10803           0.0000000000
     82242     11204  TIP3      OH2            23.4877213522      -36.7501295047      -24.5202654331  TIP3      10804           0.0000000000
     82243     11204  TIP3      H1             24.3959322580      -37.0631599375      -24.6983619279  TIP3      10804           0.0000000000
     82244     11204  TIP3      H2             23.1262223931      -37.5284094103      -24.0499701730  TIP3      10804           0.0000000000
     82245     11205  TIP3      OH2            22.1182759109      -19.9725022252      -41.8642752639  TIP3      10805           0.0000000000
     82246     11205  TIP3      H1             21.8417511793      -19.6934948631      -40.9816248426  TIP3      10805           0.0000000000
     82247     11205  TIP3      H2             22.8854327354      -20.5203743014      -41.7046154680  TIP3      10805           0.0000000000
     82248     11206  TIP3      OH2            31.9041676229      -37.4383037898      -24.3427816906  TIP3      10806           0.0000000000
     82249     11206  TIP3      H1             31.9940614402      -37.8950096761      -23.4925248422  TIP3      10806           0.0000000000
     82250     11206  TIP3      H2             32.8213108994      -37.4487996341      -24.6854276373  TIP3      10806           0.0000000000
     82251     11207  TIP3      OH2            35.1068908125      -21.3951050554      -25.6462491895  TIP3      10807           0.0000000000
     82252     11207  TIP3      H1             34.3011394722      -21.5457747409      -26.1867398002  TIP3      10807           0.0000000000
     82253     11207  TIP3      H2             35.0031236790      -20.4403892750      -25.4501108633  TIP3      10807           0.0000000000
     82254     11208  TIP3      OH2            49.5233091721      -27.5052332308      -35.6502419358  TIP3      10808           0.0000000000
     82255     11208  TIP3      H1             49.5683671478      -26.5294706851      -35.7455722601  TIP3      10808           0.0000000000
     82256     11208  TIP3      H2             48.8329146617      -27.7522445974      -36.2851690089  TIP3      10808           0.0000000000
     82257     11209  TIP3      OH2            48.4147865369      -28.2339556582      -32.1934646903  TIP3      10809           0.0000000000
     82258     11209  TIP3      H1             48.3877299305      -28.8933059472      -31.4929123966  TIP3      10809           0.0000000000
     82259     11209  TIP3      H2             48.0905083027      -28.7226738959      -32.9686069857  TIP3      10809           0.0000000000
     82260     11210  TIP3      OH2            40.7739849850      -28.5990501354      -30.6344012016  TIP3      10810           0.0000000000
     82261     11210  TIP3      H1             40.8450792598      -29.2554887611      -29.9080694236  TIP3      10810           0.0000000000
     82262     11210  TIP3      H2             41.5051575928      -28.0010398656      -30.4247260475  TIP3      10810           0.0000000000
     82263     11211  TIP3      OH2            52.1221404904      -25.2942032305      -33.9131043542  TIP3      10811           0.0000000000
     82264     11211  TIP3      H1             51.6974396815      -26.0242819569      -33.4409610246  TIP3      10811           0.0000000000
     82265     11211  TIP3      H2             52.1133617730      -24.5858388249      -33.2550429868  TIP3      10811           0.0000000000
     82266     11212  TIP3      OH2            41.7009375775      -24.1452672774      -32.0965731254  TIP3      10812           0.0000000000
     82267     11212  TIP3      H1             41.3625571442      -24.9868228552      -32.4546290321  TIP3      10812           0.0000000000
     82268     11212  TIP3      H2             42.6559888679      -24.3357768334      -32.0560907651  TIP3      10812           0.0000000000
     82269     11213  TIP3      OH2            38.3398411423      -30.5435484050      -36.6699755601  TIP3      10813           0.0000000000
     82270     11213  TIP3      H1             37.8826965474      -29.6760314396      -36.7096383963  TIP3      10813           0.0000000000
     82271     11213  TIP3      H2             37.7609214673      -31.0941045690      -37.2164344456  TIP3      10813           0.0000000000
     82272     11214  TIP3      OH2            39.0309045446      -28.3415611011      -34.5410524769  TIP3      10814           0.0000000000
     82273     11214  TIP3      H1             39.2775306872      -29.1411587383      -34.0417640087  TIP3      10814           0.0000000000
     82274     11214  TIP3      H2             39.7660607446      -28.2546541732      -35.1683386370  TIP3      10814           0.0000000000
     82275     11215  TIP3      OH2            49.2368048801      -20.1592801009      -33.6766518947  TIP3      10815           0.0000000000
     82276     11215  TIP3      H1             49.8613458771      -20.8671251115      -33.9716912733  TIP3      10815           0.0000000000
     82277     11215  TIP3      H2             49.0139032717      -20.4378626519      -32.7937561955  TIP3      10815           0.0000000000
     82278     11216  TIP3      OH2            46.7922110184      -25.8170879559      -31.7721676919  TIP3      10816           0.0000000000
     82279     11216  TIP3      H1             47.1269005517      -26.4850406188      -32.3924580986  TIP3      10816           0.0000000000
     82280     11216  TIP3      H2             47.5641288113      -25.6888139861      -31.1954394741  TIP3      10816           0.0000000000
     82281     11217  TIP3      OH2            55.4386400322      -34.2057232195      -30.9635395546  TIP3      10817           0.0000000000
     82282     11217  TIP3      H1             55.5470047109      -33.5861813628      -30.2077309378  TIP3      10817           0.0000000000
     82283     11217  TIP3      H2             55.9256696741      -33.7482278487      -31.6620782727  TIP3      10817           0.0000000000
     82284     11218  TIP3      OH2            49.9527577988      -31.3844349769      -31.4372826936  TIP3      10818           0.0000000000
     82285     11218  TIP3      H1             50.1030550560      -32.3502138576      -31.4446608118  TIP3      10818           0.0000000000
     82286     11218  TIP3      H2             49.8491792141      -31.2217402310      -32.3976909740  TIP3      10818           0.0000000000
     82287     11219  TIP3      OH2            43.0947563320      -33.3010272275      -34.1881235721  TIP3      10819           0.0000000000
     82288     11219  TIP3      H1             43.1594546840      -32.4475200320      -34.6469637762  TIP3      10819           0.0000000000
     82289     11219  TIP3      H2             42.6557896820      -33.8640685093      -34.8603076755  TIP3      10819           0.0000000000
     82290     11220  TIP3      OH2            50.8180606161      -33.1951425786      -35.8163989329  TIP3      10820           0.0000000000
     82291     11220  TIP3      H1             51.4852034572      -33.5171212716      -35.1662344130  TIP3      10820           0.0000000000
     82292     11220  TIP3      H2             51.3685485621      -32.6543252499      -36.4008825920  TIP3      10820           0.0000000000
     82293     11221  TIP3      OH2            39.7056956818      -30.8905563105      -33.4455983846  TIP3      10821           0.0000000000
     82294     11221  TIP3      H1             40.3804411354      -31.4531379634      -33.0096123909  TIP3      10821           0.0000000000
     82295     11221  TIP3      H2             39.7739417542      -31.1919501576      -34.3641383524  TIP3      10821           0.0000000000
     82296     11222  TIP3      OH2            44.8733646308      -29.3344476589      -34.1905266824  TIP3      10822           0.0000000000
     82297     11222  TIP3      H1             45.5111354001      -29.9032519197      -33.7268887436  TIP3      10822           0.0000000000
     82298     11222  TIP3      H2             44.3133979448      -30.0021706032      -34.6366172229  TIP3      10822           0.0000000000
     82299     11223  TIP3      OH2            55.8838722441      -32.7422818858      -28.7149134760  TIP3      10823           0.0000000000
     82300     11223  TIP3      H1             55.1997108712      -32.0453659473      -28.8152771896  TIP3      10823           0.0000000000
     82301     11223  TIP3      H2             55.8730372880      -32.9055469606      -27.7570676587  TIP3      10823           0.0000000000
     82302     11224  TIP3      OH2            41.9509515457      -34.3982550284      -30.1397797077  TIP3      10824           0.0000000000
     82303     11224  TIP3      H1             41.6928618112      -33.8403331461      -30.8988177862  TIP3      10824           0.0000000000
     82304     11224  TIP3      H2             41.2606257607      -34.1583134463      -29.4723190317  TIP3      10824           0.0000000000
     82305     11225  TIP3      OH2            49.2874699566      -24.9004951315      -36.5861134367  TIP3      10825           0.0000000000
     82306     11225  TIP3      H1             48.9815715369      -25.2032138064      -37.4496362996  TIP3      10825           0.0000000000
     82307     11225  TIP3      H2             48.9598270395      -23.9757245751      -36.5489612607  TIP3      10825           0.0000000000
     82308     11226  TIP3      OH2            44.4939985446      -26.7415431637      -29.8695805873  TIP3      10826           0.0000000000
     82309     11226  TIP3      H1             43.7618290105      -26.1048587858      -29.7189371145  TIP3      10826           0.0000000000
     82310     11226  TIP3      H2             45.1990470179      -26.1508078456      -30.1730230614  TIP3      10826           0.0000000000
     82311     11227  TIP3      OH2            52.6092796132      -33.8789776862      -33.8296481974  TIP3      10827           0.0000000000
     82312     11227  TIP3      H1             52.3915649878      -34.6436085592      -33.2860897465  TIP3      10827           0.0000000000
     82313     11227  TIP3      H2             53.2730472759      -33.4235518170      -33.2928177480  TIP3      10827           0.0000000000
     82314     11228  TIP3      OH2            41.5089161322      -32.5169427176      -32.1532866134  TIP3      10828           0.0000000000
     82315     11228  TIP3      H1             42.1522551088      -31.8549486244      -31.8073891304  TIP3      10828           0.0000000000
     82316     11228  TIP3      H2             42.0461615857      -32.9652288783      -32.8489767284  TIP3      10828           0.0000000000
     82317     11229  TIP3      OH2            42.9216808610      -24.7619298194      -29.0752907206  TIP3      10829           0.0000000000
     82318     11229  TIP3      H1             42.8875975290      -23.8529635175      -29.4322678393  TIP3      10829           0.0000000000
     82319     11229  TIP3      H2             42.0370316756      -24.8280590428      -28.6330407351  TIP3      10829           0.0000000000
     82320     11230  TIP3      OH2            39.0098834606      -25.1103184047      -38.2813663482  TIP3      10830           0.0000000000
     82321     11230  TIP3      H1             38.7612022135      -24.8247949793      -39.1790175782  TIP3      10830           0.0000000000
     82322     11230  TIP3      H2             39.0709221043      -24.2548069856      -37.8017800884  TIP3      10830           0.0000000000
     82323     11231  TIP3      OH2            52.6328141254      -23.5966588815      -31.6262181064  TIP3      10831           0.0000000000
     82324     11231  TIP3      H1             51.6702087520      -23.4763498521      -31.4467489127  TIP3      10831           0.0000000000
     82325     11231  TIP3      H2             52.9821905764      -22.7101713903      -31.8255785043  TIP3      10831           0.0000000000
     82326     11232  TIP3      OH2            52.9556714696      -35.1732444196      -30.1421082546  TIP3      10832           0.0000000000
     82327     11232  TIP3      H1             52.2145278820      -34.5538380200      -30.2040844177  TIP3      10832           0.0000000000
     82328     11232  TIP3      H2             53.6461629073      -34.7495369211      -30.6774989824  TIP3      10832           0.0000000000
     82329     11233  TIP3      OH2            45.9424087181      -37.0693984134      -32.6864229810  TIP3      10833           0.0000000000
     82330     11233  TIP3      H1             45.8133365753      -38.0363212675      -32.7422847924  TIP3      10833           0.0000000000
     82331     11233  TIP3      H2             45.0658668056      -36.7540739819      -32.3932393091  TIP3      10833           0.0000000000
     82332     11234  TIP3      OH2            50.9108103427      -21.6822300296      -34.9089595856  TIP3      10834           0.0000000000
     82333     11234  TIP3      H1             51.3215643493      -22.3918392478      -35.4476873472  TIP3      10834           0.0000000000
     82334     11234  TIP3      H2             51.2558328896      -20.8783234666      -35.3584256413  TIP3      10834           0.0000000000
     82335     11235  TIP3      OH2            52.0693222572      -23.7524948552      -36.4301168478  TIP3      10835           0.0000000000
     82336     11235  TIP3      H1             51.7976583753      -24.4579153319      -37.0414670985  TIP3      10835           0.0000000000
     82337     11235  TIP3      H2             52.1234136406      -24.2396676692      -35.5865291777  TIP3      10835           0.0000000000
     82338     11236  TIP3      OH2            53.7196593373      -25.1795583169      -27.9492952011  TIP3      10836           0.0000000000
     82339     11236  TIP3      H1             53.8728983780      -25.8209973581      -28.6783614897  TIP3      10836           0.0000000000
     82340     11236  TIP3      H2             53.9331940936      -24.3247685664      -28.3341227359  TIP3      10836           0.0000000000
     82341     11237  TIP3      OH2            48.2125327024      -28.2580678208      -38.1717475431  TIP3      10837           0.0000000000
     82342     11237  TIP3      H1             47.4977969389      -27.7012569391      -38.5418245841  TIP3      10837           0.0000000000
     82343     11237  TIP3      H2             48.9023092093      -28.1766580195      -38.8455002101  TIP3      10837           0.0000000000
     82344     11238  TIP3      OH2            48.2743060233      -29.7516824803      -41.1339391865  TIP3      10838           0.0000000000
     82345     11238  TIP3      H1             48.9640106117      -29.7704790037      -40.4657326491  TIP3      10838           0.0000000000
     82346     11238  TIP3      H2             48.5615901076      -30.4143283318      -41.7752040867  TIP3      10838           0.0000000000
     82347     11239  TIP3      OH2            55.5553780391      -28.8891798321      -29.9003293251  TIP3      10839           0.0000000000
     82348     11239  TIP3      H1             54.9282161732      -28.1474461336      -29.8099207943  TIP3      10839           0.0000000000
     82349     11239  TIP3      H2             56.0525491743      -28.6294240049      -30.7007202889  TIP3      10839           0.0000000000
     82350     11240  TIP3      OH2            51.6189320266      -28.0521589133      -37.2628839027  TIP3      10840           0.0000000000
     82351     11240  TIP3      H1             50.8896770721      -27.8041407283      -36.6365147454  TIP3      10840           0.0000000000
     82352     11240  TIP3      H2             52.0959729023      -28.7323780532      -36.7427276399  TIP3      10840           0.0000000000
     82353     11241  TIP3      OH2            51.5537665524      -29.8892204046      -28.1456332740  TIP3      10841           0.0000000000
     82354     11241  TIP3      H1             51.5813768622      -29.0891981738      -27.5905022382  TIP3      10841           0.0000000000
     82355     11241  TIP3      H2             50.9255925811      -29.5830801281      -28.8374967932  TIP3      10841           0.0000000000
     82356     11242  TIP3      OH2            43.2669123464      -27.3883702939      -35.3364296088  TIP3      10842           0.0000000000
     82357     11242  TIP3      H1             42.9384575273      -27.7855737997      -36.1770323072  TIP3      10842           0.0000000000
     82358     11242  TIP3      H2             43.8705724889      -28.0894030729      -34.9984353120  TIP3      10842           0.0000000000
     82359     11243  TIP3      OH2            44.6061772315      -23.9811004016      -32.6567209627  TIP3      10843           0.0000000000
     82360     11243  TIP3      H1             44.5567127321      -24.5523928920      -33.4337802704  TIP3      10843           0.0000000000
     82361     11243  TIP3      H2             45.3696806008      -24.3598508650      -32.1849115212  TIP3      10843           0.0000000000
     82362     11244  TIP3      OH2            43.6135458939      -28.6489547083      -31.6973898251  TIP3      10844           0.0000000000
     82363     11244  TIP3      H1             44.1860922784      -28.5248324601      -32.4778371838  TIP3      10844           0.0000000000
     82364     11244  TIP3      H2             43.9658776471      -27.9899481067      -31.0665152713  TIP3      10844           0.0000000000
     82365     11245  TIP3      OH2            50.0357459515      -23.0825763521      -30.9592952247  TIP3      10845           0.0000000000
     82366     11245  TIP3      H1             49.6670894201      -22.4734363960      -30.3158025369  TIP3      10845           0.0000000000
     82367     11245  TIP3      H2             49.7371187294      -23.9570722184      -30.5586202703  TIP3      10845           0.0000000000
     82368     11246  TIP3      OH2            44.5388313821      -24.2355009421      -26.9865179722  TIP3      10846           0.0000000000
     82369     11246  TIP3      H1             44.1768068484      -23.4601061292      -26.5168242301  TIP3      10846           0.0000000000
     82370     11246  TIP3      H2             43.8575184990      -24.4048008156      -27.6815001487  TIP3      10846           0.0000000000
     82371     11247  TIP3      OH2            50.4879825278      -28.8914757588      -39.5404303420  TIP3      10847           0.0000000000
     82372     11247  TIP3      H1             51.0425966135      -28.6959695558      -38.7364897253  TIP3      10847           0.0000000000
     82373     11247  TIP3      H2             50.8058635733      -28.2911236671      -40.2123916887  TIP3      10847           0.0000000000
     82374     11248  TIP3      OH2            41.4642632332      -28.0555706489      -27.7889826983  TIP3      10848           0.0000000000
     82375     11248  TIP3      H1             41.5063348223      -27.3886926518      -27.0698475463  TIP3      10848           0.0000000000
     82376     11248  TIP3      H2             40.5425149619      -27.9463850358      -28.0713632501  TIP3      10848           0.0000000000
     82377     11249  TIP3      OH2            48.2251947835      -22.1440464296      -36.1074016859  TIP3      10849           0.0000000000
     82378     11249  TIP3      H1             48.6818292280      -21.8331300591      -35.3220857201  TIP3      10849           0.0000000000
     82379     11249  TIP3      H2             47.6652527259      -21.3945694643      -36.3469103259  TIP3      10849           0.0000000000
     82380     11250  TIP3      OH2            42.7719523095      -22.1759770117      -26.2327072010  TIP3      10850           0.0000000000
     82381     11250  TIP3      H1             42.7486851388      -22.2981551485      -27.1942932181  TIP3      10850           0.0000000000
     82382     11250  TIP3      H2             41.8376846185      -22.2951306661      -25.9845376513  TIP3      10850           0.0000000000
     82383     11251  TIP3      OH2            54.2205367548      -37.1326176067      -39.7109484669  TIP3      10851           0.0000000000
     82384     11251  TIP3      H1             53.2787275028      -36.9930882144      -39.4365636846  TIP3      10851           0.0000000000
     82385     11251  TIP3      H2             54.4569193992      -36.2838069271      -40.1175857882  TIP3      10851           0.0000000000
     82386     11252  TIP3      OH2            42.2549018880      -28.3544410513      -37.7348460901  TIP3      10852           0.0000000000
     82387     11252  TIP3      H1             41.9592300803      -27.5751763310      -38.2521296928  TIP3      10852           0.0000000000
     82388     11252  TIP3      H2             41.5818795000      -29.0104562499      -37.9327102236  TIP3      10852           0.0000000000
     82389     11253  TIP3      OH2            55.3410283478      -22.7549136749      -41.3282667360  TIP3      10853           0.0000000000
     82390     11253  TIP3      H1             55.4676413242      -21.8054478561      -41.1847036735  TIP3      10853           0.0000000000
     82391     11253  TIP3      H2             56.2729458380      -23.0576612409      -41.3939099237  TIP3      10853           0.0000000000
     82392     11254  TIP3      OH2            38.3430405344      -25.9528364967      -28.8918622395  TIP3      10854           0.0000000000
     82393     11254  TIP3      H1             37.8587824227      -26.0201673443      -29.7337272888  TIP3      10854           0.0000000000
     82394     11254  TIP3      H2             38.3702757285      -26.8909764433      -28.6263689611  TIP3      10854           0.0000000000
     82395     11255  TIP3      OH2            38.0921568471      -23.2026131653      -32.0581558834  TIP3      10855           0.0000000000
     82396     11255  TIP3      H1             39.0484321010      -23.3315795824      -32.0704929262  TIP3      10855           0.0000000000
     82397     11255  TIP3      H2             37.9973643345      -22.4018932246      -31.5256106263  TIP3      10855           0.0000000000
     82398     11256  TIP3      OH2            47.2881605861      -22.9639525059      -27.5126828977  TIP3      10856           0.0000000000
     82399     11256  TIP3      H1             47.3580049134      -22.1220413956      -27.0042818487  TIP3      10856           0.0000000000
     82400     11256  TIP3      H2             46.4102768986      -23.2991506936      -27.2419730780  TIP3      10856           0.0000000000
     82401     11257  TIP3      OH2            47.6954522436      -19.2074319127      -37.6892735929  TIP3      10857           0.0000000000
     82402     11257  TIP3      H1             47.6236839247      -19.3001289592      -38.6555528755  TIP3      10857           0.0000000000
     82403     11257  TIP3      H2             47.7328287155      -18.2400657696      -37.5611911665  TIP3      10857           0.0000000000
     82404     11258  TIP3      OH2            41.3514624499      -20.3474784526      -35.9000755088  TIP3      10858           0.0000000000
     82405     11258  TIP3      H1             41.4991919258      -20.7532676156      -35.0163567033  TIP3      10858           0.0000000000
     82406     11258  TIP3      H2             40.5036328316      -20.7591809416      -36.1383204098  TIP3      10858           0.0000000000
     82407     11259  TIP3      OH2            50.7710896341      -20.0132151179      -40.7170250056  TIP3      10859           0.0000000000
     82408     11259  TIP3      H1             51.1927492425      -20.7834824463      -41.1555052772  TIP3      10859           0.0000000000
     82409     11259  TIP3      H2             50.8071032633      -20.2901516721      -39.7785178804  TIP3      10859           0.0000000000
     82410     11260  TIP3      OH2            50.4715853691      -20.0857484010      -37.9430162469  TIP3      10860           0.0000000000
     82411     11260  TIP3      H1             49.5157356673      -20.0073695967      -37.7546319249  TIP3      10860           0.0000000000
     82412     11260  TIP3      H2             50.7366316929      -20.8134423268      -37.3605997748  TIP3      10860           0.0000000000
     82413     11261  TIP3      OH2            53.4641408685      -31.0310874975      -25.8937350419  TIP3      10861           0.0000000000
     82414     11261  TIP3      H1             53.0157262994      -30.5640212056      -26.6141375255  TIP3      10861           0.0000000000
     82415     11261  TIP3      H2             53.4929708012      -31.9493874712      -26.2025076712  TIP3      10861           0.0000000000
     82416     11262  TIP3      OH2            40.6016164910      -24.6327946199      -27.8969431375  TIP3      10862           0.0000000000
     82417     11262  TIP3      H1             40.8269740448      -25.0105582843      -27.0212574780  TIP3      10862           0.0000000000
     82418     11262  TIP3      H2             39.7366990879      -25.0342772067      -28.1120585417  TIP3      10862           0.0000000000
     82419     11263  TIP3      OH2            43.2599210511      -36.1779841445      -31.9146424786  TIP3      10863           0.0000000000
     82420     11263  TIP3      H1             42.3603194027      -36.2699121569      -32.3051203136  TIP3      10863           0.0000000000
     82421     11263  TIP3      H2             43.1771184283      -35.3226722424      -31.4655819476  TIP3      10863           0.0000000000
     82422     11264  TIP3      OH2            47.9090666767      -36.4659988329      -28.5488848043  TIP3      10864           0.0000000000
     82423     11264  TIP3      H1             48.3099424674      -36.8887639880      -27.7681810957  TIP3      10864           0.0000000000
     82424     11264  TIP3      H2             46.9425221402      -36.6283497356      -28.4123079462  TIP3      10864           0.0000000000
     82425     11265  TIP3      OH2            51.2070847678      -32.6825834747      -27.6876417778  TIP3      10865           0.0000000000
     82426     11265  TIP3      H1             50.6720111308      -32.8429025338      -26.8747509675  TIP3      10865           0.0000000000
     82427     11265  TIP3      H2             51.0425579549      -31.7559047073      -27.9151679042  TIP3      10865           0.0000000000
     82428     11266  TIP3      OH2            52.0275796341      -27.3928438630      -42.1481486297  TIP3      10866           0.0000000000
     82429     11266  TIP3      H1             52.0636236955      -28.0077266213      -42.9076941430  TIP3      10866           0.0000000000
     82430     11266  TIP3      H2             52.9049692702      -27.3610013358      -41.7507131872  TIP3      10866           0.0000000000
     82431     11267  TIP3      OH2            47.5659420153      -33.9457593261      -41.2406318404  TIP3      10867           0.0000000000
     82432     11267  TIP3      H1             47.2741829170      -33.9508388486      -40.3098291457  TIP3      10867           0.0000000000
     82433     11267  TIP3      H2             47.2871620403      -34.8189428386      -41.5318819826  TIP3      10867           0.0000000000
     82434     11268  TIP3      OH2            43.3522307657      -31.2131369191      -30.7563302552  TIP3      10868           0.0000000000
     82435     11268  TIP3      H1             42.6567469825      -31.2336497426      -30.0742342366  TIP3      10868           0.0000000000
     82436     11268  TIP3      H2             43.3434874233      -30.2756940891      -31.0509958310  TIP3      10868           0.0000000000
     82437     11269  TIP3      OH2            43.3291246677      -31.0146687007      -35.8541851357  TIP3      10869           0.0000000000
     82438     11269  TIP3      H1             42.4076833690      -31.3305990271      -35.9588509135  TIP3      10869           0.0000000000
     82439     11269  TIP3      H2             43.7443277169      -31.3687731312      -36.6636435979  TIP3      10869           0.0000000000
     82440     11270  TIP3      OH2            48.8564438449      -30.5756987078      -37.0593335999  TIP3      10870           0.0000000000
     82441     11270  TIP3      H1             48.4370122009      -29.7472005884      -37.3743634878  TIP3      10870           0.0000000000
     82442     11270  TIP3      H2             49.5607094887      -30.7282119955      -37.7053842446  TIP3      10870           0.0000000000
     82443     11271  TIP3      OH2            47.9487667503      -30.3720545061      -25.6012595295  TIP3      10871           0.0000000000
     82444     11271  TIP3      H1             47.3840409498      -31.1191140181      -25.2800240708  TIP3      10871           0.0000000000
     82445     11271  TIP3      H2             48.7717056735      -30.5128081508      -25.1080708749  TIP3      10871           0.0000000000
     82446     11272  TIP3      OH2            49.8713726016      -31.1055457392      -34.2267039401  TIP3      10872           0.0000000000
     82447     11272  TIP3      H1             49.6407228592      -30.5251911601      -34.9722014521  TIP3      10872           0.0000000000
     82448     11272  TIP3      H2             50.0180384568      -31.9523528699      -34.6958947504  TIP3      10872           0.0000000000
     82449     11273  TIP3      OH2            41.0409801460      -30.9045410573      -28.9673143093  TIP3      10873           0.0000000000
     82450     11273  TIP3      H1             41.0460356144      -30.5057670683      -28.0790447959  TIP3      10873           0.0000000000
     82451     11273  TIP3      H2             40.5661207267      -31.7361050674      -28.8222941980  TIP3      10873           0.0000000000
     82452     11274  TIP3      OH2            44.5383396657      -33.3415681591      -41.8998097907  TIP3      10874           0.0000000000
     82453     11274  TIP3      H1             44.0052274048      -33.9597342369      -41.3642709254  TIP3      10874           0.0000000000
     82454     11274  TIP3      H2             43.8602588011      -33.0641585217      -42.5345567791  TIP3      10874           0.0000000000
     82455     11275  TIP3      OH2            37.6604937181      -33.7890543300      -35.0619496810  TIP3      10875           0.0000000000
     82456     11275  TIP3      H1             38.3232538693      -33.8269426099      -34.3453257843  TIP3      10875           0.0000000000
     82457     11275  TIP3      H2             38.1216162012      -34.2060041544      -35.8136778061  TIP3      10875           0.0000000000
     82458     11276  TIP3      OH2            38.9547132605      -33.0733001131      -39.6524096577  TIP3      10876           0.0000000000
     82459     11276  TIP3      H1             39.4291754089      -32.4578327304      -40.2543677042  TIP3      10876           0.0000000000
     82460     11276  TIP3      H2             38.2402696380      -32.4840434594      -39.3232485924  TIP3      10876           0.0000000000
     82461     11277  TIP3      OH2            49.1085335236      -29.4819225327      -29.6136219114  TIP3      10877           0.0000000000
     82462     11277  TIP3      H1             49.4547435173      -30.1491297944      -30.2357889973  TIP3      10877           0.0000000000
     82463     11277  TIP3      H2             48.6594182497      -30.0276615000      -28.9439464780  TIP3      10877           0.0000000000
     82464     11278  TIP3      OH2            45.8983733927      -33.5464543035      -34.8162335400  TIP3      10878           0.0000000000
     82465     11278  TIP3      H1             44.9647043213      -33.5098025295      -34.5133643465  TIP3      10878           0.0000000000
     82466     11278  TIP3      H2             46.3933032627      -33.6455942017      -33.9889913417  TIP3      10878           0.0000000000
     82467     11279  TIP3      OH2            40.7209453996      -31.9455299264      -35.9600585267  TIP3      10879           0.0000000000
     82468     11279  TIP3      H1             39.8224731212      -31.8266881424      -36.3294044462  TIP3      10879           0.0000000000
     82469     11279  TIP3      H2             41.0100733321      -32.7902568213      -36.3392085461  TIP3      10879           0.0000000000
     82470     11280  TIP3      OH2            44.3598075670      -31.9248923201      -38.3162402924  TIP3      10880           0.0000000000
     82471     11280  TIP3      H1             45.3119405685      -31.8071954701      -38.1405611767  TIP3      10880           0.0000000000
     82472     11280  TIP3      H2             44.1386033028      -31.2563887516      -38.9867450191  TIP3      10880           0.0000000000
     82473     11281  TIP3      OH2            50.3075512131      -34.3091135966      -31.5560353541  TIP3      10881           0.0000000000
     82474     11281  TIP3      H1             49.6138378227      -34.2100511523      -30.8690902403  TIP3      10881           0.0000000000
     82475     11281  TIP3      H2             49.8024541146      -34.5036030056      -32.3570398077  TIP3      10881           0.0000000000
     82476     11282  TIP3      OH2            43.0462863790      -30.7448647405      -40.7335697787  TIP3      10882           0.0000000000
     82477     11282  TIP3      H1             42.4992990290      -31.1123172056      -41.4501409543  TIP3      10882           0.0000000000
     82478     11282  TIP3      H2             43.8780160064      -30.5435714444      -41.1906603463  TIP3      10882           0.0000000000
     82479     11283  TIP3      OH2            53.5457488913      -18.6647104342      -25.2652717427  TIP3      10883           0.0000000000
     82480     11283  TIP3      H1             53.7915666036      -18.2422637254      -26.1062424398  TIP3      10883           0.0000000000
     82481     11283  TIP3      H2             54.2262046985      -18.3188001586      -24.6662943188  TIP3      10883           0.0000000000
     82482     11284  TIP3      OH2            41.1912967751      -26.1807818277      -25.6754438317  TIP3      10884           0.0000000000
     82483     11284  TIP3      H1             41.9124518575      -25.9256863303      -25.0783343645  TIP3      10884           0.0000000000
     82484     11284  TIP3      H2             40.3980521184      -26.0173836460      -25.1206508542  TIP3      10884           0.0000000000
     82485     11285  TIP3      OH2            47.1953564322      -30.7679969081      -32.9199546715  TIP3      10885           0.0000000000
     82486     11285  TIP3      H1             47.7784972612      -31.3150293229      -33.4619203877  TIP3      10885           0.0000000000
     82487     11285  TIP3      H2             47.0551735376      -31.3060405747      -32.1300382299  TIP3      10885           0.0000000000
     82488     11286  TIP3      OH2            42.2042259707      -34.6217079190      -36.4887459956  TIP3      10886           0.0000000000
     82489     11286  TIP3      H1             41.8954611766      -35.5463338158      -36.5234959973  TIP3      10886           0.0000000000
     82490     11286  TIP3      H2             42.9915211515      -34.6564960132      -37.0472743250  TIP3      10886           0.0000000000
     82491     11287  TIP3      OH2            45.8336886072      -32.4156121633      -30.5111459424  TIP3      10887           0.0000000000
     82492     11287  TIP3      H1             44.9967641068      -31.9238107013      -30.4009486097  TIP3      10887           0.0000000000
     82493     11287  TIP3      H2             46.3708306403      -32.0969256757      -29.7582291096  TIP3      10887           0.0000000000
     82494     11288  TIP3      OH2            46.4090631073      -26.1887511309      -38.8129361224  TIP3      10888           0.0000000000
     82495     11288  TIP3      H1             45.6240158994      -26.6856661912      -39.1367196594  TIP3      10888           0.0000000000
     82496     11288  TIP3      H2             46.2229565003      -26.1211113263      -37.8564006414  TIP3      10888           0.0000000000
     82497     11289  TIP3      OH2            53.5657878817      -27.0283643326      -30.0133429966  TIP3      10889           0.0000000000
     82498     11289  TIP3      H1             54.1724740725      -26.5662608964      -30.6093994362  TIP3      10889           0.0000000000
     82499     11289  TIP3      H2             52.7144867237      -26.9475024668      -30.4954765628  TIP3      10889           0.0000000000
     82500     11290  TIP3      OH2            50.2878961056      -33.3776697236      -40.6375116882  TIP3      10890           0.0000000000
     82501     11290  TIP3      H1             49.3308399410      -33.2594330004      -40.7781886986  TIP3      10890           0.0000000000
     82502     11290  TIP3      H2             50.5674169517      -32.5147334361      -40.3033357158  TIP3      10890           0.0000000000
     82503     11291  TIP3      OH2            47.9031335105      -25.9750610329      -27.5817958381  TIP3      10891           0.0000000000
     82504     11291  TIP3      H1             47.5536715458      -26.3710191321      -26.7771231026  TIP3      10891           0.0000000000
     82505     11291  TIP3      H2             47.6827385845      -25.0433822588      -27.4933991207  TIP3      10891           0.0000000000
     82506     11292  TIP3      OH2            51.0053219665      -31.4876993513      -38.9669054195  TIP3      10892           0.0000000000
     82507     11292  TIP3      H1             51.9058500994      -31.6407297517      -38.6107258772  TIP3      10892           0.0000000000
     82508     11292  TIP3      H2             51.0473764463      -30.6936392607      -39.4817437334  TIP3      10892           0.0000000000
     82509     11293  TIP3      OH2            41.5078099406      -26.8505433227      -33.0288307193  TIP3      10893           0.0000000000
     82510     11293  TIP3      H1             42.2379482367      -26.8931455604      -33.6751698655  TIP3      10893           0.0000000000
     82511     11293  TIP3      H2             41.5851825655      -27.7006943399      -32.5631939854  TIP3      10893           0.0000000000
     82512     11294  TIP3      OH2            48.5294757806      -24.7364580208      -39.7805870894  TIP3      10894           0.0000000000
     82513     11294  TIP3      H1             48.1910462289      -23.8951725353      -39.4135996047  TIP3      10894           0.0000000000
     82514     11294  TIP3      H2             47.7816631826      -25.3434568641      -39.5873982239  TIP3      10894           0.0000000000
     82515     11295  TIP3      OH2            38.5092798036      -28.4106866370      -27.7475983200  TIP3      10895           0.0000000000
     82516     11295  TIP3      H1             38.7198739334      -28.8445780798      -26.8948357234  TIP3      10895           0.0000000000
     82517     11295  TIP3      H2             37.8991873703      -29.0381779780      -28.1694607664  TIP3      10895           0.0000000000
     82518     11296  TIP3      OH2            45.5276873283      -28.8625264151      -25.5399387538  TIP3      10896           0.0000000000
     82519     11296  TIP3      H1             45.2249646734      -29.1042706518      -26.4271809599  TIP3      10896           0.0000000000
     82520     11296  TIP3      H2             46.4615642588      -29.1439814158      -25.5554577341  TIP3      10896           0.0000000000
     82521     11297  TIP3      OH2            50.1877395144      -23.5075202794      -27.6563148771  TIP3      10897           0.0000000000
     82522     11297  TIP3      H1             49.2507994681      -23.3469790236      -27.8689407804  TIP3      10897           0.0000000000
     82523     11297  TIP3      H2             50.1766701527      -23.2549938398      -26.7039978404  TIP3      10897           0.0000000000
     82524     11298  TIP3      OH2            55.7973436307      -31.2693168664      -39.2075458577  TIP3      10898           0.0000000000
     82525     11298  TIP3      H1             55.3124770157      -31.6623678371      -39.9523980290  TIP3      10898           0.0000000000
     82526     11298  TIP3      H2             55.9863604541      -30.3696115719      -39.5477350112  TIP3      10898           0.0000000000
     82527     11299  TIP3      OH2            55.8539631601      -25.5159668527      -26.3987081869  TIP3      10899           0.0000000000
     82528     11299  TIP3      H1             54.9865969548      -25.2515429231      -26.7880600314  TIP3      10899           0.0000000000
     82529     11299  TIP3      H2             56.4220731645      -25.4950106697      -27.1969958985  TIP3      10899           0.0000000000
     82530     11300  TIP3      OH2            54.1813746852      -22.5070122863      -38.8140430109  TIP3      10900           0.0000000000
     82531     11300  TIP3      H1             53.7981180192      -23.3292548988      -38.4913267240  TIP3      10900           0.0000000000
     82532     11300  TIP3      H2             54.4630390156      -22.7037200599      -39.7254375635  TIP3      10900           0.0000000000
     82533     11301  TIP3      OH2            51.3492347520      -27.6852309647      -31.7511956687  TIP3      10901           0.0000000000
     82534     11301  TIP3      H1             50.4089435152      -27.9233237161      -31.8216624475  TIP3      10901           0.0000000000
     82535     11301  TIP3      H2             51.7878589587      -28.4696357518      -32.1301339319  TIP3      10901           0.0000000000
     82536     11302  TIP3      OH2            43.8885518241      -23.3694276585      -35.6355411407  TIP3      10902           0.0000000000
     82537     11302  TIP3      H1             44.4022354039      -22.5728030849      -35.8423629476  TIP3      10902           0.0000000000
     82538     11302  TIP3      H2             43.0057711792      -23.1309216747      -35.9518472602  TIP3      10902           0.0000000000
     82539     11303  TIP3      OH2            39.6306669444      -28.5089047270      -41.0750657910  TIP3      10903           0.0000000000
     82540     11303  TIP3      H1             40.2552486994      -27.8754447534      -40.6774173129  TIP3      10903           0.0000000000
     82541     11303  TIP3      H2             38.7635968087      -28.1960035990      -40.7763098887  TIP3      10903           0.0000000000
     82542     11304  TIP3      OH2            45.3227516348      -25.7051572834      -36.0852507343  TIP3      10904           0.0000000000
     82543     11304  TIP3      H1             45.0387877402      -24.7731089640      -36.0195878102  TIP3      10904           0.0000000000
     82544     11304  TIP3      H2             44.5694598228      -26.1688678607      -35.6671803297  TIP3      10904           0.0000000000
     82545     11305  TIP3      OH2            45.7827580347      -21.5365290377      -29.7340505384  TIP3      10905           0.0000000000
     82546     11305  TIP3      H1             46.1990880823      -20.6976827967      -29.9877622347  TIP3      10905           0.0000000000
     82547     11305  TIP3      H2             46.3674757439      -21.8453261752      -29.0165148913  TIP3      10905           0.0000000000
     82548     11306  TIP3      OH2            43.9949917755      -20.6921890548      -36.5487792912  TIP3      10906           0.0000000000
     82549     11306  TIP3      H1             43.0261431416      -20.5645681668      -36.4571631505  TIP3      10906           0.0000000000
     82550     11306  TIP3      H2             44.3446078878      -19.8547049857      -36.1925409837  TIP3      10906           0.0000000000
     82551     11307  TIP3      OH2            49.3537959236      -25.4577460621      -30.0621546715  TIP3      10907           0.0000000000
     82552     11307  TIP3      H1             48.9411456758      -25.6932339591      -29.2037969597  TIP3      10907           0.0000000000
     82553     11307  TIP3      H2             49.9375352573      -26.2137743116      -30.2408622084  TIP3      10907           0.0000000000
     82554     11308  TIP3      OH2            51.5680037112      -24.5207356267      -40.9789447870  TIP3      10908           0.0000000000
     82555     11308  TIP3      H1             51.9068996000      -24.9029359130      -40.1484900184  TIP3      10908           0.0000000000
     82556     11308  TIP3      H2             50.6104066742      -24.6156659628      -40.8832529729  TIP3      10908           0.0000000000
     82557     11309  TIP3      OH2            52.0667581503      -20.9336383071      -27.5995164356  TIP3      10909           0.0000000000
     82558     11309  TIP3      H1             51.3906254379      -21.4443193467      -28.0635512994  TIP3      10909           0.0000000000
     82559     11309  TIP3      H2             52.2982033102      -20.2057948223      -28.2078860432  TIP3      10909           0.0000000000
     82560     11310  TIP3      OH2            56.0657215485      -20.0559730740      -40.7705505044  TIP3      10910           0.0000000000
     82561     11310  TIP3      H1             56.8119360156      -19.4419400987      -40.9257892347  TIP3      10910           0.0000000000
     82562     11310  TIP3      H2             55.3650597153      -19.4527768835      -40.4472979466  TIP3      10910           0.0000000000
     82563     11311  TIP3      OH2            40.1613091883      -33.6683997863      -28.1901899539  TIP3      10911           0.0000000000
     82564     11311  TIP3      H1             39.2506636948      -33.3268063441      -28.2346027514  TIP3      10911           0.0000000000
     82565     11311  TIP3      H2             40.0467978599      -34.5247038423      -27.7487702714  TIP3      10911           0.0000000000
     82566     11312  TIP3      OH2            52.4221519947      -25.8692456699      -38.7823117558  TIP3      10912           0.0000000000
     82567     11312  TIP3      H1             52.1591039617      -26.5899714835      -38.1813149431  TIP3      10912           0.0000000000
     82568     11312  TIP3      H2             53.3563938848      -25.7321733524      -38.5307259803  TIP3      10912           0.0000000000
     82569     11313  TIP3      OH2            39.7954845730      -21.8668038334      -29.7606255510  TIP3      10913           0.0000000000
     82570     11313  TIP3      H1             40.0396906352      -22.8067418556      -29.7657207741  TIP3      10913           0.0000000000
     82571     11313  TIP3      H2             40.0450672185      -21.5975242068      -28.8676752503  TIP3      10913           0.0000000000
     82572     11314  TIP3      OH2            44.5711955033      -23.8307504695      -40.0769828299  TIP3      10914           0.0000000000
     82573     11314  TIP3      H1             44.7602051177      -24.3643120424      -39.2954765407  TIP3      10914           0.0000000000
     82574     11314  TIP3      H2             44.5967947906      -22.9124652971      -39.7502614271  TIP3      10914           0.0000000000
     82575     11315  TIP3      OH2            41.0352320550      -26.5898848402      -39.5858476590  TIP3      10915           0.0000000000
     82576     11315  TIP3      H1             40.3585363367      -26.2075463970      -38.9931201928  TIP3      10915           0.0000000000
     82577     11315  TIP3      H2             41.5807285074      -25.8188443004      -39.8167519254  TIP3      10915           0.0000000000
     82578     11316  TIP3      OH2            48.8843515816      -33.9113327453      -29.2792105329  TIP3      10916           0.0000000000
     82579     11316  TIP3      H1             49.5903226872      -33.8519933120      -28.6213416203  TIP3      10916           0.0000000000
     82580     11316  TIP3      H2             48.5034097300      -34.7933732204      -29.0959459405  TIP3      10916           0.0000000000
     82581     11317  TIP3      OH2            49.6500467276      -34.3113296594      -38.1650983252  TIP3      10917           0.0000000000
     82582     11317  TIP3      H1             49.8821276434      -33.8272007869      -38.9850434183  TIP3      10917           0.0000000000
     82583     11317  TIP3      H2             50.2254648149      -33.8819604042      -37.5202967751  TIP3      10917           0.0000000000
     82584     11318  TIP3      OH2            47.3333805952      -22.1586808988      -39.3277377778  TIP3      10918           0.0000000000
     82585     11318  TIP3      H1             46.5135798077      -21.6402713813      -39.2740709349  TIP3      10918           0.0000000000
     82586     11318  TIP3      H2             47.8670232464      -21.6563028629      -39.9653600277  TIP3      10918           0.0000000000
     82587     11319  TIP3      OH2            46.8625084226      -32.5617169969      -37.3485858499  TIP3      10919           0.0000000000
     82588     11319  TIP3      H1             47.6731061485      -32.0207655797      -37.3112746877  TIP3      10919           0.0000000000
     82589     11319  TIP3      H2             46.6129375289      -32.6961972316      -36.4214261960  TIP3      10919           0.0000000000
     82590     11320  TIP3      OH2            47.4082011131      -31.5620252845      -28.1715882475  TIP3      10920           0.0000000000
     82591     11320  TIP3      H1             47.5097274430      -30.9819176062      -27.3947631060  TIP3      10920           0.0000000000
     82592     11320  TIP3      H2             48.0710066867      -32.2524509568      -28.0546227188  TIP3      10920           0.0000000000
     82593     11321  TIP3      OH2            47.7320753987      -35.5051683843      -36.4379539194  TIP3      10921           0.0000000000
     82594     11321  TIP3      H1             47.4072299180      -34.8557092355      -35.7813216580  TIP3      10921           0.0000000000
     82595     11321  TIP3      H2             48.4171641525      -34.9528484553      -36.8935364678  TIP3      10921           0.0000000000
     82596     11322  TIP3      OH2            44.6786042810      -21.1210562398      -39.3349498267  TIP3      10922           0.0000000000
     82597     11322  TIP3      H1             44.8449940250      -20.2947571141      -39.8343531638  TIP3      10922           0.0000000000
     82598     11322  TIP3      H2             44.4663619286      -20.7848057472      -38.4396533873  TIP3      10922           0.0000000000
     82599     11323  TIP3      OH2            43.3968910901      -34.4317966240      -39.7301773662  TIP3      10923           0.0000000000
     82600     11323  TIP3      H1             43.3247459495      -33.5154132341      -39.3766613777  TIP3      10923           0.0000000000
     82601     11323  TIP3      H2             44.3044155552      -34.6523308687      -39.4708011593  TIP3      10923           0.0000000000
     82602     11324  TIP3      OH2            53.6134597906      -33.6719294427      -27.3079310949  TIP3      10924           0.0000000000
     82603     11324  TIP3      H1             52.6747690328      -33.3860917470      -27.4261364537  TIP3      10924           0.0000000000
     82604     11324  TIP3      H2             53.9270409257      -33.6749546472      -28.2267273146  TIP3      10924           0.0000000000
     82605     11325  TIP3      OH2            52.1890296529      -29.8857078593      -33.2478226284  TIP3      10925           0.0000000000
     82606     11325  TIP3      H1             51.3900164541      -30.3337704514      -33.5660336041  TIP3      10925           0.0000000000
     82607     11325  TIP3      H2             52.6690491561      -30.5930725855      -32.7544328764  TIP3      10925           0.0000000000
     82608     11326  TIP3      OH2            41.6409017191      -23.9744291668      -40.6753363887  TIP3      10926           0.0000000000
     82609     11326  TIP3      H1             42.2658537722      -23.2993088822      -40.3908628907  TIP3      10926           0.0000000000
     82610     11326  TIP3      H2             42.1393321486      -24.4221373262      -41.3869686879  TIP3      10926           0.0000000000
     82611     11327  TIP3      OH2            39.9968778793      -31.3090385405      -41.5239287074  TIP3      10927           0.0000000000
     82612     11327  TIP3      H1             39.9505474003      -30.3495352872      -41.3769422560  TIP3      10927           0.0000000000
     82613     11327  TIP3      H2             39.1097816104      -31.5302949024      -41.8370009776  TIP3      10927           0.0000000000
     82614     11328  TIP3      OH2            53.3936825818      -20.4923237312      -31.6728014851  TIP3      10928           0.0000000000
     82615     11328  TIP3      H1             53.2194360545      -19.8385122789      -32.3885575835  TIP3      10928           0.0000000000
     82616     11328  TIP3      H2             54.3626289530      -20.4904718769      -31.4756933001  TIP3      10928           0.0000000000
     82617     11329  TIP3      OH2            40.7876625133      -36.5176673623      -32.8479691089  TIP3      10929           0.0000000000
     82618     11329  TIP3      H1             40.5609838648      -36.4827871358      -33.8034085190  TIP3      10929           0.0000000000
     82619     11329  TIP3      H2             40.3449399110      -37.3441916510      -32.5701071992  TIP3      10929           0.0000000000
     82620     11330  TIP3      OH2            39.7278225101      -22.5988861928      -36.6966396510  TIP3      10930           0.0000000000
     82621     11330  TIP3      H1             38.8831554962      -22.1231637679      -36.7011892072  TIP3      10930           0.0000000000
     82622     11330  TIP3      H2             40.2427617136      -22.0947030050      -37.3396798959  TIP3      10930           0.0000000000
     82623     11331  TIP3      OH2            38.9821840845      -19.9622849586      -25.3797858858  TIP3      10931           0.0000000000
     82624     11331  TIP3      H1             39.5580610693      -20.1787682545      -24.6290302236  TIP3      10931           0.0000000000
     82625     11331  TIP3      H2             38.5217894552      -20.7922870259      -25.5770642735  TIP3      10931           0.0000000000
     82626     11332  TIP3      OH2            43.5949100558      -21.0388302256      -23.7637550112  TIP3      10932           0.0000000000
     82627     11332  TIP3      H1             44.3684329302      -21.5301926897      -23.4534995442  TIP3      10932           0.0000000000
     82628     11332  TIP3      H2             43.5794808710      -21.2907039865      -24.7094852309  TIP3      10932           0.0000000000
     82629     11333  TIP3      OH2            48.0252090277      -21.3977706813      -41.8978235200  TIP3      10933           0.0000000000
     82630     11333  TIP3      H1             47.2268641518      -21.9844416765      -41.9660627049  TIP3      10933           0.0000000000
     82631     11333  TIP3      H2             48.4941497680      -21.9606425403      -42.5203791989  TIP3      10933           0.0000000000
     82632     11334  TIP3      OH2            50.1524431936      -22.6551669120      -25.0391401184  TIP3      10934           0.0000000000
     82633     11334  TIP3      H1             49.8275788995      -23.5393915980      -24.7910384892  TIP3      10934           0.0000000000
     82634     11334  TIP3      H2             50.9146730755      -22.5289675322      -24.4469087589  TIP3      10934           0.0000000000
     82635     11335  TIP3      OH2            52.2921405193      -21.7205641685      -42.1712241554  TIP3      10935           0.0000000000
     82636     11335  TIP3      H1             52.5751451594      -22.5337486991      -41.7050472705  TIP3      10935           0.0000000000
     82637     11335  TIP3      H2             53.0612579811      -21.5146553613      -42.7159190377  TIP3      10935           0.0000000000
     82638     11336  TIP3      OH2            38.8850029933      -26.1591104936      -24.3952617930  TIP3      10936           0.0000000000
     82639     11336  TIP3      H1             39.0473381364      -27.0732458319      -24.7173808593  TIP3      10936           0.0000000000
     82640     11336  TIP3      H2             38.1303091812      -25.8940878714      -24.9472936007  TIP3      10936           0.0000000000
     82641     11337  TIP3      OH2            43.2761266734      -25.7747035374      -42.2603010515  TIP3      10937           0.0000000000
     82642     11337  TIP3      H1             43.3274672096      -26.6080790557      -41.7774899539  TIP3      10937           0.0000000000
     82643     11337  TIP3      H2             43.8866784961      -25.9679564982      -42.9979843051  TIP3      10937           0.0000000000
     82644     11338  TIP3      OH2            45.5922781604      -26.1844160059      -24.9953537403  TIP3      10938           0.0000000000
     82645     11338  TIP3      H1             45.2314668490      -25.9034839375      -25.8600442697  TIP3      10938           0.0000000000
     82646     11338  TIP3      H2             45.6793263801      -27.1585262559      -25.0982045322  TIP3      10938           0.0000000000
     82647     11339  TIP3      OH2            51.2797211760      -26.3096433938      -27.6245611438  TIP3      10939           0.0000000000
     82648     11339  TIP3      H1             52.0513354887      -25.7083268646      -27.7076477284  TIP3      10939           0.0000000000
     82649     11339  TIP3      H2             50.5480051670      -25.6839386574      -27.5620249216  TIP3      10939           0.0000000000
     82650     11340  TIP3      OH2            39.7387418652      -28.9539354348      -25.0195275977  TIP3      10940           0.0000000000
     82651     11340  TIP3      H1             40.1646129097      -29.8157368841      -25.1239473058  TIP3      10940           0.0000000000
     82652     11340  TIP3      H2             39.4978343762      -28.9563971965      -24.0795514196  TIP3      10940           0.0000000000
     82653     11341  TIP3      OH2            44.4039949194      -27.8107591056      -39.9805915192  TIP3      10941           0.0000000000
     82654     11341  TIP3      H1             43.9294978289      -28.3335765328      -39.3132129521  TIP3      10941           0.0000000000
     82655     11341  TIP3      H2             44.6811992327      -28.5128051933      -40.6167287182  TIP3      10941           0.0000000000
     82656     11342  TIP3      OH2            43.6844408800      -29.9808434450      -27.6401541207  TIP3      10942           0.0000000000
     82657     11342  TIP3      H1             43.0720479991      -29.2771669604      -27.3672641054  TIP3      10942           0.0000000000
     82658     11342  TIP3      H2             44.0447773076      -29.6292437305      -28.4717442938  TIP3      10942           0.0000000000
     82659     11343  TIP3      OH2            45.4658224263      -29.5960032153      -41.7349702956  TIP3      10943           0.0000000000
     82660     11343  TIP3      H1             45.3182727804      -29.7683740008      -42.6727454870  TIP3      10943           0.0000000000
     82661     11343  TIP3      H2             46.4407942320      -29.4981172291      -41.6693013231  TIP3      10943           0.0000000000
     82662     11344  TIP3      OH2            48.7215944491      -27.4368360340      -24.2916393833  TIP3      10944           0.0000000000
     82663     11344  TIP3      H1             49.6816098162      -27.4293573265      -24.4246602808  TIP3      10944           0.0000000000
     82664     11344  TIP3      H2             48.5605469165      -28.2192793105      -23.7600882013  TIP3      10944           0.0000000000
     82665     11345  TIP3      OH2            54.7156523808      -27.1867804078       42.7864193470  TIP3      10945           0.0000000000
     82666     11345  TIP3      H1             54.5985569284      -27.6470893393       41.9223575406  TIP3      10945           0.0000000000
     82667     11345  TIP3      H2             54.8941364311      -26.2733766047       42.4995798872  TIP3      10945           0.0000000000
     82668     11346  TIP3      OH2            44.0608738817      -32.6103767392      -26.5624438174  TIP3      10946           0.0000000000
     82669     11346  TIP3      H1             44.1808115761      -33.3364435427      -27.1945015165  TIP3      10946           0.0000000000
     82670     11346  TIP3      H2             44.0314306819      -31.8129637149      -27.1300211744  TIP3      10946           0.0000000000
     82671     11347  TIP3      OH2            44.4614275597      -34.2386688088      -29.0456267289  TIP3      10947           0.0000000000
     82672     11347  TIP3      H1             44.9858910729      -33.7764451512      -29.7389124840  TIP3      10947           0.0000000000
     82673     11347  TIP3      H2             43.5806785325      -34.3334153247      -29.4769973495  TIP3      10947           0.0000000000
     82674     11348  TIP3      OH2            46.0222710085      -28.7841777157      -28.8077691418  TIP3      10948           0.0000000000
     82675     11348  TIP3      H1             46.7751233927      -28.9390378027      -29.3896504193  TIP3      10948           0.0000000000
     82676     11348  TIP3      H2             45.6745699237      -27.9307793725      -29.1127355434  TIP3      10948           0.0000000000
     82677     11349  TIP3      OH2            50.4215010480      -30.9690892009      -23.8209009849  TIP3      10949           0.0000000000
     82678     11349  TIP3      H1             50.6433694588      -31.9052724405      -23.9040677865  TIP3      10949           0.0000000000
     82679     11349  TIP3      H2             51.2953549325      -30.5552956861      -23.7994023113  TIP3      10949           0.0000000000
     82680     11350  TIP3      OH2            51.7400789317      -28.2033480611      -25.6971861587  TIP3      10950           0.0000000000
     82681     11350  TIP3      H1             51.4926464793      -27.4778212042      -26.3090530931  TIP3      10950           0.0000000000
     82682     11350  TIP3      H2             52.7077467493      -28.2469548198      -25.8764489531  TIP3      10950           0.0000000000
     82683     11351  TIP3      OH2            42.5170855062      -31.3703746301      -24.6529471699  TIP3      10951           0.0000000000
     82684     11351  TIP3      H1             41.7509567331      -31.9463392491      -24.8382493751  TIP3      10951           0.0000000000
     82685     11351  TIP3      H2             43.1888643787      -31.7270373563      -25.2563853411  TIP3      10951           0.0000000000
     82686     11352  TIP3      OH2            45.2593836542      -36.8008387151      -28.6225283225  TIP3      10952           0.0000000000
     82687     11352  TIP3      H1             45.1241678155      -35.8299178219      -28.7411697750  TIP3      10952           0.0000000000
     82688     11352  TIP3      H2             44.5038596944      -37.1533247351      -29.1272900105  TIP3      10952           0.0000000000
     82689     11353  TIP3      OH2            46.5297186072      -32.4757614092      -25.0706744615  TIP3      10953           0.0000000000
     82690     11353  TIP3      H1             46.2440638265      -32.6786001682      -24.1551343350  TIP3      10953           0.0000000000
     82691     11353  TIP3      H2             45.7189884313      -32.6662584612      -25.5736755867  TIP3      10953           0.0000000000
     82692     11354  TIP3      OH2            49.2451414143      -33.3344700719      -25.9945806122  TIP3      10954           0.0000000000
     82693     11354  TIP3      H1             48.2831367132      -33.2915671604      -25.8423446847  TIP3      10954           0.0000000000
     82694     11354  TIP3      H2             49.5361690123      -33.9609224248      -25.3132719215  TIP3      10954           0.0000000000
     82695     11355  TIP3      OH2            50.8722149681      -34.6878618201      -23.9840617567  TIP3      10955           0.0000000000
     82696     11355  TIP3      H1             50.7610651501      -35.6612203317      -23.9994885092  TIP3      10955           0.0000000000
     82697     11355  TIP3      H2             50.5345782690      -34.4372680436      -23.1101540388  TIP3      10955           0.0000000000
     82698     11356  TIP3      OH2            40.6530528675      -33.4588588596      -24.9506103591  TIP3      10956           0.0000000000
     82699     11356  TIP3      H1             40.8919116285      -34.1932916919      -25.5422678409  TIP3      10956           0.0000000000
     82700     11356  TIP3      H2             40.5738025874      -33.9022544043      -24.0782117268  TIP3      10956           0.0000000000
     82701     11357  TIP3      OH2            45.4660504010      -37.4581613524      -25.9473296736  TIP3      10957           0.0000000000
     82702     11357  TIP3      H1             46.1794362023      -38.1280017864      -25.9825690299  TIP3      10957           0.0000000000
     82703     11357  TIP3      H2             45.3717856455      -37.2331932492      -26.8944985738  TIP3      10957           0.0000000000
     82704     11358  TIP3      OH2            45.8355131039      -35.8082084572      -23.8832150088  TIP3      10958           0.0000000000
     82705     11358  TIP3      H1             45.6828520554      -36.2932873116      -24.7220912297  TIP3      10958           0.0000000000
     82706     11358  TIP3      H2             45.2321637895      -35.0424549386      -23.9460456619  TIP3      10958           0.0000000000
     82707     11359  TIP3      OH2            45.3411412235      -18.9088957759      -40.7398450419  TIP3      10959           0.0000000000
     82708     11359  TIP3      H1             46.3043192411      -18.7693682720      -40.5919650619  TIP3      10959           0.0000000000
     82709     11359  TIP3      H2             45.1232741251      -18.2298948090      -41.3693563800  TIP3      10959           0.0000000000
     82710     11360  TIP3      OH2            38.9078573110      -24.2843372660      -41.2232495124  TIP3      10960           0.0000000000
     82711     11360  TIP3      H1             39.8611646251      -24.2047970829      -40.9789721703  TIP3      10960           0.0000000000
     82712     11360  TIP3      H2             38.9405286909      -24.9407137903      -41.9265349447  TIP3      10960           0.0000000000
     82713     11361  TIP3      OH2            37.6354951754      -18.8979911621      -36.2127576446  TIP3      10961           0.0000000000
     82714     11361  TIP3      H1             36.9296600337      -19.3830985253      -36.6973410131  TIP3      10961           0.0000000000
     82715     11361  TIP3      H2             37.9305735755      -19.5727397096      -35.5727365024  TIP3      10961           0.0000000000
     82716     11362  TIP3      OH2            38.4637347537      -20.7982176373      -34.3720768585  TIP3      10962           0.0000000000
     82717     11362  TIP3      H1             38.1209075802      -21.6833749183      -34.1788763240  TIP3      10962           0.0000000000
     82718     11362  TIP3      H2             38.6873524872      -20.4637875867      -33.4851589317  TIP3      10962           0.0000000000
     82719     11363  TIP3      OH2            55.9560839601      -19.9947323344      -31.3849058146  TIP3      10963           0.0000000000
     82720     11363  TIP3      H1             56.0188036868      -19.8143766683      -30.4358323136  TIP3      10963           0.0000000000
     82721     11363  TIP3      H2             56.7005409252      -19.4494443068      -31.7172928457  TIP3      10963           0.0000000000
     82722     11364  TIP3      OH2            55.5799162434      -20.4117993852      -28.4760105757  TIP3      10964           0.0000000000
     82723     11364  TIP3      H1             55.0961981846      -21.1815097076      -28.8355137614  TIP3      10964           0.0000000000
     82724     11364  TIP3      H2             56.1237350772      -20.8225667863      -27.7863601945  TIP3      10964           0.0000000000
     82725     11365  TIP3      OH2            54.0412817172      -24.6535105814      -23.7958785137  TIP3      10965           0.0000000000
     82726     11365  TIP3      H1             53.1374695344      -24.7382666868      -23.4429820425  TIP3      10965           0.0000000000
     82727     11365  TIP3      H2             54.3862577403      -23.8644621211      -23.3769529967  TIP3      10965           0.0000000000
     82728     11366  TIP3      OH2            55.2919871820      -26.3872176923      -38.3536100779  TIP3      10966           0.0000000000
     82729     11366  TIP3      H1             56.1583125436      -25.9552733988      -38.1708324433  TIP3      10966           0.0000000000
     82730     11366  TIP3      H2             55.3292816584      -27.1054784858      -37.6825852875  TIP3      10966           0.0000000000
     82731     11367  TIP3      OH2            55.6928915552      -28.2766914180      -36.5030612341  TIP3      10967           0.0000000000
     82732     11367  TIP3      H1             54.9728091835      -28.8002024681      -36.0895495484  TIP3      10967           0.0000000000
     82733     11367  TIP3      H2             56.3027684654      -28.1250723418      -35.7410011617  TIP3      10967           0.0000000000
     82734     11368  TIP3      OH2            55.4684281090      -25.5636485596      -31.5034037402  TIP3      10968           0.0000000000
     82735     11368  TIP3      H1             56.3100684885      -25.9371246492      -31.8351067407  TIP3      10968           0.0000000000
     82736     11368  TIP3      H2             55.6079827007      -24.6065095928      -31.6786597889  TIP3      10968           0.0000000000
     82737     11369  TIP3      OH2            53.9502485276      -22.6434697230      -29.2659934713  TIP3      10969           0.0000000000
     82738     11369  TIP3      H1             53.3260687422      -22.3539204251      -28.5762144689  TIP3      10969           0.0000000000
     82739     11369  TIP3      H2             53.4570626335      -23.1756173829      -29.8949624510  TIP3      10969           0.0000000000
     82740     11370  TIP3      OH2            55.9105840451      -28.4631600585      -40.0736356026  TIP3      10970           0.0000000000
     82741     11370  TIP3      H1             55.4484957319      -28.0537423689      -40.8244504852  TIP3      10970           0.0000000000
     82742     11370  TIP3      H2             55.9505801740      -27.7331728254      -39.4201730613  TIP3      10970           0.0000000000
     82743     11371  TIP3      OH2            54.0443071078      -31.1513720309      -41.4698203119  TIP3      10971           0.0000000000
     82744     11371  TIP3      H1             54.4543947589      -30.5855038572      -42.1682576602  TIP3      10971           0.0000000000
     82745     11371  TIP3      H2             54.1997142225      -31.9963339232      -41.9797933471  TIP3      10971           0.0000000000
     82746     11372  TIP3      OH2            53.5016263873      -29.8015765735      -35.9424196367  TIP3      10972           0.0000000000
     82747     11372  TIP3      H1             53.3578824373      -30.7611581664      -35.9400541158  TIP3      10972           0.0000000000
     82748     11372  TIP3      H2             53.1592100466      -29.5455360326      -35.0641615768  TIP3      10972           0.0000000000
     82749     11373  TIP3      OH2            38.5236218888      -27.7207299165      -31.8853577597  TIP3      10973           0.0000000000
     82750     11373  TIP3      H1             38.7223503239      -27.8064290706      -32.8441160548  TIP3      10973           0.0000000000
     82751     11373  TIP3      H2             39.4084671561      -27.8697004475      -31.4996060939  TIP3      10973           0.0000000000
     82752     11374  TIP3      OH2            54.3491308240      -27.8342278647      -26.2605194336  TIP3      10974           0.0000000000
     82753     11374  TIP3      H1             54.9597349059      -28.5813987394      -26.0896437912  TIP3      10974           0.0000000000
     82754     11374  TIP3      H2             54.9395871199      -27.0567944604      -26.2483633648  TIP3      10974           0.0000000000
     82755     11375  TIP3      OH2            55.8607674870      -29.9211145163      -25.5956666283  TIP3      10975           0.0000000000
     82756     11375  TIP3      H1             54.9804253356      -30.3266406835      -25.7682175703  TIP3      10975           0.0000000000
     82757     11375  TIP3      H2             56.4376215303      -30.7071638402      -25.6789529351  TIP3      10975           0.0000000000
     82758     11376  TIP3      OH2            53.5859859620      -33.7711381193      -42.4469325103  TIP3      10976           0.0000000000
     82759     11376  TIP3      H1             54.1955048115      -34.1842118040      -41.8010730789  TIP3      10976           0.0000000000
     82760     11376  TIP3      H2             52.7392498408      -34.2002189679      -42.2457481172  TIP3      10976           0.0000000000
     82761     11377  TIP3      OH2            53.1911924653      -32.2117733702      -37.4726133217  TIP3      10977           0.0000000000
     82762     11377  TIP3      H1             53.4946493669      -33.1445007687      -37.3341026467  TIP3      10977           0.0000000000
     82763     11377  TIP3      H2             53.9869145596      -31.8062648291      -37.8391910972  TIP3      10977           0.0000000000
     82764     11378  TIP3      OH2            53.7734622975      -31.6679859188      -32.0356937502  TIP3      10978           0.0000000000
     82765     11378  TIP3      H1             54.7478216115      -31.4437897265      -32.0466332433  TIP3      10978           0.0000000000
     82766     11378  TIP3      H2             53.5992540943      -31.5356892851      -31.0911545584  TIP3      10978           0.0000000000
     82767     11379  TIP3      OH2            53.8701363933      -30.9376678745      -29.2489585570  TIP3      10979           0.0000000000
     82768     11379  TIP3      H1             53.0061246013      -30.6359044844      -28.8985362072  TIP3      10979           0.0000000000
     82769     11379  TIP3      H2             54.3121479938      -30.0815146068      -29.4604428378  TIP3      10979           0.0000000000
     82770     11380  TIP3      OH2            38.1269087406      -32.4329200935      -25.7622099738  TIP3      10980           0.0000000000
     82771     11380  TIP3      H1             39.0626791643      -32.6020604550      -25.5294125297  TIP3      10980           0.0000000000
     82772     11380  TIP3      H2             37.6903798460      -33.2319339135      -25.3885689287  TIP3      10980           0.0000000000
     82773     11381  TIP3      OH2            53.8251074893      -34.9319171180      -37.4166107750  TIP3      10981           0.0000000000
     82774     11381  TIP3      H1             54.0210876243      -35.3970720311      -36.5781671835  TIP3      10981           0.0000000000
     82775     11381  TIP3      H2             53.2257436656      -35.5592169761      -37.8766947882  TIP3      10981           0.0000000000
     82776     11382  TIP3      OH2            39.3419268386      -34.1362706526      -32.8778897650  TIP3      10982           0.0000000000
     82777     11382  TIP3      H1             39.8065691573      -34.9464704404      -32.5850195916  TIP3      10982           0.0000000000
     82778     11382  TIP3      H2             39.8480432059      -33.4283195151      -32.4564665215  TIP3      10982           0.0000000000
     82779     11383  TIP3      OH2            37.6331177271      -31.1483330953      -31.8110128942  TIP3      10983           0.0000000000
     82780     11383  TIP3      H1             38.1752743446      -31.3664142319      -32.5983747794  TIP3      10983           0.0000000000
     82781     11383  TIP3      H2             38.0517932115      -30.3147867015      -31.5442916632  TIP3      10983           0.0000000000
     82782     11384  TIP3      OH2            55.6740356428      -34.8229961732      -25.5221309721  TIP3      10984           0.0000000000
     82783     11384  TIP3      H1             54.7420787682      -34.5440865066      -25.5984042930  TIP3      10984           0.0000000000
     82784     11384  TIP3      H2             55.7616614767      -35.3563205482      -26.3280923924  TIP3      10984           0.0000000000
     82785     11385  TIP3      OH2            55.6674063321      -34.8933001512      -40.8783741348  TIP3      10985           0.0000000000
     82786     11385  TIP3      H1             56.1130751924      -35.6086050738      -41.3546934522  TIP3      10985           0.0000000000
     82787     11385  TIP3      H2             56.3842052355      -34.2279742945      -40.8315738980  TIP3      10985           0.0000000000
     82788     11386  TIP3      OH2            37.9845875496      -34.8845731011      -37.7563719480  TIP3      10986           0.0000000000
     82789     11386  TIP3      H1             37.0468167192      -34.6769943821      -37.8891325209  TIP3      10986           0.0000000000
     82790     11386  TIP3      H2             38.4212391170      -34.3883036102      -38.4659780500  TIP3      10986           0.0000000000
     82791     11387  TIP3      OH2            52.7292897331      -19.9165223820      -35.7878124117  TIP3      10987           0.0000000000
     82792     11387  TIP3      H1             53.3962593478      -20.2371830313      -36.4250387366  TIP3      10987           0.0000000000
     82793     11387  TIP3      H2             53.2736190790      -19.4126936327      -35.1659958777  TIP3      10987           0.0000000000
     82794     11388  TIP3      OH2            37.9482855498      -36.1762647062      -29.4287958332  TIP3      10988           0.0000000000
     82795     11388  TIP3      H1             37.2672930954      -36.3973261000      -28.7695804203  TIP3      10988           0.0000000000
     82796     11388  TIP3      H2             37.4842740246      -35.5235426489      -29.9954852661  TIP3      10988           0.0000000000
     82797     11389  TIP3      OH2            40.1498293221      -22.9941749264      -25.2631782931  TIP3      10989           0.0000000000
     82798     11389  TIP3      H1             39.3197392539      -22.7972115463      -25.7350005493  TIP3      10989           0.0000000000
     82799     11389  TIP3      H2             39.8783372636      -23.0533885171      -24.3599003821  TIP3      10989           0.0000000000
     82800     11390  TIP3      OH2            43.0739042403      -22.0150295878      -29.0067364170  TIP3      10990           0.0000000000
     82801     11390  TIP3      H1             42.6943417758      -21.1731513103      -29.2938690172  TIP3      10990           0.0000000000
     82802     11390  TIP3      H2             43.9979973969      -21.9102923774      -29.3188234818  TIP3      10990           0.0000000000
     82803     11391  TIP3      OH2            47.3904658310      -20.5934874454      -26.0816516099  TIP3      10991           0.0000000000
     82804     11391  TIP3      H1             47.5732207330      -20.9335830273      -25.1703858085  TIP3      10991           0.0000000000
     82805     11391  TIP3      H2             48.2735341676      -20.2869369852      -26.3604770340  TIP3      10991           0.0000000000
     82806     11392  TIP3      OH2            49.7123663420      -19.3200934906      -26.8209975877  TIP3      10992           0.0000000000
     82807     11392  TIP3      H1             50.4282692277      -19.9345130645      -27.0319994828  TIP3      10992           0.0000000000
     82808     11392  TIP3      H2             50.0638191014      -18.9041032898      -25.9967923038  TIP3      10992           0.0000000000
     82809     11393  TIP3      OH2            54.6550378953      -36.7111520305      -27.6889430105  TIP3      10993           0.0000000000
     82810     11393  TIP3      H1             53.8399658553      -36.4055441370      -28.1203622470  TIP3      10993           0.0000000000
     82811     11393  TIP3      H2             54.8727902231      -37.5005186775      -28.2379261617  TIP3      10993           0.0000000000
     82812     11394  TIP3      OH2            40.5008597955      -18.7599780712      -28.9845110272  TIP3      10994           0.0000000000
     82813     11394  TIP3      H1             39.7653024029      -18.2894374670      -29.4119593658  TIP3      10994           0.0000000000
     82814     11394  TIP3      H2             40.1464501263      -18.9818709963      -28.1103545573  TIP3      10994           0.0000000000
     82815     11395  TIP3      OH2            42.9722594176      -19.1733304595      -29.9328734543  TIP3      10995           0.0000000000
     82816     11395  TIP3      H1             42.0769492822      -19.0607522637      -29.5344548396  TIP3      10995           0.0000000000
     82817     11395  TIP3      H2             42.8995524238      -18.5950920230      -30.7185982218  TIP3      10995           0.0000000000
     82818     11396  TIP3      OH2            47.6870107925      -19.2746637863      -30.7669546858  TIP3      10996           0.0000000000
     82819     11396  TIP3      H1             47.2057184663      -18.7277696800      -31.4150231082  TIP3      10996           0.0000000000
     82820     11396  TIP3      H2             47.8139189180      -18.6397377906      -30.0297990848  TIP3      10996           0.0000000000
     82821     11397  TIP3      OH2            50.0224844267      -20.4384073794      -29.8251853008  TIP3      10997           0.0000000000
     82822     11397  TIP3      H1             49.0996347553      -20.2018968466      -30.0821390901  TIP3      10997           0.0000000000
     82823     11397  TIP3      H2             50.4085402171      -19.5408515243      -29.8588167552  TIP3      10997           0.0000000000
     82824     11398  TIP3      OH2            52.5638077769      -18.8694896612      -29.5217787566  TIP3      10998           0.0000000000
     82825     11398  TIP3      H1             52.4416131842      -17.8975622584      -29.7309358487  TIP3      10998           0.0000000000
     82826     11398  TIP3      H2             52.7859469032      -19.2048255658      -30.3975880685  TIP3      10998           0.0000000000
     82827     11399  TIP3      OH2            39.9152679908      -20.1147503185      -32.0661340200  TIP3      10999           0.0000000000
     82828     11399  TIP3      H1             39.8774368948      -20.5630431131      -31.1938863071  TIP3      10999           0.0000000000
     82829     11399  TIP3      H2             40.7379616886      -20.4645263809      -32.4646260476  TIP3      10999           0.0000000000
     82830     11400  TIP3      OH2            42.0287742655      -21.4025654934      -33.4148511113  TIP3      11000           0.0000000000
     82831     11400  TIP3      H1             41.8420203232      -22.3375043136      -33.2111038228  TIP3      11000           0.0000000000
     82832     11400  TIP3      H2             42.8811106752      -21.2702483296      -32.9414072626  TIP3      11000           0.0000000000
     82833     11401  TIP3      OH2            44.6021391949      -20.9255013196      -32.5502160254  TIP3      11001           0.0000000000
     82834     11401  TIP3      H1             44.7972609579      -21.8395209160      -32.8231965733  TIP3      11001           0.0000000000
     82835     11401  TIP3      H2             44.6619494588      -20.9865945293      -31.5880734298  TIP3      11001           0.0000000000
     82836     11402  TIP3      OH2            48.0917747421      -35.2707705466      -33.4051997108  TIP3      11002           0.0000000000
     82837     11402  TIP3      H1             47.4149200766      -35.9164757521      -33.1427804290  TIP3      11002           0.0000000000
     82838     11402  TIP3      H2             48.6489258518      -35.7840365448      -34.0016124331  TIP3      11002           0.0000000000
     82839     11403  TIP3      OH2            53.2347475625      -37.2025634842      -33.2976344642  TIP3      11003           0.0000000000
     82840     11403  TIP3      H1             53.8420032728      -36.6177945997      -33.8203774608  TIP3      11003           0.0000000000
     82841     11403  TIP3      H2             52.3541520610      -36.8570552790      -33.5441038961  TIP3      11003           0.0000000000
     82842     11404  TIP3      OH2            54.9032555402      -35.9997331786      -34.9842712905  TIP3      11004           0.0000000000
     82843     11404  TIP3      H1             55.5686845929      -36.5381242150      -35.4816118256  TIP3      11004           0.0000000000
     82844     11404  TIP3      H2             55.3554671595      -35.1317958136      -34.9403617777  TIP3      11004           0.0000000000
     82845     11405  TIP3      OH2            40.4399476295      -36.6348443994      -35.5692668735  TIP3      11005           0.0000000000
     82846     11405  TIP3      H1             39.6470466377      -36.8704417227      -36.0889122661  TIP3      11005           0.0000000000
     82847     11405  TIP3      H2             40.9369552168      -37.4730015606      -35.5926420647  TIP3      11005           0.0000000000
     82848     11406  TIP3      OH2            39.2377959272      -36.8720813254      -39.7982737085  TIP3      11006           0.0000000000
     82849     11406  TIP3      H1             39.7023466493      -36.2365397611      -40.3774988443  TIP3      11006           0.0000000000
     82850     11406  TIP3      H2             38.6343049598      -36.3046952126      -39.2935913863  TIP3      11006           0.0000000000
     82851     11407  TIP3      OH2            44.9781931034      -36.7414192112      -35.7852120452  TIP3      11007           0.0000000000
     82852     11407  TIP3      H1             45.8608036558      -36.3307893851      -35.8019741022  TIP3      11007           0.0000000000
     82853     11407  TIP3      H2             44.8741419174      -36.9277330716      -34.8467699041  TIP3      11007           0.0000000000
     82854     11408  TIP3      OH2            50.5985506448      -36.6906118479      -34.1290772358  TIP3      11008           0.0000000000
     82855     11408  TIP3      H1             50.6270098998      -36.5990217209      -35.0866958823  TIP3      11008           0.0000000000
     82856     11408  TIP3      H2             50.2636717933      -37.6101599216      -34.0011399464  TIP3      11008           0.0000000000
     82857     11409  TIP3      OH2            51.9234774791      -36.6611682565      -38.4486620109  TIP3      11009           0.0000000000
     82858     11409  TIP3      H1             51.2012388016      -36.0501820774      -38.6368325664  TIP3      11009           0.0000000000
     82859     11409  TIP3      H2             51.4699890031      -37.5140507100      -38.2831749261  TIP3      11009           0.0000000000
     82860     11410  TIP3      OH2            39.1687343971      -20.9182943618      -38.8525429940  TIP3      11010           0.0000000000
     82861     11410  TIP3      H1             38.4685387387      -20.9384619276      -39.5408243823  TIP3      11010           0.0000000000
     82862     11410  TIP3      H2             39.1497269602      -19.9868090465      -38.6189051561  TIP3      11010           0.0000000000
     82863     11411  TIP3      OH2            41.0850772607      -34.9675917004      -41.3254289321  TIP3      11011           0.0000000000
     82864     11411  TIP3      H1             41.6060686726      -35.5657326435      -41.8600517579  TIP3      11011           0.0000000000
     82865     11411  TIP3      H2             41.7348023176      -34.6234915008      -40.6868068519  TIP3      11011           0.0000000000
     82866     11412  TIP3      OH2            46.1164560797      -34.6782457036      -38.9106118839  TIP3      11012           0.0000000000
     82867     11412  TIP3      H1             46.3323378924      -35.2619127218      -38.1716945687  TIP3      11012           0.0000000000
     82868     11412  TIP3      H2             46.1131250620      -33.8137431209      -38.4237730875  TIP3      11012           0.0000000000
     82869     11413  TIP3      OH2            47.9874628057      -19.5083264440      -40.3998983570  TIP3      11013           0.0000000000
     82870     11413  TIP3      H1             48.9127787478      -19.3452716910      -40.6478095756  TIP3      11013           0.0000000000
     82871     11413  TIP3      H2             47.7988133663      -20.0846887753      -41.1977632850  TIP3      11013           0.0000000000
     82872     11414  TIP3      OH2            54.6981380168      -20.1350477457      -37.7926835505  TIP3      11014           0.0000000000
     82873     11414  TIP3      H1             54.5216825178      -20.9047720141      -38.3747944940  TIP3      11014           0.0000000000
     82874     11414  TIP3      H2             54.6769670400      -19.3800860397      -38.4073762963  TIP3      11014           0.0000000000
     82875     11415  TIP3      OH2            40.3517457801      -36.1127961722      -26.0946740490  TIP3      11015           0.0000000000
     82876     11415  TIP3      H1             39.9943539041      -36.9016686250      -25.6425647042  TIP3      11015           0.0000000000
     82877     11415  TIP3      H2             41.2804443073      -36.1230585154      -25.7541243760  TIP3      11015           0.0000000000
     82878     11416  TIP3      OH2            42.3475737765      -36.7501744273      -24.5141086690  TIP3      11016           0.0000000000
     82879     11416  TIP3      H1             43.2475339188      -37.0670879390      -24.7124537844  TIP3      11016           0.0000000000
     82880     11416  TIP3      H2             41.9677653878      -37.5325002326      -24.0611248203  TIP3      11016           0.0000000000
     82881     11417  TIP3      OH2            40.9786986647      -19.9575637359      -41.8586668597  TIP3      11017           0.0000000000
     82882     11417  TIP3      H1             40.6994492631      -19.7046374279      -40.9755794856  TIP3      11017           0.0000000000
     82883     11417  TIP3      H2             41.7368387739      -20.5276544415      -41.7081935432  TIP3      11017           0.0000000000
     82884     11418  TIP3      OH2            50.7595623141      -37.4451096212      -24.3500276548  TIP3      11018           0.0000000000
     82885     11418  TIP3      H1             50.8478617485      -37.8874365685      -23.4833873539  TIP3      11018           0.0000000000
     82886     11418  TIP3      H2             51.6710741662      -37.4527022267      -24.6867972472  TIP3      11018           0.0000000000
     82887     11419  TIP3      OH2            53.9623116029      -21.3847726308      -25.6577970659  TIP3      11019           0.0000000000
     82888     11419  TIP3      H1             53.1580557848      -21.5456679025      -26.1817823134  TIP3      11019           0.0000000000
     82889     11419  TIP3      H2             53.8668769422      -20.4316961947      -25.4426934733  TIP3      11019           0.0000000000
     82890     11420  TIP3      OH2           -44.7402903992       -8.6293296499      -35.6848252909  TIP3      11020           0.0000000000
     82891     11420  TIP3      H1            -44.7191479302       -7.6653745304      -35.7498099119  TIP3      11020           0.0000000000
     82892     11420  TIP3      H2            -45.4455791015       -8.9032746478      -36.2834496102  TIP3      11020           0.0000000000
     82893     11421  TIP3      OH2           -46.2070037726       -9.1102336279      -31.9246880438  TIP3      11021           0.0000000000
     82894     11421  TIP3      H1            -45.8786758365       -9.9364448374      -31.5084713352  TIP3      11021           0.0000000000
     82895     11421  TIP3      H2            -46.1884661134       -9.6541540933      -32.8065839298  TIP3      11021           0.0000000000
     82896     11422  TIP3      OH2           -53.5089892569       -9.7416347757      -30.6372366030  TIP3      11022           0.0000000000
     82897     11422  TIP3      H1            -53.4321100519      -10.3976586309      -29.9095702843  TIP3      11022           0.0000000000
     82898     11422  TIP3      H2            -52.7758470796       -9.1456332035      -30.4262850889  TIP3      11022           0.0000000000
     82899     11423  TIP3      OH2           -42.1511882798       -6.4392720232      -33.9148848646  TIP3      11023           0.0000000000
     82900     11423  TIP3      H1            -42.5969999181       -7.1591740534      -33.4469483501  TIP3      11023           0.0000000000
     82901     11423  TIP3      H2            -42.1667901494       -5.7273606102      -33.2530330716  TIP3      11023           0.0000000000
     82902     11424  TIP3      OH2           -52.5832615598       -5.2856417393      -32.0967695179  TIP3      11024           0.0000000000
     82903     11424  TIP3      H1            -52.9168305374       -6.1287241574      -32.4536734234  TIP3      11024           0.0000000000
     82904     11424  TIP3      H2            -51.6304189438       -5.4799385879      -32.0548455833  TIP3      11024           0.0000000000
     82905     11425  TIP3      OH2           -55.9201815702      -11.7155390017      -36.6650495029  TIP3      11025           0.0000000000
     82906     11425  TIP3      H1            -56.3632905560      -10.8340726783      -36.7088646384  TIP3      11025           0.0000000000
     82907     11425  TIP3      H2            -56.5109992087      -12.2406834593      -37.2144610168  TIP3      11025           0.0000000000
     82908     11426  TIP3      OH2           -55.2436345169       -9.4839110512      -34.5418423359  TIP3      11026           0.0000000000
     82909     11426  TIP3      H1            -55.0080820953      -10.2892878314      -34.0461591053  TIP3      11026           0.0000000000
     82910     11426  TIP3      H2            -54.5085635406       -9.4000304134      -35.1646983451  TIP3      11026           0.0000000000
     82911     11427  TIP3      OH2           -45.0555370768       -1.3043193508      -33.6857157742  TIP3      11027           0.0000000000
     82912     11427  TIP3      H1            -44.4134546979       -2.0087202904      -33.9605210919  TIP3      11027           0.0000000000
     82913     11427  TIP3      H2            -45.2520295154       -1.5822305823      -32.7918624066  TIP3      11027           0.0000000000
     82914     11428  TIP3      OH2           -47.5035166817       -6.9179315660      -31.7772922391  TIP3      11028           0.0000000000
     82915     11428  TIP3      H1            -47.1578249621       -7.6291543299      -32.3725809664  TIP3      11028           0.0000000000
     82916     11428  TIP3      H2            -46.7198347104       -6.8437881714      -31.2005380421  TIP3      11028           0.0000000000
     82917     11429  TIP3      OH2           -38.8454109583      -15.3529443424      -30.9658412320  TIP3      11029           0.0000000000
     82918     11429  TIP3      H1            -38.7336198169      -14.7319728350      -30.2142808994  TIP3      11029           0.0000000000
     82919     11429  TIP3      H2            -38.3531672707      -14.8915967064      -31.6613884414  TIP3      11029           0.0000000000
     82920     11430  TIP3      OH2           -44.2943628066      -12.5990881510      -31.3633705422  TIP3      11030           0.0000000000
     82921     11430  TIP3      H1            -44.1686066744      -13.5439151638      -31.4529916494  TIP3      11030           0.0000000000
     82922     11430  TIP3      H2            -44.4223753841      -12.3489503138      -32.3221359442  TIP3      11030           0.0000000000
     82923     11431  TIP3      OH2           -51.1867037301      -14.4443044615      -34.1872621300  TIP3      11031           0.0000000000
     82924     11431  TIP3      H1            -51.1197149661      -13.5914722829      -34.6464495502  TIP3      11031           0.0000000000
     82925     11431  TIP3      H2            -51.6211754146      -15.0078713670      -34.8606870542  TIP3      11031           0.0000000000
     82926     11432  TIP3      OH2           -43.3518510037      -14.6092459201      -36.0071639936  TIP3      11032           0.0000000000
     82927     11432  TIP3      H1            -42.8142718590      -14.6539466151      -35.1698734053  TIP3      11032           0.0000000000
     82928     11432  TIP3      H2            -42.9423091371      -13.7910683988      -36.3816211363  TIP3      11032           0.0000000000
     82929     11433  TIP3      OH2           -54.5724842070      -12.0345910321      -33.4491907334  TIP3      11033           0.0000000000
     82930     11433  TIP3      H1            -53.8975107682      -12.5970003011      -33.0110976612  TIP3      11033           0.0000000000
     82931     11433  TIP3      H2            -54.5017693576      -12.3414349319      -34.3664713863  TIP3      11033           0.0000000000
     82932     11434  TIP3      OH2           -49.4202259205      -10.4762512592      -34.1873086446  TIP3      11034           0.0000000000
     82933     11434  TIP3      H1            -48.7606409012      -11.0431705100      -33.7298699765  TIP3      11034           0.0000000000
     82934     11434  TIP3      H2            -49.9680058372      -11.1485338040      -34.6354615233  TIP3      11034           0.0000000000
     82935     11435  TIP3      OH2           -38.4160948892      -13.8904487711      -28.7179654669  TIP3      11035           0.0000000000
     82936     11435  TIP3      H1            -39.0903920229      -13.1856306457      -28.8074106407  TIP3      11035           0.0000000000
     82937     11435  TIP3      H2            -38.4015970913      -14.0452171482      -27.7632397089  TIP3      11035           0.0000000000
     82938     11436  TIP3      OH2           -52.3321480787      -15.5414985935      -30.1390345653  TIP3      11036           0.0000000000
     82939     11436  TIP3      H1            -52.5850701759      -14.9847553370      -30.9002104069  TIP3      11036           0.0000000000
     82940     11436  TIP3      H2            -53.0192875027      -15.2985003211      -29.4713079739  TIP3      11036           0.0000000000
     82941     11437  TIP3      OH2           -44.9900664392       -6.0317183137      -36.5973455749  TIP3      11037           0.0000000000
     82942     11437  TIP3      H1            -45.2925670081       -6.3549850281      -37.4540032054  TIP3      11037           0.0000000000
     82943     11437  TIP3      H2            -45.3230431864       -5.1134850306      -36.5540605028  TIP3      11037           0.0000000000
     82944     11438  TIP3      OH2           -49.7872094469       -7.8848846603      -29.8687346572  TIP3      11038           0.0000000000
     82945     11438  TIP3      H1            -50.5193209024       -7.2476150331      -29.7177074635  TIP3      11038           0.0000000000
     82946     11438  TIP3      H2            -49.0803893487       -7.2957236612      -30.1736908084  TIP3      11038           0.0000000000
     82947     11439  TIP3      OH2           -41.6722886276      -15.0233505216      -33.8309359203  TIP3      11039           0.0000000000
     82948     11439  TIP3      H1            -41.8982586184      -15.7890340744      -33.2912995923  TIP3      11039           0.0000000000
     82949     11439  TIP3      H2            -41.0198722386      -14.5610307995      -33.2880965297  TIP3      11039           0.0000000000
     82950     11440  TIP3      OH2           -52.7796815313      -13.6626729325      -32.1523730856  TIP3      11040           0.0000000000
     82951     11440  TIP3      H1            -52.1370473041      -13.0044152665      -31.8015254624  TIP3      11040           0.0000000000
     82952     11440  TIP3      H2            -52.2346477287      -14.1074501936      -32.8475338842  TIP3      11040           0.0000000000
     82953     11441  TIP3      OH2           -51.3577570779       -5.9050180395      -29.0761980867  TIP3      11041           0.0000000000
     82954     11441  TIP3      H1            -51.3927078005       -4.9961493567      -29.4325121158  TIP3      11041           0.0000000000
     82955     11441  TIP3      H2            -52.2413714179       -5.9749179537      -28.6356802171  TIP3      11041           0.0000000000
     82956     11442  TIP3      OH2           -55.2682673241       -6.2521830039      -38.2884341251  TIP3      11042           0.0000000000
     82957     11442  TIP3      H1            -55.4924314850       -5.9538230515      -39.1837835322  TIP3      11042           0.0000000000
     82958     11442  TIP3      H2            -55.1911832046       -5.3990099072      -37.7945686914  TIP3      11042           0.0000000000
     82959     11443  TIP3      OH2           -41.6381211154       -4.6162169106      -31.5502016422  TIP3      11043           0.0000000000
     82960     11443  TIP3      H1            -42.6036468409       -4.5220954156      -31.4079202918  TIP3      11043           0.0000000000
     82961     11443  TIP3      H2            -41.3724921163       -3.6928160532      -31.7179708122  TIP3      11043           0.0000000000
     82962     11444  TIP3      OH2           -41.3234503959      -16.3070970002      -30.1245274007  TIP3      11044           0.0000000000
     82963     11444  TIP3      H1            -42.0711036851      -15.7047697950      -30.2067506264  TIP3      11044           0.0000000000
     82964     11444  TIP3      H2            -40.6401023180      -15.9029661187      -30.6838372984  TIP3      11044           0.0000000000
     82965     11445  TIP3      OH2           -48.3517981404      -18.2113147145      -32.6870140504  TIP3      11045           0.0000000000
     82966     11445  TIP3      H1            -48.4639104847      -19.1855174697      -32.7403193846  TIP3      11045           0.0000000000
     82967     11445  TIP3      H2            -49.2267573450      -17.9061527420      -32.3891116500  TIP3      11045           0.0000000000
     82968     11446  TIP3      OH2           -43.3933463967       -2.8256481352      -34.9317800633  TIP3      11046           0.0000000000
     82969     11446  TIP3      H1            -42.9562736310       -3.5366350836      -35.4403815013  TIP3      11046           0.0000000000
     82970     11446  TIP3      H2            -43.0267182140       -2.0211488894      -35.3525406530  TIP3      11046           0.0000000000
     82971     11447  TIP3      OH2           -42.2047831087       -4.9005475563      -36.4357219875  TIP3      11047           0.0000000000
     82972     11447  TIP3      H1            -42.4824533323       -5.6066912952      -37.0445790651  TIP3      11047           0.0000000000
     82973     11447  TIP3      H2            -42.1549494038       -5.3793991881      -35.5873184395  TIP3      11047           0.0000000000
     82974     11448  TIP3      OH2           -40.5490857527       -6.3308240863      -27.9387344592  TIP3      11048           0.0000000000
     82975     11448  TIP3      H1            -40.4055377671       -6.9527301004      -28.6853290379  TIP3      11048           0.0000000000
     82976     11448  TIP3      H2            -40.3698777635       -5.4657756196      -28.3362360522  TIP3      11048           0.0000000000
     82977     11449  TIP3      OH2           -46.0766706281       -9.3968284066      -38.1637439155  TIP3      11049           0.0000000000
     82978     11449  TIP3      H1            -46.7785853149       -8.8417724528      -38.5485035385  TIP3      11049           0.0000000000
     82979     11449  TIP3      H2            -45.3689613995       -9.3290444070      -38.8356016893  TIP3      11049           0.0000000000
     82980     11450  TIP3      OH2           -46.0234604265      -10.9108039652      -41.1244160442  TIP3      11050           0.0000000000
     82981     11450  TIP3      H1            -45.2997120050      -10.9010839222      -40.4803820940  TIP3      11050           0.0000000000
     82982     11450  TIP3      H2            -45.7025749894      -11.5484900038      -41.7727082014  TIP3      11050           0.0000000000
     82983     11451  TIP3      OH2           -38.6863322769      -10.0129178150      -29.8804252547  TIP3      11051           0.0000000000
     82984     11451  TIP3      H1            -39.3498059565       -9.2968613436      -29.8188154605  TIP3      11051           0.0000000000
     82985     11451  TIP3      H2            -38.2165015934       -9.7817595500      -30.7017375897  TIP3      11051           0.0000000000
     82986     11452  TIP3      OH2           -42.6418982567       -9.1766823327      -37.2413310496  TIP3      11052           0.0000000000
     82987     11452  TIP3      H1            -43.3932777921       -8.9614976337      -36.6326220567  TIP3      11052           0.0000000000
     82988     11452  TIP3      H2            -42.1953109380       -9.8931532463      -36.7497980648  TIP3      11052           0.0000000000
     82989     11453  TIP3      OH2           -42.7174124977      -11.0300785530      -28.1406214187  TIP3      11053           0.0000000000
     82990     11453  TIP3      H1            -42.6883621825      -10.2277144226      -27.5911456274  TIP3      11053           0.0000000000
     82991     11453  TIP3      H2            -43.3519628829      -10.7281812520      -28.8341683523  TIP3      11053           0.0000000000
     82992     11454  TIP3      OH2           -51.0188396773       -8.5330778619      -35.3383762991  TIP3      11054           0.0000000000
     82993     11454  TIP3      H1            -51.3458091504       -8.9327809073      -36.1779754265  TIP3      11054           0.0000000000
     82994     11454  TIP3      H2            -50.4055829991       -9.2319642095      -34.9978410358  TIP3      11054           0.0000000000
     82995     11455  TIP3      OH2           -49.6730342428       -5.1242594370      -32.6581559375  TIP3      11055           0.0000000000
     82996     11455  TIP3      H1            -49.7227231279       -5.6972505607      -33.4335108991  TIP3      11055           0.0000000000
     82997     11455  TIP3      H2            -48.9095919371       -5.5048722804      -32.1845095895  TIP3      11055           0.0000000000
     82998     11456  TIP3      OH2           -50.6658864840       -9.7913123891      -31.6991143741  TIP3      11056           0.0000000000
     82999     11456  TIP3      H1            -50.0819753069       -9.6704911047      -32.4743849069  TIP3      11056           0.0000000000
     83000     11456  TIP3      H2            -50.3137286366       -9.1341446123      -31.0665594795  TIP3      11056           0.0000000000
     83001     11457  TIP3      OH2           -44.3087530448       -4.2464912208      -30.9882369263  TIP3      11057           0.0000000000
     83002     11457  TIP3      H1            -44.5743374161       -3.6144977319      -30.3202138162  TIP3      11057           0.0000000000
     83003     11457  TIP3      H2            -44.5369317189       -5.1038627740      -30.5457402070  TIP3      11057           0.0000000000
     83004     11458  TIP3      OH2           -49.7447800715       -5.3813912359      -26.9748757942  TIP3      11058           0.0000000000
     83005     11458  TIP3      H1            -50.1059545212       -4.5965200726      -26.5241116502  TIP3      11058           0.0000000000
     83006     11458  TIP3      H2            -50.4176514762       -5.5487218580      -27.6820298952  TIP3      11058           0.0000000000
     83007     11459  TIP3      OH2           -43.7825080864      -10.0226619901      -39.5593006197  TIP3      11059           0.0000000000
     83008     11459  TIP3      H1            -43.2057257100       -9.8516150932      -38.7733606640  TIP3      11059           0.0000000000
     83009     11459  TIP3      H2            -43.3602360420       -9.5172081559      -40.2760232952  TIP3      11059           0.0000000000
     83010     11460  TIP3      OH2           -52.8213036969       -9.1965554328      -27.7899790434  TIP3      11060           0.0000000000
     83011     11460  TIP3      H1            -52.7801866376       -8.5333593430      -27.0694569660  TIP3      11060           0.0000000000
     83012     11460  TIP3      H2            -53.7396774364       -9.0826431141      -28.0805563031  TIP3      11060           0.0000000000
     83013     11461  TIP3      OH2           -46.0541663476       -3.2875216728      -36.1049693704  TIP3      11061           0.0000000000
     83014     11461  TIP3      H1            -45.5935990815       -2.9782314020      -35.3180591287  TIP3      11061           0.0000000000
     83015     11461  TIP3      H2            -46.6140984242       -2.5383664988      -36.3461816387  TIP3      11061           0.0000000000
     83016     11462  TIP3      OH2           -51.5130791415       -3.3265527468      -26.2247515683  TIP3      11062           0.0000000000
     83017     11462  TIP3      H1            -51.5267048671       -3.4407814422      -27.1906953939  TIP3      11062           0.0000000000
     83018     11462  TIP3      H2            -52.4517373142       -3.4365967000      -25.9807816461  TIP3      11062           0.0000000000
     83019     11463  TIP3      OH2           -40.0598168234      -18.2750226366      -39.7125656601  TIP3      11063           0.0000000000
     83020     11463  TIP3      H1            -40.9982192497      -18.1369852753      -39.4335023442  TIP3      11063           0.0000000000
     83021     11463  TIP3      H2            -39.8296209936      -17.4250452312      -40.1215931153  TIP3      11063           0.0000000000
     83022     11464  TIP3      OH2           -52.0046326480       -9.4959144053      -37.7387241049  TIP3      11064           0.0000000000
     83023     11464  TIP3      H1            -52.3171652767       -8.7188843529      -38.2504647060  TIP3      11064           0.0000000000
     83024     11464  TIP3      H2            -52.6874794598      -10.1495106991      -37.9283777612  TIP3      11064           0.0000000000
     83025     11465  TIP3      OH2           -38.9230740385       -3.9267717948      -41.3329925561  TIP3      11065           0.0000000000
     83026     11465  TIP3      H1            -38.8094799357       -2.9661084660      -41.1882104356  TIP3      11065           0.0000000000
     83027     11465  TIP3      H2            -37.9903796693       -4.2025055742      -41.4018017207  TIP3      11065           0.0000000000
     83028     11466  TIP3      OH2           -55.9046897527       -7.0861060957      -28.9051722918  TIP3      11066           0.0000000000
     83029     11466  TIP3      H1            -56.4171559057       -7.1568529441      -29.7345257255  TIP3      11066           0.0000000000
     83030     11466  TIP3      H2            -55.9095933572       -8.0309327796      -28.6310630719  TIP3      11066           0.0000000000
     83031     11467  TIP3      OH2           -56.1971520880       -4.3433900739      -32.0576626025  TIP3      11067           0.0000000000
     83032     11467  TIP3      H1            -55.2378099548       -4.4766507515      -32.0678154805  TIP3      11067           0.0000000000
     83033     11467  TIP3      H2            -56.2878649500       -3.5450802224      -31.5268193860  TIP3      11067           0.0000000000
     83034     11468  TIP3      OH2           -37.9571480640       -3.6594062498      -26.3882906928  TIP3      11068           0.0000000000
     83035     11468  TIP3      H1            -38.0521015619       -4.6247587211      -26.3917304981  TIP3      11068           0.0000000000
     83036     11468  TIP3      H2            -38.8158029630       -3.4063324070      -25.9670061350  TIP3      11068           0.0000000000
     83037     11469  TIP3      OH2           -46.9969194658       -4.1087126590      -27.5101021059  TIP3      11069           0.0000000000
     83038     11469  TIP3      H1            -46.9225221683       -3.2661949869      -27.0030000520  TIP3      11069           0.0000000000
     83039     11469  TIP3      H2            -47.8718438843       -4.4436071035      -27.2413340771  TIP3      11069           0.0000000000
     83040     11470  TIP3      OH2           -46.5830077307       -0.3514909091      -37.6889325889  TIP3      11070           0.0000000000
     83041     11470  TIP3      H1            -46.6562555516       -0.4442880662      -38.6552384338  TIP3      11070           0.0000000000
     83042     11470  TIP3      H2            -46.5471799899        0.6154528053      -37.5611214614  TIP3      11070           0.0000000000
     83043     11471  TIP3      OH2           -52.9300573303       -1.5013671834      -35.9025014220  TIP3      11071           0.0000000000
     83044     11471  TIP3      H1            -52.7827322108       -1.8989525285      -35.0162752353  TIP3      11071           0.0000000000
     83045     11471  TIP3      H2            -53.7816632970       -1.9020426666      -36.1452301445  TIP3      11071           0.0000000000
     83046     11472  TIP3      OH2           -43.5077935590       -1.1575298637      -40.7177010667  TIP3      11072           0.0000000000
     83047     11472  TIP3      H1            -43.0872886362       -1.9281311524      -41.1553469402  TIP3      11072           0.0000000000
     83048     11472  TIP3      H2            -43.4730430334       -1.4337728810      -39.7783477579  TIP3      11072           0.0000000000
     83049     11473  TIP3      OH2           -43.8094145156       -1.2302924023      -37.9433008303  TIP3      11073           0.0000000000
     83050     11473  TIP3      H1            -44.7648576339       -1.1510051281      -37.7548295907  TIP3      11073           0.0000000000
     83051     11473  TIP3      H2            -43.5500111742       -1.9607202648      -37.3619779031  TIP3      11073           0.0000000000
     83052     11474  TIP3      OH2           -40.8282909756      -12.1753753777      -25.8958252682  TIP3      11074           0.0000000000
     83053     11474  TIP3      H1            -41.2556381168      -11.7091690825      -26.6283466188  TIP3      11074           0.0000000000
     83054     11474  TIP3      H2            -40.7966932553      -13.0934897556      -26.2023118937  TIP3      11074           0.0000000000
     83055     11475  TIP3      OH2           -53.6780886668       -5.7714506806      -27.8927456947  TIP3      11075           0.0000000000
     83056     11475  TIP3      H1            -53.4674382675       -6.1606135560      -27.0179770893  TIP3      11075           0.0000000000
     83057     11475  TIP3      H2            -54.5404999230       -6.1745952011      -28.1128394153  TIP3      11075           0.0000000000
     83058     11476  TIP3      OH2           -51.0181641170      -17.3081557925      -31.9225808411  TIP3      11076           0.0000000000
     83059     11476  TIP3      H1            -51.9216199450      -17.4170230513      -32.3006735121  TIP3      11076           0.0000000000
     83060     11476  TIP3      H2            -51.0987920078      -16.4582971600      -31.4655239717  TIP3      11076           0.0000000000
     83061     11477  TIP3      OH2           -46.3746496152      -17.6068780381      -28.5477559365  TIP3      11077           0.0000000000
     83062     11477  TIP3      H1            -45.9673400037      -18.0386654247      -27.7747314053  TIP3      11077           0.0000000000
     83063     11477  TIP3      H2            -47.3397416447      -17.7738541786      -28.4115308077  TIP3      11077           0.0000000000
     83064     11478  TIP3      OH2           -43.0612086281      -13.8238452343      -27.6778569006  TIP3      11078           0.0000000000
     83065     11478  TIP3      H1            -43.6050687305      -13.9880150084      -26.8692308383  TIP3      11078           0.0000000000
     83066     11478  TIP3      H2            -43.2327803225      -12.9017096620      -27.9164502756  TIP3      11078           0.0000000000
     83067     11479  TIP3      OH2           -42.2478124573       -8.9355114386      -41.8277016650  TIP3      11079           0.0000000000
     83068     11479  TIP3      H1            -42.2403014152       -9.1627745194      -42.7844503369  TIP3      11079           0.0000000000
     83069     11479  TIP3      H2            -41.3909418129       -8.5364085977      -41.6960134038  TIP3      11079           0.0000000000
     83070     11480  TIP3      OH2           -46.7167857899      -15.0834309757      -41.2448533329  TIP3      11080           0.0000000000
     83071     11480  TIP3      H1            -47.0044910900      -15.1036935357      -40.3111482378  TIP3      11080           0.0000000000
     83072     11480  TIP3      H2            -46.9911108034      -15.9653826502      -41.5266590430  TIP3      11080           0.0000000000
     83073     11481  TIP3      OH2           -50.9356109705      -12.3610579336      -30.7555857058  TIP3      11081           0.0000000000
     83074     11481  TIP3      H1            -51.6261209190      -12.3807382707      -30.0709659602  TIP3      11081           0.0000000000
     83075     11481  TIP3      H2            -50.9424457394      -11.4225863431      -31.0524822410  TIP3      11081           0.0000000000
     83076     11482  TIP3      OH2           -50.9518692853      -12.1580688103      -35.8553524935  TIP3      11082           0.0000000000
     83077     11482  TIP3      H1            -51.8721287455      -12.4755307973      -35.9585412902  TIP3      11082           0.0000000000
     83078     11482  TIP3      H2            -50.5353235415      -12.5131806836      -36.6634974060  TIP3      11082           0.0000000000
     83079     11483  TIP3      OH2           -45.4490719839      -11.7389816833      -37.0915429829  TIP3      11083           0.0000000000
     83080     11483  TIP3      H1            -45.8331415874      -10.8851899419      -37.3710881428  TIP3      11083           0.0000000000
     83081     11483  TIP3      H2            -44.7060844235      -11.8594943553      -37.7041603287  TIP3      11083           0.0000000000
     83082     11484  TIP3      OH2           -46.3323965605      -11.5202335213      -25.6068250780  TIP3      11084           0.0000000000
     83083     11484  TIP3      H1            -46.8986478374      -12.2628367050      -25.2785260685  TIP3      11084           0.0000000000
     83084     11484  TIP3      H2            -45.5115109292      -11.6537844393      -25.1182887568  TIP3      11084           0.0000000000
     83085     11485  TIP3      OH2           -43.8330583792      -12.6209593175      -34.8118369161  TIP3      11085           0.0000000000
     83086     11485  TIP3      H1            -44.5224326609      -11.8629758431      -34.9089535074  TIP3      11085           0.0000000000
     83087     11485  TIP3      H2            -44.4142807159      -13.3708816632      -34.7954525314  TIP3      11085           0.0000000000
     83088     11486  TIP3      OH2           -53.2385818177      -12.0483402275      -28.9698868982  TIP3      11086           0.0000000000
     83089     11486  TIP3      H1            -53.2399269864      -11.6520274576      -28.0811125884  TIP3      11086           0.0000000000
     83090     11486  TIP3      H2            -53.7077659545      -12.8823850235      -28.8236876090  TIP3      11086           0.0000000000
     83091     11487  TIP3      OH2           -49.7422150902      -14.4864753937      -41.9006133532  TIP3      11087           0.0000000000
     83092     11487  TIP3      H1            -50.2750474374      -15.1035530539      -41.3639695202  TIP3      11087           0.0000000000
     83093     11487  TIP3      H2            -50.4191486303      -14.2069066065      -42.5344309382  TIP3      11087           0.0000000000
     83094     11488  TIP3      OH2           -56.6023368598      -14.9166560729      -35.0726178735  TIP3      11088           0.0000000000
     83095     11488  TIP3      H1            -55.9550458242      -14.9714744484      -34.3415830807  TIP3      11088           0.0000000000
     83096     11488  TIP3      H2            -56.1587724973      -15.3498191193      -35.8228580081  TIP3      11088           0.0000000000
     83097     11489  TIP3      OH2           -55.3105900946      -14.2413596486      -39.6598689974  TIP3      11089           0.0000000000
     83098     11489  TIP3      H1            -54.8443529831      -13.6048121384      -40.2491360825  TIP3      11089           0.0000000000
     83099     11489  TIP3      H2            -56.0200430129      -13.6487516767      -39.3153192910  TIP3      11089           0.0000000000
     83100     11490  TIP3      OH2           -45.1552419694      -10.6276071576      -29.5954372235  TIP3      11090           0.0000000000
     83101     11490  TIP3      H1            -44.8292628791      -11.2841736821      -30.2462213466  TIP3      11090           0.0000000000
     83102     11490  TIP3      H2            -45.6240900244      -11.1736674315      -28.9444537626  TIP3      11090           0.0000000000
     83103     11491  TIP3      OH2           -48.3832423846      -14.7100162296      -34.8197720082  TIP3      11091           0.0000000000
     83104     11491  TIP3      H1            -49.3103864145      -14.6453668011      -34.5099332868  TIP3      11091           0.0000000000
     83105     11491  TIP3      H2            -47.8824630296      -14.7792918894      -33.9910028857  TIP3      11091           0.0000000000
     83106     11492  TIP3      OH2           -53.5685423534      -13.0975103823      -35.9533781249  TIP3      11092           0.0000000000
     83107     11492  TIP3      H1            -54.4592824971      -12.9711679691      -36.3325478662  TIP3      11092           0.0000000000
     83108     11492  TIP3      H2            -53.2773716483      -13.9374056213      -36.3385629425  TIP3      11092           0.0000000000
     83109     11493  TIP3      OH2           -49.9196101423      -13.0681664252      -38.3157223373  TIP3      11093           0.0000000000
     83110     11493  TIP3      H1            -48.9659454469      -12.9510592261      -38.1409203279  TIP3      11093           0.0000000000
     83111     11493  TIP3      H2            -50.1410044354      -12.4003933745      -38.9868717720  TIP3      11093           0.0000000000
     83112     11494  TIP3      OH2           -43.9653061686      -15.4630254733      -31.5516785578  TIP3      11094           0.0000000000
     83113     11494  TIP3      H1            -44.6650188926      -15.3523415006      -30.8726551990  TIP3      11094           0.0000000000
     83114     11494  TIP3      H2            -44.4690862181      -15.6505277562      -32.3584662944  TIP3      11094           0.0000000000
     83115     11495  TIP3      OH2           -51.2333978883      -11.8875469311      -40.7334600836  TIP3      11095           0.0000000000
     83116     11495  TIP3      H1            -51.7830202581      -12.2517392512      -41.4491945116  TIP3      11095           0.0000000000
     83117     11495  TIP3      H2            -50.3988124733      -11.6879113913      -41.1906132147  TIP3      11095           0.0000000000
     83118     11496  TIP3      OH2           -40.7358940748        0.2104572874      -25.2532281108  TIP3      11096           0.0000000000
     83119     11496  TIP3      H1            -40.4862174720        0.6121782522      -26.0975310529  TIP3      11096           0.0000000000
     83120     11496  TIP3      H2            -40.0339913770        0.5272907389      -24.6540628533  TIP3      11096           0.0000000000
     83121     11497  TIP3      OH2           -53.0866123076       -7.3176790268      -25.6795485112  TIP3      11097           0.0000000000
     83122     11497  TIP3      H1            -52.3700020379       -7.0785997738      -25.0672631429  TIP3      11097           0.0000000000
     83123     11497  TIP3      H2            -53.8821986832       -7.1493103455      -25.1207708338  TIP3      11097           0.0000000000
     83124     11498  TIP3      OH2           -47.3545551659      -12.0945615501      -32.9515128576  TIP3      11098           0.0000000000
     83125     11498  TIP3      H1            -46.5432054266      -12.3880157910      -33.4223231941  TIP3      11098           0.0000000000
     83126     11498  TIP3      H2            -47.2134083468      -12.4631610619      -32.0824549493  TIP3      11098           0.0000000000
     83127     11499  TIP3      OH2           -52.0773887893      -15.7665259962      -36.4883841309  TIP3      11099           0.0000000000
     83128     11499  TIP3      H1            -52.3906166794      -16.6905425428      -36.5213156896  TIP3      11099           0.0000000000
     83129     11499  TIP3      H2            -51.2893678861      -15.8011307018      -37.0467400491  TIP3      11099           0.0000000000
     83130     11500  TIP3      OH2           -48.4485334629      -13.5659960528      -30.5041089181  TIP3      11100           0.0000000000
     83131     11500  TIP3      H1            -49.2774616096      -13.0627316556      -30.4080044824  TIP3      11100           0.0000000000
     83132     11500  TIP3      H2            -47.9088538514      -13.2373162087      -29.7594979855  TIP3      11100           0.0000000000
     83133     11501  TIP3      OH2           -47.8712736967       -7.3322008250      -38.8132169438  TIP3      11101           0.0000000000
     83134     11501  TIP3      H1            -48.6559194748       -7.8298277480      -39.1366786273  TIP3      11101           0.0000000000
     83135     11501  TIP3      H2            -48.0568430378       -7.2653677349      -37.8565390188  TIP3      11101           0.0000000000
     83136     11502  TIP3      OH2           -40.7179403220       -8.1765445533      -30.0089820703  TIP3      11102           0.0000000000
     83137     11502  TIP3      H1            -40.1148376573       -7.7062436710      -30.6070937047  TIP3      11102           0.0000000000
     83138     11502  TIP3      H2            -41.5705168569       -8.0883632250      -30.4972791316  TIP3      11102           0.0000000000
     83139     11503  TIP3      OH2           -43.9980018475      -14.5386069568      -40.6188681533  TIP3      11103           0.0000000000
     83140     11503  TIP3      H1            -44.9465317683      -14.3956933080      -40.7789165716  TIP3      11103           0.0000000000
     83141     11503  TIP3      H2            -43.7058442674      -13.6599490036      -40.3030190043  TIP3      11103           0.0000000000
     83142     11504  TIP3      OH2           -46.3780257579       -7.1218780254      -27.5822991002  TIP3      11104           0.0000000000
     83143     11504  TIP3      H1            -46.7198811593       -7.5153602590      -26.7706118185  TIP3      11104           0.0000000000
     83144     11504  TIP3      H2            -46.5968277607       -6.1888236770      -27.4941883557  TIP3      11104           0.0000000000
     83145     11505  TIP3      OH2           -43.2925611525      -12.6314299878      -38.9598141722  TIP3      11105           0.0000000000
     83146     11505  TIP3      H1            -42.3869647382      -12.7711665278      -38.6199645739  TIP3      11105           0.0000000000
     83147     11505  TIP3      H2            -43.2189936968      -11.8301170565      -39.4950258761  TIP3      11105           0.0000000000
     83148     11506  TIP3      OH2           -52.7647968221       -7.9879487331      -33.0318373243  TIP3      11106           0.0000000000
     83149     11506  TIP3      H1            -52.0409570207       -8.0345633117      -33.6788662445  TIP3      11106           0.0000000000
     83150     11506  TIP3      H2            -52.6966212394       -8.8435702141      -32.5713485358  TIP3      11106           0.0000000000
     83151     11507  TIP3      OH2           -45.7576175425       -5.8707745338      -39.7826898485  TIP3      11107           0.0000000000
     83152     11507  TIP3      H1            -46.0938804233       -5.0345269734      -39.4096773592  TIP3      11107           0.0000000000
     83153     11507  TIP3      H2            -46.4942741853       -6.4907435483      -39.5862582111  TIP3      11107           0.0000000000
     83154     11508  TIP3      OH2           -55.7531012600       -9.5514585267      -27.7401837840  TIP3      11108           0.0000000000
     83155     11508  TIP3      H1            -55.5634754984       -9.9914027203      -26.8931803518  TIP3      11108           0.0000000000
     83156     11508  TIP3      H2            -56.3676235058      -10.1754286676      -28.1706847882  TIP3      11108           0.0000000000
     83157     11509  TIP3      OH2           -48.7540817456      -10.0094944636      -25.5418988077  TIP3      11109           0.0000000000
     83158     11509  TIP3      H1            -49.0515600238      -10.2495615048      -26.4299515359  TIP3      11109           0.0000000000
     83159     11509  TIP3      H2            -47.8188169580      -10.2895739703      -25.5469235805  TIP3      11109           0.0000000000
     83160     11510  TIP3      OH2           -44.1035571941       -4.6778693941      -27.6300628997  TIP3      11110           0.0000000000
     83161     11510  TIP3      H1            -45.0236210472       -4.4845209265      -27.8754684101  TIP3      11110           0.0000000000
     83162     11510  TIP3      H2            -44.1080337037       -4.3917165969      -26.6964294689  TIP3      11110           0.0000000000
     83163     11511  TIP3      OH2           -38.3930121442      -12.4643117674      -39.2282500089  TIP3      11111           0.0000000000
     83164     11511  TIP3      H1            -38.9575789377      -12.8047839281      -39.9480262560  TIP3      11111           0.0000000000
     83165     11511  TIP3      H2            -38.3110324423      -11.5291447868      -39.5303464292  TIP3      11111           0.0000000000
     83166     11512  TIP3      OH2           -38.4164599269       -6.6261666702      -26.4092301401  TIP3      11112           0.0000000000
     83167     11512  TIP3      H1            -39.2945344460       -6.3955340936      -26.7999228770  TIP3      11112           0.0000000000
     83168     11512  TIP3      H2            -37.8483933996       -6.6496631393      -27.2025048836  TIP3      11112           0.0000000000
     83169     11513  TIP3      OH2           -40.1000946212       -3.6424489562      -38.8123608307  TIP3      11113           0.0000000000
     83170     11513  TIP3      H1            -40.4766556911       -4.4717149460      -38.4921744448  TIP3      11113           0.0000000000
     83171     11513  TIP3      H2            -39.8149363374       -3.8346684342      -39.7222791829  TIP3      11113           0.0000000000
     83172     11514  TIP3      OH2           -42.9139882302       -8.8206898348      -31.7343006263  TIP3      11114           0.0000000000
     83173     11514  TIP3      H1            -43.8574829141       -9.0710125831      -31.8335618013  TIP3      11114           0.0000000000
     83174     11514  TIP3      H2            -42.5000212287       -9.6107213016      -32.1371115669  TIP3      11114           0.0000000000
     83175     11515  TIP3      OH2           -50.3914902216       -4.5134559248      -35.6356754098  TIP3      11115           0.0000000000
     83176     11515  TIP3      H1            -49.8777477911       -3.7168019219      -35.8422832041  TIP3      11115           0.0000000000
     83177     11515  TIP3      H2            -51.2742819233       -4.2748066309      -35.9517810032  TIP3      11115           0.0000000000
     83178     11516  TIP3      OH2           -54.6145048793       -9.6386251993      -41.1013356441  TIP3      11116           0.0000000000
     83179     11516  TIP3      H1            -54.0047292476       -9.0178891080      -40.6729819330  TIP3      11116           0.0000000000
     83180     11516  TIP3      H2            -55.4874101718       -9.3570959050      -40.7786504858  TIP3      11116           0.0000000000
     83181     11517  TIP3      OH2           -48.9574023318       -6.8496131019      -36.0857250259  TIP3      11117           0.0000000000
     83182     11517  TIP3      H1            -49.2411122549       -5.9172975592      -36.0197670502  TIP3      11117           0.0000000000
     83183     11517  TIP3      H2            -49.7107538113       -7.3127247674      -35.6668507146  TIP3      11117           0.0000000000
     83184     11518  TIP3      OH2           -48.4970334802       -2.6805228385      -29.7340545019  TIP3      11118           0.0000000000
     83185     11518  TIP3      H1            -48.0796457316       -1.8415564354      -29.9870195045  TIP3      11118           0.0000000000
     83186     11518  TIP3      H2            -47.9112604771       -2.9897053130      -29.0182149268  TIP3      11118           0.0000000000
     83187     11519  TIP3      OH2           -50.2857897989       -1.8363237005      -36.5499045486  TIP3      11119           0.0000000000
     83188     11519  TIP3      H1            -51.2539856936       -1.7091465250      -36.4568655598  TIP3      11119           0.0000000000
     83189     11519  TIP3      H2            -49.9353389188       -0.9988051614      -36.1924491000  TIP3      11119           0.0000000000
     83190     11520  TIP3      OH2           -44.9312714194       -6.6035608857      -30.0545032889  TIP3      11120           0.0000000000
     83191     11520  TIP3      H1            -45.3381009681       -6.8417709517      -29.2029524414  TIP3      11120           0.0000000000
     83192     11520  TIP3      H2            -44.3398535593       -7.3501885032      -30.2461249200  TIP3      11120           0.0000000000
     83193     11521  TIP3      OH2           -42.7044293647       -5.6447764287      -40.9810667589  TIP3      11121           0.0000000000
     83194     11521  TIP3      H1            -42.3759245832       -6.0595427174      -40.1573122407  TIP3      11121           0.0000000000
     83195     11521  TIP3      H2            -43.6617449728       -5.7696081276      -40.8855374466  TIP3      11121           0.0000000000
     83196     11522  TIP3      OH2           -42.2164676186       -2.0550862361      -27.5745647718  TIP3      11122           0.0000000000
     83197     11522  TIP3      H1            -42.8650359802       -2.5900694974      -28.0779687076  TIP3      11122           0.0000000000
     83198     11522  TIP3      H2            -41.9889484505       -1.3765033930      -28.2329778581  TIP3      11122           0.0000000000
     83199     11523  TIP3      OH2           -38.1955773036       -1.2048263167      -40.7535070171  TIP3      11123           0.0000000000
     83200     11523  TIP3      H1            -37.4705982159       -0.5837596001      -40.9425058148  TIP3      11123           0.0000000000
     83201     11523  TIP3      H2            -38.9086026779       -0.6054421347      -40.4440453932  TIP3      11123           0.0000000000
     83202     11524  TIP3      OH2           -54.1170886567      -14.8084861283      -28.1947260293  TIP3      11124           0.0000000000
     83203     11524  TIP3      H1            -55.0287794622      -14.4729969680      -28.2463558145  TIP3      11124           0.0000000000
     83204     11524  TIP3      H2            -54.2215937461      -15.6702427240      -27.7582422802  TIP3      11124           0.0000000000
     83205     11525  TIP3      OH2           -41.8601272042       -6.9734349535      -38.7616118607  TIP3      11125           0.0000000000
     83206     11525  TIP3      H1            -42.1177586556       -7.7395809456      -38.2051571376  TIP3      11125           0.0000000000
     83207     11525  TIP3      H2            -40.9176091265       -6.8863693338      -38.5396917060  TIP3      11125           0.0000000000
     83208     11526  TIP3      OH2           -54.4758313600       -3.0109621204      -29.7644284630  TIP3      11126           0.0000000000
     83209     11526  TIP3      H1            -54.2340849153       -3.9503012011      -29.7671321445  TIP3      11126           0.0000000000
     83210     11526  TIP3      H2            -54.2293552165       -2.7391398348      -28.8707870380  TIP3      11126           0.0000000000
     83211     11527  TIP3      OH2           -49.7095808225       -4.9748213780      -40.0766471593  TIP3      11127           0.0000000000
     83212     11527  TIP3      H1            -49.5178726057       -5.5082601535      -39.2956098112  TIP3      11127           0.0000000000
     83213     11527  TIP3      H2            -49.6797373652       -4.0568677876      -39.7495852863  TIP3      11127           0.0000000000
     83214     11528  TIP3      OH2           -53.2379689344       -7.7364589636      -39.5771589087  TIP3      11128           0.0000000000
     83215     11528  TIP3      H1            -53.9130686251       -7.3568286390      -38.9874130074  TIP3      11128           0.0000000000
     83216     11528  TIP3      H2            -52.6960270492       -6.9618209656      -39.8156835556  TIP3      11128           0.0000000000
     83217     11529  TIP3      OH2           -45.3944085778      -15.0572893998      -29.2778235438  TIP3      11129           0.0000000000
     83218     11529  TIP3      H1            -44.6889421530      -14.9971520064      -28.6202083866  TIP3      11129           0.0000000000
     83219     11529  TIP3      H2            -45.7726793454      -15.9443418222      -29.1004706114  TIP3      11129           0.0000000000
     83220     11530  TIP3      OH2           -44.6399006837      -15.4436547059      -38.1703000598  TIP3      11130           0.0000000000
     83221     11530  TIP3      H1            -44.3882228431      -14.9628495950      -38.9857518681  TIP3      11130           0.0000000000
     83222     11530  TIP3      H2            -44.0537111003      -15.0258733452      -37.5108714420  TIP3      11130           0.0000000000
     83223     11531  TIP3      OH2           -46.9468126689       -3.3023307557      -39.3275962781  TIP3      11131           0.0000000000
     83224     11531  TIP3      H1            -47.7663457646       -2.7838776448      -39.2750983266  TIP3      11131           0.0000000000
     83225     11531  TIP3      H2            -46.4129016200       -2.8003827573      -39.9653426464  TIP3      11131           0.0000000000
     83226     11532  TIP3      OH2           -47.4215294468      -13.7126728237      -37.3545936432  TIP3      11132           0.0000000000
     83227     11532  TIP3      H1            -46.6081887645      -13.1637433276      -37.3073458440  TIP3      11132           0.0000000000
     83228     11532  TIP3      H2            -47.6603541907      -13.8450156717      -36.4208625913  TIP3      11132           0.0000000000
     83229     11533  TIP3      OH2           -46.8781409992      -12.7122645480      -28.1510014016  TIP3      11133           0.0000000000
     83230     11533  TIP3      H1            -46.7688043955      -12.1280370625      -27.3792216828  TIP3      11133           0.0000000000
     83231     11533  TIP3      H2            -46.2091721275      -13.3992765309      -28.0510464212  TIP3      11133           0.0000000000
     83232     11534  TIP3      OH2           -46.5494084003      -16.6381819268      -36.4379180177  TIP3      11134           0.0000000000
     83233     11534  TIP3      H1            -46.8742282924      -15.9938151421      -35.7849997293  TIP3      11134           0.0000000000
     83234     11534  TIP3      H2            -45.8615059070      -16.0998986641      -36.9015525600  TIP3      11134           0.0000000000
     83235     11535  TIP3      OH2           -49.6008787165       -2.2650380700      -39.3355626185  TIP3      11135           0.0000000000
     83236     11535  TIP3      H1            -49.4352775739       -1.4386457582      -39.8344673831  TIP3      11135           0.0000000000
     83237     11535  TIP3      H2            -49.8130418209       -1.9288004759      -38.4398961231  TIP3      11135           0.0000000000
     83238     11536  TIP3      OH2           -50.8864638374      -15.5674602389      -39.7327030074  TIP3      11136           0.0000000000
     83239     11536  TIP3      H1            -50.9507462165      -14.6545931819      -39.3738274393  TIP3      11136           0.0000000000
     83240     11536  TIP3      H2            -49.9773221502      -15.8027286980      -39.4728780991  TIP3      11136           0.0000000000
     83241     11537  TIP3      OH2           -40.6607543823      -14.8173517216      -27.3115928869  TIP3      11137           0.0000000000
     83242     11537  TIP3      H1            -41.6008072055      -14.5278705368      -27.4280592079  TIP3      11137           0.0000000000
     83243     11537  TIP3      H2            -40.3571506025      -14.8174069208      -28.2334165182  TIP3      11137           0.0000000000
     83244     11538  TIP3      OH2           -42.0129343614      -11.0434742176      -33.2700048329  TIP3      11138           0.0000000000
     83245     11538  TIP3      H1            -42.8778291011      -11.4428422731      -33.5641837113  TIP3      11138           0.0000000000
     83246     11538  TIP3      H2            -41.6145270630      -11.7536577088      -32.7464877545  TIP3      11138           0.0000000000
     83247     11539  TIP3      OH2           -52.6419889111       -5.1136598268      -40.6849838052  TIP3      11139           0.0000000000
     83248     11539  TIP3      H1            -52.0131617733       -4.4425546985      -40.3929712571  TIP3      11139           0.0000000000
     83249     11539  TIP3      H2            -52.1344455845       -5.5690380908      -41.3848363824  TIP3      11139           0.0000000000
     83250     11540  TIP3      OH2           -54.2842383995      -12.4531801190      -41.5144983476  TIP3      11140           0.0000000000
     83251     11540  TIP3      H1            -54.3293148663      -11.4910823182      -41.3741247910  TIP3      11140           0.0000000000
     83252     11540  TIP3      H2            -55.1665657358      -12.6724455766      -41.8414970749  TIP3      11140           0.0000000000
     83253     11541  TIP3      OH2           -41.0005220955       -1.7757846038      -31.5937228777  TIP3      11141           0.0000000000
     83254     11541  TIP3      H1            -41.1241794559       -1.1166200552      -32.3022105074  TIP3      11141           0.0000000000
     83255     11541  TIP3      H2            -40.0359558591       -1.7359618747      -31.4334856607  TIP3      11141           0.0000000000
     83256     11542  TIP3      OH2           -53.5037730375      -17.6501535024      -32.8498087085  TIP3      11142           0.0000000000
     83257     11542  TIP3      H1            -53.7210173573      -17.6287082097      -33.8063102501  TIP3      11142           0.0000000000
     83258     11542  TIP3      H2            -53.9343075858      -18.4865043383      -32.5730818842  TIP3      11142           0.0000000000
     83259     11543  TIP3      OH2           -54.5558880138       -3.7468381388      -36.6979700260  TIP3      11143           0.0000000000
     83260     11543  TIP3      H1            -55.3963019844       -3.2604274646      -36.7091873396  TIP3      11143           0.0000000000
     83261     11543  TIP3      H2            -54.0345002173       -3.2427010821      -37.3382281299  TIP3      11143           0.0000000000
     83262     11544  TIP3      OH2           -55.2622550790       -1.1123555099      -25.4295269211  TIP3      11144           0.0000000000
     83263     11544  TIP3      H1            -54.7391010308       -1.3197130932      -24.6330199920  TIP3      11144           0.0000000000
     83264     11544  TIP3      H2            -55.7575503105       -1.9256522660      -25.5666902848  TIP3      11144           0.0000000000
     83265     11545  TIP3      OH2           -50.6769879435       -2.1967239509      -23.7436576978  TIP3      11145           0.0000000000
     83266     11545  TIP3      H1            -49.8869352170       -2.6625572554      -23.4670278584  TIP3      11145           0.0000000000
     83267     11545  TIP3      H2            -50.7105476150       -2.4248362233      -24.7045620058  TIP3      11145           0.0000000000
     83268     11546  TIP3      OH2           -46.2546469347       -2.5414313055      -41.8977282819  TIP3      11146           0.0000000000
     83269     11546  TIP3      H1            -47.0529737923       -3.1284160337      -41.9661121835  TIP3      11146           0.0000000000
     83270     11546  TIP3      H2            -45.7856738969       -3.1045492001      -42.5205269847  TIP3      11146           0.0000000000
     83271     11547  TIP3      OH2           -44.1229643177       -3.8050982632      -25.0619093648  TIP3      11147           0.0000000000
     83272     11547  TIP3      H1            -44.4637467095       -4.6809417599      -24.7805934177  TIP3      11147           0.0000000000
     83273     11547  TIP3      H2            -43.3781811086       -3.6726319103      -24.4447160428  TIP3      11147           0.0000000000
     83274     11548  TIP3      OH2           -41.9810927132       -2.8784507070      -42.1722840618  TIP3      11148           0.0000000000
     83275     11548  TIP3      H1            -41.6968371230       -3.6841095425      -41.7001875910  TIP3      11148           0.0000000000
     83276     11548  TIP3      H2            -41.2165294965       -2.6558899419      -42.7185692048  TIP3      11148           0.0000000000
     83277     11549  TIP3      OH2           -55.3611174153       -7.3224686391      -24.4126050346  TIP3      11149           0.0000000000
     83278     11549  TIP3      H1            -55.2443198307       -8.2374315438      -24.7143151805  TIP3      11149           0.0000000000
     83279     11549  TIP3      H2            -56.1375619131       -7.0294638973      -24.9356892557  TIP3      11149           0.0000000000
     83280     11550  TIP3      OH2           -51.0017552314       -6.9174857419      -42.2575885857  TIP3      11150           0.0000000000
     83281     11550  TIP3      H1            -50.9529376068       -7.7522626598      -41.7774725911  TIP3      11150           0.0000000000
     83282     11550  TIP3      H2            -50.3932644917       -7.1137623204      -42.9948740070  TIP3      11150           0.0000000000
     83283     11551  TIP3      OH2           -48.6942230222       -7.3240837497      -25.0068251498  TIP3      11151           0.0000000000
     83284     11551  TIP3      H1            -49.0477444220       -7.0490121738      -25.8711394162  TIP3      11151           0.0000000000
     83285     11551  TIP3      H2            -48.5905638598       -8.3012388894      -25.0962374155  TIP3      11151           0.0000000000
     83286     11552  TIP3      OH2           -42.9948249624       -7.4521381071      -27.6069968568  TIP3      11152           0.0000000000
     83287     11552  TIP3      H1            -42.2297886525       -6.8462800943      -27.7195840801  TIP3      11152           0.0000000000
     83288     11552  TIP3      H2            -43.7294111822       -6.8234679688      -27.5698816600  TIP3      11152           0.0000000000
     83289     11553  TIP3      OH2           -54.5201093043      -10.0886378055      -25.0093793469  TIP3      11153           0.0000000000
     83290     11553  TIP3      H1            -54.1128940187      -10.9612099345      -25.1216957558  TIP3      11153           0.0000000000
     83291     11553  TIP3      H2            -54.7849703464      -10.1007963861      -24.0831453851  TIP3      11153           0.0000000000
     83292     11554  TIP3      OH2           -49.8763170721       -8.9544912883      -39.9810039704  TIP3      11154           0.0000000000
     83293     11554  TIP3      H1            -50.3504433234       -9.4774810153      -39.3130789668  TIP3      11154           0.0000000000
     83294     11554  TIP3      H2            -49.5986856787       -9.6568837654      -40.6166817405  TIP3      11154           0.0000000000
     83295     11555  TIP3      OH2           -50.5956448446      -11.1246730370      -27.6411063998  TIP3      11155           0.0000000000
     83296     11555  TIP3      H1            -51.2063885870      -10.4182045685      -27.3698894033  TIP3      11155           0.0000000000
     83297     11555  TIP3      H2            -50.2346593856      -10.7732367453      -28.4722405292  TIP3      11155           0.0000000000
     83298     11556  TIP3      OH2           -48.8108503917      -10.7391046812      -41.7349886094  TIP3      11156           0.0000000000
     83299     11556  TIP3      H1            -48.9610517236      -10.9123794862      -42.6724615340  TIP3      11156           0.0000000000
     83300     11556  TIP3      H2            -47.8326011246      -10.6441412761      -41.6682789413  TIP3      11156           0.0000000000
     83301     11557  TIP3      OH2           -45.5608290742       -8.6081046837      -24.3369758371  TIP3      11157           0.0000000000
     83302     11557  TIP3      H1            -44.5989131821       -8.5507888909      -24.3972526361  TIP3      11157           0.0000000000
     83303     11557  TIP3      H2            -45.7300704465       -9.3445616022      -23.7332869166  TIP3      11157           0.0000000000
     83304     11558  TIP3      OH2           -39.5372157714       -8.3290187702       42.7726659507  TIP3      11158           0.0000000000
     83305     11558  TIP3      H1            -39.6953417621       -8.8016794787       41.9313332173  TIP3      11158           0.0000000000
     83306     11558  TIP3      H2            -39.3810945242       -7.4192750415       42.4966784235  TIP3      11158           0.0000000000
     83307     11559  TIP3      OH2           -50.2352118413      -13.7547881875      -26.5606143999  TIP3      11159           0.0000000000
     83308     11559  TIP3      H1            -50.0972104154      -14.4797851173      -27.1897037757  TIP3      11159           0.0000000000
     83309     11559  TIP3      H2            -50.2485634702      -12.9580962999      -27.1287904438  TIP3      11159           0.0000000000
     83310     11560  TIP3      OH2           -49.8183401490      -15.3826433466      -29.0451813696  TIP3      11160           0.0000000000
     83311     11560  TIP3      H1            -49.2936537103      -14.9202883183      -29.7387894992  TIP3      11160           0.0000000000
     83312     11560  TIP3      H2            -50.6962530424      -15.4742087859      -29.4808705544  TIP3      11160           0.0000000000
     83313     11561  TIP3      OH2           -48.2581615836       -9.9268329799      -28.7996920835  TIP3      11161           0.0000000000
     83314     11561  TIP3      H1            -47.5067116552      -10.0832439702      -29.3942933526  TIP3      11161           0.0000000000
     83315     11561  TIP3      H2            -48.6009612864       -9.0767056259      -29.1190960590  TIP3      11161           0.0000000000
     83316     11562  TIP3      OH2           -43.8550838861      -12.1257079717      -23.7655279438  TIP3      11162           0.0000000000
     83317     11562  TIP3      H1            -43.6460838062      -13.0664600308      -23.9108362660  TIP3      11162           0.0000000000
     83318     11562  TIP3      H2            -42.9804000876      -11.7025702751      -23.8326451333  TIP3      11162           0.0000000000
     83319     11563  TIP3      OH2           -42.5349584010       -9.3510355486      -25.6944870249  TIP3      11163           0.0000000000
     83320     11563  TIP3      H1            -42.7887018088       -8.6203816418      -26.3066312540  TIP3      11163           0.0000000000
     83321     11563  TIP3      H2            -41.5732933915       -9.3907693311      -25.8802537913  TIP3      11163           0.0000000000
     83322     11564  TIP3      OH2           -51.7685556943      -12.5207146642      -24.6531343795  TIP3      11164           0.0000000000
     83323     11564  TIP3      H1            -52.5313186967      -13.0915037892      -24.8585141035  TIP3      11164           0.0000000000
     83324     11564  TIP3      H2            -51.0917267694      -12.8736028464      -25.2563000611  TIP3      11164           0.0000000000
     83325     11565  TIP3      OH2           -49.0216559136      -17.9460312267      -28.6243230009  TIP3      11165           0.0000000000
     83326     11565  TIP3      H1            -49.1556955085      -16.9753739029      -28.7415696942  TIP3      11165           0.0000000000
     83327     11565  TIP3      H2            -49.7785433956      -18.3058394699      -29.1282981916  TIP3      11165           0.0000000000
     83328     11566  TIP3      OH2           -47.7407594318      -13.6242534466      -25.0570325607  TIP3      11166           0.0000000000
     83329     11566  TIP3      H1            -48.0231212397      -13.8282839227      -24.1409655055  TIP3      11166           0.0000000000
     83330     11566  TIP3      H2            -48.5510064365      -13.8067920638      -25.5686485229  TIP3      11166           0.0000000000
     83331     11567  TIP3      OH2           -45.0342641593      -14.4687191494      -25.9731007878  TIP3      11167           0.0000000000
     83332     11567  TIP3      H1            -46.0005539599      -14.4386871078      -25.8460439788  TIP3      11167           0.0000000000
     83333     11567  TIP3      H2            -44.7483933494      -15.1143062263      -25.3077043564  TIP3      11167           0.0000000000
     83334     11568  TIP3      OH2           -43.4203074900      -15.8392503967      -24.0158485942  TIP3      11168           0.0000000000
     83335     11568  TIP3      H1            -43.5104491271      -16.8087699930      -23.9972382998  TIP3      11168           0.0000000000
     83336     11568  TIP3      H2            -43.7249974429      -15.5674569188      -23.1212752490  TIP3      11168           0.0000000000
     83337     11569  TIP3      OH2           -53.6005160309      -14.5961834052      -24.9358172178  TIP3      11169           0.0000000000
     83338     11569  TIP3      H1            -53.3851608973      -15.3342506232      -25.5385761458  TIP3      11169           0.0000000000
     83339     11569  TIP3      H2            -53.7076796950      -15.0623026530      -24.0845993543  TIP3      11169           0.0000000000
     83340     11570  TIP3      OH2           -48.8108015212      -18.5984136231      -25.9459922022  TIP3      11170           0.0000000000
     83341     11570  TIP3      H1            -48.0980515702      -19.2687796556      -25.9846685304  TIP3      11170           0.0000000000
     83342     11570  TIP3      H2            -48.9067890776      -18.3810422121      -26.8917989269  TIP3      11170           0.0000000000
     83343     11571  TIP3      OH2           -48.4384573158      -16.9558739984      -23.8843997971  TIP3      11171           0.0000000000
     83344     11571  TIP3      H1            -48.5995182318      -17.4358914325      -24.7276623043  TIP3      11171           0.0000000000
     83345     11571  TIP3      H2            -49.0458889057      -16.1923225563      -23.9517717735  TIP3      11171           0.0000000000
     83346     11572  TIP3      OH2           -48.9399021631       -0.0534874869      -40.7330629532  TIP3      11172           0.0000000000
     83347     11572  TIP3      H1            -47.9756965649        0.0863793858      -40.5916926721  TIP3      11172           0.0000000000
     83348     11572  TIP3      H2            -49.1585909283        0.6252674937      -41.3670791737  TIP3      11172           0.0000000000
     83349     11573  TIP3      OH2           -55.3498648671       -5.4534560987      -41.2213555186  TIP3      11173           0.0000000000
     83350     11573  TIP3      H1            -54.3989100817       -5.3383313258      -40.9874887675  TIP3      11173           0.0000000000
     83351     11573  TIP3      H2            -55.3040243754       -6.0840462760      -41.9410721609  TIP3      11173           0.0000000000
     83352     11574  TIP3      OH2            56.2035458113       -0.0409762647      -36.2023037466  TIP3      11174           0.0000000000
     83353     11574  TIP3      H1             55.5049252819       -0.5235161895      -36.7028336857  TIP3      11174           0.0000000000
     83354     11574  TIP3      H2             56.4999507424       -0.7200288461      -35.5726855246  TIP3      11174           0.0000000000
     83355     11575  TIP3      OH2           -55.8142297798       -1.9409653726      -34.3742704837  TIP3      11175           0.0000000000
     83356     11575  TIP3      H1            -56.1673610785       -2.8257046728      -34.1786111852  TIP3      11175           0.0000000000
     83357     11575  TIP3      H2            -55.6014829115       -1.6067987191      -33.4829986230  TIP3      11175           0.0000000000
     83358     11576  TIP3      OH2           -38.3083544039       -1.0977776025      -31.3984799472  TIP3      11176           0.0000000000
     83359     11576  TIP3      H1            -38.2547017289       -0.9869394637      -30.4388794789  TIP3      11176           0.0000000000
     83360     11576  TIP3      H2            -37.5582973014       -0.5857028757      -31.7289714999  TIP3      11176           0.0000000000
     83361     11577  TIP3      OH2           -38.7050007659       -1.5381159405      -28.4747605207  TIP3      11177           0.0000000000
     83362     11577  TIP3      H1            -39.1848561019       -2.3226714786      -28.8355621989  TIP3      11177           0.0000000000
     83363     11577  TIP3      H2            -38.1781489690       -1.9867680522      -27.7794044622  TIP3      11177           0.0000000000
     83364     11578  TIP3      OH2           -40.2663353941       -5.7981801155      -23.8357395849  TIP3      11178           0.0000000000
     83365     11578  TIP3      H1            -41.1309501905       -5.8792081514      -23.4196487463  TIP3      11178           0.0000000000
     83366     11578  TIP3      H2            -39.8779346013       -5.0232295658      -23.3732576067  TIP3      11178           0.0000000000
     83367     11579  TIP3      OH2           -38.9523697940       -7.5105848928      -38.3469125323  TIP3      11179           0.0000000000
     83368     11579  TIP3      H1            -38.0940543918       -7.1026503607      -38.1697979973  TIP3      11179           0.0000000000
     83369     11579  TIP3      H2            -38.9514498496       -8.2506180339      -37.6959127097  TIP3      11179           0.0000000000
     83370     11580  TIP3      OH2           -38.5731113872       -9.4433753712      -36.4973567136  TIP3      11180           0.0000000000
     83371     11580  TIP3      H1            -39.3120315443       -9.9504488694      -36.0929089935  TIP3      11180           0.0000000000
     83372     11580  TIP3      H2            -37.9774724802       -9.2740204328      -35.7389817097  TIP3      11180           0.0000000000
     83373     11581  TIP3      OH2           -38.8201714534       -6.7085174984      -31.5170425122  TIP3      11181           0.0000000000
     83374     11581  TIP3      H1            -37.9804013631       -7.0774439534      -31.8502769011  TIP3      11181           0.0000000000
     83375     11581  TIP3      H2            -38.6827608537       -5.7490311883      -31.6698185521  TIP3      11181           0.0000000000
     83376     11582  TIP3      OH2           -40.2854033061       -3.7987346633      -29.2310619740  TIP3      11182           0.0000000000
     83377     11582  TIP3      H1            -40.9714067185       -3.4900089275      -28.6178501913  TIP3      11182           0.0000000000
     83378     11582  TIP3      H2            -40.8302942273       -4.2382211168      -29.9221073924  TIP3      11182           0.0000000000
     83379     11583  TIP3      OH2           -38.2871412239       -9.5939230622      -40.1038594600  TIP3      11183           0.0000000000
     83380     11583  TIP3      H1            -38.8398667992       -9.2186497887      -40.8148877145  TIP3      11183           0.0000000000
     83381     11583  TIP3      H2            -38.3419983872       -8.8927252471      -39.4261768182  TIP3      11183           0.0000000000
     83382     11584  TIP3      OH2           -40.1720624440      -12.3213529724      -41.4709388047  TIP3      11184           0.0000000000
     83383     11584  TIP3      H1            -39.8434333467      -11.7141385605      -42.1623393101  TIP3      11184           0.0000000000
     83384     11584  TIP3      H2            -40.0857505423      -13.1493866317      -41.9895888862  TIP3      11184           0.0000000000
     83385     11585  TIP3      OH2           -40.7513204326      -10.9465757843      -35.9281308367  TIP3      11185           0.0000000000
     83386     11585  TIP3      H1            -40.9347854724      -11.8979593375      -35.9435863826  TIP3      11185           0.0000000000
     83387     11585  TIP3      H2            -41.1289739587      -10.6980094026      -35.0660788628  TIP3      11185           0.0000000000
     83388     11586  TIP3      OH2           -55.7441111788       -8.8791563063      -31.8818289199  TIP3      11186           0.0000000000
     83389     11586  TIP3      H1            -55.5620636612       -8.9506114541      -32.8455302662  TIP3      11186           0.0000000000
     83390     11586  TIP3      H2            -54.8644633463       -9.0198407188      -31.4907642442  TIP3      11186           0.0000000000
     83391     11587  TIP3      OH2           -39.9225616154       -8.9769735820      -26.2601446152  TIP3      11187           0.0000000000
     83392     11587  TIP3      H1            -39.3167455889       -9.7299586494      -26.0889281781  TIP3      11187           0.0000000000
     83393     11587  TIP3      H2            -39.3275050539       -8.2027515108      -26.2421982050  TIP3      11187           0.0000000000
     83394     11588  TIP3      OH2           -38.4087131028      -11.0713152373      -25.6076516709  TIP3      11188           0.0000000000
     83395     11588  TIP3      H1            -39.2880387190      -11.4798091071      -25.7572881005  TIP3      11188           0.0000000000
     83396     11588  TIP3      H2            -37.8231855424      -11.8428844529      -25.6667685564  TIP3      11188           0.0000000000
     83397     11589  TIP3      OH2           -40.6846855494      -14.9296111954      -42.4508931707  TIP3      11189           0.0000000000
     83398     11589  TIP3      H1            -40.0824296814      -15.3231410518      -41.7930615950  TIP3      11189           0.0000000000
     83399     11589  TIP3      H2            -41.5453614841      -15.3283190452      -42.2443370375  TIP3      11189           0.0000000000
     83400     11590  TIP3      OH2           -41.0823375766      -13.3564277612      -37.4593752341  TIP3      11190           0.0000000000
     83401     11590  TIP3      H1            -40.7836198196      -14.2873039614      -37.3359747491  TIP3      11190           0.0000000000
     83402     11590  TIP3      H2            -40.3031418203      -12.9456937912      -37.8518577986  TIP3      11190           0.0000000000
     83403     11591  TIP3      OH2           -40.4565101848      -12.8221092577      -32.0253336150  TIP3      11191           0.0000000000
     83404     11591  TIP3      H1            -39.5073871717      -12.5718012957      -32.0486428322  TIP3      11191           0.0000000000
     83405     11591  TIP3      H2            -40.6758714830      -12.6751994380      -31.0942772742  TIP3      11191           0.0000000000
     83406     11592  TIP3      OH2           -40.4039926663      -12.0830859227      -29.2443013026  TIP3      11192           0.0000000000
     83407     11592  TIP3      H1            -41.2774861636      -11.7887239358      -28.9027106226  TIP3      11192           0.0000000000
     83408     11592  TIP3      H2            -39.9696406348      -11.2243773946      -29.4627565971  TIP3      11192           0.0000000000
     83409     11593  TIP3      OH2           -56.1276925071      -13.5801919967      -25.7646408706  TIP3      11193           0.0000000000
     83410     11593  TIP3      H1            -55.1986563935      -13.7469286409      -25.5238483446  TIP3      11193           0.0000000000
     83411     11593  TIP3      H2            -56.5739477727      -14.3755398620      -25.3893082192  TIP3      11193           0.0000000000
     83412     11594  TIP3      OH2           -38.1547849490      -18.0813794727      -23.8943726099  TIP3      11194           0.0000000000
     83413     11594  TIP3      H1            -37.7695204067      -18.7185903801      -24.5111842074  TIP3      11194           0.0000000000
     83414     11594  TIP3      H2            -37.9952667890      -17.2316758242      -24.3586888429  TIP3      11194           0.0000000000
     83415     11595  TIP3      OH2           -40.4283836596      -16.0953567874      -37.4233955333  TIP3      11195           0.0000000000
     83416     11595  TIP3      H1            -40.2566340151      -16.5413211686      -36.5700472528  TIP3      11195           0.0000000000
     83417     11595  TIP3      H2            -41.0541053432      -16.7016010132      -37.8734696333  TIP3      11195           0.0000000000
     83418     11596  TIP3      OH2           -54.9297658797      -15.2749502407      -32.8888207834  TIP3      11196           0.0000000000
     83419     11596  TIP3      H1            -54.4825050625      -16.0882619601      -32.5778798942  TIP3      11196           0.0000000000
     83420     11596  TIP3      H2            -54.4382059850      -14.5674433480      -32.4516849390  TIP3      11196           0.0000000000
     83421     11597  TIP3      OH2           -56.5881834406      -12.3000532756      -31.7868123611  TIP3      11197           0.0000000000
     83422     11597  TIP3      H1            -56.0918831336      -12.5068710181      -32.5998716474  TIP3      11197           0.0000000000
     83423     11597  TIP3      H2            -56.2238626431      -11.4429371950      -31.5446534981  TIP3      11197           0.0000000000
     83424     11598  TIP3      OH2           -38.5956227830      -15.9549369650      -25.5332219918  TIP3      11198           0.0000000000
     83425     11598  TIP3      H1            -39.5399182830      -15.6874652948      -25.5920762056  TIP3      11198           0.0000000000
     83426     11598  TIP3      H2            -38.5254855698      -16.4899272808      -26.3384822011  TIP3      11198           0.0000000000
     83427     11599  TIP3      OH2           -38.6058514872      -16.0346365253      -40.8606808208  TIP3      11199           0.0000000000
     83428     11599  TIP3      H1            -38.1686567762      -16.7472454526      -41.3588048179  TIP3      11199           0.0000000000
     83429     11599  TIP3      H2            -37.8909190282      -15.3706577499      -40.8339562039  TIP3      11199           0.0000000000
     83430     11600  TIP3      OH2            56.5387583691      -16.0262209127      -37.7550507678  TIP3      11200           0.0000000000
     83431     11600  TIP3      H1             55.5978608741      -15.8224424941      -37.8882345286  TIP3      11200           0.0000000000
     83432     11600  TIP3      H2             56.9809784631      -15.5343253009      -38.4647475133  TIP3      11200           0.0000000000
     83433     11601  TIP3      OH2           -41.5535787919       -1.0581878425      -35.8051922806  TIP3      11201           0.0000000000
     83434     11601  TIP3      H1            -40.8742882470       -1.3864703081      -36.4214796376  TIP3      11201           0.0000000000
     83435     11601  TIP3      H2            -41.0243678469       -0.5637830061      -35.1670863284  TIP3      11201           0.0000000000
     83436     11602  TIP3      OH2            56.5287812221      -17.3312736940      -29.4471826072  TIP3      11202           0.0000000000
     83437     11602  TIP3      H1             55.8597606893      -17.5231732547      -28.7621450216  TIP3      11202           0.0000000000
     83438     11602  TIP3      H2             56.0524143225      -16.6717215341      -29.9978096922  TIP3      11202           0.0000000000
     83439     11603  TIP3      OH2           -54.1378323936       -4.1255825147      -25.2742116527  TIP3      11203           0.0000000000
     83440     11603  TIP3      H1            -54.9686525211       -3.9580057629      -25.7155745317  TIP3      11203           0.0000000000
     83441     11603  TIP3      H2            -54.3971010224       -4.2099304899      -24.3485809466  TIP3      11203           0.0000000000
     83442     11604  TIP3      OH2           -51.2124152983       -3.1559145264      -29.0051188152  TIP3      11204           0.0000000000
     83443     11604  TIP3      H1            -51.5992592353       -2.3163030219      -29.2951148290  TIP3      11204           0.0000000000
     83444     11604  TIP3      H2            -50.2860720856       -3.0533444959      -29.3180933080  TIP3      11204           0.0000000000
     83445     11605  TIP3      OH2           -46.8907141752       -1.7424701339      -26.0824288176  TIP3      11205           0.0000000000
     83446     11605  TIP3      H1            -46.7014525568       -2.0714097649      -25.1664616477  TIP3      11205           0.0000000000
     83447     11605  TIP3      H2            -46.0073916800       -1.4309560304      -26.3593663174  TIP3      11205           0.0000000000
     83448     11606  TIP3      OH2           -44.5739586625       -0.4604152274      -26.8127308285  TIP3      11206           0.0000000000
     83449     11606  TIP3      H1            -43.8573094527       -1.0762700389      -27.0396027256  TIP3      11206           0.0000000000
     83450     11606  TIP3      H2            -44.2132933691       -0.0496545546      -25.9945592100  TIP3      11206           0.0000000000
     83451     11607  TIP3      OH2           -39.5982492265      -17.8520183271      -27.7054506340  TIP3      11207           0.0000000000
     83452     11607  TIP3      H1            -40.4292192160      -17.5531888950      -28.1219316431  TIP3      11207           0.0000000000
     83453     11607  TIP3      H2            -39.4002952066      -18.6484451895      -28.2494507566  TIP3      11207           0.0000000000
     83454     11608  TIP3      OH2           -53.7888989807        0.0814835732      -28.9899575173  TIP3      11208           0.0000000000
     83455     11608  TIP3      H1            -54.5215734298        0.5680727587      -29.4124820768  TIP3      11208           0.0000000000
     83456     11608  TIP3      H2            -54.1450952531       -0.1174359856      -28.1067750548  TIP3      11208           0.0000000000
     83457     11609  TIP3      OH2           -51.2968306047       -0.3134784253      -29.9294013215  TIP3      11209           0.0000000000
     83458     11609  TIP3      H1            -52.1943436850       -0.2049452696      -29.5349539037  TIP3      11209           0.0000000000
     83459     11609  TIP3      H2            -51.3786298325        0.2602110150      -30.7182961614  TIP3      11209           0.0000000000
     83460     11610  TIP3      OH2           -46.6095041435       -0.4163315072      -30.7651408311  TIP3      11210           0.0000000000
     83461     11610  TIP3      H1            -47.0732076557        0.1312755732      -31.4176955919  TIP3      11210           0.0000000000
     83462     11610  TIP3      H2            -46.4591269189        0.2136221893      -30.0298918646  TIP3      11210           0.0000000000
     83463     11611  TIP3      OH2           -44.2822707405       -1.5623739370      -29.7909097068  TIP3      11211           0.0000000000
     83464     11611  TIP3      H1            -45.1806636477       -1.3452079822      -30.0928398798  TIP3      11211           0.0000000000
     83465     11611  TIP3      H2            -43.8590732054       -0.6974111894      -29.8694807145  TIP3      11211           0.0000000000
     83466     11612  TIP3      OH2           -41.6518973981        0.0209273429      -29.5160680217  TIP3      11212           0.0000000000
     83467     11612  TIP3      H1            -41.8848073955        0.9509307102      -29.7390866503  TIP3      11212           0.0000000000
     83468     11612  TIP3      H2            -41.5355785329       -0.3988741243      -30.3895074524  TIP3      11212           0.0000000000
     83469     11613  TIP3      OH2           -54.3280140156       -1.2436971972      -32.0703758470  TIP3      11213           0.0000000000
     83470     11613  TIP3      H1            -54.3832547482       -1.7056222279      -31.2021423416  TIP3      11213           0.0000000000
     83471     11613  TIP3      H2            -53.5278583569       -1.6149310468      -32.4736818397  TIP3      11213           0.0000000000
     83472     11614  TIP3      OH2           -52.2526822090       -2.5482478716      -33.4177536929  TIP3      11214           0.0000000000
     83473     11614  TIP3      H1            -52.4353266065       -3.4828948879      -33.2131275521  TIP3      11214           0.0000000000
     83474     11614  TIP3      H2            -51.4049527573       -2.4119975265      -32.9382047638  TIP3      11214           0.0000000000
     83475     11615  TIP3      OH2           -49.6775909450       -2.0692138735      -32.5504973024  TIP3      11215           0.0000000000
     83476     11615  TIP3      H1            -49.4837256057       -2.9849437971      -32.8230976108  TIP3      11215           0.0000000000
     83477     11615  TIP3      H2            -49.6185530926       -2.1301982448      -31.5876773048  TIP3      11215           0.0000000000
     83478     11616  TIP3      OH2           -46.2015091165      -16.4120218338      -33.4083881826  TIP3      11216           0.0000000000
     83479     11616  TIP3      H1            -46.8598823285      -17.0729859258      -33.1414541554  TIP3      11216           0.0000000000
     83480     11616  TIP3      H2            -45.6242269401      -16.9328478266      -33.9926643941  TIP3      11216           0.0000000000
     83481     11617  TIP3      OH2           -41.0078497052      -18.3052535526      -33.2939320330  TIP3      11217           0.0000000000
     83482     11617  TIP3      H1            -40.4271970820      -17.7500833415      -33.8372038740  TIP3      11217           0.0000000000
     83483     11617  TIP3      H2            -41.9232205501      -18.0247385659      -33.5342496947  TIP3      11217           0.0000000000
     83484     11618  TIP3      OH2           -39.3559074574      -17.1444562234      -35.0058916396  TIP3      11218           0.0000000000
     83485     11618  TIP3      H1            -38.7000613096      -17.7037331261      -35.4842458078  TIP3      11218           0.0000000000
     83486     11618  TIP3      H2            -38.9024613373      -16.2807155437      -34.9458089824  TIP3      11218           0.0000000000
     83487     11619  TIP3      OH2           -53.8423609184      -17.7810782404      -35.5702628323  TIP3      11219           0.0000000000
     83488     11619  TIP3      H1            -54.6349839591      -18.0216920872      -36.0909831583  TIP3      11219           0.0000000000
     83489     11619  TIP3      H2            -53.3368970022      -18.6168633334      -35.5958843125  TIP3      11219           0.0000000000
     83490     11620  TIP3      OH2           -55.0219852405      -18.0209146222      -39.7899969207  TIP3      11220           0.0000000000
     83491     11620  TIP3      H1            -54.5751506326      -17.3798363624      -40.3753016997  TIP3      11220           0.0000000000
     83492     11620  TIP3      H2            -55.6455656457      -17.4622567941      -39.2951577320  TIP3      11220           0.0000000000
     83493     11621  TIP3      OH2           -49.3108580106      -17.8683138498      -35.7734039825  TIP3      11221           0.0000000000
     83494     11621  TIP3      H1            -48.4166521899      -17.4882726089      -35.8113248580  TIP3      11221           0.0000000000
     83495     11621  TIP3      H2            -49.4004883577      -18.0783729736      -34.8440164676  TIP3      11221           0.0000000000
     83496     11622  TIP3      OH2           -43.7734983845      -17.6980301627      -34.2145216160  TIP3      11222           0.0000000000
     83497     11622  TIP3      H1            -43.6471350984      -17.7411137290      -35.1435753531  TIP3      11222           0.0000000000
     83498     11622  TIP3      H2            -43.9650593109      -18.6676178950      -33.9947644816  TIP3      11222           0.0000000000
     83499     11623  TIP3      OH2           -42.3662060932      -17.8108682818      -38.4421915241  TIP3      11223           0.0000000000
     83500     11623  TIP3      H1            -43.0916329710      -17.2000794199      -38.6390457903  TIP3      11223           0.0000000000
     83501     11623  TIP3      H2            -42.8217755316      -18.6660260996      -38.2756528110  TIP3      11223           0.0000000000
     83502     11624  TIP3      OH2           -55.1005012630       -2.0688592183      -38.8474121478  TIP3      11224           0.0000000000
     83503     11624  TIP3      H1            -55.8004519133       -2.0739289765      -39.5412228390  TIP3      11224           0.0000000000
     83504     11624  TIP3      H2            -55.1224163632       -1.1288829760      -38.6178109150  TIP3      11224           0.0000000000
     83505     11625  TIP3      OH2           -53.2050824051      -16.1113317079      -41.3312046261  TIP3      11225           0.0000000000
     83506     11625  TIP3      H1            -52.6782026225      -16.7108282100      -41.8613711071  TIP3      11225           0.0000000000
     83507     11625  TIP3      H2            -52.5517699161      -15.7648713305      -40.6926116741  TIP3      11225           0.0000000000
     83508     11626  TIP3      OH2           -48.1651530301      -15.8168597094      -38.9100781623  TIP3      11226           0.0000000000
     83509     11626  TIP3      H1            -47.9444383809      -16.4250474457      -38.1829028881  TIP3      11226           0.0000000000
     83510     11626  TIP3      H2            -48.1649866564      -14.9604564902      -38.4178822255  TIP3      11226           0.0000000000
     83511     11627  TIP3      OH2           -46.2920580705       -0.6530854710      -40.3965269119  TIP3      11227           0.0000000000
     83512     11627  TIP3      H1            -45.3672128860       -0.4893747528      -40.6474319562  TIP3      11227           0.0000000000
     83513     11627  TIP3      H2            -46.4811053867       -1.2284417347      -41.1972727158  TIP3      11227           0.0000000000
     83514     11628  TIP3      OH2           -39.5460674298       -1.2649399229      -37.7754216691  TIP3      11228           0.0000000000
     83515     11628  TIP3      H1            -39.7560667680       -2.0339981186      -38.3622155896  TIP3      11228           0.0000000000
     83516     11628  TIP3      H2            -39.6150499643       -0.5199225381      -38.3987508046  TIP3      11228           0.0000000000
     83517     11629  TIP3      OH2           -53.9410742071      -17.2441596705      -26.0848550495  TIP3      11229           0.0000000000
     83518     11629  TIP3      H1            -54.2840584211      -18.0474173955      -25.6473665006  TIP3      11229           0.0000000000
     83519     11629  TIP3      H2            -53.0068506196      -17.2773532701      -25.7756211675  TIP3      11229           0.0000000000
     83520     11630  TIP3      OH2           -51.9297220754      -17.8876805541      -24.4906336929  TIP3      11230           0.0000000000
     83521     11630  TIP3      H1            -51.0371484753      -18.2122392195      -24.7149201154  TIP3      11230           0.0000000000
     83522     11630  TIP3      H2            -52.3176001748      -18.6795946102      -24.0680299072  TIP3      11230           0.0000000000
     83523     11631  TIP3      OH2           -53.2866916009       -1.1072103532      -41.8572506390  TIP3      11231           0.0000000000
     83524     11631  TIP3      H1            -53.5792580748       -0.8373001372      -40.9776946880  TIP3      11231           0.0000000000
     83525     11631  TIP3      H2            -52.5327790212       -1.6679351089      -41.6965101880  TIP3      11231           0.0000000000
     83526     11632  TIP3      OH2           -43.5201243137      -18.5733335720      -24.3407669461  TIP3      11232           0.0000000000
     83527     11632  TIP3      H1            -43.4257016380      -19.0216265292      -23.4940875735  TIP3      11232           0.0000000000
     83528     11632  TIP3      H2            -42.6056884504      -18.5912596229      -24.6864677631  TIP3      11232           0.0000000000
     83529     11633  TIP3      OH2           -40.3190791672       -2.5388774240      -25.6578687739  TIP3      11233           0.0000000000
     83530     11633  TIP3      H1            -41.1251193247       -2.6851411888      -26.1958558716  TIP3      11233           0.0000000000
     83531     11633  TIP3      H2            -40.4179034436       -1.5839977813      -25.4509324680  TIP3      11233           0.0000000000
     83532     11634  TIP3      OH2           -25.9025954061       -8.6507949795      -35.6509785687  TIP3      11234           0.0000000000
     83533     11634  TIP3      H1            -25.8589005145       -7.6759478064      -35.7506173303  TIP3      11234           0.0000000000
     83534     11634  TIP3      H2            -26.5855661473       -8.8978854727      -36.2930681287  TIP3      11234           0.0000000000
     83535     11635  TIP3      OH2           -27.0091723958       -9.3778809130      -32.1933701349  TIP3      11235           0.0000000000
     83536     11635  TIP3      H1            -27.0360926006      -10.0363778142      -31.4925468453  TIP3      11235           0.0000000000
     83537     11635  TIP3      H2            -27.3335395953       -9.8666005724      -32.9686836471  TIP3      11235           0.0000000000
     83538     11636  TIP3      OH2           -34.6500800456       -9.7430330414      -30.6343098307  TIP3      11236           0.0000000000
     83539     11636  TIP3      H1            -34.5788735273      -10.3995087246      -29.9080796218  TIP3      11236           0.0000000000
     83540     11636  TIP3      H2            -33.9188103896       -9.1450311453      -30.4247757513  TIP3      11236           0.0000000000
     83541     11637  TIP3      OH2           -23.3024468587       -6.4458282798      -33.9156125172  TIP3      11237           0.0000000000
     83542     11637  TIP3      H1            -23.7397150941       -7.1598215896      -33.4397119926  TIP3      11237           0.0000000000
     83543     11637  TIP3      H2            -23.3069059590       -5.7253057112      -33.2564866210  TIP3      11237           0.0000000000
     83544     11638  TIP3      OH2           -33.7230396684       -5.2892269225      -32.0965980659  TIP3      11238           0.0000000000
     83545     11638  TIP3      H1            -34.0614424512       -6.1308204471      -32.4546224954  TIP3      11238           0.0000000000
     83546     11638  TIP3      H2            -32.7680235131       -5.4798085432      -32.0561066367  TIP3      11238           0.0000000000
     83547     11639  TIP3      OH2           -37.0832951244      -11.6876942361      -36.6717215566  TIP3      11239           0.0000000000
     83548     11639  TIP3      H1            -37.5412967348      -10.8203119796      -36.7095491993  TIP3      11239           0.0000000000
     83549     11639  TIP3      H2            -37.6640073554      -12.2380228483      -37.2157641346  TIP3      11239           0.0000000000
     83550     11640  TIP3      OH2           -36.3871768353       -9.4825960712      -34.5412526197  TIP3      11240           0.0000000000
     83551     11640  TIP3      H1            -36.1526878969      -10.2859716947      -34.0415824570  TIP3      11240           0.0000000000
     83552     11640  TIP3      H2            -35.6556167432       -9.3993096815      -35.1694609066  TIP3      11240           0.0000000000
     83553     11641  TIP3      OH2           -26.2006098009       -1.3057653802      -33.6864411213  TIP3      11241           0.0000000000
     83554     11641  TIP3      H1            -25.5570531250       -2.0086624282      -33.9602759612  TIP3      11241           0.0000000000
     83555     11641  TIP3      H2            -26.3955060161       -1.5814292418      -32.7915989539  TIP3      11241           0.0000000000
     83556     11642  TIP3      OH2           -28.6322283748       -6.9612330277      -31.7722780289  TIP3      11242           0.0000000000
     83557     11642  TIP3      H1            -28.2969171435       -7.6289452487      -32.3923508416  TIP3      11242           0.0000000000
     83558     11642  TIP3      H2            -27.8598897644       -6.8326869729      -31.1952089804  TIP3      11242           0.0000000000
     83559     11643  TIP3      OH2           -19.9903840610      -15.3529207538      -30.9663150325  TIP3      11243           0.0000000000
     83560     11643  TIP3      H1            -19.8774424941      -14.7321773832      -30.2143408998  TIP3      11243           0.0000000000
     83561     11643  TIP3      H2            -19.4968346784      -14.8918584218      -31.6613238210  TIP3      11243           0.0000000000
     83562     11644  TIP3      OH2           -25.4707717616      -12.5283016534      -31.4374642828  TIP3      11244           0.0000000000
     83563     11644  TIP3      H1            -25.3210822892      -13.4942724614      -31.4446264786  TIP3      11244           0.0000000000
     83564     11644  TIP3      H2            -25.5750556658      -12.3658661619      -32.3977934840  TIP3      11244           0.0000000000
     83565     11645  TIP3      OH2           -32.3294269258      -14.4449134597      -34.1880448173  TIP3      11245           0.0000000000
     83566     11645  TIP3      H1            -32.2644859000      -13.5915465405      -34.6470034292  TIP3      11245           0.0000000000
     83567     11645  TIP3      H2            -32.7680768771      -15.0081383310      -34.8602975241  TIP3      11245           0.0000000000
     83568     11646  TIP3      OH2           -24.6129217061      -14.3366831605      -35.8159534636  TIP3      11246           0.0000000000
     83569     11646  TIP3      H1            -23.9433228247      -14.6569756108      -35.1653114008  TIP3      11246           0.0000000000
     83570     11646  TIP3      H2            -24.0639472114      -13.7927491749      -36.4023429585  TIP3      11246           0.0000000000
     83571     11647  TIP3      OH2           -35.7183635056      -12.0345303173      -33.4455732917  TIP3      11247           0.0000000000
     83572     11647  TIP3      H1            -35.0435655061      -12.5971148763      -33.0096098876  TIP3      11247           0.0000000000
     83573     11647  TIP3      H2            -35.6502374655      -12.3359835650      -34.3640740504  TIP3      11247           0.0000000000
     83574     11648  TIP3      OH2           -30.5511700248      -10.4783916650      -34.1899848930  TIP3      11248           0.0000000000
     83575     11648  TIP3      H1            -29.9129137560      -11.0471467007      -33.7269423763  TIP3      11248           0.0000000000
     83576     11648  TIP3      H2            -31.1106258699      -11.1461491397      -34.6366378546  TIP3      11248           0.0000000000
     83577     11649  TIP3      OH2           -19.5619676606      -13.8950815474      -28.7272854005  TIP3      11249           0.0000000000
     83578     11649  TIP3      H1            -20.2346557143      -13.1854505195      -28.8025764947  TIP3      11249           0.0000000000
     83579     11649  TIP3      H2            -19.5465123588      -14.0491197475      -27.7720330517  TIP3      11249           0.0000000000
     83580     11650  TIP3      OH2           -33.4734264901      -15.5421856673      -30.1395476699  TIP3      11250           0.0000000000
     83581     11650  TIP3      H1            -33.7311021714      -14.9843183086      -30.8987973242  TIP3      11250           0.0000000000
     83582     11650  TIP3      H2            -34.1631932163      -15.3022706519      -29.4721983682  TIP3      11250           0.0000000000
     83583     11651  TIP3      OH2           -26.1376422294       -6.0461100702      -36.5884083851  TIP3      11251           0.0000000000
     83584     11651  TIP3      H1            -26.4355435059       -6.3509697338      -37.4551492966  TIP3      11251           0.0000000000
     83585     11651  TIP3      H2            -26.4638842608       -5.1212429205      -36.5507501769  TIP3      11251           0.0000000000
     83586     11652  TIP3      OH2           -30.9300108193       -7.8853380431      -29.8693979106  TIP3      11252           0.0000000000
     83587     11652  TIP3      H1            -31.6622927093       -7.2488417078      -29.7189767873  TIP3      11252           0.0000000000
     83588     11652  TIP3      H2            -30.2248621639       -7.2948403959      -30.1731764824  TIP3      11252           0.0000000000
     83589     11653  TIP3      OH2           -22.8306583804      -15.0181924025      -33.8283673779  TIP3      11253           0.0000000000
     83590     11653  TIP3      H1            -23.0355454297      -15.7893032259      -33.2889583926  TIP3      11253           0.0000000000
     83591     11653  TIP3      H2            -22.1577859991      -14.5648141577      -33.2940217685  TIP3      11253           0.0000000000
     83592     11654  TIP3      OH2           -33.9150642778      -13.6609756459      -32.1532198551  TIP3      11254           0.0000000000
     83593     11654  TIP3      H1            -33.2717533020      -12.9988814221      -31.8073326011  TIP3      11254           0.0000000000
     83594     11654  TIP3      H2            -33.3777963627      -14.1092195146      -32.8490059853  TIP3      11254           0.0000000000
     83595     11655  TIP3      OH2           -32.5015560305       -5.9056900159      -29.0749549459  TIP3      11255           0.0000000000
     83596     11655  TIP3      H1            -32.5369841299       -4.9970610405      -29.4329934081  TIP3      11255           0.0000000000
     83597     11655  TIP3      H2            -33.3868046548       -5.9722430614      -28.6329728815  TIP3      11255           0.0000000000
     83598     11656  TIP3      OH2           -36.4140826679       -6.2543531741      -38.2813737334  TIP3      11256           0.0000000000
     83599     11656  TIP3      H1            -36.6628212348       -5.9687520835      -39.1790034471  TIP3      11256           0.0000000000
     83600     11656  TIP3      H2            -36.3531032620       -5.3987968755      -37.8018077240  TIP3      11256           0.0000000000
     83601     11657  TIP3      OH2           -22.7812333803       -4.6139841649      -31.5505895973  TIP3      11257           0.0000000000
     83602     11657  TIP3      H1            -23.7469703795       -4.5217239595      -31.4084138011  TIP3      11257           0.0000000000
     83603     11657  TIP3      H2            -22.5147406302       -3.6870292397      -31.7156503418  TIP3      11257           0.0000000000
     83604     11658  TIP3      OH2           -22.4767990911      -16.3193416568      -30.1424153546  TIP3      11258           0.0000000000
     83605     11658  TIP3      H1            -23.2118033335      -15.6963214787      -30.2044773436  TIP3      11258           0.0000000000
     83606     11658  TIP3      H2            -21.7807768868      -15.8973528329      -30.6766567681  TIP3      11258           0.0000000000
     83607     11659  TIP3      OH2           -29.4820362035      -18.2138289067      -32.6867984103  TIP3      11259           0.0000000000
     83608     11659  TIP3      H1            -29.6106360643      -19.1804386261      -32.7422197361  TIP3      11259           0.0000000000
     83609     11659  TIP3      H2            -30.3582920944      -17.8979576933      -32.3933507484  TIP3      11259           0.0000000000
     83610     11660  TIP3      OH2           -24.5369242923       -2.8237606248      -34.9333021039  TIP3      11260           0.0000000000
     83611     11660  TIP3      H1            -24.1002072449       -3.5361897005      -35.4402985283  TIP3      11260           0.0000000000
     83612     11660  TIP3      H2            -24.1655001085       -2.0187379035      -35.3528493695  TIP3      11260           0.0000000000
     83613     11661  TIP3      OH2           -23.3490807779       -4.9007631320      -36.4355054724  TIP3      11261           0.0000000000
     83614     11661  TIP3      H1            -23.6258030530       -5.6058498415      -37.0449838641  TIP3      11261           0.0000000000
     83615     11661  TIP3      H2            -23.2986679917       -5.3805679286      -35.5876461501  TIP3      11261           0.0000000000
     83616     11662  TIP3      OH2           -21.6930412824       -6.3316183350      -27.9381021927  TIP3      11262           0.0000000000
     83617     11662  TIP3      H1            -21.5495169956       -6.9525323244      -28.6852520866  TIP3      11262           0.0000000000
     83618     11662  TIP3      H2            -21.5132586556       -5.4664724239      -28.3360972464  TIP3      11262           0.0000000000
     83619     11663  TIP3      OH2           -27.2145764221       -9.3995178201      -38.1670595946  TIP3      11263           0.0000000000
     83620     11663  TIP3      H1            -27.9207866191       -8.8454577967      -38.5488426039  TIP3      11263           0.0000000000
     83621     11663  TIP3      H2            -26.5146324113       -9.3265303104      -38.8458391331  TIP3      11263           0.0000000000
     83622     11664  TIP3      OH2           -27.1675620207      -10.9109561022      -41.1242134344  TIP3      11264           0.0000000000
     83623     11664  TIP3      H1            -26.4435172332      -10.9011215140      -40.4805973580  TIP3      11264           0.0000000000
     83624     11664  TIP3      H2            -26.8465743303      -11.5484161195      -41.7727803851  TIP3      11264           0.0000000000
     83625     11665  TIP3      OH2           -19.8303320437      -10.0128739448      -29.8800031201  TIP3      11265           0.0000000000
     83626     11665  TIP3      H1            -20.4940297143       -9.2969206250      -29.8191239436  TIP3      11265           0.0000000000
     83627     11665  TIP3      H2            -19.3618644761       -9.7808120229      -30.7015815948  TIP3      11265           0.0000000000
     83628     11666  TIP3      OH2           -23.7886866349       -9.1830272374      -37.2426373810  TIP3      11266           0.0000000000
     83629     11666  TIP3      H1            -24.5345018060       -8.9528716480      -36.6403985383  TIP3      11266           0.0000000000
     83630     11666  TIP3      H2            -23.3328996383       -9.8899866042      -36.7514575823  TIP3      11266           0.0000000000
     83631     11667  TIP3      OH2           -23.8650565276      -11.0304903896      -28.1522922348  TIP3      11267           0.0000000000
     83632     11667  TIP3      H1            -23.8333147787      -10.2305535973      -27.5967470535  TIP3      11267           0.0000000000
     83633     11667  TIP3      H2            -24.4990304656      -10.7263271058      -28.8384131722  TIP3      11267           0.0000000000
     83634     11668  TIP3      OH2           -32.1562424631       -8.5318272880      -35.3363928217  TIP3      11268           0.0000000000
     83635     11668  TIP3      H1            -32.4854690025       -8.9294741052      -36.1768651303  TIP3      11268           0.0000000000
     83636     11668  TIP3      H2            -31.5533752378       -9.2334211515      -34.9983948511  TIP3      11268           0.0000000000
     83637     11669  TIP3      OH2           -30.8175076956       -5.1251828223      -32.6569688932  TIP3      11269           0.0000000000
     83638     11669  TIP3      H1            -30.8672029501       -5.6965333351      -33.4338540224  TIP3      11269           0.0000000000
     83639     11669  TIP3      H2            -30.0540551128       -5.5039973856      -32.1841346754  TIP3      11269           0.0000000000
     83640     11670  TIP3      OH2           -31.8105043372       -9.7929435567      -31.6973614298  TIP3      11270           0.0000000000
     83641     11670  TIP3      H1            -31.2379107973       -9.6688562223      -32.4778280372  TIP3      11270           0.0000000000
     83642     11670  TIP3      H2            -31.4580792642       -9.1339630804      -31.0665209332  TIP3      11270           0.0000000000
     83643     11671  TIP3      OH2           -25.4545502557       -4.2430426901      -30.9867335506  TIP3      11271           0.0000000000
     83644     11671  TIP3      H1            -25.7164068888       -3.6091659728      -30.3181903447  TIP3      11271           0.0000000000
     83645     11671  TIP3      H2            -25.6801680771       -5.1027154280      -30.5460039264  TIP3      11271           0.0000000000
     83646     11672  TIP3      OH2           -30.8908735704       -5.3830799900      -26.9697894469  TIP3      11272           0.0000000000
     83647     11672  TIP3      H1            -31.2494147706       -4.5929296358      -26.5271486037  TIP3      11272           0.0000000000
     83648     11672  TIP3      H2            -31.5620338487       -5.5486740216      -27.6800370040  TIP3      11272           0.0000000000
     83649     11673  TIP3      OH2           -24.9256165823      -10.0242161101      -39.5614818580  TIP3      11273           0.0000000000
     83650     11673  TIP3      H1            -24.3462914750       -9.8487684292      -38.7803233806  TIP3      11273           0.0000000000
     83651     11673  TIP3      H2            -24.5047268452       -9.5174642138      -40.2770816940  TIP3      11273           0.0000000000
     83652     11674  TIP3      OH2           -33.9641284958       -9.1989507222      -27.7886928776  TIP3      11274           0.0000000000
     83653     11674  TIP3      H1            -33.9151206958       -8.5366809332      -27.0664532552  TIP3      11274           0.0000000000
     83654     11674  TIP3      H2            -34.8825885749       -9.0885586400      -28.0787149342  TIP3      11274           0.0000000000
     83655     11675  TIP3      OH2           -27.1981429265       -3.2877593738      -36.1049435661  TIP3      11275           0.0000000000
     83656     11675  TIP3      H1            -26.7375679309       -2.9781854926      -35.3181003190  TIP3      11275           0.0000000000
     83657     11675  TIP3      H2            -27.7579837708       -2.5384407626      -36.3462333594  TIP3      11275           0.0000000000
     83658     11676  TIP3      OH2           -32.6474884646       -3.3290443510      -26.2201450312  TIP3      11276           0.0000000000
     83659     11676  TIP3      H1            -32.6748392453       -3.4396746298      -27.1880497267  TIP3      11276           0.0000000000
     83660     11676  TIP3      H2            -33.5906483987       -3.4356256211      -25.9847648907  TIP3      11276           0.0000000000
     83661     11677  TIP3      OH2           -21.2038229513      -18.2753604409      -39.7133367809  TIP3      11277           0.0000000000
     83662     11677  TIP3      H1            -22.1420365786      -18.1373398169      -39.4341075424  TIP3      11277           0.0000000000
     83663     11677  TIP3      H2            -20.9736314971      -17.4250750027      -40.1218010131  TIP3      11277           0.0000000000
     83664     11678  TIP3      OH2           -33.1690305488       -9.4984393776      -37.7349919857  TIP3      11278           0.0000000000
     83665     11678  TIP3      H1            -33.4647945482       -8.7191324259      -38.2521628026  TIP3      11278           0.0000000000
     83666     11678  TIP3      H2            -33.8421164646      -10.1544380640      -37.9327071739  TIP3      11278           0.0000000000
     83667     11679  TIP3      OH2           -20.0670794218       -3.9268404518      -41.3330445983  TIP3      11279           0.0000000000
     83668     11679  TIP3      H1            -19.9534530955       -2.9658739281      -41.1881720430  TIP3      11279           0.0000000000
     83669     11679  TIP3      H2            -19.1341257019       -4.2010454944      -41.3995268190  TIP3      11279           0.0000000000
     83670     11680  TIP3      OH2           -37.0821008214       -7.0973467409      -28.8879349516  TIP3      11280           0.0000000000
     83671     11680  TIP3      H1            -37.5653356642       -7.1639180327      -29.7324520191  TIP3      11280           0.0000000000
     83672     11680  TIP3      H2            -37.0536821412       -8.0373703115      -28.6291255350  TIP3      11280           0.0000000000
     83673     11681  TIP3      OH2           -37.3307046387       -4.3523849072      -32.0551070719  TIP3      11281           0.0000000000
     83674     11681  TIP3      H1            -36.3744785580       -4.4764891517      -32.0707852157  TIP3      11281           0.0000000000
     83675     11681  TIP3      H2            -37.4237067615       -3.5526108454      -31.5253165227  TIP3      11281           0.0000000000
     83676     11682  TIP3      OH2           -19.1004255859       -3.6559554995      -26.3797199994  TIP3      11282           0.0000000000
     83677     11682  TIP3      H1            -19.1960207977       -4.6194500446      -26.3930309132  TIP3      11282           0.0000000000
     83678     11682  TIP3      H2            -19.9677843075       -3.4124527656      -25.9659392371  TIP3      11282           0.0000000000
     83679     11683  TIP3      OH2           -28.1396347498       -4.1084752304      -27.5104707716  TIP3      11283           0.0000000000
     83680     11683  TIP3      H1            -28.0665797565       -3.2658081692      -27.0039300931  TIP3      11283           0.0000000000
     83681     11683  TIP3      H2            -29.0144510371       -4.4429740337      -27.2436927642  TIP3      11283           0.0000000000
     83682     11684  TIP3      OH2           -27.7260286419       -0.3530098740      -37.6887403346  TIP3      11284           0.0000000000
     83683     11684  TIP3      H1            -27.8001781595       -0.4447646941      -38.6556892830  TIP3      11284           0.0000000000
     83684     11684  TIP3      H2            -27.6910785386        0.6154130676      -37.5612264491  TIP3      11284           0.0000000000
     83685     11685  TIP3      OH2           -34.0669933616       -1.5019318572      -35.8955216039  TIP3      11285           0.0000000000
     83686     11685  TIP3      H1            -33.9260898800       -1.9006000033      -35.0114179696  TIP3      11285           0.0000000000
     83687     11685  TIP3      H2            -34.9212098303       -1.8959697861      -36.1413382052  TIP3      11285           0.0000000000
     83688     11686  TIP3      OH2           -24.6516879027       -1.1584316490      -40.7185492540  TIP3      11286           0.0000000000
     83689     11686  TIP3      H1            -24.2309034052       -1.9286315408      -41.1553720955  TIP3      11286           0.0000000000
     83690     11686  TIP3      H2            -24.6171754073       -1.4336364402      -39.7792143907  TIP3      11286           0.0000000000
     83691     11687  TIP3      OH2           -24.9635845941       -1.2404408524      -37.9502096926  TIP3      11287           0.0000000000
     83692     11687  TIP3      H1            -25.9138065820       -1.1518805694      -37.7528941191  TIP3      11287           0.0000000000
     83693     11687  TIP3      H2            -24.6883808611       -1.9558221029      -37.3593169332  TIP3      11287           0.0000000000
     83694     11688  TIP3      OH2           -21.9663973313      -12.1797109383      -25.8755338141  TIP3      11288           0.0000000000
     83695     11688  TIP3      H1            -22.3924858159      -11.7074436854      -26.6094856685  TIP3      11288           0.0000000000
     83696     11688  TIP3      H2            -21.9406062102      -13.0902708765      -26.2100844590  TIP3      11288           0.0000000000
     83697     11689  TIP3      OH2           -34.8198667128       -5.7808231531      -27.8978951690  TIP3      11289           0.0000000000
     83698     11689  TIP3      H1            -34.6003054963       -6.1542846404      -27.0189296867  TIP3      11289           0.0000000000
     83699     11689  TIP3      H2            -35.6880644433       -6.1765124541      -28.1067603976  TIP3      11289           0.0000000000
     83700     11690  TIP3      OH2           -32.1641435333      -17.3220407691      -31.9144737239  TIP3      11290           0.0000000000
     83701     11690  TIP3      H1            -33.0636537062      -17.4139629991      -32.3052010940  TIP3      11290           0.0000000000
     83702     11690  TIP3      H2            -32.2468585893      -16.4666450937      -31.4656423783  TIP3      11290           0.0000000000
     83703     11691  TIP3      OH2           -27.5151236890      -17.6094298684      -28.5496422785  TIP3      11291           0.0000000000
     83704     11691  TIP3      H1            -27.1130105913      -18.0348409765      -27.7715036459  TIP3      11291           0.0000000000
     83705     11691  TIP3      H2            -28.4815106015      -17.7724445240      -28.4124415696  TIP3      11291           0.0000000000
     83706     11692  TIP3      OH2           -24.2138554855      -13.8279679880      -27.6905698747  TIP3      11292           0.0000000000
     83707     11692  TIP3      H1            -24.7485412256      -13.9886190512      -26.8785530921  TIP3      11292           0.0000000000
     83708     11692  TIP3      H2            -24.3715642735      -12.8994042809      -27.9107139201  TIP3      11292           0.0000000000
     83709     11693  TIP3      OH2           -23.3935216978       -8.9343011619      -41.8301878805  TIP3      11293           0.0000000000
     83710     11693  TIP3      H1            -23.3842197485       -9.1629711910      -42.7855131189  TIP3      11293           0.0000000000
     83711     11693  TIP3      H2            -22.5355540764       -8.5367311569      -41.6962114174  TIP3      11293           0.0000000000
     83712     11694  TIP3      OH2           -27.8607795869      -15.0833606102      -41.2447402960  TIP3      11294           0.0000000000
     83713     11694  TIP3      H1            -28.1488832540      -15.1035487651      -40.3112886428  TIP3      11294           0.0000000000
     83714     11694  TIP3      H2            -28.1350909140      -15.9653254552      -41.5267162924  TIP3      11294           0.0000000000
     83715     11695  TIP3      OH2           -32.0723032691      -12.3571904558      -30.7557649494  TIP3      11295           0.0000000000
     83716     11695  TIP3      H1            -32.7701266726      -12.3784663718      -30.0740425598  TIP3      11295           0.0000000000
     83717     11695  TIP3      H2            -32.0805417808      -11.4197363679      -31.0509577703  TIP3      11295           0.0000000000
     83718     11696  TIP3      OH2           -32.0948802056      -12.1586222825      -35.8542213912  TIP3      11296           0.0000000000
     83719     11696  TIP3      H1            -33.0162887618      -12.4746274811      -35.9588726035  TIP3      11296           0.0000000000
     83720     11696  TIP3      H2            -31.6795802015      -12.5127345797      -36.6636996252  TIP3      11296           0.0000000000
     83721     11697  TIP3      OH2           -26.5683666147      -11.7253588993      -37.0647502664  TIP3      11297           0.0000000000
     83722     11697  TIP3      H1            -26.9801078833      -10.8912979090      -37.3800756129  TIP3      11297           0.0000000000
     83723     11697  TIP3      H2            -25.8580548139      -11.8627457251      -37.7157429488  TIP3      11297           0.0000000000
     83724     11698  TIP3      OH2           -27.4765223390      -11.5222081381      -25.6137217753  TIP3      11298           0.0000000000
     83725     11698  TIP3      H1            -28.0379665440      -12.2602896807      -25.2691141531  TIP3      11298           0.0000000000
     83726     11698  TIP3      H2            -26.6532445161      -11.6483942713      -25.1135743993  TIP3      11298           0.0000000000
     83727     11699  TIP3      OH2           -25.5522886572      -12.2491221360      -34.2264592579  TIP3      11299           0.0000000000
     83728     11699  TIP3      H1            -25.7833685377      -11.6692723051      -34.9721309532  TIP3      11299           0.0000000000
     83729     11699  TIP3      H2            -25.4060268713      -13.0963048710      -34.6958318694  TIP3      11299           0.0000000000
     83730     11700  TIP3      OH2           -34.3816383942      -12.0482636318      -28.9666785589  TIP3      11300           0.0000000000
     83731     11700  TIP3      H1            -34.3786430850      -11.6491169861      -28.0788051386  TIP3      11300           0.0000000000
     83732     11700  TIP3      H2            -34.8575111330      -12.8795177370      -28.8223043957  TIP3      11300           0.0000000000
     83733     11701  TIP3      OH2           -30.8855816810      -14.4856344415      -41.9001561131  TIP3      11301           0.0000000000
     83734     11701  TIP3      H1            -31.4188237159      -15.1035124517      -41.3641980046  TIP3      11301           0.0000000000
     83735     11701  TIP3      H2            -31.5635958386      -14.2079969853      -42.5346168010  TIP3      11301           0.0000000000
     83736     11702  TIP3      OH2           -37.7626474826      -14.9314957369      -35.0618386987  TIP3      11302           0.0000000000
     83737     11702  TIP3      H1            -37.1006358607      -14.9710490581      -34.3450695776  TIP3      11302           0.0000000000
     83738     11702  TIP3      H2            -37.3026078853      -15.3502785855      -35.8131633584  TIP3      11302           0.0000000000
     83739     11703  TIP3      OH2           -36.4692853138      -14.2172599579      -39.6524212212  TIP3      11303           0.0000000000
     83740     11703  TIP3      H1            -35.9948112231      -13.6018258469      -40.2543711481  TIP3      11303           0.0000000000
     83741     11703  TIP3      H2            -37.1837446952      -13.6280642810      -39.3232112315  TIP3      11303           0.0000000000
     83742     11704  TIP3      OH2           -26.3155605733      -10.6261959890      -29.6133290056  TIP3      11304           0.0000000000
     83743     11704  TIP3      H1            -25.9695099816      -11.2931556153      -30.2356461733  TIP3      11304           0.0000000000
     83744     11704  TIP3      H2            -26.7647790591      -11.1720121134      -28.9436397465  TIP3      11304           0.0000000000
     83745     11705  TIP3      OH2           -29.5247869463      -14.6900900849      -34.8165031204  TIP3      11305           0.0000000000
     83746     11705  TIP3      H1            -30.4571560048      -14.6540894229      -34.5145556918  TIP3      11305           0.0000000000
     83747     11705  TIP3      H2            -29.0306715290      -14.7897225614      -33.9890278545  TIP3      11305           0.0000000000
     83748     11706  TIP3      OH2           -34.7030843289      -13.0895687724      -35.9600309214  TIP3      11306           0.0000000000
     83749     11706  TIP3      H1            -35.6015467025      -12.9706948536      -36.3294377009  TIP3      11306           0.0000000000
     83750     11706  TIP3      H2            -34.4138926634      -13.9342615233      -36.3392127427  TIP3      11306           0.0000000000
     83751     11707  TIP3      OH2           -31.0634479870      -13.0684771026      -38.3159259240  TIP3      11307           0.0000000000
     83752     11707  TIP3      H1            -30.1100430204      -12.9509357650      -38.1414891643  TIP3      11307           0.0000000000
     83753     11707  TIP3      H2            -31.2852433847      -12.4004683131      -38.9867808809  TIP3      11307           0.0000000000
     83754     11708  TIP3      OH2           -25.1154501284      -15.4534379893      -31.5570633247  TIP3      11308           0.0000000000
     83755     11708  TIP3      H1            -25.8106159237      -15.3548467977      -30.8718301923  TIP3      11308           0.0000000000
     83756     11708  TIP3      H2            -25.6212401741      -15.6477941244      -32.3574516251  TIP3      11308           0.0000000000
     83757     11709  TIP3      OH2           -32.3777530750      -11.8886969481      -40.7336143936  TIP3      11309           0.0000000000
     83758     11709  TIP3      H1            -32.9246632854      -12.2563578835      -41.4501075219  TIP3      11309           0.0000000000
     83759     11709  TIP3      H2            -31.5459053298      -11.6876624534      -41.1905884114  TIP3      11309           0.0000000000
     83760     11710  TIP3      OH2           -21.8816313634        0.2048366370      -25.2457278928  TIP3      11310           0.0000000000
     83761     11710  TIP3      H1            -21.6295008183        0.6104324156      -26.0928465068  TIP3      11310           0.0000000000
     83762     11710  TIP3      H2            -21.1796063535        0.5346966911      -24.6578923662  TIP3      11310           0.0000000000
     83763     11711  TIP3      OH2           -34.2341524458       -7.3268993306      -25.6767904883  TIP3      11311           0.0000000000
     83764     11711  TIP3      H1            -33.5209336638       -7.0606188991      -25.0878791621  TIP3      11311           0.0000000000
     83765     11711  TIP3      H2            -35.0291041255       -7.1526421549      -25.1215336217  TIP3      11311           0.0000000000
     83766     11712  TIP3      OH2           -28.2285730265      -11.9119790373      -32.9199422714  TIP3      11312           0.0000000000
     83767     11712  TIP3      H1            -27.6455150757      -12.4590412947      -33.4619800874  TIP3      11312           0.0000000000
     83768     11712  TIP3      H2            -28.3688355764      -12.4500412795      -32.1300576818  TIP3      11312           0.0000000000
     83769     11713  TIP3      OH2           -33.2199718074      -15.7656523908      -36.4889954693  TIP3      11313           0.0000000000
     83770     11713  TIP3      H1            -33.5284880246      -16.6903677609      -36.5234302627  TIP3      11313           0.0000000000
     83771     11713  TIP3      H2            -32.4324687682      -15.8003624131      -37.0471078966  TIP3      11313           0.0000000000
     83772     11714  TIP3      OH2           -29.5902892068      -13.5596619177      -30.5110051970  TIP3      11314           0.0000000000
     83773     11714  TIP3      H1            -30.4272446667      -13.0677851004      -30.4010199834  TIP3      11314           0.0000000000
     83774     11714  TIP3      H2            -29.0531533565      -13.2408675440      -29.7583552431  TIP3      11314           0.0000000000
     83775     11715  TIP3      OH2           -29.0149989212       -7.3325770201      -38.8131684572  TIP3      11315           0.0000000000
     83776     11715  TIP3      H1            -29.7999239984       -7.8297254918      -39.1366645985  TIP3      11315           0.0000000000
     83777     11715  TIP3      H2            -29.2008610385       -7.2652422124      -37.8564833953  TIP3      11315           0.0000000000
     83778     11716  TIP3      OH2           -21.8636330658       -8.1807517389      -30.0118531612  TIP3      11316           0.0000000000
     83779     11716  TIP3      H1            -21.2589924326       -7.7065997031      -30.6065861213  TIP3      11316           0.0000000000
     83780     11716  TIP3      H2            -22.7122220548       -8.0816939322      -30.4937600589  TIP3      11316           0.0000000000
     83781     11717  TIP3      OH2           -25.1418628777      -14.5405653547      -40.6232840981  TIP3      11317           0.0000000000
     83782     11717  TIP3      H1            -26.0907587936      -14.3957754249      -40.7795457340  TIP3      11317           0.0000000000
     83783     11717  TIP3      H2            -24.8498603995      -13.6613720300      -40.3107406822  TIP3      11317           0.0000000000
     83784     11718  TIP3      OH2           -27.5194699815       -7.1169147738      -27.5826859122  TIP3      11318           0.0000000000
     83785     11718  TIP3      H1            -27.8654576514       -7.5151227210      -26.7750361126  TIP3      11318           0.0000000000
     83786     11718  TIP3      H2            -27.7410071305       -6.1861165779      -27.4933817011  TIP3      11318           0.0000000000
     83787     11719  TIP3      OH2           -24.4361157237      -12.6323075602      -38.9569583968  TIP3      11319           0.0000000000
     83788     11719  TIP3      H1            -23.5293435064      -12.7697657081      -38.6228153099  TIP3      11319           0.0000000000
     83789     11719  TIP3      H2            -24.3641064168      -11.8308826508      -39.4952040401  TIP3      11319           0.0000000000
     83790     11720  TIP3      OH2           -33.9162834804       -7.9945602434      -33.0293334674  TIP3      11320           0.0000000000
     83791     11720  TIP3      H1            -33.1859178316       -8.0371733861      -33.6753259460  TIP3      11320           0.0000000000
     83792     11720  TIP3      H2            -33.8388433937       -8.8445437556      -32.5633388889  TIP3      11320           0.0000000000
     83793     11721  TIP3      OH2           -26.9015766403       -5.8709353351      -39.7823113187  TIP3      11321           0.0000000000
     83794     11721  TIP3      H1            -27.2376013452       -5.0343455687      -39.4096210719  TIP3      11321           0.0000000000
     83795     11721  TIP3      H2            -27.6389100539       -6.4904869626      -39.5865450948  TIP3      11321           0.0000000000
     83796     11722  TIP3      OH2           -36.9142466380       -9.5509645274      -27.7417626255  TIP3      11322           0.0000000000
     83797     11722  TIP3      H1            -36.7053668784       -9.9919239937      -26.8973945775  TIP3      11322           0.0000000000
     83798     11722  TIP3      H2            -37.5224286031      -10.1811035162      -28.1652852050  TIP3      11322           0.0000000000
     83799     11723  TIP3      OH2           -29.9023119608      -10.0006471789      -25.5227757094  TIP3      11323           0.0000000000
     83800     11723  TIP3      H1            -30.1951401095      -10.2482200912      -26.4170821462  TIP3      11323           0.0000000000
     83801     11723  TIP3      H2            -28.9665030692      -10.2935707013      -25.5428518082  TIP3      11323           0.0000000000
     83802     11724  TIP3      OH2           -25.2475992156       -4.6765009924      -27.6353686130  TIP3      11324           0.0000000000
     83803     11724  TIP3      H1            -26.1692232820       -4.4838608489      -27.8759507444  TIP3      11324           0.0000000000
     83804     11724  TIP3      H2            -25.2503860115       -4.3923895540      -26.6987556249  TIP3      11324           0.0000000000
     83805     11725  TIP3      OH2           -19.5370638551      -12.4643183889      -39.2281715287  TIP3      11325           0.0000000000
     83806     11725  TIP3      H1            -20.1015637372      -12.8047653038      -39.9480626602  TIP3      11325           0.0000000000
     83807     11725  TIP3      H2            -19.4550308017      -11.5291625869      -39.5303821276  TIP3      11325           0.0000000000
     83808     11726  TIP3      OH2           -19.5636555850       -6.6336073369      -26.4025650088  TIP3      11326           0.0000000000
     83809     11726  TIP3      H1            -20.4424135250       -6.3967966272      -26.7890900294  TIP3      11326           0.0000000000
     83810     11726  TIP3      H2            -18.9948484678       -6.6513477638      -27.1969886077  TIP3      11326           0.0000000000
     83811     11727  TIP3      OH2           -21.2504912270       -3.6571131525      -38.8188734256  TIP3      11327           0.0000000000
     83812     11727  TIP3      H1            -21.6230254257       -4.4806510337      -38.4927765492  TIP3      11327           0.0000000000
     83813     11727  TIP3      H2            -20.9582760006       -3.8388118435      -39.7262894394  TIP3      11327           0.0000000000
     83814     11728  TIP3      OH2           -24.0662863745       -8.8278552089      -31.7520671009  TIP3      11328           0.0000000000
     83815     11728  TIP3      H1            -25.0089486615       -9.0632663831      -31.8201348490  TIP3      11328           0.0000000000
     83816     11728  TIP3      H2            -23.6305769862       -9.6125181686      -32.1303602862  TIP3      11328           0.0000000000
     83817     11729  TIP3      OH2           -31.5354262911       -4.5134463814      -35.6355669228  TIP3      11329           0.0000000000
     83818     11729  TIP3      H1            -31.0217803176       -3.7167847456      -35.8423388061  TIP3      11329           0.0000000000
     83819     11729  TIP3      H2            -32.4182655972       -4.2748686638      -35.9518134119  TIP3      11329           0.0000000000
     83820     11730  TIP3      OH2           -35.7933201495       -9.6529212335      -41.0750128986  TIP3      11330           0.0000000000
     83821     11730  TIP3      H1            -35.1687523622       -9.0194368113      -40.6774305460  TIP3      11330           0.0000000000
     83822     11730  TIP3      H2            -36.6604054212       -9.3400051446      -40.7763410828  TIP3      11330           0.0000000000
     83823     11731  TIP3      OH2           -30.1012856564       -6.8491147383      -36.0852345292  TIP3      11331           0.0000000000
     83824     11731  TIP3      H1            -30.3852082257       -5.9170906884      -36.0195982481  TIP3      11331           0.0000000000
     83825     11731  TIP3      H2            -30.8545355598       -7.3128909233      -35.6671796036  TIP3      11331           0.0000000000
     83826     11732  TIP3      OH2           -29.6413694285       -2.6804493828      -29.7339682692  TIP3      11332           0.0000000000
     83827     11732  TIP3      H1            -29.2250627264       -1.8416118506      -29.9875281808  TIP3      11332           0.0000000000
     83828     11732  TIP3      H2            -29.0564726745       -2.9893549490      -29.0166271107  TIP3      11332           0.0000000000
     83829     11733  TIP3      OH2           -31.4296066704       -1.8363581682      -36.5501300041  TIP3      11333           0.0000000000
     83830     11733  TIP3      H1            -32.3978827686       -1.7091742160      -36.4566191359  TIP3      11333           0.0000000000
     83831     11733  TIP3      H2            -31.0793771735       -0.9988246935      -36.1924345850  TIP3      11333           0.0000000000
     83832     11734  TIP3      OH2           -26.0860312324       -6.6168963065      -30.0662405492  TIP3      11334           0.0000000000
     83833     11734  TIP3      H1            -26.4786397693       -6.8337818422      -29.1989603207  TIP3      11334           0.0000000000
     83834     11734  TIP3      H2            -25.4788949400       -7.3512750647      -30.2403933190  TIP3      11334           0.0000000000
     83835     11735  TIP3      OH2           -23.8484171108       -5.6449983195      -40.9810199368  TIP3      11335           0.0000000000
     83836     11735  TIP3      H1            -23.5198244999       -6.0595186651      -40.1572364414  TIP3      11335           0.0000000000
     83837     11735  TIP3      H2            -24.8055597218       -5.7695149198      -40.8850087739  TIP3      11335           0.0000000000
     83838     11736  TIP3      OH2           -23.3650118925       -2.0616718771      -27.5691950800  TIP3      11336           0.0000000000
     83839     11736  TIP3      H1            -24.0079775439       -2.5870480311      -28.0832800952  TIP3      11336           0.0000000000
     83840     11736  TIP3      H2            -23.1265251313       -1.3783210779      -28.2300489864  TIP3      11336           0.0000000000
     83841     11737  TIP3      OH2           -19.3447745085       -1.2058926170      -40.7706339635  TIP3      11337           0.0000000000
     83842     11737  TIP3      H1            -18.6156326233       -0.5812071942      -40.9303671879  TIP3      11337           0.0000000000
     83843     11737  TIP3      H2            -20.0510028868       -0.6070838817      -40.4421342411  TIP3      11337           0.0000000000
     83844     11738  TIP3      OH2           -35.2606008231      -14.8084477990      -28.1769708596  TIP3      11338           0.0000000000
     83845     11738  TIP3      H1            -36.1733180865      -14.4724904087      -28.2377074000  TIP3      11338           0.0000000000
     83846     11738  TIP3      H2            -35.3783932010      -15.6729969019      -27.7555160507  TIP3      11338           0.0000000000
     83847     11739  TIP3      OH2           -23.0043337588       -6.9737285516      -38.7612335541  TIP3      11339           0.0000000000
     83848     11739  TIP3      H1            -23.2616449500       -7.7401303160      -38.2044900752  TIP3      11339           0.0000000000
     83849     11739  TIP3      H2            -22.0616063698       -6.8862506637      -38.5398016739  TIP3      11339           0.0000000000
     83850     11740  TIP3      OH2           -35.6256292285       -3.0130466505      -29.7622472812  TIP3      11340           0.0000000000
     83851     11740  TIP3      H1            -35.3839700342       -3.9518662590      -29.7654570524  TIP3      11340           0.0000000000
     83852     11740  TIP3      H2            -35.3791936031       -2.7417223380      -28.8680930756  TIP3      11340           0.0000000000
     83853     11741  TIP3      OH2           -30.8528695937       -4.9747778625      -40.0769566515  TIP3      11341           0.0000000000
     83854     11741  TIP3      H1            -30.6637234011       -5.5083248082      -39.2954815977  TIP3      11341           0.0000000000
     83855     11741  TIP3      H2            -30.8266617561       -4.0567034832      -39.7499129430  TIP3      11341           0.0000000000
     83856     11742  TIP3      OH2           -34.3887693884       -7.7338771893      -39.5858419829  TIP3      11342           0.0000000000
     83857     11742  TIP3      H1            -35.0654751903       -7.3515332975      -38.9931208955  TIP3      11342           0.0000000000
     83858     11742  TIP3      H2            -33.8432900578       -6.9628323554      -39.8167514501  TIP3      11342           0.0000000000
     83859     11743  TIP3      OH2           -26.5393999995      -15.0539036620      -29.2758159624  TIP3      11343           0.0000000000
     83860     11743  TIP3      H1            -25.8327642237      -14.9961587351      -28.6204816078  TIP3      11343           0.0000000000
     83861     11743  TIP3      H2            -26.9202878132      -15.9370855019      -29.0958258928  TIP3      11343           0.0000000000
     83862     11744  TIP3      OH2           -25.7768792431      -15.4429199560      -38.1639577379  TIP3      11344           0.0000000000
     83863     11744  TIP3      H1            -25.5346865597      -14.9639750670      -38.9860756402  TIP3      11344           0.0000000000
     83864     11744  TIP3      H2            -25.1967437851      -15.0262068414      -37.5185492326  TIP3      11344           0.0000000000
     83865     11745  TIP3      OH2           -28.0908312722       -3.3023718996      -39.3276321656  TIP3      11345           0.0000000000
     83866     11745  TIP3      H1            -28.9103435200       -2.7838845496      -39.2750965968  TIP3      11345           0.0000000000
     83867     11745  TIP3      H2            -27.5568251027       -2.8003286055      -39.9652804786  TIP3      11345           0.0000000000
     83868     11746  TIP3      OH2           -28.5618370872      -13.7052297716      -37.3482728276  TIP3      11346           0.0000000000
     83869     11746  TIP3      H1            -27.7506708320      -13.1647314837      -37.3112486228  TIP3      11346           0.0000000000
     83870     11746  TIP3      H2            -28.8107042732      -13.8399733249      -36.4212553080  TIP3      11346           0.0000000000
     83871     11747  TIP3      OH2           -28.0141632544      -12.7052404836      -28.1651326139  TIP3      11347           0.0000000000
     83872     11747  TIP3      H1            -27.9139344666      -12.1289188671      -27.3846238429  TIP3      11347           0.0000000000
     83873     11747  TIP3      H2            -27.3556685242      -13.3989553557      -28.0479446341  TIP3      11347           0.0000000000
     83874     11748  TIP3      OH2           -27.6881079512      -16.6442807950      -36.4282873354  TIP3      11348           0.0000000000
     83875     11748  TIP3      H1            -28.0194849555      -15.9961672527      -35.7826006951  TIP3      11348           0.0000000000
     83876     11748  TIP3      H2            -27.0086911082      -16.1016514503      -36.8987930415  TIP3      11348           0.0000000000
     83877     11749  TIP3      OH2           -30.7450268439       -2.2649493411      -39.3354941421  TIP3      11349           0.0000000000
     83878     11749  TIP3      H1            -30.5792020363       -1.4386265637      -39.8344164044  TIP3      11349           0.0000000000
     83879     11749  TIP3      H2            -30.9576519233       -1.9289841738      -38.4397494566  TIP3      11349           0.0000000000
     83880     11750  TIP3      OH2           -32.0302826087      -15.5680621552      -39.7325934576  TIP3      11350           0.0000000000
     83881     11750  TIP3      H1            -32.0985149903      -14.6550222527      -39.3747556337  TIP3      11350           0.0000000000
     83882     11750  TIP3      H2            -31.1211002215      -15.8024088380      -39.4726461556  TIP3      11350           0.0000000000
     83883     11751  TIP3      OH2           -21.8065934094      -14.8189972394      -27.3036443410  TIP3      11351           0.0000000000
     83884     11751  TIP3      H1            -22.7442697767      -14.5256389199      -27.4299125885  TIP3      11351           0.0000000000
     83885     11751  TIP3      H2            -21.4999243637      -14.8132975518      -28.2241817319  TIP3      11351           0.0000000000
     83886     11752  TIP3      OH2           -23.2149531744      -11.0377739078      -33.2603876923  TIP3      11352           0.0000000000
     83887     11752  TIP3      H1            -24.0275461469      -11.4745167005      -33.5674666507  TIP3      11352           0.0000000000
     83888     11752  TIP3      H2            -22.7528071002      -11.7407350603      -32.7511784250  TIP3      11352           0.0000000000
     83889     11753  TIP3      OH2           -33.7829172005       -5.1192278924      -40.6762720270  TIP3      11353           0.0000000000
     83890     11753  TIP3      H1            -33.1582546229       -4.4433383727      -40.3909192796  TIP3      11353           0.0000000000
     83891     11753  TIP3      H2            -33.2842505917       -5.5662070062      -41.3869321776  TIP3      11353           0.0000000000
     83892     11754  TIP3      OH2           -35.4271300358      -12.4530371876      -41.5239332743  TIP3      11354           0.0000000000
     83893     11754  TIP3      H1            -35.4734531819      -11.4935318554      -41.3769507067  TIP3      11354           0.0000000000
     83894     11754  TIP3      H2            -36.3142174996      -12.6742870577      -41.8370103043  TIP3      11354           0.0000000000
     83895     11755  TIP3      OH2           -22.1439847015       -1.8000472644      -31.6126242434  TIP3      11355           0.0000000000
     83896     11755  TIP3      H1            -22.2575374005       -1.1075616012      -32.2968800278  TIP3      11355           0.0000000000
     83897     11755  TIP3      H2            -21.1844615404       -1.7196909648      -31.4253197431  TIP3      11355           0.0000000000
     83898     11756  TIP3      OH2           -34.6370445283      -17.6623017070      -32.8477784797  TIP3      11356           0.0000000000
     83899     11756  TIP3      H1            -34.8628081523      -17.6267132108      -33.8034421386  TIP3      11356           0.0000000000
     83900     11756  TIP3      H2            -35.0844845468      -18.4874969179      -32.5709865021  TIP3      11356           0.0000000000
     83901     11757  TIP3      OH2           -35.6961383292       -3.7431499588      -36.6963336639  TIP3      11357           0.0000000000
     83902     11757  TIP3      H1            -36.5407718391       -3.2673254709      -36.7014018348  TIP3      11357           0.0000000000
     83903     11757  TIP3      H2            -35.1813912365       -3.2390155219      -37.3395891472  TIP3      11357           0.0000000000
     83904     11758  TIP3      OH2           -36.4440051516       -1.1120011550      -25.3875228289  TIP3      11358           0.0000000000
     83905     11758  TIP3      H1            -35.8750811900       -1.3255469485      -24.6233150189  TIP3      11358           0.0000000000
     83906     11758  TIP3      H2            -36.9045590898       -1.9430145763      -25.5718977103  TIP3      11358           0.0000000000
     83907     11759  TIP3      OH2           -31.8314546601       -2.2151390646      -23.7622898476  TIP3      11359           0.0000000000
     83908     11759  TIP3      H1            -31.0357256767       -2.6478549084      -23.4479861813  TIP3      11359           0.0000000000
     83909     11759  TIP3      H2            -31.8471629227       -2.4373236103      -24.7143193323  TIP3      11359           0.0000000000
     83910     11760  TIP3      OH2           -27.3986762789       -2.5413927455      -41.8977512405  TIP3      11360           0.0000000000
     83911     11760  TIP3      H1            -28.1969752151       -3.1284034647      -41.9660811727  TIP3      11360           0.0000000000
     83912     11760  TIP3      H2            -26.9296682379       -3.1045428853      -42.5204734056  TIP3      11360           0.0000000000
     83913     11761  TIP3      OH2           -25.2721874489       -3.8032913083      -25.0474543392  TIP3      11361           0.0000000000
     83914     11761  TIP3      H1            -25.6011539992       -4.6839134260      -24.7807953528  TIP3      11361           0.0000000000
     83915     11761  TIP3      H2            -24.5142339328       -3.6738060669      -24.4406750804  TIP3      11361           0.0000000000
     83916     11762  TIP3      OH2           -23.1248894804       -2.8786812737      -42.1723225487  TIP3      11362           0.0000000000
     83917     11762  TIP3      H1            -22.8407471018       -3.6840484068      -41.7000306176  TIP3      11362           0.0000000000
     83918     11762  TIP3      H2            -22.3604027735       -2.6557610442      -42.7184054351  TIP3      11362           0.0000000000
     83919     11763  TIP3      OH2           -36.5219308141       -7.3064763645      -24.4106754815  TIP3      11363           0.0000000000
     83920     11763  TIP3      H1            -36.3813296475       -8.2227455597      -24.7155067276  TIP3      11363           0.0000000000
     83921     11763  TIP3      H2            -37.2934430791       -7.0313779133      -24.9389818766  TIP3      11363           0.0000000000
     83922     11764  TIP3      OH2           -32.1478490206       -6.9189185729      -42.2607273212  TIP3      11364           0.0000000000
     83923     11764  TIP3      H1            -32.0962946773       -7.7520668876      -41.7767971961  TIP3      11364           0.0000000000
     83924     11764  TIP3      H2            -31.5370222535       -7.1121870889      -42.9981084478  TIP3      11364           0.0000000000
     83925     11765  TIP3      OH2           -29.8642113425       -7.3314637515      -24.9733937995  TIP3      11365           0.0000000000
     83926     11765  TIP3      H1            -30.1822457547       -7.0470290069      -25.8613094027  TIP3      11365           0.0000000000
     83927     11765  TIP3      H2            -29.7296533270       -8.3006895399      -25.1135077215  TIP3      11365           0.0000000000
     83928     11766  TIP3      OH2           -24.1405896678       -7.4533390754      -27.6152901338  TIP3      11366           0.0000000000
     83929     11766  TIP3      H1            -23.3739964357       -6.8461997656      -27.7152345392  TIP3      11366           0.0000000000
     83930     11766  TIP3      H2            -24.8717074276       -6.8224803033      -27.5657158164  TIP3      11366           0.0000000000
     83931     11767  TIP3      OH2           -35.6645484183      -10.0920921019      -25.0059214866  TIP3      11367           0.0000000000
     83932     11767  TIP3      H1            -35.2704945428      -10.9617565978      -25.1324706875  TIP3      11367           0.0000000000
     83933     11767  TIP3      H2            -35.9452945252      -10.1101913339      -24.0843916533  TIP3      11367           0.0000000000
     83934     11768  TIP3      OH2           -31.0202715359       -8.9546261180      -39.9808120218  TIP3      11368           0.0000000000
     83935     11768  TIP3      H1            -31.4944187362       -9.4775936336      -39.3132123126  TIP3      11368           0.0000000000
     83936     11768  TIP3      H2            -30.7426893947       -9.6568473360      -40.6167186804  TIP3      11368           0.0000000000
     83937     11769  TIP3      OH2           -31.7399251495      -11.1241294289      -27.6394468843  TIP3      11369           0.0000000000
     83938     11769  TIP3      H1            -32.3522604549      -10.4182871020      -27.3738645483  TIP3      11369           0.0000000000
     83939     11769  TIP3      H2            -31.3798991994      -10.7747737833      -28.4729249177  TIP3      11369           0.0000000000
     83940     11770  TIP3      OH2           -29.9553710927      -10.7391356692      -41.7347474594  TIP3      11370           0.0000000000
     83941     11770  TIP3      H1            -30.1049618237      -10.9123831719      -42.6723688196  TIP3      11370           0.0000000000
     83942     11770  TIP3      H2            -28.9776260315      -10.6451591351      -41.6654919387  TIP3      11370           0.0000000000
     83943     11771  TIP3      OH2           -26.7092719441       -8.5900928456      -24.3221379402  TIP3      11371           0.0000000000
     83944     11771  TIP3      H1            -25.7466746301       -8.5733393421      -24.4083147950  TIP3      11371           0.0000000000
     83945     11771  TIP3      H2            -26.8682574495       -9.3533825507      -23.7381284060  TIP3      11371           0.0000000000
     83946     11772  TIP3      OH2           -20.6814646002       -8.3291193418       42.7727960997  TIP3      11372           0.0000000000
     83947     11772  TIP3      H1            -20.8393144412       -8.8018317594       41.9313829148  TIP3      11372           0.0000000000
     83948     11772  TIP3      H2            -20.5251175121       -7.4193859921       42.4967861611  TIP3      11372           0.0000000000
     83949     11773  TIP3      OH2           -31.3832670959      -13.7513661231      -26.5614602803  TIP3      11373           0.0000000000
     83950     11773  TIP3      H1            -31.2404600658      -14.4777444293      -27.1918628057  TIP3      11373           0.0000000000
     83951     11773  TIP3      H2            -31.3919095812      -12.9563100306      -27.1307907018  TIP3      11373           0.0000000000
     83952     11774  TIP3      OH2           -30.9626381872      -15.3821568212      -29.0454158987  TIP3      11374           0.0000000000
     83953     11774  TIP3      H1            -30.4381471345      -14.9205058119      -29.7389757927  TIP3      11374           0.0000000000
     83954     11774  TIP3      H2            -31.8435375847      -15.4763292120      -29.4764880045  TIP3      11374           0.0000000000
     83955     11775  TIP3      OH2           -29.4031113819       -9.9292995373      -28.8126394157  TIP3      11375           0.0000000000
     83956     11775  TIP3      H1            -28.6472295354      -10.0829667418      -29.3884927208  TIP3      11375           0.0000000000
     83957     11775  TIP3      H2            -29.7495565664       -9.0740516983      -29.1103484367  TIP3      11375           0.0000000000
     83958     11776  TIP3      OH2           -24.9921090651      -12.1338984253      -23.8103144853  TIP3      11376           0.0000000000
     83959     11776  TIP3      H1            -24.7837242950      -13.0609828602      -23.9196896507  TIP3      11376           0.0000000000
     83960     11776  TIP3      H2            -24.1302790157      -11.6934998712      -23.8139599224  TIP3      11376           0.0000000000
     83961     11777  TIP3      OH2           -23.6784583738       -9.3492128410      -25.6960442307  TIP3      11377           0.0000000000
     83962     11777  TIP3      H1            -23.9333200406       -8.6169004165      -26.3018784565  TIP3      11377           0.0000000000
     83963     11777  TIP3      H2            -22.7168954533       -9.3910164068      -25.8803087643  TIP3      11377           0.0000000000
     83964     11778  TIP3      OH2           -32.9039597476      -12.5255750763      -24.6314800714  TIP3      11378           0.0000000000
     83965     11778  TIP3      H1            -33.6708269697      -13.0910489414      -24.8576243288  TIP3      11378           0.0000000000
     83966     11778  TIP3      H2            -32.2387956876      -12.8733825789      -25.2620640500  TIP3      11378           0.0000000000
     83967     11779  TIP3      OH2           -30.1644149371      -17.9414033407      -28.6247710074  TIP3      11379           0.0000000000
     83968     11779  TIP3      H1            -30.3000334246      -16.9721609479      -28.7416467174  TIP3      11379           0.0000000000
     83969     11779  TIP3      H2            -30.9201389022      -18.2968071539      -29.1272238717  TIP3      11379           0.0000000000
     83970     11780  TIP3      OH2           -28.8935131326      -13.6232210623      -25.0590628121  TIP3      11380           0.0000000000
     83971     11780  TIP3      H1            -29.1712082042      -13.8296840386      -24.1494826465  TIP3      11380           0.0000000000
     83972     11780  TIP3      H2            -29.7016117997      -13.8081990413      -25.5737348427  TIP3      11380           0.0000000000
     83973     11781  TIP3      OH2           -26.1748516320      -14.4898212129      -25.9910564194  TIP3      11381           0.0000000000
     83974     11781  TIP3      H1            -27.1419627895      -14.4306864856      -25.8510458998  TIP3      11381           0.0000000000
     83975     11781  TIP3      H2            -25.8950482135      -15.1072301771      -25.3079522542  TIP3      11381           0.0000000000
     83976     11782  TIP3      OH2           -24.5463608304      -15.8327646782      -23.9671849219  TIP3      11382           0.0000000000
     83977     11782  TIP3      H1            -24.6609677635      -16.8117647873      -24.0221818439  TIP3      11382           0.0000000000
     83978     11782  TIP3      H2            -24.9184007040      -15.5703552267      -23.1327684741  TIP3      11382           0.0000000000
     83979     11783  TIP3      OH2           -34.7665025462      -14.5906860660      -24.9289125149  TIP3      11383           0.0000000000
     83980     11783  TIP3      H1            -34.5322634309      -15.3253473810      -25.5352126542  TIP3      11383           0.0000000000
     83981     11783  TIP3      H2            -34.8581297109      -15.0650387115      -24.0891060510  TIP3      11383           0.0000000000
     83982     11784  TIP3      OH2           -29.9499471762      -18.5944362467      -25.9520649650  TIP3      11384           0.0000000000
     83983     11784  TIP3      H1            -29.2418022062      -19.2713030065      -25.9805256891  TIP3      11384           0.0000000000
     83984     11784  TIP3      H2            -30.0530326073      -18.3792240843      -26.8955090167  TIP3      11384           0.0000000000
     83985     11785  TIP3      OH2           -29.5547832888      -16.9298890598      -23.8876771120  TIP3      11385           0.0000000000
     83986     11785  TIP3      H1            -29.7384865375      -17.4388530064      -24.7122405174  TIP3      11385           0.0000000000
     83987     11785  TIP3      H2            -30.2023377313      -16.2016856697      -23.9537619378  TIP3      11385           0.0000000000
     83988     11786  TIP3      OH2           -30.0838527924       -0.0535727207      -40.7336704583  TIP3      11386           0.0000000000
     83989     11786  TIP3      H1            -29.1197191879        0.0864520407      -40.5917426095  TIP3      11386           0.0000000000
     83990     11786  TIP3      H2            -30.3025878766        0.6255993228      -41.3672229718  TIP3      11386           0.0000000000
     83991     11787  TIP3      OH2           -36.5161187698       -5.4284466699      -41.2232270499  TIP3      11387           0.0000000000
     83992     11787  TIP3      H1            -35.5628435018       -5.3487458072      -40.9789753151  TIP3      11387           0.0000000000
     83993     11787  TIP3      H2            -36.4834671331       -6.0847089016      -41.9265525990  TIP3      11387           0.0000000000
     83994     11788  TIP3      OH2           -37.8005956580       -0.0429158333      -36.2034512249  TIP3      11388           0.0000000000
     83995     11788  TIP3      H1            -38.4920976746       -0.5246296369      -36.7035887563  TIP3      11388           0.0000000000
     83996     11788  TIP3      H2            -37.4889646724       -0.7160601457      -35.5755898146  TIP3      11388           0.0000000000
     83997     11789  TIP3      OH2           -36.9647899344       -1.9393725320      -34.3694316384  TIP3      11389           0.0000000000
     83998     11789  TIP3      H1            -37.3032363809       -2.8271523169      -34.1792361721  TIP3      11389           0.0000000000
     83999     11789  TIP3      H2            -36.7278728270       -1.6126648469      -33.4876785267  TIP3      11389           0.0000000000
     84000     11790  TIP3      OH2           -19.4229348231       -1.1472066208      -31.4067965775  TIP3      11390           0.0000000000
     84001     11790  TIP3      H1            -19.4163248477       -0.9593428116      -30.4516511500  TIP3      11390           0.0000000000
     84002     11790  TIP3      H2            -18.7241477183       -0.5632735019      -31.7308495812  TIP3      11390           0.0000000000
     84003     11791  TIP3      OH2           -19.8500532491       -1.5451180713      -28.4675327390  TIP3      11391           0.0000000000
     84004     11791  TIP3      H1            -20.3311063663       -2.3166791159      -28.8407585729  TIP3      11391           0.0000000000
     84005     11791  TIP3      H2            -19.3217922627       -1.9832347852      -27.7782803263  TIP3      11391           0.0000000000
     84006     11792  TIP3      OH2           -21.3986771050       -5.8165486741      -23.8328478773  TIP3      11392           0.0000000000
     84007     11792  TIP3      H1            -22.2774466448       -5.8723600197      -23.4239009157  TIP3      11392           0.0000000000
     84008     11792  TIP3      H2            -21.0294666074       -5.0218896719      -23.3711776285  TIP3      11392           0.0000000000
     84009     11793  TIP3      OH2           -20.0959339885       -7.5103102466      -38.3468801750  TIP3      11393           0.0000000000
     84010     11793  TIP3      H1            -19.2373561839       -7.1008569116      -38.1708570938  TIP3      11393           0.0000000000
     84011     11793  TIP3      H2            -20.0952265983       -8.2504591411      -37.6959200737  TIP3      11393           0.0000000000
     84012     11794  TIP3      OH2           -19.7175324406       -9.4438124147      -36.4972316479  TIP3      11394           0.0000000000
     84013     11794  TIP3      H1            -20.4557647528       -9.9492615065      -36.0923059317  TIP3      11394           0.0000000000
     84014     11794  TIP3      H2            -19.1213810636       -9.2739445356      -35.7391110007  TIP3      11394           0.0000000000
     84015     11795  TIP3      OH2           -19.9643860574       -6.7098266652      -31.5183715993  TIP3      11395           0.0000000000
     84016     11795  TIP3      H1            -19.1235807707       -7.0765680588      -31.8501956312  TIP3      11395           0.0000000000
     84017     11795  TIP3      H2            -19.8269469871       -5.7495449960      -31.6696445691  TIP3      11395           0.0000000000
     84018     11796  TIP3      OH2           -21.4298456753       -3.8157756901      -29.2252062769  TIP3      11396           0.0000000000
     84019     11796  TIP3      H1            -22.1128087890       -3.4819054106      -28.6215376453  TIP3      11396           0.0000000000
     84020     11796  TIP3      H2            -21.9767204009       -4.2400057569      -29.9232989328  TIP3      11396           0.0000000000
     84021     11797  TIP3      OH2           -19.4311628511       -9.5939337227      -40.1038128114  TIP3      11397           0.0000000000
     84022     11797  TIP3      H1            -19.9838544162       -9.2186596848      -40.8149007899  TIP3      11397           0.0000000000
     84023     11797  TIP3      H2            -19.4859926473       -8.8926817030      -39.4262005142  TIP3      11397           0.0000000000
     84024     11798  TIP3      OH2           -21.3161131715      -12.3213655096      -41.4708726269  TIP3      11398           0.0000000000
     84025     11798  TIP3      H1            -20.9874300870      -11.7141589063      -42.1623084828  TIP3      11398           0.0000000000
     84026     11798  TIP3      H2            -21.2297506410      -13.1493650259      -41.9895755351  TIP3      11398           0.0000000000
     84027     11799  TIP3      OH2           -21.9117271301      -10.9461400369      -35.9304332681  TIP3      11399           0.0000000000
     84028     11799  TIP3      H1            -22.0661156929      -11.9023123650      -35.9471808306  TIP3      11399           0.0000000000
     84029     11799  TIP3      H2            -22.2638528793      -10.6929451606      -35.0616965320  TIP3      11399           0.0000000000
     84030     11800  TIP3      OH2           -36.9001222403       -8.8643612554      -31.8852080955  TIP3      11400           0.0000000000
     84031     11800  TIP3      H1            -36.7016026253       -8.9503960262      -32.8440320973  TIP3      11400           0.0000000000
     84032     11800  TIP3      H2            -36.0153332692       -9.0137085992      -31.4995856725  TIP3      11400           0.0000000000
     84033     11801  TIP3      OH2           -21.0685547823       -8.9850343256      -26.2522210040  TIP3      11401           0.0000000000
     84034     11801  TIP3      H1            -20.4559662591       -9.7304651210      -26.0958176375  TIP3      11401           0.0000000000
     84035     11801  TIP3      H2            -20.4779404741       -8.2014267539      -26.2401427163  TIP3      11401           0.0000000000
     84036     11802  TIP3      OH2           -19.5563611005      -11.0800564542      -25.5625632035  TIP3      11402           0.0000000000
     84037     11802  TIP3      H1            -20.4333258895      -11.4767760948      -25.7678474219  TIP3      11402           0.0000000000
     84038     11802  TIP3      H2            -18.9645531096      -11.8425760702      -25.6868648899  TIP3      11402           0.0000000000
     84039     11803  TIP3      OH2           -21.8285730002      -14.9294126968      -42.4509853481  TIP3      11403           0.0000000000
     84040     11803  TIP3      H1            -21.2264455467      -15.3231581110      -41.7930407564  TIP3      11403           0.0000000000
     84041     11803  TIP3      H2            -22.6894293357      -15.3283669508      -42.2442884455  TIP3      11403           0.0000000000
     84042     11804  TIP3      OH2           -22.2294351722      -13.3585250655      -37.4549857706  TIP3      11404           0.0000000000
     84043     11804  TIP3      H1            -21.9240114791      -14.2878290741      -37.3380522750  TIP3      11404           0.0000000000
     84044     11804  TIP3      H2            -21.4493085647      -12.9457822353      -37.8517874767  TIP3      11404           0.0000000000
     84045     11805  TIP3      OH2           -21.6080277947      -12.8134873872      -32.0293226633  TIP3      11405           0.0000000000
     84046     11805  TIP3      H1            -20.6504787739      -12.5764841451      -32.0469504403  TIP3      11405           0.0000000000
     84047     11805  TIP3      H2            -21.8125549509      -12.6785590407      -31.0903769763  TIP3      11405           0.0000000000
     84048     11806  TIP3      OH2           -21.5485744837      -12.0850344425      -29.2519377403  TIP3      11406           0.0000000000
     84049     11806  TIP3      H1            -22.4140967846      -11.7902499427      -28.8902535693  TIP3      11406           0.0000000000
     84050     11806  TIP3      H2            -21.1138081787      -11.2242759810      -29.4635124140  TIP3      11406           0.0000000000
     84051     11807  TIP3      OH2           -37.2960395507      -13.5764575114      -25.7594726728  TIP3      11407           0.0000000000
     84052     11807  TIP3      H1            -36.3610631251      -13.7473064755      -25.5359213381  TIP3      11407           0.0000000000
     84053     11807  TIP3      H2            -37.7391390409      -14.3708309417      -25.3916352476  TIP3      11407           0.0000000000
     84054     11808  TIP3      OH2           -19.2577456300      -18.0671817681      -23.8813740315  TIP3      11408           0.0000000000
     84055     11808  TIP3      H1            -18.9357747516      -18.7195584991      -24.5210888877  TIP3      11408           0.0000000000
     84056     11808  TIP3      H2            -19.1482463344      -17.2243767502      -24.3683032125  TIP3      11408           0.0000000000
     84057     11809  TIP3      OH2           -21.5827413534      -16.0870332435      -37.4142397875  TIP3      11409           0.0000000000
     84058     11809  TIP3      H1            -21.3916652572      -16.5465223285      -36.5736759150  TIP3      11409           0.0000000000
     84059     11809  TIP3      H2            -22.1931829692      -16.7052245896      -37.8756543018  TIP3      11409           0.0000000000
     84060     11810  TIP3      OH2           -36.0819117205      -15.2802530376      -32.8778799335  TIP3      11410           0.0000000000
     84061     11810  TIP3      H1            -35.6174533393      -16.0905080599      -32.5850272902  TIP3      11410           0.0000000000
     84062     11810  TIP3      H2            -35.5759380097      -14.5722550919      -32.4564550303  TIP3      11410           0.0000000000
     84063     11811  TIP3      OH2           -37.7901275819      -12.2916319369      -31.8104928584  TIP3      11411           0.0000000000
     84064     11811  TIP3      H1            -37.2491131100      -12.5101985569      -32.5983705136  TIP3      11411           0.0000000000
     84065     11811  TIP3      H2            -37.3719214119      -11.4581986302      -31.5441895014  TIP3      11411           0.0000000000
     84066     11812  TIP3      OH2           -19.7377340579      -15.9580613336      -25.5252418585  TIP3      11412           0.0000000000
     84067     11812  TIP3      H1            -20.6755421920      -15.6855812531      -25.5964877465  TIP3      11412           0.0000000000
     84068     11812  TIP3      H2            -19.6685020049      -16.4888272399      -26.3377674195  TIP3      11412           0.0000000000
     84069     11813  TIP3      OH2           -19.7498342101      -16.0346660365      -40.8605554634  TIP3      11413           0.0000000000
     84070     11813  TIP3      H1            -19.3126701672      -16.7472349416      -41.3588363768  TIP3      11413           0.0000000000
     84071     11813  TIP3      H2            -19.0349208586      -15.3706488012      -40.8340012872  TIP3      11413           0.0000000000
     84072     11814  TIP3      OH2           -37.4391610076      -16.0283497007      -37.7563842517  TIP3      11414           0.0000000000
     84073     11814  TIP3      H1            -38.3776709916      -15.8214788474      -37.8888155142  TIP3      11414           0.0000000000
     84074     11814  TIP3      H2            -37.0028264662      -15.5322177315      -38.4660909918  TIP3      11414           0.0000000000
     84075     11815  TIP3      OH2           -22.7005542512       -1.0609273737      -35.8003113039  TIP3      11415           0.0000000000
     84076     11815  TIP3      H1            -22.0136557283       -1.3712815378      -36.4231531632  TIP3      11415           0.0000000000
     84077     11815  TIP3      H2            -22.1640059772       -0.5528109572      -35.1715376336  TIP3      11415           0.0000000000
     84078     11816  TIP3      OH2           -37.4740579265      -17.3234847457      -29.4268448509  TIP3      11416           0.0000000000
     84079     11816  TIP3      H1            -38.1564350712      -17.5419300225      -28.7690271449  TIP3      11416           0.0000000000
     84080     11816  TIP3      H2            -37.9378937206      -16.6694396351      -29.9946574095  TIP3      11416           0.0000000000
     84081     11817  TIP3      OH2           -35.2714170658       -4.1384222998      -25.2754804300  TIP3      11417           0.0000000000
     84082     11817  TIP3      H1            -36.1101515879       -3.9399903148      -25.7250261302  TIP3      11417           0.0000000000
     84083     11817  TIP3      H2            -35.5487040397       -4.1968497424      -24.3517865701  TIP3      11417           0.0000000000
     84084     11818  TIP3      OH2           -32.3502468449       -3.1588551767      -29.0058278748  TIP3      11418           0.0000000000
     84085     11818  TIP3      H1            -32.7297064176       -2.3171881856      -29.2938104727  TIP3      11418           0.0000000000
     84086     11818  TIP3      H2            -31.4270616733       -3.0554123503      -29.3193910929  TIP3      11418           0.0000000000
     84087     11819  TIP3      OH2           -28.0339940249       -1.7406560811      -26.0848080169  TIP3      11419           0.0000000000
     84088     11819  TIP3      H1            -27.8496113444       -2.0700311275      -25.1734796413  TIP3      11419           0.0000000000
     84089     11819  TIP3      H2            -27.1512969869       -1.4302824634      -26.3631963110  TIP3      11419           0.0000000000
     84090     11820  TIP3      OH2           -25.7124367119       -0.4469594222      -26.8228734954  TIP3      11420           0.0000000000
     84091     11820  TIP3      H1            -25.0021641199       -1.0750861876      -27.0399593719  TIP3      11420           0.0000000000
     84092     11820  TIP3      H2            -25.3571654266       -0.0490239039      -25.9957554329  TIP3      11420           0.0000000000
     84093     11821  TIP3      OH2           -20.7438335023      -17.8509295239      -27.7027060897  TIP3      11421           0.0000000000
     84094     11821  TIP3      H1            -21.5723063274      -17.5501529884      -28.1189580278  TIP3      11421           0.0000000000
     84095     11821  TIP3      H2            -20.5448756739      -18.6472777216      -28.2487645316  TIP3      11421           0.0000000000
     84096     11822  TIP3      OH2           -34.9299805723        0.0961847246      -28.9870066921  TIP3      11422           0.0000000000
     84097     11822  TIP3      H1            -35.6555967545        0.5673778603      -29.4119932202  TIP3      11422           0.0000000000
     84098     11822  TIP3      H2            -35.2714917912       -0.1308374984      -28.1090386468  TIP3      11422           0.0000000000
     84099     11823  TIP3      OH2           -32.4557273008       -0.3157565756      -29.9328983874  TIP3      11423           0.0000000000
     84100     11823  TIP3      H1            -33.3494167107       -0.2039005149      -29.5341281439  TIP3      11423           0.0000000000
     84101     11823  TIP3      H2            -32.5252787672        0.2616247280      -30.7189520611  TIP3      11423           0.0000000000
     84102     11824  TIP3      OH2           -27.7436544534       -0.4101462948      -30.7679740989  TIP3      11424           0.0000000000
     84103     11824  TIP3      H1            -28.2229025060        0.1269743309      -31.4188010449  TIP3      11424           0.0000000000
     84104     11824  TIP3      H2            -27.6095951689        0.2108578724      -30.0264201242  TIP3      11424           0.0000000000
     84105     11825  TIP3      OH2           -25.4340939183       -1.5618451679      -29.7874134985  TIP3      11425           0.0000000000
     84106     11825  TIP3      H1            -26.3296273834       -1.3482950201      -30.0944984521  TIP3      11425           0.0000000000
     84107     11825  TIP3      H2            -24.9957711396       -0.7027866821      -29.8706773204  TIP3      11425           0.0000000000
     84108     11826  TIP3      OH2           -22.8658867613       -0.0011729338      -29.5002176295  TIP3      11426           0.0000000000
     84109     11826  TIP3      H1            -22.9755443638        0.9435260096      -29.7418172526  TIP3      11426           0.0000000000
     84110     11826  TIP3      H2            -22.6555254611       -0.3897806755      -30.3743051532  TIP3      11426           0.0000000000
     84111     11827  TIP3      OH2           -35.5180254537       -1.2526659533      -32.0604134756  TIP3      11427           0.0000000000
     84112     11827  TIP3      H1            -35.5401757668       -1.7128740433      -31.1944474644  TIP3      11427           0.0000000000
     84113     11827  TIP3      H2            -34.6933752267       -1.6038729003      -32.4636581828  TIP3      11427           0.0000000000
     84114     11828  TIP3      OH2           -33.3958381052       -2.5465107003      -33.4137231926  TIP3      11428           0.0000000000
     84115     11828  TIP3      H1            -33.5803101466       -3.4823677711      -33.2121819305  TIP3      11428           0.0000000000
     84116     11828  TIP3      H2            -32.5427491011       -2.4142896611      -32.9415760995  TIP3      11428           0.0000000000
     84117     11829  TIP3      OH2           -30.8237341200       -2.0694121131      -32.5504180344  TIP3      11429           0.0000000000
     84118     11829  TIP3      H1            -30.6266216951       -2.9834690715      -32.8232186765  TIP3      11429           0.0000000000
     84119     11829  TIP3      H2            -30.7617779318       -2.1307094707      -31.5881362899  TIP3      11429           0.0000000000
     84120     11830  TIP3      OH2           -27.3328031809      -16.4154118638      -33.4010890803  TIP3      11430           0.0000000000
     84121     11830  TIP3      H1            -28.0100193783      -17.0614412517      -33.1425762651  TIP3      11430           0.0000000000
     84122     11830  TIP3      H2            -26.7753491185      -16.9270848752      -34.0013213895  TIP3      11430           0.0000000000
     84123     11831  TIP3      OH2           -22.1977617452      -18.3429273550      -33.3014042356  TIP3      11431           0.0000000000
     84124     11831  TIP3      H1            -21.5790402962      -17.7659565110      -33.8181565181  TIP3      11431           0.0000000000
     84125     11831  TIP3      H2            -23.0742639081      -17.9981015398      -33.5507705592  TIP3      11431           0.0000000000
     84126     11832  TIP3      OH2           -20.5062218108      -17.1531537844      -35.0006582903  TIP3      11432           0.0000000000
     84127     11832  TIP3      H1            -19.8399673692      -17.6987555615      -35.4844268495  TIP3      11432           0.0000000000
     84128     11832  TIP3      H2            -20.0514474757      -16.2859055555      -34.9439920784  TIP3      11432           0.0000000000
     84129     11833  TIP3      OH2           -34.9797497538      -17.7803764968      -35.5681185590  TIP3      11433           0.0000000000
     84130     11833  TIP3      H1            -35.7755370745      -18.0142942444      -36.0883257334  TIP3      11433           0.0000000000
     84131     11833  TIP3      H2            -34.4849408288      -18.6182323721      -35.5943767837  TIP3      11433           0.0000000000
     84132     11834  TIP3      OH2           -36.1878715148      -18.0156223084      -39.7992251489  TIP3      11434           0.0000000000
     84133     11834  TIP3      H1            -35.7217469922      -17.3806091913      -40.3773715206  TIP3      11434           0.0000000000
     84134     11834  TIP3      H2            -36.7900316483      -17.4483225105      -39.2933319301  TIP3      11434           0.0000000000
     84135     11835  TIP3      OH2           -30.4571127942      -17.8657457581      -35.7742614906  TIP3      11435           0.0000000000
     84136     11835  TIP3      H1            -29.5611006087      -17.4852616429      -35.8112136351  TIP3      11435           0.0000000000
     84137     11835  TIP3      H2            -30.5458205416      -18.0768383676      -34.8447011454  TIP3      11435           0.0000000000
     84138     11836  TIP3      OH2           -24.8319581371      -17.8316459592      -34.1264539629  TIP3      11436           0.0000000000
     84139     11836  TIP3      H1            -24.8062369649      -17.7399941541      -35.0842481861  TIP3      11436           0.0000000000
     84140     11836  TIP3      H2            -25.1583825988      -18.7537253504      -34.0010286696  TIP3      11436           0.0000000000
     84141     11837  TIP3      OH2           -23.5057355791      -17.8060700842      -38.4520376378  TIP3      11437           0.0000000000
     84142     11837  TIP3      H1            -24.2357373606      -17.1996893903      -38.6405571430  TIP3      11437           0.0000000000
     84143     11837  TIP3      H2            -23.9622876635      -18.6624980200      -38.2847939748  TIP3      11437           0.0000000000
     84144     11838  TIP3      OH2           -36.2605566237       -2.0694369132      -38.8472822835  TIP3      11438           0.0000000000
     84145     11838  TIP3      H1            -36.9532210979       -2.0739787481      -39.5418042290  TIP3      11438           0.0000000000
     84146     11838  TIP3      H2            -36.2684040109       -1.1271803109      -38.6241099502  TIP3      11438           0.0000000000
     84147     11839  TIP3      OH2           -34.3390693770      -16.1116205778      -41.3254155996  TIP3      11439           0.0000000000
     84148     11839  TIP3      H1            -33.8185152404      -16.7097301563      -41.8605884356  TIP3      11439           0.0000000000
     84149     11839  TIP3      H2            -33.6891073921      -15.7673939163      -40.6868701515  TIP3      11439           0.0000000000
     84150     11840  TIP3      OH2           -29.3084515774      -15.8155026789      -38.9107962649  TIP3      11440           0.0000000000
     84151     11840  TIP3      H1            -29.0908096749      -16.4228330416      -38.1838588988  TIP3      11440           0.0000000000
     84152     11840  TIP3      H2            -29.3095946902      -14.9600575553      -38.4179307822  TIP3      11440           0.0000000000
     84153     11841  TIP3      OH2           -27.4361796895       -0.6529526324      -40.3965843589  TIP3      11441           0.0000000000
     84154     11841  TIP3      H1            -26.5111441027       -0.4894440255      -40.6473019887  TIP3      11441           0.0000000000
     84155     11841  TIP3      H2            -27.6250060874       -1.2283548635      -41.1972663762  TIP3      11441           0.0000000000
     84156     11842  TIP3      OH2           -20.7037196865       -1.2894260768      -37.7784966490  TIP3      11442           0.0000000000
     84157     11842  TIP3      H1            -20.9011074722       -2.0359764348      -38.3734451203  TIP3      11442           0.0000000000
     84158     11842  TIP3      H2            -20.7511073589       -0.5105484788      -38.3734131722  TIP3      11442           0.0000000000
     84159     11843  TIP3      OH2           -35.0774470478      -17.2530248538      -26.0928938795  TIP3      11443           0.0000000000
     84160     11843  TIP3      H1            -35.4271927862      -18.0438075970      -25.6371488931  TIP3      11443           0.0000000000
     84161     11843  TIP3      H2            -34.1467423468      -17.2724678298      -25.7460264154  TIP3      11443           0.0000000000
     84162     11844  TIP3      OH2           -33.0697135216      -17.9009966202      -24.5441136594  TIP3      11444           0.0000000000
     84163     11844  TIP3      H1            -32.1650826916      -18.2128841098      -24.7072067664  TIP3      11444           0.0000000000
     84164     11844  TIP3      H2            -33.4453169849      -18.6614829220      -24.0518637545  TIP3      11444           0.0000000000
     84165     11845  TIP3      OH2           -34.4489800741       -1.1161227828      -41.8640797227  TIP3      11445           0.0000000000
     84166     11845  TIP3      H1            -34.7267295070       -0.8376039578      -40.9813584777  TIP3      11445           0.0000000000
     84167     11845  TIP3      H2            -33.6846023048       -1.6671449124      -41.7020710183  TIP3      11445           0.0000000000
     84168     11846  TIP3      OH2           -24.6562287226      -18.5552316001      -24.3377888460  TIP3      11446           0.0000000000
     84169     11846  TIP3      H1            -24.5765734361      -19.0421431004      -23.4896075807  TIP3      11446           0.0000000000
     84170     11846  TIP3      H2            -23.7465029489      -18.6015853295      -24.6872940450  TIP3      11446           0.0000000000
     84171     11847  TIP3      OH2           -21.4611266158       -2.5353955244      -25.6553274597  TIP3      11447           0.0000000000
     84172     11847  TIP3      H1            -22.2694406535       -2.6880667844      -26.1890693547  TIP3      11447           0.0000000000
     84173     11847  TIP3      H2            -21.5647222713       -1.5822435611      -25.4469841199  TIP3      11447           0.0000000000
     84174     11848  TIP3      OH2            -7.0476671562       -8.6523981014      -35.6460925021  TIP3      11448           0.0000000000
     84175     11848  TIP3      H1             -7.0026147136       -7.6772856795      -35.7499519653  TIP3      11448           0.0000000000
     84176     11848  TIP3      H2             -7.7286567273       -8.8981765356      -36.2919853113  TIP3      11448           0.0000000000
     84177     11849  TIP3      OH2            -8.1502430815       -9.3888450442      -32.1835976153  TIP3      11449           0.0000000000
     84178     11849  TIP3      H1             -8.1811040775      -10.0291669484      -31.4931029267  TIP3      11449           0.0000000000
     84179     11849  TIP3      H2             -8.4710000870       -9.8584791133      -32.9716399458  TIP3      11449           0.0000000000
     84180     11850  TIP3      OH2           -15.7934130850       -9.7433908805      -30.6346859826  TIP3      11450           0.0000000000
     84181     11850  TIP3      H1            -15.7229160229      -10.3997237562      -29.9080601922  TIP3      11450           0.0000000000
     84182     11850  TIP3      H2            -15.0630261331       -9.1448351288      -30.4244094886  TIP3      11450           0.0000000000
     84183     11851  TIP3      OH2            -4.4453756492       -6.4440565485      -33.9164968315  TIP3      11451           0.0000000000
     84184     11851  TIP3      H1             -4.8829370074       -7.1549726667      -33.4410103263  TIP3      11451           0.0000000000
     84185     11851  TIP3      H2             -4.4506254027       -5.7246224296      -33.2565872236  TIP3      11451           0.0000000000
     84186     11852  TIP3      OH2           -14.8670616353       -5.2894539574      -32.0964102250  TIP3      11452           0.0000000000
     84187     11852  TIP3      H1            -15.2054986676       -6.1307404887      -32.4546934699  TIP3      11452           0.0000000000
     84188     11852  TIP3      H2            -13.9119849737       -5.4796432650      -32.0561422700  TIP3      11452           0.0000000000
     84189     11853  TIP3      OH2           -18.2281457401      -11.6875498385      -36.6699730845  TIP3      11453           0.0000000000
     84190     11853  TIP3      H1            -18.6853051266      -10.8200353846      -36.7096387234  TIP3      11453           0.0000000000
     84191     11853  TIP3      H2            -18.8070776279      -12.2381045339      -37.2164320656  TIP3      11453           0.0000000000
     84192     11854  TIP3      OH2           -17.5370191425       -9.4855582430      -34.5409843411  TIP3      11454           0.0000000000
     84193     11854  TIP3      H1            -17.2905077109      -10.2851714738      -34.0417870541  TIP3      11454           0.0000000000
     84194     11854  TIP3      H2            -16.8019766747       -9.3986756029      -35.1683934207  TIP3      11454           0.0000000000
     84195     11855  TIP3      OH2            -7.3437211549       -1.3046978218      -33.6855977548  TIP3      11455           0.0000000000
     84196     11855  TIP3      H1             -6.7013737192       -2.0087392567      -33.9604951139  TIP3      11455           0.0000000000
     84197     11855  TIP3      H2             -7.5399924211       -1.5822963137      -32.7917555572  TIP3      11455           0.0000000000
     84198     11856  TIP3      OH2            -9.7768230011       -6.9598908842      -31.7713767153  TIP3      11456           0.0000000000
     84199     11856  TIP3      H1             -9.4413508007       -7.6204021085      -32.3969761466  TIP3      11456           0.0000000000
     84200     11856  TIP3      H2             -9.0037621349       -6.8326125778      -31.1950030368  TIP3      11456           0.0000000000
     84201     11857  TIP3      OH2            -1.1337451821      -15.3529499918      -30.9661920420  TIP3      11457           0.0000000000
     84202     11857  TIP3      H1             -1.0215407798      -14.7318389523      -30.2144089095  TIP3      11457           0.0000000000
     84203     11857  TIP3      H2             -0.6409692542      -14.8916506822      -31.6612571011  TIP3      11457           0.0000000000
     84204     11858  TIP3      OH2            -6.6841122488      -12.5525224287      -31.4119821994  TIP3      11458           0.0000000000
     84205     11858  TIP3      H1             -6.4330228020      -13.5027616750      -31.4689266560  TIP3      11458           0.0000000000
     84206     11858  TIP3      H2             -6.6974019002      -12.3599569916      -32.3932642641  TIP3      11458           0.0000000000
     84207     11859  TIP3      OH2           -13.4656925723      -14.4435603140      -34.1858709883  TIP3      11459           0.0000000000
     84208     11859  TIP3      H1            -13.4086988327      -13.5910223079      -34.6466042548  TIP3      11459           0.0000000000
     84209     11859  TIP3      H2            -13.9095254316      -15.0065069912      -34.8552832414  TIP3      11459           0.0000000000
     84210     11860  TIP3      OH2            -5.7554472410      -14.3355251923      -35.8158812161  TIP3      11460           0.0000000000
     84211     11860  TIP3      H1             -5.0873318948      -14.6572020538      -35.1652588954  TIP3      11460           0.0000000000
     84212     11860  TIP3      H2             -5.2076532438      -13.7928978045      -36.4028106359  TIP3      11460           0.0000000000
     84213     11861  TIP3      OH2           -16.8604352891      -12.0357400309      -33.4444168624  TIP3      11461           0.0000000000
     84214     11861  TIP3      H1            -16.1825112754      -12.5971943411      -33.0078335977  TIP3      11461           0.0000000000
     84215     11861  TIP3      H2            -16.7938727171      -12.3361154411      -34.3637265273  TIP3      11461           0.0000000000
     84216     11862  TIP3      OH2           -11.6941881489      -10.4813527491      -34.1848354405  TIP3      11462           0.0000000000
     84217     11862  TIP3      H1            -11.0581020046      -11.0480187746      -33.7341567656  TIP3      11462           0.0000000000
     84218     11862  TIP3      H2            -12.2580948829      -11.1415133372      -34.6422062159  TIP3      11462           0.0000000000
     84219     11863  TIP3      OH2            -0.7174779014      -13.8968978209      -28.7134129575  TIP3      11463           0.0000000000
     84220     11863  TIP3      H1             -1.3738446942      -13.1797824040      -28.8070942882  TIP3      11463           0.0000000000
     84221     11863  TIP3      H2             -0.6812745706      -14.0485757721      -27.7571630123  TIP3      11463           0.0000000000
     84222     11864  TIP3      OH2           -14.6174443197      -15.5419977834      -30.1397092969  TIP3      11464           0.0000000000
     84223     11864  TIP3      H1            -14.8745101526      -14.9845159601      -30.8989004238  TIP3      11464           0.0000000000
     84224     11864  TIP3      H2            -15.3067674247      -15.3022647543      -29.4722777819  TIP3      11464           0.0000000000
     84225     11865  TIP3      OH2            -7.2817031756       -6.0460382585      -36.5883552108  TIP3      11465           0.0000000000
     84226     11865  TIP3      H1             -7.5795334869       -6.3510040440      -37.4551238374  TIP3      11465           0.0000000000
     84227     11865  TIP3      H2             -7.6076204524       -5.1205408760      -36.5514649190  TIP3      11465           0.0000000000
     84228     11866  TIP3      OH2           -12.0724289938       -7.8879507153      -29.8692186790  TIP3      11466           0.0000000000
     84229     11866  TIP3      H1            -12.8045352847       -7.2512150243      -29.7188114823  TIP3      11466           0.0000000000
     84230     11866  TIP3      H2            -11.3684150249       -7.2958788969      -30.1730628226  TIP3      11466           0.0000000000
     84231     11867  TIP3      OH2            -3.9747882096      -15.0178705865      -33.8288642024  TIP3      11467           0.0000000000
     84232     11867  TIP3      H1             -4.1794448180      -15.7897729236      -33.2909674367  TIP3      11467           0.0000000000
     84233     11867  TIP3      H2             -3.3004531450      -14.5658399423      -33.2957011816  TIP3      11467           0.0000000000
     84234     11868  TIP3      OH2           -15.0569642164      -13.6601392905      -32.1547038530  TIP3      11468           0.0000000000
     84235     11868  TIP3      H1            -14.4208800156      -12.9980114610      -31.8089954326  TIP3      11468           0.0000000000
     84236     11868  TIP3      H2            -14.5211656896      -14.1096786852      -32.8489915845  TIP3      11468           0.0000000000
     84237     11869  TIP3      OH2           -13.6462418453       -5.9058633612      -29.0762495380  TIP3      11469           0.0000000000
     84238     11869  TIP3      H1            -13.6804150695       -4.9970850503      -29.4322170782  TIP3      11469           0.0000000000
     84239     11869  TIP3      H2            -14.5307277851       -5.9721717205      -28.6331528756  TIP3      11469           0.0000000000
     84240     11870  TIP3      OH2           -17.5581375199       -6.2540990865      -38.2812467909  TIP3      11470           0.0000000000
     84241     11870  TIP3      H1            -17.8067961057       -5.9687109581      -39.1790095867  TIP3      11470           0.0000000000
     84242     11870  TIP3      H2            -17.4970757571       -5.3981601519      -37.8017148432  TIP3      11470           0.0000000000
     84243     11871  TIP3      OH2            -3.9253188199       -4.6139882403      -31.5507118587  TIP3      11471           0.0000000000
     84244     11871  TIP3      H1             -4.8909965129       -4.5217321422      -31.4082997673  TIP3      11471           0.0000000000
     84245     11871  TIP3      H2             -3.6586363041       -3.6870691431      -31.7156232432  TIP3      11471           0.0000000000
     84246     11872  TIP3      OH2            -3.6211937878      -16.2996375510      -30.1272336312  TIP3      11472           0.0000000000
     84247     11872  TIP3      H1             -4.3583448187      -15.6960818185      -30.2120414197  TIP3      11472           0.0000000000
     84248     11872  TIP3      H2             -2.9209544101      -15.9091122858      -30.6838010652  TIP3      11472           0.0000000000
     84249     11873  TIP3      OH2           -10.6210046584      -18.1990664375      -32.6881896576  TIP3      11473           0.0000000000
     84250     11873  TIP3      H1            -10.7535138091      -19.1705744883      -32.7342279902  TIP3      11473           0.0000000000
     84251     11873  TIP3      H2            -11.5053876923      -17.9032874333      -32.3969333016  TIP3      11473           0.0000000000
     84252     11874  TIP3      OH2            -5.6815274764       -2.8256635712      -34.9320066462  TIP3      11474           0.0000000000
     84253     11874  TIP3      H1             -5.2441331862       -3.5365137769      -35.4402839583  TIP3      11474           0.0000000000
     84254     11874  TIP3      H2             -5.3145991950       -2.0210457100      -35.3523716597  TIP3      11474           0.0000000000
     84255     11875  TIP3      OH2            -4.4930891440       -4.9006809216      -36.4357820933  TIP3      11475           0.0000000000
     84256     11875  TIP3      H1             -4.7702805899       -5.6067260944      -37.0446291639  TIP3      11475           0.0000000000
     84257     11875  TIP3      H2             -4.4429552664       -5.3795591321      -35.5873874583  TIP3      11475           0.0000000000
     84258     11876  TIP3      OH2            -2.8378849336       -6.3314348648      -27.9380456974  TIP3      11476           0.0000000000
     84259     11876  TIP3      H1             -2.6945105673       -6.9549854967      -28.6835798652  TIP3      11476           0.0000000000
     84260     11876  TIP3      H2             -2.6589709225       -5.4685765867      -28.3370681785  TIP3      11476           0.0000000000
     84261     11877  TIP3      OH2            -8.3585037024       -9.3994443640      -38.1669197940  TIP3      11477           0.0000000000
     84262     11877  TIP3      H1             -9.0647902777       -8.8454951614      -38.5488197289  TIP3      11477           0.0000000000
     84263     11877  TIP3      H2             -7.6586808452       -9.3265449365      -38.8458432653  TIP3      11477           0.0000000000
     84264     11878  TIP3      OH2            -8.3115500023      -10.9109414417      -41.1242400088  TIP3      11478           0.0000000000
     84265     11878  TIP3      H1             -7.5875231384      -10.9011287621      -40.4805972969  TIP3      11478           0.0000000000
     84266     11878  TIP3      H2             -7.9905747977      -11.5484091637      -41.7727871408  TIP3      11478           0.0000000000
     84267     11879  TIP3      OH2            -0.9836524370      -10.0211079002      -29.8838213146  TIP3      11479           0.0000000000
     84268     11879  TIP3      H1             -1.6344869582       -9.2933853607      -29.8165219836  TIP3      11479           0.0000000000
     84269     11879  TIP3      H2             -0.5065895938       -9.7830031164      -30.6995271437  TIP3      11479           0.0000000000
     84270     11880  TIP3      OH2            -4.9328316058       -9.1826695697      -37.2427835938  TIP3      11480           0.0000000000
     84271     11880  TIP3      H1             -5.6784548386       -8.9530213154      -36.6403212705  TIP3      11480           0.0000000000
     84272     11880  TIP3      H2             -4.4745242215       -9.8887151727      -36.7531537967  TIP3      11480           0.0000000000
     84273     11881  TIP3      OH2            -4.7018839732      -10.5879868812      -28.4064947892  TIP3      11481           0.0000000000
     84274     11881  TIP3      H1             -4.9319709669      -10.1244404298      -27.5701707271  TIP3      11481           0.0000000000
     84275     11881  TIP3      H2             -5.5519305003      -10.6099480316      -28.8891353335  TIP3      11481           0.0000000000
     84276     11882  TIP3      OH2           -13.3010648268       -8.5326548575      -35.3361980023  TIP3      11482           0.0000000000
     84277     11882  TIP3      H1            -13.6294957198       -8.9295274327      -36.1770642013  TIP3      11482           0.0000000000
     84278     11882  TIP3      H2            -12.6973522302       -9.2333553067      -34.9984713907  TIP3      11482           0.0000000000
     84279     11883  TIP3      OH2           -11.9624238486       -5.1252388906      -32.6562786988  TIP3      11483           0.0000000000
     84280     11883  TIP3      H1            -12.0113248231       -5.6962415053      -33.4337418553  TIP3      11483           0.0000000000
     84281     11883  TIP3      H2            -11.1974184389       -5.5044374114      -32.1850981009  TIP3      11483           0.0000000000
     84282     11884  TIP3      OH2           -12.9380783498       -9.8067177181      -31.6903929119  TIP3      11484           0.0000000000
     84283     11884  TIP3      H1            -12.3892469775       -9.6606012299      -32.4834870609  TIP3      11484           0.0000000000
     84284     11884  TIP3      H2            -12.6095407391       -9.1261396023      -31.0686472427  TIP3      11484           0.0000000000
     84285     11885  TIP3      OH2            -6.5978423714       -4.2443912022      -30.9865622442  TIP3      11485           0.0000000000
     84286     11885  TIP3      H1             -6.8604127444       -3.6093351094      -30.3192278037  TIP3      11485           0.0000000000
     84287     11885  TIP3      H2             -6.8244021832       -5.1031797502      -30.5456187685  TIP3      11485           0.0000000000
     84288     11886  TIP3      OH2           -12.0290961297       -5.3796679735      -26.9866523457  TIP3      11486           0.0000000000
     84289     11886  TIP3      H1            -12.3915506918       -4.6057559545      -26.5158383300  TIP3      11486           0.0000000000
     84290     11886  TIP3      H2            -12.7105583148       -5.5487912100      -27.6815018606  TIP3      11486           0.0000000000
     84291     11887  TIP3      OH2            -6.0695608878      -10.0243736455      -39.5613229367  TIP3      11487           0.0000000000
     84292     11887  TIP3      H1             -5.4902978809       -9.8487365501      -38.7803695888  TIP3      11487           0.0000000000
     84293     11887  TIP3      H2             -5.6487078387       -9.5174929995      -40.2770704029  TIP3      11487           0.0000000000
     84294     11888  TIP3      OH2           -15.1033103251       -9.2014341642      -27.7900814088  TIP3      11488           0.0000000000
     84295     11888  TIP3      H1            -15.0590715118       -8.5336164247      -27.0730915520  TIP3      11488           0.0000000000
     84296     11888  TIP3      H2            -16.0250622680       -9.0904596745      -28.0704304993  TIP3      11488           0.0000000000
     84297     11889  TIP3      OH2            -8.3420192842       -3.2876972484      -36.1050338872  TIP3      11489           0.0000000000
     84298     11889  TIP3      H1             -7.8816214315       -2.9781992191      -35.3180650728  TIP3      11489           0.0000000000
     84299     11889  TIP3      H2             -8.9020561549       -2.5384411544      -36.3461667513  TIP3      11489           0.0000000000
     84300     11890  TIP3      OH2           -13.7951189942       -3.3129901047      -26.2361639681  TIP3      11490           0.0000000000
     84301     11890  TIP3      H1            -13.8203459004       -3.4456981824      -27.1955482963  TIP3      11490           0.0000000000
     84302     11890  TIP3      H2            -14.7272470174       -3.4424881704      -25.9741758751  TIP3      11490           0.0000000000
     84303     11891  TIP3      OH2            -2.3473342291      -18.2749404371      -39.7123723202  TIP3      11491           0.0000000000
     84304     11891  TIP3      H1             -3.2860685676      -18.1373298744      -39.4341116870  TIP3      11491           0.0000000000
     84305     11891  TIP3      H2             -2.1176195235      -17.4250689910      -40.1218396918  TIP3      11491           0.0000000000
     84306     11892  TIP3      OH2           -14.3131137840       -9.4984493746      -37.7347866769  TIP3      11492           0.0000000000
     84307     11892  TIP3      H1            -14.6087581670       -8.7191848225      -38.2521281097  TIP3      11492           0.0000000000
     84308     11892  TIP3      H2            -14.9861310455      -10.1544561198      -37.9327307611  TIP3      11492           0.0000000000
     84309     11893  TIP3      OH2            -1.2110843337       -3.9267620451      -41.3329546035  TIP3      11493           0.0000000000
     84310     11893  TIP3      H1             -1.0974756710       -2.9661098506      -41.1882210881  TIP3      11493           0.0000000000
     84311     11893  TIP3      H2             -0.2783893655       -4.2025060478      -41.4018025434  TIP3      11493           0.0000000000
     84312     11894  TIP3      OH2           -18.2258642507       -7.0968732769      -28.8874564884  TIP3      11494           0.0000000000
     84313     11894  TIP3      H1            -18.7079229098       -7.1630875096      -29.7319794815  TIP3      11494           0.0000000000
     84314     11894  TIP3      H2            -18.1978263226       -8.0365965845      -28.6290794543  TIP3      11494           0.0000000000
     84315     11895  TIP3      OH2           -18.4772693831       -4.3499697988      -32.0522800955  TIP3      11495           0.0000000000
     84316     11895  TIP3      H1            -17.5202447081       -4.4728178035      -32.0734258249  TIP3      11495           0.0000000000
     84317     11895  TIP3      H2            -18.5708151340       -3.5455123842      -31.5250923314  TIP3      11495           0.0000000000
     84318     11896  TIP3      OH2            -0.2442193919       -3.6618076041      -26.3750522669  TIP3      11496           0.0000000000
     84319     11896  TIP3      H1             -0.3425925582       -4.6266597262      -26.4020958194  TIP3      11496           0.0000000000
     84320     11896  TIP3      H2             -1.1101865202       -3.4102771766      -25.9691651100  TIP3      11496           0.0000000000
     84321     11897  TIP3      OH2            -9.2842262640       -4.1089862058      -27.5097266190  TIP3      11497           0.0000000000
     84322     11897  TIP3      H1             -9.2103538554       -3.2659513799      -27.0034878534  TIP3      11497           0.0000000000
     84323     11897  TIP3      H2            -10.1594267968       -4.4435073100      -27.2415680841  TIP3      11497           0.0000000000
     84324     11898  TIP3      OH2            -8.8699307495       -0.3528934769      -37.6883144267  TIP3      11498           0.0000000000
     84325     11898  TIP3      H1             -8.9441580817       -0.4444060400      -38.6551805290  TIP3      11498           0.0000000000
     84326     11898  TIP3      H2             -8.8351191081        0.6152948202      -37.5610886195  TIP3      11498           0.0000000000
     84327     11899  TIP3      OH2           -15.2005431065       -1.5118363367      -35.8959653513  TIP3      11499           0.0000000000
     84328     11899  TIP3      H1            -15.0708062090       -1.9022968164      -35.0096775112  TIP3      11499           0.0000000000
     84329     11899  TIP3      H2            -16.0695132958       -1.8851490024      -36.1400081531  TIP3      11499           0.0000000000
     84330     11900  TIP3      OH2            -5.7956608737       -1.1575598439      -40.7174898276  TIP3      11500           0.0000000000
     84331     11900  TIP3      H1             -5.3752954602       -1.9281625969      -41.1552849194  TIP3      11500           0.0000000000
     84332     11900  TIP3      H2             -5.7611294985       -1.4335284250      -39.7779092748  TIP3      11500           0.0000000000
     84333     11901  TIP3      OH2            -6.0974322933       -1.2303978436      -37.9434215899  TIP3      11501           0.0000000000
     84334     11901  TIP3      H1             -7.0528783769       -1.1509593731      -37.7548234904  TIP3      11501           0.0000000000
     84335     11901  TIP3      H2             -5.8379873519       -1.9606292394      -37.3618993486  TIP3      11501           0.0000000000
     84336     11902  TIP3      OH2            -3.1527206141      -12.1869753883      -25.8827036319  TIP3      11502           0.0000000000
     84337     11902  TIP3      H1             -3.5003426047      -11.6845991178      -26.6159409783  TIP3      11502           0.0000000000
     84338     11902  TIP3      H2             -3.0618767479      -13.0992570603      -26.2025075801  TIP3      11502           0.0000000000
     84339     11903  TIP3      OH2           -15.9648482724       -5.7794618872      -27.9000212889  TIP3      11503           0.0000000000
     84340     11903  TIP3      H1            -15.7419314766       -6.1521862374      -27.0197880953  TIP3      11503           0.0000000000
     84341     11903  TIP3      H2            -16.8323825550       -6.1766582406      -28.1068437444  TIP3      11503           0.0000000000
     84342     11904  TIP3      OH2           -13.3077484412      -17.3216634346      -31.9206690553  TIP3      11504           0.0000000000
     84343     11904  TIP3      H1            -14.2079557753      -17.4158995828      -32.3054256651  TIP3      11504           0.0000000000
     84344     11904  TIP3      H2            -13.3985070759      -16.4760909134      -31.4612548121  TIP3      11504           0.0000000000
     84345     11905  TIP3      OH2            -8.6568395367      -17.5844960414      -28.5460773193  TIP3      11505           0.0000000000
     84346     11905  TIP3      H1             -8.2621179907      -18.0399680643      -27.7729320344  TIP3      11505           0.0000000000
     84347     11905  TIP3      H2             -9.6249399085      -17.7866192189      -28.4126308935  TIP3      11505           0.0000000000
     84348     11906  TIP3      OH2            -5.3439576091      -13.9463283034      -27.6763679221  TIP3      11506           0.0000000000
     84349     11906  TIP3      H1             -5.8801144851      -14.0483097166      -26.8466898636  TIP3      11506           0.0000000000
     84350     11906  TIP3      H2             -5.4070789336      -13.0853611596      -27.9731579880  TIP3      11506           0.0000000000
     84351     11907  TIP3      OH2            -4.5358391080       -8.9354820877      -41.8276768077  TIP3      11507           0.0000000000
     84352     11907  TIP3      H1             -4.5283079049       -9.1627665915      -42.7844373847  TIP3      11507           0.0000000000
     84353     11907  TIP3      H2             -3.6789296099       -8.5364239618      -41.6960350818  TIP3      11507           0.0000000000
     84354     11908  TIP3      OH2            -9.0047758834      -15.0833679610      -41.2447466586  TIP3      11508           0.0000000000
     84355     11908  TIP3      H1             -9.2928747880      -15.1035333367      -40.3112989113  TIP3      11508           0.0000000000
     84356     11908  TIP3      H2             -9.2790951241      -15.9653262266      -41.5267156381  TIP3      11508           0.0000000000
     84357     11909  TIP3      OH2           -13.2089799776      -12.3469396063      -30.7491455258  TIP3      11509           0.0000000000
     84358     11909  TIP3      H1            -13.9225725094      -12.3785585769      -30.0780611316  TIP3      11509           0.0000000000
     84359     11909  TIP3      H2            -13.2459263729      -11.4132972392      -31.0561809248  TIP3      11509           0.0000000000
     84360     11910  TIP3      OH2           -13.2395271987      -12.1585224002      -35.8543198701  TIP3      11510           0.0000000000
     84361     11910  TIP3      H1            -14.1616297265      -12.4743694575      -35.9603975341  TIP3      11510           0.0000000000
     84362     11910  TIP3      H2            -12.8236054877      -12.5127033522      -36.6636184898  TIP3      11510           0.0000000000
     84363     11911  TIP3      OH2            -7.7117849047      -11.7248731923      -37.0647192113  TIP3      11511           0.0000000000
     84364     11911  TIP3      H1             -8.1241591010      -10.8912354527      -37.3801860666  TIP3      11511           0.0000000000
     84365     11911  TIP3      H2             -7.0020948776      -11.8627346937      -37.7159788646  TIP3      11511           0.0000000000
     84366     11912  TIP3      OH2            -8.5828427246      -11.5545593607      -25.6715947189  TIP3      11512           0.0000000000
     84367     11912  TIP3      H1             -9.1834198163      -12.2432601906      -25.2540655340  TIP3      11512           0.0000000000
     84368     11912  TIP3      H2             -7.8209677064      -11.6392163487      -25.0654764240  TIP3      11512           0.0000000000
     84369     11913  TIP3      OH2            -6.7122221913      -12.2558908031      -34.2165554007  TIP3      11513           0.0000000000
     84370     11913  TIP3      H1             -6.9212008346      -11.6699552071      -34.9717615843  TIP3      11513           0.0000000000
     84371     11913  TIP3      H2             -6.5391295804      -13.0916752953      -34.7057315906  TIP3      11513           0.0000000000
     84372     11914  TIP3      OH2           -15.5298933031      -12.0489766378      -28.9692291360  TIP3      11514           0.0000000000
     84373     11914  TIP3      H1            -15.5219013258      -11.6492975780      -28.0798001794  TIP3      11514           0.0000000000
     84374     11914  TIP3      H2            -16.0017979645      -12.8806680620      -28.8221821051  TIP3      11514           0.0000000000
     84375     11915  TIP3      OH2           -12.0295832306      -14.4856283062      -41.9001330389  TIP3      11515           0.0000000000
     84376     11915  TIP3      H1            -12.5628282067      -15.1035161600      -41.3641994888  TIP3      11515           0.0000000000
     84377     11915  TIP3      H2            -12.7075849671      -14.2080016760      -42.5346520352  TIP3      11515           0.0000000000
     84378     11916  TIP3      OH2           -18.9075024290      -14.9330090873      -35.0619684613  TIP3      11516           0.0000000000
     84379     11916  TIP3      H1            -18.2447555128      -14.9709655279      -34.3452874433  TIP3      11516           0.0000000000
     84380     11916  TIP3      H2            -18.4463872278      -15.3500297254      -35.8136582958  TIP3      11516           0.0000000000
     84381     11917  TIP3      OH2           -17.6133145076      -14.2172875586      -39.6524120121  TIP3      11517           0.0000000000
     84382     11917  TIP3      H1            -17.1388071136      -13.6018406994      -40.2543612252  TIP3      11517           0.0000000000
     84383     11917  TIP3      H2            -18.3277282844      -13.6280371230      -39.3232544442  TIP3      11517           0.0000000000
     84384     11918  TIP3      OH2            -7.4180616290      -10.6645225434      -29.5810580770  TIP3      11518           0.0000000000
     84385     11918  TIP3      H1             -7.0960944523      -11.2714986785      -30.2703348307  TIP3      11518           0.0000000000
     84386     11918  TIP3      H2             -7.9462315485      -11.1538038879      -28.9401572037  TIP3      11518           0.0000000000
     84387     11919  TIP3      OH2           -10.6666820020      -14.6785954549      -34.8089447062  TIP3      11519           0.0000000000
     84388     11919  TIP3      H1            -11.6068834458      -14.6587540967      -34.5216491346  TIP3      11519           0.0000000000
     84389     11919  TIP3      H2            -10.1758280625      -14.8004203398      -33.9918176517  TIP3      11519           0.0000000000
     84390     11920  TIP3      OH2           -15.8468325015      -13.0894192674      -35.9598676756  TIP3      11520           0.0000000000
     84391     11920  TIP3      H1            -16.7453369084      -12.9706271648      -36.3292687134  TIP3      11520           0.0000000000
     84392     11920  TIP3      H2            -15.5579156999      -13.9341517000      -36.3391489606  TIP3      11520           0.0000000000
     84393     11921  TIP3      OH2           -12.2074747763      -13.0684891547      -38.3158793945  TIP3      11521           0.0000000000
     84394     11921  TIP3      H1            -11.2540368536      -12.9509174597      -38.1415748922  TIP3      11521           0.0000000000
     84395     11921  TIP3      H2            -12.4292324042      -12.4004785171      -38.9867786546  TIP3      11521           0.0000000000
     84396     11922  TIP3      OH2            -6.2589902115      -15.4227367762      -31.5534823027  TIP3      11522           0.0000000000
     84397     11922  TIP3      H1             -6.9524480374      -15.3864502827      -30.8752726188  TIP3      11522           0.0000000000
     84398     11922  TIP3      H2             -6.7488317274      -15.6606876706      -32.3590401700  TIP3      11522           0.0000000000
     84399     11923  TIP3      OH2           -13.5217685770      -11.8886849875      -40.7336283886  TIP3      11523           0.0000000000
     84400     11923  TIP3      H1            -14.0686470156      -12.2563725316      -41.4501291447  TIP3      11523           0.0000000000
     84401     11923  TIP3      H2            -12.6898947915      -11.6876677100      -41.1905796827  TIP3      11523           0.0000000000
     84402     11924  TIP3      OH2            -3.0204293339        0.1985653140      -25.2451914977  TIP3      11524           0.0000000000
     84403     11924  TIP3      H1             -2.7775825154        0.6162239742      -26.0956799716  TIP3      11524           0.0000000000
     84404     11924  TIP3      H2             -2.3258332460        0.5434169790      -24.6665524853  TIP3      11524           0.0000000000
     84405     11925  TIP3      OH2           -15.3738264113       -7.3256543854      -25.6796897399  TIP3      11525           0.0000000000
     84406     11925  TIP3      H1            -14.6588723880       -7.0675095601      -25.0731621001  TIP3      11525           0.0000000000
     84407     11925  TIP3      H2            -16.1651634003       -7.1573236019      -25.1207386437  TIP3      11525           0.0000000000
     84408     11926  TIP3      OH2            -9.3558263987      -11.9109872301      -32.9011078072  TIP3      11526           0.0000000000
     84409     11926  TIP3      H1             -8.7950337585      -12.4514327982      -33.4842898294  TIP3      11526           0.0000000000
     84410     11926  TIP3      H2             -9.5473156984      -12.4609939511      -32.1776689880  TIP3      11526           0.0000000000
     84411     11927  TIP3      OH2           -14.3637903901      -15.7656677844      -36.4886629675  TIP3      11527           0.0000000000
     84412     11927  TIP3      H1            -14.6725199271      -16.6903346069      -36.5235742077  TIP3      11527           0.0000000000
     84413     11927  TIP3      H2            -13.5765402164      -15.8003195108      -37.0471313711  TIP3      11527           0.0000000000
     84414     11928  TIP3      OH2           -10.9546014285      -13.6575271721      -30.4693080244  TIP3      11528           0.0000000000
     84415     11928  TIP3      H1            -11.7062104566      -13.0259973569      -30.4043850116  TIP3      11528           0.0000000000
     84416     11928  TIP3      H2            -10.4119377134      -13.3205997528      -29.7512528622  TIP3      11528           0.0000000000
     84417     11929  TIP3      OH2           -10.1589753288       -7.3325476387      -38.8131653044  TIP3      11529           0.0000000000
     84418     11929  TIP3      H1            -10.9439212292       -7.8297556364      -39.1366550518  TIP3      11529           0.0000000000
     84419     11929  TIP3      H2            -10.3448449697       -7.2652732298      -37.8566055494  TIP3      11529           0.0000000000
     84420     11930  TIP3      OH2            -3.0114071871       -8.1853551343      -30.0149723433  TIP3      11530           0.0000000000
     84421     11930  TIP3      H1             -2.4045807951       -7.7090668191      -30.6046793309  TIP3      11530           0.0000000000
     84422     11930  TIP3      H2             -3.8559292910       -8.0775669270      -30.4975017160  TIP3      11530           0.0000000000
     84423     11931  TIP3      OH2            -6.2858678722      -14.5405720697      -40.6232607664  TIP3      11531           0.0000000000
     84424     11931  TIP3      H1             -7.2347602844      -14.3957698425      -40.7795474855  TIP3      11531           0.0000000000
     84425     11931  TIP3      H2             -5.9938659097      -13.6613686866      -40.3107531874  TIP3      11531           0.0000000000
     84426     11932  TIP3      OH2            -8.6590788469       -7.1293220351      -27.5789287332  TIP3      11532           0.0000000000
     84427     11932  TIP3      H1             -9.0172020700       -7.5089765548      -26.7721056207  TIP3      11532           0.0000000000
     84428     11932  TIP3      H2             -8.8822820165       -6.1942365974      -27.4961795553  TIP3      11532           0.0000000000
     84429     11933  TIP3      OH2            -5.5801130275      -12.6322625319      -38.9568418906  TIP3      11533           0.0000000000
     84430     11933  TIP3      H1             -4.6733213926      -12.7698026180      -38.6229127263  TIP3      11533           0.0000000000
     84431     11933  TIP3      H2             -5.5081202532      -11.8309074984      -39.4952493566  TIP3      11533           0.0000000000
     84432     11934  TIP3      OH2           -15.0597094616       -7.9946388631      -33.0283433087  TIP3      11534           0.0000000000
     84433     11934  TIP3      H1            -14.3301695969       -8.0370354041      -33.6753090175  TIP3      11534           0.0000000000
     84434     11934  TIP3      H2            -14.9832219072       -8.8448198450      -32.5633128909  TIP3      11534           0.0000000000
     84435     11935  TIP3      OH2            -8.0455654254       -5.8709164527      -39.7823016098  TIP3      11535           0.0000000000
     84436     11935  TIP3      H1             -8.3816294513       -5.0343596849      -39.4096279389  TIP3      11535           0.0000000000
     84437     11935  TIP3      H2             -8.7829079868       -6.4904803722      -39.5865442446  TIP3      11535           0.0000000000
     84438     11936  TIP3      OH2           -18.0574070550       -9.5534947327      -27.7417890799  TIP3      11536           0.0000000000
     84439     11936  TIP3      H1            -17.8435409463       -9.9932714854      -26.9006059078  TIP3      11536           0.0000000000
     84440     11936  TIP3      H2            -18.6680819790      -10.1799871159      -28.1678586985  TIP3      11536           0.0000000000
     84441     11937  TIP3      OH2           -11.0407772519      -10.0011404154      -25.5530173293  TIP3      11537           0.0000000000
     84442     11937  TIP3      H1            -11.3508797176      -10.2449748512      -26.4342862539  TIP3      11537           0.0000000000
     84443     11937  TIP3      H2            -10.1139452524      -10.2763529303      -25.5210786836  TIP3      11537           0.0000000000
     84444     11938  TIP3      OH2            -6.3868168133       -4.6750106536      -27.6378770945  TIP3      11538           0.0000000000
     84445     11938  TIP3      H1             -7.3105545590       -4.4846441647      -27.8765757376  TIP3      11538           0.0000000000
     84446     11938  TIP3      H2             -6.3939430934       -4.3914948404      -26.7005727390  TIP3      11538           0.0000000000
     84447     11939  TIP3      OH2            -0.6816717569      -12.4630596500      -39.2279359692  TIP3      11539           0.0000000000
     84448     11939  TIP3      H1             -1.2455273937      -12.8047184212      -39.9480348969  TIP3      11539           0.0000000000
     84449     11939  TIP3      H2             -0.5990409387      -11.5289205074      -39.5304857750  TIP3      11539           0.0000000000
     84450     11940  TIP3      OH2            -0.6940631504       -6.6106206674      -26.4047971657  TIP3      11540           0.0000000000
     84451     11940  TIP3      H1             -1.5843941353       -6.4016470443      -26.7880055306  TIP3      11540           0.0000000000
     84452     11940  TIP3      H2             -0.1354796566       -6.6506191763      -27.2020546803  TIP3      11540           0.0000000000
     84453     11941  TIP3      OH2            -2.3890785395       -3.6445898934      -38.8121695711  TIP3      11541           0.0000000000
     84454     11941  TIP3      H1             -2.7651019064       -4.4729362318      -38.4919504070  TIP3      11541           0.0000000000
     84455     11941  TIP3      H2             -2.1031091737       -3.8348299960      -39.7219615507  TIP3      11541           0.0000000000
     84456     11942  TIP3      OH2            -5.2164716015       -8.8440457195      -31.7308970840  TIP3      11542           0.0000000000
     84457     11942  TIP3      H1             -6.1558956307       -9.0524541829      -31.8329494964  TIP3      11542           0.0000000000
     84458     11942  TIP3      H2             -4.7666229355       -9.6043898286      -32.1417307543  TIP3      11542           0.0000000000
     84459     11943  TIP3      OH2           -12.6793901105       -4.5135084637      -35.6355977997  TIP3      11543           0.0000000000
     84460     11943  TIP3      H1            -12.1658466807       -3.7167547511      -35.8423344796  TIP3      11543           0.0000000000
     84461     11943  TIP3      H2            -13.5623046495       -4.2747605575      -35.9517451448  TIP3      11543           0.0000000000
     84462     11944  TIP3      OH2           -16.9373192687       -9.6529106328      -41.0750581902  TIP3      11544           0.0000000000
     84463     11944  TIP3      H1            -16.3127553175       -9.0194368288      -40.6774162814  TIP3      11544           0.0000000000
     84464     11944  TIP3      H2            -17.8044045584       -9.3400066259      -40.7763279456  TIP3      11544           0.0000000000
     84465     11945  TIP3      OH2           -11.2452759217       -6.8491326590      -36.0851581832  TIP3      11545           0.0000000000
     84466     11945  TIP3      H1            -11.5291552158       -5.9169605833      -36.0197908764  TIP3      11545           0.0000000000
     84467     11945  TIP3      H2            -11.9985622542       -7.3128308258      -35.6673419643  TIP3      11545           0.0000000000
     84468     11946  TIP3      OH2           -10.7856512221       -2.6805208828      -29.7338860356  TIP3      11546           0.0000000000
     84469     11946  TIP3      H1            -10.3689980575       -1.8415695553      -29.9876196563  TIP3      11546           0.0000000000
     84470     11946  TIP3      H2            -10.2005648788       -2.9892775387      -29.0166583857  TIP3      11546           0.0000000000
     84471     11947  TIP3      OH2           -12.5732720718       -1.8362756835      -36.5505208891  TIP3      11547           0.0000000000
     84472     11947  TIP3      H1            -13.5424252982       -1.7094473506      -36.4564055433  TIP3      11547           0.0000000000
     84473     11947  TIP3      H2            -12.2234634547       -0.9988157233      -36.1923513136  TIP3      11547           0.0000000000
     84474     11948  TIP3      OH2            -7.2328147435       -6.6210493855      -30.0690252312  TIP3      11548           0.0000000000
     84475     11948  TIP3      H1             -7.6238167405       -6.8280401928      -29.1996629342  TIP3      11548           0.0000000000
     84476     11948  TIP3      H2             -6.6196185113       -7.3467040929      -30.2442920842  TIP3      11548           0.0000000000
     84477     11949  TIP3      OH2            -4.9924236147       -5.6449348365      -40.9809652196  TIP3      11549           0.0000000000
     84478     11949  TIP3      H1             -4.6638495165       -6.0595894777      -40.1572431933  TIP3      11549           0.0000000000
     84479     11949  TIP3      H2             -5.9497522476       -5.7696282671      -40.8855331872  TIP3      11549           0.0000000000
     84480     11950  TIP3      OH2            -4.5118501712       -2.0610885350      -27.5721437188  TIP3      11550           0.0000000000
     84481     11950  TIP3      H1             -5.1532395054       -2.5875179768      -28.0854783010  TIP3      11550           0.0000000000
     84482     11950  TIP3      H2             -4.2699371508       -1.3734537965      -28.2286365041  TIP3      11550           0.0000000000
     84483     11951  TIP3      OH2            -0.4836112667       -1.2048209138      -40.7535349003  TIP3      11551           0.0000000000
     84484     11951  TIP3      H1              0.2414140104       -0.5838091009      -40.9424633473  TIP3      11551           0.0000000000
     84485     11951  TIP3      H2             -1.1966119108       -0.6054471951      -40.4440027005  TIP3      11551           0.0000000000
     84486     11952  TIP3      OH2           -16.4041693216      -14.8117771765      -28.1831010914  TIP3      11552           0.0000000000
     84487     11952  TIP3      H1            -17.3161851521      -14.4714372880      -28.2351332607  TIP3      11552           0.0000000000
     84488     11952  TIP3      H2            -16.5217164412      -15.6726730979      -27.7548167440  TIP3      11552           0.0000000000
     84489     11953  TIP3      OH2            -4.1482881777       -6.9735555203      -38.7613303123  TIP3      11553           0.0000000000
     84490     11953  TIP3      H1             -4.4055361337       -7.7396613845      -38.2052828628  TIP3      11553           0.0000000000
     84491     11953  TIP3      H2             -3.2055954989       -6.8863330567      -38.5397845368  TIP3      11553           0.0000000000
     84492     11954  TIP3      OH2           -16.7719986122       -3.0107584003      -29.7607666537  TIP3      11554           0.0000000000
     84493     11954  TIP3      H1            -16.5283112063       -3.9506233317      -29.7657598655  TIP3      11554           0.0000000000
     84494     11954  TIP3      H2            -16.5228693829       -2.7414927100      -28.8675680789  TIP3      11554           0.0000000000
     84495     11955  TIP3      OH2           -11.9968631255       -4.9747718152      -40.0769581090  TIP3      11555           0.0000000000
     84496     11955  TIP3      H1            -11.8077209553       -5.5083268707      -39.2954818588  TIP3      11555           0.0000000000
     84497     11955  TIP3      H2            -11.9706908671       -4.0567018283      -39.7498935759  TIP3      11555           0.0000000000
     84498     11956  TIP3      OH2           -15.5327670310       -7.7338794072      -39.5858452353  TIP3      11556           0.0000000000
     84499     11956  TIP3      H1            -16.2094691803       -7.3515059351      -38.9931302601  TIP3      11556           0.0000000000
     84500     11956  TIP3      H2            -14.9873038442       -6.9628031932      -39.8167532659  TIP3      11556           0.0000000000
     84501     11957  TIP3      OH2            -7.7065434794      -15.0110066117      -29.2725010255  TIP3      11557           0.0000000000
     84502     11957  TIP3      H1             -6.9766482105      -15.0285555265      -28.6268773465  TIP3      11557           0.0000000000
     84503     11957  TIP3      H2             -8.0597525832      -15.9364133607      -29.1061595495  TIP3      11557           0.0000000000
     84504     11958  TIP3      OH2            -6.9210176031      -15.4428573440      -38.1638431224  TIP3      11558           0.0000000000
     84505     11958  TIP3      H1             -6.6787321369      -14.9640302768      -38.9860433971  TIP3      11558           0.0000000000
     84506     11958  TIP3      H2             -6.3407595853      -15.0262043278      -37.5185672576  TIP3      11558           0.0000000000
     84507     11959  TIP3      OH2            -9.2347865669       -3.3024062673      -39.3275700822  TIP3      11559           0.0000000000
     84508     11959  TIP3      H1            -10.0543411989       -2.7839184365      -39.2750987385  TIP3      11559           0.0000000000
     84509     11959  TIP3      H2             -8.7009069524       -2.8003225200      -39.9653238311  TIP3      11559           0.0000000000
     84510     11960  TIP3      OH2            -9.7052994511      -13.7049803226      -37.3509733326  TIP3      11560           0.0000000000
     84511     11960  TIP3      H1             -8.8944378079      -13.1646133604      -37.3113893593  TIP3      11560           0.0000000000
     84512     11960  TIP3      H2             -9.9543307189      -13.8406406524      -36.4261390587  TIP3      11560           0.0000000000
     84513     11961  TIP3      OH2            -9.1015514624      -12.6867521315      -28.2147760087  TIP3      11561           0.0000000000
     84514     11961  TIP3      H1             -9.0961663948      -12.1375345925      -27.3860284980  TIP3      11561           0.0000000000
     84515     11961  TIP3      H2             -8.5180152862      -13.4273616805      -28.0128639693  TIP3      11561           0.0000000000
     84516     11962  TIP3      OH2            -8.8317757766      -16.6441024060      -36.4269346223  TIP3      11562           0.0000000000
     84517     11962  TIP3      H1             -9.1632988016      -15.9958946963      -35.7825574874  TIP3      11562           0.0000000000
     84518     11962  TIP3      H2             -8.1527271470      -16.1016915409      -36.8987673936  TIP3      11562           0.0000000000
     84519     11963  TIP3      OH2           -11.8889565895       -2.2649386655      -39.3355550015  TIP3      11563           0.0000000000
     84520     11963  TIP3      H1            -11.7232457059       -1.4386361968      -39.8344234953  TIP3      11563           0.0000000000
     84521     11963  TIP3      H2            -12.1015175308       -1.9289850911      -38.4397504855  TIP3      11563           0.0000000000
     84522     11964  TIP3      OH2           -13.1742909094      -15.5680740436      -39.7325422784  TIP3      11564           0.0000000000
     84523     11964  TIP3      H1            -13.2425129638      -14.6550052848      -39.3747829521  TIP3      11564           0.0000000000
     84524     11964  TIP3      H2            -12.2650304339      -15.8022568402      -39.4727466299  TIP3      11564           0.0000000000
     84525     11965  TIP3      OH2            -2.9430380445      -14.8071078458      -27.3064378053  TIP3      11565           0.0000000000
     84526     11965  TIP3      H1             -3.8837004262      -14.5499037909      -27.4279765081  TIP3      11565           0.0000000000
     84527     11965  TIP3      H2             -2.6342629196      -14.8270381967      -28.2301192907  TIP3      11565           0.0000000000
     84528     11966  TIP3      OH2            -4.3753219789      -11.0376323094      -33.2360882093  TIP3      11566           0.0000000000
     84529     11966  TIP3      H1             -5.1663511972      -11.4764123427      -33.5792467724  TIP3      11566           0.0000000000
     84530     11966  TIP3      H2             -3.8825299717      -11.7425131202      -32.7633054554  TIP3      11566           0.0000000000
     84531     11967  TIP3      OH2           -14.9268563749       -5.1197732785      -40.6768590959  TIP3      11567           0.0000000000
     84532     11967  TIP3      H1            -14.3017297165       -4.4436131025      -40.3906644412  TIP3      11567           0.0000000000
     84533     11967  TIP3      H2            -14.4282061177       -5.5661698912      -41.3869419920  TIP3      11567           0.0000000000
     84534     11968  TIP3      OH2           -16.5711283777      -12.4530259399      -41.5239793966  TIP3      11568           0.0000000000
     84535     11968  TIP3      H1            -16.6174544252      -11.4935339397      -41.3769273703  TIP3      11568           0.0000000000
     84536     11968  TIP3      H2            -17.4582321710      -12.6742942728      -41.8369831653  TIP3      11568           0.0000000000
     84537     11969  TIP3      OH2            -3.2892611351       -1.7994688845      -31.6101790478  TIP3      11569           0.0000000000
     84538     11969  TIP3      H1             -3.4073023257       -1.1054311477      -32.2888370910  TIP3      11569           0.0000000000
     84539     11969  TIP3      H2             -2.3285973452       -1.7202971962      -31.4260758488  TIP3      11569           0.0000000000
     84540     11970  TIP3      OH2           -15.7878253600      -17.6523639284      -32.8512744288  TIP3      11570           0.0000000000
     84541     11970  TIP3      H1            -16.0070183634      -17.6284205782      -33.8058239823  TIP3      11570           0.0000000000
     84542     11970  TIP3      H2            -16.2197069484      -18.4863673971      -32.5712026003  TIP3      11570           0.0000000000
     84543     11971  TIP3      OH2           -16.8429563872       -3.7432009060      -36.6966849840  TIP3      11571           0.0000000000
     84544     11971  TIP3      H1            -17.6858991341       -3.2578293737      -36.7011508569  TIP3      11571           0.0000000000
     84545     11971  TIP3      H2            -16.3262734083       -3.2382177976      -37.3387828152  TIP3      11571           0.0000000000
     84546     11972  TIP3      OH2           -17.5847846317       -1.1106139060      -25.3869214794  TIP3      11572           0.0000000000
     84547     11972  TIP3      H1            -17.0279062481       -1.3350425175      -24.6282599617  TIP3      11572           0.0000000000
     84548     11972  TIP3      H2            -18.0483781299       -1.9422770317      -25.5730044073  TIP3      11572           0.0000000000
     84549     11973  TIP3      OH2           -12.9622386872       -2.1804820478      -23.7696321384  TIP3      11573           0.0000000000
     84550     11973  TIP3      H1            -12.1967993866       -2.6638672108      -23.4402125037  TIP3      11573           0.0000000000
     84551     11973  TIP3      H2            -12.9887437817       -2.4459931879      -24.7060593320  TIP3      11573           0.0000000000
     84552     11974  TIP3      OH2            -8.5427225346       -2.5414267001      -41.8979364741  TIP3      11574           0.0000000000
     84553     11974  TIP3      H1             -9.3409866976       -3.1284362962      -41.9661096342  TIP3      11574           0.0000000000
     84554     11974  TIP3      H2             -8.0735744704       -3.1045622172      -42.5206114839  TIP3      11574           0.0000000000
     84555     11975  TIP3      OH2            -6.4162557878       -3.8025322852      -25.0413526247  TIP3      11575           0.0000000000
     84556     11975  TIP3      H1             -6.7432383560       -4.6871662188      -24.7864348602  TIP3      11575           0.0000000000
     84557     11975  TIP3      H2             -5.6538488224       -3.6783900954      -24.4467258480  TIP3      11575           0.0000000000
     84558     11976  TIP3      OH2            -4.2690849235       -2.8784490157      -42.1722817156  TIP3      11576           0.0000000000
     84559     11976  TIP3      H1             -3.9848391408       -3.6841104081      -41.7001860647  TIP3      11576           0.0000000000
     84560     11976  TIP3      H2             -3.5045309716       -2.6558930931      -42.7185724249  TIP3      11576           0.0000000000
     84561     11977  TIP3      OH2           -17.6761660223       -7.3086578674      -24.4005569299  TIP3      11577           0.0000000000
     84562     11977  TIP3      H1            -17.5152302284       -8.2160024696      -24.7239989362  TIP3      11577           0.0000000000
     84563     11977  TIP3      H2            -18.4376384062       -7.0299721747      -24.9420929067  TIP3      11577           0.0000000000
     84564     11978  TIP3      OH2           -13.2918705813       -6.9187430019      -42.2602970241  TIP3      11578           0.0000000000
     84565     11978  TIP3      H1            -13.2405395708       -7.7520894394      -41.7774925522  TIP3      11578           0.0000000000
     84566     11978  TIP3      H2            -12.6813109744       -7.1119536490      -42.9979736757  TIP3      11578           0.0000000000
     84567     11979  TIP3      OH2           -10.9849028435       -7.3267517383      -24.9964612250  TIP3      11579           0.0000000000
     84568     11979  TIP3      H1            -11.3350709114       -7.0472791534      -25.8644894568  TIP3      11579           0.0000000000
     84569     11979  TIP3      H2            -10.8828428077       -8.3031261324      -25.0846457576  TIP3      11579           0.0000000000
     84570     11980  TIP3      OH2            -5.2885543024       -7.4611668009      -27.6122209321  TIP3      11580           0.0000000000
     84571     11980  TIP3      H1             -4.5192625909       -6.8483788472      -27.7150738697  TIP3      11580           0.0000000000
     84572     11980  TIP3      H2             -6.0088897146       -6.8170137103      -27.5617041656  TIP3      11580           0.0000000000
     84573     11981  TIP3      OH2           -16.8516668460      -10.1089408853      -25.0191846352  TIP3      11581           0.0000000000
     84574     11981  TIP3      H1            -16.3921461997      -10.9527168868      -25.1257749073  TIP3      11581           0.0000000000
     84575     11981  TIP3      H2            -17.0581225489      -10.0916700829      -24.0764081825  TIP3      11581           0.0000000000
     84576     11982  TIP3      OH2           -12.1635591300       -8.9550197911      -39.9792093661  TIP3      11582           0.0000000000
     84577     11982  TIP3      H1            -12.6388171932       -9.4781740277      -39.3125952853  TIP3      11582           0.0000000000
     84578     11982  TIP3      H2            -11.8868230851       -9.6566051888      -40.6162636868  TIP3      11582           0.0000000000
     84579     11983  TIP3      OH2           -12.8744630366      -11.1278919070      -27.6449543878  TIP3      11583           0.0000000000
     84580     11983  TIP3      H1            -13.4938228002      -10.4267065373      -27.3661446025  TIP3      11583           0.0000000000
     84581     11983  TIP3      H2            -12.5313559749      -10.7644494992      -28.4730101262  TIP3      11583           0.0000000000
     84582     11984  TIP3      OH2           -11.0989571153      -10.7390423746      -41.7349054227  TIP3      11584           0.0000000000
     84583     11984  TIP3      H1            -11.2490777660      -10.9123903800      -42.6723936985  TIP3      11584           0.0000000000
     84584     11984  TIP3      H2            -10.1206903944      -10.6441232698      -41.6683328768  TIP3      11584           0.0000000000
     84585     11985  TIP3      OH2            -7.8513886603       -8.6137847281      -24.3513654716  TIP3      11585           0.0000000000
     84586     11985  TIP3      H1             -6.8913680035       -8.5635240580      -24.3874021137  TIP3      11585           0.0000000000
     84587     11985  TIP3      H2             -8.0152137247       -9.3397515799      -23.7318635330  TIP3      11585           0.0000000000
     84588     11986  TIP3      OH2            -1.8254437068       -8.3290583875       42.7728416134  TIP3      11586           0.0000000000
     84589     11986  TIP3      H1             -1.9833391447       -8.8016971764       41.9314271663  TIP3      11586           0.0000000000
     84590     11986  TIP3      H2             -1.6691002764       -7.4193779343       42.4967765671  TIP3      11586           0.0000000000
     84591     11987  TIP3      OH2           -12.4987155198      -13.7530623348      -26.5630494645  TIP3      11587           0.0000000000
     84592     11987  TIP3      H1            -12.3910112281      -14.4855271569      -27.1874824569  TIP3      11587           0.0000000000
     84593     11987  TIP3      H2            -12.5466407515      -12.9559871571      -27.1250453658  TIP3      11587           0.0000000000
     84594     11988  TIP3      OH2           -12.1119863775      -15.3990451933      -29.0308405906  TIP3      11588           0.0000000000
     84595     11988  TIP3      H1            -11.6064440995      -14.9327999185      -29.7349471892  TIP3      11588           0.0000000000
     84596     11988  TIP3      H2            -12.9935077414      -15.4843812837      -29.4679828661  TIP3      11588           0.0000000000
     84597     11989  TIP3      OH2           -10.5366301776       -9.9456740805      -28.8176013426  TIP3      11589           0.0000000000
     84598     11989  TIP3      H1             -9.7929201669      -10.0518967257      -29.3997358418  TIP3      11589           0.0000000000
     84599     11989  TIP3      H2            -10.9012770699       -9.0781183020      -29.1012497077  TIP3      11589           0.0000000000
     84600     11990  TIP3      OH2            -6.1359296423      -12.1231727475      -23.8883555442  TIP3      11590           0.0000000000
     84601     11990  TIP3      H1             -5.9225478223      -13.0593518864      -23.8676641040  TIP3      11590           0.0000000000
     84602     11990  TIP3      H2             -5.2732082810      -11.6963027716      -23.7744524932  TIP3      11590           0.0000000000
     84603     11991  TIP3      OH2            -4.8346184655       -9.3840416180      -25.7336771024  TIP3      11591           0.0000000000
     84604     11991  TIP3      H1             -5.0666446858       -8.6029493924      -26.2904556505  TIP3      11591           0.0000000000
     84605     11991  TIP3      H2             -3.8535908086       -9.3729720022      -25.8605395784  TIP3      11591           0.0000000000
     84606     11992  TIP3      OH2           -14.0589611056      -12.5164029217      -24.6638545463  TIP3      11592           0.0000000000
     84607     11992  TIP3      H1            -14.8177628112      -13.0924060000      -24.8535869943  TIP3      11592           0.0000000000
     84608     11992  TIP3      H2            -13.3780028563      -12.8698101579      -25.2611438244  TIP3      11592           0.0000000000
     84609     11993  TIP3      OH2           -11.2970438074      -17.9279321628      -28.6316760168  TIP3      11593           0.0000000000
     84610     11993  TIP3      H1            -11.4564119898      -16.9725026077      -28.7406699474  TIP3      11593           0.0000000000
     84611     11993  TIP3      H2            -12.0593312278      -18.3065106596      -29.1210629746  TIP3      11593           0.0000000000
     84612     11994  TIP3      OH2           -10.0328831738      -13.6254075168      -25.0695555210  TIP3      11594           0.0000000000
     84613     11994  TIP3      H1            -10.3156926283      -13.8153472031      -24.1422377315  TIP3      11594           0.0000000000
     84614     11994  TIP3      H2            -10.8581783145      -13.8133332574      -25.5580358803  TIP3      11594           0.0000000000
     84615     11995  TIP3      OH2            -7.3197005127      -14.4571111960      -26.0104140060  TIP3      11595           0.0000000000
     84616     11995  TIP3      H1             -8.2850469300      -14.4438585017      -25.8326072382  TIP3      11595           0.0000000000
     84617     11995  TIP3      H2             -7.0370684731      -15.1017765638      -25.3196117706  TIP3      11595           0.0000000000
     84618     11996  TIP3      OH2            -5.7241299809      -15.8210840373      -24.0007960510  TIP3      11596           0.0000000000
     84619     11996  TIP3      H1             -5.7982660456      -16.8010491136      -24.0071054161  TIP3      11596           0.0000000000
     84620     11996  TIP3      H2             -6.0233187320      -15.5774256055      -23.1218444964  TIP3      11596           0.0000000000
     84621     11997  TIP3      OH2           -15.9054937441      -14.6117846207      -24.9325903273  TIP3      11597           0.0000000000
     84622     11997  TIP3      H1            -15.6749254659      -15.3306248177      -25.5486623485  TIP3      11597           0.0000000000
     84623     11997  TIP3      H2            -16.0002994736      -15.0567907384      -24.0894472851  TIP3      11597           0.0000000000
     84624     11998  TIP3      OH2           -11.0977217509      -18.5929808637      -25.9493568334  TIP3      11598           0.0000000000
     84625     11998  TIP3      H1            -10.4037415668      -19.2864108477      -25.9840710063  TIP3      11598           0.0000000000
     84626     11998  TIP3      H2            -11.2048316708      -18.3832120903      -26.8968569237  TIP3      11598           0.0000000000
     84627     11999  TIP3      OH2           -10.7441229211      -16.9564818861      -23.8834135611  TIP3      11599           0.0000000000
     84628     11999  TIP3      H1            -10.8810997385      -17.4398252242      -24.7286977464  TIP3      11599           0.0000000000
     84629     11999  TIP3      H2            -11.3282153029      -16.1806438990      -23.9571112731  TIP3      11599           0.0000000000
     84630     12000  TIP3      OH2           -11.2276625005       -0.0535897059      -40.7336400760  TIP3      11600           0.0000000000
     84631     12000  TIP3      H1            -10.2637016054        0.0865156619      -40.5917680368  TIP3      11600           0.0000000000
     84632     12000  TIP3      H2            -11.4466266844        0.6255584775      -41.3672610312  TIP3      11600           0.0000000000
     84633     12001  TIP3      OH2           -17.6601328679       -5.4285749616      -41.2231354910  TIP3      11601           0.0000000000
     84634     12001  TIP3      H1            -16.7068491641       -5.3486662734      -40.9789823518  TIP3      11601           0.0000000000
     84635     12001  TIP3      H2            -17.6274642828       -6.0846599720      -41.9265904520  TIP3      11601           0.0000000000
     84636     12002  TIP3      OH2           -18.6303358853       -0.4146877216      -36.2791071977  TIP3      11602           0.0000000000
     84637     12002  TIP3      H1            -19.5756939634       -0.4970865279      -36.6530035526  TIP3      11602           0.0000000000
     84638     12002  TIP3      H2            -18.6313686017       -0.8510665897      -35.4442965588  TIP3      11602           0.0000000000
     84639     12003  TIP3      OH2           -18.0841775732       -1.9605118139      -34.3482068658  TIP3      11603           0.0000000000
     84640     12003  TIP3      H1            -18.4530754213       -2.8308054155      -34.1757646801  TIP3      11603           0.0000000000
     84641     12003  TIP3      H2            -17.8834978653       -1.6016318940      -33.4763773060  TIP3      11603           0.0000000000
     84642     12004  TIP3      OH2            -0.5684724476       -1.1451936652      -31.4058427213  TIP3      11604           0.0000000000
     84643     12004  TIP3      H1             -0.5606060312       -0.9612152056      -30.4507790217  TIP3      11604           0.0000000000
     84644     12004  TIP3      H2              0.1352413466       -0.5665480206      -31.7226235243  TIP3      11604           0.0000000000
     84645     12005  TIP3      OH2            -0.9933570280       -1.5479775737      -28.4692053881  TIP3      11605           0.0000000000
     84646     12005  TIP3      H1             -1.4751791226       -2.3195066771      -28.8430230652  TIP3      11605           0.0000000000
     84647     12005  TIP3      H2             -0.4642892710       -1.9812272795      -27.7811589358  TIP3      11605           0.0000000000
     84648     12006  TIP3      OH2            -2.5563618468       -5.8098266263      -23.8368342363  TIP3      11606           0.0000000000
     84649     12006  TIP3      H1             -3.4232618937       -5.8864890265      -23.4213998557  TIP3      11606           0.0000000000
     84650     12006  TIP3      H2             -2.1743292353       -5.0305664544      -23.3855846136  TIP3      11606           0.0000000000
     84651     12007  TIP3      OH2            -1.2399504864       -7.5102707615      -38.3468739236  TIP3      11607           0.0000000000
     84652     12007  TIP3      H1             -0.3813899052       -7.1009196147      -38.1708169694  TIP3      11607           0.0000000000
     84653     12007  TIP3      H2             -1.2392228214       -8.2504505190      -37.6959278995  TIP3      11607           0.0000000000
     84654     12008  TIP3      OH2            -0.8616554762       -9.4437859392      -36.4972002593  TIP3      11608           0.0000000000
     84655     12008  TIP3      H1             -1.5996539958       -9.9492593799      -36.0923386381  TIP3      11608           0.0000000000
     84656     12008  TIP3      H2             -0.2653268598       -9.2739278597      -35.7391389459  TIP3      11608           0.0000000000
     84657     12009  TIP3      OH2            -1.1087357030       -6.7115220164      -31.5191227366  TIP3      11609           0.0000000000
     84658     12009  TIP3      H1             -0.2673544535       -7.0764805489      -31.8501776674  TIP3      11609           0.0000000000
     84659     12009  TIP3      H2             -0.9711352522       -5.7504460222      -31.6673324857  TIP3      11609           0.0000000000
     84660     12010  TIP3      OH2            -2.5739769465       -3.8155739220      -29.2249874579  TIP3      11610           0.0000000000
     84661     12010  TIP3      H1             -3.2572902845       -3.4812274319      -28.6218624047  TIP3      11610           0.0000000000
     84662     12010  TIP3      H2             -3.1202409457       -4.2389569750      -29.9239878124  TIP3      11610           0.0000000000
     84663     12011  TIP3      OH2            -0.5747925150       -9.5933718265      -40.1028228995  TIP3      11611           0.0000000000
     84664     12011  TIP3      H1             -1.1277571490       -9.2187121935      -40.8147400697  TIP3      11611           0.0000000000
     84665     12011  TIP3      H2             -0.6300090903       -8.8924735845      -39.4260088278  TIP3      11611           0.0000000000
     84666     12012  TIP3      OH2            -2.4600604315      -12.3214688390      -41.4708991438  TIP3      11612           0.0000000000
     84667     12012  TIP3      H1             -2.1314238801      -11.7142222034      -42.1623486863  TIP3      11612           0.0000000000
     84668     12012  TIP3      H2             -2.3737279493      -13.1494623017      -41.9896855794  TIP3      11612           0.0000000000
     84669     12013  TIP3      OH2            -3.0578991784      -10.9469928450      -35.9278212852  TIP3      11613           0.0000000000
     84670     12013  TIP3      H1             -3.2099499630      -11.9026009304      -35.9474819498  TIP3      11613           0.0000000000
     84671     12013  TIP3      H2             -3.4077138650      -10.6925160255      -35.0616470431  TIP3      11613           0.0000000000
     84672     12014  TIP3      OH2           -18.0442133678       -8.8646071313      -31.8852841938  TIP3      11614           0.0000000000
     84673     12014  TIP3      H1            -17.8457073722       -8.9504259682      -32.8440978945  TIP3      11614           0.0000000000
     84674     12014  TIP3      H2            -17.1594987235       -9.0137029358      -31.4995869840  TIP3      11614           0.0000000000
     84675     12015  TIP3      OH2            -2.2257805945       -8.9935779907      -26.2858674435  TIP3      11615           0.0000000000
     84676     12015  TIP3      H1             -1.6006524733       -9.7169608758      -26.0731666044  TIP3      11615           0.0000000000
     84677     12015  TIP3      H2             -1.6342651748       -8.2064799435      -26.2262549252  TIP3      11615           0.0000000000
     84678     12016  TIP3      OH2            -0.7010122783      -11.0787952760      -25.6265669869  TIP3      11616           0.0000000000
     84679     12016  TIP3      H1             -1.5769688458      -11.4758751161      -25.7562153437  TIP3      11616           0.0000000000
     84680     12016  TIP3      H2             -0.1116231666      -11.8475675456      -25.6551975217  TIP3      11616           0.0000000000
     84681     12017  TIP3      OH2            -2.9726527089      -14.9293371373      -42.4508699311  TIP3      11617           0.0000000000
     84682     12017  TIP3      H1             -2.3703963479      -15.3231805801      -41.7931099714  TIP3      11617           0.0000000000
     84683     12017  TIP3      H2             -3.8334588850      -15.3283780082      -42.2443169147  TIP3      11617           0.0000000000
     84684     12018  TIP3      OH2            -3.3734090558      -13.3584102314      -37.4547620997  TIP3      11618           0.0000000000
     84685     12018  TIP3      H1             -3.0680298929      -14.2878507038      -37.3381166037  TIP3      11618           0.0000000000
     84686     12018  TIP3      H2             -2.5933080466      -12.9458385843      -37.8518768866  TIP3      11618           0.0000000000
     84687     12019  TIP3      OH2            -2.7565311194      -12.8142085094      -32.0230826307  TIP3      11619           0.0000000000
     84688     12019  TIP3      H1             -1.7985064817      -12.5762201279      -32.0471044040  TIP3      11619           0.0000000000
     84689     12019  TIP3      H2             -2.9512339564      -12.6775580314      -31.0889979821  TIP3      11619           0.0000000000
     84690     12020  TIP3      OH2            -2.6927195308      -12.0923213563      -29.2406122837  TIP3      11620           0.0000000000
     84691     12020  TIP3      H1             -3.5328733723      -11.7537304852      -28.9055699333  TIP3      11620           0.0000000000
     84692     12020  TIP3      H2             -2.2487187236      -11.2306536825      -29.4639646937  TIP3      11620           0.0000000000
     84693     12021  TIP3      OH2           -18.4422131878      -13.5705191622      -25.7412227077  TIP3      11621           0.0000000000
     84694     12021  TIP3      H1            -17.5007634134      -13.7489484610      -25.5416924876  TIP3      11621           0.0000000000
     84695     12021  TIP3      H2            -18.8817895000      -14.3791322278      -25.4027420815  TIP3      11621           0.0000000000
     84696     12022  TIP3      OH2            -0.4391241345      -18.0676809982      -23.8898666843  TIP3      11622           0.0000000000
     84697     12022  TIP3      H1             -0.0645815923      -18.7129965664      -24.5051940600  TIP3      11622           0.0000000000
     84698     12022  TIP3      H2             -0.2820795079      -17.2303509518      -24.3565670396  TIP3      11622           0.0000000000
     84699     12023  TIP3      OH2            -2.7266531576      -16.0870906891      -37.4142209902  TIP3      11623           0.0000000000
     84700     12023  TIP3      H1             -2.5357338010      -16.5465102850      -36.5736435344  TIP3      11623           0.0000000000
     84701     12023  TIP3      H2             -3.3373084010      -16.7052096378      -37.8755329359  TIP3      11623           0.0000000000
     84702     12024  TIP3      OH2           -17.2263497713      -15.2798535202      -32.8778168039  TIP3      11624           0.0000000000
     84703     12024  TIP3      H1            -16.7614594923      -16.0905184067      -32.5852889683  TIP3      11624           0.0000000000
     84704     12024  TIP3      H2            -16.7200940372      -14.5723027053      -32.4565012629  TIP3      11624           0.0000000000
     84705     12025  TIP3      OH2           -18.9347815046      -12.2916915890      -31.8108954784  TIP3      11625           0.0000000000
     84706     12025  TIP3      H1            -18.3928042331      -12.5103698035      -32.5981763731  TIP3      11625           0.0000000000
     84707     12025  TIP3      H2            -18.5160320422      -11.4584143636      -31.5441707021  TIP3      11625           0.0000000000
     84708     12026  TIP3      OH2            -0.8861395117      -15.9460539496      -25.5430019080  TIP3      11626           0.0000000000
     84709     12026  TIP3      H1             -1.8250012997      -15.6892957654      -25.5912216996  TIP3      11626           0.0000000000
     84710     12026  TIP3      H2             -0.8099165386      -16.4950371259      -26.3335889781  TIP3      11626           0.0000000000
     84711     12027  TIP3      OH2            -0.8938429737      -16.0346609377      -40.8604337358  TIP3      11627           0.0000000000
     84712     12027  TIP3      H1             -0.4566877510      -16.7472201187      -41.3589066163  TIP3      11627           0.0000000000
     84713     12027  TIP3      H2             -0.1789297098      -15.3706708960      -40.8340559056  TIP3      11627           0.0000000000
     84714     12028  TIP3      OH2           -18.5834116772      -16.0285432978      -37.7563896456  TIP3      11628           0.0000000000
     84715     12028  TIP3      H1            -19.5211868620      -15.8210078503      -37.8891368754  TIP3      11628           0.0000000000
     84716     12028  TIP3      H2            -18.1467574531      -15.5322977328      -38.4659931534  TIP3      11628           0.0000000000
     84717     12029  TIP3      OH2            -3.8401916096       -1.0565994104      -35.8033124748  TIP3      11629           0.0000000000
     84718     12029  TIP3      H1             -3.1620367044       -1.3858426295      -36.4206495722  TIP3      11629           0.0000000000
     84719     12029  TIP3      H2             -3.3118101870       -0.5612424070      -35.1599755522  TIP3      11629           0.0000000000
     84720     12030  TIP3      OH2           -18.6203702438      -17.3202628660      -29.4283051378  TIP3      11630           0.0000000000
     84721     12030  TIP3      H1            -19.3006585343      -17.5414548731      -28.7695221340  TIP3      11630           0.0000000000
     84722     12030  TIP3      H2            -19.0836460904      -16.6675501334      -29.9957565141  TIP3      11630           0.0000000000
     84723     12031  TIP3      OH2           -16.4174088340       -4.1304608176      -25.2751999999  TIP3      11631           0.0000000000
     84724     12031  TIP3      H1            -17.2564457396       -3.9407514455      -25.7220589786  TIP3      11631           0.0000000000
     84725     12031  TIP3      H2            -16.6839048332       -4.2037607904      -24.3506826290  TIP3      11631           0.0000000000
     84726     12032  TIP3      OH2           -13.4941204309       -3.1592802562      -29.0072054227  TIP3      11632           0.0000000000
     84727     12032  TIP3      H1            -13.8736544571       -2.3171291341      -29.2937412964  TIP3      11632           0.0000000000
     84728     12032  TIP3      H2            -12.5699439717       -3.0541944937      -29.3188038633  TIP3      11632           0.0000000000
     84729     12033  TIP3      OH2            -9.1764731835       -1.7404593579      -26.0887416052  TIP3      11633           0.0000000000
     84730     12033  TIP3      H1             -8.9973626602       -2.0731046487      -25.1742403600  TIP3      11633           0.0000000000
     84731     12033  TIP3      H2             -8.2919931312       -1.4309714303      -26.3611467807  TIP3      11633           0.0000000000
     84732     12034  TIP3      OH2            -6.8621083871       -0.4604320611      -26.8141993464  TIP3      11634           0.0000000000
     84733     12034  TIP3      H1             -6.1453233888       -1.0765630621      -27.0399452839  TIP3      11634           0.0000000000
     84734     12034  TIP3      H2             -6.4979609999       -0.0493304286      -25.9977123207  TIP3      11634           0.0000000000
     84735     12035  TIP3      OH2            -1.8879051635      -17.8495775490      -27.7106432859  TIP3      11635           0.0000000000
     84736     12035  TIP3      H1             -2.7180100332      -17.5498998743      -28.1203020455  TIP3      11635           0.0000000000
     84737     12035  TIP3      H2             -1.6908916729      -18.6468469527      -28.2508594374  TIP3      11635           0.0000000000
     84738     12036  TIP3      OH2           -16.0678204584        0.0983628244      -28.9874037485  TIP3      11636           0.0000000000
     84739     12036  TIP3      H1            -16.8049002111        0.5672860004      -29.4156378044  TIP3      11636           0.0000000000
     84740     12036  TIP3      H2            -16.4236898601       -0.1274351575      -28.1167643314  TIP3      11636           0.0000000000
     84741     12037  TIP3      OH2           -13.5957238395       -0.3173858412      -29.9328407380  TIP3      11637           0.0000000000
     84742     12037  TIP3      H1            -14.4910321885       -0.2046958126      -29.5344647543  TIP3      11637           0.0000000000
     84743     12037  TIP3      H2            -13.6684665992        0.2608690386      -30.7186363807  TIP3      11637           0.0000000000
     84744     12038  TIP3      OH2            -8.8978612379       -0.4163688417      -30.7652009394  TIP3      11638           0.0000000000
     84745     12038  TIP3      H1             -9.3612132327        0.1314701263      -31.4177470857  TIP3      11638           0.0000000000
     84746     12038  TIP3      H2             -8.7470535175        0.2134917991      -30.0298862528  TIP3      11638           0.0000000000
     84747     12039  TIP3      OH2            -6.5784252285       -1.5662750365      -29.7888266944  TIP3      11639           0.0000000000
     84748     12039  TIP3      H1             -7.4722363004       -1.3437263485      -30.0940149877  TIP3      11639           0.0000000000
     84749     12039  TIP3      H2             -6.1405891818       -0.7006669828      -29.8693161467  TIP3      11639           0.0000000000
     84750     12040  TIP3      OH2            -3.9912071771        0.0019230908      -29.5066699430  TIP3      11640           0.0000000000
     84751     12040  TIP3      H1             -4.1249369550        0.9535640086      -29.7421710920  TIP3      11640           0.0000000000
     84752     12040  TIP3      H2             -3.7996889987       -0.3761273243      -30.3849174326  TIP3      11640           0.0000000000
     84753     12041  TIP3      OH2           -16.6545149327       -1.2567165990      -32.0657241390  TIP3      11641           0.0000000000
     84754     12041  TIP3      H1            -16.6921485492       -1.7053447011      -31.1948661420  TIP3      11641           0.0000000000
     84755     12041  TIP3      H2            -15.8342396335       -1.6053456552      -32.4681967556  TIP3      11641           0.0000000000
     84756     12042  TIP3      OH2           -14.5388957738       -2.5454250145      -33.4136577777  TIP3      11642           0.0000000000
     84757     12042  TIP3      H1            -14.7296640673       -3.4793992339      -33.2142511281  TIP3      11642           0.0000000000
     84758     12042  TIP3      H2            -13.6862436280       -2.4147301001      -32.9412235026  TIP3      11642           0.0000000000
     84759     12043  TIP3      OH2           -11.9661613873       -2.0692193342      -32.5503622234  TIP3      11643           0.0000000000
     84760     12043  TIP3      H1            -11.7706627693       -2.9834631501      -32.8231861284  TIP3      11643           0.0000000000
     84761     12043  TIP3      H2            -11.9057623025       -2.1306245240      -31.5880621722  TIP3      11643           0.0000000000
     84762     12044  TIP3      OH2            -8.4737311931      -16.4056426109      -33.3892760905  TIP3      11644           0.0000000000
     84763     12044  TIP3      H1             -9.1518496529      -17.0648825974      -33.1489105033  TIP3      11644           0.0000000000
     84764     12044  TIP3      H2             -7.9225410526      -16.9241282659      -34.0009046811  TIP3      11644           0.0000000000
     84765     12045  TIP3      OH2            -3.3419763689      -18.3427362045      -33.3009643809  TIP3      11645           0.0000000000
     84766     12045  TIP3      H1             -2.7230557093      -17.7660095564      -33.8182598622  TIP3      11645           0.0000000000
     84767     12045  TIP3      H2             -4.2182797201      -17.9982260745      -33.5510018546  TIP3      11645           0.0000000000
     84768     12046  TIP3      OH2            -1.6545324633      -17.1514809753      -34.9969048866  TIP3      11646           0.0000000000
     84769     12046  TIP3      H1             -0.9863455227      -17.6969950703      -35.4823188378  TIP3      11646           0.0000000000
     84770     12046  TIP3      H2             -1.1962931517      -16.2857183348      -34.9435583623  TIP3      11646           0.0000000000
     84771     12047  TIP3      OH2           -16.1276488889      -17.7792574777      -35.5696665933  TIP3      11647           0.0000000000
     84772     12047  TIP3      H1            -16.9206181664      -18.0146724604      -36.0889688291  TIP3      11647           0.0000000000
     84773     12047  TIP3      H2            -15.6295460845      -18.6174229121      -35.5944825933  TIP3      11647           0.0000000000
     84774     12048  TIP3      OH2           -17.3318749820      -18.0156026473      -39.7992226106  TIP3      11648           0.0000000000
     84775     12048  TIP3      H1            -16.8657328401      -17.3806144421      -40.3773822837  TIP3      11648           0.0000000000
     84776     12048  TIP3      H2            -17.9340141201      -17.4483345169      -39.2933632329  TIP3      11648           0.0000000000
     84777     12049  TIP3      OH2           -11.6011480203      -17.8654588003      -35.7742276906  TIP3      11649           0.0000000000
     84778     12049  TIP3      H1            -10.7050514346      -17.4854264158      -35.8112296071  TIP3      11649           0.0000000000
     84779     12049  TIP3      H2            -11.6897942714      -18.0768506283      -34.8447380949  TIP3      11649           0.0000000000
     84780     12050  TIP3      OH2            -5.9760877783      -17.8313992283      -34.1261830735  TIP3      11650           0.0000000000
     84781     12050  TIP3      H1             -5.9501906542      -17.7399837577      -35.0841578178  TIP3      11650           0.0000000000
     84782     12050  TIP3      H2             -6.3023453317      -18.7537392305      -34.0010242798  TIP3      11650           0.0000000000
     84783     12051  TIP3      OH2            -4.6497441150      -17.8060628348      -38.4520199843  TIP3      11651           0.0000000000
     84784     12051  TIP3      H1             -5.3797450624      -17.1996979763      -38.6405608636  TIP3      11651           0.0000000000
     84785     12051  TIP3      H2             -5.1062892319      -18.6625026606      -38.2847989966  TIP3      11651           0.0000000000
     84786     12052  TIP3      OH2           -17.3922516883       -2.0762850232      -38.8601945289  TIP3      11652           0.0000000000
     84787     12052  TIP3      H1            -18.1018540024       -2.0674922116      -39.5351627172  TIP3      11652           0.0000000000
     84788     12052  TIP3      H2            -17.4150041109       -1.1332936460      -38.6148343048  TIP3      11652           0.0000000000
     84789     12053  TIP3      OH2           -15.4830713043      -16.1116154584      -41.3254186335  TIP3      11653           0.0000000000
     84790     12053  TIP3      H1            -14.9625125122      -16.7097308840      -41.8605888848  TIP3      11653           0.0000000000
     84791     12053  TIP3      H2            -14.8331072037      -15.7673990058      -40.6868665793  TIP3      11653           0.0000000000
     84792     12054  TIP3      OH2           -10.4525184445      -15.8155717256      -38.9107474781  TIP3      11654           0.0000000000
     84793     12054  TIP3      H1            -10.2347788938      -16.4228644429      -38.1839083734  TIP3      11654           0.0000000000
     84794     12054  TIP3      H2            -10.4535650762      -14.9600094153      -38.4180465187  TIP3      11654           0.0000000000
     84795     12055  TIP3      OH2            -8.5776468493       -0.6562821168      -40.3938911642  TIP3      11655           0.0000000000
     84796     12055  TIP3      H1             -7.6545647231       -0.4893051324      -40.6475286135  TIP3      11655           0.0000000000
     84797     12055  TIP3      H2             -8.7688247470       -1.2283876792      -41.1967431415  TIP3      11655           0.0000000000
     84798     12056  TIP3      OH2            -1.8337962174       -1.2651457482      -37.7755407604  TIP3      11656           0.0000000000
     84799     12056  TIP3      H1             -2.0440245983       -2.0340136606      -38.3622587127  TIP3      11656           0.0000000000
     84800     12056  TIP3      H2             -1.9031103629       -0.5198671102      -38.3986185237  TIP3      11656           0.0000000000
     84801     12057  TIP3      OH2           -16.2204640704      -17.2529571833      -26.0820498104  TIP3      11657           0.0000000000
     84802     12057  TIP3      H1            -16.5756459704      -18.0501801433      -25.6553941017  TIP3      11657           0.0000000000
     84803     12057  TIP3      H2            -15.2836707171      -17.2662434457      -25.7726938002  TIP3      11657           0.0000000000
     84804     12058  TIP3      OH2           -14.2239922995      -17.8963590018      -24.4875229978  TIP3      11658           0.0000000000
     84805     12058  TIP3      H1            -13.3193941052      -18.2119778128      -24.7277024778  TIP3      11658           0.0000000000
     84806     12058  TIP3      H2            -14.5755853923      -18.6921337353      -24.0898709663  TIP3      11658           0.0000000000
     84807     12059  TIP3      OH2           -15.5928286935       -1.1160020837      -41.8639437700  TIP3      11659           0.0000000000
     84808     12059  TIP3      H1            -15.8706424667       -0.8376618892      -40.9810494504  TIP3      11659           0.0000000000
     84809     12059  TIP3      H2            -14.8286497121       -1.6672083673      -41.7020378396  TIP3      11659           0.0000000000
     84810     12060  TIP3      OH2            -5.8073634113      -18.5679372215      -24.3371284560  TIP3      11660           0.0000000000
     84811     12060  TIP3      H1             -5.7198973226      -19.0339056725      -23.4796956002  TIP3      11660           0.0000000000
     84812     12060  TIP3      H2             -4.8953532091      -18.5982280798      -24.6914347927  TIP3      11660           0.0000000000
     84813     12061  TIP3      OH2            -2.6074663796       -2.5332909866      -25.6389155537  TIP3      11661           0.0000000000
     84814     12061  TIP3      H1             -3.4082014950       -2.6906546845      -26.1871800543  TIP3      11661           0.0000000000
     84815     12061  TIP3      H2             -2.7081709107       -1.5762686040      -25.4536146728  TIP3      11661           0.0000000000
     84816     12062  TIP3      OH2            11.8095720208       -8.6508079963      -35.6509499447  TIP3      11662           0.0000000000
     84817     12062  TIP3      H1             11.8530339218       -7.6759650806      -35.7505714160  TIP3      11662           0.0000000000
     84818     12062  TIP3      H2             11.1263232348       -8.8978701655      -36.2930527640  TIP3      11662           0.0000000000
     84819     12063  TIP3      OH2            10.7029386225       -9.3780070891      -32.1933694882  TIP3      11663           0.0000000000
     84820     12063  TIP3      H1             10.6758583852      -10.0362689748      -31.4924772375  TIP3      11663           0.0000000000
     84821     12063  TIP3      H2             10.3783530167       -9.8666337576      -32.9686243332  TIP3      11663           0.0000000000
     84822     12064  TIP3      OH2             3.0619934931       -9.7429975650      -30.6342716157  TIP3      11664           0.0000000000
     84823     12064  TIP3      H1              3.1330053855      -10.3995755245      -29.9080662140  TIP3      11664           0.0000000000
     84824     12064  TIP3      H2              3.7931727471       -9.1450105161      -30.4248008820  TIP3      11664           0.0000000000
     84825     12065  TIP3      OH2            14.4098243944       -6.4458138656      -33.9157034098  TIP3      11665           0.0000000000
     84826     12065  TIP3      H1             13.9722593034       -7.1597239287      -33.4399982122  TIP3      11665           0.0000000000
     84827     12065  TIP3      H2             14.4050630283       -5.7252525567      -33.2567231950  TIP3      11665           0.0000000000
     84828     12066  TIP3      OH2             3.9889502545       -5.2892481532      -32.0966259648  TIP3      11666           0.0000000000
     84829     12066  TIP3      H1              3.6505346096       -6.1308172239      -32.4545956034  TIP3      11666           0.0000000000
     84830     12066  TIP3      H2              4.9439860250       -5.4797799566      -32.0560691225  TIP3      11666           0.0000000000
     84831     12067  TIP3      OH2             0.6268569015      -11.6876916851      -36.6685431241  TIP3      11667           0.0000000000
     84832     12067  TIP3      H1              0.1705492140      -10.8198104352      -36.7096505378  TIP3      11667           0.0000000000
     84833     12067  TIP3      H2              0.0489466180      -12.2380014647      -37.2163695735  TIP3      11667           0.0000000000
     84834     12068  TIP3      OH2             1.3189079357       -9.4855337798      -34.5410383630  TIP3      11668           0.0000000000
     84835     12068  TIP3      H1              1.5655238009      -10.2851783670      -34.0417674014  TIP3      11668           0.0000000000
     84836     12068  TIP3      H2              2.0540560674       -9.3986601534      -35.1683284897  TIP3      11668           0.0000000000
     84837     12069  TIP3      OH2            11.5121277334       -1.3048616810      -33.6851712027  TIP3      11669           0.0000000000
     84838     12069  TIP3      H1             12.1546057864       -2.0087236605      -33.9604994236  TIP3      11669           0.0000000000
     84839     12069  TIP3      H2             11.3163427680       -1.5836494341      -32.7907994614  TIP3      11669           0.0000000000
     84840     12070  TIP3      OH2             9.0797611906       -6.9612440255      -31.7722600835  TIP3      11670           0.0000000000
     84841     12070  TIP3      H1              9.4151054081       -7.6288957372      -32.3923535263  TIP3      11670           0.0000000000
     84842     12070  TIP3      H2              9.8521497433       -6.8325423362      -31.1952406414  TIP3      11670           0.0000000000
     84843     12071  TIP3      OH2            17.6911925157      -15.3553905371      -30.9856027913  TIP3      11671           0.0000000000
     84844     12071  TIP3      H1             17.8352535432      -14.7344988318      -30.2216316523  TIP3      11671           0.0000000000
     84845     12071  TIP3      H2             18.2298487356      -14.8837980072      -31.6535371846  TIP3      11671           0.0000000000
     84846     12072  TIP3      OH2            12.2534551408      -12.5318346364      -31.4396411994  TIP3      11672           0.0000000000
     84847     12072  TIP3      H1             12.3832844346      -13.4950953723      -31.4434885258  TIP3      11672           0.0000000000
     84848     12072  TIP3      H2             12.1307480179      -12.3604782775      -32.3971118374  TIP3      11672           0.0000000000
     84849     12073  TIP3      OH2             5.3825686763      -14.4449157145      -34.1880488339  TIP3      11673           0.0000000000
     84850     12073  TIP3      H1              5.4475100414      -13.5915594555      -34.6470167825  TIP3      11673           0.0000000000
     84851     12073  TIP3      H2              4.9439631897      -15.0081465288      -34.8603238047  TIP3      11673           0.0000000000
     84852     12074  TIP3      OH2            13.1028154009      -14.3409751162      -35.8148579976  TIP3      11674           0.0000000000
     84853     12074  TIP3      H1             13.7696994733      -14.6500209994      -35.1707034055  TIP3      11674           0.0000000000
     84854     12074  TIP3      H2             13.6412956211      -13.7894539403      -36.4068005828  TIP3      11674           0.0000000000
     84855     12075  TIP3      OH2             1.9940091677      -12.0347118578      -33.4462410201  TIP3      11675           0.0000000000
     84856     12075  TIP3      H1              2.6684161729      -12.5971167446      -33.0095773778  TIP3      11675           0.0000000000
     84857     12075  TIP3      H2              2.0640162677      -12.3356373568      -34.3650933090  TIP3      11675           0.0000000000
     84858     12076  TIP3      OH2             7.1610843627      -10.4784247830      -34.1902301513  TIP3      11676           0.0000000000
     84859     12076  TIP3      H1              7.7991057247      -11.0471777393      -33.7269514059  TIP3      11676           0.0000000000
     84860     12076  TIP3      H2              6.6014027957      -11.1461507564      -34.6366464444  TIP3      11676           0.0000000000
     84861     12077  TIP3      OH2            18.1399000279      -13.9134134774      -28.7188750797  TIP3      11677           0.0000000000
     84862     12077  TIP3      H1             17.4861402348      -13.1803385422      -28.8101455265  TIP3      11677           0.0000000000
     84863     12077  TIP3      H2             18.1565218132      -14.0240731988      -27.7632038406  TIP3      11677           0.0000000000
     84864     12078  TIP3      OH2             4.2385918633      -15.5421652625      -30.1395527076  TIP3      11678           0.0000000000
     84865     12078  TIP3      H1              3.9808931396      -14.9843138606      -30.8988224775  TIP3      11678           0.0000000000
     84866     12078  TIP3      H2              3.5488265560      -15.3022881743      -29.4721756954  TIP3      11678           0.0000000000
     84867     12079  TIP3      OH2            11.5745468947       -6.0459714222      -36.5885572735  TIP3      11679           0.0000000000
     84868     12079  TIP3      H1             11.2763204843       -6.3510214981      -37.4550997987  TIP3      11679           0.0000000000
     84869     12079  TIP3      H2             11.2480641780       -5.1212025847      -36.5508013856  TIP3      11679           0.0000000000
     84870     12080  TIP3      OH2             6.7819475921       -7.8855253168      -29.8696537066  TIP3      11680           0.0000000000
     84871     12080  TIP3      H1              6.0498318939       -7.2488310843      -29.7189119485  TIP3      11680           0.0000000000
     84872     12080  TIP3      H2              7.4871511743       -7.2947969007      -30.1730267368  TIP3      11680           0.0000000000
     84873     12081  TIP3      OH2            14.8757555831      -14.9851820501      -33.8555100221  TIP3      11681           0.0000000000
     84874     12081  TIP3      H1             14.5656059698      -15.7280208876      -33.3408602167  TIP3      11681           0.0000000000
     84875     12081  TIP3      H2             15.5340795905      -14.5014227426      -33.3216330631  TIP3      11681           0.0000000000
     84876     12082  TIP3      OH2             3.7968476596      -13.6610344404      -32.1532197786  TIP3      11682           0.0000000000
     84877     12082  TIP3      H1              4.4400820787      -12.9988603479      -31.8073670328  TIP3      11682           0.0000000000
     84878     12082  TIP3      H2              4.3341941684      -14.1092162750      -32.8489921202  TIP3      11682           0.0000000000
     84879     12083  TIP3      OH2             5.2100344057       -5.9058369773      -29.0752966323  TIP3      11683           0.0000000000
     84880     12083  TIP3      H1              5.1755302905       -4.9969414080      -29.4322644084  TIP3      11683           0.0000000000
     84881     12083  TIP3      H2              4.3251164555       -5.9721622610      -28.6331501750  TIP3      11683           0.0000000000
     84882     12084  TIP3      OH2             1.2978953250       -6.2543507200      -38.2813771399  TIP3      11684           0.0000000000
     84883     12084  TIP3      H1              1.0491925777       -5.9687467768      -39.1790138684  TIP3      11684           0.0000000000
     84884     12084  TIP3      H2              1.3589022474       -5.3987901061      -37.8018058417  TIP3      11684           0.0000000000
     84885     12085  TIP3      OH2            14.9307865594       -4.6139764518      -31.5506646056  TIP3      11685           0.0000000000
     84886     12085  TIP3      H1             13.9650196240       -4.5218185663      -31.4083864131  TIP3      11685           0.0000000000
     84887     12085  TIP3      H2             15.1973031136       -3.6870864104      -31.7156046106  TIP3      11685           0.0000000000
     84888     12086  TIP3      OH2            15.2253744063      -16.3299020145      -30.2029276578  TIP3      11686           0.0000000000
     84889     12086  TIP3      H1             14.4925332934      -15.6898979227      -30.1723921014  TIP3      11686           0.0000000000
     84890     12086  TIP3      H2             15.9500890890      -15.8568892481      -30.6223289558  TIP3      11686           0.0000000000
     84891     12087  TIP3      OH2             8.2301977009      -18.2132483268      -32.6869893829  TIP3      11687           0.0000000000
     84892     12087  TIP3      H1              8.1019329555      -19.1799584279      -32.7394472393  TIP3      11687           0.0000000000
     84893     12087  TIP3      H2              7.3537165897      -17.8979949307      -32.3933713116  TIP3      11687           0.0000000000
     84894     12088  TIP3      OH2            13.1745084140       -2.8256806760      -34.9320748490  TIP3      11688           0.0000000000
     84895     12088  TIP3      H1             13.6118575413       -3.5365498084      -35.4402419249  TIP3      11688           0.0000000000
     84896     12088  TIP3      H2             13.5413724522       -2.0209886248      -35.3523645611  TIP3      11688           0.0000000000
     84897     12089  TIP3      OH2            14.3632462320       -4.9008412822      -36.4359307096  TIP3      11689           0.0000000000
     84898     12089  TIP3      H1             14.0854179688       -5.6066192532      -37.0444325616  TIP3      11689           0.0000000000
     84899     12089  TIP3      H2             14.4129047854       -5.3794858655      -35.5872772114  TIP3      11689           0.0000000000
     84900     12090  TIP3      OH2            16.0186262302       -6.3313075125      -27.9354016615  TIP3      11690           0.0000000000
     84901     12090  TIP3      H1             16.1621012554       -6.9520292109      -28.6835665956  TIP3      11690           0.0000000000
     84902     12090  TIP3      H2             16.1977498105       -5.4661920917      -28.3352694257  TIP3      11690           0.0000000000
     84903     12091  TIP3      OH2            10.4956226565       -9.3927071264      -38.1601290773  TIP3      11691           0.0000000000
     84904     12091  TIP3      H1              9.7896176685       -8.8443754417      -38.5487199511  TIP3      11691           0.0000000000
     84905     12091  TIP3      H2             11.1949248756       -9.3270698959      -38.8428943717  TIP3      11691           0.0000000000
     84906     12092  TIP3      OH2            10.5552917834      -10.9038440224      -41.1361149756  TIP3      11692           0.0000000000
     84907     12092  TIP3      H1             11.2628031539      -10.9003775232      -40.4710956135  TIP3      11692           0.0000000000
     84908     12092  TIP3      H2             10.8578597983      -11.5578217377      -41.7622187683  TIP3      11692           0.0000000000
     84909     12093  TIP3      OH2            17.8816277977      -10.0132012588      -29.8805509143  TIP3      11693           0.0000000000
     84910     12093  TIP3      H1             17.2180999652       -9.2969998786      -29.8188747066  TIP3      11693           0.0000000000
     84911     12093  TIP3      H2             18.3515032431       -9.7813602373      -30.7015939851  TIP3      11693           0.0000000000
     84912     12094  TIP3      OH2            13.9227980887       -9.1832550822      -37.2433114415  TIP3      11694           0.0000000000
     84913     12094  TIP3      H1             13.1774834142       -8.9528953493      -36.6403443837  TIP3      11694           0.0000000000
     84914     12094  TIP3      H2             14.3789623197       -9.8898871396      -36.7515013913  TIP3      11694           0.0000000000
     84915     12095  TIP3      OH2            13.8491538644      -11.0309471937      -28.1475437695  TIP3      11695           0.0000000000
     84916     12095  TIP3      H1             13.8795220786      -10.2299044652      -27.5937945352  TIP3      11695           0.0000000000
     84917     12095  TIP3      H2             13.2151163247      -10.7274351059      -28.8361637935  TIP3      11695           0.0000000000
     84918     12096  TIP3      OH2             5.5545314978       -8.5325867188      -35.3363709161  TIP3      11696           0.0000000000
     84919     12096  TIP3      H1              5.2264384516       -8.9296539201      -36.1771495742  TIP3      11696           0.0000000000
     84920     12096  TIP3      H2              6.1585692798       -9.2333813136      -34.9984806348  TIP3      11696           0.0000000000
     84921     12097  TIP3      OH2             6.8935028412       -5.1250383529      -32.6563333974  TIP3      11697           0.0000000000
     84922     12097  TIP3      H1              6.8447100131       -5.6963475982      -33.4336662580  TIP3      11697           0.0000000000
     84923     12097  TIP3      H2              7.6579434875       -5.5040156120      -32.1842696944  TIP3      11697           0.0000000000
     84924     12098  TIP3      OH2             5.9015302780       -9.7929250832      -31.6973456159  TIP3      11698           0.0000000000
     84925     12098  TIP3      H1              6.4740820979       -9.6688480812      -32.4778419122  TIP3      11698           0.0000000000
     84926     12098  TIP3      H2              6.2539108480       -9.1339244503      -31.0665244512  TIP3      11698           0.0000000000
     84927     12099  TIP3      OH2            12.2586169376       -4.2434573285      -30.9866336883  TIP3      11699           0.0000000000
     84928     12099  TIP3      H1             11.9953478363       -3.6089139804      -30.3192731625  TIP3      11699           0.0000000000
     84929     12099  TIP3      H2             12.0318074328       -5.1026618106      -30.5460920096  TIP3      11699           0.0000000000
     84930     12100  TIP3      OH2             6.8266194745       -5.3787407278      -26.9865216076  TIP3      11700           0.0000000000
     84931     12100  TIP3      H1              6.4627059832       -4.6048783841      -26.5148237240  TIP3      11700           0.0000000000
     84932     12100  TIP3      H2              6.1454440078       -5.5487740812      -27.6814008821  TIP3      11700           0.0000000000
     84933     12101  TIP3      OH2            12.7893246416      -10.0311723629      -39.5706570582  TIP3      11701           0.0000000000
     84934     12101  TIP3      H1             13.3617020392       -9.8504731642      -38.7824348576  TIP3      11701           0.0000000000
     84935     12101  TIP3      H2             13.2092661089       -9.5089821911      -40.2706269079  TIP3      11701           0.0000000000
     84936     12102  TIP3      OH2             3.7506049287       -9.2000562304      -27.7825596166  TIP3      11702           0.0000000000
     84937     12102  TIP3      H1              3.7920633543       -8.5296315923      -27.0688433114  TIP3      11702           0.0000000000
     84938     12102  TIP3      H2              2.8335035426       -9.0879241375      -28.0766461281  TIP3      11702           0.0000000000
     84939     12103  TIP3      OH2            10.5139586571       -3.2876489034      -36.1051224929  TIP3      11703           0.0000000000
     84940     12103  TIP3      H1             10.9745342297       -2.9788469372      -35.3179707349  TIP3      11703           0.0000000000
     84941     12103  TIP3      H2              9.9538911618       -2.5384678927      -36.3461096719  TIP3      11703           0.0000000000
     84942     12104  TIP3      OH2             5.0596834716       -3.3198080566      -26.2305018259  TIP3      11704           0.0000000000
     84943     12104  TIP3      H1              5.0350490703       -3.4431541291      -27.1917530018  TIP3      11704           0.0000000000
     84944     12104  TIP3      H2              4.1227123520       -3.4369406338      -25.9800677973  TIP3      11704           0.0000000000
     84945     12105  TIP3      OH2            16.5081138247      -18.2750794800      -39.7129538392  TIP3      11705           0.0000000000
     84946     12105  TIP3      H1             15.5696497462      -18.1375438103      -39.4342476830  TIP3      11705           0.0000000000
     84947     12105  TIP3      H2             16.7384090473      -17.4253012690      -40.1219241643  TIP3      11705           0.0000000000
     84948     12106  TIP3      OH2             4.5427476953       -9.4984839744      -37.7346091321  TIP3      11706           0.0000000000
     84949     12106  TIP3      H1              4.2472814221       -8.7192596803      -38.2520663523  TIP3      11706           0.0000000000
     84950     12106  TIP3      H2              3.8698408614      -10.1545168021      -37.9327156372  TIP3      11706           0.0000000000
     84951     12107  TIP3      OH2            17.6514374142       -3.9340178773      -41.3229345377  TIP3      11707           0.0000000000
     84952     12107  TIP3      H1             17.7530727542       -2.9659128015      -41.1917827095  TIP3      11707           0.0000000000
     84953     12107  TIP3      H2             18.5805309626       -4.1938729272      -41.4081354435  TIP3      11707           0.0000000000
     84954     12108  TIP3      OH2             0.6388952317       -7.0970110554      -28.9020131218  TIP3      11708           0.0000000000
     84955     12108  TIP3      H1              0.1459188261       -7.1639884652      -29.7369801599  TIP3      11708           0.0000000000
     84956     12108  TIP3      H2              0.6517144352       -8.0348384905      -28.6267347097  TIP3      11708           0.0000000000
     84957     12109  TIP3      OH2             0.3813913488       -4.3505024896      -32.0519451080  TIP3      11709           0.0000000000
     84958     12109  TIP3      H1              1.3373133735       -4.4756640089      -32.0703409275  TIP3      11709           0.0000000000
     84959     12109  TIP3      H2              0.2854983251       -3.5461054905      -31.5256183996  TIP3      11709           0.0000000000
     84960     12110  TIP3      OH2            18.6125347638       -3.6588388770      -26.3861580805  TIP3      11710           0.0000000000
     84961     12110  TIP3      H1             18.5167231575       -4.6226964641      -26.3988377687  TIP3      11710           0.0000000000
     84962     12110  TIP3      H2             17.7530477235       -3.4045388012      -25.9720411020  TIP3      11710           0.0000000000
     84963     12111  TIP3      OH2             9.5728377224       -4.1080224088      -27.5052039880  TIP3      11711           0.0000000000
     84964     12111  TIP3      H1              9.6449524978       -3.2633674780      -27.0033144136  TIP3      11711           0.0000000000
     84965     12111  TIP3      H2              8.6958130436       -4.4447134976      -27.2442414801  TIP3      11711           0.0000000000
     84966     12112  TIP3      OH2             9.9743066780       -0.3468893340      -37.6877530360  TIP3      11712           0.0000000000
     84967     12112  TIP3      H1              9.9115022624       -0.4433993679      -38.6548223630  TIP3      11712           0.0000000000
     84968     12112  TIP3      H2             10.0292451575        0.6156339281      -37.5617036699  TIP3      11712           0.0000000000
     84969     12113  TIP3      OH2             3.6449045907       -1.5015680490      -35.8950116584  TIP3      11713           0.0000000000
     84970     12113  TIP3      H1              3.7856695279       -1.9005249174      -35.0111957603  TIP3      11713           0.0000000000
     84971     12113  TIP3      H2              2.7909737576       -1.8960511335      -36.1413158570  TIP3      11713           0.0000000000
     84972     12114  TIP3      OH2            13.0602367664       -1.1575591990      -40.7174426443  TIP3      11714           0.0000000000
     84973     12114  TIP3      H1             13.4806399397       -1.9281143625      -41.1553334727  TIP3      11714           0.0000000000
     84974     12114  TIP3      H2             13.0948741055       -1.4335237747      -39.7779233849  TIP3      11714           0.0000000000
     84975     12115  TIP3      OH2            12.7582756600       -1.2302734202      -37.9434182392  TIP3      11715           0.0000000000
     84976     12115  TIP3      H1             11.8032273521       -1.1512384671      -37.7547660690  TIP3      11715           0.0000000000
     84977     12115  TIP3      H2             13.0180213062       -1.9605569292      -37.3618973449  TIP3      11715           0.0000000000
     84978     12116  TIP3      OH2            15.7636126850      -12.1851119532      -25.8970403751  TIP3      11716           0.0000000000
     84979     12116  TIP3      H1             15.3139248702      -11.7086359003      -26.6118563920  TIP3      11716           0.0000000000
     84980     12116  TIP3      H2             15.7603366610      -13.0947954365      -26.2072762231  TIP3      11716           0.0000000000
     84981     12117  TIP3      OH2             2.8895807840       -5.7793495465      -27.9009459039  TIP3      11717           0.0000000000
     84982     12117  TIP3      H1              3.1098939445       -6.1541323509      -27.0230205685  TIP3      11717           0.0000000000
     84983     12117  TIP3      H2              2.0222756048       -6.1779579261      -28.1075286195  TIP3      11717           0.0000000000
     84984     12118  TIP3      OH2             5.5478879326      -17.3219761600      -31.9144265844  TIP3      11718           0.0000000000
     84985     12118  TIP3      H1              4.6484082247      -17.4139629667      -32.3052340654  TIP3      11718           0.0000000000
     84986     12118  TIP3      H2              5.4651143008      -16.4666075110      -31.4656308555  TIP3      11718           0.0000000000
     84987     12119  TIP3      OH2            10.1972438193      -17.6100145341      -28.5482340977  TIP3      11719           0.0000000000
     84988     12119  TIP3      H1             10.5980224466      -18.0357887052      -27.7687431821  TIP3      11719           0.0000000000
     84989     12119  TIP3      H2              9.2305550719      -17.7724013108      -28.4122878192  TIP3      11719           0.0000000000
     84990     12120  TIP3      OH2            13.5098803455      -13.8262172085      -27.6763153016  TIP3      11720           0.0000000000
     84991     12120  TIP3      H1             12.9631067637      -13.9894718719      -26.8719148799  TIP3      11720           0.0000000000
     84992     12120  TIP3      H2             13.3409238106      -12.9037377322      -27.9139664311  TIP3      11720           0.0000000000
     84993     12121  TIP3      OH2            14.3185459127       -8.9530779921      -41.8319271435  TIP3      11721           0.0000000000
     84994     12121  TIP3      H1             14.3356867298       -9.1476539275      -42.7882466114  TIP3      11721           0.0000000000
     84995     12121  TIP3      H2             15.1666669872       -8.5314712516      -41.6919069565  TIP3      11721           0.0000000000
     84996     12122  TIP3      OH2             9.8596570682      -15.0785536312      -41.2514799435  TIP3      11722           0.0000000000
     84997     12122  TIP3      H1              9.5660113339      -15.1012687914      -40.3167267861  TIP3      11722           0.0000000000
     84998     12122  TIP3      H2              9.5753752137      -15.9618298541      -41.5220560244  TIP3      11722           0.0000000000
     84999     12123  TIP3      OH2             5.6412041784      -12.3570486643      -30.7572320010  TIP3      11723           0.0000000000
     85000     12123  TIP3      H1              4.9472236134      -12.3769802912      -30.0739795700  TIP3      11723           0.0000000000
     85001     12123  TIP3      H2              5.6316517590      -11.4195380526      -31.0512587453  TIP3      11723           0.0000000000
     85002     12124  TIP3      OH2             5.6170513055      -12.1585668989      -35.8541703768  TIP3      11724           0.0000000000
     85003     12124  TIP3      H1              4.6956967776      -12.4746503045      -35.9588645186  TIP3      11724           0.0000000000
     85004     12124  TIP3      H2              6.0323788701      -12.5128610193      -36.6635405327  TIP3      11724           0.0000000000
     85005     12125  TIP3      OH2            11.1417322166      -11.7213015885      -37.0565368864  TIP3      11725           0.0000000000
     85006     12125  TIP3      H1             10.7335417858      -10.8926642120      -37.3853530082  TIP3      11725           0.0000000000
     85007     12125  TIP3      H2             11.8507011013      -11.8637084496      -37.7117144955  TIP3      11725           0.0000000000
     85008     12126  TIP3      OH2            10.2298181777      -11.5221239091      -25.5984760359  TIP3      11726           0.0000000000
     85009     12126  TIP3      H1              9.6696632598      -12.2662186093      -25.2685700712  TIP3      11726           0.0000000000
     85010     12126  TIP3      H2             11.0606169263      -11.6502396484      -25.1218703304  TIP3      11726           0.0000000000
     85011     12127  TIP3      OH2            12.1688702268      -12.2546424971      -34.2239050454  TIP3      11727           0.0000000000
     85012     12127  TIP3      H1             11.9298032966      -11.6712756824      -34.9674839081  TIP3      11727           0.0000000000
     85013     12127  TIP3      H2             12.2998810944      -13.0951217039      -34.7021175210  TIP3      11727           0.0000000000
     85014     12128  TIP3      OH2             3.3276432875      -12.0490317874      -28.9697728340  TIP3      11728           0.0000000000
     85015     12128  TIP3      H1              3.3321510182      -11.6481203439      -28.0827282405  TIP3      11728           0.0000000000
     85016     12128  TIP3      H2              2.8540819298      -12.8802553387      -28.8221050220  TIP3      11728           0.0000000000
     85017     12129  TIP3      OH2             6.8267566722      -14.4891377488      -41.9013691985  TIP3      11729           0.0000000000
     85018     12129  TIP3      H1              6.2930436068      -15.1041202640      -41.3637962501  TIP3      11729           0.0000000000
     85019     12129  TIP3      H2              6.1482469650      -14.2084190396      -42.5341714696  TIP3      11729           0.0000000000
     85020     12130  TIP3      OH2            -0.0515797986      -14.9331711425      -35.0619041081  TIP3      11730           0.0000000000
     85021     12130  TIP3      H1              0.6112575921      -14.9709122597      -34.3453140940  TIP3      11730           0.0000000000
     85022     12130  TIP3      H2              0.4096266251      -15.3500306630      -35.8135715467  TIP3      11730           0.0000000000
     85023     12131  TIP3      OH2             1.2426778308      -14.2172388373      -39.6523660970  TIP3      11731           0.0000000000
     85024     12131  TIP3      H1              1.7171850475      -13.6018499261      -40.2543796917  TIP3      11731           0.0000000000
     85025     12131  TIP3      H2              0.5282626733      -13.6280417108      -39.3232664333  TIP3      11731           0.0000000000
     85026     12132  TIP3      OH2            11.3966164065      -10.6264005428      -29.6139070492  TIP3      11732           0.0000000000
     85027     12132  TIP3      H1             11.7428664187      -11.2932195276      -30.2356334737  TIP3      11732           0.0000000000
     85028     12132  TIP3      H2             10.9473170237      -11.1716093401      -28.9437196494  TIP3      11732           0.0000000000
     85029     12133  TIP3      OH2             8.1872820067      -14.6903072736      -34.8163362536  TIP3      11733           0.0000000000
     85030     12133  TIP3      H1              7.2535174492      -14.6542094353      -34.5144191803  TIP3      11733           0.0000000000
     85031     12133  TIP3      H2              8.6810024143      -14.7894231585      -33.9889398498  TIP3      11733           0.0000000000
     85032     12134  TIP3      OH2             3.0089268011      -13.0895334579      -35.9600484366  TIP3      11734           0.0000000000
     85033     12134  TIP3      H1              2.1104585657      -12.9707078362      -36.3293865776  TIP3      11734           0.0000000000
     85034     12134  TIP3      H2              3.2981228560      -13.9342461597      -36.3392147796  TIP3      11734           0.0000000000
     85035     12135  TIP3      OH2             6.6486341231      -13.0684912244      -38.3160467065  TIP3      11735           0.0000000000
     85036     12135  TIP3      H1              7.6019020768      -12.9509222033      -38.1413998785  TIP3      11735           0.0000000000
     85037     12135  TIP3      H2              6.4266735492      -12.4004381105      -38.9867721272  TIP3      11735           0.0000000000
     85038     12136  TIP3      OH2            12.6127651172      -15.4651575280      -31.5640343155  TIP3      11736           0.0000000000
     85039     12136  TIP3      H1             11.9058722029      -15.3532922854      -30.8760680881  TIP3      11736           0.0000000000
     85040     12136  TIP3      H2             12.0773123104      -15.6430702039      -32.3533560940  TIP3      11736           0.0000000000
     85041     12137  TIP3      OH2             5.3342054768      -11.8887931850      -40.7335211628  TIP3      11737           0.0000000000
     85042     12137  TIP3      H1              4.7874177831      -12.2563327387      -41.4501773064  TIP3      11737           0.0000000000
     85043     12137  TIP3      H2              6.1660804247      -11.6876056136      -41.1907243903  TIP3      11737           0.0000000000
     85044     12138  TIP3      OH2            15.8244290514        0.2088182308      -25.2470639331  TIP3      11738           0.0000000000
     85045     12138  TIP3      H1             16.0773042598        0.6172584415      -26.0958924313  TIP3      11738           0.0000000000
     85046     12138  TIP3      H2             16.5295279834        0.5370561445      -24.6558524794  TIP3      11738           0.0000000000
     85047     12139  TIP3      OH2             3.4809339197       -7.3313815644      -25.6678689934  TIP3      11739           0.0000000000
     85048     12139  TIP3      H1              4.2014025174       -7.0668953023      -25.0778310762  TIP3      11739           0.0000000000
     85049     12139  TIP3      H2              2.6822481657       -7.1522962387      -25.1208759798  TIP3      11739           0.0000000000
     85050     12140  TIP3      OH2             9.4839713900      -11.9119268937      -32.9197909758  TIP3      11740           0.0000000000
     85051     12140  TIP3      H1             10.0663613143      -12.4591547740      -33.4621151142  TIP3      11740           0.0000000000
     85052     12140  TIP3      H2              9.3429970984      -12.4500857908      -32.1301248549  TIP3      11740           0.0000000000
     85053     12141  TIP3      OH2             4.4935548770      -15.7667686816      -36.4902679516  TIP3      11741           0.0000000000
     85054     12141  TIP3      H1              4.1831870725      -16.6907667477      -36.5232703686  TIP3      11741           0.0000000000
     85055     12141  TIP3      H2              5.2808276934      -15.8072951226      -37.0494635029  TIP3      11741           0.0000000000
     85056     12142  TIP3      OH2             8.1219011250      -13.5596071907      -30.5109756432  TIP3      11742           0.0000000000
     85057     12142  TIP3      H1              7.2847525162      -13.0678431708      -30.4010598331  TIP3      11742           0.0000000000
     85058     12142  TIP3      H2              8.6586688680      -13.2407760307      -29.7582517284  TIP3      11742           0.0000000000
     85059     12143  TIP3      OH2             8.6969064669       -7.3325130022      -38.8132657887  TIP3      11743           0.0000000000
     85060     12143  TIP3      H1              7.9120005294       -7.8297016489      -39.1366507065  TIP3      11743           0.0000000000
     85061     12143  TIP3      H2              8.5111798062       -7.2652390892      -37.8564883938  TIP3      11743           0.0000000000
     85062     12144  TIP3      OH2            15.8483116910       -8.1805449327      -30.0120061024  TIP3      11744           0.0000000000
     85063     12144  TIP3      H1             16.4530061161       -7.7065103297      -30.6064508813  TIP3      11744           0.0000000000
     85064     12144  TIP3      H2             14.9997357240       -8.0816253362      -30.4938042898  TIP3      11744           0.0000000000
     85065     12145  TIP3      OH2            12.5664990914      -14.5477200518      -40.6250204752  TIP3      11745           0.0000000000
     85066     12145  TIP3      H1             11.6146386546      -14.4029680297      -40.7678990530  TIP3      11745           0.0000000000
     85067     12145  TIP3      H2             12.8617803862      -13.6677448150      -40.3039914255  TIP3      11745           0.0000000000
     85068     12146  TIP3      OH2            10.1896200801       -7.1201970007      -27.5793752022  TIP3      11746           0.0000000000
     85069     12146  TIP3      H1              9.8479586177       -7.5147943257      -26.7688057731  TIP3      11746           0.0000000000
     85070     12146  TIP3      H2              9.9710061786       -6.1876925294      -27.4929739271  TIP3      11746           0.0000000000
     85071     12147  TIP3      OH2            13.2833776547      -12.6343355483      -38.9697991087  TIP3      11747           0.0000000000
     85072     12147  TIP3      H1             14.1824419692      -12.7691320820      -38.6157813602  TIP3      11747           0.0000000000
     85073     12147  TIP3      H2             13.3499398983      -11.8252449541      -39.4895824334  TIP3      11747           0.0000000000
     85074     12148  TIP3      OH2             3.7958302212       -7.9945502114      -33.0288533222  TIP3      11748           0.0000000000
     85075     12148  TIP3      H1              4.5259597585       -8.0371577493      -33.6751838193  TIP3      11748           0.0000000000
     85076     12148  TIP3      H2              3.8731718237       -8.8446901041      -32.5631929249  TIP3      11748           0.0000000000
     85077     12149  TIP3      OH2            10.8105430028       -5.8710536514      -39.7823921448  TIP3      11749           0.0000000000
     85078     12149  TIP3      H1             10.4746688524       -5.0346581735      -39.4098541861  TIP3      11749           0.0000000000
     85079     12149  TIP3      H2             10.0730231739       -6.4904003461      -39.5864726196  TIP3      11749           0.0000000000
     85080     12150  TIP3      OH2             0.8133014870       -9.5555549862      -27.7489214543  TIP3      11750           0.0000000000
     85081     12150  TIP3      H1              1.0017302801       -9.9894805471      -26.8959631870  TIP3      11750           0.0000000000
     85082     12150  TIP3      H2              0.1891414205      -10.1777415750      -28.1645728307  TIP3      11750           0.0000000000
     85083     12151  TIP3      OH2             7.8125348641      -10.0127567801      -25.5385404920  TIP3      11751           0.0000000000
     85084     12151  TIP3      H1              7.5159066927      -10.2483791981      -26.4281622894  TIP3      11751           0.0000000000
     85085     12151  TIP3      H2              8.7507708739      -10.2891104389      -25.5446952166  TIP3      11751           0.0000000000
     85086     12152  TIP3      OH2            12.4680320250       -4.6773916922      -27.6360249963  TIP3      11752           0.0000000000
     85087     12152  TIP3      H1             11.5459595070       -4.4849000688      -27.8762900020  TIP3      11752           0.0000000000
     85088     12152  TIP3      H2             12.4608991685       -4.3922202297      -26.7042408447  TIP3      11752           0.0000000000
     85089     12153  TIP3      OH2            18.1806392709      -12.4591591340      -39.2315012525  TIP3      11753           0.0000000000
     85090     12153  TIP3      H1             17.6091935814      -12.8114105743      -39.9435258572  TIP3      11753           0.0000000000
     85091     12153  TIP3      H2             18.2507855622      -11.5322345666      -39.5336991008  TIP3      11753           0.0000000000
     85092     12154  TIP3      OH2            18.1501206355       -6.6285342564      -26.4030501399  TIP3      11754           0.0000000000
     85093     12154  TIP3      H1             17.2744895040       -6.3978203070      -26.7985116327  TIP3      11754           0.0000000000
     85094     12154  TIP3      H2             18.7199110593       -6.6507061962      -27.1967146258  TIP3      11754           0.0000000000
     85095     12155  TIP3      OH2            16.4797908074       -3.6540795637      -38.8104756308  TIP3      11755           0.0000000000
     85096     12155  TIP3      H1             16.0813862318       -4.4704703630      -38.4915008653  TIP3      11755           0.0000000000
     85097     12155  TIP3      H2             16.7490421228       -3.8321962570      -39.7261804173  TIP3      11755           0.0000000000
     85098     12156  TIP3      OH2            13.6457540361       -8.8281680263      -31.7522387740  TIP3      11756           0.0000000000
     85099     12156  TIP3      H1             12.7025088191       -9.0628369159      -31.8189378811  TIP3      11756           0.0000000000
     85100     12156  TIP3      H2             14.0812602234       -9.6126711395      -32.1303899543  TIP3      11756           0.0000000000
     85101     12157  TIP3      OH2             6.1760620239       -4.5135455728      -35.6353421269  TIP3      11757           0.0000000000
     85102     12157  TIP3      H1              6.6903922996       -3.7169356232      -35.8423875724  TIP3      11757           0.0000000000
     85103     12157  TIP3      H2              5.2935854116       -4.2749727783      -35.9518469038  TIP3      11757           0.0000000000
     85104     12158  TIP3      OH2             1.9186574721       -9.6529035715      -41.0750594872  TIP3      11758           0.0000000000
     85105     12158  TIP3      H1              2.5432670788       -9.0194444238      -40.6774322388  TIP3      11758           0.0000000000
     85106     12158  TIP3      H2              1.0515852684       -9.3399963199      -40.7763154701  TIP3      11758           0.0000000000
     85107     12159  TIP3      OH2             7.6106443217       -6.8490979592      -36.0852145475  TIP3      11759           0.0000000000
     85108     12159  TIP3      H1              7.3268030621       -5.9170982645      -36.0196014364  TIP3      11759           0.0000000000
     85109     12159  TIP3      H2              6.8574767024       -7.3129044687      -35.6671797998  TIP3      11759           0.0000000000
     85110     12160  TIP3      OH2             8.0702805213       -2.6804206554      -29.7340182252  TIP3      11760           0.0000000000
     85111     12160  TIP3      H1              8.4870047831       -1.8415726615      -29.9876367184  TIP3      11760           0.0000000000
     85112     12160  TIP3      H2              8.6566739416       -2.9896638724      -29.0187486539  TIP3      11760           0.0000000000
     85113     12161  TIP3      OH2             6.2814336015       -1.8280995330      -36.5563815531  TIP3      11761           0.0000000000
     85114     12161  TIP3      H1              5.3124559392       -1.7157526540      -36.4546355505  TIP3      11761           0.0000000000
     85115     12161  TIP3      H2              6.6339244583       -1.0028431701      -36.1867565555  TIP3      11761           0.0000000000
     85116     12162  TIP3      OH2            11.6253490789       -6.6160946053      -30.0702499687  TIP3      11762           0.0000000000
     85117     12162  TIP3      H1             11.2340005205       -6.8309250980      -29.2019025730  TIP3      11762           0.0000000000
     85118     12162  TIP3      H2             12.2330065858       -7.3509267381      -30.2408949866  TIP3      11762           0.0000000000
     85119     12163  TIP3      OH2            13.8658510154       -5.6441855328      -40.9760495189  TIP3      11763           0.0000000000
     85120     12163  TIP3      H1             14.1933282905       -6.0602917156      -40.1555703167  TIP3      11763           0.0000000000
     85121     12163  TIP3      H2             12.9068263881       -5.7696684430      -40.8863361563  TIP3      11763           0.0000000000
     85122     12164  TIP3      OH2            14.3478829806       -2.0592672280      -27.5707781263  TIP3      11764           0.0000000000
     85123     12164  TIP3      H1             13.7044113054       -2.5867452637      -28.0831590867  TIP3      11764           0.0000000000
     85124     12164  TIP3      H2             14.5836491311       -1.3737393155      -28.2311155465  TIP3      11764           0.0000000000
     85125     12165  TIP3      OH2            18.3724205473       -1.2048931494      -40.7536172678  TIP3      11765           0.0000000000
     85126     12165  TIP3      H1             19.0972959932       -0.5836149212      -40.9425794618  TIP3      11765           0.0000000000
     85127     12165  TIP3      H2             17.6587916550       -0.6052387200      -40.4448195653  TIP3      11765           0.0000000000
     85128     12166  TIP3      OH2             2.4526338434      -14.8091163629      -28.1770963220  TIP3      11766           0.0000000000
     85129     12166  TIP3      H1              1.5403319468      -14.4734562637      -28.2383759527  TIP3      11766           0.0000000000
     85130     12166  TIP3      H2              2.3337347291      -15.6731084731      -27.7555414076  TIP3      11766           0.0000000000
     85131     12167  TIP3      OH2            14.7159081338       -6.9791004279      -38.7663086387  TIP3      11767           0.0000000000
     85132     12167  TIP3      H1             14.4455765489       -7.7381839985      -38.2045098874  TIP3      11767           0.0000000000
     85133     12167  TIP3      H2             15.6485487199       -6.8827330898      -38.5343469634  TIP3      11767           0.0000000000
     85134     12168  TIP3      OH2             2.0844259802       -3.0103216467      -29.7600316777  TIP3      11768           0.0000000000
     85135     12168  TIP3      H1              2.3277327697       -3.9505236726      -29.7654152414  TIP3      11768           0.0000000000
     85136     12168  TIP3      H2              2.3309811656       -2.7399627706      -28.8654866916  TIP3      11768           0.0000000000
     85137     12169  TIP3      OH2             6.8591629496       -4.9746936818      -40.0769488302  TIP3      11769           0.0000000000
     85138     12169  TIP3      H1              7.0482691992       -5.5083417105      -39.2954940884  TIP3      11769           0.0000000000
     85139     12169  TIP3      H2              6.8852804417       -4.0567013000      -39.7499064727  TIP3      11769           0.0000000000
     85140     12170  TIP3      OH2             3.3232063648       -7.7338863946      -39.5858193249  TIP3      11770           0.0000000000
     85141     12170  TIP3      H1              2.6465191066       -7.3515227336      -38.9931092002  TIP3      11770           0.0000000000
     85142     12170  TIP3      H2              3.8687284397       -6.9628709087      -39.8167740512  TIP3      11770           0.0000000000
     85143     12171  TIP3      OH2            11.1869056215      -15.0592785512      -29.2898870972  TIP3      11771           0.0000000000
     85144     12171  TIP3      H1             11.8707386384      -14.9931344170      -28.6142131096  TIP3      11771           0.0000000000
     85145     12171  TIP3      H2             10.7923627575      -15.9359148553      -29.0970048896  TIP3      11771           0.0000000000
     85146     12172  TIP3      OH2            11.9340684676      -15.4435676667      -38.1628952051  TIP3      11772           0.0000000000
     85147     12172  TIP3      H1             12.1768317809      -14.9651188752      -38.9853853598  TIP3      11772           0.0000000000
     85148     12172  TIP3      H2             12.5151519634      -15.0257643001      -37.5192566440  TIP3      11772           0.0000000000
     85149     12173  TIP3      OH2             9.6212436891       -3.3022804099      -39.3276122346  TIP3      11773           0.0000000000
     85150     12173  TIP3      H1              8.8015830202       -2.7838993797      -39.2750631803  TIP3      11773           0.0000000000
     85151     12173  TIP3      H2             10.1550761319       -2.8003894704      -39.9653517770  TIP3      11773           0.0000000000
     85152     12174  TIP3      OH2             9.1503050291      -13.7050800504      -37.3483587948  TIP3      11774           0.0000000000
     85153     12174  TIP3      H1              9.9611933495      -13.1647293090      -37.3109938285  TIP3      11774           0.0000000000
     85154     12174  TIP3      H2              8.9012170299      -13.8399862718      -36.4213080817  TIP3      11774           0.0000000000
     85155     12175  TIP3      OH2             9.6999182260      -12.7059327117      -28.1644991573  TIP3      11775           0.0000000000
     85156     12175  TIP3      H1              9.7980709414      -12.1290378615      -27.3835554464  TIP3      11775           0.0000000000
     85157     12175  TIP3      H2             10.3579379050      -13.3996497660      -28.0506231570  TIP3      11775           0.0000000000
     85158     12176  TIP3      OH2            10.0238150744      -16.6440255352      -36.4267019854  TIP3      11776           0.0000000000
     85159     12176  TIP3      H1              9.6915502198      -15.9961033018      -35.7817425910  TIP3      11776           0.0000000000
     85160     12176  TIP3      H2             10.7032539052      -16.1019709228      -36.8987144214  TIP3      11776           0.0000000000
     85161     12177  TIP3      OH2             6.9661913239       -2.2624384540      -39.3348908144  TIP3      11777           0.0000000000
     85162     12177  TIP3      H1              7.1325599298       -1.4373878640      -39.8339490079  TIP3      11777           0.0000000000
     85163     12177  TIP3      H2              6.7542362200       -1.9280260744      -38.4391486021  TIP3      11777           0.0000000000
     85164     12178  TIP3      OH2             5.6827802329      -15.5681547271      -39.7323379520  TIP3      11778           0.0000000000
     85165     12178  TIP3      H1              5.6136874994      -14.6549519211      -39.3746576025  TIP3      11778           0.0000000000
     85166     12178  TIP3      H2              6.5908847022      -15.8030888197      -39.4726117172  TIP3      11778           0.0000000000
     85167     12179  TIP3      OH2            15.9144383045      -14.8279237235      -27.3133413826  TIP3      11779           0.0000000000
     85168     12179  TIP3      H1             14.9688782318      -14.5238420279      -27.4194715326  TIP3      11779           0.0000000000
     85169     12179  TIP3      H2             16.2030190957      -14.8047749603      -28.2341060745  TIP3      11779           0.0000000000
     85170     12180  TIP3      OH2            14.5007129582      -11.0452026670      -33.2629451915  TIP3      11780           0.0000000000
     85171     12180  TIP3      H1             13.6800933800      -11.4687467843      -33.5675369978  TIP3      11780           0.0000000000
     85172     12180  TIP3      H2             14.9553554970      -11.7372221740      -32.7449937710  TIP3      11780           0.0000000000
     85173     12181  TIP3      OH2             3.9290845493       -5.1193564505      -40.6763630600  TIP3      11781           0.0000000000
     85174     12181  TIP3      H1              4.5541593599       -4.4438124464      -40.3912476873  TIP3      11781           0.0000000000
     85175     12181  TIP3      H2              4.4276816313       -5.5663496718      -41.3870221490  TIP3      11781           0.0000000000
     85176     12182  TIP3      OH2             2.2848657629      -12.4530171641      -41.5239349313  TIP3      11782           0.0000000000
     85177     12182  TIP3      H1              2.2385604027      -11.4935278095      -41.3769416455  TIP3      11782           0.0000000000
     85178     12182  TIP3      H2              1.3977715124      -12.6743133780      -41.8370128972  TIP3      11782           0.0000000000
     85179     12183  TIP3      OH2            15.5645295134       -1.7990121404      -31.6105922296  TIP3      11783           0.0000000000
     85180     12183  TIP3      H1             15.4480383087       -1.1052945418      -32.2892634436  TIP3      11783           0.0000000000
     85181     12183  TIP3      H2             16.5217667810       -1.7179653558      -31.4245530518  TIP3      11783           0.0000000000
     85182     12184  TIP3      OH2             3.0754550080      -17.6615556851      -32.8478823724  TIP3      11784           0.0000000000
     85183     12184  TIP3      H1              2.8491192483      -17.6268378384      -33.8034009006  TIP3      11784           0.0000000000
     85184     12184  TIP3      H2              2.6330461983      -18.4883376925      -32.5702283773  TIP3      11784           0.0000000000
     85185     12185  TIP3      OH2             2.0158389277       -3.7431465639      -36.6963360775  TIP3      11785           0.0000000000
     85186     12185  TIP3      H1              1.1711276752       -3.2673936211      -36.7013145425  TIP3      11785           0.0000000000
     85187     12185  TIP3      H2              2.5305943987       -3.2390120008      -37.3396255853  TIP3      11785           0.0000000000
     85188     12186  TIP3      OH2             1.2866323416       -1.1237207620      -25.4077211404  TIP3      11786           0.0000000000
     85189     12186  TIP3      H1              1.8371469827       -1.3164781329      -24.6316058393  TIP3      11786           0.0000000000
     85190     12186  TIP3      H2              0.8047774056       -1.9412393241      -25.5751745535  TIP3      11786           0.0000000000
     85191     12187  TIP3      OH2             5.8832733510       -2.1893541185      -23.7479622341  TIP3      11787           0.0000000000
     85192     12187  TIP3      H1              6.6650505067       -2.6739164217      -23.4575075242  TIP3      11787           0.0000000000
     85193     12187  TIP3      H2              5.8707947205       -2.4340485897      -24.7033133692  TIP3      11787           0.0000000000
     85194     12188  TIP3      OH2            10.3122191589       -2.5417530086      -41.8991424204  TIP3      11788           0.0000000000
     85195     12188  TIP3      H1              9.5146686016       -3.1286316619      -41.9663362514  TIP3      11788           0.0000000000
     85196     12188  TIP3      H2             10.7822834508       -3.1045381995      -42.5208501241  TIP3      11788           0.0000000000
     85197     12189  TIP3      OH2            12.4439303088       -3.8043957452      -25.0424202669  TIP3      11789           0.0000000000
     85198     12189  TIP3      H1             12.0983164893       -4.6843143050      -24.7873118063  TIP3      11789           0.0000000000
     85199     12189  TIP3      H2             13.1955028042       -3.6674239833      -24.4469959322  TIP3      11789           0.0000000000
     85200     12190  TIP3      OH2            14.5871326672       -2.8787841702      -42.1722353202  TIP3      11790           0.0000000000
     85201     12190  TIP3      H1             14.8711211677       -3.6842452894      -41.7002419068  TIP3      11790           0.0000000000
     85202     12190  TIP3      H2             15.3511859224       -2.6554571908      -42.7186760229  TIP3      11790           0.0000000000
     85203     12191  TIP3      OH2             1.1856733825       -7.3143381840      -24.3940154312  TIP3      11791           0.0000000000
     85204     12191  TIP3      H1              1.3245172020       -8.2193977453      -24.7289219469  TIP3      11791           0.0000000000
     85205     12191  TIP3      H2              0.4184632795       -7.0333013161      -24.9342034316  TIP3      11791           0.0000000000
     85206     12192  TIP3      OH2             5.5646603536       -6.9190054540      -42.2640007251  TIP3      11792           0.0000000000
     85207     12192  TIP3      H1              5.6185941005       -7.7526011859      -41.7838225567  TIP3      11792           0.0000000000
     85208     12192  TIP3      H2              6.1758185049       -7.1110331643      -42.9996428063  TIP3      11792           0.0000000000
     85209     12193  TIP3      OH2             7.8621614174       -7.3301688967      -24.9950402905  TIP3      11793           0.0000000000
     85210     12193  TIP3      H1              7.5226818740       -7.0456143867      -25.8653086620  TIP3      11793           0.0000000000
     85211     12193  TIP3      H2              7.9748426535       -8.3009434010      -25.0920567440  TIP3      11793           0.0000000000
     85212     12194  TIP3      OH2            13.5732217322       -7.4507383052      -27.6020701431  TIP3      11794           0.0000000000
     85213     12194  TIP3      H1             14.3380574205       -6.8462778932      -27.7224013232  TIP3      11794           0.0000000000
     85214     12194  TIP3      H2             12.8380400008       -6.8233349679      -27.5720177213  TIP3      11794           0.0000000000
     85215     12195  TIP3      OH2             2.0388979008      -10.0945781681      -25.0133526085  TIP3      11795           0.0000000000
     85216     12195  TIP3      H1              2.4466136693      -10.9603390584      -25.1290390698  TIP3      11795           0.0000000000
     85217     12195  TIP3      H2              1.7698340668      -10.1164494647      -24.0898862242  TIP3      11795           0.0000000000
     85218     12196  TIP3      OH2             6.6928474812       -8.9552096996      -39.9800487462  TIP3      11796           0.0000000000
     85219     12196  TIP3      H1              6.2174896316       -9.4775931632      -39.3131963113  TIP3      11796           0.0000000000
     85220     12196  TIP3      H2              6.9690902813       -9.6568380504      -40.6168595300  TIP3      11796           0.0000000000
     85221     12197  TIP3      OH2             5.9725535140      -11.1247710905      -27.6389984037  TIP3      11797           0.0000000000
     85222     12197  TIP3      H1              5.3606718133      -10.4180421986      -27.3699294488  TIP3      11797           0.0000000000
     85223     12197  TIP3      H2              6.3329463262      -10.7740550372      -28.4711009921  TIP3      11797           0.0000000000
     85224     12198  TIP3      OH2             7.7538408215      -10.7400332734      -41.7363040838  TIP3      11798           0.0000000000
     85225     12198  TIP3      H1              7.6079063011      -10.9076472189      -42.6773497479  TIP3      11798           0.0000000000
     85226     12198  TIP3      H2              8.7291247960      -10.6404285350      -41.6638733827  TIP3      11798           0.0000000000
     85227     12199  TIP3      OH2            11.0077550606       -8.5989964244      -24.3388954429  TIP3      11799           0.0000000000
     85228     12199  TIP3      H1             11.9676934400       -8.5723949057      -24.3960233486  TIP3      11799           0.0000000000
     85229     12199  TIP3      H2             10.8385990097       -9.3478319613      -23.7465251311  TIP3      11799           0.0000000000
     85230     12200  TIP3      OH2            17.0396075940       -8.3305652213       42.7802991125  TIP3      11800           0.0000000000
     85231     12200  TIP3      H1             16.8713095270       -8.7954842302       41.9336489070  TIP3      11800           0.0000000000
     85232     12200  TIP3      H2             17.1748790446       -7.4204272038       42.4899811077  TIP3      11800           0.0000000000
     85233     12201  TIP3      OH2             6.3294771736      -13.7528931989      -26.5537288888  TIP3      11801           0.0000000000
     85234     12201  TIP3      H1              6.4720401027      -14.4771764394      -27.1883850762  TIP3      11801           0.0000000000
     85235     12201  TIP3      H2              6.3189666093      -12.9587640257      -27.1271233694  TIP3      11801           0.0000000000
     85236     12202  TIP3      OH2             6.7495094022      -15.3821967485      -29.0454493600  TIP3      11802           0.0000000000
     85237     12202  TIP3      H1              7.2737947783      -14.9205021937      -29.7390350219  TIP3      11802           0.0000000000
     85238     12202  TIP3      H2              5.8685098313      -15.4765415629      -29.4765171403  TIP3      11802           0.0000000000
     85239     12203  TIP3      OH2             8.3100122937       -9.9284689845      -28.8071861793  TIP3      11803           0.0000000000
     85240     12203  TIP3      H1              9.0631845754      -10.0829064310      -29.3895396090  TIP3      11803           0.0000000000
     85241     12203  TIP3      H2              7.9626657642       -9.0747570815      -29.1126374685  TIP3      11803           0.0000000000
     85242     12204  TIP3      OH2            12.7086807594      -12.1433501590      -23.7824557168  TIP3      11804           0.0000000000
     85243     12204  TIP3      H1             12.9450950119      -13.0638507867      -23.9263630059  TIP3      11804           0.0000000000
     85244     12204  TIP3      H2             13.5786875200      -11.6967728187      -23.8134404253  TIP3      11804           0.0000000000
     85245     12205  TIP3      OH2            14.0285122218       -9.3524649774      -25.7025892189  TIP3      11805           0.0000000000
     85246     12205  TIP3      H1             13.7793690034       -8.6181625361      -26.3048513731  TIP3      11805           0.0000000000
     85247     12205  TIP3      H2             14.9894656356       -9.3890624341      -25.8807698042  TIP3      11805           0.0000000000
     85248     12206  TIP3      OH2             4.7958003363      -12.5257038633      -24.6441808554  TIP3      11806           0.0000000000
     85249     12206  TIP3      H1              4.0339684864      -13.0967274532      -24.8574223783  TIP3      11806           0.0000000000
     85250     12206  TIP3      H2              5.4765702739      -12.8708934689      -25.2579037285  TIP3      11806           0.0000000000
     85251     12207  TIP3      OH2             7.5464563111      -17.9437923641      -28.6229461894  TIP3      11807           0.0000000000
     85252     12207  TIP3      H1              7.4118893935      -16.9734884506      -28.7412473496  TIP3      11807           0.0000000000
     85253     12207  TIP3      H2              6.7916677458      -18.2972313559      -29.1272409089  TIP3      11807           0.0000000000
     85254     12208  TIP3      OH2             8.8249063237      -13.6271044895      -25.0670222800  TIP3      11808           0.0000000000
     85255     12208  TIP3      H1              8.5437575518      -13.8280218706      -24.1480032760  TIP3      11808           0.0000000000
     85256     12208  TIP3      H2              8.0089842231      -13.8089891406      -25.5670156301  TIP3      11808           0.0000000000
     85257     12209  TIP3      OH2            11.5352286592      -14.4782861171      -25.9820262524  TIP3      11809           0.0000000000
     85258     12209  TIP3      H1             10.5690158238      -14.4337168351      -25.8478840558  TIP3      11809           0.0000000000
     85259     12209  TIP3      H2             11.8172906985      -15.1109768410      -25.3053610410  TIP3      11809           0.0000000000
     85260     12210  TIP3      OH2            13.1505739886      -15.8298618141      -23.9702971972  TIP3      11810           0.0000000000
     85261     12210  TIP3      H1             13.0607729143      -16.8077329936      -24.0164912233  TIP3      11810           0.0000000000
     85262     12210  TIP3      H2             12.8124707484      -15.5772750462      -23.1199583629  TIP3      11810           0.0000000000
     85263     12211  TIP3      OH2             2.9580274603      -14.5953333902      -24.9334785720  TIP3      11811           0.0000000000
     85264     12211  TIP3      H1              3.1764474055      -15.3295756150      -25.5428132690  TIP3      11811           0.0000000000
     85265     12211  TIP3      H2              2.8405514096      -15.0595092565      -24.0874180646  TIP3      11811           0.0000000000
     85266     12212  TIP3      OH2             7.7593137964      -18.6005058120      -25.9502007257  TIP3      11812           0.0000000000
     85267     12212  TIP3      H1              8.4726521665      -19.2707287067      -25.9820041242  TIP3      11812           0.0000000000
     85268     12212  TIP3      H2              7.6604616544      -18.3748557313      -26.8928678519  TIP3      11812           0.0000000000
     85269     12213  TIP3      OH2             8.1362399021      -16.9318507171      -23.8880786470  TIP3      11813           0.0000000000
     85270     12213  TIP3      H1              7.9734653374      -17.4387371883      -24.7194292351  TIP3      11813           0.0000000000
     85271     12213  TIP3      H2              7.5101851234      -16.1901784141      -23.9546542980  TIP3      11813           0.0000000000
     85272     12214  TIP3      OH2             7.6246854859       -0.0388386514      -40.7212281591  TIP3      11814           0.0000000000
     85273     12214  TIP3      H1              8.5949962460        0.0799673352      -40.5975374595  TIP3      11814           0.0000000000
     85274     12214  TIP3      H2              7.4121476209        0.6196743165      -41.3771568747  TIP3      11814           0.0000000000
     85275     12215  TIP3      OH2             1.1958859226       -5.4284515561      -41.2232316974  TIP3      11815           0.0000000000
     85276     12215  TIP3      H1              2.1491550369       -5.3487450957      -40.9789683089  TIP3      11815           0.0000000000
     85277     12215  TIP3      H2              1.2285529654       -6.0847063232      -41.9265730792  TIP3      11815           0.0000000000
     85278     12216  TIP3      OH2            -0.0864993469       -0.0422120853      -36.2023590171  TIP3      11816           0.0000000000
     85279     12216  TIP3      H1             -0.7788037455       -0.5242534767      -36.7038103784  TIP3      11816           0.0000000000
     85280     12216  TIP3      H2              0.2230954006       -0.7165876413      -35.5758656310  TIP3      11816           0.0000000000
     85281     12217  TIP3      OH2             0.7523827697       -1.9425125661      -34.3720516649  TIP3      11817           0.0000000000
     85282     12217  TIP3      H1              0.4088073652       -2.8273491497      -34.1789399147  TIP3      11817           0.0000000000
     85283     12217  TIP3      H2              0.9752673498       -1.6077534841      -33.4850843345  TIP3      11817           0.0000000000
     85284     12218  TIP3      OH2            18.3099980836       -1.1633207584      -31.4028299236  TIP3      11818           0.0000000000
     85285     12218  TIP3      H1             18.2855157215       -0.9546108141      -30.4508472474  TIP3      11818           0.0000000000
     85286     12218  TIP3      H2             18.9808027821       -0.5522342561      -31.7236338092  TIP3      11818           0.0000000000
     85287     12219  TIP3      OH2            17.8785746311       -1.5512968400      -28.4794484359  TIP3      11819           0.0000000000
     85288     12219  TIP3      H1             17.3728147955       -2.3159088009      -28.8356680417  TIP3      11819           0.0000000000
     85289     12219  TIP3      H2             18.3846275009       -1.9811709326      -27.7731867893  TIP3      11819           0.0000000000
     85290     12220  TIP3      OH2            16.2959378966       -5.7991642501      -23.8249890954  TIP3      11820           0.0000000000
     85291     12220  TIP3      H1             15.4373479542       -5.8859564724      -23.4488323696  TIP3      11820           0.0000000000
     85292     12220  TIP3      H2             16.7066166850       -5.0209316219      -23.3794400725  TIP3      11820           0.0000000000
     85293     12221  TIP3      OH2            17.6565508139       -7.5366463320      -38.3777163999  TIP3      11821           0.0000000000
     85294     12221  TIP3      H1             18.4551184060       -7.0703848924      -38.1327454025  TIP3      11821           0.0000000000
     85295     12221  TIP3      H2             17.5979540536       -8.2457920229      -37.6852431634  TIP3      11821           0.0000000000
     85296     12222  TIP3      OH2            18.0024361569       -9.4386653697      -36.5068249664  TIP3      11822           0.0000000000
     85297     12222  TIP3      H1             17.2586640695       -9.9467201013      -36.0948155664  TIP3      11822           0.0000000000
     85298     12222  TIP3      H2             18.5842382240       -9.2786912753      -35.7320548554  TIP3      11822           0.0000000000
     85299     12223  TIP3      OH2            17.7544663120       -6.7074470379      -31.5147374578  TIP3      11823           0.0000000000
     85300     12223  TIP3      H1             18.5855506221       -7.0842026119      -31.8529780649  TIP3      11823           0.0000000000
     85301     12223  TIP3      H2             17.8769145257       -5.7494516767      -31.6720892923  TIP3      11823           0.0000000000
     85302     12224  TIP3      OH2            16.2816555515       -3.8155096686      -29.2250688057  TIP3      11824           0.0000000000
     85303     12224  TIP3      H1             15.5986106182       -3.4815239645      -28.6216859301  TIP3      11824           0.0000000000
     85304     12224  TIP3      H2             15.7347671508       -4.2403092965      -29.9229987325  TIP3      11824           0.0000000000
     85305     12225  TIP3      OH2            18.3263704336       -9.5527323039      -40.1135519406  TIP3      11825           0.0000000000
     85306     12225  TIP3      H1             17.7132055035       -9.2355967283      -40.8157954634  TIP3      11825           0.0000000000
     85307     12225  TIP3      H2             18.1679740372       -8.9031548240      -39.4107513014  TIP3      11825           0.0000000000
     85308     12226  TIP3      OH2            16.3740049974      -12.3199013375      -41.4886333297  TIP3      11826           0.0000000000
     85309     12226  TIP3      H1             16.7353823378      -11.7156344601      -42.1627889609  TIP3      11826           0.0000000000
     85310     12226  TIP3      H2             16.4973677704      -13.1557187652      -41.9833236761  TIP3      11826           0.0000000000
     85311     12227  TIP3      OH2            15.8018102455      -10.9421659768      -35.9309763709  TIP3      11827           0.0000000000
     85312     12227  TIP3      H1             15.6449525055      -11.8967851896      -35.9533772883  TIP3      11827           0.0000000000
     85313     12227  TIP3      H2             15.4480460143      -10.6934472976      -35.0615747496  TIP3      11827           0.0000000000
     85314     12228  TIP3      OH2             0.8113378903       -8.8649954260      -31.8852918087  TIP3      11828           0.0000000000
     85315     12228  TIP3      H1              1.0103511875       -8.9504096454      -32.8440334466  TIP3      11828           0.0000000000
     85316     12228  TIP3      H2              1.6964709969       -9.0136273825      -31.4996145424  TIP3      11828           0.0000000000
     85317     12229  TIP3      OH2            16.6422874920       -8.9782513593      -26.2538413872  TIP3      11829           0.0000000000
     85318     12229  TIP3      H1             17.2506689530       -9.7297693053      -26.0914275866  TIP3      11829           0.0000000000
     85319     12229  TIP3      H2             17.2401846092       -8.2044927946      -26.2438414673  TIP3      11829           0.0000000000
     85320     12230  TIP3      OH2            18.1625113390      -11.0776858423      -25.6202944675  TIP3      11830           0.0000000000
     85321     12230  TIP3      H1             17.2736148323      -11.4740145695      -25.7492432170  TIP3      11830           0.0000000000
     85322     12230  TIP3      H2             18.7467159654      -11.8388798590      -25.6627886301  TIP3      11830           0.0000000000
     85323     12231  TIP3      OH2            15.8706591564      -14.9194670658      -42.4528280465  TIP3      11831           0.0000000000
     85324     12231  TIP3      H1             16.4849480967      -15.3219062574      -41.7994660214  TIP3      11831           0.0000000000
     85325     12231  TIP3      H2             15.0268343053      -15.3421987447      -42.2352372966  TIP3      11831           0.0000000000
     85326     12232  TIP3      OH2            15.4847876766      -13.3612087143      -37.4402670883  TIP3      11832           0.0000000000
     85327     12232  TIP3      H1             15.7830514447      -14.2925642767      -37.3511918920  TIP3      11832           0.0000000000
     85328     12232  TIP3      H2             16.2605286710      -12.9475971631      -37.8480303001  TIP3      11832           0.0000000000
     85329     12233  TIP3      OH2            16.1055837358      -12.8449648238      -32.0296939237  TIP3      11833           0.0000000000
     85330     12233  TIP3      H1             17.0568857340      -12.5633295598      -32.0479189304  TIP3      11833           0.0000000000
     85331     12233  TIP3      H2             15.8978879846      -12.6657594247      -31.0935804649  TIP3      11833           0.0000000000
     85332     12234  TIP3      OH2            16.1577348317      -12.0868612454      -29.2584946830  TIP3      11834           0.0000000000
     85333     12234  TIP3      H1             15.2950350576      -11.7840656449      -28.8948683455  TIP3      11834           0.0000000000
     85334     12234  TIP3      H2             16.5981387535      -11.2266891456      -29.4631255894  TIP3      11834           0.0000000000
     85335     12235  TIP3      OH2             0.4245923197      -13.5834463325      -25.7685697970  TIP3      11835           0.0000000000
     85336     12235  TIP3      H1              1.3542680143      -13.7469922928      -25.5262449677  TIP3      11835           0.0000000000
     85337     12235  TIP3      H2             -0.0259687009      -14.3682433647      -25.3909107398  TIP3      11835           0.0000000000
     85338     12236  TIP3      OH2            18.4568782678      -18.0742959268      -23.8945957300  TIP3      11836           0.0000000000
     85339     12236  TIP3      H1             18.7809201233      -18.7395828275      -24.5125150563  TIP3      11836           0.0000000000
     85340     12236  TIP3      H2             18.5487670423      -17.2237947174      -24.3365267466  TIP3      11836           0.0000000000
     85341     12237  TIP3      OH2            16.1229884867      -16.0851436859      -37.4027754726  TIP3      11837           0.0000000000
     85342     12237  TIP3      H1             16.3241311363      -16.5549776634      -36.5803452914  TIP3      11837           0.0000000000
     85343     12237  TIP3      H2             15.5212801172      -16.7044340019      -37.8807495557  TIP3      11837           0.0000000000
     85344     12238  TIP3      OH2             1.6299142781      -15.2803067990      -32.8778296780  TIP3      11838           0.0000000000
     85345     12238  TIP3      H1              2.0945879267      -16.0904858701      -32.5850565499  TIP3      11838           0.0000000000
     85346     12238  TIP3      H2              2.1360464912      -14.5722806178      -32.4565239965  TIP3      11838           0.0000000000
     85347     12239  TIP3      OH2            -0.0754837689      -12.2954904893      -31.8140396388  TIP3      11839           0.0000000000
     85348     12239  TIP3      H1              0.4651579832      -12.5106148319      -32.5999084347  TIP3      11839           0.0000000000
     85349     12239  TIP3      H2              0.3353377117      -11.4588823844      -31.5422148101  TIP3      11839           0.0000000000
     85350     12240  TIP3      OH2            17.8318299643      -15.9575335565      -25.4787906249  TIP3      11840           0.0000000000
     85351     12240  TIP3      H1             16.9142295992      -15.6560940975      -25.5966168443  TIP3      11840           0.0000000000
     85352     12240  TIP3      H2             17.9084179072      -16.4764894917      -26.2984042029  TIP3      11840           0.0000000000
     85353     12241  TIP3      OH2            17.9726008470      -16.0405362001      -40.8578406262  TIP3      11841           0.0000000000
     85354     12241  TIP3      H1             18.4029707270      -16.7499324890      -41.3610455943  TIP3      11841           0.0000000000
     85355     12241  TIP3      H2             18.6801618609      -15.3706383808      -40.8346978379  TIP3      11841           0.0000000000
     85356     12242  TIP3      OH2             0.2725967044      -16.0285095715      -37.7563188469  TIP3      11842           0.0000000000
     85357     12242  TIP3      H1             -0.6651841514      -15.8210098576      -37.8891562918  TIP3      11842           0.0000000000
     85358     12242  TIP3      H2              0.7092312546      -15.5323144006      -38.4659969173  TIP3      11842           0.0000000000
     85359     12243  TIP3      OH2            15.0101705245       -1.0509860271      -35.8054516222  TIP3      11843           0.0000000000
     85360     12243  TIP3      H1             15.6917393705       -1.3852705770      -36.4196088448  TIP3      11843           0.0000000000
     85361     12243  TIP3      H2             15.5429736802       -0.5613879273      -35.1602975232  TIP3      11843           0.0000000000
     85362     12244  TIP3      OH2             0.2368878991      -17.3240432836      -29.4303380899  TIP3      11844           0.0000000000
     85363     12244  TIP3      H1             -0.4440125039      -17.5415260472      -28.7695436470  TIP3      11844           0.0000000000
     85364     12244  TIP3      H2             -0.2265515999      -16.6685815056      -29.9949455396  TIP3      11844           0.0000000000
     85365     12245  TIP3      OH2             2.4397939471       -4.1192825844      -25.2610169782  TIP3      11845           0.0000000000
     85366     12245  TIP3      H1              1.6046899379       -3.9483483297      -25.7305061150  TIP3      11845           0.0000000000
     85367     12245  TIP3      H2              2.1676353509       -4.1949241444      -24.3526165057  TIP3      11845           0.0000000000
     85368     12246  TIP3      OH2             5.3619333603       -3.1590744587      -29.0067505683  TIP3      11846           0.0000000000
     85369     12246  TIP3      H1              4.9823087070       -2.3171611989      -29.2938200972  TIP3      11846           0.0000000000
     85370     12246  TIP3      H2              6.2860208946       -3.0542705428      -29.3188118259  TIP3      11846           0.0000000000
     85371     12247  TIP3      OH2             9.6806665107       -1.7459697501      -26.0871982771  TIP3      11847           0.0000000000
     85372     12247  TIP3      H1              9.8626914784       -2.0782941784      -25.1718915290  TIP3      11847           0.0000000000
     85373     12247  TIP3      H2             10.5617050346       -1.4268502826      -26.3630623672  TIP3      11847           0.0000000000
     85374     12248  TIP3      OH2            11.9951610523       -0.4642568452      -26.8148290729  TIP3      11848           0.0000000000
     85375     12248  TIP3      H1             12.7126674851       -1.0777111158      -27.0416002857  TIP3      11848           0.0000000000
     85376     12248  TIP3      H2             12.3566202619       -0.0518017995      -25.9982741589  TIP3      11848           0.0000000000
     85377     12249  TIP3      OH2            16.9953981456      -17.8293930131      -27.7164536813  TIP3      11849           0.0000000000
     85378     12249  TIP3      H1             16.1365050630      -17.5600800113      -28.1056434197  TIP3      11849           0.0000000000
     85379     12249  TIP3      H2             17.1632969497      -18.6526992953      -28.2393109602  TIP3      11849           0.0000000000
     85380     12250  TIP3      OH2             2.7914178177        0.0956259974      -28.9927335438  TIP3      11850           0.0000000000
     85381     12250  TIP3      H1              2.0506606629        0.5677116168      -29.4063942369  TIP3      11850           0.0000000000
     85382     12250  TIP3      H2              2.4360323115       -0.1265990127      -28.1157047318  TIP3      11850           0.0000000000
     85383     12251  TIP3      OH2             5.2606398175       -0.3174418122      -29.9329644852  TIP3      11851           0.0000000000
     85384     12251  TIP3      H1              4.3650544977       -0.2048099253      -29.5345979458  TIP3      11851           0.0000000000
     85385     12251  TIP3      H2              5.1876261504        0.2608267518      -30.7185565801  TIP3      11851           0.0000000000
     85386     12252  TIP3      OH2             9.9581068580       -0.4163360003      -30.7652686258  TIP3      11852           0.0000000000
     85387     12252  TIP3      H1              9.4947499869        0.1314347160      -31.4177021757  TIP3      11852           0.0000000000
     85388     12252  TIP3      H2             10.1089771692        0.2134696568      -30.0298515606  TIP3      11852           0.0000000000
     85389     12253  TIP3      OH2            12.2775960894       -1.5662013064      -29.7886466400  TIP3      11853           0.0000000000
     85390     12253  TIP3      H1             11.3838074558       -1.3437557319      -30.0940123185  TIP3      11853           0.0000000000
     85391     12253  TIP3      H2             12.7156275588       -0.7007626747      -29.8694271577  TIP3      11853           0.0000000000
     85392     12254  TIP3      OH2            14.8640917407        0.0009225965      -29.5068355879  TIP3      11854           0.0000000000
     85393     12254  TIP3      H1             14.7301094712        0.9541037329      -29.7409505938  TIP3      11854           0.0000000000
     85394     12254  TIP3      H2             15.0564218042       -0.3761045340      -30.3850488533  TIP3      11854           0.0000000000
     85395     12255  TIP3      OH2             2.2032074908       -1.2588567745      -32.0662174630  TIP3      11855           0.0000000000
     85396     12255  TIP3      H1              2.1658017155       -1.7068336361      -31.1938853487  TIP3      11855           0.0000000000
     85397     12255  TIP3      H2              3.0259792387       -1.6084746528      -32.4646017633  TIP3      11855           0.0000000000
     85398     12256  TIP3      OH2             4.3168739686       -2.5467089800      -33.4144814197  TIP3      11856           0.0000000000
     85399     12256  TIP3      H1              4.1300187031       -3.4815945688      -33.2110526458  TIP3      11856           0.0000000000
     85400     12256  TIP3      H2              5.1696281157       -2.4146052626      -32.9420213579  TIP3      11856           0.0000000000
     85401     12257  TIP3      OH2             6.8890072688       -2.0691582589      -32.5506286966  TIP3      11857           0.0000000000
     85402     12257  TIP3      H1              7.0853490316       -2.9835459388      -32.8230811057  TIP3      11857           0.0000000000
     85403     12257  TIP3      H2              6.9497552521       -2.1303700384      -31.5879209761  TIP3      11857           0.0000000000
     85404     12258  TIP3      OH2            10.3966717777      -16.4157725612      -33.3932249960  TIP3      11858           0.0000000000
     85405     12258  TIP3      H1              9.7059013882      -17.0563216812      -33.1429824385  TIP3      11858           0.0000000000
     85406     12258  TIP3      H2             10.9284396805      -16.9294044418      -34.0089656815  TIP3      11858           0.0000000000
     85407     12259  TIP3      OH2            15.5072415843      -18.3688785350      -33.3175063666  TIP3      11859           0.0000000000
     85408     12259  TIP3      H1             16.1402682127      -17.8395803720      -33.8743146216  TIP3      11859           0.0000000000
     85409     12259  TIP3      H2             14.6145059344      -18.0479909029      -33.5765655903  TIP3      11859           0.0000000000
     85410     12260  TIP3      OH2            17.1991333446      -17.1529582968      -34.9610554778  TIP3      11860           0.0000000000
     85411     12260  TIP3      H1             17.8615120682      -17.6954346265      -35.4819814339  TIP3      11860           0.0000000000
     85412     12260  TIP3      H2             17.6730174887      -16.2874231332      -34.9667010630  TIP3      11860           0.0000000000
     85413     12261  TIP3      OH2             2.7279461751      -17.7787490548      -35.5696018515  TIP3      11861           0.0000000000
     85414     12261  TIP3      H1              1.9334414054      -18.0134463719      -36.0877341495  TIP3      11861           0.0000000000
     85415     12261  TIP3      H2              3.2250468011      -18.6173149029      -35.5930187000  TIP3      11861           0.0000000000
     85416     12262  TIP3      OH2             1.5204027861      -18.0147639918      -39.8003665116  TIP3      11862           0.0000000000
     85417     12262  TIP3      H1              1.9900998649      -17.3806400100      -40.3773028928  TIP3      11862           0.0000000000
     85418     12262  TIP3      H2              0.9214662077      -17.4477612728      -39.2930530993  TIP3      11862           0.0000000000
     85419     12263  TIP3      OH2             7.2515279048      -17.8582946439      -35.7704460474  TIP3      11863           0.0000000000
     85420     12263  TIP3      H1              8.1523229170      -17.4899214644      -35.8142375891  TIP3      11863           0.0000000000
     85421     12263  TIP3      H2              7.1659394044      -18.0773092540      -34.8435460157  TIP3      11863           0.0000000000
     85422     12264  TIP3      OH2            12.9157754655      -17.8320643772      -34.1212835173  TIP3      11864           0.0000000000
     85423     12264  TIP3      H1             12.8927800014      -17.7427195468      -35.0851379487  TIP3      11864           0.0000000000
     85424     12264  TIP3      H2             12.5463638884      -18.7490629326      -34.0028865754  TIP3      11864           0.0000000000
     85425     12265  TIP3      OH2            14.2056642486      -17.8047184274      -38.4527312819  TIP3      11865           0.0000000000
     85426     12265  TIP3      H1             13.4772213318      -17.1953149264      -38.6452108315  TIP3      11865           0.0000000000
     85427     12265  TIP3      H2             13.7491445609      -18.6618359695      -38.2851433837  TIP3      11865           0.0000000000
     85428     12266  TIP3      OH2             1.4513361261       -2.0694767881      -38.8471984008  TIP3      11866           0.0000000000
     85429     12266  TIP3      H1              0.7588053445       -2.0739668681      -39.5418136921  TIP3      11866           0.0000000000
     85430     12266  TIP3      H2              1.4436309905       -1.1271406542      -38.6241771031  TIP3      11866           0.0000000000
     85431     12267  TIP3      OH2             3.3728809632      -16.1116184609      -41.3255309257  TIP3      11867           0.0000000000
     85432     12267  TIP3      H1              3.8934651354      -16.7102664335      -41.8603552584  TIP3      11867           0.0000000000
     85433     12267  TIP3      H2              4.0229859487      -15.7675320577      -40.6868990889  TIP3      11867           0.0000000000
     85434     12268  TIP3      OH2             8.4049989269      -15.8144205036      -38.9108701766  TIP3      11868           0.0000000000
     85435     12268  TIP3      H1              8.6206135421      -16.4227789613      -38.1839438873  TIP3      11868           0.0000000000
     85436     12268  TIP3      H2              8.4030306684      -14.9583156112      -38.4181950989  TIP3      11868           0.0000000000
     85437     12269  TIP3      OH2            10.2757943278       -0.6531084976      -40.3966235680  TIP3      11869           0.0000000000
     85438     12269  TIP3      H1             11.2007433133       -0.4894963748      -40.6474136697  TIP3      11869           0.0000000000
     85439     12269  TIP3      H2             10.0870436511       -1.2286046260      -41.1972067758  TIP3      11869           0.0000000000
     85440     12270  TIP3      OH2            17.0222093721       -1.2669626851      -37.7758084126  TIP3      11870           0.0000000000
     85441     12270  TIP3      H1             16.8122782421       -2.0343889920      -38.3625633634  TIP3      11870           0.0000000000
     85442     12270  TIP3      H2             16.9528882791       -0.5200883650      -38.3984465320  TIP3      11870           0.0000000000
     85443     12271  TIP3      OH2             2.6393665510      -17.2574859324      -26.1043606183  TIP3      11871           0.0000000000
     85444     12271  TIP3      H1              2.2810477483      -18.0379782822      -25.6370298213  TIP3      11871           0.0000000000
     85445     12271  TIP3      H2              3.5657348763      -17.2700299304      -25.7552625673  TIP3      11871           0.0000000000
     85446     12272  TIP3      OH2             4.6397703692      -17.9066520932      -24.5505069439  TIP3      11872           0.0000000000
     85447     12272  TIP3      H1              5.5474802004      -18.2070072545      -24.7073970109  TIP3      11872           0.0000000000
     85448     12272  TIP3      H2              4.2566497194      -18.6533371342      -24.0454992498  TIP3      11872           0.0000000000
     85449     12273  TIP3      OH2             3.2631003270       -1.1159746331      -41.8641756894  TIP3      11873           0.0000000000
     85450     12273  TIP3      H1              2.9853264198       -0.8376278888      -40.9812976896  TIP3      11873           0.0000000000
     85451     12273  TIP3      H2              4.0273247554       -1.6671761640      -41.7019859647  TIP3      11873           0.0000000000
     85452     12274  TIP3      OH2            13.0531715828      -18.5630078666      -24.3241716608  TIP3      11874           0.0000000000
     85453     12274  TIP3      H1             13.1529531935      -19.0454159800      -23.4967526586  TIP3      11874           0.0000000000
     85454     12274  TIP3      H2             13.9586706360      -18.5955043645      -24.6962828863  TIP3      11874           0.0000000000
     85455     12275  TIP3      OH2            16.2444283357       -2.5365835639      -25.6484119788  TIP3      11875           0.0000000000
     85456     12275  TIP3      H1             15.4438931316       -2.6818526526      -26.1978861197  TIP3      11875           0.0000000000
     85457     12275  TIP3      H2             16.1529837325       -1.5755877976      -25.4519908553  TIP3      11875           0.0000000000
     85458     12276  TIP3      OH2            30.6653791982       -8.6517152164      -35.6508344134  TIP3      11876           0.0000000000
     85459     12276  TIP3      H1             30.7086912185       -7.6776824188      -35.7500397753  TIP3      11876           0.0000000000
     85460     12276  TIP3      H2             29.9824105221       -8.8981854939      -36.2931219910  TIP3      11876           0.0000000000
     85461     12277  TIP3      OH2            29.5587394179       -9.3778872078      -32.1932902836  TIP3      11877           0.0000000000
     85462     12277  TIP3      H1             29.5319611973      -10.0364020580      -31.4925325935  TIP3      11877           0.0000000000
     85463     12277  TIP3      H2             29.2343716589       -9.8673000271      -32.9681650742  TIP3      11877           0.0000000000
     85464     12278  TIP3      OH2            21.9168886504       -9.7450820347      -30.6340512102  TIP3      11878           0.0000000000
     85465     12278  TIP3      H1             21.9883633765      -10.4001901155      -29.9078980563  TIP3      11878           0.0000000000
     85466     12278  TIP3      H2             22.6513165816       -9.1528696303      -30.4233570881  TIP3      11878           0.0000000000
     85467     12279  TIP3      OH2            33.2654665070       -6.4449945304      -33.9167545252  TIP3      11879           0.0000000000
     85468     12279  TIP3      H1             32.8287493778       -7.1594853604      -33.4406942855  TIP3      11879           0.0000000000
     85469     12279  TIP3      H2             33.2614480800       -5.7253299211      -33.2570869177  TIP3      11879           0.0000000000
     85470     12280  TIP3      OH2            22.8737091663       -5.3552425730      -32.1091848894  TIP3      11880           0.0000000000
     85471     12280  TIP3      H1             22.5205423776       -6.1934073247      -32.4743410970  TIP3      11880           0.0000000000
     85472     12280  TIP3      H2             23.8379609473       -5.5300701938      -32.0686725859  TIP3      11880           0.0000000000
     85473     12281  TIP3      OH2            19.4905005816      -11.6789612771      -36.6903388015  TIP3      11881           0.0000000000
     85474     12281  TIP3      H1             19.0163826211      -10.8242170690      -36.7002342683  TIP3      11881           0.0000000000
     85475     12281  TIP3      H2             18.9027295961      -12.2456406662      -37.2093432834  TIP3      11881           0.0000000000
     85476     12282  TIP3      OH2            20.1717204421       -9.4872607677      -34.5533164225  TIP3      11882           0.0000000000
     85477     12282  TIP3      H1             20.4189607634      -10.2817145395      -34.0377753016  TIP3      11882           0.0000000000
     85478     12282  TIP3      H2             20.9184358791       -9.4020554537      -35.1600188340  TIP3      11882           0.0000000000
     85479     12283  TIP3      OH2            30.3741990696       -1.3027573896      -33.6932781507  TIP3      11883           0.0000000000
     85480     12283  TIP3      H1             31.0092164430       -2.0141248088      -33.9542527506  TIP3      11883           0.0000000000
     85481     12283  TIP3      H2             30.1720232026       -1.5791034839      -32.7975451557  TIP3      11883           0.0000000000
     85482     12284  TIP3      OH2            27.9361594872       -6.9610560568      -31.7725864342  TIP3      11884           0.0000000000
     85483     12284  TIP3      H1             28.2712068961       -7.6291588079      -32.3924193585  TIP3      11884           0.0000000000
     85484     12284  TIP3      H2             28.7080999487       -6.8326918303      -31.1953723667  TIP3      11884           0.0000000000
     85485     12285  TIP3      OH2            36.5776788928      -15.3526093892      -30.9659193892  TIP3      11885           0.0000000000
     85486     12285  TIP3      H1             36.6905951478      -14.7321064026      -30.2140949094  TIP3      11885           0.0000000000
     85487     12285  TIP3      H2             37.0707372099      -14.8911941047      -31.6605147566  TIP3      11885           0.0000000000
     85488     12286  TIP3      OH2            31.0973254685      -12.5283859877      -31.4374191500  TIP3      11886           0.0000000000
     85489     12286  TIP3      H1             31.2469040455      -13.4942538342      -31.4447426425  TIP3      11886           0.0000000000
     85490     12286  TIP3      H2             30.9929261165      -12.3658410142      -32.3977753974  TIP3      11886           0.0000000000
     85491     12287  TIP3      OH2            24.2383575261      -14.4447483483      -34.1881003207  TIP3      11887           0.0000000000
     85492     12287  TIP3      H1             24.3035094228      -13.5915323323      -34.6473913247  TIP3      11887           0.0000000000
     85493     12287  TIP3      H2             23.8000355548      -15.0081911692      -34.8603173016  TIP3      11887           0.0000000000
     85494     12288  TIP3      OH2            31.9551717275      -14.3368109128      -35.8160270459  TIP3      11888           0.0000000000
     85495     12288  TIP3      H1             32.6246229759      -14.6569073171      -35.1652059672  TIP3      11888           0.0000000000
     85496     12288  TIP3      H2             32.5039850639      -13.7926265710      -36.4023313510  TIP3      11888           0.0000000000
     85497     12289  TIP3      OH2            20.8490514218      -12.0344620243      -33.4451018185  TIP3      11889           0.0000000000
     85498     12289  TIP3      H1             21.5244089553      -12.5970095264      -33.0096611631  TIP3      11889           0.0000000000
     85499     12289  TIP3      H2             20.9180333444      -12.3356295782      -34.3639271143  TIP3      11889           0.0000000000
     85500     12290  TIP3      OH2            26.0168100788      -10.4778735222      -34.1911803516  TIP3      11890           0.0000000000
     85501     12290  TIP3      H1             26.6547261740      -11.0466680160      -33.7272548473  TIP3      11890           0.0000000000
     85502     12290  TIP3      H2             25.4572633774      -11.1462419695      -34.6367535367  TIP3      11890           0.0000000000
     85503     12291  TIP3      OH2            37.0041913476      -13.8948665385      -28.7168180020  TIP3      11891           0.0000000000
     85504     12291  TIP3      H1             36.3341824732      -13.1860067052      -28.8070812011  TIP3      11891           0.0000000000
     85505     12291  TIP3      H2             37.0207918529      -14.0488024422      -27.7613633283  TIP3      11891           0.0000000000
     85506     12292  TIP3      OH2            23.0896624275      -15.5457295127      -30.1372135987  TIP3      11892           0.0000000000
     85507     12292  TIP3      H1             22.8434183240      -14.9852671035      -30.9021565206  TIP3      11892           0.0000000000
     85508     12292  TIP3      H2             22.4095760088      -15.2937365139      -29.4795221719  TIP3      11892           0.0000000000
     85509     12293  TIP3      OH2            30.4314204224       -6.0483596853      -36.5873455974  TIP3      11893           0.0000000000
     85510     12293  TIP3      H1             30.1362103331       -6.3486669641      -37.4566289988  TIP3      11893           0.0000000000
     85511     12293  TIP3      H2             30.0985099418       -5.1263365110      -36.5475644779  TIP3      11893           0.0000000000
     85512     12294  TIP3      OH2            25.6341483701       -7.8820310271      -29.8748874487  TIP3      11894           0.0000000000
     85513     12294  TIP3      H1             24.9067391944       -7.2499725407      -29.7151826711  TIP3      11894           0.0000000000
     85514     12294  TIP3      H2             26.3485976141       -7.2987856485      -30.1709182451  TIP3      11894           0.0000000000
     85515     12295  TIP3      OH2            33.7377747102      -15.0183557828      -33.8283499420  TIP3      11895           0.0000000000
     85516     12295  TIP3      H1             33.5323199251      -15.7889963956      -33.2884548522  TIP3      11895           0.0000000000
     85517     12295  TIP3      H2             34.4100331408      -14.5647926118      -33.2932106232  TIP3      11895           0.0000000000
     85518     12296  TIP3      OH2            22.6529927426      -13.6618126146      -32.1532421659  TIP3      11896           0.0000000000
     85519     12296  TIP3      H1             23.2960393233      -12.9990042704      -31.8074577152  TIP3      11896           0.0000000000
     85520     12296  TIP3      H2             23.1916194733      -14.1088527187      -32.8496799392  TIP3      11896           0.0000000000
     85521     12297  TIP3      OH2            24.0594564444       -5.9018006492      -29.0872817827  TIP3      11897           0.0000000000
     85522     12297  TIP3      H1             24.0416866779       -4.9921357443      -29.4186384921  TIP3      11897           0.0000000000
     85523     12297  TIP3      H2             23.1861022734       -5.9781550067      -28.6229711046  TIP3      11897           0.0000000000
     85524     12298  TIP3      OH2            20.1490807929       -6.2216721055      -38.2740788918  TIP3      11898           0.0000000000
     85525     12298  TIP3      H1             19.8909215409       -5.8964624570      -39.1595184065  TIP3      11898           0.0000000000
     85526     12298  TIP3      H2             20.2153620372       -5.3695565135      -37.7785119562  TIP3      11898           0.0000000000
     85527     12299  TIP3      OH2            33.7866563153       -4.6138714105      -31.5507424270  TIP3      11899           0.0000000000
     85528     12299  TIP3      H1             32.8210251708       -4.5218191682      -31.4083203580  TIP3      11899           0.0000000000
     85529     12299  TIP3      H2             34.0534111762       -3.6870656571      -31.7155754935  TIP3      11899           0.0000000000
     85530     12300  TIP3      OH2            34.0911271447      -16.3193130457      -30.1424190696  TIP3      11900           0.0000000000
     85531     12300  TIP3      H1             33.3562602552      -15.6963032175      -30.2045488549  TIP3      11900           0.0000000000
     85532     12300  TIP3      H2             34.7872243669      -15.8974141208      -30.6766142109  TIP3      11900           0.0000000000
     85533     12301  TIP3      OH2            27.0888246673      -18.2196184179      -32.6901229107  TIP3      11901           0.0000000000
     85534     12301  TIP3      H1             26.9520531628      -19.1800785286      -32.7387736256  TIP3      11901           0.0000000000
     85535     12301  TIP3      H2             26.2133453935      -17.8987418617      -32.3948440046  TIP3      11901           0.0000000000
     85536     12302  TIP3      OH2            32.0334093858       -2.8245242262      -34.9353861016  TIP3      11902           0.0000000000
     85537     12302  TIP3      H1             32.4668211667       -3.5461748773      -35.4305206589  TIP3      11902           0.0000000000
     85538     12302  TIP3      H2             32.3958780549       -2.0194755662      -35.3406908962  TIP3      11902           0.0000000000
     85539     12303  TIP3      OH2            33.2174585999       -4.8901550913      -36.4406908334  TIP3      11903           0.0000000000
     85540     12303  TIP3      H1             32.9424416774       -5.6078750903      -37.0410594081  TIP3      11903           0.0000000000
     85541     12303  TIP3      H2             33.2690254157       -5.3788821004      -35.5902161021  TIP3      11903           0.0000000000
     85542     12304  TIP3      OH2            34.8758776452       -6.3306151265      -27.9369260932  TIP3      11904           0.0000000000
     85543     12304  TIP3      H1             35.0193743368       -6.9526346586      -28.6834954433  TIP3      11904           0.0000000000
     85544     12304  TIP3      H2             35.0523652812       -5.4654230216      -28.3372563735  TIP3      11904           0.0000000000
     85545     12305  TIP3      OH2            29.3533571603       -9.3991923845      -38.1671532813  TIP3      11905           0.0000000000
     85546     12305  TIP3      H1             28.6472299025       -8.8454338568      -38.5488248960  TIP3      11905           0.0000000000
     85547     12305  TIP3      H2             30.0533347418       -9.3265503288      -38.8457998790  TIP3      11905           0.0000000000
     85548     12306  TIP3      OH2            29.3943500601      -10.9164776598      -41.1178352350  TIP3      11906           0.0000000000
     85549     12306  TIP3      H1             30.1227583955      -10.9004993458      -40.4804000638  TIP3      11906           0.0000000000
     85550     12306  TIP3      H2             29.7202806508      -11.5468352629      -41.7711620322  TIP3      11906           0.0000000000
     85551     12307  TIP3      OH2            36.7314508245      -10.0197432349      -29.8904740769  TIP3      11907           0.0000000000
     85552     12307  TIP3      H1             36.0782803430       -9.2951518040      -29.8131523596  TIP3      11907           0.0000000000
     85553     12307  TIP3      H2             37.2077705642       -9.7807180921      -30.7040866974  TIP3      11907           0.0000000000
     85554     12308  TIP3      OH2            32.7794386646       -9.1831819710      -37.2426478662  TIP3      11908           0.0000000000
     85555     12308  TIP3      H1             32.0335178508       -8.9528833189      -36.6404461004  TIP3      11908           0.0000000000
     85556     12308  TIP3      H2             33.2349494827       -9.8901630442      -36.7511948121  TIP3      11908           0.0000000000
     85557     12309  TIP3      OH2            32.7054554815      -11.0302430575      -28.1457819151  TIP3      11909           0.0000000000
     85558     12309  TIP3      H1             32.7332361698      -10.2286811928      -27.5921052236  TIP3      11909           0.0000000000
     85559     12309  TIP3      H2             32.0711849746      -10.7273919717      -28.8359694164  TIP3      11909           0.0000000000
     85560     12310  TIP3      OH2            24.4080046576       -8.5290030992      -35.3403478103  TIP3      11910           0.0000000000
     85561     12310  TIP3      H1             24.0878086297       -8.9341222794      -36.1764206697  TIP3      11910           0.0000000000
     85562     12310  TIP3      H2             25.0122447914       -9.2298471282      -34.9990974836  TIP3      11910           0.0000000000
     85563     12311  TIP3      OH2            25.7360729692       -5.1268760909      -32.6520539227  TIP3      11911           0.0000000000
     85564     12311  TIP3      H1             25.7100279558       -5.6979767069      -33.4355530079  TIP3      11911           0.0000000000
     85565     12311  TIP3      H2             26.5156193684       -5.5021243933      -32.1878821304  TIP3      11911           0.0000000000
     85566     12312  TIP3      OH2            24.7576055831       -9.7934262445      -31.6973311709  TIP3      11912           0.0000000000
     85567     12312  TIP3      H1             25.3300422866       -9.6686761141      -32.4777614441  TIP3      11912           0.0000000000
     85568     12312  TIP3      H2             25.1095429011       -9.1335776654      -31.0667993580  TIP3      11912           0.0000000000
     85569     12313  TIP3      OH2            31.1131348859       -4.2431691197      -30.9870154699  TIP3      11913           0.0000000000
     85570     12313  TIP3      H1             30.8514551349       -3.6089209947      -30.3192449435  TIP3      11913           0.0000000000
     85571     12313  TIP3      H2             30.8880356944       -5.1028108767      -30.5460087881  TIP3      11913           0.0000000000
     85572     12314  TIP3      OH2            25.6857390259       -5.3772394720      -26.9853387198  TIP3      11914           0.0000000000
     85573     12314  TIP3      H1             25.3185618551       -4.6050005287      -26.5143422118  TIP3      11914           0.0000000000
     85574     12314  TIP3      H2             25.0053912042       -5.5538724881      -27.6752716226  TIP3      11914           0.0000000000
     85575     12315  TIP3      OH2            31.6424680036      -10.0239383277      -39.5622214248  TIP3      11915           0.0000000000
     85576     12315  TIP3      H1             32.2215358813       -9.8487721329      -38.7803176614  TIP3      11915           0.0000000000
     85577     12315  TIP3      H2             32.0634923283       -9.5175022859      -40.2773588672  TIP3      11915           0.0000000000
     85578     12316  TIP3      OH2            22.6047150117       -9.2062996565      -27.7788733821  TIP3      11916           0.0000000000
     85579     12316  TIP3      H1             22.6520131577       -8.5301696703      -27.0719947528  TIP3      11916           0.0000000000
     85580     12316  TIP3      H2             21.6898761543       -9.0862237456      -28.0767714635  TIP3      11916           0.0000000000
     85581     12317  TIP3      OH2            29.3843733952       -3.2796562202      -36.1149958725  TIP3      11917           0.0000000000
     85582     12317  TIP3      H1             29.8228684630       -2.9819056032      -35.3113674505  TIP3      11917           0.0000000000
     85583     12317  TIP3      H2             28.8040212062       -2.5421889472      -36.3442143338  TIP3      11917           0.0000000000
     85584     12318  TIP3      OH2            23.9154610675       -3.3158825446      -26.2367333905  TIP3      11918           0.0000000000
     85585     12318  TIP3      H1             23.8926538399       -3.4458578484      -27.1898494410  TIP3      11918           0.0000000000
     85586     12318  TIP3      H2             22.9823813708       -3.4402454561      -25.9698785651  TIP3      11918           0.0000000000
     85587     12319  TIP3      OH2            35.3713515331      -18.2698031207      -39.7085119973  TIP3      11919           0.0000000000
     85588     12319  TIP3      H1             34.4246666427      -18.1439788776      -39.4361893215  TIP3      11919           0.0000000000
     85589     12319  TIP3      H2             35.5835688570      -17.4239392563      -40.1271880766  TIP3      11919           0.0000000000
     85590     12320  TIP3      OH2            23.3853334987       -9.4960186712      -37.7307377344  TIP3      11920           0.0000000000
     85591     12320  TIP3      H1             23.1213515337       -8.7173492049      -38.2542706183  TIP3      11920           0.0000000000
     85592     12320  TIP3      H2             22.7337116904      -10.1689083367      -37.9287946433  TIP3      11920           0.0000000000
     85593     12321  TIP3      OH2            36.4936622006       -3.9219573644      -41.3232993697  TIP3      11921           0.0000000000
     85594     12321  TIP3      H1             36.6221859012       -2.9643557241      -41.1940201364  TIP3      11921           0.0000000000
     85595     12321  TIP3      H2             37.4286235992       -4.2036725388      -41.4028959118  TIP3      11921           0.0000000000
     85596     12322  TIP3      OH2            19.4970433623       -7.0901341774      -28.8981556606  TIP3      11922           0.0000000000
     85597     12322  TIP3      H1             18.9974584978       -7.1671778536      -29.7307510487  TIP3      11922           0.0000000000
     85598     12322  TIP3      H2             19.5158964238       -8.0302937414      -28.6291769594  TIP3      11922           0.0000000000
     85599     12323  TIP3      OH2            19.2499528816       -4.3410413454      -32.0493995874  TIP3      11923           0.0000000000
     85600     12323  TIP3      H1             20.1807429553       -4.4985037428      -32.0783250829  TIP3      11923           0.0000000000
     85601     12323  TIP3      H2             19.1182153202       -3.5427875103      -31.5219460586  TIP3      11923           0.0000000000
     85602     12324  TIP3      OH2            37.4726632470       -3.6632017586      -26.3653863524  TIP3      11924           0.0000000000
     85603     12324  TIP3      H1             37.3676473725       -4.6243469524      -26.4080998357  TIP3      11924           0.0000000000
     85604     12324  TIP3      H2             36.6031863186       -3.4006236827      -25.9787669432  TIP3      11924           0.0000000000
     85605     12325  TIP3      OH2            28.4328067671       -4.1113534660      -27.4956872184  TIP3      11925           0.0000000000
     85606     12325  TIP3      H1             28.4982125300       -3.2603166580      -27.0033623958  TIP3      11925           0.0000000000
     85607     12325  TIP3      H2             27.5463358898       -4.4400075915      -27.2528199647  TIP3      11925           0.0000000000
     85608     12326  TIP3      OH2            28.8524544161       -0.3486082667      -37.6911148453  TIP3      11926           0.0000000000
     85609     12326  TIP3      H1             28.7526883284       -0.4427122862      -38.6560955711  TIP3      11926           0.0000000000
     85610     12326  TIP3      H2             28.8634076072        0.6205646509      -37.5587917665  TIP3      11926           0.0000000000
     85611     12327  TIP3      OH2            22.4998000197       -1.5058162411      -35.8903748482  TIP3      11927           0.0000000000
     85612     12327  TIP3      H1             22.6426055407       -1.8992447682      -35.0155772436  TIP3      11927           0.0000000000
     85613     12327  TIP3      H2             21.6464634823       -1.8928227787      -36.1496374498  TIP3      11927           0.0000000000
     85614     12328  TIP3      OH2            31.9696119493       -1.1397842993      -40.6920866265  TIP3      11928           0.0000000000
     85615     12328  TIP3      H1             32.3183497557       -1.9280261017      -41.1778475497  TIP3      11928           0.0000000000
     85616     12328  TIP3      H2             31.8726102831       -1.4881802405      -39.8075900892  TIP3      11928           0.0000000000
     85617     12329  TIP3      OH2            31.3720595535       -1.3474635512      -37.8610167604  TIP3      11929           0.0000000000
     85618     12329  TIP3      H1             30.4277387962       -1.1734288476      -37.6338688490  TIP3      11929           0.0000000000
     85619     12329  TIP3      H2             31.7500316443       -2.0182572091      -37.2569800484  TIP3      11929           0.0000000000
     85620     12330  TIP3      OH2            34.6111288963      -12.1812174243      -25.8969889453  TIP3      11930           0.0000000000
     85621     12330  TIP3      H1             34.1669316520      -11.7101094437      -26.6176387340  TIP3      11930           0.0000000000
     85622     12330  TIP3      H2             34.6233108933      -13.0970881879      -26.2051735564  TIP3      11930           0.0000000000
     85623     12331  TIP3      OH2            21.7460819593       -5.7727456602      -27.9101160582  TIP3      11931           0.0000000000
     85624     12331  TIP3      H1             21.9678603157       -6.1508153381      -27.0235624430  TIP3      11931           0.0000000000
     85625     12331  TIP3      H2             20.8773843817       -6.1819141426      -28.0992319015  TIP3      11931           0.0000000000
     85626     12332  TIP3      OH2            24.4039886682      -17.3220354838      -31.9143913045  TIP3      11932           0.0000000000
     85627     12332  TIP3      H1             23.5044319279      -17.4139305444      -32.3052314930  TIP3      11932           0.0000000000
     85628     12332  TIP3      H2             24.3211489110      -16.4667278122      -31.4656478327  TIP3      11932           0.0000000000
     85629     12333  TIP3      OH2            29.0492260534      -17.6079438464      -28.5423484184  TIP3      11933           0.0000000000
     85630     12333  TIP3      H1             29.4606026997      -18.0374768143      -27.7720535859  TIP3      11933           0.0000000000
     85631     12333  TIP3      H2             28.0858000785      -17.7744978625      -28.4201468581  TIP3      11933           0.0000000000
     85632     12334  TIP3      OH2            32.3636403506      -13.8238201751      -27.6773741834  TIP3      11934           0.0000000000
     85633     12334  TIP3      H1             31.8199972525      -13.9902092422      -26.8717119505  TIP3      11934           0.0000000000
     85634     12334  TIP3      H2             32.1911865213      -12.9014763403      -27.9160759637  TIP3      11934           0.0000000000
     85635     12335  TIP3      OH2            33.1740635006       -8.9286946745      -41.8324129195  TIP3      11935           0.0000000000
     85636     12335  TIP3      H1             33.1900291187       -9.1696729987      -42.7807409306  TIP3      11935           0.0000000000
     85637     12335  TIP3      H2             34.0349518619       -8.5393153119      -41.6880581748  TIP3      11935           0.0000000000
     85638     12336  TIP3      OH2            28.7075700731      -15.0835789078      -41.2448942367  TIP3      11936           0.0000000000
     85639     12336  TIP3      H1             28.4190230938      -15.1031286149      -40.3113698669  TIP3      11936           0.0000000000
     85640     12336  TIP3      H2             28.4353597728      -15.9664650403      -41.5250675363  TIP3      11936           0.0000000000
     85641     12337  TIP3      OH2            24.4960503561      -12.3572695811      -30.7563566570  TIP3      11937           0.0000000000
     85642     12337  TIP3      H1             23.8009463893      -12.3776496181      -30.0741520529  TIP3      11937           0.0000000000
     85643     12337  TIP3      H2             24.4876892478      -11.4197512286      -31.0510356488  TIP3      11937           0.0000000000
     85644     12338  TIP3      OH2            24.4730712263      -12.1585195675      -35.8542644270  TIP3      11938           0.0000000000
     85645     12338  TIP3      H1             23.5516832442      -12.4745709920      -35.9589022503  TIP3      11938           0.0000000000
     85646     12338  TIP3      H2             24.8883941824      -12.5128408381      -36.6636414664  TIP3      11938           0.0000000000
     85647     12339  TIP3      OH2            29.9948473668      -11.7249415518      -37.0671857310  TIP3      11939           0.0000000000
     85648     12339  TIP3      H1             29.5872403452      -10.8898643726      -37.3808149973  TIP3      11939           0.0000000000
     85649     12339  TIP3      H2             30.7092119163      -11.8624641996      -37.7153640273  TIP3      11939           0.0000000000
     85650     12340  TIP3      OH2            29.0870827142      -11.5009770281      -25.6007790590  TIP3      11940           0.0000000000
     85651     12340  TIP3      H1             28.5316074598      -12.2585480683      -25.2850554288  TIP3      11940           0.0000000000
     85652     12340  TIP3      H2             29.9151592967      -11.6611876004      -25.1243926123  TIP3      11940           0.0000000000
     85653     12341  TIP3      OH2            31.0157033909      -12.2491124703      -34.2264951155  TIP3      11941           0.0000000000
     85654     12341  TIP3      H1             30.7846223647      -11.6692432083      -34.9720917425  TIP3      11941           0.0000000000
     85655     12341  TIP3      H2             31.1619529684      -13.0963063359      -34.6958041494  TIP3      11941           0.0000000000
     85656     12342  TIP3      OH2            22.1838738838      -12.0581516645      -28.9613807868  TIP3      11942           0.0000000000
     85657     12342  TIP3      H1             22.1931090213      -11.6391794035      -28.0820917961  TIP3      11942           0.0000000000
     85658     12342  TIP3      H2             21.7086483135      -12.8801408394      -28.8241167845  TIP3      11942           0.0000000000
     85659     12343  TIP3      OH2            25.6860984753      -14.4439779997      -41.8854906663  TIP3      11943           0.0000000000
     85660     12343  TIP3      H1             25.1719426771      -15.0937670503      -41.3547111351  TIP3      11943           0.0000000000
     85661     12343  TIP3      H2             25.0134679064      -14.1875213147      -42.5093128135  TIP3      11943           0.0000000000
     85662     12344  TIP3      OH2            18.7900655736      -14.9533925841      -35.0485138350  TIP3      11944           0.0000000000
     85663     12344  TIP3      H1             19.4772411445      -14.9640319069      -34.3519020575  TIP3      11944           0.0000000000
     85664     12344  TIP3      H2             19.2670262923      -15.3419050397      -35.8137633083  TIP3      11944           0.0000000000
     85665     12345  TIP3      OH2            20.0975193613      -14.2212321188      -39.6507048009  TIP3      11945           0.0000000000
     85666     12345  TIP3      H1             20.5702374473      -13.6070367276      -40.2495320391  TIP3      11945           0.0000000000
     85667     12345  TIP3      H2             19.3857353632      -13.6313632648      -39.3245471714  TIP3      11945           0.0000000000
     85668     12346  TIP3      OH2            30.2527090735      -10.6262165073      -29.6131564219  TIP3      11946           0.0000000000
     85669     12346  TIP3      H1             30.5984779275      -11.2931498115      -30.2355336167  TIP3      11946           0.0000000000
     85670     12346  TIP3      H2             29.8029603514      -11.1721033595      -28.9435177788  TIP3      11946           0.0000000000
     85671     12347  TIP3      OH2            27.0431175428      -14.6901478683      -34.8164965729  TIP3      11947           0.0000000000
     85672     12347  TIP3      H1             26.1108079041      -14.6540270201      -34.5144855411  TIP3      11947           0.0000000000
     85673     12347  TIP3      H2             27.5373578725      -14.7897037109      -33.9890844790  TIP3      11947           0.0000000000
     85674     12348  TIP3      OH2            21.8648492696      -13.0901026797      -35.9593113833  TIP3      11948           0.0000000000
     85675     12348  TIP3      H1             20.9670029746      -12.9732374266      -36.3280327634  TIP3      11948           0.0000000000
     85676     12348  TIP3      H2             22.1543474540      -13.9341462939      -36.3393370616  TIP3      11948           0.0000000000
     85677     12349  TIP3      OH2            25.5043535101      -13.0681885641      -38.3154825828  TIP3      11949           0.0000000000
     85678     12349  TIP3      H1             26.4579621038      -12.9508919136      -38.1416060655  TIP3      11949           0.0000000000
     85679     12349  TIP3      H2             25.2829083270      -12.4007494718      -38.9869340528  TIP3      11949           0.0000000000
     85680     12350  TIP3      OH2            31.4543704532      -15.4546525102      -31.5581476408  TIP3      11950           0.0000000000
     85681     12350  TIP3      H1             30.7585070329      -15.3549179678      -30.8727521548  TIP3      11950           0.0000000000
     85682     12350  TIP3      H2             30.9469652732      -15.6477064112      -32.3577947644  TIP3      11950           0.0000000000
     85683     12351  TIP3      OH2            24.1810147258      -11.8819647502      -40.7388731857  TIP3      11951           0.0000000000
     85684     12351  TIP3      H1             23.6443655279      -12.2576643153      -41.4486849868  TIP3      11951           0.0000000000
     85685     12351  TIP3      H2             25.0234666340      -11.6818079922      -41.1814093217  TIP3      11951           0.0000000000
     85686     12352  TIP3      OH2            34.6835954126        0.2019750578      -25.2421486124  TIP3      11952           0.0000000000
     85687     12352  TIP3      H1             34.9323047409        0.6152377151      -26.0938887174  TIP3      11952           0.0000000000
     85688     12352  TIP3      H2             35.3871225615        0.5399746255      -24.6569448611  TIP3      11952           0.0000000000
     85689     12353  TIP3      OH2            22.3356302198       -7.3211828573      -25.6857593790  TIP3      11953           0.0000000000
     85690     12353  TIP3      H1             23.0490327073       -7.0693240147      -25.0718377648  TIP3      11953           0.0000000000
     85691     12353  TIP3      H2             21.5484260124       -7.1598799588      -25.1069349727  TIP3      11953           0.0000000000
     85692     12354  TIP3      OH2            28.3394753782      -11.9119398180      -32.9199336330  TIP3      11954           0.0000000000
     85693     12354  TIP3      H1             28.9225189069      -12.4589913378      -33.4620149744  TIP3      11954           0.0000000000
     85694     12354  TIP3      H2             28.1991938023      -12.4500207766      -32.1300698677  TIP3      11954           0.0000000000
     85695     12355  TIP3      OH2            23.3478565978      -15.7656254052      -36.4893119967  TIP3      11955           0.0000000000
     85696     12355  TIP3      H1             23.0393685158      -16.6903140738      -36.5233880941  TIP3      11955           0.0000000000
     85697     12355  TIP3      H2             24.1356744685      -15.8003449143      -37.0467287894  TIP3      11955           0.0000000000
     85698     12356  TIP3      OH2            26.9772407330      -13.5603665889      -30.5104353319  TIP3      11956           0.0000000000
     85699     12356  TIP3      H1             26.1408070948      -13.0676487805      -30.4010606741  TIP3      11956           0.0000000000
     85700     12356  TIP3      H2             27.5148832397      -13.2407236837      -29.7584839669  TIP3      11956           0.0000000000
     85701     12357  TIP3      OH2            27.5483858269       -7.3314481729      -38.8135659460  TIP3      11957           0.0000000000
     85702     12357  TIP3      H1             26.7659926952       -7.8303566502      -39.1366041908  TIP3      11957           0.0000000000
     85703     12357  TIP3      H2             27.3662980695       -7.2658963370      -37.8560345619  TIP3      11957           0.0000000000
     85704     12358  TIP3      OH2            34.7041848266       -8.1801702377      -30.0114381080  TIP3      11958           0.0000000000
     85705     12358  TIP3      H1             35.3089862509       -7.7067374917      -30.6067053280  TIP3      11958           0.0000000000
     85706     12358  TIP3      H2             33.8558694943       -8.0817669676      -30.4939135084  TIP3      11958           0.0000000000
     85707     12359  TIP3      OH2            31.4262899695      -14.5403172657      -40.6238513351  TIP3      11959           0.0000000000
     85708     12359  TIP3      H1             30.4772603584      -14.3955706901      -40.7794018404  TIP3      11959           0.0000000000
     85709     12359  TIP3      H2             31.7181898452      -13.6611550203      -40.3107762677  TIP3      11959           0.0000000000
     85710     12360  TIP3      OH2            29.0539501168       -7.1209254376      -27.5736839415  TIP3      11960           0.0000000000
     85711     12360  TIP3      H1             28.6974120104       -7.5190177508      -26.7726546699  TIP3      11960           0.0000000000
     85712     12360  TIP3      H2             28.8225473859       -6.1887293666      -27.5009038185  TIP3      11960           0.0000000000
     85713     12361  TIP3      OH2            32.1311202039      -12.6321335039      -38.9572881571  TIP3      11961           0.0000000000
     85714     12361  TIP3      H1             33.0358078284      -12.7677717491      -38.6229237435  TIP3      11961           0.0000000000
     85715     12361  TIP3      H2             32.2037366263      -11.8308514778      -39.4951941674  TIP3      11961           0.0000000000
     85716     12362  TIP3      OH2            22.6570210851       -7.9825215784      -33.0212748371  TIP3      11962           0.0000000000
     85717     12362  TIP3      H1             23.3790056108       -8.0443225348      -33.6812039343  TIP3      11962           0.0000000000
     85718     12362  TIP3      H2             22.7274087513       -8.8461123089      -32.5675851754  TIP3      11962           0.0000000000
     85719     12363  TIP3      OH2            29.6666426898       -5.8709468508      -39.7836563622  TIP3      11963           0.0000000000
     85720     12363  TIP3      H1             29.3251088086       -5.0387781981      -39.4098851099  TIP3      11963           0.0000000000
     85721     12363  TIP3      H2             28.9309289080       -6.4871002613      -39.5843010891  TIP3      11963           0.0000000000
     85722     12364  TIP3      OH2            19.6519752920       -9.5493790669      -27.7409119984  TIP3      11964           0.0000000000
     85723     12364  TIP3      H1             19.8649104226       -9.9930330409      -26.8986743068  TIP3      11964           0.0000000000
     85724     12364  TIP3      H2             19.0453977288      -10.1793380715      -28.1682476589  TIP3      11964           0.0000000000
     85725     12365  TIP3      OH2            26.6706229635      -10.0112997517      -25.5373048680  TIP3      11965           0.0000000000
     85726     12365  TIP3      H1             26.3729583269      -10.2432916000      -26.4264031555  TIP3      11965           0.0000000000
     85727     12365  TIP3      H2             27.6069167683      -10.2924197097      -25.5475444178  TIP3      11965           0.0000000000
     85728     12366  TIP3      OH2            31.3258557336       -4.6833965973      -27.6275270037  TIP3      11966           0.0000000000
     85729     12366  TIP3      H1             30.4048166466       -4.4843688958      -27.8800135361  TIP3      11966           0.0000000000
     85730     12366  TIP3      H2             31.3210796839       -4.3869616235      -26.7039905202  TIP3      11966           0.0000000000
     85731     12367  TIP3      OH2            37.0412404275      -12.4689633934      -39.2336209038  TIP3      11967           0.0000000000
     85732     12367  TIP3      H1             36.4583194577      -12.7960337678      -39.9475252402  TIP3      11967           0.0000000000
     85733     12367  TIP3      H2             37.1083633446      -11.5259163576      -39.5276339738  TIP3      11967           0.0000000000
     85734     12368  TIP3      OH2            37.0052049586       -6.6114900790      -26.4074510628  TIP3      11968           0.0000000000
     85735     12368  TIP3      H1             36.1273549191       -6.4002817350      -26.8113104202  TIP3      11968           0.0000000000
     85736     12368  TIP3      H2             37.5730204648       -6.6611711447      -27.2025605258  TIP3      11968           0.0000000000
     85737     12369  TIP3      OH2            35.2842272786       -3.6256775056      -38.8186354039  TIP3      11969           0.0000000000
     85738     12369  TIP3      H1             34.9588052089       -4.4796403496      -38.4910653739  TIP3      11969           0.0000000000
     85739     12369  TIP3      H2             35.6194216704       -3.8395484905      -39.7129173887  TIP3      11969           0.0000000000
     85740     12370  TIP3      OH2            32.5016104525       -8.8278388877      -31.7519210315  TIP3      11970           0.0000000000
     85741     12370  TIP3      H1             31.5586394316       -9.0630212736      -31.8193089859  TIP3      11970           0.0000000000
     85742     12370  TIP3      H2             32.9374117088       -9.6124795107      -32.1303944414  TIP3      11970           0.0000000000
     85743     12371  TIP3      OH2            25.0213408733       -4.5052779374      -35.6133871337  TIP3      11971           0.0000000000
     85744     12371  TIP3      H1             25.5480465366       -3.7221325140      -35.8487799341  TIP3      11971           0.0000000000
     85745     12371  TIP3      H2             24.1522431292       -4.2770344285      -35.9660465870  TIP3      11971           0.0000000000
     85746     12372  TIP3      OH2            20.7751278721       -9.6413051962      -41.0538638776  TIP3      11972           0.0000000000
     85747     12372  TIP3      H1             21.4448883834       -9.0397358090      -40.7109649057  TIP3      11972           0.0000000000
     85748     12372  TIP3      H2             19.8812008418       -9.3745791390      -40.8130211519  TIP3      11972           0.0000000000
     85749     12373  TIP3      OH2            26.4664642967       -6.8486086749      -36.0849274604  TIP3      11973           0.0000000000
     85750     12373  TIP3      H1             26.1826961736       -5.9173805347      -36.0193408985  TIP3      11973           0.0000000000
     85751     12373  TIP3      H2             25.7132763788       -7.3127977795      -35.6667760788  TIP3      11973           0.0000000000
     85752     12374  TIP3      OH2            26.9180010801       -2.6796442846      -29.7363522962  TIP3      11974           0.0000000000
     85753     12374  TIP3      H1             27.3479952477       -1.8424081619      -29.9850436570  TIP3      11974           0.0000000000
     85754     12374  TIP3      H2             27.5100173067       -2.9890325281      -29.0195179579  TIP3      11974           0.0000000000
     85755     12375  TIP3      OH2            25.1388174689       -1.8389333554      -36.5442744038  TIP3      11975           0.0000000000
     85756     12375  TIP3      H1             24.1710771339       -1.7051007031      -36.4658339255  TIP3      11975           0.0000000000
     85757     12375  TIP3      H2             25.4880213799       -0.9988443756      -36.1920828935  TIP3      11975           0.0000000000
     85758     12376  TIP3      OH2            30.4823337258       -6.6169229224      -30.0666018738  TIP3      11976           0.0000000000
     85759     12376  TIP3      H1             30.0887753913       -6.8361675255      -29.2013467284  TIP3      11976           0.0000000000
     85760     12376  TIP3      H2             31.0892299216       -7.3512910790      -30.2407978447  TIP3      11976           0.0000000000
     85761     12377  TIP3      OH2            32.7211639955       -5.6273608454      -40.9703934167  TIP3      11977           0.0000000000
     85762     12377  TIP3      H1             33.0469411665       -6.0675580400      -40.1594717881  TIP3      11977           0.0000000000
     85763     12377  TIP3      H2             31.7630896507       -5.7786567695      -40.8904428630  TIP3      11977           0.0000000000
     85764     12378  TIP3      OH2            33.2042342418       -2.0595423791      -27.5704760655  TIP3      11978           0.0000000000
     85765     12378  TIP3      H1             32.5605792079       -2.5865529300      -28.0831258480  TIP3      11978           0.0000000000
     85766     12378  TIP3      H2             33.4398051924       -1.3738116118      -28.2309453080  TIP3      11978           0.0000000000
     85767     12379  TIP3      OH2            37.2180277983       -1.2024767438      -40.7469105298  TIP3      11979           0.0000000000
     85768     12379  TIP3      H1             37.9554782281       -0.5897977158      -40.9459331121  TIP3      11979           0.0000000000
     85769     12379  TIP3      H2             36.5213363819       -0.5940850591      -40.4491473695  TIP3      11979           0.0000000000
     85770     12380  TIP3      OH2            21.2924084097      -14.8143057486      -28.1660969029  TIP3      11980           0.0000000000
     85771     12380  TIP3      H1             20.3943417738      -14.4541660619      -28.2564338836  TIP3      11980           0.0000000000
     85772     12380  TIP3      H2             21.2173376903      -15.6788698238      -27.7765770957  TIP3      11980           0.0000000000
     85773     12381  TIP3      OH2            33.5630908052       -6.9700257395      -38.7604538396  TIP3      11981           0.0000000000
     85774     12381  TIP3      H1             33.3072717209       -7.7415155455      -38.2059128859  TIP3      11981           0.0000000000
     85775     12381  TIP3      H2             34.5062273575       -6.8863401951      -38.5398952965  TIP3      11981           0.0000000000
     85776     12382  TIP3      OH2            20.9711195498       -3.0178302230      -29.7765687002  TIP3      11982           0.0000000000
     85777     12382  TIP3      H1             21.1512241824       -3.9684634220      -29.7099254100  TIP3      11982           0.0000000000
     85778     12382  TIP3      H2             21.1705595305       -2.7340922885      -28.8622267573  TIP3      11982           0.0000000000
     85779     12383  TIP3      OH2            25.7161675233       -4.9749482700      -40.0776480125  TIP3      11983           0.0000000000
     85780     12383  TIP3      H1             25.9049157920       -5.5082903509      -39.2956578753  TIP3      11983           0.0000000000
     85781     12383  TIP3      H2             25.7376867242       -4.0570808519      -39.7508299183  TIP3      11983           0.0000000000
     85782     12384  TIP3      OH2            22.3015546998       -7.7175015420      -39.5570443528  TIP3      11984           0.0000000000
     85783     12384  TIP3      H1             21.6587136618       -7.3135815633      -38.9595801468  TIP3      11984           0.0000000000
     85784     12384  TIP3      H2             22.7939825912       -6.9216809436      -39.8371255530  TIP3      11984           0.0000000000
     85785     12385  TIP3      OH2            30.0259954584      -15.0557104883      -29.2755109994  TIP3      11985           0.0000000000
     85786     12385  TIP3      H1             30.7365586740      -14.9952485392      -28.6235322893  TIP3      11985           0.0000000000
     85787     12385  TIP3      H2             29.6471957835      -15.9381927784      -29.0943721946  TIP3      11985           0.0000000000
     85788     12386  TIP3      OH2            30.7913838973      -15.4431272384      -38.1640693551  TIP3      11986           0.0000000000
     85789     12386  TIP3      H1             31.0332141988      -14.9640382551      -38.9861986907  TIP3      11986           0.0000000000
     85790     12386  TIP3      H2             31.3711561827      -15.0261057711      -37.5185802229  TIP3      11986           0.0000000000
     85791     12387  TIP3      OH2            28.4856079455       -3.2944014198      -39.3206836587  TIP3      11987           0.0000000000
     85792     12387  TIP3      H1             27.6542927058       -2.7898282241      -39.2759577533  TIP3      11987           0.0000000000
     85793     12387  TIP3      H2             29.0035361361       -2.8017077843      -39.9729030353  TIP3      11987           0.0000000000
     85794     12388  TIP3      OH2            28.0056672916      -13.7055019030      -37.3492112149  TIP3      11988           0.0000000000
     85795     12388  TIP3      H1             28.8172360091      -13.1646645318      -37.3113429442  TIP3      11988           0.0000000000
     85796     12388  TIP3      H2             27.7571544060      -13.8399322423      -36.4214856101  TIP3      11988           0.0000000000
     85797     12389  TIP3      OH2            28.5596086088      -12.6972727986      -28.1706271587  TIP3      11989           0.0000000000
     85798     12389  TIP3      H1             28.6517718619      -12.1342092209      -27.3800679210  TIP3      11989           0.0000000000
     85799     12389  TIP3      H2             29.2120954993      -13.3984713873      -28.0530629084  TIP3      11989           0.0000000000
     85800     12390  TIP3      OH2            28.8800925112      -16.6438406988      -36.4280231003  TIP3      11990           0.0000000000
     85801     12390  TIP3      H1             28.5481639130      -15.9949573029      -35.7830649763  TIP3      11990           0.0000000000
     85802     12390  TIP3      H2             29.5591316937      -16.1013197115      -36.8991896432  TIP3      11990           0.0000000000
     85803     12391  TIP3      OH2            25.8082570188       -2.2660257703      -39.3395418843  TIP3      11991           0.0000000000
     85804     12391  TIP3      H1             25.9885080308       -1.4397855416      -39.8344011146  TIP3      11991           0.0000000000
     85805     12391  TIP3      H2             25.6174972962       -1.9286047093      -38.4400143774  TIP3      11991           0.0000000000
     85806     12392  TIP3      OH2            24.5444382193      -15.5603665975      -39.7485245446  TIP3      11992           0.0000000000
     85807     12392  TIP3      H1             24.4706582729      -14.6572415202      -39.3664707335  TIP3      11992           0.0000000000
     85808     12392  TIP3      H2             25.4460108880      -15.8043922864      -39.4658878277  TIP3      11992           0.0000000000
     85809     12393  TIP3      OH2            34.7640411598      -14.8155376565      -27.3052215913  TIP3      11993           0.0000000000
     85810     12393  TIP3      H1             33.8236698387      -14.5270262145      -27.4284776152  TIP3      11993           0.0000000000
     85811     12393  TIP3      H2             35.0667478760      -14.8163804644      -28.2293340153  TIP3      11993           0.0000000000
     85812     12394  TIP3      OH2            33.3529366092      -11.0378845189      -33.2603437362  TIP3      11994           0.0000000000
     85813     12394  TIP3      H1             32.5403935552      -11.4745926849      -33.5673486475  TIP3      11994           0.0000000000
     85814     12394  TIP3      H2             33.8126318166      -11.7406785820      -32.7488843010  TIP3      11994           0.0000000000
     85815     12395  TIP3      OH2            22.7786714954       -5.1347647553      -40.6654259361  TIP3      11995           0.0000000000
     85816     12395  TIP3      H1             23.4053250502       -4.4436690837      -40.3946428914  TIP3      11995           0.0000000000
     85817     12395  TIP3      H2             23.2871508657       -5.5585483843      -41.3892186636  TIP3      11995           0.0000000000
     85818     12396  TIP3      OH2            21.1455156698      -12.4527560322      -41.5403408295  TIP3      11996           0.0000000000
     85819     12396  TIP3      H1             21.0936701589      -11.4990650900      -41.3758841170  TIP3      11996           0.0000000000
     85820     12396  TIP3      H2             20.2496016959      -12.6787400346      -41.8314019169  TIP3      11996           0.0000000000
     85821     12397  TIP3      OH2            34.4227950920       -1.7992664222      -31.6101939920  TIP3      11997           0.0000000000
     85822     12397  TIP3      H1             34.3047225229       -1.1054864937      -32.2890410876  TIP3      11997           0.0000000000
     85823     12397  TIP3      H2             35.3835113592       -1.7203247796      -31.4259651057  TIP3      11997           0.0000000000
     85824     12398  TIP3      OH2            21.9319591871      -17.6614782562      -32.8480014286  TIP3      11998           0.0000000000
     85825     12398  TIP3      H1             21.7047557022      -17.6267488318      -33.8033422495  TIP3      11998           0.0000000000
     85826     12398  TIP3      H2             21.4906157084      -18.4886232699      -32.5703296579  TIP3      11998           0.0000000000
     85827     12399  TIP3      OH2            20.8713254901       -3.7506335419      -36.6967244236  TIP3      11999           0.0000000000
     85828     12399  TIP3      H1             20.0293193023       -3.2628717378      -36.7036932086  TIP3      11999           0.0000000000
     85829     12399  TIP3      H2             21.3853690583       -3.2349964074      -37.3384621326  TIP3      11999           0.0000000000
     85830     12400  TIP3      OH2            20.1316258664       -1.1194791208      -25.4082465665  TIP3      12000           0.0000000000
     85831     12400  TIP3      H1             20.6930977321       -1.3185429681      -24.6262130995  TIP3      12000           0.0000000000
     85832     12400  TIP3      H2             19.6617591702       -1.9477859614      -25.5701532820  TIP3      12000           0.0000000000
     85833     12401  TIP3      OH2            24.7415396926       -2.1909359116      -23.7696311224  TIP3      12001           0.0000000000
     85834     12401  TIP3      H1             25.5163039006       -2.6621591610      -23.4384537651  TIP3      12001           0.0000000000
     85835     12401  TIP3      H2             24.7269624339       -2.4426721794      -24.7097648175  TIP3      12001           0.0000000000
     85836     12402  TIP3      OH2            29.1798127249       -2.5430287432      -41.8930300086  TIP3      12002           0.0000000000
     85837     12402  TIP3      H1             28.3748908321       -3.1252619520      -41.9638049204  TIP3      12002           0.0000000000
     85838     12402  TIP3      H2             29.6327276489       -3.1080217253      -42.5265150730  TIP3      12002           0.0000000000
     85839     12403  TIP3      OH2            31.2937714906       -3.8095082039      -25.0243228396  TIP3      12003           0.0000000000
     85840     12403  TIP3      H1             30.9800282159       -4.6861414212      -24.8043391952  TIP3      12003           0.0000000000
     85841     12403  TIP3      H2             32.0644661119       -3.6601615671      -24.4493829818  TIP3      12003           0.0000000000
     85842     12404  TIP3      OH2            33.4486918511       -2.8630362862      -42.1468355398  TIP3      12004           0.0000000000
     85843     12404  TIP3      H1             33.7272917275       -3.6942759145      -41.7126092278  TIP3      12004           0.0000000000
     85844     12404  TIP3      H2             34.2017855452       -2.6618752813      -42.7256935238  TIP3      12004           0.0000000000
     85845     12405  TIP3      OH2            20.0425926638       -7.3115834632      -24.4148767185  TIP3      12005           0.0000000000
     85846     12405  TIP3      H1             20.1851531590       -8.2239679100      -24.7185038365  TIP3      12005           0.0000000000
     85847     12405  TIP3      H2             19.2749034359       -7.0325827453      -24.9415270109  TIP3      12005           0.0000000000
     85848     12406  TIP3      OH2            24.4094538678       -6.9223029032      -42.2570406052  TIP3      12006           0.0000000000
     85849     12406  TIP3      H1             24.4824870445       -7.7547923368      -41.7797169032  TIP3      12006           0.0000000000
     85850     12406  TIP3      H2             25.0278673801       -7.1077561523      -42.9944821392  TIP3      12006           0.0000000000
     85851     12407  TIP3      OH2            26.7463552683       -7.3275904031      -24.9968939870  TIP3      12007           0.0000000000
     85852     12407  TIP3      H1             26.3719973872       -7.0508586548      -25.8565040059  TIP3      12007           0.0000000000
     85853     12407  TIP3      H2             26.8218482774       -8.3040159599      -25.0938047174  TIP3      12007           0.0000000000
     85854     12408  TIP3      OH2            32.4298274247       -7.4494228657      -27.5997180953  TIP3      12008           0.0000000000
     85855     12408  TIP3      H1             33.2002492334       -6.8492555259      -27.7253701986  TIP3      12008           0.0000000000
     85856     12408  TIP3      H2             31.6951330747       -6.8225431965      -27.5745431216  TIP3      12008           0.0000000000
     85857     12409  TIP3      OH2            20.9084511929      -10.0964281062      -25.0191655946  TIP3      12009           0.0000000000
     85858     12409  TIP3      H1             21.3097279704      -10.9634336236      -25.1163087935  TIP3      12009           0.0000000000
     85859     12409  TIP3      H2             20.6254153789      -10.1027282453      -24.0975775299  TIP3      12009           0.0000000000
     85860     12410  TIP3      OH2            25.5385276066       -8.9559551982      -39.9815540205  TIP3      12010           0.0000000000
     85861     12410  TIP3      H1             25.0849399145       -9.4851898771      -39.3095992039  TIP3      12010           0.0000000000
     85862     12410  TIP3      H2             25.8317840641       -9.6562984629      -40.6153356584  TIP3      12010           0.0000000000
     85863     12411  TIP3      OH2            24.8282606251      -11.1253865942      -27.6403544051  TIP3      12011           0.0000000000
     85864     12411  TIP3      H1             24.2138579283      -10.4211649292      -27.3701233249  TIP3      12011           0.0000000000
     85865     12411  TIP3      H2             25.1890765763      -10.7735475542      -28.4717008119  TIP3      12011           0.0000000000
     85866     12412  TIP3      OH2            26.6083827566      -10.7474007823      -41.7386162881  TIP3      12012           0.0000000000
     85867     12412  TIP3      H1             26.4687756036      -10.9067790891      -42.6754238786  TIP3      12012           0.0000000000
     85868     12412  TIP3      H2             27.5873916115      -10.6456400998      -41.6664880421  TIP3      12012           0.0000000000
     85869     12413  TIP3      OH2            29.8808708713       -8.5683990905      -24.3002534567  TIP3      12013           0.0000000000
     85870     12413  TIP3      H1             30.8338226241       -8.5871355397      -24.4323693864  TIP3      12013           0.0000000000
     85871     12413  TIP3      H2             29.6929487471       -9.3551606304      -23.7566728916  TIP3      12013           0.0000000000
     85872     12414  TIP3      OH2            35.8787672670       -8.3262933705       42.7705569097  TIP3      12014           0.0000000000
     85873     12414  TIP3      H1             35.7365675634       -8.8056818339       41.9365640070  TIP3      12014           0.0000000000
     85874     12414  TIP3      H2             36.0487467590       -7.4176956734       42.5012964644  TIP3      12014           0.0000000000
     85875     12415  TIP3      OH2            25.2007733977      -13.7642378723      -26.5534258422  TIP3      12015           0.0000000000
     85876     12415  TIP3      H1             25.3289904482      -14.4737600840      -27.1995904932  TIP3      12015           0.0000000000
     85877     12415  TIP3      H2             25.1716560603      -12.9597009358      -27.1203141605  TIP3      12015           0.0000000000
     85878     12416  TIP3      OH2            25.6051483026      -15.3870116563      -29.0367448274  TIP3      12016           0.0000000000
     85879     12416  TIP3      H1             26.1282896796      -14.9231952416      -29.7335264050  TIP3      12016           0.0000000000
     85880     12416  TIP3      H2             24.7255990940      -15.4774409734      -29.4730507842  TIP3      12016           0.0000000000
     85881     12417  TIP3      OH2            27.1656596237       -9.9280506464      -28.8071975291  TIP3      12017           0.0000000000
     85882     12417  TIP3      H1             27.9191444299      -10.0830853135      -29.3894421432  TIP3      12017           0.0000000000
     85883     12417  TIP3      H2             26.8188312863       -9.0747197390      -29.1127797950  TIP3      12017           0.0000000000
     85884     12418  TIP3      OH2            31.5584558620      -12.1316733108      -23.8211009984  TIP3      12018           0.0000000000
     85885     12418  TIP3      H1             31.7839440839      -13.0679282100      -23.8959809151  TIP3      12018           0.0000000000
     85886     12418  TIP3      H2             32.4346508037      -11.7001484277      -23.8022342055  TIP3      12018           0.0000000000
     85887     12419  TIP3      OH2            32.8823855860       -9.3462077531      -25.6944275994  TIP3      12019           0.0000000000
     85888     12419  TIP3      H1             32.6405739484       -8.6209152516      -26.3111507009  TIP3      12019           0.0000000000
     85889     12419  TIP3      H2             33.8468165564       -9.3988452398      -25.8792530775  TIP3      12019           0.0000000000
     85890     12420  TIP3      OH2            23.6624310249      -12.5448860192      -24.6481872780  TIP3      12020           0.0000000000
     85891     12420  TIP3      H1             22.8853272382      -13.0845716707      -24.8596777545  TIP3      12020           0.0000000000
     85892     12420  TIP3      H2             24.3371536469      -12.8620880668      -25.2705848674  TIP3      12020           0.0000000000
     85893     12421  TIP3      OH2            26.3941656193      -17.9404256016      -28.6074865234  TIP3      12021           0.0000000000
     85894     12421  TIP3      H1             26.2704664548      -16.9709291829      -28.7521044393  TIP3      12021           0.0000000000
     85895     12421  TIP3      H2             25.6522854546      -18.2961647688      -29.1357675762  TIP3      12021           0.0000000000
     85896     12422  TIP3      OH2            27.6789334412      -13.6257901355      -25.0501630682  TIP3      12022           0.0000000000
     85897     12422  TIP3      H1             27.3991258533      -13.8147984625      -24.1403219119  TIP3      12022           0.0000000000
     85898     12422  TIP3      H2             26.8745810301      -13.7996657049      -25.5779755124  TIP3      12022           0.0000000000
     85899     12423  TIP3      OH2            30.3929407275      -14.4753425919      -25.9877491589  TIP3      12023           0.0000000000
     85900     12423  TIP3      H1             29.4298199653      -14.4308634510      -25.8516890550  TIP3      12023           0.0000000000
     85901     12423  TIP3      H2             30.6817468795      -15.1092115543      -25.3112090343  TIP3      12023           0.0000000000
     85902     12424  TIP3      OH2            32.0040158017      -15.8436927743      -24.0120977705  TIP3      12024           0.0000000000
     85903     12424  TIP3      H1             31.9075821936      -16.8173871667      -24.0041315969  TIP3      12024           0.0000000000
     85904     12424  TIP3      H2             31.6951589952      -15.5684354279      -23.1204115338  TIP3      12024           0.0000000000
     85905     12425  TIP3      OH2            21.7698692152      -14.6258103681      -24.9552809112  TIP3      12025           0.0000000000
     85906     12425  TIP3      H1             22.0702172555      -15.3272056739      -25.5447387340  TIP3      12025           0.0000000000
     85907     12425  TIP3      H2             21.7199703134      -15.0406533715      -24.0644310085  TIP3      12025           0.0000000000
     85908     12426  TIP3      OH2            26.6045043711      -18.5778611419      -25.9127129693  TIP3      12026           0.0000000000
     85909     12426  TIP3      H1             27.3232934950      -19.2649770402      -25.9864258756  TIP3      12026           0.0000000000
     85910     12426  TIP3      H2             26.5221334778      -18.3839271655      -26.8834212996  TIP3      12026           0.0000000000
     85911     12427  TIP3      OH2            27.2549676504      -16.7038005002      -24.0072487674  TIP3      12027           0.0000000000
     85912     12427  TIP3      H1             27.0076940707      -17.3327279831      -24.7213027234  TIP3      12027           0.0000000000
     85913     12427  TIP3      H2             26.4804497575      -16.1142713334      -23.9480235319  TIP3      12027           0.0000000000
     85914     12428  TIP3      OH2            26.4844204587       -0.0540516417      -40.7338401962  TIP3      12028           0.0000000000
     85915     12428  TIP3      H1             27.4473204603        0.0873616056      -40.5917663017  TIP3      12028           0.0000000000
     85916     12428  TIP3      H2             26.2627088057        0.6260172274      -41.3672362644  TIP3      12028           0.0000000000
     85917     12429  TIP3      OH2            20.0532337699       -5.4883794565      -41.1843403438  TIP3      12029           0.0000000000
     85918     12429  TIP3      H1             21.0118539826       -5.3255764445      -40.9951293465  TIP3      12029           0.0000000000
     85919     12429  TIP3      H2             20.0851787096       -6.0640310003      -41.9550363185  TIP3      12029           0.0000000000
     85920     12430  TIP3      OH2            18.7668756178       -0.0410376512      -36.2052758443  TIP3      12030           0.0000000000
     85921     12430  TIP3      H1             18.0761832833       -0.5241382028      -36.7047345903  TIP3      12030           0.0000000000
     85922     12430  TIP3      H2             19.0756940571       -0.7134265412      -35.5808037644  TIP3      12030           0.0000000000
     85923     12431  TIP3      OH2            19.6307019792       -1.9544970629      -34.3657116505  TIP3      12031           0.0000000000
     85924     12431  TIP3      H1             19.2492712967       -2.8256472609      -34.1867751054  TIP3      12031           0.0000000000
     85925     12431  TIP3      H2             19.8174404282       -1.5956394779      -33.4852809625  TIP3      12031           0.0000000000
     85926     12432  TIP3      OH2            37.1433582493       -1.1449431911      -31.4055767334  TIP3      12032           0.0000000000
     85927     12432  TIP3      H1             37.1518052658       -0.9610106021      -30.4505273171  TIP3      12032           0.0000000000
     85928     12432  TIP3      H2             37.8473150516       -0.5666606957      -31.7226308046  TIP3      12032           0.0000000000
     85929     12433  TIP3      OH2            36.7213669364       -1.5478389346      -28.4653271990  TIP3      12033           0.0000000000
     85930     12433  TIP3      H1             36.2369530362       -2.3171736178      -28.8407907089  TIP3      12033           0.0000000000
     85931     12433  TIP3      H2             37.2478951702       -1.9860722132      -27.7758749869  TIP3      12033           0.0000000000
     85932     12434  TIP3      OH2            35.1918934860       -5.8060536747      -23.7938238373  TIP3      12034           0.0000000000
     85933     12434  TIP3      H1             34.2974645132       -5.8820035072      -23.4464278267  TIP3      12034           0.0000000000
     85934     12434  TIP3      H2             35.5270329750       -5.0009338610      -23.4027309510  TIP3      12034           0.0000000000
     85935     12435  TIP3      OH2            36.4720895620       -7.5102209299      -38.3469203634  TIP3      12035           0.0000000000
     85936     12435  TIP3      H1             37.3307296737       -7.1009774917      -38.1708011957  TIP3      12035           0.0000000000
     85937     12435  TIP3      H2             36.4727806031       -8.2504132879      -37.6959277152  TIP3      12035           0.0000000000
     85938     12436  TIP3      OH2            36.8509692471       -9.4449592717      -36.4975916392  TIP3      12036           0.0000000000
     85939     12436  TIP3      H1             36.1121636110       -9.9491646335      -36.0923104860  TIP3      12036           0.0000000000
     85940     12436  TIP3      H2             37.4465168380       -9.2738175909      -35.7392815987  TIP3      12036           0.0000000000
     85941     12437  TIP3      OH2            36.6035290915       -6.7110306031      -31.5191196011  TIP3      12037           0.0000000000
     85942     12437  TIP3      H1             37.4444937618       -7.0766596228      -31.8503031250  TIP3      12037           0.0000000000
     85943     12437  TIP3      H2             36.7409972499       -5.7498192134      -31.6696241536  TIP3      12037           0.0000000000
     85944     12438  TIP3      OH2            35.1380947451       -3.8157308503      -29.2250831692  TIP3      12038           0.0000000000
     85945     12438  TIP3      H1             34.4550324059       -3.4818030925      -28.6216966191  TIP3      12038           0.0000000000
     85946     12438  TIP3      H2             34.5915193223       -4.2395934987      -29.9236510136  TIP3      12038           0.0000000000
     85947     12439  TIP3      OH2            37.1362009440       -9.5940737208      -40.1045327980  TIP3      12039           0.0000000000
     85948     12439  TIP3      H1             36.5836120795       -9.2187362697      -40.8151881798  TIP3      12039           0.0000000000
     85949     12439  TIP3      H2             37.0821191444       -8.8929455825      -39.4264187259  TIP3      12039           0.0000000000
     85950     12440  TIP3      OH2            35.2526887680      -12.3213551375      -41.4702289416  TIP3      12040           0.0000000000
     85951     12440  TIP3      H1             35.5793444480      -11.7132876272      -42.1627155348  TIP3      12040           0.0000000000
     85952     12440  TIP3      H2             35.3381353355      -13.1488684542      -41.9897430126  TIP3      12040           0.0000000000
     85953     12441  TIP3      OH2            34.6563597933      -10.9461762413      -35.9304494009  TIP3      12041           0.0000000000
     85954     12441  TIP3      H1             34.5017614098      -11.9022635996      -35.9470699657  TIP3      12041           0.0000000000
     85955     12441  TIP3      H2             34.3041565759      -10.6929180291      -35.0616828040  TIP3      12041           0.0000000000
     85956     12442  TIP3      OH2            19.6697259023       -8.8524919590      -31.8879492485  TIP3      12042           0.0000000000
     85957     12442  TIP3      H1             19.8657201934       -8.9519749509      -32.8452312035  TIP3      12042           0.0000000000
     85958     12442  TIP3      H2             20.5494092320       -9.0227785607      -31.4996204617  TIP3      12042           0.0000000000
     85959     12443  TIP3      OH2            35.4953787701       -8.9793440790      -26.2590056107  TIP3      12043           0.0000000000
     85960     12443  TIP3      H1             36.1101832412       -9.7272947406      -26.0892413176  TIP3      12043           0.0000000000
     85961     12443  TIP3      H2             36.0976981599       -8.2112343440      -26.2534837328  TIP3      12043           0.0000000000
     85962     12444  TIP3      OH2            37.0122355968      -11.0688597912      -25.6063880024  TIP3      12044           0.0000000000
     85963     12444  TIP3      H1             36.1352519680      -11.4778663572      -25.7592669699  TIP3      12044           0.0000000000
     85964     12444  TIP3      H2             37.6024040869      -11.8385366886      -25.6705709892  TIP3      12044           0.0000000000
     85965     12445  TIP3      OH2            34.7373329698      -14.9298686587      -42.4528112255  TIP3      12045           0.0000000000
     85966     12445  TIP3      H1             35.3346472443      -15.3223975714      -41.7955057416  TIP3      12045           0.0000000000
     85967     12445  TIP3      H2             33.8774196005      -15.3282113997      -42.2447004936  TIP3      12045           0.0000000000
     85968     12446  TIP3      OH2            34.3349489130      -13.3571632093      -37.4539261294  TIP3      12046           0.0000000000
     85969     12446  TIP3      H1             34.6370647188      -14.2860724998      -37.3355174253  TIP3      12046           0.0000000000
     85970     12446  TIP3      H2             35.1135928914      -12.9417593788      -37.8492981185  TIP3      12046           0.0000000000
     85971     12447  TIP3      OH2            34.9599852184      -12.8136718412      -32.0291156772  TIP3      12047           0.0000000000
     85972     12447  TIP3      H1             35.9171704277      -12.5763792476      -32.0471403463  TIP3      12047           0.0000000000
     85973     12447  TIP3      H2             34.7554977276      -12.6785124095      -31.0903805365  TIP3      12047           0.0000000000
     85974     12448  TIP3      OH2            35.0207928023      -12.0848377484      -29.2458804113  TIP3      12048           0.0000000000
     85975     12448  TIP3      H1             34.1512681864      -11.7891505577      -28.8970236286  TIP3      12048           0.0000000000
     85976     12448  TIP3      H2             35.4543896892      -11.2245803250      -29.4631695648  TIP3      12048           0.0000000000
     85977     12449  TIP3      OH2            19.2879806729      -13.6426248753      -25.8115223070  TIP3      12049           0.0000000000
     85978     12449  TIP3      H1             20.2146560579      -13.7169652576      -25.5026650869  TIP3      12049           0.0000000000
     85979     12449  TIP3      H2             18.8067350355      -14.3376969263      -25.3411005415  TIP3      12049           0.0000000000
     85980     12450  TIP3      OH2            37.2981216290      -18.0479715410      -23.8813097606  TIP3      12050           0.0000000000
     85981     12450  TIP3      H1             37.6364864438      -18.7142636867      -24.5063638995  TIP3      12050           0.0000000000
     85982     12450  TIP3      H2             37.4237057682      -17.2242732479      -24.3796160268  TIP3      12050           0.0000000000
     85983     12451  TIP3      OH2            34.9983408998      -16.0912780967      -37.4227362557  TIP3      12051           0.0000000000
     85984     12451  TIP3      H1             35.1683190951      -16.5453806272      -36.5716736278  TIP3      12051           0.0000000000
     85985     12451  TIP3      H2             34.3702276146      -16.7023533766      -37.8736833664  TIP3      12051           0.0000000000
     85986     12452  TIP3      OH2            20.4780357106      -15.2823711332      -32.8732872634  TIP3      12052           0.0000000000
     85987     12452  TIP3      H1             20.9588896387      -16.0881173579      -32.5876385858  TIP3      12052           0.0000000000
     85988     12452  TIP3      H2             20.9961926387      -14.5741535551      -32.4600822386  TIP3      12052           0.0000000000
     85989     12453  TIP3      OH2            18.7723889547      -12.2949385701      -31.8106177193  TIP3      12053           0.0000000000
     85990     12453  TIP3      H1             19.3241416957      -12.5033259668      -32.5963011351  TIP3      12053           0.0000000000
     85991     12453  TIP3      H2             19.1927762497      -11.4616774149      -31.5430399780  TIP3      12053           0.0000000000
     85992     12454  TIP3      OH2            36.8277509875      -15.9595689196      -25.5228006607  TIP3      12054           0.0000000000
     85993     12454  TIP3      H1             35.8881202314      -15.6852324303      -25.5963137999  TIP3      12054           0.0000000000
     85994     12454  TIP3      H2             36.8982823454      -16.4889714103      -26.3383691952  TIP3      12054           0.0000000000
     85995     12455  TIP3      OH2            36.8412270548      -16.0441845488      -40.8374555448  TIP3      12055           0.0000000000
     85996     12455  TIP3      H1             37.2416575865      -16.7492607352      -41.3744144011  TIP3      12055           0.0000000000
     85997     12455  TIP3      H2             37.5210842604      -15.3557618984      -40.8558733208  TIP3      12055           0.0000000000
     85998     12456  TIP3      OH2            19.1289892629      -16.0280388719      -37.7567205559  TIP3      12056           0.0000000000
     85999     12456  TIP3      H1             18.1936594924      -15.8201206837      -37.8977645253  TIP3      12056           0.0000000000
     86000     12456  TIP3      H2             19.5663684284      -15.5324534638      -38.4659959109  TIP3      12056           0.0000000000
     86001     12457  TIP3      OH2            33.8652836491       -1.0359694852      -35.8497321459  TIP3      12057           0.0000000000
     86002     12457  TIP3      H1             34.5796424653       -1.3999630897      -36.3946782025  TIP3      12057           0.0000000000
     86003     12457  TIP3      H2             34.3892420020       -0.5707710857      -35.1586243336  TIP3      12057           0.0000000000
     86004     12458  TIP3      OH2            19.0987352733      -17.3099278608      -29.4024272278  TIP3      12058           0.0000000000
     86005     12458  TIP3      H1             18.3977328545      -17.5596510147      -28.7802567280  TIP3      12058           0.0000000000
     86006     12458  TIP3      H2             18.6406296004      -16.6751761204      -29.9972829590  TIP3      12058           0.0000000000
     86007     12459  TIP3      OH2            21.2934835900       -4.1312649971      -25.2630695316  TIP3      12059           0.0000000000
     86008     12459  TIP3      H1             20.4593095998       -3.9418883228      -25.7235502818  TIP3      12059           0.0000000000
     86009     12459  TIP3      H2             21.0198047253       -4.2071385655      -24.3407344100  TIP3      12059           0.0000000000
     86010     12460  TIP3      OH2            24.1982101415       -3.1692884666      -29.0500763793  TIP3      12060           0.0000000000
     86011     12460  TIP3      H1             23.8528068263       -2.2968139940      -29.2723932444  TIP3      12060           0.0000000000
     86012     12460  TIP3      H2             25.1455915907       -3.0546161437      -29.3047168432  TIP3      12060           0.0000000000
     86013     12461  TIP3      OH2            28.5362313967       -1.7454514960      -26.0826580267  TIP3      12061           0.0000000000
     86014     12461  TIP3      H1             28.7145554583       -2.0742180485      -25.1672750323  TIP3      12061           0.0000000000
     86015     12461  TIP3      H2             29.4168111238       -1.4275638463      -26.3623336570  TIP3      12061           0.0000000000
     86016     12462  TIP3      OH2            30.8491367876       -0.4615964445      -26.8113952091  TIP3      12062           0.0000000000
     86017     12462  TIP3      H1             31.5668366018       -1.0759155964      -27.0405950086  TIP3      12062           0.0000000000
     86018     12462  TIP3      H2             31.2118794804       -0.0489952456      -25.9954804594  TIP3      12062           0.0000000000
     86019     12463  TIP3      OH2            35.8260982005      -17.8522840989      -27.7104133845  TIP3      12063           0.0000000000
     86020     12463  TIP3      H1             34.9950677154      -17.5507170205      -28.1200999982  TIP3      12063           0.0000000000
     86021     12463  TIP3      H2             36.0232386286      -18.6497460349      -28.2513793395  TIP3      12063           0.0000000000
     86022     12464  TIP3      OH2            21.6362847271        0.0799284910      -28.9970442946  TIP3      12064           0.0000000000
     86023     12464  TIP3      H1             20.9091745874        0.5767081755      -29.4071373771  TIP3      12064           0.0000000000
     86024     12464  TIP3      H2             21.2901709709       -0.1190655262      -28.1105801886  TIP3      12064           0.0000000000
     86025     12465  TIP3      OH2            24.1018504544       -0.3448047766      -29.9489491437  TIP3      12065           0.0000000000
     86026     12465  TIP3      H1             23.2242984227       -0.1905905199      -29.5255913692  TIP3      12065           0.0000000000
     86027     12465  TIP3      H2             24.0506714317        0.2718802872      -30.7123208145  TIP3      12065           0.0000000000
     86028     12466  TIP3      OH2            28.8138464261       -0.4165760853      -30.7652687970  TIP3      12066           0.0000000000
     86029     12466  TIP3      H1             28.3510174089        0.1319226140      -31.4175860771  TIP3      12066           0.0000000000
     86030     12466  TIP3      H2             28.9650293054        0.2134934394      -30.0299439595  TIP3      12066           0.0000000000
     86031     12467  TIP3      OH2            31.1333049618       -1.5665583464      -29.7884430514  TIP3      12067           0.0000000000
     86032     12467  TIP3      H1             30.2397964539       -1.3437387631      -30.0940213858  TIP3      12067           0.0000000000
     86033     12467  TIP3      H2             31.5701569263       -0.7004783210      -29.8660757695  TIP3      12067           0.0000000000
     86034     12468  TIP3      OH2            33.7200967704        0.0010662652      -29.5068532200  TIP3      12068           0.0000000000
     86035     12468  TIP3      H1             33.5876333187        0.9528946025      -29.7427912204  TIP3      12068           0.0000000000
     86036     12468  TIP3      H2             33.9125356105       -0.3763021204      -30.3848821320  TIP3      12068           0.0000000000
     86037     12469  TIP3      OH2            21.0581416666       -1.3003135323      -32.0685341046  TIP3      12069           0.0000000000
     86038     12469  TIP3      H1             21.0045563759       -1.6687181908      -31.1677879669  TIP3      12069           0.0000000000
     86039     12469  TIP3      H2             21.8965783526       -1.5633476917      -32.4843307331  TIP3      12069           0.0000000000
     86040     12470  TIP3      OH2            23.1489703447       -2.5493562272      -33.3622942424  TIP3      12070           0.0000000000
     86041     12470  TIP3      H1             23.0333574973       -3.5020859749      -33.2898856242  TIP3      12070           0.0000000000
     86042     12470  TIP3      H2             24.0494887299       -2.4006455624      -32.9678274728  TIP3      12070           0.0000000000
     86043     12471  TIP3      OH2            25.7077980147       -2.0826620450      -32.5451638638  TIP3      12071           0.0000000000
     86044     12471  TIP3      H1             25.9558821797       -2.9825203476      -32.8260861930  TIP3      12071           0.0000000000
     86045     12471  TIP3      H2             25.8235707787       -2.1241950310      -31.5860089719  TIP3      12071           0.0000000000
     86046     12472  TIP3      OH2            29.2351238691      -16.4143076452      -33.4015319136  TIP3      12072           0.0000000000
     86047     12472  TIP3      H1             28.5580153501      -17.0614191018      -33.1428128714  TIP3      12072           0.0000000000
     86048     12472  TIP3      H2             29.7914858560      -16.9271552053      -34.0007224981  TIP3      12072           0.0000000000
     86049     12473  TIP3      OH2            34.3704646873      -18.3429965780      -33.3019818935  TIP3      12073           0.0000000000
     86050     12473  TIP3      H1             34.9889203693      -17.7657125543      -33.8181650320  TIP3      12073           0.0000000000
     86051     12473  TIP3      H2             33.4936056927      -17.9980297114      -33.5502897925  TIP3      12073           0.0000000000
     86052     12474  TIP3      OH2            36.0620542175      -17.1511677089      -35.0051435406  TIP3      12074           0.0000000000
     86053     12474  TIP3      H1             36.7256311218      -17.7039949535      -35.4801981672  TIP3      12074           0.0000000000
     86054     12474  TIP3      H2             36.5133283946      -16.2845517010      -34.9371010313  TIP3      12074           0.0000000000
     86055     12475  TIP3      OH2            21.5839337644      -17.7790544904      -35.5700511867  TIP3      12075           0.0000000000
     86056     12475  TIP3      H1             20.7909797190      -18.0145276642      -36.0888291289  TIP3      12075           0.0000000000
     86057     12475  TIP3      H2             22.0822016804      -18.6169658966      -35.5942401638  TIP3      12075           0.0000000000
     86058     12476  TIP3      OH2            20.3733793040      -18.0191424748      -39.7927607772  TIP3      12076           0.0000000000
     86059     12476  TIP3      H1             20.8416128970      -17.3862119139      -40.3705596078  TIP3      12076           0.0000000000
     86060     12476  TIP3      H2             19.7757991422      -17.4475747351      -39.2916967053  TIP3      12076           0.0000000000
     86061     12477  TIP3      OH2            26.1105736388      -17.8653248633      -35.7744490535  TIP3      12077           0.0000000000
     86062     12477  TIP3      H1             27.0069071635      -17.4854979939      -35.8111007778  TIP3      12077           0.0000000000
     86063     12477  TIP3      H2             26.0223766340      -18.0772369497      -34.8448152033  TIP3      12077           0.0000000000
     86064     12478  TIP3      OH2            31.7372303259      -17.8301432914      -34.1267800451  TIP3      12078           0.0000000000
     86065     12478  TIP3      H1             31.7616407106      -17.7395727065      -35.0846556060  TIP3      12078           0.0000000000
     86066     12478  TIP3      H2             31.4142156629      -18.7486570978      -34.0008252341  TIP3      12078           0.0000000000
     86067     12479  TIP3      OH2            33.0608467994      -17.8080058130      -38.4500712160  TIP3      12079           0.0000000000
     86068     12479  TIP3      H1             32.3323636119      -17.1999550633      -38.6405438936  TIP3      12079           0.0000000000
     86069     12479  TIP3      H2             32.6048079493      -18.6632615665      -38.2846743253  TIP3      12079           0.0000000000
     86070     12480  TIP3      OH2            20.3059374584       -2.0793551172      -38.8486234907  TIP3      12080           0.0000000000
     86071     12480  TIP3      H1             19.6131150655       -2.0670082598      -39.5423895521  TIP3      12080           0.0000000000
     86072     12480  TIP3      H2             20.3013302657       -1.1340782977      -38.6241414174  TIP3      12080           0.0000000000
     86073     12481  TIP3      OH2            22.2416447123      -16.0859181132      -41.3554300809  TIP3      12081           0.0000000000
     86074     12481  TIP3      H1             22.7505005467      -16.7287198909      -41.8438016439  TIP3      12081           0.0000000000
     86075     12481  TIP3      H2             22.8730007001      -15.7747372905      -40.6764107353  TIP3      12081           0.0000000000
     86076     12482  TIP3      OH2            27.2596560363      -15.8163015326      -38.9097786213  TIP3      12082           0.0000000000
     86077     12482  TIP3      H1             27.4786995862      -16.4229753905      -38.1816474740  TIP3      12082           0.0000000000
     86078     12482  TIP3      H2             27.2584283736      -14.9599984345      -38.4181131677  TIP3      12082           0.0000000000
     86079     12483  TIP3      OH2            29.1480307600       -0.6645918478      -40.3868307765  TIP3      12083           0.0000000000
     86080     12483  TIP3      H1             30.0520323833       -0.4828686425      -40.6613507959  TIP3      12083           0.0000000000
     86081     12483  TIP3      H2             28.9353340995       -1.2261763818      -41.1953505272  TIP3      12083           0.0000000000
     86082     12484  TIP3      OH2            35.8122722516       -1.2578739022      -37.7780288178  TIP3      12084           0.0000000000
     86083     12484  TIP3      H1             35.6992534596       -2.0468583477      -38.3640580898  TIP3      12084           0.0000000000
     86084     12484  TIP3      H2             35.8476635701       -0.5136309982      -38.4029150115  TIP3      12084           0.0000000000
     86085     12485  TIP3      OH2            21.5359889745      -17.2807371938      -26.0737688499  TIP3      12085           0.0000000000
     86086     12485  TIP3      H1             21.1717141223      -18.0810124509      -25.6355813433  TIP3      12085           0.0000000000
     86087     12485  TIP3      H2             22.4544609965      -17.2791414636      -25.7564430610  TIP3      12085           0.0000000000
     86088     12486  TIP3      OH2            23.4964333256      -17.8826479335      -24.4839506521  TIP3      12086           0.0000000000
     86089     12486  TIP3      H1             24.3244654332      -18.2563550010      -24.7930714402  TIP3      12086           0.0000000000
     86090     12486  TIP3      H2             23.0910741068      -18.6815788912      -24.0709405601  TIP3      12086           0.0000000000
     86091     12487  TIP3      OH2            22.1187400385       -1.1165086036      -41.8640638541  TIP3      12087           0.0000000000
     86092     12487  TIP3      H1             21.8414036611       -0.8374326531      -40.9813961757  TIP3      12087           0.0000000000
     86093     12487  TIP3      H2             22.8835674565       -1.6668889372      -41.7020453933  TIP3      12087           0.0000000000
     86094     12488  TIP3      OH2            31.9100079447      -18.5679028070      -24.3470826078  TIP3      12088           0.0000000000
     86095     12488  TIP3      H1             31.9930573936      -19.0322056907      -23.4996490186  TIP3      12088           0.0000000000
     86096     12488  TIP3      H2             32.8160031908      -18.5901692749      -24.6928854669  TIP3      12088           0.0000000000
     86097     12489  TIP3      OH2            35.1019674631       -2.5429135856      -25.6345147664  TIP3      12089           0.0000000000
     86098     12489  TIP3      H1             34.3057430005       -2.6868119041      -26.1926676011  TIP3      12089           0.0000000000
     86099     12489  TIP3      H2             35.0087283703       -1.5798897571      -25.4563181594  TIP3      12089           0.0000000000
     86100     12490  TIP3      OH2            49.5220187974       -8.6509216034      -35.6514140908  TIP3      12090           0.0000000000
     86101     12490  TIP3      H1             49.5649333849       -7.6760520641      -35.7506052767  TIP3      12090           0.0000000000
     86102     12490  TIP3      H2             48.8382647334       -8.8979174049      -36.2929779444  TIP3      12090           0.0000000000
     86103     12491  TIP3      OH2            48.4243942623       -9.3798062069      -32.1849650084  TIP3      12091           0.0000000000
     86104     12491  TIP3      H1             48.3782893093      -10.0442629313      -31.5000658673  TIP3      12091           0.0000000000
     86105     12491  TIP3      H2             48.0899077589       -9.8606570025      -32.9689672017  TIP3      12091           0.0000000000
     86106     12492  TIP3      OH2            40.7740261883       -9.7433567759      -30.6338513456  TIP3      12092           0.0000000000
     86107     12492  TIP3      H1             40.8437490901      -10.3976099280      -29.9049599247  TIP3      12092           0.0000000000
     86108     12492  TIP3      H2             41.5051231911       -9.1450313614      -30.4248007476  TIP3      12092           0.0000000000
     86109     12493  TIP3      OH2            52.1247711871       -6.4391925270      -33.9151944851  TIP3      12093           0.0000000000
     86110     12493  TIP3      H1             51.6967985865       -7.1568002717      -33.4417021842  TIP3      12093           0.0000000000
     86111     12493  TIP3      H2             52.1144476094       -5.7247245501      -33.2545303449  TIP3      12093           0.0000000000
     86112     12494  TIP3      OH2            41.7009432419       -5.2892884360      -32.0964922585  TIP3      12094           0.0000000000
     86113     12494  TIP3      H1             41.3625624417       -6.1308185441      -32.4546460849  TIP3      12094           0.0000000000
     86114     12494  TIP3      H2             42.6559838647       -5.4797740351      -32.0561395234  TIP3      12094           0.0000000000
     86115     12495  TIP3      OH2            38.3469838453      -11.6959322791      -36.6807787273  TIP3      12095           0.0000000000
     86116     12495  TIP3      H1             37.8874371764      -10.8249418208      -36.7091017654  TIP3      12095           0.0000000000
     86117     12495  TIP3      H2             37.7515430809      -12.2325744253      -37.2143747589  TIP3      12095           0.0000000000
     86118     12496  TIP3      OH2            39.0307959426       -9.4857928296      -34.5412580351  TIP3      12096           0.0000000000
     86119     12496  TIP3      H1             39.2775694892      -10.2851034413      -34.0416658624  TIP3      12096           0.0000000000
     86120     12496  TIP3      H2             39.7661322935       -9.3985634807      -35.1683445400  TIP3      12096           0.0000000000
     86121     12497  TIP3      OH2            49.1911346500       -1.3586781974      -33.6819486452  TIP3      12097           0.0000000000
     86122     12497  TIP3      H1             49.8633102711       -2.0303052761      -33.9572110832  TIP3      12097           0.0000000000
     86123     12497  TIP3      H2             49.0213144324       -1.5987249132      -32.7771439593  TIP3      12097           0.0000000000
     86124     12498  TIP3      OH2            46.7921060980       -6.9649108233      -31.7696983641  TIP3      12098           0.0000000000
     86125     12498  TIP3      H1             47.1241716494       -7.6272399825      -32.3966102004  TIP3      12098           0.0000000000
     86126     12498  TIP3      H2             47.5610134290       -6.8274602717      -31.1992667966  TIP3      12098           0.0000000000
     86127     12499  TIP3      OH2            55.4359846725      -15.3474402706      -30.9636636184  TIP3      12099           0.0000000000
     86128     12499  TIP3      H1             55.5471633713      -14.7293017815      -30.2071459448  TIP3      12099           0.0000000000
     86129     12499  TIP3      H2             55.9259301836      -14.8918228541      -31.6619640708  TIP3      12099           0.0000000000
     86130     12500  TIP3      OH2            49.9558550512      -12.5206275731      -31.4304859264  TIP3      12100           0.0000000000
     86131     12500  TIP3      H1             50.1010857248      -13.4927185209      -31.4471597730  TIP3      12100           0.0000000000
     86132     12500  TIP3      H2             49.8484048661      -12.3695171138      -32.3972259572  TIP3      12100           0.0000000000
     86133     12501  TIP3      OH2            43.0967614910      -14.4435813128      -34.1858491517  TIP3      12101           0.0000000000
     86134     12501  TIP3      H1             43.1614734535      -13.5897989933      -34.6444002918  TIP3      12101           0.0000000000
     86135     12501  TIP3      H2             42.6598345205      -15.0075067163      -34.8525660420  TIP3      12101           0.0000000000
     86136     12502  TIP3      OH2            50.8189991916      -14.3375643093      -35.8178934867  TIP3      12102           0.0000000000
     86137     12502  TIP3      H1             51.4854851834      -14.6604656692      -35.1668868232  TIP3      12102           0.0000000000
     86138     12502  TIP3      H2             51.3692670971      -13.7951835002      -36.4046781843  TIP3      12102           0.0000000000
     86139     12503  TIP3      OH2            39.7059525370      -12.0345917249      -33.4458975563  TIP3      12103           0.0000000000
     86140     12503  TIP3      H1             40.3804047331      -12.5971555617      -33.0095461227  TIP3      12103           0.0000000000
     86141     12503  TIP3      H2             39.7737605272      -12.3360766452      -34.3642005125  TIP3      12103           0.0000000000
     86142     12504  TIP3      OH2            44.8729195928      -10.4782708754      -34.1899138542  TIP3      12104           0.0000000000
     86143     12504  TIP3      H1             45.5109912206      -11.0472204680      -33.7270616629  TIP3      12104           0.0000000000
     86144     12504  TIP3      H2             44.3133762520      -11.1460442391      -34.6366255400  TIP3      12104           0.0000000000
     86145     12505  TIP3      OH2            55.8846177786      -13.8884109623      -28.7178263356  TIP3      12105           0.0000000000
     86146     12505  TIP3      H1             55.2017432089      -13.1904119116      -28.8154031791  TIP3      12105           0.0000000000
     86147     12505  TIP3      H2             55.8742834358      -14.0484249778      -27.7610527325  TIP3      12105           0.0000000000
     86148     12506  TIP3      OH2            41.9507370618      -15.5422059416      -30.1396091753  TIP3      12106           0.0000000000
     86149     12506  TIP3      H1             41.6928768937      -14.9842892238      -30.8987390663  TIP3      12106           0.0000000000
     86150     12506  TIP3      H2             41.2607160182      -15.3022708156      -29.4723141667  TIP3      12106           0.0000000000
     86151     12507  TIP3      OH2            49.2872321694       -6.0455204159      -36.5885905172  TIP3      12107           0.0000000000
     86152     12507  TIP3      H1             48.9838433066       -6.3505528952      -37.4531081473  TIP3      12107           0.0000000000
     86153     12507  TIP3      H2             48.9597485805       -5.1210916565      -36.5509781547  TIP3      12107           0.0000000000
     86154     12508  TIP3      OH2            44.4941377881       -7.8860071767      -29.8693764925  TIP3      12108           0.0000000000
     86155     12508  TIP3      H1             43.7619047987       -7.2490474522      -29.7189871468  TIP3      12108           0.0000000000
     86156     12508  TIP3      H2             45.1991794177       -7.2949364634      -30.1729642688  TIP3      12108           0.0000000000
     86157     12509  TIP3      OH2            52.6062370799      -15.0136465597      -33.8312212722  TIP3      12109           0.0000000000
     86158     12509  TIP3      H1             52.3922219182      -15.7839183713      -33.2891175200  TIP3      12109           0.0000000000
     86159     12509  TIP3      H2             53.2737170808      -14.5661049583      -33.2931466252  TIP3      12109           0.0000000000
     86160     12510  TIP3      OH2            41.5091517634      -13.6605316350      -32.1530038309  TIP3      12110           0.0000000000
     86161     12510  TIP3      H1             42.1518716305      -12.9980571969      -31.8049708084  TIP3      12110           0.0000000000
     86162     12510  TIP3      H2             42.0463334478      -14.1089647931      -32.8487424035  TIP3      12110           0.0000000000
     86163     12511  TIP3      OH2            42.9218757494       -5.9057174257      -29.0745917806  TIP3      12111           0.0000000000
     86164     12511  TIP3      H1             42.8874361731       -4.9969959521      -29.4322119512  TIP3      12111           0.0000000000
     86165     12511  TIP3      H2             42.0366166833       -5.9724354832      -28.6334407979  TIP3      12111           0.0000000000
     86166     12512  TIP3      OH2            39.0096749202       -6.2542256875      -38.2813916628  TIP3      12112           0.0000000000
     86167     12512  TIP3      H1             38.7613277842       -5.9688421383      -39.1790937235  TIP3      12112           0.0000000000
     86168     12512  TIP3      H2             39.0710664732       -5.3988746592      -37.8017061878  TIP3      12112           0.0000000000
     86169     12513  TIP3      OH2            52.6371689703       -4.6159220400      -31.5475944622  TIP3      12113           0.0000000000
     86170     12513  TIP3      H1             51.6710153704       -4.5152875233      -31.4110467938  TIP3      12113           0.0000000000
     86171     12513  TIP3      H2             52.9156232214       -3.6925769965      -31.7105398087  TIP3      12113           0.0000000000
     86172     12514  TIP3      OH2            52.9522390291      -16.3313285785      -30.1465145589  TIP3      12114           0.0000000000
     86173     12514  TIP3      H1             52.2163323668      -15.7038954998      -30.2039362220  TIP3      12114           0.0000000000
     86174     12514  TIP3      H2             53.6445422965      -15.8975251919      -30.6753806644  TIP3      12114           0.0000000000
     86175     12515  TIP3      OH2            45.9420755941      -18.2139888025      -32.6862646253  TIP3      12115           0.0000000000
     86176     12515  TIP3      H1             45.8121510375      -19.1794612868      -32.7425116102  TIP3      12115           0.0000000000
     86177     12515  TIP3      H2             45.0657532986      -17.8979810234      -32.3933238002  TIP3      12115           0.0000000000
     86178     12516  TIP3      OH2            50.8992415858       -2.8157855777      -34.9263219207  TIP3      12116           0.0000000000
     86179     12516  TIP3      H1             51.3195693647       -3.5360348079      -35.4376994274  TIP3      12116           0.0000000000
     86180     12516  TIP3      H2             51.2631982643       -2.0251456391      -35.3601091010  TIP3      12116           0.0000000000
     86181     12517  TIP3      OH2            52.0835099707       -4.9059590452      -36.4394579093  TIP3      12117           0.0000000000
     86182     12517  TIP3      H1             51.7847653461       -5.6059683720      -37.0354104170  TIP3      12117           0.0000000000
     86183     12517  TIP3      H2             52.1193799676       -5.3738666013      -35.5780263921  TIP3      12117           0.0000000000
     86184     12518  TIP3      OH2            53.7193121894       -6.3424201452      -27.9407880312  TIP3      12118           0.0000000000
     86185     12518  TIP3      H1             53.8823357374       -6.9454857740      -28.6928097654  TIP3      12118           0.0000000000
     86186     12518  TIP3      H2             53.9233940114       -5.4694231624      -28.3300699693  TIP3      12118           0.0000000000
     86187     12519  TIP3      OH2            48.2076960773       -9.3998427231      -38.1656329004  TIP3      12119           0.0000000000
     86188     12519  TIP3      H1             47.5026902488       -8.8453679366      -38.5485081683  TIP3      12119           0.0000000000
     86189     12519  TIP3      H2             48.9029252035       -9.3295593098      -38.8458647663  TIP3      12119           0.0000000000
     86190     12520  TIP3      OH2            48.2566946564      -10.9109118121      -41.1242035634  TIP3      12120           0.0000000000
     86191     12520  TIP3      H1             48.9805486237      -10.9011327020      -40.4806803760  TIP3      12120           0.0000000000
     86192     12520  TIP3      H2             48.5773267491      -11.5484504662      -41.7727324079  TIP3      12120           0.0000000000
     86193     12521  TIP3      OH2            55.5453561335      -10.0343021003      -29.9010830497  TIP3      12121           0.0000000000
     86194     12521  TIP3      H1             54.9356879963       -9.2847689132      -29.8144727973  TIP3      12121           0.0000000000
     86195     12521  TIP3      H2             56.0570988816       -9.7764204564      -30.6983014286  TIP3      12121           0.0000000000
     86196     12522  TIP3      OH2            51.6369166405       -9.1695796052      -37.2476797463  TIP3      12122           0.0000000000
     86197     12522  TIP3      H1             50.8838128112       -8.9553264528      -36.6400565493  TIP3      12122           0.0000000000
     86198     12522  TIP3      H2             52.0893368310       -9.8840790222      -36.7518555797  TIP3      12122           0.0000000000
     86199     12523  TIP3      OH2            51.5865825144      -11.1658891825      -28.1657196243  TIP3      12123           0.0000000000
     86200     12523  TIP3      H1             51.6830795125      -10.4140168174      -27.5538087561  TIP3      12123           0.0000000000
     86201     12523  TIP3      H2             50.9602239185      -10.8460859640      -28.8640987460  TIP3      12123           0.0000000000
     86202     12524  TIP3      OH2            43.2673356757       -8.5320691144      -35.3361552130  TIP3      12124           0.0000000000
     86203     12524  TIP3      H1             42.9384331016       -8.9296281595      -36.1771574791  TIP3      12124           0.0000000000
     86204     12524  TIP3      H2             43.8705421800       -9.2333757932      -34.9984636134  TIP3      12124           0.0000000000
     86205     12525  TIP3      OH2            44.6061585849       -5.1251129333      -32.6566346406  TIP3      12125           0.0000000000
     86206     12525  TIP3      H1             44.5567200441       -5.6963951704      -33.4337552323  TIP3      12125           0.0000000000
     86207     12525  TIP3      H2             45.3698081010       -5.5038779344      -32.1838673099  TIP3      12125           0.0000000000
     86208     12526  TIP3      OH2            43.6158934078       -9.7932580512      -31.6964661451  TIP3      12126           0.0000000000
     86209     12526  TIP3      H1             44.1885323538       -9.6663516302      -32.4755437701  TIP3      12126           0.0000000000
     86210     12526  TIP3      H2             43.9656036585       -9.1337663656      -31.0663680782  TIP3      12126           0.0000000000
     86211     12527  TIP3      OH2            49.9741781808       -4.2562148403      -30.9784069502  TIP3      12127           0.0000000000
     86212     12527  TIP3      H1             49.7085703146       -3.6067400273      -30.3245007133  TIP3      12127           0.0000000000
     86213     12527  TIP3      H2             49.7386130009       -5.1064919857      -30.5424391408  TIP3      12127           0.0000000000
     86214     12528  TIP3      OH2            44.5353578178       -5.3807841178      -26.9743603443  TIP3      12128           0.0000000000
     86215     12528  TIP3      H1             44.1743555299       -4.5958602525      -26.5219335701  TIP3      12128           0.0000000000
     86216     12528  TIP3      H2             43.8624987370       -5.5483936470      -27.6817440099  TIP3      12128           0.0000000000
     86217     12529  TIP3      OH2            50.5029901251      -10.0209085463      -39.5630455702  TIP3      12129           0.0000000000
     86218     12529  TIP3      H1             51.0665408685       -9.8520386472      -38.7742818500  TIP3      12129           0.0000000000
     86219     12529  TIP3      H2             50.9126667880       -9.5200636730      -40.2811634741  TIP3      12129           0.0000000000
     86220     12530  TIP3      OH2            41.4663126143       -9.2006894880      -27.7937344283  TIP3      12130           0.0000000000
     86221     12530  TIP3      H1             41.5075290702       -8.5361828358      -27.0767496768  TIP3      12130           0.0000000000
     86222     12530  TIP3      H2             40.5417224919       -9.0919714443      -28.0685939977  TIP3      12130           0.0000000000
     86223     12531  TIP3      OH2            48.2266882325       -3.2881088258      -36.1053884093  TIP3      12131           0.0000000000
     86224     12531  TIP3      H1             48.6850361598       -2.9760844408      -35.3177278912  TIP3      12131           0.0000000000
     86225     12531  TIP3      H2             47.6663976629       -2.5382522064      -36.3454887543  TIP3      12131           0.0000000000
     86226     12532  TIP3      OH2            42.7702182557       -3.3298160104      -26.2179722011  TIP3      12132           0.0000000000
     86227     12532  TIP3      H1             42.7478340892       -3.4420504076      -27.1847557181  TIP3      12132           0.0000000000
     86228     12532  TIP3      H2             41.8309555632       -3.4359282970      -25.9806275019  TIP3      12132           0.0000000000
     86229     12533  TIP3      OH2            54.2178910494      -18.2755766664      -39.7098859189  TIP3      12133           0.0000000000
     86230     12533  TIP3      H1             53.2778806923      -18.1370101679      -39.4363315203  TIP3      12133           0.0000000000
     86231     12533  TIP3      H2             54.4566738700      -17.4277590108      -40.1174561437  TIP3      12133           0.0000000000
     86232     12534  TIP3      OH2            42.2547558279       -9.4985668153      -37.7347968950  TIP3      12134           0.0000000000
     86233     12534  TIP3      H1             41.9591685849       -8.7192958614      -38.2520935301  TIP3      12134           0.0000000000
     86234     12534  TIP3      H2             41.5817047168      -10.1547838668      -37.9328262063  TIP3      12134           0.0000000000
     86235     12535  TIP3      OH2            55.3294607877       -3.9214696894      -41.3193600784  TIP3      12135           0.0000000000
     86236     12535  TIP3      H1             55.4621890424       -2.9577958461      -41.1913581533  TIP3      12135           0.0000000000
     86237     12535  TIP3      H2             56.2752560457       -4.1914148295      -41.3999581811  TIP3      12135           0.0000000000
     86238     12536  TIP3      OH2            38.3438151987       -7.0966091684      -28.8904772259  TIP3      12136           0.0000000000
     86239     12536  TIP3      H1             37.8587301818       -7.1640723497      -29.7320026827  TIP3      12136           0.0000000000
     86240     12536  TIP3      H2             38.3701662525       -8.0353578602      -28.6262934646  TIP3      12136           0.0000000000
     86241     12537  TIP3      OH2            38.0926773433       -4.3501897386      -32.0534477910  TIP3      12137           0.0000000000
     86242     12537  TIP3      H1             39.0490745425       -4.4756232591      -32.0704105332  TIP3      12137           0.0000000000
     86243     12537  TIP3      H2             37.9974272591       -3.5461472728      -31.5256912886  TIP3      12137           0.0000000000
     86244     12538  TIP3      OH2            47.2831945531       -4.1081042726      -27.5104405674  TIP3      12138           0.0000000000
     86245     12538  TIP3      H1             47.3577498516       -3.2662741613      -27.0027885344  TIP3      12138           0.0000000000
     86246     12538  TIP3      H2             46.4089141257       -4.4436562950      -27.2408899436  TIP3      12138           0.0000000000
     86247     12539  TIP3      OH2            47.7072849401       -0.3482170991      -37.6846550145  TIP3      12139           0.0000000000
     86248     12539  TIP3      H1             47.6242725951       -0.4448122881      -38.6511659470  TIP3      12139           0.0000000000
     86249     12539  TIP3      H2             47.7263067328        0.6169850364      -37.5659716286  TIP3      12139           0.0000000000
     86250     12540  TIP3      OH2            41.3578324626       -1.5013064849      -35.8949750839  TIP3      12140           0.0000000000
     86251     12540  TIP3      H1             41.4978876999       -1.9007101904      -35.0115503144  TIP3      12140           0.0000000000
     86252     12540  TIP3      H2             40.5035374189       -1.8957145421      -36.1411446548  TIP3      12140           0.0000000000
     86253     12541  TIP3      OH2            50.7721424138       -1.1572560125      -40.7173635563  TIP3      12141           0.0000000000
     86254     12541  TIP3      H1             51.1926731535       -1.9279094083      -41.1555069173  TIP3      12141           0.0000000000
     86255     12541  TIP3      H2             50.8071753705       -1.4342006619      -39.7796897976  TIP3      12141           0.0000000000
     86256     12542  TIP3      OH2            50.4749032273       -1.2164778195      -37.9286478983  TIP3      12142           0.0000000000
     86257     12542  TIP3      H1             49.5128120344       -1.1577893418      -37.7609793295  TIP3      12142           0.0000000000
     86258     12542  TIP3      H2             50.7340978228       -1.9626545065      -37.3665811462  TIP3      12142           0.0000000000
     86259     12543  TIP3      OH2            53.4575829146      -12.1702484597      -25.8958165523  TIP3      12143           0.0000000000
     86260     12543  TIP3      H1             53.0234503877      -11.7181020661      -26.6199197851  TIP3      12143           0.0000000000
     86261     12543  TIP3      H2             53.4948661070      -13.0942532755      -26.2011313456  TIP3      12143           0.0000000000
     86262     12544  TIP3      OH2            40.5997121402       -5.7728633171      -27.8900707194  TIP3      12144           0.0000000000
     86263     12544  TIP3      H1             40.8250565725       -6.1559763396      -27.0199477423  TIP3      12144           0.0000000000
     86264     12544  TIP3      H2             39.7377364581       -6.1786693731      -28.1147626491  TIP3      12144           0.0000000000
     86265     12545  TIP3      OH2            43.2599924425      -17.3219800012      -31.9146578964  TIP3      12145           0.0000000000
     86266     12545  TIP3      H1             42.3603641177      -17.4139303459      -32.3050003077  TIP3      12145           0.0000000000
     86267     12545  TIP3      H2             43.1771638974      -16.4666737178      -31.4655099398  TIP3      12145           0.0000000000
     86268     12546  TIP3      OH2            47.9092996014      -17.6108211065      -28.5488000173  TIP3      12146           0.0000000000
     86269     12546  TIP3      H1             48.3100773597      -18.0357851825      -27.7688019363  TIP3      12146           0.0000000000
     86270     12546  TIP3      H2             46.9423383825      -17.7729155901      -28.4143444928  TIP3      12146           0.0000000000
     86271     12547  TIP3      OH2            51.2061040787      -13.8266486317      -27.6831180662  TIP3      12147           0.0000000000
     86272     12547  TIP3      H1             50.6697418763      -13.9957078297      -26.8698620174  TIP3      12147           0.0000000000
     86273     12547  TIP3      H2             51.0427723876      -12.9075075807      -27.9165579701  TIP3      12147           0.0000000000
     86274     12548  TIP3      OH2            52.0411839025       -8.9278489844      -41.8255528221  TIP3      12148           0.0000000000
     86275     12548  TIP3      H1             52.0265555707       -9.1692706771      -42.7853202418  TIP3      12148           0.0000000000
     86276     12548  TIP3      H2             52.8900507550       -8.5494871051      -41.7274678472  TIP3      12148           0.0000000000
     86277     12549  TIP3      OH2            47.5627305452      -15.0833137706      -41.2452964065  TIP3      12149           0.0000000000
     86278     12549  TIP3      H1             47.2752520563      -15.1038628705      -40.3115237147  TIP3      12149           0.0000000000
     86279     12549  TIP3      H2             47.2891152874      -15.9656351766      -41.5264317665  TIP3      12149           0.0000000000
     86280     12550  TIP3      OH2            43.3514321994      -12.3569482707      -30.7555669028  TIP3      12150           0.0000000000
     86281     12550  TIP3      H1             42.6547892608      -12.3786000715      -30.0740538658  TIP3      12150           0.0000000000
     86282     12550  TIP3      H2             43.3364017434      -11.4205358190      -31.0531141193  TIP3      12150           0.0000000000
     86283     12551  TIP3      OH2            43.3321524573      -12.1562285735      -35.8513074226  TIP3      12151           0.0000000000
     86284     12551  TIP3      H1             42.4108973322      -12.4683810066      -35.9539186768  TIP3      12151           0.0000000000
     86285     12551  TIP3      H2             43.7500508005      -12.5073437488      -36.6601720529  TIP3      12151           0.0000000000
     86286     12552  TIP3      OH2            48.8558386178      -11.7253712113      -37.0649549853  TIP3      12152           0.0000000000
     86287     12552  TIP3      H1             48.4436431666      -10.8913785970      -37.3801205461  TIP3      12152           0.0000000000
     86288     12552  TIP3      H2             49.5661605982      -11.8628753097      -37.7157089729  TIP3      12152           0.0000000000
     86289     12553  TIP3      OH2            47.9527129211      -11.5172026362      -25.6286677000  TIP3      12153           0.0000000000
     86290     12553  TIP3      H1             47.3907161977      -12.2587146741      -25.2708558075  TIP3      12153           0.0000000000
     86291     12553  TIP3      H2             48.7620369510      -11.6568633833      -25.1031113077  TIP3      12153           0.0000000000
     86292     12554  TIP3      OH2            49.8713637530      -12.2496450385      -34.2265457078  TIP3      12154           0.0000000000
     86293     12554  TIP3      H1             49.6406213893      -11.6693883052      -34.9719649054  TIP3      12154           0.0000000000
     86294     12554  TIP3      H2             50.0181271609      -13.0964522462      -34.6958827066  TIP3      12154           0.0000000000
     86295     12555  TIP3      OH2            41.0404069360      -12.0478642000      -28.9661570606  TIP3      12155           0.0000000000
     86296     12555  TIP3      H1             41.0439337924      -11.6470055390      -28.0774924831  TIP3      12155           0.0000000000
     86297     12555  TIP3      H2             40.5661911279      -12.8799522001      -28.8221095871  TIP3      12155           0.0000000000
     86298     12556  TIP3      OH2            44.5304557537      -14.4829550365      -41.8876112171  TIP3      12156           0.0000000000
     86299     12556  TIP3      H1             44.0071367657      -15.1084401850      -41.3649716622  TIP3      12156           0.0000000000
     86300     12556  TIP3      H2             43.8665540934      -14.2061873579      -42.5390366922  TIP3      12156           0.0000000000
     86301     12557  TIP3      OH2            37.6658540708      -14.9308205293      -35.0692360778  TIP3      12157           0.0000000000
     86302     12557  TIP3      H1             38.3176445088      -14.9691142510      -34.3389682498  TIP3      12157           0.0000000000
     86303     12557  TIP3      H2             38.1223117026      -15.3540842051      -35.8071347926  TIP3      12157           0.0000000000
     86304     12558  TIP3      OH2            38.9609214299      -14.2088762811      -39.6490106080  TIP3      12158           0.0000000000
     86305     12558  TIP3      H1             39.4170228020      -13.5774942500      -40.2624760460  TIP3      12158           0.0000000000
     86306     12558  TIP3      H2             38.2315256836      -13.6122164921      -39.3291705249  TIP3      12158           0.0000000000
     86307     12559  TIP3      OH2            49.1700286156      -10.6171838602      -29.5659481605  TIP3      12159           0.0000000000
     86308     12559  TIP3      H1             49.4414997264      -11.2906084398      -30.2405590410  TIP3      12159           0.0000000000
     86309     12559  TIP3      H2             48.6401664207      -11.1807572194      -28.9590153732  TIP3      12159           0.0000000000
     86310     12560  TIP3      OH2            45.8979435811      -14.6901896284      -34.8161159150  TIP3      12160           0.0000000000
     86311     12560  TIP3      H1             44.9637963513      -14.6536073145      -34.5123136996  TIP3      12160           0.0000000000
     86312     12560  TIP3      H2             46.3933692384      -14.7896775912      -33.9891133344  TIP3      12160           0.0000000000
     86313     12561  TIP3      OH2            40.7181493089      -13.0948213921      -35.9721173249  TIP3      12161           0.0000000000
     86314     12561  TIP3      H1             39.8171671166      -12.9642664925      -36.3245841844  TIP3      12161           0.0000000000
     86315     12561  TIP3      H2             41.0164775111      -13.9355645591      -36.3303361354  TIP3      12161           0.0000000000
     86316     12562  TIP3      OH2            44.3518825540      -13.0764919897      -38.3212871430  TIP3      12162           0.0000000000
     86317     12562  TIP3      H1             45.3068766056      -12.9542229936      -38.1408269671  TIP3      12162           0.0000000000
     86318     12562  TIP3      H2             44.1440968515      -12.3957889120      -38.9851301691  TIP3      12162           0.0000000000
     86319     12563  TIP3      OH2            50.3071015201      -15.4524726688      -31.5566640808  TIP3      12163           0.0000000000
     86320     12563  TIP3      H1             49.6124810246      -15.3547964904      -30.8717002950  TIP3      12163           0.0000000000
     86321     12563  TIP3      H2             49.8023699251      -15.6479387475      -32.3572503336  TIP3      12163           0.0000000000
     86322     12564  TIP3      OH2            43.0419675512      -11.9029293807      -40.7296121213  TIP3      12164           0.0000000000
     86323     12564  TIP3      H1             42.5016496173      -12.2492440029      -41.4579183738  TIP3      12164           0.0000000000
     86324     12564  TIP3      H2             43.8742850166      -11.6892585952      -41.1862610216  TIP3      12164           0.0000000000
     86325     12565  TIP3      OH2            53.5442098951        0.2002433230      -25.2505161348  TIP3      12165           0.0000000000
     86326     12565  TIP3      H1             53.7928331930        0.6082469919      -26.1026139873  TIP3      12165           0.0000000000
     86327     12565  TIP3      H2             54.2329949994        0.5368024271      -24.6642103986  TIP3      12165           0.0000000000
     86328     12566  TIP3      OH2            41.1729609760       -7.3199328841      -25.6696598995  TIP3      12166           0.0000000000
     86329     12566  TIP3      H1             41.9077139005       -7.0733324967      -25.0811910648  TIP3      12166           0.0000000000
     86330     12566  TIP3      H2             40.4016267925       -7.1718173261      -25.1187751012  TIP3      12166           0.0000000000
     86331     12567  TIP3      OH2            47.1956544070      -11.9116272278      -32.9194204482  TIP3      12167           0.0000000000
     86332     12567  TIP3      H1             47.7779959368      -12.4593234970      -33.4618773808  TIP3      12167           0.0000000000
     86333     12567  TIP3      H2             47.0549221233      -12.4502456559      -32.1301149365  TIP3      12167           0.0000000000
     86334     12568  TIP3      OH2            42.1754452201      -15.7642368245      -36.5301680649  TIP3      12168           0.0000000000
     86335     12568  TIP3      H1             41.9105665102      -16.7010804371      -36.5030366440  TIP3      12168           0.0000000000
     86336     12568  TIP3      H2             43.0044286744      -15.8033519252      -37.0351975591  TIP3      12168           0.0000000000
     86337     12569  TIP3      OH2            45.8337639492      -13.5593772578      -30.5110462877  TIP3      12169           0.0000000000
     86338     12569  TIP3      H1             44.9966464559      -13.0678967455      -30.4009815180  TIP3      12169           0.0000000000
     86339     12569  TIP3      H2             46.3710326411      -13.2410056278      -29.7582737214  TIP3      12169           0.0000000000
     86340     12570  TIP3      OH2            46.4091686975       -7.3322815753      -38.8133483316  TIP3      12170           0.0000000000
     86341     12570  TIP3      H1             45.6241926303       -7.8296568979      -39.1366333865  TIP3      12170           0.0000000000
     86342     12570  TIP3      H2             46.2231948634       -7.2652079664      -37.8565744652  TIP3      12170           0.0000000000
     86343     12571  TIP3      OH2            53.5506122797       -8.1885600193      -30.0069903879  TIP3      12171           0.0000000000
     86344     12571  TIP3      H1             54.1684610171       -7.7085543696      -30.5978133829  TIP3      12171           0.0000000000
     86345     12571  TIP3      H2             52.7218867171       -8.0736615247      -30.5141845495  TIP3      12171           0.0000000000
     86346     12572  TIP3      OH2            50.2818728390      -14.5391808529      -40.6242487270  TIP3      12172           0.0000000000
     86347     12572  TIP3      H1             49.3329025344      -14.3960276849      -40.7795379535  TIP3      12172           0.0000000000
     86348     12572  TIP3      H2             50.5716371570      -13.6599656525      -40.3120712887  TIP3      12172           0.0000000000
     86349     12573  TIP3      OH2            47.9305712029       -7.1284777771      -27.5741911935  TIP3      12173           0.0000000000
     86350     12573  TIP3      H1             47.5457233592       -7.5074789052      -26.7727866173  TIP3      12173           0.0000000000
     86351     12573  TIP3      H2             47.6785766283       -6.1930433148      -27.4973959965  TIP3      12173           0.0000000000
     86352     12574  TIP3      OH2            50.9949776679      -12.6369178011      -38.9549972106  TIP3      12174           0.0000000000
     86353     12574  TIP3      H1             51.9061198481      -12.7703134307      -38.6249198709  TIP3      12174           0.0000000000
     86354     12574  TIP3      H2             51.0524431320      -11.8376661981      -39.4964245278  TIP3      12174           0.0000000000
     86355     12575  TIP3      OH2            41.5080249154       -7.9944485375      -33.0280644795  TIP3      12175           0.0000000000
     86356     12575  TIP3      H1             42.2378248570       -8.0370385059      -33.6748593782  TIP3      12175           0.0000000000
     86357     12575  TIP3      H2             41.5852194314       -8.8449066683      -32.5630643580  TIP3      12175           0.0000000000
     86358     12576  TIP3      OH2            48.5340647134       -5.8741691362      -39.7794584325  TIP3      12176           0.0000000000
     86359     12576  TIP3      H1             48.1895858137       -5.0370349975      -39.4117917052  TIP3      12176           0.0000000000
     86360     12576  TIP3      H2             47.7885831273       -6.4893937903      -39.5885287778  TIP3      12176           0.0000000000
     86361     12577  TIP3      OH2            38.5119604769       -9.5578757556      -27.7442518302  TIP3      12177           0.0000000000
     86362     12577  TIP3      H1             38.7196377452       -9.9896342215      -26.8930704499  TIP3      12177           0.0000000000
     86363     12577  TIP3      H2             37.8990864386      -10.1815968069      -28.1666656736  TIP3      12177           0.0000000000
     86364     12578  TIP3      OH2            45.5307676547      -10.0071889053      -25.5425495280  TIP3      12178           0.0000000000
     86365     12578  TIP3      H1             45.2182877914      -10.2499220777      -26.4252548570  TIP3      12178           0.0000000000
     86366     12578  TIP3      H2             46.4577741560      -10.2989863280      -25.5440120122  TIP3      12178           0.0000000000
     86367     12579  TIP3      OH2            50.1779856938       -4.6972180046      -27.6276066975  TIP3      12179           0.0000000000
     86368     12579  TIP3      H1             49.2603605192       -4.4751895766      -27.8752716545  TIP3      12179           0.0000000000
     86369     12579  TIP3      H2             50.1763794805       -4.3835057763      -26.6999265169  TIP3      12179           0.0000000000
     86370     12580  TIP3      OH2            55.8120234999      -12.4180666593      -39.2033288046  TIP3      12180           0.0000000000
     86371     12580  TIP3      H1             55.3068119748      -12.8041450010      -39.9474421212  TIP3      12180           0.0000000000
     86372     12580  TIP3      H2             55.9800659176      -11.5199623924      -39.5490960456  TIP3      12180           0.0000000000
     86373     12581  TIP3      OH2            55.8434348288       -6.6556233073      -26.4170095913  TIP3      12181           0.0000000000
     86374     12581  TIP3      H1             54.9880234482       -6.3753586952      -26.8048918762  TIP3      12181           0.0000000000
     86375     12581  TIP3      H2             56.4247070460       -6.6375460536      -27.2009215479  TIP3      12181           0.0000000000
     86376     12582  TIP3      OH2            54.1870191791       -3.6601466515      -38.8172216055  TIP3      12182           0.0000000000
     86377     12582  TIP3      H1             53.7905868858       -4.4645039465      -38.4799211382  TIP3      12182           0.0000000000
     86378     12582  TIP3      H2             54.4680752521       -3.8278743871      -39.7287879235  TIP3      12182           0.0000000000
     86379     12583  TIP3      OH2            51.3445855092       -8.8398037205      -31.7158186508  TIP3      12183           0.0000000000
     86380     12583  TIP3      H1             50.4060540582       -9.0622801810      -31.8390646211  TIP3      12183           0.0000000000
     86381     12583  TIP3      H2             51.7893826209       -9.6033314308      -32.1417159883  TIP3      12183           0.0000000000
     86382     12584  TIP3      OH2            43.8885853972       -4.5134616687      -35.6355653785  TIP3      12184           0.0000000000
     86383     12584  TIP3      H1             44.4022700244       -3.7168009241      -35.8422931249  TIP3      12184           0.0000000000
     86384     12584  TIP3      H2             43.0057254743       -4.2748396115      -35.9517859856  TIP3      12184           0.0000000000
     86385     12585  TIP3      OH2            39.6304549436       -9.6531341058      -41.0756910395  TIP3      12185           0.0000000000
     86386     12585  TIP3      H1             40.2550728914       -9.0200693123      -40.6775384216  TIP3      12185           0.0000000000
     86387     12585  TIP3      H2             38.7637271958       -9.3401572282      -40.7761230744  TIP3      12185           0.0000000000
     86388     12586  TIP3      OH2            45.3227093603       -6.8491493942      -36.0851963344  TIP3      12186           0.0000000000
     86389     12586  TIP3      H1             45.0387933974       -5.9170992256      -36.0195994947  TIP3      12186           0.0000000000
     86390     12586  TIP3      H2             44.5694456297       -7.3128738278      -35.6671925315  TIP3      12186           0.0000000000
     86391     12587  TIP3      OH2            45.7822911081       -2.6811240430      -29.7336157249  TIP3      12187           0.0000000000
     86392     12587  TIP3      H1             46.1969936063       -1.8419399108      -29.9857765640  TIP3      12187           0.0000000000
     86393     12587  TIP3      H2             46.3675218698       -2.9895113989      -29.0164758468  TIP3      12187           0.0000000000
     86394     12588  TIP3      OH2            43.9941695536       -1.8360696464      -36.5501693121  TIP3      12188           0.0000000000
     86395     12588  TIP3      H1             43.0261012321       -1.7091560565      -36.4565411238  TIP3      12188           0.0000000000
     86396     12588  TIP3      H2             44.3445499712       -0.9988859401      -36.1922887439  TIP3      12188           0.0000000000
     86397     12589  TIP3      OH2            49.3465517069       -6.6235446306      -30.0577170314  TIP3      12189           0.0000000000
     86398     12589  TIP3      H1             48.9304426005       -6.8226299910      -29.2012074952  TIP3      12189           0.0000000000
     86399     12589  TIP3      H2             49.9435970906       -7.3479042642      -30.2591178682  TIP3      12189           0.0000000000
     86400     12590  TIP3      OH2            51.5854443774       -5.6721812767      -40.9777550053  TIP3      12190           0.0000000000
     86401     12590  TIP3      H1             51.8789316188       -6.0478442361      -40.1367316081  TIP3      12190           0.0000000000
     86402     12590  TIP3      H2             50.6153650466       -5.7606052444      -40.8910381600  TIP3      12190           0.0000000000
     86403     12591  TIP3      OH2            52.0487232958       -2.0582208109      -27.5706419596  TIP3      12191           0.0000000000
     86404     12591  TIP3      H1             51.4107523049       -2.5873998056      -28.0828933069  TIP3      12191           0.0000000000
     86405     12591  TIP3      H2             52.3009816922       -1.3721652102      -28.2233255209  TIP3      12191           0.0000000000
     86406     12592  TIP3      OH2            56.0652040663       -1.2012174049      -40.7699973005  TIP3      12192           0.0000000000
     86407     12592  TIP3      H1             56.8117726561       -0.5870497448      -40.9252401044  TIP3      12192           0.0000000000
     86408     12592  TIP3      H2             55.3650959100       -0.5968257548      -40.4476743698  TIP3      12192           0.0000000000
     86409     12593  TIP3      OH2            40.1617096608      -14.8107890590      -28.1831481166  TIP3      12193           0.0000000000
     86410     12593  TIP3      H1             39.2507445872      -14.4709714462      -28.2346271939  TIP3      12193           0.0000000000
     86411     12593  TIP3      H2             40.0460278527      -15.6709487039      -27.7524552917  TIP3      12193           0.0000000000
     86412     12594  TIP3      OH2            52.4508344803       -7.0139105028      -38.7943244398  TIP3      12194           0.0000000000
     86413     12594  TIP3      H1             52.1383957809       -7.7371581020      -38.1922592164  TIP3      12194           0.0000000000
     86414     12594  TIP3      H2             53.3394342185       -6.8632449701      -38.4562612456  TIP3      12194           0.0000000000
     86415     12595  TIP3      OH2            39.7955377976       -3.0107556232      -29.7606539735  TIP3      12195           0.0000000000
     86416     12595  TIP3      H1             40.0396013393       -3.9507348200      -29.7656632483  TIP3      12195           0.0000000000
     86417     12595  TIP3      H2             40.0449979405       -2.7415442572      -28.8676278323  TIP3      12195           0.0000000000
     86418     12596  TIP3      OH2            44.5711055627       -4.9747901916      -40.0769660510  TIP3      12196           0.0000000000
     86419     12596  TIP3      H1             44.7602558523       -5.5083209325      -39.2954557725  TIP3      12196           0.0000000000
     86420     12596  TIP3      H2             44.5973341032       -4.0566933878      -39.7499097192  TIP3      12196           0.0000000000
     86421     12597  TIP3      OH2            41.0351490651       -7.7338194920      -39.5858568796  TIP3      12197           0.0000000000
     86422     12597  TIP3      H1             40.3581336988       -7.3510079695      -38.9928494984  TIP3      12197           0.0000000000
     86423     12597  TIP3      H2             41.5806891002       -6.9628232284      -39.8167176170  TIP3      12197           0.0000000000
     86424     12598  TIP3      OH2            48.8833711380      -15.0563180215      -29.2790745959  TIP3      12198           0.0000000000
     86425     12598  TIP3      H1             49.5895210217      -15.0041688846      -28.6219832631  TIP3      12198           0.0000000000
     86426     12598  TIP3      H2             48.5027872496      -15.9378787314      -29.0966005782  TIP3      12198           0.0000000000
     86427     12599  TIP3      OH2            49.6553057944      -15.4461404586      -38.1656044593  TIP3      12199           0.0000000000
     86428     12599  TIP3      H1             49.8865772610      -14.9625157463      -38.9871365877  TIP3      12199           0.0000000000
     86429     12599  TIP3      H2             50.2283579075      -15.0248174352      -37.5180733541  TIP3      12199           0.0000000000
     86430     12600  TIP3      OH2            47.3334378907       -3.3024877041      -39.3276267358  TIP3      12200           0.0000000000
     86431     12600  TIP3      H1             46.5136823416       -2.7840808733      -39.2751177485  TIP3      12200           0.0000000000
     86432     12600  TIP3      H2             47.8669570702       -2.8003387763      -39.9654469712  TIP3      12200           0.0000000000
     86433     12601  TIP3      OH2            46.8617067600      -13.7049892125      -37.3483924521  TIP3      12201           0.0000000000
     86434     12601  TIP3      H1             47.6731842972      -13.1647816374      -37.3112263870  TIP3      12201           0.0000000000
     86435     12601  TIP3      H2             46.6133319729      -13.8399826757      -36.4212792474  TIP3      12201           0.0000000000
     86436     12602  TIP3      OH2            47.4208267747      -12.6957410296      -28.1796612771  TIP3      12202           0.0000000000
     86437     12602  TIP3      H1             47.4987956694      -12.1391451021      -27.3823654273  TIP3      12202           0.0000000000
     86438     12602  TIP3      H2             48.0618285366      -13.4067456834      -28.0486402219  TIP3      12202           0.0000000000
     86439     12603  TIP3      OH2            47.7401551807      -16.6461289691      -36.4262736079  TIP3      12203           0.0000000000
     86440     12603  TIP3      H1             47.4048469973      -15.9966899905      -35.7832694990  TIP3      12203           0.0000000000
     86441     12603  TIP3      H2             48.4156258786      -16.1013768233      -36.8992558091  TIP3      12203           0.0000000000
     86442     12604  TIP3      OH2            44.6791116644       -2.2649611931      -39.3354897414  TIP3      12204           0.0000000000
     86443     12604  TIP3      H1             44.8446984671       -1.4386400458      -39.8344824657  TIP3      12204           0.0000000000
     86444     12604  TIP3      H2             44.4664155063       -1.9289927709      -38.4397789951  TIP3      12204           0.0000000000
     86445     12605  TIP3      OH2            43.3707097138      -15.5742288917      -39.7144154405  TIP3      12205           0.0000000000
     86446     12605  TIP3      H1             43.3421915268      -14.6486763698      -39.3773553562  TIP3      12205           0.0000000000
     86447     12605  TIP3      H2             44.2978921194      -15.8021037217      -39.4793855781  TIP3      12205           0.0000000000
     86448     12606  TIP3      OH2            53.6145489888      -14.8231035136      -27.3134434638  TIP3      12206           0.0000000000
     86449     12606  TIP3      H1             52.6758808202      -14.5384470970      -27.4265119513  TIP3      12206           0.0000000000
     86450     12606  TIP3      H2             53.9273770037      -14.8184943284      -28.2299997044  TIP3      12206           0.0000000000
     86451     12607  TIP3      OH2            52.1815927132      -11.0240574008      -33.2302210081  TIP3      12207           0.0000000000
     86452     12607  TIP3      H1             51.3914155365      -11.4769217534      -33.5655681050  TIP3      12207           0.0000000000
     86453     12607  TIP3      H2             52.6726635421      -11.7412664541      -32.7621106856  TIP3      12207           0.0000000000
     86454     12608  TIP3      OH2            41.6419501012       -5.1188556384      -40.6764675160  TIP3      12208           0.0000000000
     86455     12608  TIP3      H1             42.2717295587       -4.4475885650      -40.3899593609  TIP3      12208           0.0000000000
     86456     12608  TIP3      H2             42.1403022525       -5.5667207090      -41.3867900124  TIP3      12208           0.0000000000
     86457     12609  TIP3      OH2            39.9962399973      -12.4614620990      -41.5077834012  TIP3      12209           0.0000000000
     86458     12609  TIP3      H1             39.9539424356      -11.4941318049      -41.3828210091  TIP3      12209           0.0000000000
     86459     12609  TIP3      H2             39.1107830095      -12.6640461111      -41.8467931541  TIP3      12209           0.0000000000
     86460     12610  TIP3      OH2            53.2765007074       -1.7901204131      -31.6080996032  TIP3      12210           0.0000000000
     86461     12610  TIP3      H1             53.1635963757       -1.1105019920      -32.2901999716  TIP3      12210           0.0000000000
     86462     12610  TIP3      H2             54.2396497978       -1.7242920818      -31.4266191706  TIP3      12210           0.0000000000
     86463     12611  TIP3      OH2            40.7881569087      -17.6622195431      -32.8456068924  TIP3      12211           0.0000000000
     86464     12611  TIP3      H1             40.5612975885      -17.6289090356      -33.7973531747  TIP3      12211           0.0000000000
     86465     12611  TIP3      H2             40.3449217194      -18.4885735309      -32.5692176708  TIP3      12211           0.0000000000
     86466     12612  TIP3      OH2            39.7276627261       -3.7431495372      -36.6965520775  TIP3      12212           0.0000000000
     86467     12612  TIP3      H1             38.8832347724       -3.2674126091      -36.7011109165  TIP3      12212           0.0000000000
     86468     12612  TIP3      H2             40.2427784395       -3.2390497135      -37.3395022879  TIP3      12212           0.0000000000
     86469     12613  TIP3      OH2            38.9854095151       -1.0976141984      -25.3911267942  TIP3      12213           0.0000000000
     86470     12613  TIP3      H1             39.5530488793       -1.3215870106      -24.6274130902  TIP3      12213           0.0000000000
     86471     12613  TIP3      H2             38.5236645069       -1.9287988991      -25.5695676152  TIP3      12213           0.0000000000
     86472     12614  TIP3      OH2            43.5928454241       -2.1930498497      -23.7665672669  TIP3      12214           0.0000000000
     86473     12614  TIP3      H1             44.3714552043       -2.6641408049      -23.4362778854  TIP3      12214           0.0000000000
     86474     12614  TIP3      H2             43.5832768271       -2.4376732568      -24.7119782720  TIP3      12214           0.0000000000
     86475     12615  TIP3      OH2            48.0254328942       -2.5415990577      -41.8975878187  TIP3      12215           0.0000000000
     86476     12615  TIP3      H1             47.2269413745       -3.1283572495      -41.9661546861  TIP3      12215           0.0000000000
     86477     12615  TIP3      H2             48.4940766556       -3.1045773566      -42.5205227432  TIP3      12215           0.0000000000
     86478     12616  TIP3      OH2            50.1467734786       -3.8038874410      -25.0599540202  TIP3      12216           0.0000000000
     86479     12616  TIP3      H1             49.8245105221       -4.6800796737      -24.7775165271  TIP3      12216           0.0000000000
     86480     12616  TIP3      H2             50.9016008029       -3.6632193327      -24.4499274549  TIP3      12216           0.0000000000
     86481     12617  TIP3      OH2            52.2937822009       -2.8784887706      -42.1699834961  TIP3      12217           0.0000000000
     86482     12617  TIP3      H1             52.5776505729       -3.6776137262      -41.7028955108  TIP3      12217           0.0000000000
     86483     12617  TIP3      H2             53.0580227663       -2.6518466788      -42.7178573327  TIP3      12217           0.0000000000
     86484     12618  TIP3      OH2            43.2763125612       -6.9190544118      -42.2608237450  TIP3      12218           0.0000000000
     86485     12618  TIP3      H1             43.3275346334       -7.7521094031      -41.7775356181  TIP3      12218           0.0000000000
     86486     12618  TIP3      H2             43.8869312058       -7.1119720805      -42.9983385869  TIP3      12218           0.0000000000
     86487     12619  TIP3      OH2            45.5771415816       -7.3274763487      -24.9992618930  TIP3      12219           0.0000000000
     86488     12619  TIP3      H1             45.2299931319       -7.0499348629      -25.8649678798  TIP3      12219           0.0000000000
     86489     12619  TIP3      H2             45.6845621794       -8.3019943541      -25.0940888246  TIP3      12219           0.0000000000
     86490     12620  TIP3      OH2            51.3016159149       -7.3578853543      -27.5709052919  TIP3      12220           0.0000000000
     86491     12620  TIP3      H1             52.0791969097       -6.7841969058      -27.7204232853  TIP3      12220           0.0000000000
     86492     12620  TIP3      H2             50.5458477528       -6.7521925095      -27.5631816187  TIP3      12220           0.0000000000
     86493     12621  TIP3      OH2            39.7641342469      -10.0910251676      -25.0123019390  TIP3      12221           0.0000000000
     86494     12621  TIP3      H1             40.1628905262      -10.9572312555      -25.1240346299  TIP3      12221           0.0000000000
     86495     12621  TIP3      H2             39.4972358654      -10.0937518792      -24.0821867525  TIP3      12221           0.0000000000
     86496     12622  TIP3      OH2            44.4036567947       -8.9547420074      -39.9808901972  TIP3      12222           0.0000000000
     86497     12622  TIP3      H1             43.9295526884       -9.4776176785      -39.3131713287  TIP3      12222           0.0000000000
     86498     12622  TIP3      H2             44.6814140844       -9.6568323066      -40.6167159590  TIP3      12222           0.0000000000
     86499     12623  TIP3      OH2            43.6855734626      -11.1253273214      -27.6407982446  TIP3      12223           0.0000000000
     86500     12623  TIP3      H1             43.0708244951      -10.4223970194      -27.3713692043  TIP3      12223           0.0000000000
     86501     12623  TIP3      H2             44.0448126114      -10.7736190657      -28.4720703119  TIP3      12223           0.0000000000
     86502     12624  TIP3      OH2            45.4684478550      -10.7395105811      -41.7348161488  TIP3      12224           0.0000000000
     86503     12624  TIP3      H1             45.3186543565      -10.9123825280      -42.6726895295  TIP3      12224           0.0000000000
     86504     12624  TIP3      H2             46.4465374615      -10.6443005137      -41.6662058442  TIP3      12224           0.0000000000
     86505     12625  TIP3      OH2            48.7295394613       -8.6047577780      -24.3694962984  TIP3      12225           0.0000000000
     86506     12625  TIP3      H1             49.6906831137       -8.5641100163      -24.3643180426  TIP3      12225           0.0000000000
     86507     12625  TIP3      H2             48.5533397445       -9.3269382732      -23.7439908733  TIP3      12225           0.0000000000
     86508     12626  TIP3      OH2            54.7225332245       -8.2975499756       42.7957409034  TIP3      12226           0.0000000000
     86509     12626  TIP3      H1             54.5931633368       -8.8046480944       41.9418218179  TIP3      12226           0.0000000000
     86510     12626  TIP3      H2             54.9044999561       -7.4150300866       42.4524728777  TIP3      12226           0.0000000000
     86511     12627  TIP3      OH2            44.0533836283      -13.7560229450      -26.5613683478  TIP3      12227           0.0000000000
     86512     12627  TIP3      H1             44.1848574028      -14.4797401162      -27.1930877921  TIP3      12227           0.0000000000
     86513     12627  TIP3      H2             44.0311854714      -12.9581906242      -27.1280535456  TIP3      12227           0.0000000000
     86514     12628  TIP3      OH2            44.4614008460      -15.3823579814      -29.0453962181  TIP3      12228           0.0000000000
     86515     12628  TIP3      H1             44.9851085627      -14.9213206063      -29.7390565841  TIP3      12228           0.0000000000
     86516     12628  TIP3      H2             43.5804811995      -15.4762500166      -29.4765231603  TIP3      12228           0.0000000000
     86517     12629  TIP3      OH2            46.0389668891       -9.9198354472      -28.7976118599  TIP3      12229           0.0000000000
     86518     12629  TIP3      H1             46.7666903690      -10.0857523161      -29.3990579885  TIP3      12229           0.0000000000
     86519     12629  TIP3      H2             45.6656308264       -9.0781253288      -29.1143015055  TIP3      12229           0.0000000000
     86520     12630  TIP3      OH2            50.4267309580      -12.1183465316      -23.8717448236  TIP3      12230           0.0000000000
     86521     12630  TIP3      H1             50.6294950352      -13.0595569713      -23.8851223014  TIP3      12230           0.0000000000
     86522     12630  TIP3      H2             51.2935143295      -11.7013423905      -23.7783041249  TIP3      12230           0.0000000000
     86523     12631  TIP3      OH2            51.7375669364       -9.3756344460      -25.7705788191  TIP3      12231           0.0000000000
     86524     12631  TIP3      H1             51.5141814532       -8.5659820671      -26.2501641958  TIP3      12231           0.0000000000
     86525     12631  TIP3      H2             52.7247403394       -9.3855020611      -25.8416363325  TIP3      12231           0.0000000000
     86526     12632  TIP3      OH2            42.5177751898      -12.5347398674      -24.6514736252  TIP3      12232           0.0000000000
     86527     12632  TIP3      H1             41.7449623622      -13.0885407380      -24.8522201081  TIP3      12232           0.0000000000
     86528     12632  TIP3      H2             43.1928787334      -12.8700671653      -25.2623520532  TIP3      12232           0.0000000000
     86529     12633  TIP3      OH2            45.2607007000      -17.9418556389      -28.6248898246  TIP3      12233           0.0000000000
     86530     12633  TIP3      H1             45.1235895234      -16.9722144026      -28.7415163760  TIP3      12233           0.0000000000
     86531     12633  TIP3      H2             44.5041001308      -18.2967950989      -29.1270832078  TIP3      12233           0.0000000000
     86532     12634  TIP3      OH2            46.5271129977      -13.6221810217      -25.0641638383  TIP3      12234           0.0000000000
     86533     12634  TIP3      H1             46.2614795725      -13.8142547512      -24.1378666965  TIP3      12234           0.0000000000
     86534     12634  TIP3      H2             45.7180546194      -13.8165252197      -25.5713269959  TIP3      12234           0.0000000000
     86535     12635  TIP3      OH2            49.2474421801      -14.4700400217      -25.9899984629  TIP3      12235           0.0000000000
     86536     12635  TIP3      H1             48.2832196371      -14.4332088172      -25.8443973399  TIP3      12235           0.0000000000
     86537     12635  TIP3      H2             49.5322255254      -15.1034601592      -25.3119624956  TIP3      12235           0.0000000000
     86538     12636  TIP3      OH2            50.8647652576      -15.8336494607      -23.9768022903  TIP3      12236           0.0000000000
     86539     12636  TIP3      H1             50.7722911568      -16.8079335183      -23.9949501244  TIP3      12236           0.0000000000
     86540     12636  TIP3      H2             50.5375846443      -15.5749595720      -23.1125216305  TIP3      12236           0.0000000000
     86541     12637  TIP3      OH2            40.6605614526      -14.6089487425      -24.9344010209  TIP3      12237           0.0000000000
     86542     12637  TIP3      H1             40.8955981332      -15.3312838090      -25.5506435075  TIP3      12237           0.0000000000
     86543     12637  TIP3      H2             40.5729794254      -15.0575403948      -24.0965114886  TIP3      12237           0.0000000000
     86544     12638  TIP3      OH2            45.4739036823      -18.5980190565      -25.9466466411  TIP3      12238           0.0000000000
     86545     12638  TIP3      H1             46.1839955544      -19.2715939059      -25.9845932999  TIP3      12238           0.0000000000
     86546     12638  TIP3      H2             45.3724099366      -18.3790488962      -26.8893498150  TIP3      12238           0.0000000000
     86547     12639  TIP3      OH2            45.8437780228      -16.9467726000      -23.8658856810  TIP3      12239           0.0000000000
     86548     12639  TIP3      H1             45.6897668324      -17.4333207296      -24.7153879612  TIP3      12239           0.0000000000
     86549     12639  TIP3      H2             45.2333651548      -16.1906637676      -23.9660028445  TIP3      12239           0.0000000000
     86550     12640  TIP3      OH2            45.3401898313       -0.0535378913      -40.7335367623  TIP3      12240           0.0000000000
     86551     12640  TIP3      H1             46.3043105479        0.0864331329      -40.5918563850  TIP3      12240           0.0000000000
     86552     12640  TIP3      H2             45.1213979053        0.6255451418      -41.3672489590  TIP3      12240           0.0000000000
     86553     12641  TIP3      OH2            38.9075467635       -5.4282524904      -41.2232085363  TIP3      12241           0.0000000000
     86554     12641  TIP3      H1             39.8610544489       -5.3487213563      -40.9790175196  TIP3      12241           0.0000000000
     86555     12641  TIP3      H2             38.9405891075       -6.0846406746      -41.9264998009  TIP3      12241           0.0000000000
     86556     12642  TIP3      OH2            37.6152988075       -0.0460620810      -36.2056618595  TIP3      12242           0.0000000000
     86557     12642  TIP3      H1             36.9365379007       -0.5303290445      -36.7024095143  TIP3      12242           0.0000000000
     86558     12642  TIP3      H2             37.9410899979       -0.7129519739      -35.5739312120  TIP3      12242           0.0000000000
     86559     12643  TIP3      OH2            38.4642147352       -1.9424008018      -34.3723203224  TIP3      12243           0.0000000000
     86560     12643  TIP3      H1             38.1208725691       -2.8273060293      -34.1788467264  TIP3      12243           0.0000000000
     86561     12643  TIP3      H2             38.6873690884       -1.6077308246      -33.4852009493  TIP3      12243           0.0000000000
     86562     12644  TIP3      OH2            55.9658774452       -1.1442779214      -31.3885893361  TIP3      12244           0.0000000000
     86563     12644  TIP3      H1             55.9973023670       -0.9597206651      -30.4382659763  TIP3      12244           0.0000000000
     86564     12644  TIP3      H2             56.6964891838       -0.5900463598      -31.7178775225  TIP3      12244           0.0000000000
     86565     12645  TIP3      OH2            55.5913604225       -1.5530076205      -28.4747022732  TIP3      12245           0.0000000000
     86566     12645  TIP3      H1             55.0846906306       -2.3174894092      -28.8412909957  TIP3      12245           0.0000000000
     86567     12645  TIP3      H2             56.1122435353       -1.9714059495      -27.7776935327  TIP3      12245           0.0000000000
     86568     12646  TIP3      OH2            55.3028303875       -7.5292208333      -38.3355287000  TIP3      12246           0.0000000000
     86569     12646  TIP3      H1             56.1770348126       -7.1025878426      -38.1462640611  TIP3      12246           0.0000000000
     86570     12646  TIP3      H2             55.3360825983       -8.2586471149      -37.6635463752  TIP3      12246           0.0000000000
     86571     12647  TIP3      OH2            55.6939969669       -9.4107184621      -36.5045649069  TIP3      12247           0.0000000000
     86572     12647  TIP3      H1             54.9749345566       -9.9470781288      -36.0918988459  TIP3      12247           0.0000000000
     86573     12647  TIP3      H2             56.3048748431       -9.2729955337      -35.7363884870  TIP3      12247           0.0000000000
     86574     12648  TIP3      OH2            55.4692834587       -6.7155073176      -31.5040225292  TIP3      12248           0.0000000000
     86575     12648  TIP3      H1             56.3094488718       -7.0821158914      -31.8376154805  TIP3      12248           0.0000000000
     86576     12648  TIP3      H2             55.5912327916       -5.7514360681      -31.6751421361  TIP3      12248           0.0000000000
     86577     12649  TIP3      OH2            53.9795205485       -3.8286431842      -29.2254405791  TIP3      12249           0.0000000000
     86578     12649  TIP3      H1             53.3096538081       -3.4789225635      -28.6163871991  TIP3      12249           0.0000000000
     86579     12649  TIP3      H2             53.4359676264       -4.2397537502      -29.9272216315  TIP3      12249           0.0000000000
     86580     12650  TIP3      OH2            55.9155581476       -9.5867924254      -40.0758358571  TIP3      12250           0.0000000000
     86581     12650  TIP3      H1             55.4464395956       -9.2363416372      -40.8425309648  TIP3      12250           0.0000000000
     86582     12650  TIP3      H2             55.9674741455       -8.8912829569      -39.4025644762  TIP3      12250           0.0000000000
     86583     12651  TIP3      OH2            54.0842324297      -12.3102545046      -41.4568242922  TIP3      12251           0.0000000000
     86584     12651  TIP3      H1             54.4305950009      -11.7234577261      -42.1641667689  TIP3      12251           0.0000000000
     86585     12651  TIP3      H2             54.1915535074      -13.1372211603      -41.9835946973  TIP3      12251           0.0000000000
     86586     12652  TIP3      OH2            53.5117170300      -10.9396352961      -35.9392422612  TIP3      12252           0.0000000000
     86587     12652  TIP3      H1             53.3558908353      -11.8989847391      -35.9503225153  TIP3      12252           0.0000000000
     86588     12652  TIP3      H2             53.1575311777      -10.6878851081      -35.0673504809  TIP3      12252           0.0000000000
     86589     12653  TIP3      OH2            38.5235597931       -8.8647404472      -31.8853418511  TIP3      12253           0.0000000000
     86590     12653  TIP3      H1             38.7223176146       -8.9504037802      -32.8440624085  TIP3      12253           0.0000000000
     86591     12653  TIP3      H2             39.4085231469       -9.0137334977      -31.4996568728  TIP3      12253           0.0000000000
     86592     12654  TIP3      OH2            54.3391374974       -8.9725551199      -26.2640187182  TIP3      12254           0.0000000000
     86593     12654  TIP3      H1             54.9622880448       -9.7180107898      -26.0887179337  TIP3      12254           0.0000000000
     86594     12654  TIP3      H2             54.9492926443       -8.2037113534      -26.2392303893  TIP3      12254           0.0000000000
     86595     12655  TIP3      OH2            55.8479854503      -11.0576284084      -25.6212622167  TIP3      12255           0.0000000000
     86596     12655  TIP3      H1             54.9847995921      -11.4876581348      -25.7493255498  TIP3      12255           0.0000000000
     86597     12655  TIP3      H2             56.4422148760      -11.8379509337      -25.6627604054  TIP3      12255           0.0000000000
     86598     12656  TIP3      OH2            53.5916177008      -14.9327313908      -42.4585385045  TIP3      12256           0.0000000000
     86599     12656  TIP3      H1             54.1946940204      -15.3207834224      -41.7944949185  TIP3      12256           0.0000000000
     86600     12656  TIP3      H2             52.7367578658      -15.3350590449      -42.2416423108  TIP3      12256           0.0000000000
     86601     12657  TIP3      OH2            53.1962917269      -13.3591157294      -37.4562409845  TIP3      12257           0.0000000000
     86602     12657  TIP3      H1             53.4975543126      -14.2899960176      -37.3393855224  TIP3      12257           0.0000000000
     86603     12657  TIP3      H2             53.9748997930      -12.9410861543      -37.8516919108  TIP3      12257           0.0000000000
     86604     12658  TIP3      OH2            53.7747468976      -12.8125323157      -32.0387881525  TIP3      12258           0.0000000000
     86605     12658  TIP3      H1             54.7482719737      -12.5876661577      -32.0466980261  TIP3      12258           0.0000000000
     86606     12658  TIP3      H2             53.6036075212      -12.6864524923      -31.0946780805  TIP3      12258           0.0000000000
     86607     12659  TIP3      OH2            53.8717143014      -12.0775399619      -29.2497523851  TIP3      12259           0.0000000000
     86608     12659  TIP3      H1             53.0093093492      -11.7934655897      -28.9005470765  TIP3      12259           0.0000000000
     86609     12659  TIP3      H2             54.3233886417      -11.2281678032      -29.4652809521  TIP3      12259           0.0000000000
     86610     12660  TIP3      OH2            38.1241942313      -13.5832068066      -25.7477686857  TIP3      12260           0.0000000000
     86611     12660  TIP3      H1             39.0657287140      -13.7404358619      -25.5340767342  TIP3      12260           0.0000000000
     86612     12660  TIP3      H2             37.6860459338      -14.3810684336      -25.3966853352  TIP3      12260           0.0000000000
     86613     12661  TIP3      OH2            53.8260333684      -16.0769977929      -37.4170215374  TIP3      12261           0.0000000000
     86614     12661  TIP3      H1             54.0210852869      -16.5409265953      -36.5782178991  TIP3      12261           0.0000000000
     86615     12661  TIP3      H2             53.2253485738      -16.7033687931      -37.8765411985  TIP3      12261           0.0000000000
     86616     12662  TIP3      OH2            39.3415717995      -15.2803100514      -32.8777739459  TIP3      12262           0.0000000000
     86617     12662  TIP3      H1             39.8064928295      -16.0903528986      -32.5850444561  TIP3      12262           0.0000000000
     86618     12662  TIP3      H2             39.8481355537      -14.5726494963      -32.4561499424  TIP3      12262           0.0000000000
     86619     12663  TIP3      OH2            37.6332444213      -12.2921683846      -31.8110714629  TIP3      12263           0.0000000000
     86620     12663  TIP3      H1             38.1752820768      -12.5103251222      -32.5982959979  TIP3      12263           0.0000000000
     86621     12663  TIP3      H2             38.0517318476      -11.4586042216      -31.5441333174  TIP3      12263           0.0000000000
     86622     12664  TIP3      OH2            55.6732589055      -15.9667858966      -25.5241048054  TIP3      12264           0.0000000000
     86623     12664  TIP3      H1             54.7402196240      -15.6907010426      -25.6006669542  TIP3      12264           0.0000000000
     86624     12664  TIP3      H2             55.7629975976      -16.5043064885      -26.3239022892  TIP3      12264           0.0000000000
     86625     12665  TIP3      OH2            55.6675409024      -16.0373644361      -40.8780538066  TIP3      12265           0.0000000000
     86626     12665  TIP3      H1             56.1130138182      -16.7521600070      -41.3550522915  TIP3      12265           0.0000000000
     86627     12665  TIP3      H2             56.3842263200      -15.3718708536      -40.8315353048  TIP3      12265           0.0000000000
     86628     12666  TIP3      OH2            38.0048842200      -16.0411204065      -37.7831028418  TIP3      12266           0.0000000000
     86629     12666  TIP3      H1             37.0454241051      -15.8309009670      -37.8681007640  TIP3      12266           0.0000000000
     86630     12666  TIP3      H2             38.3595476254      -15.4845792582      -38.4621365077  TIP3      12266           0.0000000000
     86631     12667  TIP3      OH2            52.7277921302       -1.0311163344      -35.7980848331  TIP3      12267           0.0000000000
     86632     12667  TIP3      H1             53.3945559129       -1.3897239252      -36.4237090594  TIP3      12267           0.0000000000
     86633     12667  TIP3      H2             53.2872755140       -0.5779661351      -35.1579566241  TIP3      12267           0.0000000000
     86634     12668  TIP3      OH2            37.9480141257      -17.3202864460      -29.4282242794  TIP3      12268           0.0000000000
     86635     12668  TIP3      H1             37.2673548804      -17.5415416790      -28.7694527992  TIP3      12268           0.0000000000
     86636     12668  TIP3      H2             37.4841691692      -16.6675439654      -29.9950168004  TIP3      12268           0.0000000000
     86637     12669  TIP3      OH2            40.1449507611       -4.1534744057      -25.2690328753  TIP3      12269           0.0000000000
     86638     12669  TIP3      H1             39.3178936418       -3.9354494404      -25.7333140036  TIP3      12269           0.0000000000
     86639     12669  TIP3      H2             39.8875729446       -4.1843939634      -24.3525178077  TIP3      12269           0.0000000000
     86640     12670  TIP3      OH2            43.0741144049       -3.1588049283      -29.0059441827  TIP3      12270           0.0000000000
     86641     12670  TIP3      H1             42.6942790556       -2.3171838445      -29.2938723209  TIP3      12270           0.0000000000
     86642     12670  TIP3      H2             43.9979723607       -3.0542598796      -29.3188581077  TIP3      12270           0.0000000000
     86643     12671  TIP3      OH2            47.3920978781       -1.7379558941      -26.0743083344  TIP3      12271           0.0000000000
     86644     12671  TIP3      H1             47.5778903805       -2.0671453699      -25.1569125510  TIP3      12271           0.0000000000
     86645     12671  TIP3      H2             48.2735889564       -1.4329756707      -26.3628898262  TIP3      12271           0.0000000000
     86646     12672  TIP3      OH2            49.7064711793       -0.4626723567      -26.8076403955  TIP3      12272           0.0000000000
     86647     12672  TIP3      H1             50.4250216110       -1.0748404727      -27.0424633429  TIP3      12272           0.0000000000
     86648     12672  TIP3      H2             50.0695557614       -0.0558124347      -25.9920658935  TIP3      12272           0.0000000000
     86649     12673  TIP3      OH2            54.6508710425      -17.8599993333      -27.6853600731  TIP3      12273           0.0000000000
     86650     12673  TIP3      H1             53.8427289442      -17.5410656814      -28.1169442579  TIP3      12273           0.0000000000
     86651     12673  TIP3      H2             54.8795013375      -18.6412429965      -28.2363195257  TIP3      12273           0.0000000000
     86652     12674  TIP3      OH2            40.5008559971        0.0958603414      -28.9846627736  TIP3      12274           0.0000000000
     86653     12674  TIP3      H1             39.7653096213        0.5666016808      -29.4118708171  TIP3      12274           0.0000000000
     86654     12674  TIP3      H2             40.1464852428       -0.1257461786      -28.1102572004  TIP3      12274           0.0000000000
     86655     12675  TIP3      OH2            42.9725024679       -0.3173874396      -29.9331749032  TIP3      12275           0.0000000000
     86656     12675  TIP3      H1             42.0775378426       -0.2033986579      -29.5354543184  TIP3      12275           0.0000000000
     86657     12675  TIP3      H2             42.8996330044        0.2609181275      -30.7187330471  TIP3      12275           0.0000000000
     86658     12676  TIP3      OH2            47.6837329975       -0.4102168133      -30.7738996588  TIP3      12276           0.0000000000
     86659     12676  TIP3      H1             47.1979200522        0.1290673069      -31.4148278104  TIP3      12276           0.0000000000
     86660     12676  TIP3      H2             47.8140923180        0.2078825876      -30.0268724047  TIP3      12276           0.0000000000
     86661     12677  TIP3      OH2            49.9898059631       -1.5711533466      -29.7895755416  TIP3      12277           0.0000000000
     86662     12677  TIP3      H1             49.0932949919       -1.3476690096      -30.0895520243  TIP3      12277           0.0000000000
     86663     12677  TIP3      H2             50.4234185274       -0.7039092943      -29.8624785411  TIP3      12277           0.0000000000
     86664     12678  TIP3      OH2            52.5753561616        0.0082321201      -29.5171602927  TIP3      12278           0.0000000000
     86665     12678  TIP3      H1             52.4424562501        0.9565025102      -29.7412074447  TIP3      12278           0.0000000000
     86666     12678  TIP3      H2             52.7719704522       -0.3880484028      -30.3814431729  TIP3      12278           0.0000000000
     86667     12679  TIP3      OH2            39.9152477563       -1.2587466120      -32.0660671445  TIP3      12279           0.0000000000
     86668     12679  TIP3      H1             39.8777354599       -1.7068964344      -31.1939221826  TIP3      12279           0.0000000000
     86669     12679  TIP3      H2             40.7379250421       -1.6084419534      -32.4646840739  TIP3      12279           0.0000000000
     86670     12680  TIP3      OH2            42.0288024650       -2.5466859740      -33.4142940114  TIP3      12280           0.0000000000
     86671     12680  TIP3      H1             41.8420199253       -3.4815945948      -33.2111049536  TIP3      12280           0.0000000000
     86672     12680  TIP3      H2             42.8811911779       -2.4142446949      -32.9413562615  TIP3      12280           0.0000000000
     86673     12681  TIP3      OH2            44.6020976790       -2.0697234659      -32.5491896766  TIP3      12281           0.0000000000
     86674     12681  TIP3      H1             44.7974421505       -2.9833549777      -32.8235302268  TIP3      12281           0.0000000000
     86675     12681  TIP3      H2             44.6580825460       -2.1349748891      -31.5865533612  TIP3      12281           0.0000000000
     86676     12682  TIP3      OH2            48.0912761740      -16.4154069058      -33.4009923817  TIP3      12282           0.0000000000
     86677     12682  TIP3      H1             47.4140034854      -17.0613761264      -33.1425119526  TIP3      12282           0.0000000000
     86678     12682  TIP3      H2             48.6480196383      -16.9272603097      -34.0010727684  TIP3      12282           0.0000000000
     86679     12683  TIP3      OH2            53.2292975854      -18.3459242704      -33.3022334787  TIP3      12283           0.0000000000
     86680     12683  TIP3      H1             53.8429826447      -17.7594174278      -33.8212301743  TIP3      12283           0.0000000000
     86681     12683  TIP3      H2             52.3534262425      -17.9907562011      -33.5514068998  TIP3      12283           0.0000000000
     86682     12684  TIP3      OH2            54.9025207523      -17.1424072246      -34.9852578319  TIP3      12284           0.0000000000
     86683     12684  TIP3      H1             55.5692978030      -17.6811002413      -35.4812195080  TIP3      12284           0.0000000000
     86684     12684  TIP3      H2             55.3561929855      -16.2745308771      -34.9425530587  TIP3      12284           0.0000000000
     86685     12685  TIP3      OH2            40.4487530757      -17.7722039627      -35.5886669259  TIP3      12285           0.0000000000
     86686     12685  TIP3      H1             39.6416609171      -18.0287608133      -36.0744180416  TIP3      12285           0.0000000000
     86687     12685  TIP3      H2             40.9378291945      -18.6193993834      -35.5827127581  TIP3      12285           0.0000000000
     86688     12686  TIP3      OH2            39.2564309872      -18.0088262435      -39.7720094109  TIP3      12286           0.0000000000
     86689     12686  TIP3      H1             39.6817438912      -17.4279708472      -40.4335427973  TIP3      12286           0.0000000000
     86690     12686  TIP3      H2             38.5787617733      -17.4935426754      -39.3069854120  TIP3      12286           0.0000000000
     86691     12687  TIP3      OH2            44.9666830167      -17.8652778773      -35.7740165665  TIP3      12287           0.0000000000
     86692     12687  TIP3      H1             45.8629509809      -17.4853844243      -35.8112779979  TIP3      12287           0.0000000000
     86693     12687  TIP3      H2             44.8782954241      -18.0770091100      -34.8446671713  TIP3      12287           0.0000000000
     86694     12688  TIP3      OH2            50.6068728117      -17.8419871366      -34.1210902647  TIP3      12288           0.0000000000
     86695     12688  TIP3      H1             50.6300099173      -17.7441141622      -35.0787895592  TIP3      12288           0.0000000000
     86696     12688  TIP3      H2             50.2556441898      -18.7524860496      -34.0049805543  TIP3      12288           0.0000000000
     86697     12689  TIP3      OH2            51.9240368440      -17.8048964939      -38.4479064605  TIP3      12289           0.0000000000
     86698     12689  TIP3      H1             51.1948770674      -17.1998230644      -38.6376412022  TIP3      12289           0.0000000000
     86699     12689  TIP3      H2             51.4623681978      -18.6592579275      -38.2852924366  TIP3      12289           0.0000000000
     86700     12690  TIP3      OH2            39.1647284961       -2.0696364227      -38.8455353956  TIP3      12290           0.0000000000
     86701     12690  TIP3      H1             38.4793834210       -2.0759734477      -39.5450114042  TIP3      12290           0.0000000000
     86702     12690  TIP3      H2             39.1596310241       -1.1269352436      -38.6243783175  TIP3      12290           0.0000000000
     86703     12691  TIP3      OH2            41.0711011137      -16.1333875048      -41.2744669078  TIP3      12291           0.0000000000
     86704     12691  TIP3      H1             41.5974917873      -16.6968950855      -41.8701344493  TIP3      12291           0.0000000000
     86705     12691  TIP3      H2             41.7774691563      -15.7579809606      -40.7186312580  TIP3      12291           0.0000000000
     86706     12692  TIP3      OH2            46.1150766437      -15.8152216181      -38.9112080340  TIP3      12292           0.0000000000
     86707     12692  TIP3      H1             46.3320932319      -16.4229602525      -38.1847690090  TIP3      12292           0.0000000000
     86708     12692  TIP3      H2             46.1142342062      -14.9600999761      -38.4178867788  TIP3      12292           0.0000000000
     86709     12693  TIP3      OH2            47.9878346788       -0.6535507786      -40.3974879252  TIP3      12293           0.0000000000
     86710     12693  TIP3      H1             48.9123755469       -0.4895475324      -40.6484108993  TIP3      12293           0.0000000000
     86711     12693  TIP3      H2             47.7988009289       -1.2284962533      -41.1974204192  TIP3      12293           0.0000000000
     86712     12694  TIP3      OH2            54.6865405000       -1.2748315042      -37.7847381753  TIP3      12294           0.0000000000
     86713     12694  TIP3      H1             54.5238513857       -2.0418264780      -38.3728359400  TIP3      12294           0.0000000000
     86714     12694  TIP3      H2             54.6761639155       -0.5241318875      -38.4051837660  TIP3      12294           0.0000000000
     86715     12695  TIP3      OH2            40.3478190817      -17.2520910656      -26.0866517318  TIP3      12295           0.0000000000
     86716     12695  TIP3      H1             39.9966914382      -18.0483611429      -25.6456150794  TIP3      12295           0.0000000000
     86717     12695  TIP3      H2             41.2812667214      -17.2700107180      -25.7655177679  TIP3      12295           0.0000000000
     86718     12696  TIP3      OH2            42.3533480300      -17.8908995726      -24.5003382285  TIP3      12296           0.0000000000
     86719     12696  TIP3      H1             43.2510457006      -18.2117008872      -24.7167562407  TIP3      12296           0.0000000000
     86720     12696  TIP3      H2             41.9647818905      -18.6719729618      -24.0734953354  TIP3      12296           0.0000000000
     86721     12697  TIP3      OH2            40.9748691003       -1.1162176346      -41.8640855032  TIP3      12297           0.0000000000
     86722     12697  TIP3      H1             40.6974996369       -0.8375340869      -40.9813797974  TIP3      12297           0.0000000000
     86723     12697  TIP3      H2             41.7394186675       -1.6671235822      -41.7020943570  TIP3      12297           0.0000000000
     86724     12698  TIP3      OH2            50.7607891962      -18.5694890875      -24.3464619145  TIP3      12298           0.0000000000
     86725     12698  TIP3      H1             50.8498741051      -19.0292588737      -23.4883357107  TIP3      12298           0.0000000000
     86726     12698  TIP3      H2             51.6753459053      -18.5924696982      -24.6820415839  TIP3      12298           0.0000000000
     86727     12699  TIP3      OH2            53.9784011762       -2.5183713302      -25.6779060343  TIP3      12299           0.0000000000
     86728     12699  TIP3      H1             53.1618932064       -2.6916112232      -26.1862361956  TIP3      12299           0.0000000000
     86729     12699  TIP3      H2             53.8666345895       -1.5727464545      -25.4506682507  TIP3      12299           0.0000000000
     86730     12700  TIP3      OH2           -44.7586871288       10.2051767136      -35.6509579302  TIP3      12300           0.0000000000
     86731     12700  TIP3      H1            -44.7148397235       11.1800695425      -35.7505842107  TIP3      12300           0.0000000000
     86732     12700  TIP3      H2            -45.4415153887        9.9581089143      -36.2931299317  TIP3      12300           0.0000000000
     86733     12701  TIP3      OH2           -45.8655270621        9.4783842861      -32.1935065926  TIP3      12301           0.0000000000
     86734     12701  TIP3      H1            -45.8917083039        8.8203282324      -31.4922909250  TIP3      12301           0.0000000000
     86735     12701  TIP3      H2            -46.1893768603        8.9892920050      -32.9686653852  TIP3      12301           0.0000000000
     86736     12702  TIP3      OH2           -53.5099236377        9.1160105274      -30.6282560306  TIP3      12302           0.0000000000
     86737     12702  TIP3      H1            -53.4312340733        8.4527789869      -29.9189143099  TIP3      12302           0.0000000000
     86738     12702  TIP3      H2            -52.7742392624        9.7145241145      -30.4361319942  TIP3      12302           0.0000000000
     86739     12703  TIP3      OH2           -42.1648298008       12.4063626111      -33.9208093983  TIP3      12303           0.0000000000
     86740     12703  TIP3      H1            -42.5974077542       11.6946260531      -33.4387547300  TIP3      12303           0.0000000000
     86741     12703  TIP3      H2            -42.1571751662       13.1313072105      -33.2558651838  TIP3      12303           0.0000000000
     86742     12704  TIP3      OH2           -52.5839229175       13.5706654735      -32.0973917884  TIP3      12304           0.0000000000
     86743     12704  TIP3      H1            -52.9173481574       12.7275882475      -32.4533912609  TIP3      12304           0.0000000000
     86744     12704  TIP3      H2            -51.6305102283       13.3761407143      -32.0544774843  TIP3      12304           0.0000000000
     86745     12705  TIP3      OH2           -55.9746257056        7.1412070082      -36.6590804830  TIP3      12305           0.0000000000
     86746     12705  TIP3      H1            -56.4113388906        8.0375759855      -36.7160508403  TIP3      12305           0.0000000000
     86747     12705  TIP3      H2            -56.5592022134        6.6110601399      -37.2242795087  TIP3      12305           0.0000000000
     86748     12706  TIP3      OH2           -55.2453713701        9.3453948134      -34.5675577719  TIP3      12306           0.0000000000
     86749     12706  TIP3      H1            -55.0096861033        8.5755540750      -34.0208621522  TIP3      12306           0.0000000000
     86750     12706  TIP3      H2            -54.4984102102        9.4859452883      -35.1498870560  TIP3      12306           0.0000000000
     86751     12707  TIP3      OH2           -45.0575508382       17.5498908873      -33.6866387330  TIP3      12307           0.0000000000
     86752     12707  TIP3      H1            -44.4081634201       16.8489399311      -33.9559722726  TIP3      12307           0.0000000000
     86753     12707  TIP3      H2            -45.2498456040       17.2740982616      -32.7916502175  TIP3      12307           0.0000000000
     86754     12708  TIP3      OH2           -47.4887727572       11.8946183200      -31.7719526513  TIP3      12308           0.0000000000
     86755     12708  TIP3      H1            -47.1528944075       11.2273949119      -32.3921959986  TIP3      12308           0.0000000000
     86756     12708  TIP3      H2            -46.7159186358       12.0237030583      -31.1952660455  TIP3      12308           0.0000000000
     86757     12709  TIP3      OH2           -38.8270080291        3.5619037779      -30.9795069938  TIP3      12309           0.0000000000
     86758     12709  TIP3      H1            -38.7162750482        4.1830880389      -30.2145552618  TIP3      12309           0.0000000000
     86759     12709  TIP3      H2            -38.3271261059        4.0163160346      -31.6856416516  TIP3      12309           0.0000000000
     86760     12710  TIP3      OH2           -44.3271277342        6.3286689471      -31.4376351807  TIP3      12310           0.0000000000
     86761     12710  TIP3      H1            -44.1783962860        5.3628069696      -31.4451598460  TIP3      12310           0.0000000000
     86762     12710  TIP3      H2            -44.4311057070        6.4906168765      -32.3980214526  TIP3      12310           0.0000000000
     86763     12711  TIP3      OH2           -51.1850125990        4.4142609076      -34.1892422111  TIP3      12311           0.0000000000
     86764     12711  TIP3      H1            -51.1120086307        5.2607265956      -34.6415804248  TIP3      12311           0.0000000000
     86765     12711  TIP3      H2            -51.6207831248        3.8421487592      -34.8548034423  TIP3      12311           0.0000000000
     86766     12712  TIP3      OH2           -43.4698390283        4.5193540497      -35.8150622546  TIP3      12312           0.0000000000
     86767     12712  TIP3      H1            -42.7996075092        4.1989510915      -35.1654793593  TIP3      12312           0.0000000000
     86768     12712  TIP3      H2            -42.9205539584        5.0629809544      -36.4023444395  TIP3      12312           0.0000000000
     86769     12713  TIP3      OH2           -54.5554927384        6.8397751532      -33.4635230161  TIP3      12313           0.0000000000
     86770     12713  TIP3      H1            -53.9027973607        6.2595996264      -32.9974852820  TIP3      12313           0.0000000000
     86771     12713  TIP3      H2            -54.5130212889        6.4788661515      -34.3410760391  TIP3      12313           0.0000000000
     86772     12714  TIP3      OH2           -49.4197493386        8.3736781802      -34.1886279232  TIP3      12314           0.0000000000
     86773     12714  TIP3      H1            -48.7680238431        7.8128464306      -33.7265202864  TIP3      12314           0.0000000000
     86774     12714  TIP3      H2            -49.9610956968        7.7031644539      -34.6346756912  TIP3      12314           0.0000000000
     86775     12715  TIP3      OH2           -38.4427323404        4.9348055445      -28.7210720554  TIP3      12315           0.0000000000
     86776     12715  TIP3      H1            -39.0822813462        5.6791515880      -28.8028529104  TIP3      12315           0.0000000000
     86777     12715  TIP3      H2            -38.3966538198        4.8195202282      -27.7567879445  TIP3      12315           0.0000000000
     86778     12716  TIP3      OH2           -52.3314130660        3.3138157543      -30.1405314974  TIP3      12316           0.0000000000
     86779     12716  TIP3      H1            -52.5846467475        3.8705382408      -30.8990898317  TIP3      12316           0.0000000000
     86780     12716  TIP3      H2            -53.0203698000        3.5503278355      -29.4743959652  TIP3      12316           0.0000000000
     86781     12717  TIP3      OH2           -44.9928503391       12.8095581459      -36.5879758052  TIP3      12317           0.0000000000
     86782     12717  TIP3      H1            -45.2915248717       12.5050406738      -37.4551223179  TIP3      12317           0.0000000000
     86783     12717  TIP3      H2            -45.3198368195       13.7347465844      -36.5506534609  TIP3      12317           0.0000000000
     86784     12718  TIP3      OH2           -49.7911636707       10.9661591645      -29.8587285106  TIP3      12318           0.0000000000
     86785     12718  TIP3      H1            -50.5169932927       11.6126550004      -29.7233495154  TIP3      12318           0.0000000000
     86786     12718  TIP3      H2            -49.0847173312       11.5555178819      -30.1706250623  TIP3      12318           0.0000000000
     86787     12719  TIP3      OH2           -41.6787464995        3.8315916275      -33.8240392879  TIP3      12319           0.0000000000
     86788     12719  TIP3      H1            -41.9021889344        3.0663495116      -33.2928680202  TIP3      12319           0.0000000000
     86789     12719  TIP3      H2            -41.0154842100        4.3017441715      -33.2972862863  TIP3      12319           0.0000000000
     86790     12720  TIP3      OH2           -52.7819276353        5.2095752067      -32.1722811292  TIP3      12320           0.0000000000
     86791     12720  TIP3      H1            -52.1328635705        5.8480137642      -31.7947987937  TIP3      12320           0.0000000000
     86792     12720  TIP3      H2            -52.2294464990        4.7409483887      -32.8433193156  TIP3      12320           0.0000000000
     86793     12721  TIP3      OH2           -51.3601328628       12.9435270915      -29.0727834260  TIP3      12321           0.0000000000
     86794     12721  TIP3      H1            -51.3913296903       13.8538564006      -29.4310931118  TIP3      12321           0.0000000000
     86795     12721  TIP3      H2            -52.2446467338       12.8874871330      -28.6384656049  TIP3      12321           0.0000000000
     86796     12722  TIP3      OH2           -55.2404673252       12.5986908389      -38.2842455495  TIP3      12322           0.0000000000
     86797     12722  TIP3      H1            -55.5096700260       12.8870110225      -39.1778514171  TIP3      12322           0.0000000000
     86798     12722  TIP3      H2            -55.2013129334       13.4550778798      -37.7998186940  TIP3      12322           0.0000000000
     86799     12723  TIP3      OH2           -41.6550123825       14.2254837826      -31.5790890441  TIP3      12323           0.0000000000
     86800     12723  TIP3      H1            -42.6027386222       14.3439593760      -31.4010937009  TIP3      12323           0.0000000000
     86801     12723  TIP3      H2            -41.3566666038       15.1609716423      -31.7007338700  TIP3      12323           0.0000000000
     86802     12724  TIP3      OH2           -41.3930361959        2.5795756307      -30.1438695344  TIP3      12324           0.0000000000
     86803     12724  TIP3      H1            -42.1326059654        3.1980563095      -30.1990368965  TIP3      12324           0.0000000000
     86804     12724  TIP3      H2            -40.7264748919        3.0313456436      -30.6859834817  TIP3      12324           0.0000000000
     86805     12725  TIP3      OH2           -48.3408834387        0.6408919770      -32.6894011716  TIP3      12325           0.0000000000
     86806     12725  TIP3      H1            -48.4700254721       -0.3253206863      -32.7416232292  TIP3      12325           0.0000000000
     86807     12725  TIP3      H2            -49.2146864272        0.9579502489      -32.3930205731  TIP3      12325           0.0000000000
     86808     12726  TIP3      OH2           -43.4087755716       16.0294274459      -34.9491476038  TIP3      12326           0.0000000000
     86809     12726  TIP3      H1            -42.9543011440       15.3187476976      -35.4392249208  TIP3      12326           0.0000000000
     86810     12726  TIP3      H2            -43.0258029787       16.8353210422      -35.3505060539  TIP3      12326           0.0000000000
     86811     12727  TIP3      OH2           -42.2036501568       13.9543116944      -36.4364283742  TIP3      12327           0.0000000000
     86812     12727  TIP3      H1            -42.4821513001       13.2493986935      -37.0450751920  TIP3      12327           0.0000000000
     86813     12727  TIP3      H2            -42.1554041074       13.4763875054      -35.5868374142  TIP3      12327           0.0000000000
     86814     12728  TIP3      OH2           -40.5396681367       12.4027762887      -27.8808061327  TIP3      12328           0.0000000000
     86815     12728  TIP3      H1            -40.4044354448       11.8952606315      -28.6927794252  TIP3      12328           0.0000000000
     86816     12728  TIP3      H2            -40.3876088884       13.3132501093      -28.2855229012  TIP3      12328           0.0000000000
     86817     12729  TIP3      OH2           -46.0706474038        9.4566585842      -38.1670622291  TIP3      12329           0.0000000000
     86818     12729  TIP3      H1            -46.7770613462       10.0104073467      -38.5491459064  TIP3      12329           0.0000000000
     86819     12729  TIP3      H2            -45.3706650973        9.5294301231      -38.8458112432  TIP3      12329           0.0000000000
     86820     12730  TIP3      OH2           -46.0241965117        7.9464275043      -41.1265723017  TIP3      12330           0.0000000000
     86821     12730  TIP3      H1            -45.3019099920        7.9547557025      -40.4846243905  TIP3      12330           0.0000000000
     86822     12730  TIP3      H2            -45.7037000128        7.3069062310      -41.7733873105  TIP3      12330           0.0000000000
     86823     12731  TIP3      OH2           -38.6861804701        8.8425420894      -29.8804422974  TIP3      12331           0.0000000000
     86824     12731  TIP3      H1            -39.3505871196        9.5592886162      -29.8183357751  TIP3      12331           0.0000000000
     86825     12731  TIP3      H2            -38.2164780724        9.0746298431      -30.7016532711  TIP3      12331           0.0000000000
     86826     12732  TIP3      OH2           -42.6446832810        9.6729422233      -37.2426042974  TIP3      12332           0.0000000000
     86827     12732  TIP3      H1            -43.3904892936        9.9031710027      -36.6403889585  TIP3      12332           0.0000000000
     86828     12732  TIP3      H2            -42.1890603747        8.9659636813      -36.7513704823  TIP3      12332           0.0000000000
     86829     12733  TIP3      OH2           -42.7181422281        7.8258467300      -28.1459003551  TIP3      12333           0.0000000000
     86830     12733  TIP3      H1            -42.6903729569        8.6251182691      -27.5903278472  TIP3      12333           0.0000000000
     86831     12733  TIP3      H2            -43.3523741064        8.1288185060      -28.8358896612  TIP3      12333           0.0000000000
     86832     12734  TIP3      OH2           -51.0361481852       10.3087551149      -35.3322302689  TIP3      12334           0.0000000000
     86833     12734  TIP3      H1            -51.3347555226        9.9312451854      -36.1852456301  TIP3      12334           0.0000000000
     86834     12734  TIP3      H2            -50.4018484473        9.6304992915      -34.9966147832  TIP3      12334           0.0000000000
     86835     12735  TIP3      OH2           -49.6727221571       13.7304085773      -32.6575452077  TIP3      12335           0.0000000000
     86836     12735  TIP3      H1            -49.7230288299       13.1593325890      -33.4342811904  TIP3      12335           0.0000000000
     86837     12735  TIP3      H2            -48.9093983073       13.3519073028      -32.1851829774  TIP3      12335           0.0000000000
     86838     12736  TIP3      OH2           -50.6683344963        9.0610443108      -31.6874361076  TIP3      12336           0.0000000000
     86839     12736  TIP3      H1            -50.0967295225        9.1872599351      -32.4716253047  TIP3      12336           0.0000000000
     86840     12736  TIP3      H2            -50.3102170158        9.7262951922      -31.0704293021  TIP3      12336           0.0000000000
     86841     12737  TIP3      OH2           -44.3243297572       14.6076131790      -30.9912684806  TIP3      12337           0.0000000000
     86842     12737  TIP3      H1            -44.5602358458       15.2477332281      -30.3183819674  TIP3      12337           0.0000000000
     86843     12737  TIP3      H2            -44.5288612584       13.7520691396      -30.5413188468  TIP3      12337           0.0000000000
     86844     12738  TIP3      OH2           -49.7504658054       13.4642016913      -26.9791393707  TIP3      12338           0.0000000000
     86845     12738  TIP3      H1            -50.1045525311       14.2497960562      -26.5179318112  TIP3      12338           0.0000000000
     86846     12738  TIP3      H2            -50.4185890129       13.3143224693      -27.6898194379  TIP3      12338           0.0000000000
     86847     12739  TIP3      OH2           -43.7804122748        8.8294970765      -39.5597879388  TIP3      12339           0.0000000000
     86848     12739  TIP3      H1            -43.2020172778        9.0072871484      -38.7799614623  TIP3      12339           0.0000000000
     86849     12739  TIP3      H2            -43.3609090345        9.3382335158      -40.2767133687  TIP3      12339           0.0000000000
     86850     12740  TIP3      OH2           -52.8147389178        9.8099629603      -27.9107779581  TIP3      12340           0.0000000000
     86851     12740  TIP3      H1            -52.7829294602       10.3959685512      -27.1209064289  TIP3      12340           0.0000000000
     86852     12740  TIP3      H2            -53.7702397020        9.8133640368      -28.1168230880  TIP3      12340           0.0000000000
     86853     12741  TIP3      OH2           -46.0531812106       15.5688910055      -36.1026027114  TIP3      12341           0.0000000000
     86854     12741  TIP3      H1            -45.5879676098       15.8791269879      -35.3155700074  TIP3      12341           0.0000000000
     86855     12741  TIP3      H2            -46.6135407251       16.3175888091      -36.3456299015  TIP3      12341           0.0000000000
     86856     12742  TIP3      OH2           -51.5165223158       15.5345000882      -26.2334685662  TIP3      12342           0.0000000000
     86857     12742  TIP3      H1            -51.5280957961       15.4143697886      -27.1946129780  TIP3      12342           0.0000000000
     86858     12742  TIP3      H2            -52.4502899441       15.4089758590      -25.9795865040  TIP3      12342           0.0000000000
     86859     12743  TIP3      OH2           -40.0595218042        0.5808694385      -39.7127602984  TIP3      12343           0.0000000000
     86860     12743  TIP3      H1            -40.9980363009        0.7186256797      -39.4341898744  TIP3      12343           0.0000000000
     86861     12743  TIP3      H2            -39.8296283492        1.4309126485      -40.1218679033  TIP3      12343           0.0000000000
     86862     12744  TIP3      OH2           -52.0296274224        9.3481646974      -37.7142565848  TIP3      12344           0.0000000000
     86863     12744  TIP3      H1            -52.3013261386       10.1402309539      -38.2489426633  TIP3      12344           0.0000000000
     86864     12744  TIP3      H2            -52.6844507199        8.7209659849      -37.9689894180  TIP3      12344           0.0000000000
     86865     12745  TIP3      OH2           -38.9202397631       14.9352949571      -41.3360821981  TIP3      12345           0.0000000000
     86866     12745  TIP3      H1            -38.8036265622       15.8938135766      -41.1898060112  TIP3      12345           0.0000000000
     86867     12745  TIP3      H2            -37.9875531031       14.6595339185      -41.4022980216  TIP3      12345           0.0000000000
     86868     12746  TIP3      OH2           -55.9000758598       11.7625491642      -28.9024510758  TIP3      12346           0.0000000000
     86869     12746  TIP3      H1            -56.4189657925       11.7024787121      -29.7333006094  TIP3      12346           0.0000000000
     86870     12746  TIP3      H2            -55.9184529194       10.8236309553      -28.6334721923  TIP3      12346           0.0000000000
     86871     12747  TIP3      OH2           -56.1967450920       14.5119774952      -32.0564487689  TIP3      12347           0.0000000000
     86872     12747  TIP3      H1            -55.2374412697       14.3794766542      -32.0677312293  TIP3      12347           0.0000000000
     86873     12747  TIP3      H2            -56.2878428509       15.3112683127      -31.5270947743  TIP3      12347           0.0000000000
     86874     12748  TIP3      OH2           -37.9488807701       15.1922022710      -26.3681940658  TIP3      12348           0.0000000000
     86875     12748  TIP3      H1            -38.0581696914       14.2330810952      -26.4006557847  TIP3      12348           0.0000000000
     86876     12748  TIP3      H2            -38.8192037403       15.4463545078      -25.9666940120  TIP3      12348           0.0000000000
     86877     12749  TIP3      OH2           -46.9971569736       14.7465931301      -27.5098809743  TIP3      12349           0.0000000000
     86878     12749  TIP3      H1            -46.9222260638       15.5900431320      -27.0032941427  TIP3      12349           0.0000000000
     86879     12749  TIP3      H2            -47.8719865300       14.4126724835      -27.2415306607  TIP3      12349           0.0000000000
     86880     12750  TIP3      OH2           -46.5818713061       18.5030764466      -37.6884325102  TIP3      12350           0.0000000000
     86881     12750  TIP3      H1            -46.6562198374       18.4116729741      -38.6551887094  TIP3      12350           0.0000000000
     86882     12750  TIP3      H2            -46.5471770930       19.4713593253      -37.5610705884  TIP3      12350           0.0000000000
     86883     12751  TIP3      OH2           -52.9298919338       17.3543346865      -35.9024254098  TIP3      12351           0.0000000000
     86884     12751  TIP3      H1            -52.7827195542       16.9569664215      -35.0161121878  TIP3      12351           0.0000000000
     86885     12751  TIP3      H2            -53.7818895364       16.9540674228      -36.1451868114  TIP3      12351           0.0000000000
     86886     12752  TIP3      OH2           -43.5081565808       17.6984599784      -40.7174660548  TIP3      12352           0.0000000000
     86887     12752  TIP3      H1            -43.0872679195       16.9278918625      -41.1552679549  TIP3      12352           0.0000000000
     86888     12752  TIP3      H2            -43.4730808767       17.4226382364      -39.7778313956  TIP3      12352           0.0000000000
     86889     12753  TIP3      OH2           -43.8090370567       17.6242039103      -37.9425536979  TIP3      12353           0.0000000000
     86890     12753  TIP3      H1            -44.7646333411       17.7047767157      -37.7546043898  TIP3      12353           0.0000000000
     86891     12753  TIP3      H2            -43.5476858563       16.8973279821      -37.3552742529  TIP3      12353           0.0000000000
     86892     12754  TIP3      OH2           -40.8075026088        6.6755699057      -25.8970730110  TIP3      12354           0.0000000000
     86893     12754  TIP3      H1            -41.2587623962        7.1471287196      -26.6150850823  TIP3      12354           0.0000000000
     86894     12754  TIP3      H2            -40.8024538511        5.7622498795      -26.2065468943  TIP3      12354           0.0000000000
     86895     12755  TIP3      OH2           -53.6728192421       13.0706007612      -27.8931403820  TIP3      12355           0.0000000000
     86896     12755  TIP3      H1            -53.4701501177       12.7071313880      -27.0153445288  TIP3      12355           0.0000000000
     86897     12755  TIP3      H2            -54.5432296699       12.6863672156      -28.1166625840  TIP3      12355           0.0000000000
     86898     12756  TIP3      OH2           -51.0206793376        1.5308834827      -31.9099754502  TIP3      12356           0.0000000000
     86899     12756  TIP3      H1            -51.9192281968        1.4451535834      -32.3053464558  TIP3      12356           0.0000000000
     86900     12756  TIP3      H2            -51.1013951195        2.3934289078      -31.4725287777  TIP3      12356           0.0000000000
     86901     12757  TIP3      OH2           -46.3709908187        1.2459414327      -28.5481052974  TIP3      12357           0.0000000000
     86902     12757  TIP3      H1            -45.9698561889        0.8202396515      -27.7686744796  TIP3      12357           0.0000000000
     86903     12757  TIP3      H2            -47.3376527910        1.0835461032      -28.4121505973  TIP3      12357           0.0000000000
     86904     12758  TIP3      OH2           -43.0532078748        5.0245493425      -27.6842678807  TIP3      12358           0.0000000000
     86905     12758  TIP3      H1            -43.6002047779        4.8655520929      -26.8749094111  TIP3      12358           0.0000000000
     86906     12758  TIP3      H2            -43.2314061396        5.9498434191      -27.9150979760  TIP3      12358           0.0000000000
     86907     12759  TIP3      OH2           -42.2474970423        9.9199853637      -41.8270202198  TIP3      12359           0.0000000000
     86908     12759  TIP3      H1            -42.2404024226        9.6933237343      -42.7839383350  TIP3      12359           0.0000000000
     86909     12759  TIP3      H2            -41.3908566574       10.3198782276      -41.6961217257  TIP3      12359           0.0000000000
     86910     12760  TIP3      OH2           -46.7113861502        3.7665120261      -41.2385374798  TIP3      12360           0.0000000000
     86911     12760  TIP3      H1            -47.0056322709        3.7515520695      -40.3089461485  TIP3      12360           0.0000000000
     86912     12760  TIP3      H2            -46.9915766354        2.8892167937      -41.5262775496  TIP3      12360           0.0000000000
     86913     12761  TIP3      OH2           -50.9260386017        6.5022222681      -30.7458054655  TIP3      12361           0.0000000000
     86914     12761  TIP3      H1            -51.6278602946        6.4717590761      -30.0787070799  TIP3      12361           0.0000000000
     86915     12761  TIP3      H2            -50.9348899161        7.4347515153      -31.0598123603  TIP3      12361           0.0000000000
     86916     12762  TIP3      OH2           -50.9813215275        6.7240960470      -35.8791388129  TIP3      12362           0.0000000000
     86917     12762  TIP3      H1            -51.8473949645        6.3337893934      -35.9392238373  TIP3      12362           0.0000000000
     86918     12762  TIP3      H2            -50.5164720947        6.3395456113      -36.6555092236  TIP3      12362           0.0000000000
     86919     12763  TIP3      OH2           -45.4242617316        7.1306057410      -37.0647618767  TIP3      12363           0.0000000000
     86920     12763  TIP3      H1            -45.8369946688        7.9644088293      -37.3808987370  TIP3      12363           0.0000000000
     86921     12763  TIP3      H2            -44.7139402375        6.9932491022      -37.7158411517  TIP3      12363           0.0000000000
     86922     12764  TIP3      OH2           -46.3443678365        7.3519698222      -25.5853568899  TIP3      12364           0.0000000000
     86923     12764  TIP3      H1            -46.8924795718        6.5861969280      -25.2804163414  TIP3      12364           0.0000000000
     86924     12764  TIP3      H2            -45.5037854511        7.1936528294      -25.1267958506  TIP3      12364           0.0000000000
     86925     12765  TIP3      OH2           -44.4083182031        6.6068296401      -34.2263458922  TIP3      12365           0.0000000000
     86926     12765  TIP3      H1            -44.6393628725        7.1867324662      -34.9721159864  TIP3      12365           0.0000000000
     86927     12765  TIP3      H2            -44.2620792293        5.7597276784      -34.6959453903  TIP3      12365           0.0000000000
     86928     12766  TIP3      OH2           -53.2362867374        6.8116238618      -28.9606298817  TIP3      12366           0.0000000000
     86929     12766  TIP3      H1            -53.2577865511        7.1797849369      -28.0922193582  TIP3      12366           0.0000000000
     86930     12766  TIP3      H2            -53.7074450223        5.9676996048      -28.8416283044  TIP3      12366           0.0000000000
     86931     12767  TIP3      OH2           -49.7411095317        4.3709668701      -41.9008773647  TIP3      12367           0.0000000000
     86932     12767  TIP3      H1            -50.2746710317        3.7553908406      -41.3678087124  TIP3      12367           0.0000000000
     86933     12767  TIP3      H2            -50.4185531798        4.6488907378      -42.5354546152  TIP3      12367           0.0000000000
     86934     12768  TIP3      OH2           -56.6011433798        3.9486148316      -35.0772120650  TIP3      12368           0.0000000000
     86935     12768  TIP3      H1            -55.9566273776        3.8777712721      -34.3393649723  TIP3      12368           0.0000000000
     86936     12768  TIP3      H2            -56.1591724526        3.4963223517      -35.8198596458  TIP3      12368           0.0000000000
     86937     12769  TIP3      OH2           -55.2904613507        4.6268953451      -39.6361591103  TIP3      12369           0.0000000000
     86938     12769  TIP3      H1            -54.8489197465        5.2443320612      -40.2642754213  TIP3      12369           0.0000000000
     86939     12769  TIP3      H2            -56.0300109236        5.2008104399      -39.3282952547  TIP3      12369           0.0000000000
     86940     12770  TIP3      OH2           -45.1714674540        8.2301927705      -29.6124688081  TIP3      12370           0.0000000000
     86941     12770  TIP3      H1            -44.8253282844        7.5630571106      -30.2357557405  TIP3      12370           0.0000000000
     86942     12770  TIP3      H2            -45.6206229968        7.6842263762      -28.9440388214  TIP3      12370           0.0000000000
     86943     12771  TIP3      OH2           -48.3779175281        4.1667161375      -34.8174655134  TIP3      12371           0.0000000000
     86944     12771  TIP3      H1            -49.3069220031        4.1967657574      -34.5117538851  TIP3      12371           0.0000000000
     86945     12771  TIP3      H2            -47.8866036196        4.0666612655      -33.9890218482  TIP3      12371           0.0000000000
     86946     12772  TIP3      OH2           -53.5673409926        5.3663478996      -35.7021261515  TIP3      12372           0.0000000000
     86947     12772  TIP3      H1            -54.3644544124        5.6520932546      -36.1615001179  TIP3      12372           0.0000000000
     86948     12772  TIP3      H2            -53.1944641910        4.7598389480      -36.3793120134  TIP3      12372           0.0000000000
     86949     12773  TIP3      OH2           -49.9326334649        5.8014522077      -38.3024828252  TIP3      12373           0.0000000000
     86950     12773  TIP3      H1            -48.9670060041        5.8985129396      -38.1449827976  TIP3      12373           0.0000000000
     86951     12773  TIP3      H2            -50.1296265903        6.4531116256      -38.9964972678  TIP3      12373           0.0000000000
     86952     12774  TIP3      OH2           -43.9637252466        3.3935364920      -31.5528742334  TIP3      12374           0.0000000000
     86953     12774  TIP3      H1            -44.6690399354        3.5040625968      -30.8757362175  TIP3      12374           0.0000000000
     86954     12774  TIP3      H2            -44.4793778253        3.2122997029      -32.3556295236  TIP3      12374           0.0000000000
     86955     12775  TIP3      OH2           -51.2354529216        6.9699380191      -40.7298193510  TIP3      12375           0.0000000000
     86956     12775  TIP3      H1            -51.7750852532        6.6058592983      -41.4590685464  TIP3      12375           0.0000000000
     86957     12775  TIP3      H2            -50.4007247490        7.1726179725      -41.1968602241  TIP3      12375           0.0000000000
     86958     12776  TIP3      OH2           -40.7386310417       19.0628483761      -25.2421997445  TIP3      12376           0.0000000000
     86959     12776  TIP3      H1            -40.4872637413       19.4623057819      -26.1005659387  TIP3      12376           0.0000000000
     86960     12776  TIP3      H2            -40.0305121922       19.3909066935      -24.6532234243  TIP3      12376           0.0000000000
     86961     12777  TIP3      OH2           -53.0805994096       11.4907928556      -25.6658949576  TIP3      12377           0.0000000000
     86962     12777  TIP3      H1            -52.3712928914       11.8029514425      -25.0732840970  TIP3      12377           0.0000000000
     86963     12777  TIP3      H2            -53.8846205697       11.7197184133      -25.1171155302  TIP3      12377           0.0000000000
     86964     12778  TIP3      OH2           -47.0870711957        6.9430584544      -32.9203473124  TIP3      12378           0.0000000000
     86965     12778  TIP3      H1            -46.5016334360        6.3974633529      -33.4617481743  TIP3      12378           0.0000000000
     86966     12778  TIP3      H2            -47.2234355469        6.4059618646      -32.1287909288  TIP3      12378           0.0000000000
     86967     12779  TIP3      OH2           -52.0818646961        3.0974182333      -36.5042056267  TIP3      12379           0.0000000000
     86968     12779  TIP3      H1            -52.3872985682        2.1641523066      -36.5183317118  TIP3      12379           0.0000000000
     86969     12779  TIP3      H2            -51.2821184630        3.0438234722      -37.0458770852  TIP3      12379           0.0000000000
     86970     12780  TIP3      OH2           -48.4450196600        5.2954405184      -30.5115259775  TIP3      12380           0.0000000000
     86971     12780  TIP3      H1            -49.2810115837        5.7866926679      -30.4046266339  TIP3      12380           0.0000000000
     86972     12780  TIP3      H2            -47.9092142800        5.6151279239      -29.7583698624  TIP3      12380           0.0000000000
     86973     12781  TIP3      OH2           -47.8708316640       11.5237250418      -38.8127870617  TIP3      12381           0.0000000000
     86974     12781  TIP3      H1            -48.6557890576       11.0261575115      -39.1370396337  TIP3      12381           0.0000000000
     86975     12781  TIP3      H2            -48.0568578478       11.5906884316      -37.8564529333  TIP3      12381           0.0000000000
     86976     12782  TIP3      OH2           -40.7182656477       10.6570665886      -30.0202029042  TIP3      12382           0.0000000000
     86977     12782  TIP3      H1            -40.1174393107       11.1588211278      -30.6001557081  TIP3      12382           0.0000000000
     86978     12782  TIP3      H2            -41.5672677285       10.7822619343      -30.4918198245  TIP3      12382           0.0000000000
     86979     12783  TIP3      OH2           -43.9977542094        4.3154928633      -40.6232174603  TIP3      12383           0.0000000000
     86980     12783  TIP3      H1            -44.9467506634        4.4600930911      -40.7795079690  TIP3      12383           0.0000000000
     86981     12783  TIP3      H2            -43.7058199568        5.1946633076      -40.3107455000  TIP3      12383           0.0000000000
     86982     12784  TIP3      OH2           -46.3771376070       11.7365236407      -27.5827842662  TIP3      12384           0.0000000000
     86983     12784  TIP3      H1            -46.7248434178       11.3422875921      -26.7778598154  TIP3      12384           0.0000000000
     86984     12784  TIP3      H2            -46.5967197813       12.6689525960      -27.4937351554  TIP3      12384           0.0000000000
     86985     12785  TIP3      OH2           -43.2921120683        6.2236185081      -38.9569182172  TIP3      12385           0.0000000000
     86986     12785  TIP3      H1            -42.3853338679        6.0862490070      -38.6228525807  TIP3      12385           0.0000000000
     86987     12785  TIP3      H2            -43.2201244925        7.0251329069      -39.4951811171  TIP3      12385           0.0000000000
     86988     12786  TIP3      OH2           -52.7817451763       10.8446736171      -33.0508702558  TIP3      12386           0.0000000000
     86989     12786  TIP3      H1            -52.0330960625       10.8313890899      -33.6653901387  TIP3      12386           0.0000000000
     86990     12786  TIP3      H2            -52.6907424027       10.0129708745      -32.5591952838  TIP3      12386           0.0000000000
     86991     12787  TIP3      OH2           -45.7575121878       12.9850007269      -39.7822050723  TIP3      12387           0.0000000000
     86992     12787  TIP3      H1            -46.0942908744       13.8214564370      -39.4100227924  TIP3      12387           0.0000000000
     86993     12787  TIP3      H2            -46.4946190965       12.3651644435      -39.5864403657  TIP3      12387           0.0000000000
     86994     12788  TIP3      OH2           -55.7128996663        9.2805327395      -27.7535455665  TIP3      12388           0.0000000000
     86995     12788  TIP3      H1            -55.6019346129        8.8670456355      -26.8867159817  TIP3      12388           0.0000000000
     86996     12788  TIP3      H2            -56.3866810534        8.6958047620      -28.1741400362  TIP3      12388           0.0000000000
     86997     12789  TIP3      OH2           -48.7627430694        8.8341901092      -25.5284050322  TIP3      12389           0.0000000000
     86998     12789  TIP3      H1            -49.0363970320        8.6112817088      -26.4323776776  TIP3      12389           0.0000000000
     86999     12789  TIP3      H2            -47.8165574371        8.5674351006      -25.5529052074  TIP3      12389           0.0000000000
     87000     12790  TIP3      OH2           -44.1115703535       14.1717619534      -27.6328271323  TIP3      12390           0.0000000000
     87001     12790  TIP3      H1            -45.0275494784       14.3724430072      -27.8757416976  TIP3      12390           0.0000000000
     87002     12790  TIP3      H2            -44.1051056849       14.4628144373      -26.6986382647  TIP3      12390           0.0000000000
     87003     12791  TIP3      OH2           -38.3929853758        6.3917106060      -39.2282303913  TIP3      12391           0.0000000000
     87004     12791  TIP3      H1            -38.9576014382        6.0512289258      -39.9480421114  TIP3      12391           0.0000000000
     87005     12791  TIP3      H2            -38.3110707118        7.3268758937      -39.5303832346  TIP3      12391           0.0000000000
     87006     12792  TIP3      OH2           -38.4156111784       12.2259383830      -26.4061558273  TIP3      12392           0.0000000000
     87007     12792  TIP3      H1            -39.2972740189       12.4662597003      -26.7995631043  TIP3      12392           0.0000000000
     87008     12792  TIP3      H2            -37.8530026284       12.2118875443      -27.2071944850  TIP3      12392           0.0000000000
     87009     12793  TIP3      OH2           -40.1031717189       15.2098088107      -38.8125793439  TIP3      12393           0.0000000000
     87010     12793  TIP3      H1            -40.4778118525       14.3811845383      -38.4918836936  TIP3      12393           0.0000000000
     87011     12793  TIP3      H2            -39.8153899156       15.0207826832      -39.7219249401  TIP3      12393           0.0000000000
     87012     12794  TIP3      OH2           -42.9256079130       10.0224802933      -31.7567067738  TIP3      12394           0.0000000000
     87013     12794  TIP3      H1            -43.8673982218        9.7909044878      -31.8208533544  TIP3      12394           0.0000000000
     87014     12794  TIP3      H2            -42.4868212894        9.2401068471      -32.1322395868  TIP3      12394           0.0000000000
     87015     12795  TIP3      OH2           -50.3913781863       14.3425022522      -35.6355395576  TIP3      12395           0.0000000000
     87016     12795  TIP3      H1            -49.8777842899       15.1392402414      -35.8423455756  TIP3      12395           0.0000000000
     87017     12795  TIP3      H2            -51.2742989269       14.5811450890      -35.9517943786  TIP3      12395           0.0000000000
     87018     12796  TIP3      OH2           -54.6033877318        9.1998655598      -41.0860767310  TIP3      12396           0.0000000000
     87019     12796  TIP3      H1            -54.0127353789        9.8488499435      -40.6789839640  TIP3      12396           0.0000000000
     87020     12796  TIP3      H2            -55.4916062110        9.5045711987      -40.7897927668  TIP3      12396           0.0000000000
     87021     12797  TIP3      OH2           -48.9581325484       12.0060869659      -36.0848396967  TIP3      12397           0.0000000000
     87022     12797  TIP3      H1            -49.2410242341       12.9390394543      -36.0201042585  TIP3      12397           0.0000000000
     87023     12797  TIP3      H2            -49.7108518406       11.5434102562      -35.6682390535  TIP3      12397           0.0000000000
     87024     12798  TIP3      OH2           -48.4971025503       16.1754094054      -29.7340686491  TIP3      12398           0.0000000000
     87025     12798  TIP3      H1            -48.0795535895       17.0144748158      -29.9869084591  TIP3      12398           0.0000000000
     87026     12798  TIP3      H2            -47.9113273072       15.8664944418      -29.0179092845  TIP3      12398           0.0000000000
     87027     12799  TIP3      OH2           -50.2857894598       17.0196501208      -36.5499527522  TIP3      12399           0.0000000000
     87028     12799  TIP3      H1            -51.2539850018       17.1468779989      -36.4568289567  TIP3      12399           0.0000000000
     87029     12799  TIP3      H2            -49.9353590251       17.8572241652      -36.1924226771  TIP3      12399           0.0000000000
     87030     12800  TIP3      OH2           -44.9437366956       12.2377635470      -30.0676086949  TIP3      12400           0.0000000000
     87031     12800  TIP3      H1            -45.3334728835       12.0233476984      -29.1989090187  TIP3      12400           0.0000000000
     87032     12800  TIP3      H2            -44.3340003837       11.5051493191      -30.2394990128  TIP3      12400           0.0000000000
     87033     12801  TIP3      OH2           -42.7034273854       13.2114285256      -40.9790830688  TIP3      12401           0.0000000000
     87034     12801  TIP3      H1            -42.3755407741       12.7962175889      -40.1567971846  TIP3      12401           0.0000000000
     87035     12801  TIP3      H2            -43.6617150813       13.0862115319      -40.8863513659  TIP3      12401           0.0000000000
     87036     12802  TIP3      OH2           -42.2388692371       16.8115705761      -27.5584367209  TIP3      12402           0.0000000000
     87037     12802  TIP3      H1            -42.8557938809       16.2631322939      -28.0841973438  TIP3      12402           0.0000000000
     87038     12802  TIP3      H2            -41.9747985068       17.4724369335      -28.2351762117  TIP3      12402           0.0000000000
     87039     12803  TIP3      OH2           -38.2014649515       17.6499799526      -40.7540199261  TIP3      12403           0.0000000000
     87040     12803  TIP3      H1            -37.4637616197       18.2669033543      -40.9472485792  TIP3      12403           0.0000000000
     87041     12803  TIP3      H2            -38.9055779430       18.2554689378      -40.4456244722  TIP3      12403           0.0000000000
     87042     12804  TIP3      OH2           -54.1119949967        4.0581529113      -28.1818572054  TIP3      12404           0.0000000000
     87043     12804  TIP3      H1            -55.0308913423        4.3757273109      -28.2477773482  TIP3      12404           0.0000000000
     87044     12804  TIP3      H2            -54.2204168349        3.1834083170      -27.7648303908  TIP3      12404           0.0000000000
     87045     12805  TIP3      OH2           -41.8602985502       11.8822083380      -38.7612285788  TIP3      12405           0.0000000000
     87046     12805  TIP3      H1            -42.1176177613       11.1157883653      -38.2045117708  TIP3      12405           0.0000000000
     87047     12805  TIP3      H2            -40.9176122456       11.9696813362      -38.5397766920  TIP3      12405           0.0000000000
     87048     12806  TIP3      OH2           -54.4758599342       15.8450974279      -29.7644072804  TIP3      12406           0.0000000000
     87049     12806  TIP3      H1            -54.2345457095       14.9056826050      -29.7674705806  TIP3      12406           0.0000000000
     87050     12806  TIP3      H2            -54.2293053058       16.1169373953      -28.8708042443  TIP3      12406           0.0000000000
     87051     12807  TIP3      OH2           -49.7092206481       13.8813344677      -40.0769851627  TIP3      12407           0.0000000000
     87052     12807  TIP3      H1            -49.5197517922       13.3474495900      -39.2957111560  TIP3      12407           0.0000000000
     87053     12807  TIP3      H2            -49.6888664830       14.7993793347      -39.7505415986  TIP3      12407           0.0000000000
     87054     12808  TIP3      OH2           -53.2291942530       11.1131191881      -39.5597552475  TIP3      12408           0.0000000000
     87055     12808  TIP3      H1            -53.9224047206       11.5051302603      -38.9952515290  TIP3      12408           0.0000000000
     87056     12808  TIP3      H2            -52.7049069762       11.8962185136      -39.8189167971  TIP3      12408           0.0000000000
     87057     12809  TIP3      OH2           -45.3965653510        3.8019365146      -29.2775799426  TIP3      12409           0.0000000000
     87058     12809  TIP3      H1            -44.6965960842        3.8632759821      -28.6170799403  TIP3      12409           0.0000000000
     87059     12809  TIP3      H2            -45.7764053802        2.9186648423      -29.0961651578  TIP3      12409           0.0000000000
     87060     12810  TIP3      OH2           -44.6333485931        3.4133131901      -38.1637035986  TIP3      12410           0.0000000000
     87061     12810  TIP3      H1            -44.3907473820        3.8918945187      -38.9859841826  TIP3      12410           0.0000000000
     87062     12810  TIP3      H2            -44.0528011374        3.8297983176      -37.5185717493  TIP3      12410           0.0000000000
     87063     12811  TIP3      OH2           -46.9467723757       15.5536830535      -39.3275099936  TIP3      12411           0.0000000000
     87064     12811  TIP3      H1            -47.7663783055       16.0720609941      -39.2751490534  TIP3      12411           0.0000000000
     87065     12811  TIP3      H2            -46.4129050802       16.0555935000      -39.9653713346  TIP3      12411           0.0000000000
     87066     12812  TIP3      OH2           -47.4187672813        5.1509358620      -37.3484778028  TIP3      12412           0.0000000000
     87067     12812  TIP3      H1            -46.6069229841        5.6911196475      -37.3113584944  TIP3      12412           0.0000000000
     87068     12812  TIP3      H2            -47.6665560046        5.0155138887      -36.4210875778  TIP3      12412           0.0000000000
     87069     12813  TIP3      OH2           -46.8659200615        6.1486239432      -28.1707413733  TIP3      12413           0.0000000000
     87070     12813  TIP3      H1            -46.7711851253        6.7250722674      -27.3893101495  TIP3      12413           0.0000000000
     87071     12813  TIP3      H2            -46.2071914102        5.4549450957      -28.0483109762  TIP3      12413           0.0000000000
     87072     12814  TIP3      OH2           -46.5436730486        2.2118672244      -36.4272498948  TIP3      12414           0.0000000000
     87073     12814  TIP3      H1            -46.8754993592        2.8598881728      -35.7826012219  TIP3      12414           0.0000000000
     87074     12814  TIP3      H2            -45.8646940730        2.7543510011      -36.8988049628  TIP3      12414           0.0000000000
     87075     12815  TIP3      OH2           -49.6010102791       16.5910302430      -39.3355371526  TIP3      12415           0.0000000000
     87076     12815  TIP3      H1            -49.4350104911       17.4173716581      -39.8345262548  TIP3      12415           0.0000000000
     87077     12815  TIP3      H2            -49.8130070485       16.9272307299      -38.4398450284  TIP3      12415           0.0000000000
     87078     12816  TIP3      OH2           -50.8915246830        3.2915570513      -39.7251107007  TIP3      12416           0.0000000000
     87079     12816  TIP3      H1            -50.9439344963        4.2030743334      -39.3772499112  TIP3      12416           0.0000000000
     87080     12816  TIP3      H2            -49.9805754570        3.0533273189      -39.4732797712  TIP3      12416           0.0000000000
     87081     12817  TIP3      OH2           -40.6621122396        4.0213146088      -27.3113803578  TIP3      12417           0.0000000000
     87082     12817  TIP3      H1            -41.6008736780        4.3342692096      -27.4187998084  TIP3      12417           0.0000000000
     87083     12817  TIP3      H2            -40.3589058721        4.0603401426      -28.2265933469  TIP3      12417           0.0000000000
     87084     12818  TIP3      OH2           -42.0703725520        7.8174675371      -33.2601475676  TIP3      12418           0.0000000000
     87085     12818  TIP3      H1            -42.8835068846        7.3816418849      -33.5674893563  TIP3      12418           0.0000000000
     87086     12818  TIP3      H2            -41.6089382047        7.1148295822      -32.7510926103  TIP3      12418           0.0000000000
     87087     12819  TIP3      OH2           -52.6415045597       13.7414714435      -40.6844330873  TIP3      12419           0.0000000000
     87088     12819  TIP3      H1            -52.0118702159       14.4120847564      -40.3938102331  TIP3      12419           0.0000000000
     87089     12819  TIP3      H2            -52.1343230417       13.2864695819      -41.3848993682  TIP3      12419           0.0000000000
     87090     12820  TIP3      OH2           -54.2895015612        6.4033561663      -41.4906344815  TIP3      12420           0.0000000000
     87091     12820  TIP3      H1            -54.3309654964        7.3706051651      -41.3945610616  TIP3      12420           0.0000000000
     87092     12820  TIP3      H2            -55.1634241775        6.1834360651      -41.8492349537  TIP3      12420           0.0000000000
     87093     12821  TIP3      OH2           -41.4132981039       17.1991504580      -32.0240980793  TIP3      12421           0.0000000000
     87094     12821  TIP3      H1            -41.1662220149       17.9798864291      -32.4631340016  TIP3      12421           0.0000000000
     87095     12821  TIP3      H2            -40.4320356335       17.2064545797      -31.7150853082  TIP3      12421           0.0000000000
     87096     12822  TIP3      OH2           -53.4917088748        1.1974573584      -32.8497160399  TIP3      12422           0.0000000000
     87097     12822  TIP3      H1            -53.7196039353        1.2288799884      -33.8040933894  TIP3      12422           0.0000000000
     87098     12822  TIP3      H2            -53.9333987792        0.3715532671      -32.5793033292  TIP3      12422           0.0000000000
     87099     12823  TIP3      OH2           -54.5560962124       15.1094510181      -36.6976427615  TIP3      12423           0.0000000000
     87100     12823  TIP3      H1            -55.3962846540       15.5959063582      -36.7091445724  TIP3      12423           0.0000000000
     87101     12823  TIP3      H2            -54.0344919015       15.6131703005      -37.3382180134  TIP3      12423           0.0000000000
     87102     12824  TIP3      OH2           -55.2666092115       17.7364806594      -25.4142956938  TIP3      12424           0.0000000000
     87103     12824  TIP3      H1            -54.7370085790       17.5310204295      -24.6226872125  TIP3      12424           0.0000000000
     87104     12824  TIP3      H2            -55.7586205957       16.9233088266      -25.5640838664  TIP3      12424           0.0000000000
     87105     12825  TIP3      OH2           -50.6932462209       16.6620698872      -23.7548767300  TIP3      12425           0.0000000000
     87106     12825  TIP3      H1            -49.9064548684       16.1805922000      -23.4566949163  TIP3      12425           0.0000000000
     87107     12825  TIP3      H2            -50.7036490465       16.4185103939      -24.7084247190  TIP3      12425           0.0000000000
     87108     12826  TIP3      OH2           -46.2536311570       16.3149186824      -41.8961965958  TIP3      12426           0.0000000000
     87109     12826  TIP3      H1            -47.0525628522       15.7279968068      -41.9660084611  TIP3      12426           0.0000000000
     87110     12826  TIP3      H2            -45.7857123301       15.7516469652      -42.5203335844  TIP3      12426           0.0000000000
     87111     12827  TIP3      OH2           -44.1035096635       15.0463165918      -25.0649410280  TIP3      12427           0.0000000000
     87112     12827  TIP3      H1            -44.4582870698       14.1823816284      -24.7785015333  TIP3      12427           0.0000000000
     87113     12827  TIP3      H2            -43.3779580821       15.1863502259      -24.4315937339  TIP3      12427           0.0000000000
     87114     12828  TIP3      OH2           -41.9805143982       15.9775570727      -42.1717332674  TIP3      12428           0.0000000000
     87115     12828  TIP3      H1            -41.6967686176       15.1718699378      -41.7001392613  TIP3      12428           0.0000000000
     87116     12828  TIP3      H2            -41.2165357301       16.2001226323      -42.7186191428  TIP3      12428           0.0000000000
     87117     12829  TIP3      OH2           -55.3614485349       11.5431364155      -24.4103360667  TIP3      12429           0.0000000000
     87118     12829  TIP3      H1            -55.2571388123       10.6332056844      -24.7060690809  TIP3      12429           0.0000000000
     87119     12829  TIP3      H2            -56.1463610710       11.8393319511      -24.9233902563  TIP3      12429           0.0000000000
     87120     12830  TIP3      OH2           -51.0012921830       11.9499606856      -42.2589260835  TIP3      12430           0.0000000000
     87121     12830  TIP3      H1            -50.9467097184       11.1029095547      -41.7905758007  TIP3      12430           0.0000000000
     87122     12830  TIP3      H2            -50.3953471714       11.7378539855      -43.0030975489  TIP3      12430           0.0000000000
     87123     12831  TIP3      OH2           -48.7139534792       11.5136628583      -24.9811900838  TIP3      12431           0.0000000000
     87124     12831  TIP3      H1            -49.0354918028       11.8167695859      -25.8575310171  TIP3      12431           0.0000000000
     87125     12831  TIP3      H2            -48.5851977742       10.5521655436      -25.1105512795  TIP3      12431           0.0000000000
     87126     12832  TIP3      OH2           -42.9982519642       11.4034535055      -27.6163881633  TIP3      12432           0.0000000000
     87127     12832  TIP3      H1            -42.2268396378       12.0142742562      -27.7194720293  TIP3      12432           0.0000000000
     87128     12832  TIP3      H2            -43.7265676464       12.0353926197      -27.5657249709  TIP3      12432           0.0000000000
     87129     12833  TIP3      OH2           -54.5092251228        8.7599386915      -25.0120079517  TIP3      12433           0.0000000000
     87130     12833  TIP3      H1            -54.1707440140        7.8646040866      -25.0610551642  TIP3      12433           0.0000000000
     87131     12833  TIP3      H2            -54.7988065812        8.7839795294      -24.0690222982  TIP3      12433           0.0000000000
     87132     12834  TIP3      OH2           -49.8775853074        9.9015952615      -39.9746657111  TIP3      12434           0.0000000000
     87133     12834  TIP3      H1            -50.3431812931        9.3798635423      -39.3155052199  TIP3      12434           0.0000000000
     87134     12834  TIP3      H2            -49.6002270119        9.2058657188      -40.6241439838  TIP3      12434           0.0000000000
     87135     12835  TIP3      OH2           -50.6312202840        7.7318910211      -27.6365046485  TIP3      12435           0.0000000000
     87136     12835  TIP3      H1            -51.1593191779        8.4761569421      -27.3914321715  TIP3      12435           0.0000000000
     87137     12835  TIP3      H2            -50.2211459918        8.0680893837      -28.4681195230  TIP3      12435           0.0000000000
     87138     12836  TIP3      OH2           -48.8021496389        8.0934633116      -41.7173333520  TIP3      12436           0.0000000000
     87139     12836  TIP3      H1            -48.9658990396        7.9559225549      -42.6701376348  TIP3      12436           0.0000000000
     87140     12836  TIP3      H2            -47.8307288583        8.2169115596      -41.6771496294  TIP3      12436           0.0000000000
     87141     12837  TIP3      OH2           -45.5650561938       10.2752960687      -24.2837781831  TIP3      12437           0.0000000000
     87142     12837  TIP3      H1            -44.6012658714       10.2899889214      -24.4286099357  TIP3      12437           0.0000000000
     87143     12837  TIP3      H2            -45.7079169548        9.4857236893      -23.7738530069  TIP3      12437           0.0000000000
     87144     12838  TIP3      OH2           -39.5374368209       10.5269608637       42.7728426408  TIP3      12438           0.0000000000
     87145     12838  TIP3      H1            -39.6953293248       10.0542948408       41.9314317376  TIP3      12438           0.0000000000
     87146     12838  TIP3      H2            -39.3810993772       11.4366326418       42.4968019979  TIP3      12438           0.0000000000
     87147     12839  TIP3      OH2           -50.2458297289        5.1076227233      -26.5616300411  TIP3      12439           0.0000000000
     87148     12839  TIP3      H1            -50.0868311837        4.3694593057      -27.1839631992  TIP3      12439           0.0000000000
     87149     12839  TIP3      H2            -50.2331468918        5.8904854690      -27.1394325696  TIP3      12439           0.0000000000
     87150     12840  TIP3      OH2           -49.8185102470        3.4738290835      -29.0457964890  TIP3      12440           0.0000000000
     87151     12840  TIP3      H1            -49.2940677833        3.9356218708      -29.7392287028  TIP3      12440           0.0000000000
     87152     12840  TIP3      H2            -50.6996156084        3.3797096887      -29.4764527605  TIP3      12440           0.0000000000
     87153     12841  TIP3      OH2           -48.2686811402        8.9271979033      -28.8047415585  TIP3      12441           0.0000000000
     87154     12841  TIP3      H1            -47.5101328349        8.7717575356      -29.3843063480  TIP3      12441           0.0000000000
     87155     12841  TIP3      H2            -48.5985834929        9.7849353310      -29.1172895358  TIP3      12441           0.0000000000
     87156     12842  TIP3      OH2           -43.8636345598        6.7337835464      -23.7884447987  TIP3      12442           0.0000000000
     87157     12842  TIP3      H1            -43.6450805177        5.7988551409      -23.9112200978  TIP3      12442           0.0000000000
     87158     12842  TIP3      H2            -42.9886596607        7.1574950181      -23.8279800514  TIP3      12442           0.0000000000
     87159     12843  TIP3      OH2           -42.5385187960        9.5028492685      -25.7083674358  TIP3      12443           0.0000000000
     87160     12843  TIP3      H1            -42.7821352474       10.2421393866      -26.3114207982  TIP3      12443           0.0000000000
     87161     12843  TIP3      H2            -41.5696411082        9.4650127552      -25.8774352445  TIP3      12443           0.0000000000
     87162     12844  TIP3      OH2           -51.7860194311        6.3695706155      -24.7027027037  TIP3      12444           0.0000000000
     87163     12844  TIP3      H1            -52.5247459292        5.7375759235      -24.8366105854  TIP3      12444           0.0000000000
     87164     12844  TIP3      H2            -51.0811950334        5.9649651417      -25.2564183894  TIP3      12444           0.0000000000
     87165     12845  TIP3      OH2           -49.0226840161        0.9120646576      -28.6219682403  TIP3      12445           0.0000000000
     87166     12845  TIP3      H1            -49.1537628384        1.8815961574      -28.7387960879  TIP3      12445           0.0000000000
     87167     12845  TIP3      H2            -49.7769845040        0.5589611825      -29.1277365952  TIP3      12445           0.0000000000
     87168     12846  TIP3      OH2           -47.7484411746        5.2477700846      -25.0630027212  TIP3      12446           0.0000000000
     87169     12846  TIP3      H1            -48.0201256341        5.0139060644      -24.1517584835  TIP3      12446           0.0000000000
     87170     12846  TIP3      H2            -48.5507233687        5.0360310492      -25.5715678650  TIP3      12446           0.0000000000
     87171     12847  TIP3      OH2           -45.0356735419        4.3762634916      -25.9892580519  TIP3      12447           0.0000000000
     87172     12847  TIP3      H1            -45.9990947912        4.4199210276      -25.8422451092  TIP3      12447           0.0000000000
     87173     12847  TIP3      H2            -44.7455839538        3.7442620784      -25.3135529564  TIP3      12447           0.0000000000
     87174     12848  TIP3      OH2           -43.3925002223        3.0173943590      -23.9970482205  TIP3      12448           0.0000000000
     87175     12848  TIP3      H1            -43.5285161727        2.0449080582      -24.0072902540  TIP3      12448           0.0000000000
     87176     12848  TIP3      H2            -43.7416076226        3.2888883534      -23.1269362234  TIP3      12448           0.0000000000
     87177     12849  TIP3      OH2           -53.5888172499        4.2606880291      -24.9424918133  TIP3      12449           0.0000000000
     87178     12849  TIP3      H1            -53.3834594976        3.5053629041      -25.5324481911  TIP3      12449           0.0000000000
     87179     12849  TIP3      H2            -53.7047562696        3.7989080297      -24.0938450064  TIP3      12449           0.0000000000
     87180     12850  TIP3      OH2           -48.8171117601        0.2488287282      -25.9546162624  TIP3      12450           0.0000000000
     87181     12850  TIP3      H1            -48.0930924428       -0.4109846778      -25.9756248750  TIP3      12450           0.0000000000
     87182     12850  TIP3      H2            -48.9065710396        0.4764385124      -26.8940487243  TIP3      12450           0.0000000000
     87183     12851  TIP3      OH2           -48.4189070013        1.9311132699      -23.9139494044  TIP3      12451           0.0000000000
     87184     12851  TIP3      H1            -48.6011315440        1.4148080076      -24.7249616906  TIP3      12451           0.0000000000
     87185     12851  TIP3      H2            -49.0582144254        2.6626396625      -23.9398114145  TIP3      12451           0.0000000000
     87186     12852  TIP3      OH2           -48.9398188012       18.8024574420      -40.7336106921  TIP3      12452           0.0000000000
     87187     12852  TIP3      H1            -47.9757003330       18.9424598147      -40.5917560091  TIP3      12452           0.0000000000
     87188     12852  TIP3      H2            -49.1586075536       19.4815665749      -41.3672315840  TIP3      12452           0.0000000000
     87189     12853  TIP3      OH2           -55.3333338020       13.4252809298      -41.2343843066  TIP3      12453           0.0000000000
     87190     12853  TIP3      H1            -54.3935523824       13.5111733390      -40.9834394304  TIP3      12453           0.0000000000
     87191     12853  TIP3      H2            -55.3195803568       12.7655137530      -41.9297316807  TIP3      12453           0.0000000000
     87192     12854  TIP3      OH2            56.2141392814       18.8084815242      -36.2094301772  TIP3      12454           0.0000000000
     87193     12854  TIP3      H1             55.5006576480       18.3339631670      -36.6998646946  TIP3      12454           0.0000000000
     87194     12854  TIP3      H2             56.5004006012       18.1333948400      -35.5714499990  TIP3      12454           0.0000000000
     87195     12855  TIP3      OH2           -55.8146289096       16.9149278566      -34.3738017020  TIP3      12455           0.0000000000
     87196     12855  TIP3      H1            -56.1675219677       16.0300844786      -34.1784749880  TIP3      12455           0.0000000000
     87197     12855  TIP3      H2            -55.5980267157       17.2487717894      -33.4828014464  TIP3      12455           0.0000000000
     87198     12856  TIP3      OH2           -38.0749538817       18.0456645262      -31.6234310050  TIP3      12456           0.0000000000
     87199     12856  TIP3      H1            -38.2445703453       17.8860303232      -30.6258961851  TIP3      12456           0.0000000000
     87200     12856  TIP3      H2            -37.3191874608       18.4872806829      -31.7361769171  TIP3      12456           0.0000000000
     87201     12857  TIP3      OH2           -38.6519567912       17.3951804783      -28.2051816666  TIP3      12457           0.0000000000
     87202     12857  TIP3      H1            -39.1134210773       16.6683484950      -28.7568636076  TIP3      12457           0.0000000000
     87203     12857  TIP3      H2            -38.1059171828       16.8132704558      -27.7149027490  TIP3      12457           0.0000000000
     87204     12858  TIP3      OH2           -40.2451033861       13.0623065434      -23.8172288970  TIP3      12458           0.0000000000
     87205     12858  TIP3      H1            -41.1335079400       12.9825224039      -23.4353492264  TIP3      12458           0.0000000000
     87206     12858  TIP3      H2            -39.8823739816       13.8373171314      -23.3717455755  TIP3      12458           0.0000000000
     87207     12859  TIP3      OH2           -38.9519443029       11.3457227591      -38.3468834583  TIP3      12459           0.0000000000
     87208     12859  TIP3      H1            -38.0934250177       11.7549986749      -38.1707101445  TIP3      12459           0.0000000000
     87209     12859  TIP3      H2            -38.9512372809       10.6055448787      -37.6959282438  TIP3      12459           0.0000000000
     87210     12860  TIP3      OH2           -38.5733415702        9.4121702770      -36.4970286965  TIP3      12460           0.0000000000
     87211     12860  TIP3      H1            -39.3117728639        8.9067774870      -36.0923226568  TIP3      12460           0.0000000000
     87212     12860  TIP3      H2            -37.9770445005        9.5824599258      -35.7388752555  TIP3      12460           0.0000000000
     87213     12861  TIP3      OH2           -38.8186424417       12.1439203554      -31.5188324028  TIP3      12461           0.0000000000
     87214     12861  TIP3      H1            -37.9786193425       11.7816553979      -31.8486408203  TIP3      12461           0.0000000000
     87215     12861  TIP3      H2            -38.6893293044       13.1132063710      -31.6612368623  TIP3      12461           0.0000000000
     87216     12862  TIP3      OH2           -40.6334879795       14.5569510205      -28.8504992264  TIP3      12462           0.0000000000
     87217     12862  TIP3      H1            -40.9695068640       15.4110719179      -28.6139352929  TIP3      12462           0.0000000000
     87218     12862  TIP3      H2            -40.7843216819       14.6276528527      -29.8458385945  TIP3      12462           0.0000000000
     87219     12863  TIP3      OH2           -38.2867939476        9.2626033607      -40.1028289419  TIP3      12463           0.0000000000
     87220     12863  TIP3      H1            -38.8397565522        9.6372985133      -40.8147313559  TIP3      12463           0.0000000000
     87221     12863  TIP3      H2            -38.3420115966        9.9635343365      -39.4260111580  TIP3      12463           0.0000000000
     87222     12864  TIP3      OH2           -40.1723400172        6.5347011261      -41.4709804544  TIP3      12464           0.0000000000
     87223     12864  TIP3      H1            -39.8434476730        7.1418487731      -42.1623477909  TIP3      12464           0.0000000000
     87224     12864  TIP3      H2            -40.0857832268        5.7066415978      -41.9895920801  TIP3      12464           0.0000000000
     87225     12865  TIP3      OH2           -40.7676523582        7.9098295715      -35.9303478890  TIP3      12465           0.0000000000
     87226     12865  TIP3      H1            -40.9220653699        6.9538721630      -35.9473163689  TIP3      12465           0.0000000000
     87227     12865  TIP3      H2            -41.1199015966        8.1631078216      -35.0617228675  TIP3      12465           0.0000000000
     87228     12866  TIP3      OH2           -55.7442971817        9.9698211290      -31.8877513552  TIP3      12466           0.0000000000
     87229     12866  TIP3      H1            -55.5609502600        9.9103473740      -32.8435464904  TIP3      12466           0.0000000000
     87230     12866  TIP3      H2            -54.8664351214        9.8429517233      -31.4912637943  TIP3      12466           0.0000000000
     87231     12867  TIP3      OH2           -39.9216599368        9.8714257637      -26.2698681131  TIP3      12467           0.0000000000
     87232     12867  TIP3      H1            -39.3132020232        9.1252248431      -26.0876483660  TIP3      12467           0.0000000000
     87233     12867  TIP3      H2            -39.3320052644       10.6519882726      -26.2385203148  TIP3      12467           0.0000000000
     87234     12868  TIP3      OH2           -38.4112671889        7.7844917462      -25.6013072054  TIP3      12468           0.0000000000
     87235     12868  TIP3      H1            -39.2889431340        7.3813250426      -25.7621701601  TIP3      12468           0.0000000000
     87236     12868  TIP3      H2            -37.8189754493        7.0184337540      -25.6729501474  TIP3      12468           0.0000000000
     87237     12869  TIP3      OH2           -40.6847503995        3.9261041377      -42.4508385186  TIP3      12469           0.0000000000
     87238     12869  TIP3      H1            -40.0824500156        3.5328298503      -41.7930271849  TIP3      12469           0.0000000000
     87239     12869  TIP3      H2            -41.5454616364        3.5276601689      -42.2443411047  TIP3      12469           0.0000000000
     87240     12870  TIP3      OH2           -41.0854117651        5.4974208128      -37.4548967858  TIP3      12470           0.0000000000
     87241     12870  TIP3      H1            -40.7799854975        4.5682168239      -37.3380690899  TIP3      12470           0.0000000000
     87242     12870  TIP3      H2            -40.3053508953        5.9102509985      -37.8518221355  TIP3      12470           0.0000000000
     87243     12871  TIP3      OH2           -40.4627060399        6.0287938704      -32.0261512762  TIP3      12471           0.0000000000
     87244     12871  TIP3      H1            -39.5102118542        6.2900980129      -32.0515945938  TIP3      12471           0.0000000000
     87245     12871  TIP3      H2            -40.6723107609        6.1899468724      -31.0929277954  TIP3      12471           0.0000000000
     87246     12872  TIP3      OH2           -40.4036207218        6.7678566212      -29.2499424541  TIP3      12472           0.0000000000
     87247     12872  TIP3      H1            -41.2712043358        7.0712925317      -28.8965302159  TIP3      12472           0.0000000000
     87248     12872  TIP3      H2            -39.9706203665        7.6295587570      -29.4618976685  TIP3      12472           0.0000000000
     87249     12873  TIP3      OH2           -56.1160827386        5.2822027491      -25.7646333383  TIP3      12473           0.0000000000
     87250     12873  TIP3      H1            -55.1971390270        5.0944000359      -25.5228002622  TIP3      12473           0.0000000000
     87251     12873  TIP3      H2            -56.5823315999        4.4825692647      -25.4019148805  TIP3      12473           0.0000000000
     87252     12874  TIP3      OH2           -38.1510479396        0.8000841090      -23.8850198929  TIP3      12474           0.0000000000
     87253     12874  TIP3      H1            -37.7847325830        0.1391866611      -24.5001126759  TIP3      12474           0.0000000000
     87254     12874  TIP3      H2            -37.9889273330        1.6298317108      -24.3601152077  TIP3      12474           0.0000000000
     87255     12875  TIP3      OH2           -40.4380531134        2.7684310685      -37.4136956623  TIP3      12475           0.0000000000
     87256     12875  TIP3      H1            -40.2481065553        2.3095484472      -36.5736041901  TIP3      12475           0.0000000000
     87257     12875  TIP3      H2            -41.0491123141        2.1509471980      -37.8756930218  TIP3      12475           0.0000000000
     87258     12876  TIP3      OH2           -54.9249526580        3.5861456171      -32.8977727589  TIP3      12476           0.0000000000
     87259     12876  TIP3      H1            -54.4833731966        2.7701906597      -32.5789299115  TIP3      12476           0.0000000000
     87260     12876  TIP3      H2            -54.4387825083        4.2860549652      -32.4463006911  TIP3      12476           0.0000000000
     87261     12877  TIP3      OH2           -56.5897771242        6.5607868871      -31.7948978717  TIP3      12477           0.0000000000
     87262     12877  TIP3      H1            -56.0925625360        6.3455234978      -32.5970059181  TIP3      12477           0.0000000000
     87263     12877  TIP3      H2            -56.2260771762        7.4136065202      -31.5369201723  TIP3      12477           0.0000000000
     87264     12878  TIP3      OH2           -38.6075121171        2.9036653032      -25.5365077508  TIP3      12478           0.0000000000
     87265     12878  TIP3      H1            -39.5444831804        3.1722204743      -25.5940766082  TIP3      12478           0.0000000000
     87266     12878  TIP3      H2            -38.5200700563        2.3602529985      -26.3314853386  TIP3      12478           0.0000000000
     87267     12879  TIP3      OH2           -38.6058292417        2.8213369509      -40.8605380370  TIP3      12479           0.0000000000
     87268     12879  TIP3      H1            -38.1686703116        2.1087692723      -41.3588294249  TIP3      12479           0.0000000000
     87269     12879  TIP3      H2            -37.8909220795        3.4853466535      -40.8339977252  TIP3      12479           0.0000000000
     87270     12880  TIP3      OH2            56.5436015164        2.8485164658      -37.7460187077  TIP3      12480           0.0000000000
     87271     12880  TIP3      H1             55.6003530328        3.0263020444      -37.8962025016  TIP3      12480           0.0000000000
     87272     12880  TIP3      H2             56.9781938508        3.3123848020      -38.4745184839  TIP3      12480           0.0000000000
     87273     12881  TIP3      OH2           -41.5547267826       17.8075214028      -35.8154990016  TIP3      12481           0.0000000000
     87274     12881  TIP3      H1            -40.8730445877       17.4693976111      -36.4225519778  TIP3      12481           0.0000000000
     87275     12881  TIP3      H2            -41.0242773734       18.2867581996      -35.1567364863  TIP3      12481           0.0000000000
     87276     12882  TIP3      OH2            56.5276821952        1.5248680744      -29.4475637608  TIP3      12482           0.0000000000
     87277     12882  TIP3      H1             55.8556773045        1.3261905278      -28.7656365813  TIP3      12482           0.0000000000
     87278     12882  TIP3      H2             56.0520276140        2.1843944063      -29.9977205997  TIP3      12482           0.0000000000
     87279     12883  TIP3      OH2           -54.1313838404       14.7384793558      -25.2833854070  TIP3      12483           0.0000000000
     87280     12883  TIP3      H1            -54.9698414344       14.8861992153      -25.7137997220  TIP3      12483           0.0000000000
     87281     12883  TIP3      H2            -54.3817181230       14.6380427942      -24.3514986033  TIP3      12483           0.0000000000
     87282     12884  TIP3      OH2           -51.2120684840       15.6986367733      -29.0064790767  TIP3      12484           0.0000000000
     87283     12884  TIP3      H1            -51.5990118435       16.5389802078      -29.2948974000  TIP3      12484           0.0000000000
     87284     12884  TIP3      H2            -50.2855832437       15.8027359093      -29.3182921933  TIP3      12484           0.0000000000
     87285     12885  TIP3      OH2           -46.8879913108       17.1065331310      -26.0869688605  TIP3      12485           0.0000000000
     87286     12885  TIP3      H1            -46.7062282292       16.7850975604      -25.1624012643  TIP3      12485           0.0000000000
     87287     12885  TIP3      H2            -46.0067559867       17.4282492684      -26.3578111557  TIP3      12485           0.0000000000
     87288     12886  TIP3      OH2           -44.5702069732       18.3922128122      -26.8189799417  TIP3      12486           0.0000000000
     87289     12886  TIP3      H1            -43.8498217442       17.7771413593      -27.0468296538  TIP3      12486           0.0000000000
     87290     12886  TIP3      H2            -44.2119917991       18.8024858894      -25.9978090678  TIP3      12486           0.0000000000
     87291     12887  TIP3      OH2           -39.5816693074        1.0305275422      -27.7648255949  TIP3      12487           0.0000000000
     87292     12887  TIP3      H1            -40.4592137618        1.2923458341      -28.0839652338  TIP3      12487           0.0000000000
     87293     12887  TIP3      H2            -39.4050674494        0.1775720784      -28.2233035625  TIP3      12487           0.0000000000
     87294     12888  TIP3      OH2           -53.7886130642       18.9376202705      -28.9905809671  TIP3      12488           0.0000000000
     87295     12888  TIP3      H1            -54.5214534434       19.4243899402      -29.4127105852  TIP3      12488           0.0000000000
     87296     12888  TIP3      H2            -54.1466471656       18.7365687044      -28.1096107083  TIP3      12488           0.0000000000
     87297     12889  TIP3      OH2           -51.2966571196       18.5429562326      -29.9294239561  TIP3      12489           0.0000000000
     87298     12889  TIP3      H1            -52.1942485184       18.6514477228      -29.5352145282  TIP3      12489           0.0000000000
     87299     12889  TIP3      H2            -51.3788072312       19.1161755814      -30.7183988641  TIP3      12489           0.0000000000
     87300     12890  TIP3      OH2           -46.6112433887       18.4382508186      -30.7646751190  TIP3      12490           0.0000000000
     87301     12890  TIP3      H1            -47.0687529339       18.9869069797      -31.4187291343  TIP3      12490           0.0000000000
     87302     12890  TIP3      H2            -46.4513961750       19.0675822551      -30.0317703105  TIP3      12490           0.0000000000
     87303     12891  TIP3      OH2           -44.3020459489       17.2917126372      -29.7785130570  TIP3      12491           0.0000000000
     87304     12891  TIP3      H1            -45.1845172942       17.5132656451      -30.0990806071  TIP3      12491           0.0000000000
     87305     12891  TIP3      H2            -43.8517494155       18.1499076068      -29.8678222667  TIP3      12491           0.0000000000
     87306     12892  TIP3      OH2           -41.7195171214       18.8651592824      -29.5058442363  TIP3      12492           0.0000000000
     87307     12892  TIP3      H1            -41.8344261353       19.8121381743      -29.7482174819  TIP3      12492           0.0000000000
     87308     12892  TIP3      H2            -41.5070641495       18.4705911768      -30.3766098342  TIP3      12492           0.0000000000
     87309     12893  TIP3      OH2           -54.3280007932       17.6125694767      -32.0705358140  TIP3      12493           0.0000000000
     87310     12893  TIP3      H1            -54.3823567496       17.1516273270      -31.2023863883  TIP3      12493           0.0000000000
     87311     12893  TIP3      H2            -53.5280320108       17.2414486820      -32.4739737682  TIP3      12493           0.0000000000
     87312     12894  TIP3      OH2           -52.2523515157       16.3086171635      -33.4161641120  TIP3      12494           0.0000000000
     87313     12894  TIP3      H1            -52.4352787569       15.3732916100      -33.2131639004  TIP3      12494           0.0000000000
     87314     12894  TIP3      H2            -51.4044616239       16.4441273941      -32.9381657735  TIP3      12494           0.0000000000
     87315     12895  TIP3      OH2           -49.6890679377       16.7882025083      -32.5518205687  TIP3      12495           0.0000000000
     87316     12895  TIP3      H1            -49.4830241625       15.8747490338      -32.8233998629  TIP3      12495           0.0000000000
     87317     12895  TIP3      H2            -49.6189275612       16.7266686653      -31.5889464443  TIP3      12495           0.0000000000
     87318     12896  TIP3      OH2           -46.1886812234        2.4405497122      -33.4010932597  TIP3      12496           0.0000000000
     87319     12896  TIP3      H1            -46.8659902969        1.7945561905      -33.1425434931  TIP3      12496           0.0000000000
     87320     12896  TIP3      H2            -45.6314974872        1.9290309195      -34.0012386165  TIP3      12496           0.0000000000
     87321     12897  TIP3      OH2           -41.0447705224        0.5399908282      -33.2670203436  TIP3      12497           0.0000000000
     87322     12897  TIP3      H1            -40.4395049573        1.0843399482      -33.8371283735  TIP3      12497           0.0000000000
     87323     12897  TIP3      H2            -41.9302070591        0.8493659925      -33.5589315608  TIP3      12497           0.0000000000
     87324     12898  TIP3      OH2           -39.3550218997        1.6956842484      -34.9754002650  TIP3      12498           0.0000000000
     87325     12898  TIP3      H1            -38.7010344356        1.1567733462      -35.4916147288  TIP3      12498           0.0000000000
     87326     12898  TIP3      H2            -38.9078852590        2.5711007711      -34.9559546056  TIP3      12498           0.0000000000
     87327     12899  TIP3      OH2           -53.8418394277        1.0755941894      -35.5721646501  TIP3      12499           0.0000000000
     87328     12899  TIP3      H1            -54.6351349519        0.8355117606      -36.0908236185  TIP3      12499           0.0000000000
     87329     12899  TIP3      H2            -53.3370698067        0.2405157295      -35.5951077331  TIP3      12499           0.0000000000
     87330     12900  TIP3      OH2           -55.0228246522        0.8346561144      -39.7885843937  TIP3      12500           0.0000000000
     87331     12900  TIP3      H1            -54.5752945256        1.4758041151      -40.3756364357  TIP3      12500           0.0000000000
     87332     12900  TIP3      H2            -55.6452555545        1.3936638398      -39.2950148101  TIP3      12500           0.0000000000
     87333     12901  TIP3      OH2           -49.3128612092        0.9910693637      -35.7740992437  TIP3      12501           0.0000000000
     87334     12901  TIP3      H1            -48.4148403267        1.3683001224      -35.8109833244  TIP3      12501           0.0000000000
     87335     12901  TIP3      H2            -49.4016126536        0.7789708248      -34.8446948421  TIP3      12501           0.0000000000
     87336     12902  TIP3      OH2           -43.6725196120        1.0208059776      -34.1198012546  TIP3      12502           0.0000000000
     87337     12902  TIP3      H1            -43.6618015768        1.1176383689      -35.0794177752  TIP3      12502           0.0000000000
     87338     12902  TIP3      H2            -44.0200965266        0.1031239965      -34.0039907522  TIP3      12502           0.0000000000
     87339     12903  TIP3      OH2           -42.3616757617        1.0499736103      -38.4517756957  TIP3      12503           0.0000000000
     87340     12903  TIP3      H1            -43.0917323231        1.6562842971      -38.6406556210  TIP3      12503           0.0000000000
     87341     12903  TIP3      H2            -42.8183199121        0.1934778766      -38.2849069834  TIP3      12503           0.0000000000
     87342     12904  TIP3      OH2           -55.1014710625       16.7856446472      -38.8473633753  TIP3      12504           0.0000000000
     87343     12904  TIP3      H1            -55.8015897175       16.7795833817      -39.5412225338  TIP3      12504           0.0000000000
     87344     12904  TIP3      H2            -55.1229398490       17.7261537792      -38.6182640532  TIP3      12504           0.0000000000
     87345     12905  TIP3      OH2           -53.2051670742        2.7431853169      -41.3318379271  TIP3      12505           0.0000000000
     87346     12905  TIP3      H1            -52.6792641943        2.1444741119      -41.8625704115  TIP3      12505           0.0000000000
     87347     12905  TIP3      H2            -52.5485445719        3.0854346575      -40.6971038868  TIP3      12505           0.0000000000
     87348     12906  TIP3      OH2           -48.1710695391        3.0416136259      -38.9084354679  TIP3      12506           0.0000000000
     87349     12906  TIP3      H1            -47.9471306145        2.4334185648      -38.1840180347  TIP3      12506           0.0000000000
     87350     12906  TIP3      H2            -48.1654271092        3.8968088832      -38.4169657317  TIP3      12506           0.0000000000
     87351     12907  TIP3      OH2           -46.2920424358       18.2032603354      -40.3962180687  TIP3      12507           0.0000000000
     87352     12907  TIP3      H1            -45.3671229357       18.3665351696      -40.6471951666  TIP3      12507           0.0000000000
     87353     12907  TIP3      H2            -46.4810853963       17.6277174307      -41.1970142349  TIP3      12507           0.0000000000
     87354     12908  TIP3      OH2           -39.5467360059       17.5913584979      -37.7766701149  TIP3      12508           0.0000000000
     87355     12908  TIP3      H1            -39.7557664030       16.8221653034      -38.3625258361  TIP3      12508           0.0000000000
     87356     12908  TIP3      H2            -39.6068270604       18.3362056741      -38.4026949098  TIP3      12508           0.0000000000
     87357     12909  TIP3      OH2           -53.9343284606        1.6041433056      -26.1091891723  TIP3      12509           0.0000000000
     87358     12909  TIP3      H1            -54.2807749063        0.8181532846      -25.6408662756  TIP3      12509           0.0000000000
     87359     12909  TIP3      H2            -53.0082545732        1.5886585889      -25.7641278166  TIP3      12509           0.0000000000
     87360     12910  TIP3      OH2           -51.9316545893        0.9604212919      -24.5296433024  TIP3      12510           0.0000000000
     87361     12910  TIP3      H1            -51.0234738165        0.6533672519      -24.7011370979  TIP3      12510           0.0000000000
     87362     12910  TIP3      H2            -52.3169760493        0.2030334884      -24.0478679205  TIP3      12510           0.0000000000
     87363     12911  TIP3      OH2           -53.2864270845       17.7490520713      -41.8571750766  TIP3      12511           0.0000000000
     87364     12911  TIP3      H1            -53.5793856434       18.0185906474      -40.9776849173  TIP3      12511           0.0000000000
     87365     12911  TIP3      H2            -52.5328367943       17.1878715548      -41.6965475259  TIP3      12511           0.0000000000
     87366     12912  TIP3      OH2           -43.5082999267        0.2872343464      -24.3397545473  TIP3      12512           0.0000000000
     87367     12912  TIP3      H1            -43.4414107755       -0.1823923024      -23.4802689927  TIP3      12512           0.0000000000
     87368     12912  TIP3      H2            -42.6020487305        0.2546517481      -24.6929280920  TIP3      12512           0.0000000000
     87369     12913  TIP3      OH2           -40.3324321640       16.3123660666      -25.6301263946  TIP3      12513           0.0000000000
     87370     12913  TIP3      H1            -41.1185864510       16.1671835062      -26.2026342811  TIP3      12513           0.0000000000
     87371     12913  TIP3      H2            -40.4166094141       17.2727458117      -25.4594193058  TIP3      12513           0.0000000000
     87372     12914  TIP3      OH2           -25.9025890662       10.2051896312      -35.6509398790  TIP3      12514           0.0000000000
     87373     12914  TIP3      H1            -25.8588995272       11.1800458620      -35.7506119473  TIP3      12514           0.0000000000
     87374     12914  TIP3      H2            -26.5855593419        9.9580988385      -36.2930595348  TIP3      12514           0.0000000000
     87375     12915  TIP3      OH2           -27.0090667524        9.4803020817      -32.1952751305  TIP3      12515           0.0000000000
     87376     12915  TIP3      H1            -27.0418195743        8.8268975598      -31.4928396818  TIP3      12515           0.0000000000
     87377     12915  TIP3      H2            -27.3335527377        8.9891883570      -32.9687850620  TIP3      12515           0.0000000000
     87378     12916  TIP3      OH2           -34.6498779988        9.1132078271      -30.6345981105  TIP3      12516           0.0000000000
     87379     12916  TIP3      H1            -34.5769825975        8.4583301572      -29.9076024015  TIP3      12516           0.0000000000
     87380     12916  TIP3      H2            -33.9188435178        9.7111039586      -30.4248038361  TIP3      12516           0.0000000000
     87381     12917  TIP3      OH2           -23.3013741905       12.4121526108      -33.9167512648  TIP3      12517           0.0000000000
     87382     12917  TIP3      H1            -23.7387899664       11.7007599183      -33.4410102855  TIP3      12517           0.0000000000
     87383     12917  TIP3      H2            -23.3066509980       13.1312324255      -33.2564755046  TIP3      12517           0.0000000000
     87384     12918  TIP3      OH2           -33.7147024869       13.5812235715      -32.1114588696  TIP3      12518           0.0000000000
     87385     12918  TIP3      H1            -34.0641927190       12.7266760930      -32.4484750273  TIP3      12518           0.0000000000
     87386     12918  TIP3      H2            -32.7679254373       13.3605786800      -32.0499920311  TIP3      12518           0.0000000000
     87387     12919  TIP3      OH2           -37.0841983121        7.1683522151      -36.6698536200  TIP3      12519           0.0000000000
     87388     12919  TIP3      H1            -37.5414351736        8.0362751326      -36.7100440983  TIP3      12519           0.0000000000
     87389     12919  TIP3      H2            -37.6630852468        6.6179719902      -37.2165291407  TIP3      12519           0.0000000000
     87390     12920  TIP3      OH2           -36.3930553290        9.3703679410      -34.5410418374  TIP3      12520           0.0000000000
     87391     12920  TIP3      H1            -36.1463917286        8.5708908736      -34.0417759452  TIP3      12520           0.0000000000
     87392     12920  TIP3      H2            -35.6579552739        9.4573706614      -35.1683933955  TIP3      12520           0.0000000000
     87393     12921  TIP3      OH2           -26.2120441421       17.5488195163      -33.6870830211  TIP3      12521           0.0000000000
     87394     12921  TIP3      H1            -25.5609999501       16.8498160119      -33.9604550358  TIP3      12521           0.0000000000
     87395     12921  TIP3      H2            -26.3890758076       17.2732280531      -32.7894740762  TIP3      12521           0.0000000000
     87396     12922  TIP3      OH2           -28.6341376156       11.8953087093      -31.7705961523  TIP3      12522           0.0000000000
     87397     12922  TIP3      H1            -28.2989235892       11.2329110297      -32.3941200057  TIP3      12522           0.0000000000
     87398     12922  TIP3      H2            -27.8599888029       12.0239990604      -31.1955335492  TIP3      12522           0.0000000000
     87399     12923  TIP3      OH2           -20.0167410797        3.5177153757      -30.9598041244  TIP3      12523           0.0000000000
     87400     12923  TIP3      H1            -19.8637071268        4.1277561432      -30.2070997471  TIP3      12523           0.0000000000
     87401     12923  TIP3      H2            -19.4959585666        3.9505101996      -31.6644670736  TIP3      12523           0.0000000000
     87402     12924  TIP3      OH2           -25.4427480277        6.3055407968      -31.4278698601  TIP3      12524           0.0000000000
     87403     12924  TIP3      H1            -25.3598237001        5.3603859483      -31.4916820548  TIP3      12524           0.0000000000
     87404     12924  TIP3      H2            -25.5824478775        6.5054070230      -32.3902690499  TIP3      12524           0.0000000000
     87405     12925  TIP3      OH2           -32.3295410798        4.4110338426      -34.1881139657  TIP3      12525           0.0000000000
     87406     12925  TIP3      H1            -32.2644063498        5.2644417997      -34.6470266159  TIP3      12525           0.0000000000
     87407     12925  TIP3      H2            -32.7679578632        3.8478654549      -34.8604256546  TIP3      12525           0.0000000000
     87408     12926  TIP3      OH2           -24.6270091108        4.5400157056      -35.7943062173  TIP3      12526           0.0000000000
     87409     12926  TIP3      H1            -23.9382510151        4.1914185432      -35.1813762440  TIP3      12526           0.0000000000
     87410     12926  TIP3      H2            -24.0599908714        5.0484253704      -36.4028465989  TIP3      12526           0.0000000000
     87411     12927  TIP3      OH2           -35.7187411269        6.8213997774      -33.4453848074  TIP3      12527           0.0000000000
     87412     12927  TIP3      H1            -35.0436653509        6.2590440434      -33.0094699311  TIP3      12527           0.0000000000
     87413     12927  TIP3      H2            -35.6501617869        6.5201958790      -34.3640079726  TIP3      12527           0.0000000000
     87414     12928  TIP3      OH2           -30.5510859705        8.3775597011      -34.1899316028  TIP3      12528           0.0000000000
     87415     12928  TIP3      H1            -29.9131580348        7.8089104773      -33.7269678966  TIP3      12528           0.0000000000
     87416     12928  TIP3      H2            -31.1106661261        7.7099072928      -34.6366610547  TIP3      12528           0.0000000000
     87417     12929  TIP3      OH2           -19.5823130606        4.9532888662      -28.7210527671  TIP3      12529           0.0000000000
     87418     12929  TIP3      H1            -20.2266083842        5.6813093307      -28.8025446759  TIP3      12529           0.0000000000
     87419     12929  TIP3      H2            -19.5374695268        4.8122148266      -27.7637799067  TIP3      12529           0.0000000000
     87420     12930  TIP3      OH2           -33.4709257518        3.3135573719      -30.1407165547  TIP3      12530           0.0000000000
     87421     12930  TIP3      H1            -33.7314620249        3.8715664323      -30.8988018187  TIP3      12530           0.0000000000
     87422     12930  TIP3      H2            -34.1554538557        3.5571919746      -29.4699356609  TIP3      12530           0.0000000000
     87423     12931  TIP3      OH2           -26.1371924641       12.8097869088      -36.5881632898  TIP3      12531           0.0000000000
     87424     12931  TIP3      H1            -26.4354804100       12.5049767031      -37.4551175632  TIP3      12531           0.0000000000
     87425     12931  TIP3      H2            -26.4638846088       13.7348355585      -36.5507992156  TIP3      12531           0.0000000000
     87426     12932  TIP3      OH2           -30.9295341788       10.9744025232      -29.8715488590  TIP3      12532           0.0000000000
     87427     12932  TIP3      H1            -31.6622206108       11.6087616248      -29.7186735313  TIP3      12532           0.0000000000
     87428     12932  TIP3      H2            -30.2228982634       11.5623910380      -30.1730414022  TIP3      12532           0.0000000000
     87429     12933  TIP3      OH2           -22.8464672682        3.8498308065      -33.8045546582  TIP3      12533           0.0000000000
     87430     12933  TIP3      H1            -23.0231001577        3.0522160902      -33.3044020104  TIP3      12533           0.0000000000
     87431     12933  TIP3      H2            -22.1385786754        4.2847586217      -33.3054818373  TIP3      12533           0.0000000000
     87432     12934  TIP3      OH2           -33.9110951067        5.1955730072      -32.1549522613  TIP3      12534           0.0000000000
     87433     12934  TIP3      H1            -33.2708284306        5.8576038026      -31.8071115338  TIP3      12534           0.0000000000
     87434     12934  TIP3      H2            -33.3742388911        4.7473191069      -32.8504218173  TIP3      12534           0.0000000000
     87435     12935  TIP3      OH2           -32.5020491209       12.9468929030      -29.0738758811  TIP3      12535           0.0000000000
     87436     12935  TIP3      H1            -32.5367107120       13.8557336646      -29.4258386535  TIP3      12535           0.0000000000
     87437     12935  TIP3      H2            -33.3871705518       12.8832974619      -28.6324939731  TIP3      12535           0.0000000000
     87438     12936  TIP3      OH2           -36.4165936091       12.6011650007      -38.2770531403  TIP3      12536           0.0000000000
     87439     12936  TIP3      H1            -36.6616283271       12.8872096201      -39.1782381875  TIP3      12536           0.0000000000
     87440     12936  TIP3      H2            -36.3466194808       13.4624718208      -37.8031090743  TIP3      12536           0.0000000000
     87441     12937  TIP3      OH2           -22.7807188201       14.2420014525      -31.5510354528  TIP3      12537           0.0000000000
     87442     12937  TIP3      H1            -23.7469083503       14.3340650671      -31.4080399613  TIP3      12537           0.0000000000
     87443     12937  TIP3      H2            -22.5146383862       15.1689654009      -31.7155739798  TIP3      12537           0.0000000000
     87444     12938  TIP3      OH2           -22.4492982270        2.5174925999      -30.1466738192  TIP3      12538           0.0000000000
     87445     12938  TIP3      H1            -23.1562731387        3.0840252034      -30.1933360294  TIP3      12538           0.0000000000
     87446     12938  TIP3      H2            -21.7443372010        2.9376463526      -30.6850529312  TIP3      12538           0.0000000000
     87447     12939  TIP3      OH2           -29.4820654124        0.6422268490      -32.6865136646  TIP3      12539           0.0000000000
     87448     12939  TIP3      H1            -29.6104614343       -0.3243654007      -32.7423574828  TIP3      12539           0.0000000000
     87449     12939  TIP3      H2            -30.3581846165        0.9581286446      -32.3933343481  TIP3      12539           0.0000000000
     87450     12940  TIP3      OH2           -24.5380526172       16.0309371170      -34.9316593263  TIP3      12540           0.0000000000
     87451     12940  TIP3      H1            -24.1003530346       15.3197256490      -35.4399717619  TIP3      12540           0.0000000000
     87452     12940  TIP3      H2            -24.1705479493       16.8350115734      -35.3523990130  TIP3      12540           0.0000000000
     87453     12941  TIP3      OH2           -23.3491393128       13.9553747225      -36.4357523155  TIP3      12541           0.0000000000
     87454     12941  TIP3      H1            -23.6262698967       13.2492741372      -37.0446103140  TIP3      12541           0.0000000000
     87455     12941  TIP3      H2            -23.2989897872       13.4764956885      -35.5873144209  TIP3      12541           0.0000000000
     87456     12942  TIP3      OH2           -21.6936413432       12.5247011874      -27.9383044866  TIP3      12542           0.0000000000
     87457     12942  TIP3      H1            -21.5494234252       11.9034109043      -28.6851456255  TIP3      12542           0.0000000000
     87458     12942  TIP3      H2            -21.5137641819       13.3901034619      -28.3363536099  TIP3      12542           0.0000000000
     87459     12943  TIP3      OH2           -27.2145821319        9.4563238950      -38.1669880836  TIP3      12543           0.0000000000
     87460     12943  TIP3      H1            -27.9207560875       10.0105058636      -38.5488271690  TIP3      12543           0.0000000000
     87461     12943  TIP3      H2            -26.5145163778        9.5289180275      -38.8456902167  TIP3      12543           0.0000000000
     87462     12944  TIP3      OH2           -27.1675386906        7.9450588907      -41.1242385754  TIP3      12544           0.0000000000
     87463     12944  TIP3      H1            -26.4434905996        7.9548880858      -40.4805429738  TIP3      12544           0.0000000000
     87464     12944  TIP3      H2            -26.8465661340        7.3076060538      -41.7727863926  TIP3      12544           0.0000000000
     87465     12945  TIP3      OH2           -19.8308950419        8.8422000758      -29.8801689092  TIP3      12545           0.0000000000
     87466     12945  TIP3      H1            -20.4940120761        9.5590186504      -29.8190113630  TIP3      12545           0.0000000000
     87467     12945  TIP3      H2            -19.3605951521        9.0743042874      -30.7015445711  TIP3      12545           0.0000000000
     87468     12946  TIP3      OH2           -23.7886567418        9.6731135649      -37.2425560618  TIP3      12546           0.0000000000
     87469     12946  TIP3      H1            -24.5345167569        9.9030591621      -36.6403992538  TIP3      12546           0.0000000000
     87470     12946  TIP3      H2            -23.3329191138        8.9658537061      -36.7516475903  TIP3      12546           0.0000000000
     87471     12947  TIP3      OH2           -23.8661784850        7.8132206561      -28.1536240319  TIP3      12547           0.0000000000
     87472     12947  TIP3      H1            -23.8326870125        8.6197841197      -27.5917843407  TIP3      12547           0.0000000000
     87473     12947  TIP3      H2            -24.4990534272        8.1414188428      -28.8327757030  TIP3      12547           0.0000000000
     87474     12948  TIP3      OH2           -32.1572427872       10.3236770750      -35.3363451478  TIP3      12548           0.0000000000
     87475     12948  TIP3      H1            -32.4855543978        9.9263949148      -36.1769958242  TIP3      12548           0.0000000000
     87476     12948  TIP3      H2            -31.5534549303        9.6226294240      -34.9984542426  TIP3      12548           0.0000000000
     87477     12949  TIP3      OH2           -30.8171814945       13.7480290167      -32.6661863861  TIP3      12549           0.0000000000
     87478     12949  TIP3      H1            -30.8644918948       13.1515771050      -33.4300726908  TIP3      12549           0.0000000000
     87479     12949  TIP3      H2            -30.0582110700       13.3510667796      -32.1855146411  TIP3      12549           0.0000000000
     87480     12950  TIP3      OH2           -31.8104809389        9.0631359668      -31.6973167642  TIP3      12550           0.0000000000
     87481     12950  TIP3      H1            -31.2379473609        9.1871403383      -32.4778462018  TIP3      12550           0.0000000000
     87482     12950  TIP3      H2            -31.4580955469        9.7220793646      -31.0665484001  TIP3      12550           0.0000000000
     87483     12951  TIP3      OH2           -25.4399045862       14.6098384549      -30.9818456098  TIP3      12551           0.0000000000
     87484     12951  TIP3      H1            -25.7163836348       15.2459676135      -30.3199895014  TIP3      12551           0.0000000000
     87485     12951  TIP3      H2            -25.6852451323       13.7541967652      -30.5471135646  TIP3      12551           0.0000000000
     87486     12952  TIP3      OH2           -30.8868144752       13.4765833150      -26.9863145984  TIP3      12552           0.0000000000
     87487     12952  TIP3      H1            -31.2493396031       14.2518264058      -26.5161873044  TIP3      12552           0.0000000000
     87488     12952  TIP3      H2            -31.5621632104       13.3120491241      -27.6903125553  TIP3      12552           0.0000000000
     87489     12953  TIP3      OH2           -24.9256625208        8.8318635658      -39.5613785116  TIP3      12553           0.0000000000
     87490     12953  TIP3      H1            -24.3462620766        9.0071179819      -38.7803185969  TIP3      12553           0.0000000000
     87491     12953  TIP3      H2            -24.5046088993        9.3385373036      -40.2770733291  TIP3      12553           0.0000000000
     87492     12954  TIP3      OH2           -33.9594478629        9.6536721968      -27.7925973306  TIP3      12554           0.0000000000
     87493     12954  TIP3      H1            -33.9163312789       10.3217701769      -27.0780488108  TIP3      12554           0.0000000000
     87494     12954  TIP3      H2            -34.8804811969        9.7682469716      -28.0721634107  TIP3      12554           0.0000000000
     87495     12955  TIP3      OH2           -27.1978519424       15.5662637101      -36.1047516649  TIP3      12555           0.0000000000
     87496     12955  TIP3      H1            -26.7368801292       15.8776448653      -35.3181560503  TIP3      12555           0.0000000000
     87497     12955  TIP3      H2            -27.7516495656       16.3173999293      -36.3508762769  TIP3      12555           0.0000000000
     87498     12956  TIP3      OH2           -32.6520495671       15.5345734408      -26.2322139848  TIP3      12556           0.0000000000
     87499     12956  TIP3      H1            -32.6785906369       15.4126044478      -27.1921140197  TIP3      12556           0.0000000000
     87500     12956  TIP3      H2            -33.5899443923       15.4159887667      -25.9758662662  TIP3      12556           0.0000000000
     87501     12957  TIP3      OH2           -21.2142291879        0.5684200228      -39.7465986466  TIP3      12557           0.0000000000
     87502     12957  TIP3      H1            -22.1359998493        0.7210504548      -39.4206698160  TIP3      12557           0.0000000000
     87503     12957  TIP3      H2            -20.9695966067        1.4339178211      -40.1055823229  TIP3      12557           0.0000000000
     87504     12958  TIP3      OH2           -33.1693777404        9.3574614860      -37.7345979411  TIP3      12558           0.0000000000
     87505     12958  TIP3      H1            -33.4647254504       10.1366948116      -38.2521181071  TIP3      12558           0.0000000000
     87506     12958  TIP3      H2            -33.8422711851        8.7014155025      -37.9327758452  TIP3      12558           0.0000000000
     87507     12959  TIP3      OH2           -20.0660673863       14.9307573100      -41.3298938541  TIP3      12559           0.0000000000
     87508     12959  TIP3      H1            -19.9533769502       15.8905178998      -41.1881206739  TIP3      12559           0.0000000000
     87509     12959  TIP3      H2            -19.1342066159       14.6532175490      -41.4016262640  TIP3      12559           0.0000000000
     87510     12960  TIP3      OH2           -37.0707834970       11.7518839478      -28.8887122753  TIP3      12560           0.0000000000
     87511     12960  TIP3      H1            -37.5683944532       11.7011552972      -29.7288067384  TIP3      12560           0.0000000000
     87512     12960  TIP3      H2            -37.0559149800       10.8152196869      -28.6275884390  TIP3      12560           0.0000000000
     87513     12961  TIP3      OH2           -37.3192982450       14.4947982747      -32.0664575860  TIP3      12561           0.0000000000
     87514     12961  TIP3      H1            -36.3723800542       14.3817200454      -32.0638515294  TIP3      12561           0.0000000000
     87515     12961  TIP3      H2            -37.4545852789       15.3024914209      -31.5260622750  TIP3      12561           0.0000000000
     87516     12962  TIP3      OH2           -19.1037048610       15.1967906351      -26.3844615067  TIP3      12562           0.0000000000
     87517     12962  TIP3      H1            -19.1964773998       14.2325544851      -26.3968769634  TIP3      12562           0.0000000000
     87518     12962  TIP3      H2            -19.9656137057       15.4441473264      -25.9656147888  TIP3      12562           0.0000000000
     87519     12963  TIP3      OH2           -28.1338439853       14.7400408342      -27.4977482154  TIP3      12563           0.0000000000
     87520     12963  TIP3      H1            -28.0665408240       15.5908701091      -27.0057206592  TIP3      12563           0.0000000000
     87521     12963  TIP3      H2            -29.0179698410       14.4155631988      -27.2479170387  TIP3      12563           0.0000000000
     87522     12964  TIP3      OH2           -27.7258129283       18.5030840766      -37.6885386581  TIP3      12564           0.0000000000
     87523     12964  TIP3      H1            -27.8002360973       18.4116038681      -38.6552755522  TIP3      12564           0.0000000000
     87524     12964  TIP3      H2            -27.6911213893       19.4713048947      -37.5610428298  TIP3      12564           0.0000000000
     87525     12965  TIP3      OH2           -34.0512774787       17.3540154245      -35.8882679742  TIP3      12565           0.0000000000
     87526     12965  TIP3      H1            -33.9568949973       16.9335463221      -35.0215237216  TIP3      12565           0.0000000000
     87527     12965  TIP3      H2            -34.9161916317       16.9664031190      -36.1524436710  TIP3      12565           0.0000000000
     87528     12966  TIP3      OH2           -24.6517854854       17.6984662045      -40.7174345412  TIP3      12566           0.0000000000
     87529     12966  TIP3      H1            -24.2312913573       16.9278716927      -41.1552724385  TIP3      12566           0.0000000000
     87530     12966  TIP3      H2            -24.6171790838       17.4225293861      -39.7778547006  TIP3      12566           0.0000000000
     87531     12967  TIP3      OH2           -24.9534444418       17.6255812074      -37.9434028579  TIP3      12567           0.0000000000
     87532     12967  TIP3      H1            -25.9088808918       17.7050567662      -37.7548097587  TIP3      12567           0.0000000000
     87533     12967  TIP3      H2            -24.6939462583       16.8953618675      -37.3619061903  TIP3      12567           0.0000000000
     87534     12968  TIP3      OH2           -21.9614366397        6.6710668224      -25.8948090573  TIP3      12568           0.0000000000
     87535     12968  TIP3      H1            -22.3937165115        7.1579393394      -26.6073170422  TIP3      12568           0.0000000000
     87536     12968  TIP3      H2            -21.9366942098        5.7597794538      -26.2022023908  TIP3      12568           0.0000000000
     87537     12969  TIP3      OH2           -34.8244660012       13.0790590041      -27.8929812628  TIP3      12569           0.0000000000
     87538     12969  TIP3      H1            -34.6016367038       12.7036147801      -27.0148122391  TIP3      12569           0.0000000000
     87539     12969  TIP3      H2            -35.6920540473       12.6846788603      -28.1081537510  TIP3      12569           0.0000000000
     87540     12970  TIP3      OH2           -32.1647980064        1.5337209810      -31.9151327278  TIP3      12570           0.0000000000
     87541     12970  TIP3      H1            -33.0640926688        1.4423386114      -32.3049032910  TIP3      12570           0.0000000000
     87542     12970  TIP3      H2            -32.2469138836        2.3891873895      -31.4656322702  TIP3      12570           0.0000000000
     87543     12971  TIP3      OH2           -27.5098072834        1.2617846014      -28.5440222028  TIP3      12571           0.0000000000
     87544     12971  TIP3      H1            -27.1180467200        0.8161823756      -27.7674159976  TIP3      12571           0.0000000000
     87545     12971  TIP3      H2            -28.4793179159        1.0819287119      -28.4132461017  TIP3      12571           0.0000000000
     87546     12972  TIP3      OH2           -24.2271306429        5.0151114915      -27.7303141904  TIP3      12572           0.0000000000
     87547     12972  TIP3      H1            -24.7351261460        4.8690722461      -26.8742637672  TIP3      12572           0.0000000000
     87548     12972  TIP3      H2            -24.3734988082        5.9658454048      -27.8912733151  TIP3      12572           0.0000000000
     87549     12973  TIP3      OH2           -23.3917593929        9.9205435670      -41.8288231663  TIP3      12573           0.0000000000
     87550     12973  TIP3      H1            -23.3828451314        9.6937517751      -42.7872763132  TIP3      12573           0.0000000000
     87551     12973  TIP3      H2            -22.5349813960       10.3195522181      -41.6960464396  TIP3      12573           0.0000000000
     87552     12974  TIP3      OH2           -27.8608453117        3.7726671160      -41.2447448125  TIP3      12574           0.0000000000
     87553     12974  TIP3      H1            -28.1488978049        3.7524397697      -40.3112797276  TIP3      12574           0.0000000000
     87554     12974  TIP3      H2            -28.1350632566        2.8906576346      -41.5267007330  TIP3      12574           0.0000000000
     87555     12975  TIP3      OH2           -32.0704481814        6.4989338335      -30.7569277352  TIP3      12575           0.0000000000
     87556     12975  TIP3      H1            -32.7647141543        6.4787287081      -30.0740027837  TIP3      12575           0.0000000000
     87557     12975  TIP3      H2            -32.0858604650        7.4357158966      -31.0528562146  TIP3      12575           0.0000000000
     87558     12976  TIP3      OH2           -32.0948690354        6.6973313470      -35.8541660924  TIP3      12576           0.0000000000
     87559     12976  TIP3      H1            -33.0162547543        6.3814032877      -35.9589078697  TIP3      12576           0.0000000000
     87560     12976  TIP3      H2            -31.6796054078        6.3432668385      -36.6637021367  TIP3      12576           0.0000000000
     87561     12977  TIP3      OH2           -26.5684507060        7.1300378697      -37.0612606767  TIP3      12577           0.0000000000
     87562     12977  TIP3      H1            -26.9792704181        7.9636133167      -37.3801526564  TIP3      12577           0.0000000000
     87563     12977  TIP3      H2            -25.8541846308        6.9873114922      -37.7132378403  TIP3      12577           0.0000000000
     87564     12978  TIP3      OH2           -27.4861170573        7.3493538171      -25.5958734746  TIP3      12578           0.0000000000
     87565     12978  TIP3      H1            -28.0332046502        6.5866848281      -25.2819910688  TIP3      12578           0.0000000000
     87566     12978  TIP3      H2            -26.6546315350        7.2022177936      -25.1196269450  TIP3      12578           0.0000000000
     87567     12979  TIP3      OH2           -25.5534851783        6.6048833632      -34.2146423139  TIP3      12579           0.0000000000
     87568     12979  TIP3      H1            -25.7836355176        7.1864840534      -34.9678383533  TIP3      12579           0.0000000000
     87569     12979  TIP3      H2            -25.4083888520        5.7638907502      -34.7044662846  TIP3      12579           0.0000000000
     87570     12980  TIP3      OH2           -34.3823891279        6.8073081313      -28.9668352954  TIP3      12580           0.0000000000
     87571     12980  TIP3      H1            -34.3778244122        7.2067731350      -28.0789151771  TIP3      12580           0.0000000000
     87572     12980  TIP3      H2            -34.8578203883        5.9761768453      -28.8227196270  TIP3      12580           0.0000000000
     87573     12981  TIP3      OH2           -30.8855808942        4.3703702402      -41.9001309077  TIP3      12581           0.0000000000
     87574     12981  TIP3      H1            -31.4188285785        3.7524822614      -41.3641974840  TIP3      12581           0.0000000000
     87575     12981  TIP3      H2            -31.5635868729        4.6480019898      -42.5346509833  TIP3      12581           0.0000000000
     87576     12982  TIP3      OH2           -37.7695425500        3.9122372811      -35.0513855521  TIP3      12582           0.0000000000
     87577     12982  TIP3      H1            -37.0936030129        3.8901746294      -34.3502237119  TIP3      12582           0.0000000000
     87578     12982  TIP3      H2            -37.3055479123        3.5078475044      -35.8106733529  TIP3      12582           0.0000000000
     87579     12983  TIP3      OH2           -36.4692066553        4.6393340268      -39.6526942536  TIP3      12583           0.0000000000
     87580     12983  TIP3      H1            -35.9941858752        5.2538116378      -40.2547211611  TIP3      12583           0.0000000000
     87581     12983  TIP3      H2            -37.1817717735        5.2324393652      -39.3279348549  TIP3      12583           0.0000000000
     87582     12984  TIP3      OH2           -26.3029461277        8.2260736155      -29.6087335660  TIP3      12584           0.0000000000
     87583     12984  TIP3      H1            -25.9756255392        7.5697021104      -30.2408839169  TIP3      12584           0.0000000000
     87584     12984  TIP3      H2            -26.7719938229        7.6928781655      -28.9415795171  TIP3      12584           0.0000000000
     87585     12985  TIP3      OH2           -29.5224048672        4.1661401144      -34.8171649715  TIP3      12585           0.0000000000
     87586     12985  TIP3      H1            -30.4541964778        4.2022166961      -34.5158843468  TIP3      12585           0.0000000000
     87587     12985  TIP3      H2            -29.0302581116        4.0660257025      -33.9889301711  TIP3      12585           0.0000000000
     87588     12986  TIP3      OH2           -34.7032716018        5.7662405592      -35.9597302562  TIP3      12586           0.0000000000
     87589     12986  TIP3      H1            -35.6014380213        5.8854543032      -36.3295923150  TIP3      12586           0.0000000000
     87590     12986  TIP3      H2            -34.4138140109        4.9217966829      -36.3393334768  TIP3      12586           0.0000000000
     87591     12987  TIP3      OH2           -31.0633856791        5.7875185816      -38.3158996299  TIP3      12587           0.0000000000
     87592     12987  TIP3      H1            -30.1100488563        5.9050699680      -38.1415202493  TIP3      12587           0.0000000000
     87593     12987  TIP3      H2            -31.2852412489        6.4555287657      -38.9867791803  TIP3      12587           0.0000000000
     87594     12988  TIP3      OH2           -25.2311807471        3.2845003830      -31.6563944633  TIP3      12588           0.0000000000
     87595     12988  TIP3      H1            -25.8930664009        3.4627034021      -30.9435703223  TIP3      12588           0.0000000000
     87596     12988  TIP3      H2            -25.7434470358        3.1900884768      -32.4732687418  TIP3      12588           0.0000000000
     87597     12989  TIP3      OH2           -32.3777622994        6.9672901081      -40.7336095075  TIP3      12589           0.0000000000
     87598     12989  TIP3      H1            -32.9246419017        6.5996406910      -41.4501375946  TIP3      12589           0.0000000000
     87599     12989  TIP3      H2            -31.5457534697        7.1683756459      -41.1904597949  TIP3      12589           0.0000000000
     87600     12990  TIP3      OH2           -21.8798677931       19.0587643851      -25.2377850029  TIP3      12590           0.0000000000
     87601     12990  TIP3      H1            -21.6355036238       19.4669700823      -26.0964859530  TIP3      12590           0.0000000000
     87602     12990  TIP3      H2            -21.1732842596       19.4024568587      -24.6689385357  TIP3      12590           0.0000000000
     87603     12991  TIP3      OH2           -34.2248339560       11.5212342579      -25.6752040012  TIP3      12591           0.0000000000
     87604     12991  TIP3      H1            -33.5184456034       11.7925833537      -25.0737773818  TIP3      12591           0.0000000000
     87605     12991  TIP3      H2            -35.0230397725       11.6960403987      -25.1194357513  TIP3      12591           0.0000000000
     87606     12992  TIP3      OH2           -28.2211342804        6.9425336096      -32.9129014649  TIP3      12592           0.0000000000
     87607     12992  TIP3      H1            -27.6515848883        6.3973240268      -33.4692756049  TIP3      12592           0.0000000000
     87608     12992  TIP3      H2            -28.3787459661        6.4049115325      -32.1306037977  TIP3      12592           0.0000000000
     87609     12993  TIP3      OH2           -33.2200035508        3.0903502690      -36.4888489111  TIP3      12593           0.0000000000
     87610     12993  TIP3      H1            -33.5284842198        2.1656815907      -36.5234610190  TIP3      12593           0.0000000000
     87611     12993  TIP3      H2            -32.4324929103        3.0556514392      -37.0471199242  TIP3      12593           0.0000000000
     87612     12994  TIP3      OH2           -29.5799758801        5.2963541552      -30.5113346177  TIP3      12594           0.0000000000
     87613     12994  TIP3      H1            -30.4224696688        5.7841697935      -30.4035537298  TIP3      12594           0.0000000000
     87614     12994  TIP3      H2            -29.0599542942        5.6194766380      -29.7534231194  TIP3      12594           0.0000000000
     87615     12995  TIP3      OH2           -29.0150136109       11.5234609026      -38.8131181924  TIP3      12595           0.0000000000
     87616     12995  TIP3      H1            -29.7998943650       11.0262430005      -39.1367379373  TIP3      12595           0.0000000000
     87617     12995  TIP3      H2            -29.2007983264       11.5906452892      -37.8565134185  TIP3      12595           0.0000000000
     87618     12996  TIP3      OH2           -21.8636249624       10.6753439055      -30.0119340784  TIP3      12596           0.0000000000
     87619     12996  TIP3      H1            -21.2590064267       11.1494647116      -30.6065694547  TIP3      12596           0.0000000000
     87620     12996  TIP3      H2            -22.7122651647       10.7742648047      -30.4937307438  TIP3      12596           0.0000000000
     87621     12997  TIP3      OH2           -25.1420696701        4.3158748303      -40.6254131109  TIP3      12597           0.0000000000
     87622     12997  TIP3      H1            -26.0908924680        4.4605349292      -40.7786334363  TIP3      12597           0.0000000000
     87623     12997  TIP3      H2            -24.8493651825        5.1937336719      -40.3094347958  TIP3      12597           0.0000000000
     87624     12998  TIP3      OH2           -27.5216227754       11.7365911512      -27.5812290060  TIP3      12598           0.0000000000
     87625     12998  TIP3      H1            -27.8680638097       11.3415299743      -26.7750007599  TIP3      12598           0.0000000000
     87626     12998  TIP3      H2            -27.7408864918       12.6687656419      -27.4932307631  TIP3      12598           0.0000000000
     87627     12999  TIP3      OH2           -24.4404261090        6.2268636606      -38.9578100931  TIP3      12599           0.0000000000
     87628     12999  TIP3      H1            -23.5327564887        6.0814403847      -38.6206226744  TIP3      12599           0.0000000000
     87629     12999  TIP3      H2            -24.3641203185        7.0270608980      -39.4962394998  TIP3      12599           0.0000000000
     87630     13000  TIP3      OH2           -33.9125340887       10.8656127013      -33.0259911602  TIP3      12600           0.0000000000
     87631     13000  TIP3      H1            -33.1859436232       10.8190330267      -33.6756749066  TIP3      12600           0.0000000000
     87632     13000  TIP3      H2            -33.8390092707       10.0122890390      -32.5636990292  TIP3      12600           0.0000000000
     87633     13001  TIP3      OH2           -26.9015770146       12.9850185022      -39.7822801405  TIP3      12601           0.0000000000
     87634     13001  TIP3      H1            -27.2373419646       13.8214732498      -39.4098890337  TIP3      12601           0.0000000000
     87635     13001  TIP3      H2            -27.6391687569       12.3656197261      -39.5866971210  TIP3      12601           0.0000000000
     87636     13002  TIP3      OH2           -36.9151861572        9.2957368850      -27.7412211216  TIP3      12602           0.0000000000
     87637     13002  TIP3      H1            -36.7037551752        8.8615494028      -26.8934624595  TIP3      12602           0.0000000000
     87638     13002  TIP3      H2            -37.5240275232        8.6699360213      -28.1708307502  TIP3      12602           0.0000000000
     87639     13003  TIP3      OH2           -29.8995743735        8.8399738983      -25.5269351103  TIP3      12603           0.0000000000
     87640     13003  TIP3      H1            -30.1984737550        8.6098645833      -26.4246476698  TIP3      12603           0.0000000000
     87641     13003  TIP3      H2            -28.9598351083        8.5645478509      -25.5580350019  TIP3      12603           0.0000000000
     87642     13004  TIP3      OH2           -25.2431242495       14.1808105767      -27.6400978662  TIP3      12604           0.0000000000
     87643     13004  TIP3      H1            -26.1667916606       14.3712941150      -27.8764047303  TIP3      12604           0.0000000000
     87644     13004  TIP3      H2            -25.2493453265       14.4609932404      -26.7020020895  TIP3      12604           0.0000000000
     87645     13005  TIP3      OH2           -19.5327222163        6.4016196842      -39.2345225383  TIP3      12605           0.0000000000
     87646     13005  TIP3      H1            -20.1019569378        6.0456104491      -39.9425573598  TIP3      12605           0.0000000000
     87647     13005  TIP3      H2            -19.4551732521        7.3345663137      -39.5356109124  TIP3      12605           0.0000000000
     87648     13006  TIP3      OH2           -19.5629830595       12.2306454527      -26.4064441451  TIP3      12606           0.0000000000
     87649     13006  TIP3      H1            -20.4434420973       12.4596946010      -26.7911640033  TIP3      12606           0.0000000000
     87650     13006  TIP3      H2            -18.9942719714       12.2044706574      -27.1995786000  TIP3      12606           0.0000000000
     87651     13007  TIP3      OH2           -21.2446813550       15.2115579412      -38.8116497307  TIP3      12607           0.0000000000
     87652     13007  TIP3      H1            -21.6210797659       14.3832239488      -38.4918805272  TIP3      12607           0.0000000000
     87653     13007  TIP3      H2            -20.9591761923       15.0212093914      -39.7217256197  TIP3      12607           0.0000000000
     87654     13008  TIP3      OH2           -24.0666783994       10.0315126532      -31.7513770632  TIP3      12608           0.0000000000
     87655     13008  TIP3      H1            -25.0103194581        9.8002544938      -31.8220924621  TIP3      12608           0.0000000000
     87656     13008  TIP3      H2            -23.6296057976        9.2508516257      -32.1355446007  TIP3      12608           0.0000000000
     87657     13009  TIP3      OH2           -31.5466449875       14.3636837875      -35.6044510676  TIP3      12609           0.0000000000
     87658     13009  TIP3      H1            -31.0134967018       15.1305134895      -35.8615524988  TIP3      12609           0.0000000000
     87659     13009  TIP3      H2            -32.4196152766       14.5694463194      -35.9666756328  TIP3      12609           0.0000000000
     87660     13010  TIP3      OH2           -35.7933156564        9.2030848206      -41.0749953526  TIP3      12610           0.0000000000
     87661     13010  TIP3      H1            -35.1687228960        9.8365741331      -40.6774714034  TIP3      12610           0.0000000000
     87662     13010  TIP3      H2            -36.6604027536        9.5160211286      -40.7763260660  TIP3      12610           0.0000000000
     87663     13011  TIP3      OH2           -30.1016975758       12.0042148293      -36.0863355136  TIP3      12611           0.0000000000
     87664     13011  TIP3      H1            -30.3818956873       12.9340002626      -36.0238654955  TIP3      12611           0.0000000000
     87665     13011  TIP3      H2            -30.8556662302       11.5433039985      -35.6678656813  TIP3      12611           0.0000000000
     87666     13012  TIP3      OH2           -29.6462848589       16.1793814576      -29.7325617281  TIP3      12612           0.0000000000
     87667     13012  TIP3      H1            -29.2144395928       17.0119603477      -29.9833354623  TIP3      12612           0.0000000000
     87668     13012  TIP3      H2            -29.0563901364       15.8648673919      -29.0169858434  TIP3      12612           0.0000000000
     87669     13013  TIP3      OH2           -31.4315077006       17.0139168657      -36.4972938801  TIP3      12613           0.0000000000
     87670     13013  TIP3      H1            -32.4029046735       17.1471548051      -36.4818094794  TIP3      12613           0.0000000000
     87671     13013  TIP3      H2            -31.0698271804       17.8707643731      -36.2196971958  TIP3      12613           0.0000000000
     87672     13014  TIP3      OH2           -26.0867989780       12.2388069911      -30.0664494104  TIP3      12614           0.0000000000
     87673     13014  TIP3      H1            -26.4784840841       12.0221623043      -29.1988100736  TIP3      12614           0.0000000000
     87674     13014  TIP3      H2            -25.4787213374       11.5049191173      -30.2402966356  TIP3      12614           0.0000000000
     87675     13015  TIP3      OH2           -23.8484034561       13.2110738720      -40.9808924974  TIP3      12615           0.0000000000
     87676     13015  TIP3      H1            -23.5198572036       12.7963996469      -40.1572170533  TIP3      12615           0.0000000000
     87677     13015  TIP3      H2            -24.8057413018       13.0863644416      -40.8855770312  TIP3      12615           0.0000000000
     87678     13016  TIP3      OH2           -23.3657781696       16.7993960498      -27.5660632893  TIP3      12616           0.0000000000
     87679     13016  TIP3      H1            -24.0075976936       16.2697430832      -28.0785194977  TIP3      12616           0.0000000000
     87680     13016  TIP3      H2            -23.1283321004       17.4816451274      -28.2300949649  TIP3      12616           0.0000000000
     87681     13017  TIP3      OH2           -19.3433211608       17.6534476982      -40.7548943832  TIP3      12617           0.0000000000
     87682     13017  TIP3      H1            -18.6154201315       18.2721453934      -40.9423002901  TIP3      12617           0.0000000000
     87683     13017  TIP3      H2            -20.0540056912       18.2522799029      -40.4432102952  TIP3      12617           0.0000000000
     87684     13018  TIP3      OH2           -35.2690525254        4.0346986685      -28.2017671886  TIP3      12618           0.0000000000
     87685     13018  TIP3      H1            -36.1704242438        4.3928112047      -28.2273521940  TIP3      12618           0.0000000000
     87686     13018  TIP3      H2            -35.3701054339        3.1886710997      -27.7407702909  TIP3      12618           0.0000000000
     87687     13019  TIP3      OH2           -23.0042742070       11.8824065835      -38.7613260232  TIP3      12619           0.0000000000
     87688     13019  TIP3      H1            -23.2615107193       11.1162494549      -38.2052589382  TIP3      12619           0.0000000000
     87689     13019  TIP3      H2            -22.0615900126       11.9696668314      -38.5397640946  TIP3      12619           0.0000000000
     87690     13020  TIP3      OH2           -35.6041768158       15.8551651511      -29.7716751772  TIP3      12620           0.0000000000
     87691     13020  TIP3      H1            -35.4031572538       14.9054806803      -29.7615178211  TIP3      12620           0.0000000000
     87692     13020  TIP3      H2            -35.4048165966       16.1120096884      -28.8611847987  TIP3      12620           0.0000000000
     87693     13021  TIP3      OH2           -30.8503356808       13.8822449712      -40.0784922254  TIP3      12621           0.0000000000
     87694     13021  TIP3      H1            -30.6682969601       13.3506955090      -39.2965329942  TIP3      12621           0.0000000000
     87695     13021  TIP3      H2            -30.8281693030       14.7997043244      -39.7504796785  TIP3      12621           0.0000000000
     87696     13022  TIP3      OH2           -34.3875689078       11.1243771136      -39.5861780584  TIP3      12622           0.0000000000
     87697     13022  TIP3      H1            -35.0653949717       11.5042376771      -38.9931888113  TIP3      12622           0.0000000000
     87698     13022  TIP3      H2            -33.8456794408       11.8996323333      -39.8194702342  TIP3      12622           0.0000000000
     87699     13023  TIP3      OH2           -26.4747275398        3.7863838229      -29.3153510702  TIP3      12623           0.0000000000
     87700     13023  TIP3      H1            -25.8625520489        3.8582705545      -28.5779339775  TIP3      12623           0.0000000000
     87701     13023  TIP3      H2            -26.9339775809        2.9325640155      -29.0959508649  TIP3      12623           0.0000000000
     87702     13024  TIP3      OH2           -25.7847888150        3.4165998662      -38.1630520792  TIP3      12624           0.0000000000
     87703     13024  TIP3      H1            -25.5332592414        3.8905910131      -38.9850000749  TIP3      12624           0.0000000000
     87704     13024  TIP3      H2            -25.1906726042        3.8268900785      -37.5228715614  TIP3      12624           0.0000000000
     87705     13025  TIP3      OH2           -28.0902502259       15.5534724191      -39.3273907503  TIP3      12625           0.0000000000
     87706     13025  TIP3      H1            -28.9102461340       16.0719841769      -39.2750306141  TIP3      12625           0.0000000000
     87707     13025  TIP3      H2            -27.5569765278       16.0556232992      -39.9654382041  TIP3      12625           0.0000000000
     87708     13026  TIP3      OH2           -28.5602404318        5.1493927434      -37.3462202581  TIP3      12626           0.0000000000
     87709     13026  TIP3      H1            -27.7504373787        5.6914985782      -37.3110370279  TIP3      12626           0.0000000000
     87710     13026  TIP3      H2            -28.8107348298        5.0161003068      -36.4205423085  TIP3      12626           0.0000000000
     87711     13027  TIP3      OH2           -28.0033469229        6.1514765875      -28.1743988069  TIP3      12627           0.0000000000
     87712     13027  TIP3      H1            -27.9232394306        6.7277697403      -27.3870173754  TIP3      12627           0.0000000000
     87713     13027  TIP3      H2            -27.3600903171        5.4566413679      -28.0357766993  TIP3      12627           0.0000000000
     87714     13028  TIP3      OH2           -27.6924928574        2.2083357056      -36.4256906235  TIP3      12628           0.0000000000
     87715     13028  TIP3      H1            -28.0202815700        2.8596479627      -35.7819207537  TIP3      12628           0.0000000000
     87716     13028  TIP3      H2            -27.0108181201        2.7519143739      -36.8974096192  TIP3      12628           0.0000000000
     87717     13029  TIP3      OH2           -30.7286455740       16.5852136657      -39.3325394320  TIP3      12629           0.0000000000
     87718     13029  TIP3      H1            -30.5873892326       17.4153724274      -39.8384757860  TIP3      12629           0.0000000000
     87719     13029  TIP3      H2            -30.9641806102       16.9305611998      -38.4553341205  TIP3      12629           0.0000000000
     87720     13030  TIP3      OH2           -32.0302797461        3.2879452755      -39.7325965103  TIP3      12630           0.0000000000
     87721     13030  TIP3      H1            -32.0985150505        4.2009748116      -39.3747523204  TIP3      12630           0.0000000000
     87722     13030  TIP3      H2            -31.1210352351        3.0537345644      -39.4727023570  TIP3      12630           0.0000000000
     87723     13031  TIP3      OH2           -21.8167316204        4.0310521666      -27.3237802289  TIP3      12631           0.0000000000
     87724     13031  TIP3      H1            -22.7451386730        4.3355181274      -27.4131195908  TIP3      12631           0.0000000000
     87725     13031  TIP3      H2            -21.4831392889        4.0415286267      -28.2292010687  TIP3      12631           0.0000000000
     87726     13032  TIP3      OH2           -23.2206791091        7.8144611443      -33.2490932078  TIP3      12632           0.0000000000
     87727     13032  TIP3      H1            -24.0285921319        7.3858893439      -33.5765013458  TIP3      12632           0.0000000000
     87728     13032  TIP3      H2            -22.7476563283        7.1169055791      -32.7550812543  TIP3      12632           0.0000000000
     87729     13033  TIP3      OH2           -33.7789242153       13.7297465004      -40.6673941142  TIP3      12633           0.0000000000
     87730     13033  TIP3      H1            -33.1701171391       14.4277091120      -40.3950246568  TIP3      12633           0.0000000000
     87731     13033  TIP3      H2            -33.2844058442       13.2931506477      -41.3876585109  TIP3      12633           0.0000000000
     87732     13034  TIP3      OH2           -35.4271439104        6.4029768092      -41.5239194010  TIP3      12634           0.0000000000
     87733     13034  TIP3      H1            -35.4734372604        7.3624757214      -41.3769573849  TIP3      12634           0.0000000000
     87734     13034  TIP3      H2            -36.3142165995        6.1817085016      -41.8370354544  TIP3      12634           0.0000000000
     87735     13035  TIP3      OH2           -22.1452185006       17.0566171413      -31.6101648402  TIP3      12635           0.0000000000
     87736     13035  TIP3      H1            -22.2632142374       17.7505758245      -32.2888441143  TIP3      12635           0.0000000000
     87737     13035  TIP3      H2            -21.1845248558       17.1357280608      -31.4259569252  TIP3      12635           0.0000000000
     87738     13036  TIP3      OH2           -34.6517119628        1.2008585674      -32.8427282129  TIP3      12636           0.0000000000
     87739     13036  TIP3      H1            -34.8553444752        1.2278907701      -33.8057743216  TIP3      12636           0.0000000000
     87740     13036  TIP3      H2            -35.0713072342        0.3616548845      -32.5741805179  TIP3      12636           0.0000000000
     87741     13037  TIP3      OH2           -35.6842778940       15.1253320245      -36.6854154307  TIP3      12637           0.0000000000
     87742     13037  TIP3      H1            -36.5389010822       15.5852171695      -36.7037476021  TIP3      12637           0.0000000000
     87743     13037  TIP3      H2            -35.1884675051       15.6177817115      -37.3545415899  TIP3      12637           0.0000000000
     87744     13038  TIP3      OH2           -36.4347073149       17.7390415721      -25.4103115194  TIP3      12638           0.0000000000
     87745     13038  TIP3      H1            -35.8788828350       17.5340783873      -24.6238822299  TIP3      12638           0.0000000000
     87746     13038  TIP3      H2            -36.9101561007       16.9113220104      -25.5669701317  TIP3      12638           0.0000000000
     87747     13039  TIP3      OH2           -31.8157429256       16.6731323987      -23.7668091205  TIP3      12639           0.0000000000
     87748     13039  TIP3      H1            -31.0484510889       16.1867148875      -23.4460227018  TIP3      12639           0.0000000000
     87749     13039  TIP3      H2            -31.8452679563       16.4138683506      -24.7106963292  TIP3      12639           0.0000000000
     87750     13040  TIP3      OH2           -27.3983940870       16.3146113792      -41.8977319718  TIP3      12640           0.0000000000
     87751     13040  TIP3      H1            -28.1968879520       15.7277028677      -41.9662021416  TIP3      12640           0.0000000000
     87752     13040  TIP3      H2            -26.9297363793       15.7514292655      -42.5205859523  TIP3      12640           0.0000000000
     87753     13041  TIP3      OH2           -25.2678095708       15.0533317145      -25.0553946464  TIP3      12641           0.0000000000
     87754     13041  TIP3      H1            -25.6034894949       14.1748999939      -24.7765042892  TIP3      12641           0.0000000000
     87755     13041  TIP3      H2            -24.5225721099       15.1779632431      -24.4369260668  TIP3      12641           0.0000000000
     87756     13042  TIP3      OH2           -23.1246265058       15.9775494464      -42.1718556500  TIP3      12642           0.0000000000
     87757     13042  TIP3      H1            -22.8408689414       15.1718965570      -41.7002263571  TIP3      12642           0.0000000000
     87758     13042  TIP3      H2            -22.3605548793       16.2001133162      -42.7185754402  TIP3      12642           0.0000000000
     87759     13043  TIP3      OH2           -36.5255950219       11.5411103786      -24.4277328760  TIP3      12643           0.0000000000
     87760     13043  TIP3      H1            -36.3802595205       10.6232480501      -24.7195929797  TIP3      12643           0.0000000000
     87761     13043  TIP3      H2            -37.3000113156       11.8303830361      -24.9414129431  TIP3      12643           0.0000000000
     87762     13044  TIP3      OH2           -32.1442115100       11.9286003645      -42.2619959833  TIP3      12644           0.0000000000
     87763     13044  TIP3      H1            -32.0949509244       11.0994576286      -41.7763915889  TIP3      12644           0.0000000000
     87764     13044  TIP3      H2            -31.5348181899       11.7415716043      -42.9999177642  TIP3      12644           0.0000000000
     87765     13045  TIP3      OH2           -29.8508409980       11.5200852045      -24.9864603906  TIP3      12645           0.0000000000
     87766     13045  TIP3      H1            -30.1887155392       11.8101344404      -25.8601516270  TIP3      12645           0.0000000000
     87767     13045  TIP3      H2            -29.7328984847       10.5541271801      -25.1122623119  TIP3      12645           0.0000000000
     87768     13046  TIP3      OH2           -24.1407014006       11.4028272038      -27.6157394392  TIP3      12646           0.0000000000
     87769     13046  TIP3      H1            -23.3739163973       12.0098073737      -27.7153467591  TIP3      12646           0.0000000000
     87770     13046  TIP3      H2            -24.8716426297       12.0336498048      -27.5657825131  TIP3      12646           0.0000000000
     87771     13047  TIP3      OH2           -35.6768267961        8.7585405267      -25.0161863568  TIP3      12647           0.0000000000
     87772     13047  TIP3      H1            -35.2599069445        7.8928313777      -25.1189806213  TIP3      12647           0.0000000000
     87773     13047  TIP3      H2            -35.9259679936        8.7649920905      -24.0719833514  TIP3      12647           0.0000000000
     87774     13048  TIP3      OH2           -31.0189201825        9.9007201520      -39.9799353374  TIP3      12648           0.0000000000
     87775     13048  TIP3      H1            -31.4944764901        9.3783258153      -39.3131568684  TIP3      12648           0.0000000000
     87776     13048  TIP3      H2            -30.7426633654        9.1990547785      -40.6167728149  TIP3      12648           0.0000000000
     87777     13049  TIP3      OH2           -31.7392067181        7.7310289773      -27.6405764106  TIP3      12649           0.0000000000
     87778     13049  TIP3      H1            -32.3535317124        8.4348923712      -27.3696405633  TIP3      12649           0.0000000000
     87779     13049  TIP3      H2            -31.3791312794        8.0827045028      -28.4719343890  TIP3      12649           0.0000000000
     87780     13050  TIP3      OH2           -29.9549077006        8.1168091477      -41.7348706382  TIP3      12650           0.0000000000
     87781     13050  TIP3      H1            -30.1050938744        7.9436647713      -42.6724117425  TIP3      12650           0.0000000000
     87782     13050  TIP3      H2            -28.9766733092        8.2118956411      -41.6683545500  TIP3      12650           0.0000000000
     87783     13051  TIP3      OH2           -26.7150307478       10.2575021123      -24.3254754556  TIP3      12651           0.0000000000
     87784     13051  TIP3      H1            -25.7485791515       10.2941888806      -24.4044728840  TIP3      12651           0.0000000000
     87785     13051  TIP3      H2            -26.8568549558        9.5035592650      -23.7545331318  TIP3      12651           0.0000000000
     87786     13052  TIP3      OH2           -20.6802110078       10.5259365326       42.7716221268  TIP3      12652           0.0000000000
     87787     13052  TIP3      H1            -20.8396326660       10.0547207888       41.9296847707  TIP3      12652           0.0000000000
     87788     13052  TIP3      H2            -20.5255202596       11.4355824818       42.4935907723  TIP3      12652           0.0000000000
     87789     13053  TIP3      OH2           -31.3700579409        5.0995605819      -26.5597298680  TIP3      12653           0.0000000000
     87790     13053  TIP3      H1            -31.2411152723        4.3754839102      -27.1905855662  TIP3      12653           0.0000000000
     87791     13053  TIP3      H2            -31.3928896385        5.8973745712      -27.1274106177  TIP3      12653           0.0000000000
     87792     13054  TIP3      OH2           -30.9622200484        3.4739546939      -29.0456870540  TIP3      12654           0.0000000000
     87793     13054  TIP3      H1            -30.4380223222        3.9351608907      -29.7393152532  TIP3      12654           0.0000000000
     87794     13054  TIP3      H2            -31.8434767610        3.3796018085      -29.4765603559  TIP3      12654           0.0000000000
     87795     13055  TIP3      OH2           -29.4016805417        8.9275854278      -28.8054944126  TIP3      12655           0.0000000000
     87796     13055  TIP3      H1            -28.6491204657        8.7730490087      -29.3895286164  TIP3      12655           0.0000000000
     87797     13055  TIP3      H2            -29.7493161544        9.7811557567      -29.1125845876  TIP3      12655           0.0000000000
     87798     13056  TIP3      OH2           -25.0014528869        6.7256404346      -23.7883158796  TIP3      12656           0.0000000000
     87799     13056  TIP3      H1            -24.7818575124        5.7975616936      -23.9139856675  TIP3      12656           0.0000000000
     87800     13056  TIP3      H2            -24.1306224352        7.1595244130      -23.8179995423  TIP3      12656           0.0000000000
     87801     13057  TIP3      OH2           -23.6818182288        9.5030095827      -25.7070731421  TIP3      12657           0.0000000000
     87802     13057  TIP3      H1            -23.9302320763       10.2402107204      -26.3041910473  TIP3      12657           0.0000000000
     87803     13057  TIP3      H2            -22.7162569047        9.4645043924      -25.8755234974  TIP3      12657           0.0000000000
     87804     13058  TIP3      OH2           -32.9090142940        6.3442610487      -24.6531087248  TIP3      12658           0.0000000000
     87805     13058  TIP3      H1            -33.6717446392        5.7621259042      -24.8447582000  TIP3      12658           0.0000000000
     87806     13058  TIP3      H2            -32.2369446105        5.9797039649      -25.2574994468  TIP3      12658           0.0000000000
     87807     13059  TIP3      OH2           -30.1645686638        0.9121798882      -28.6231964401  TIP3      12659           0.0000000000
     87808     13059  TIP3      H1            -30.2956632395        1.8832482826      -28.7440903488  TIP3      12659           0.0000000000
     87809     13059  TIP3      H2            -30.9204307756        0.5593039636      -29.1271880389  TIP3      12659           0.0000000000
     87810     13060  TIP3      OH2           -28.8945544319        5.2506084592      -25.0761313324  TIP3      12660           0.0000000000
     87811     13060  TIP3      H1            -29.1606156837        5.0120427015      -24.1641144841  TIP3      12660           0.0000000000
     87812     13060  TIP3      H2            -29.7061073371        5.0410737460      -25.5673817989  TIP3      12660           0.0000000000
     87813     13061  TIP3      OH2           -26.1745412898        4.3661222521      -26.0044424950  TIP3      12661           0.0000000000
     87814     13061  TIP3      H1            -27.1396005572        4.4234235619      -25.8398137124  TIP3      12661           0.0000000000
     87815     13061  TIP3      H2            -25.8980071308        3.7489300220      -25.3064085518  TIP3      12661           0.0000000000
     87816     13062  TIP3      OH2           -24.5565464533        3.0306451507      -23.9705970995  TIP3      12662           0.0000000000
     87817     13062  TIP3      H1            -24.6626750979        2.0506402736      -24.0060879776  TIP3      12662           0.0000000000
     87818     13062  TIP3      H2            -24.9010605704        3.2748580740      -23.1170798199  TIP3      12662           0.0000000000
     87819     13063  TIP3      OH2           -34.7688044765        4.2496122562      -24.9429700102  TIP3      12663           0.0000000000
     87820     13063  TIP3      H1            -34.5294965039        3.5201204157      -25.5416645327  TIP3      12663           0.0000000000
     87821     13063  TIP3      H2            -34.8459969355        3.8011476789      -24.0776708674  TIP3      12663           0.0000000000
     87822     13064  TIP3      OH2           -29.9626562018        0.2505054051      -25.9541171417  TIP3      12664           0.0000000000
     87823     13064  TIP3      H1            -29.2447887935       -0.4167002577      -25.9684170416  TIP3      12664           0.0000000000
     87824     13064  TIP3      H2            -30.0473124947        0.4748420939      -26.8957666883  TIP3      12664           0.0000000000
     87825     13065  TIP3      OH2           -29.5624605045        1.9253755511      -23.9082920867  TIP3      12665           0.0000000000
     87826     13065  TIP3      H1            -29.7445152681        1.4119043176      -24.7172662966  TIP3      12665           0.0000000000
     87827     13065  TIP3      H2            -30.1940918924        2.6641175980      -23.9396447593  TIP3      12665           0.0000000000
     87828     13066  TIP3      OH2           -30.0742670451       18.8007994667      -40.7320420506  TIP3      12666           0.0000000000
     87829     13066  TIP3      H1            -29.1126522522       18.9445119421      -40.5921741837  TIP3      12666           0.0000000000
     87830     13066  TIP3      H2            -30.3111416549       19.4789048900      -41.3648729739  TIP3      12666           0.0000000000
     87831     13067  TIP3      OH2           -36.5179441212       13.4246040587      -41.2214352315  TIP3      12667           0.0000000000
     87832     13067  TIP3      H1            -35.5631677108       13.5113219815      -40.9802876817  TIP3      12667           0.0000000000
     87833     13067  TIP3      H2            -36.4822672209       12.7721331106      -41.9269911928  TIP3      12667           0.0000000000
     87834     13068  TIP3      OH2           -37.8021903496       18.8126408429      -36.2015894739  TIP3      12668           0.0000000000
     87835     13068  TIP3      H1            -38.4908668058       18.3323194969      -36.7052711542  TIP3      12668           0.0000000000
     87836     13068  TIP3      H2            -37.4992753344       18.1386913358      -35.5712962627  TIP3      12668           0.0000000000
     87837     13069  TIP3      OH2           -36.9236881663       16.9038189532      -34.3781331708  TIP3      12669           0.0000000000
     87838     13069  TIP3      H1            -37.3134987439       16.0355311487      -34.1784993602  TIP3      12669           0.0000000000
     87839     13069  TIP3      H2            -36.7661531104       17.2522974391      -33.4815225723  TIP3      12669           0.0000000000
     87840     13070  TIP3      OH2           -19.4244933633       17.7108853213      -31.4056468282  TIP3      12670           0.0000000000
     87841     13070  TIP3      H1            -19.4163926551       17.8949110394      -30.4505972576  TIP3      12670           0.0000000000
     87842     13070  TIP3      H2            -18.7207675862       18.2894181559      -31.7226917357  TIP3      12670           0.0000000000
     87843     13071  TIP3      OH2           -19.8478907244       17.3096106014      -28.4675376458  TIP3      12671           0.0000000000
     87844     13071  TIP3      H1            -20.3312089564       16.5387599314      -28.8408322889  TIP3      12671           0.0000000000
     87845     13071  TIP3      H2            -19.3206206103       16.8729498957      -27.7808587753  TIP3      12671           0.0000000000
     87846     13072  TIP3      OH2           -21.4015793364       13.0571743438      -23.8352872957  TIP3      12672           0.0000000000
     87847     13072  TIP3      H1            -22.2798681155       12.9720393925      -23.4212491148  TIP3      12672           0.0000000000
     87848     13072  TIP3      H2            -21.0248086582       13.8284535043      -23.3671403760  TIP3      12672           0.0000000000
     87849     13073  TIP3      OH2           -20.0960238625       11.3455759601      -38.3468765400  TIP3      12673           0.0000000000
     87850     13073  TIP3      H1            -19.2374875697       11.7545226839      -38.1703764508  TIP3      12673           0.0000000000
     87851     13073  TIP3      H2            -20.0952025330       10.6052940486      -37.6960182852  TIP3      12673           0.0000000000
     87852     13074  TIP3      OH2           -19.7177822824        9.4122063236      -36.4970764963  TIP3      12674           0.0000000000
     87853     13074  TIP3      H1            -20.4559538122        8.9066643071      -36.0923504914  TIP3      12674           0.0000000000
     87854     13074  TIP3      H2            -19.1212570644        9.5820166190      -35.7392365068  TIP3      12674           0.0000000000
     87855     13075  TIP3      OH2           -19.9644784327       12.1450131173      -31.5193732218  TIP3      12675           0.0000000000
     87856     13075  TIP3      H1            -19.1233970748       11.7794336194      -31.8501986193  TIP3      12675           0.0000000000
     87857     13075  TIP3      H2            -19.8270270878       13.1062157937      -31.6695576229  TIP3      12675           0.0000000000
     87858     13076  TIP3      OH2           -21.4298915789       15.0403752667      -29.2251827508  TIP3      12676           0.0000000000
     87859     13076  TIP3      H1            -22.1129416412       15.3741426165      -28.6217615420  TIP3      12676           0.0000000000
     87860     13076  TIP3      H2            -21.9763839802       14.6162744659      -29.9235175650  TIP3      12676           0.0000000000
     87861     13077  TIP3      OH2           -19.4281315004        9.2637427700      -40.1007413031  TIP3      12677           0.0000000000
     87862     13077  TIP3      H1            -19.9835854340        9.6369884307      -40.8139984724  TIP3      12677           0.0000000000
     87863     13077  TIP3      H2            -19.4861188700        9.9641018749      -39.4251140045  TIP3      12677           0.0000000000
     87864     13078  TIP3      OH2           -21.3175491886        6.5363780260      -41.4714623311  TIP3      12678           0.0000000000
     87865     13078  TIP3      H1            -20.9877962411        7.1425536287      -42.1667088784  TIP3      12678           0.0000000000
     87866     13078  TIP3      H2            -21.2301986117        5.7070081085      -41.9887397654  TIP3      12678           0.0000000000
     87867     13079  TIP3      OH2           -21.9099586403        7.9096834248      -35.9281929557  TIP3      12679           0.0000000000
     87868     13079  TIP3      H1            -22.0635910306        6.9507197535      -35.9504815374  TIP3      12679           0.0000000000
     87869     13079  TIP3      H2            -22.2649788739        8.1645483797      -35.0615285399  TIP3      12679           0.0000000000
     87870     13080  TIP3      OH2           -36.9001770101        9.9909951068      -31.8853656653  TIP3      12680           0.0000000000
     87871     13080  TIP3      H1            -36.7016624382        9.9056596477      -32.8442651607  TIP3      12680           0.0000000000
     87872     13080  TIP3      H2            -36.0157227387        9.8423286951      -31.4996166185  TIP3      12680           0.0000000000
     87873     13081  TIP3      OH2           -21.0642669855        9.8731121822      -26.2755163904  TIP3      12681           0.0000000000
     87874     13081  TIP3      H1            -20.4573515467        9.1266710763      -26.0862684953  TIP3      12681           0.0000000000
     87875     13081  TIP3      H2            -20.4754964838       10.6537381490      -26.2331816616  TIP3      12681           0.0000000000
     87876     13082  TIP3      OH2           -19.5531733008        7.7776702416      -25.5898317630  TIP3      12682           0.0000000000
     87877     13082  TIP3      H1            -20.4326595609        7.3784689456      -25.7580478972  TIP3      12682           0.0000000000
     87878     13082  TIP3      H2            -18.9637399330        7.0126727300      -25.6711983013  TIP3      12682           0.0000000000
     87879     13083  TIP3      OH2           -21.8259186805        3.9278818547      -42.4448712149  TIP3      12683           0.0000000000
     87880     13083  TIP3      H1            -21.2262458458        3.5304798981      -41.7848849860  TIP3      12683           0.0000000000
     87881     13083  TIP3      H2            -22.6885067212        3.5287962758      -42.2438713892  TIP3      12683           0.0000000000
     87882     13084  TIP3      OH2           -22.2291070385        5.5561300159      -37.4428108569  TIP3      12684           0.0000000000
     87883     13084  TIP3      H1            -21.9529592104        4.5917704965      -37.3477416072  TIP3      12684           0.0000000000
     87884     13084  TIP3      H2            -21.4378384957        5.9049210922      -37.8537829074  TIP3      12684           0.0000000000
     87885     13085  TIP3      OH2           -21.6199132339        6.0282233731      -32.0215557536  TIP3      12685           0.0000000000
     87886     13085  TIP3      H1            -20.6582266507        6.2790930228      -32.0552043334  TIP3      12685           0.0000000000
     87887     13085  TIP3      H2            -21.7959658380        6.1910688059      -31.0885942151  TIP3      12685           0.0000000000
     87888     13086  TIP3      OH2           -21.5643316514        6.7614121819      -29.2618358452  TIP3      12686           0.0000000000
     87889     13086  TIP3      H1            -22.4121175014        7.0816826361      -28.8883159619  TIP3      12686           0.0000000000
     87890     13086  TIP3      H2            -21.1099413309        7.6263628839      -29.4587994191  TIP3      12686           0.0000000000
     87891     13087  TIP3      OH2           -37.2980475933        5.2770371600      -25.7603422450  TIP3      12687           0.0000000000
     87892     13087  TIP3      H1            -36.3584923907        5.1132133902      -25.5331895510  TIP3      12687           0.0000000000
     87893     13087  TIP3      H2            -37.7313143979        4.4819279091      -25.3944050596  TIP3      12687           0.0000000000
     87894     13088  TIP3      OH2           -19.2675001168        0.7987219814      -23.9124542742  TIP3      12688           0.0000000000
     87895     13088  TIP3      H1            -18.9232688933        0.1322826823      -24.5161579294  TIP3      12688           0.0000000000
     87896     13088  TIP3      H2            -19.1389909202        1.6368814282      -24.3789514063  TIP3      12688           0.0000000000
     87897     13089  TIP3      OH2           -22.2181060198        3.0561062497      -37.5587773990  TIP3      12689           0.0000000000
     87898     13089  TIP3      H1            -21.6885988260        2.5986485284      -36.8050986809  TIP3      12689           0.0000000000
     87899     13089  TIP3      H2            -22.2274487334        2.1549003693      -37.9499516661  TIP3      12689           0.0000000000
     87900     13090  TIP3      OH2           -36.0980023176        3.5708487443      -32.8574258037  TIP3      12690           0.0000000000
     87901     13090  TIP3      H1            -35.6055223655        2.7671317919      -32.5925625798  TIP3      12690           0.0000000000
     87902     13090  TIP3      H2            -35.5708278012        4.2848437861      -32.4644237243  TIP3      12690           0.0000000000
     87903     13091  TIP3      OH2           -37.7904924194        6.5521075231      -31.8071379912  TIP3      12691           0.0000000000
     87904     13091  TIP3      H1            -37.2473057852        6.3520277734      -32.6002064270  TIP3      12691           0.0000000000
     87905     13091  TIP3      H2            -37.3760855962        7.3921248745      -31.5435819562  TIP3      12691           0.0000000000
     87906     13092  TIP3      OH2           -19.7413941601        2.9036067772      -25.5379952844  TIP3      12692           0.0000000000
     87907     13092  TIP3      H1            -20.6794651958        3.1689710517      -25.5918261204  TIP3      12692           0.0000000000
     87908     13092  TIP3      H2            -19.6723211512        2.3629414917      -26.3399904972  TIP3      12692           0.0000000000
     87909     13093  TIP3      OH2           -19.7519790619        2.8333155670      -40.8907559556  TIP3      12693           0.0000000000
     87910     13093  TIP3      H1            -19.3089661195        2.1020971217      -41.3494149311  TIP3      12693           0.0000000000
     87911     13093  TIP3      H2            -19.0322793495        3.4821693411      -40.8209316084  TIP3      12693           0.0000000000
     87912     13094  TIP3      OH2           -37.4395115979        2.8277515367      -37.7560583965  TIP3      12694           0.0000000000
     87913     13094  TIP3      H1            -38.3771630795        3.0350611379      -37.8893475805  TIP3      12694           0.0000000000
     87914     13094  TIP3      H2            -37.0027727291        3.3236604458      -38.4659986843  TIP3      12694           0.0000000000
     87915     13095  TIP3      OH2           -22.6962093553       17.7993611988      -35.8032809689  TIP3      12695           0.0000000000
     87916     13095  TIP3      H1            -22.0180422470       17.4701606292      -36.4206651094  TIP3      12695           0.0000000000
     87917     13095  TIP3      H2            -22.1677458914       18.2947813867      -35.1600606077  TIP3      12695           0.0000000000
     87918     13096  TIP3      OH2           -37.4923657219        1.5059270172      -29.4439615664  TIP3      12696           0.0000000000
     87919     13096  TIP3      H1            -38.1267862265        1.3119325973      -28.7245719968  TIP3      12696           0.0000000000
     87920     13096  TIP3      H2            -37.8561256248        2.2315093808      -29.9749880534  TIP3      12696           0.0000000000
     87921     13097  TIP3      OH2           -35.2678501182       14.7160982389      -25.2776456699  TIP3      12697           0.0000000000
     87922     13097  TIP3      H1            -36.1158901193       14.9110792883      -25.7150703301  TIP3      12697           0.0000000000
     87923     13097  TIP3      H2            -35.5366985627       14.6587513811      -24.3506875852  TIP3      12697           0.0000000000
     87924     13098  TIP3      OH2           -32.3538550963       15.6957786945      -29.0277716415  TIP3      12698           0.0000000000
     87925     13098  TIP3      H1            -32.7371732243       16.5428574288      -29.2807721357  TIP3      12698           0.0000000000
     87926     13098  TIP3      H2            -31.4207712725       15.7989444774      -29.3064346083  TIP3      12698           0.0000000000
     87927     13099  TIP3      OH2           -28.0311413141       17.1162931208      -26.0858478256  TIP3      12699           0.0000000000
     87928     13099  TIP3      H1            -27.8509075181       16.7797911014      -25.1738369053  TIP3      12699           0.0000000000
     87929     13099  TIP3      H2            -27.1492151900       17.4257854029      -26.3671182643  TIP3      12699           0.0000000000
     87930     13100  TIP3      OH2           -25.7185341176       18.3935896729      -26.8080929812  TIP3      12700           0.0000000000
     87931     13100  TIP3      H1            -25.0016931728       17.7797726452      -27.0436593526  TIP3      12700           0.0000000000
     87932     13100  TIP3      H2            -25.3561485411       18.8066116685      -25.9953469937  TIP3      12700           0.0000000000
     87933     13101  TIP3      OH2           -20.7419293532        1.0101239917      -27.7119171503  TIP3      12701           0.0000000000
     87934     13101  TIP3      H1            -21.5730764365        1.2971342156      -28.1163371348  TIP3      12701           0.0000000000
     87935     13101  TIP3      H2            -20.5398330755        0.2039454101      -28.2443532003  TIP3      12701           0.0000000000
     87936     13102  TIP3      OH2           -34.9031083471       18.9622869368      -28.9931115981  TIP3      12702           0.0000000000
     87937     13102  TIP3      H1            -35.6606802639       19.4145891017      -29.4087902151  TIP3      12702           0.0000000000
     87938     13102  TIP3      H2            -35.2792789261       18.7244594633      -28.1258795222  TIP3      12702           0.0000000000
     87939     13103  TIP3      OH2           -32.4507160147       18.5176334607      -29.9673040825  TIP3      12703           0.0000000000
     87940     13103  TIP3      H1            -33.3351781043       18.6530233556      -29.5241490458  TIP3      12703           0.0000000000
     87941     13103  TIP3      H2            -32.5283034775       19.1464554097      -30.7018646199  TIP3      12703           0.0000000000
     87942     13104  TIP3      OH2           -27.7668541356       18.4383976116      -30.7640250394  TIP3      12704           0.0000000000
     87943     13104  TIP3      H1            -28.2079981998       18.9938853980      -31.4172856477  TIP3      12704           0.0000000000
     87944     13104  TIP3      H2            -27.5966469654       19.0676060429      -30.0291074291  TIP3      12704           0.0000000000
     87945     13105  TIP3      OH2           -25.4276133058       17.2918795684      -29.7831157018  TIP3      12705           0.0000000000
     87946     13105  TIP3      H1            -26.3238477893       17.5097903486      -30.0928406849  TIP3      12705           0.0000000000
     87947     13105  TIP3      H2            -24.9944854519       18.1576309868      -29.8691297149  TIP3      12705           0.0000000000
     87948     13106  TIP3      OH2           -22.8475564309       18.8575073904      -29.5067085281  TIP3      12706           0.0000000000
     87949     13106  TIP3      H1            -22.9815266841       19.8102270047      -29.7413607844  TIP3      12706           0.0000000000
     87950     13106  TIP3      H2            -22.6554361205       18.4799252910      -30.3848599262  TIP3      12706           0.0000000000
     87951     13107  TIP3      OH2           -35.4562090947       17.6224166458      -32.0596180108  TIP3      12707           0.0000000000
     87952     13107  TIP3      H1            -35.5669546706       17.1508697881      -31.1978847641  TIP3      12707           0.0000000000
     87953     13107  TIP3      H2            -34.6992782312       17.2149754471      -32.4669476998  TIP3      12707           0.0000000000
     87954     13108  TIP3      OH2           -33.5124890116       16.1902921230      -33.4277619289  TIP3      12708           0.0000000000
     87955     13108  TIP3      H1            -33.6514290018       15.2502800992      -33.2128156246  TIP3      12708           0.0000000000
     87956     13108  TIP3      H2            -32.7013295543       16.2515571954      -32.9321749598  TIP3      12708           0.0000000000
     87957     13109  TIP3      OH2           -30.4557372331       16.6960980886      -32.4456040267  TIP3      12709           0.0000000000
     87958     13109  TIP3      H1            -30.5890947807       15.7856723945      -32.7910392438  TIP3      12709           0.0000000000
     87959     13109  TIP3      H2            -30.7379008048       16.6590058205      -31.5083672361  TIP3      12709           0.0000000000
     87960     13110  TIP3      OH2           -27.3238569910        2.4420237989      -33.3934420052  TIP3      12710           0.0000000000
     87961     13110  TIP3      H1            -28.0128304528        1.7952748174      -33.1484264758  TIP3      12710           0.0000000000
     87962     13110  TIP3      H2            -26.7785611206        1.9279706775      -34.0092819141  TIP3      12710           0.0000000000
     87963     13111  TIP3      OH2           -22.2665316722        0.4961126564      -33.2545438918  TIP3      12711           0.0000000000
     87964     13111  TIP3      H1            -21.5971156407        1.0462056666      -33.7750259022  TIP3      12711           0.0000000000
     87965     13111  TIP3      H2            -23.0976082342        0.8596227518      -33.5704014548  TIP3      12711           0.0000000000
     87966     13112  TIP3      OH2           -20.1251112653        1.5423346338      -34.1549414183  TIP3      12712           0.0000000000
     87967     13112  TIP3      H1            -19.6899868295        0.9058890750      -34.7982011010  TIP3      12712           0.0000000000
     87968     13112  TIP3      H2            -20.1089293019        2.3385553135      -34.8034523216  TIP3      12712           0.0000000000
     87969     13113  TIP3      OH2           -34.9835000950        1.0765996845      -35.5689923992  TIP3      12713           0.0000000000
     87970     13113  TIP3      H1            -35.7760153746        0.8408664611      -36.0895674289  TIP3      12713           0.0000000000
     87971     13113  TIP3      H2            -34.4856117912        0.2385139137      -35.5945757513  TIP3      12713           0.0000000000
     87972     13114  TIP3      OH2           -36.1879045996        0.8404176436      -39.7992180823  TIP3      12714           0.0000000000
     87973     13114  TIP3      H1            -35.7217351449        1.4753845337      -40.3773726339  TIP3      12714           0.0000000000
     87974     13114  TIP3      H2            -36.7900014273        1.4076575534      -39.2933716536  TIP3      12714           0.0000000000
     87975     13115  TIP3      OH2           -30.4574439627        0.9902324876      -35.7746656868  TIP3      12715           0.0000000000
     87976     13115  TIP3      H1            -29.5611985430        1.3706300364      -35.8112115853  TIP3      12715           0.0000000000
     87977     13115  TIP3      H2            -30.5482950045        0.7778275520      -34.8458189454  TIP3      12715           0.0000000000
     87978     13116  TIP3      OH2           -24.8442107484        1.0314535173      -34.1205629711  TIP3      12716           0.0000000000
     87979     13116  TIP3      H1            -24.7976500964        1.1144660677      -35.0842811251  TIP3      12716           0.0000000000
     87980     13116  TIP3      H2            -25.1523929592        0.1012533969      -34.0060235277  TIP3      12716           0.0000000000
     87981     13117  TIP3      OH2           -23.5241264744        1.0237203171      -38.4825608451  TIP3      12717           0.0000000000
     87982     13117  TIP3      H1            -24.2354162320        1.6598235449      -38.6347341707  TIP3      12717           0.0000000000
     87983     13117  TIP3      H2            -23.9680343875        0.1834840923      -38.2788031841  TIP3      12717           0.0000000000
     87984     13118  TIP3      OH2           -36.2748376833       16.7851102937      -38.8361157980  TIP3      12718           0.0000000000
     87985     13118  TIP3      H1            -36.9442775945       16.7850392820      -39.5485257229  TIP3      12718           0.0000000000
     87986     13118  TIP3      H2            -36.2609673983       17.7348969147      -38.6381039660  TIP3      12718           0.0000000000
     87987     13119  TIP3      OH2           -34.3390728751        2.7443822018      -41.3254139936  TIP3      12719           0.0000000000
     87988     13119  TIP3      H1            -33.8185143977        2.1462727325      -41.8605900387  TIP3      12719           0.0000000000
     87989     13119  TIP3      H2            -33.6891051223        3.0886022768      -40.6868711025  TIP3      12719           0.0000000000
     87990     13120  TIP3      OH2           -29.3084424648        3.0404959818      -38.9108116248  TIP3      12720           0.0000000000
     87991     13120  TIP3      H1            -29.0908173182        2.4331589250      -38.1838461686  TIP3      12720           0.0000000000
     87992     13120  TIP3      H2            -29.3095846844        3.8959219980      -38.4179224003  TIP3      12720           0.0000000000
     87993     13121  TIP3      OH2           -27.4350979812       18.2029351547      -40.3962494940  TIP3      12721           0.0000000000
     87994     13121  TIP3      H1            -26.5108216941       18.3667931300      -40.6473392354  TIP3      12721           0.0000000000
     87995     13121  TIP3      H2            -27.6221060829       17.6275456904      -41.1971833297  TIP3      12721           0.0000000000
     87996     13122  TIP3      OH2           -20.6898476599       17.5908580633      -37.7755951479  TIP3      12722           0.0000000000
     87997     13122  TIP3      H1            -20.9000342535       16.8219798296      -38.3622726736  TIP3      12722           0.0000000000
     87998     13122  TIP3      H2            -20.7591137083       18.3361383265      -38.3986149577  TIP3      12722           0.0000000000
     87999     13123  TIP3      OH2           -35.0757118955        1.5987818337      -26.0965684170  TIP3      12723           0.0000000000
     88000     13123  TIP3      H1            -35.4284170846        0.8104842882      -25.6417085755  TIP3      12723           0.0000000000
     88001     13123  TIP3      H2            -34.1462594353        1.5883638180      -25.7628508288  TIP3      12723           0.0000000000
     88002     13124  TIP3      OH2           -33.0783707959        0.9552119209      -24.5239126546  TIP3      12724           0.0000000000
     88003     13124  TIP3      H1            -32.1703347567        0.6447427678      -24.7118023851  TIP3      12724           0.0000000000
     88004     13124  TIP3      H2            -33.4524849763        0.1824893008      -24.0530336047  TIP3      12724           0.0000000000
     88005     13125  TIP3      OH2           -34.3774253192       16.9631099727      -41.6849377793  TIP3      12725           0.0000000000
     88006     13125  TIP3      H1            -34.6578532085       17.8170409595      -41.1792137404  TIP3      12725           0.0000000000
     88007     13125  TIP3      H2            -33.4692095326       17.1859732146      -41.6784804651  TIP3      12725           0.0000000000
     88008     13126  TIP3      OH2           -24.6623130010        0.2850942781      -24.3386023444  TIP3      12726           0.0000000000
     88009     13126  TIP3      H1            -24.5779103392       -0.1829981465      -23.4730959904  TIP3      12726           0.0000000000
     88010     13126  TIP3      H2            -23.7483322237        0.2598099746      -24.6866940224  TIP3      12726           0.0000000000
     88011     13127  TIP3      OH2           -21.4657144306       16.3230005750      -25.6380165397  TIP3      12727           0.0000000000
     88012     13127  TIP3      H1            -22.2644733196       16.1651474634      -26.1923079022  TIP3      12727           0.0000000000
     88013     13127  TIP3      H2            -21.5667566984       17.2785235697      -25.4590949117  TIP3      12727           0.0000000000
     88014     13128  TIP3      OH2            -7.0429005022       10.2079819255      -35.6488637936  TIP3      12728           0.0000000000
     88015     13128  TIP3      H1             -7.0025023180       11.1811879371      -35.7503728931  TIP3      12728           0.0000000000
     88016     13128  TIP3      H2             -7.7227931808        9.9599803103      -36.2914842691  TIP3      12728           0.0000000000
     88017     13129  TIP3      OH2            -8.1511121442        9.4807891606      -32.1819483857  TIP3      12729           0.0000000000
     88018     13129  TIP3      H1             -8.1829915146        8.8105363539      -31.4993594510  TIP3      12729           0.0000000000
     88019     13129  TIP3      H2             -8.4747109513        8.9952324567      -32.9638728432  TIP3      12729           0.0000000000
     88020     13130  TIP3      OH2           -15.7910796305        9.1122515132      -30.6393664889  TIP3      12730           0.0000000000
     88021     13130  TIP3      H1            -15.7229442028        8.4579966909      -29.9096403666  TIP3      12730           0.0000000000
     88022     13130  TIP3      H2            -15.0627463792        9.7114821435      -30.4248602676  TIP3      12730           0.0000000000
     88023     13131  TIP3      OH2            -4.4463144533       12.4102350942      -33.9164213831  TIP3      12731           0.0000000000
     88024     13131  TIP3      H1             -4.8835307871       11.6964589290      -33.4406154613  TIP3      12731           0.0000000000
     88025     13131  TIP3      H2             -4.4503232825       13.1311649205      -33.2582077887  TIP3      12731           0.0000000000
     88026     13132  TIP3      OH2           -14.8669905166       13.5666917277      -32.0966328999  TIP3      12732           0.0000000000
     88027     13132  TIP3      H1            -15.2056114648       12.7252372233      -32.4545426598  TIP3      12732           0.0000000000
     88028     13132  TIP3      H2            -13.9120135418       13.3763487822      -32.0560402854  TIP3      12732           0.0000000000
     88029     13133  TIP3      OH2           -18.2110682280        7.1787444021      -36.6832408165  TIP3      12733           0.0000000000
     88030     13133  TIP3      H1            -18.6848763868        8.0362292728      -36.7087937370  TIP3      12733           0.0000000000
     88031     13133  TIP3      H2            -18.8007414657        6.6154854098      -37.2117803097  TIP3      12733           0.0000000000
     88032     13134  TIP3      OH2           -17.5427135349        9.3719712793      -34.5370895511  TIP3      12734           0.0000000000
     88033     13134  TIP3      H1            -17.2905645125        8.5711202991      -34.0420268367  TIP3      12734           0.0000000000
     88034     13134  TIP3      H2            -16.8091173514        9.4609856754      -35.1642089899  TIP3      12734           0.0000000000
     88035     13135  TIP3      OH2            -7.3437040634       17.5512775873      -33.6855841999  TIP3      12735           0.0000000000
     88036     13135  TIP3      H1             -6.7013647915       16.8472749863      -33.9605440006  TIP3      12735           0.0000000000
     88037     13135  TIP3      H2             -7.5400184302       17.2738026699      -32.7917706626  TIP3      12735           0.0000000000
     88038     13136  TIP3      OH2            -9.7755005017       11.8876403389      -31.7631575550  TIP3      12736           0.0000000000
     88039     13136  TIP3      H1             -9.4436585838       11.2301754515      -32.3975939957  TIP3      12736           0.0000000000
     88040     13136  TIP3      H2             -9.0014967343       12.0282965571      -31.2019182415  TIP3      12736           0.0000000000
     88041     13137  TIP3      OH2            -1.1343151845        3.5032862151      -30.9659661786  TIP3      12737           0.0000000000
     88042     13137  TIP3      H1             -1.0215040446        4.1240389505      -30.2142042757  TIP3      12737           0.0000000000
     88043     13137  TIP3      H2             -0.6411281056        3.9644185413      -31.6609159172  TIP3      12737           0.0000000000
     88044     13138  TIP3      OH2            -6.6162335736        6.3316050261      -31.4337139845  TIP3      12738           0.0000000000
     88045     13138  TIP3      H1             -6.4652308185        5.3630590420      -31.4442089556  TIP3      12738           0.0000000000
     88046     13138  TIP3      H2             -6.7189081924        6.4903561864      -32.3968166247  TIP3      12738           0.0000000000
     88047     13139  TIP3      OH2           -13.4701949066        4.4148125486      -34.1940899840  TIP3      12739           0.0000000000
     88048     13139  TIP3      H1            -13.4115728528        5.2638937126      -34.6421521368  TIP3      12739           0.0000000000
     88049     13139  TIP3      H2            -13.9141181793        3.8421733814      -34.8563276249  TIP3      12739           0.0000000000
     88050     13140  TIP3      OH2            -5.7556708770        4.5193791761      -35.8163574235  TIP3      12740           0.0000000000
     88051     13140  TIP3      H1             -5.0872265335        4.1990179720      -35.1652735850  TIP3      12740           0.0000000000
     88052     13140  TIP3      H2             -5.2077091443        5.0632619829      -36.4024131518  TIP3      12740           0.0000000000
     88053     13141  TIP3      OH2           -16.8628737659        6.8213417784      -33.4436433546  TIP3      12741           0.0000000000
     88054     13141  TIP3      H1            -16.1875364464        6.2588481422      -33.0094655109  TIP3      12741           0.0000000000
     88055     13141  TIP3      H2            -16.7997726587        6.5171060214      -34.3607793414  TIP3      12741           0.0000000000
     88056     13142  TIP3      OH2           -11.6894229302        8.3738323584      -34.2087696607  TIP3      12742           0.0000000000
     88057     13142  TIP3      H1            -11.0575033492        7.8142525418      -33.7187925021  TIP3      12742           0.0000000000
     88058     13142  TIP3      H2            -12.2583315045        7.6997669553      -34.6175103119  TIP3      12742           0.0000000000
     88059     13143  TIP3      OH2            -0.7056537030        4.9641102338      -28.7232919710  TIP3      12743           0.0000000000
     88060     13143  TIP3      H1             -1.3783450886        5.6709038284      -28.8079249436  TIP3      12743           0.0000000000
     88061     13143  TIP3      H2             -0.6909928869        4.8082954965      -27.7678723702  TIP3      12743           0.0000000000
     88062     13144  TIP3      OH2           -14.6171255344        3.3137592476      -30.1396953661  TIP3      12744           0.0000000000
     88063     13144  TIP3      H1            -14.8754690421        3.8711685879      -30.8979270100  TIP3      12744           0.0000000000
     88064     13144  TIP3      H2            -15.3073008076        3.5536559798      -29.4723144873  TIP3      12744           0.0000000000
     88065     13145  TIP3      OH2            -7.2812785090       12.8096485084      -36.5879917978  TIP3      12745           0.0000000000
     88066     13145  TIP3      H1             -7.5794363622       12.5049225634      -37.4549333632  TIP3      12745           0.0000000000
     88067     13145  TIP3      H2             -7.6077347240       13.7348089076      -36.5508554842  TIP3      12745           0.0000000000
     88068     13146  TIP3      OH2           -12.0634493253       10.9694903339      -29.8596463777  TIP3      12746           0.0000000000
     88069     13146  TIP3      H1            -12.8025276031       11.6035503335      -29.7168839166  TIP3      12746           0.0000000000
     88070     13146  TIP3      H2            -11.3721707363       11.5654789343      -30.1790988976  TIP3      12746           0.0000000000
     88071     13147  TIP3      OH2            -3.9744409862        3.8378788153      -33.8280017428  TIP3      12747           0.0000000000
     88072     13147  TIP3      H1             -4.1795661174        3.0668559915      -33.2885271539  TIP3      12747           0.0000000000
     88073     13147  TIP3      H2             -3.3018257875        4.2910065068      -33.2917191254  TIP3      12747           0.0000000000
     88074     13148  TIP3      OH2           -15.0581018453        5.1948692232      -32.1540458581  TIP3      12748           0.0000000000
     88075     13148  TIP3      H1            -14.4159739378        5.8572304420      -31.8069087505  TIP3      12748           0.0000000000
     88076     13148  TIP3      H2            -14.5193637110        4.7475274946      -32.8504777696  TIP3      12748           0.0000000000
     88077     13149  TIP3      OH2           -13.6449010746       12.9499200342      -29.0760306744  TIP3      12749           0.0000000000
     88078     13149  TIP3      H1            -13.6802579713       13.8589752354      -29.4321286847  TIP3      12749           0.0000000000
     88079     13149  TIP3      H2            -14.5276448560       12.8831089828      -28.6317301293  TIP3      12749           0.0000000000
     88080     13150  TIP3      OH2           -17.5575468392       12.6014782108      -38.2820276575  TIP3      12750           0.0000000000
     88081     13150  TIP3      H1            -17.8071323388       12.8875415085      -39.1790498321  TIP3      12750           0.0000000000
     88082     13150  TIP3      H2            -17.4970684279       13.4570054874      -37.8017821913  TIP3      12750           0.0000000000
     88083     13151  TIP3      OH2            -3.9234264985       14.2427042255      -31.5514995141  TIP3      12751           0.0000000000
     88084     13151  TIP3      H1             -4.8879247998       14.3377062731      -31.4136237891  TIP3      12751           0.0000000000
     88085     13151  TIP3      H2             -3.6575914090       15.1692841952      -31.7158172714  TIP3      12751           0.0000000000
     88086     13152  TIP3      OH2            -3.6208320193        2.5367137785      -30.1424195498  TIP3      12752           0.0000000000
     88087     13152  TIP3      H1             -4.3557437880        3.1596674696      -30.2045038955  TIP3      12752           0.0000000000
     88088     13152  TIP3      H2             -2.9247521598        2.9585890561      -30.6766553661  TIP3      12752           0.0000000000
     88089     13153  TIP3      OH2           -10.6253875281        0.6425254119      -32.6860728149  TIP3      12753           0.0000000000
     88090     13153  TIP3      H1            -10.7550337805       -0.3239468536      -32.7427541369  TIP3      12753           0.0000000000
     88091     13153  TIP3      H2            -11.5020735207        0.9580732483      -32.3933356493  TIP3      12753           0.0000000000
     88092     13154  TIP3      OH2            -5.6815231050       16.0303222534      -34.9319593512  TIP3      12754           0.0000000000
     88093     13154  TIP3      H1             -5.2441417305       15.3194891493      -35.4403151042  TIP3      12754           0.0000000000
     88094     13154  TIP3      H2             -5.3146011671       16.8349445475      -35.3523807052  TIP3      12754           0.0000000000
     88095     13155  TIP3      OH2            -4.4930779982       13.9553340285      -36.4357252830  TIP3      12755           0.0000000000
     88096     13155  TIP3      H1             -4.7702461101       13.2493136780      -37.0446278482  TIP3      12755           0.0000000000
     88097     13155  TIP3      H2             -4.4429725600       13.4764041159      -35.5873859032  TIP3      12755           0.0000000000
     88098     13156  TIP3      OH2            -2.8706969917       12.5214135064      -27.9410752508  TIP3      12756           0.0000000000
     88099     13156  TIP3      H1             -2.6831840027       11.9061620487      -28.6857384675  TIP3      12756           0.0000000000
     88100     13156  TIP3      H2             -2.6515440929       13.3878702621      -28.3321498237  TIP3      12756           0.0000000000
     88101     13157  TIP3      OH2            -8.3752326116        9.4450896763      -38.1707375664  TIP3      12757           0.0000000000
     88102     13157  TIP3      H1             -9.0556204583       10.0236031996      -38.5499291418  TIP3      12757           0.0000000000
     88103     13157  TIP3      H2             -7.6576911408        9.5296127757      -38.8387205069  TIP3      12757           0.0000000000
     88104     13158  TIP3      OH2            -8.2873714849        7.9480079822      -41.1101646315  TIP3      12758           0.0000000000
     88105     13158  TIP3      H1             -7.5718237157        7.9513502135      -40.4783623038  TIP3      12758           0.0000000000
     88106     13158  TIP3      H2             -8.0017194934        7.3079483617      -41.7734442931  TIP3      12758           0.0000000000
     88107     13159  TIP3      OH2            -0.9745891909        8.8434490823      -29.8806785949  TIP3      12759           0.0000000000
     88108     13159  TIP3      H1             -1.6380699506        9.5589755805      -29.8185590474  TIP3      12759           0.0000000000
     88109     13159  TIP3      H2             -0.5043496151        9.0742517737      -30.7017645312  TIP3      12759           0.0000000000
     88110     13160  TIP3      OH2            -4.9333011895        9.6726945193      -37.2423951428  TIP3      12760           0.0000000000
     88111     13160  TIP3      H1             -5.6782884509        9.9032545477      -36.6402422531  TIP3      12760           0.0000000000
     88112     13160  TIP3      H2             -4.4769123740        8.9659889138      -36.7514482225  TIP3      12760           0.0000000000
     88113     13161  TIP3      OH2            -5.0232581392        7.8314241659      -28.1397793319  TIP3      12761           0.0000000000
     88114     13161  TIP3      H1             -4.9573822159        8.6207424344      -27.5887843583  TIP3      12761           0.0000000000
     88115     13161  TIP3      H2             -5.6341681993        8.1185368646      -28.8514688912  TIP3      12761           0.0000000000
     88116     13162  TIP3      OH2           -13.2854307109       10.3214398501      -35.3459152921  TIP3      12762           0.0000000000
     88117     13162  TIP3      H1            -13.6521072870        9.9355280089      -36.1619408610  TIP3      12762           0.0000000000
     88118     13162  TIP3      H2            -12.6959236919        9.6254170373      -34.9798750894  TIP3      12762           0.0000000000
     88119     13163  TIP3      OH2           -11.9625542447       13.7308718022      -32.6560956023  TIP3      12763           0.0000000000
     88120     13163  TIP3      H1            -12.0113318078       13.1597139764      -33.4337298172  TIP3      12763           0.0000000000
     88121     13163  TIP3      H2            -11.1983724585       13.3523426335      -32.1830813449  TIP3      12763           0.0000000000
     88122     13164  TIP3      OH2           -12.9548784631        9.0630454092      -31.6953330815  TIP3      12764           0.0000000000
     88123     13164  TIP3      H1            -12.3806363806        9.1888676672      -32.4709573132  TIP3      12764           0.0000000000
     88124     13164  TIP3      H2            -12.6023606089        9.7222962032      -31.0655211416  TIP3      12764           0.0000000000
     88125     13165  TIP3      OH2            -6.5968860442       14.6086204569      -30.9811970904  TIP3      12765           0.0000000000
     88126     13165  TIP3      H1             -6.8605526678       15.2535183602      -30.3231565612  TIP3      12765           0.0000000000
     88127     13165  TIP3      H2             -6.8262684402       13.7536508643      -30.5483554163  TIP3      12765           0.0000000000
     88128     13166  TIP3      OH2           -12.0235603354       13.4694597286      -26.9735555351  TIP3      12766           0.0000000000
     88129     13166  TIP3      H1            -12.3908322251       14.2525849226      -26.5210988755  TIP3      12766           0.0000000000
     88130     13166  TIP3      H2            -12.7008483023       13.3060034602      -27.6801117604  TIP3      12766           0.0000000000
     88131     13167  TIP3      OH2            -6.0724535604        8.8328136898      -39.5630993350  TIP3      12767           0.0000000000
     88132     13167  TIP3      H1             -5.4928963124        9.0062827544      -38.7819543249  TIP3      12767           0.0000000000
     88133     13167  TIP3      H2             -5.6468691636        9.3388412126      -40.2760406630  TIP3      12767           0.0000000000
     88134     13168  TIP3      OH2           -15.1035782384        9.6537926546      -27.7918618000  TIP3      12768           0.0000000000
     88135     13168  TIP3      H1            -15.0595202306       10.3211140921      -27.0761615739  TIP3      12768           0.0000000000
     88136     13168  TIP3      H2            -16.0251839230        9.7671791428      -28.0718021118  TIP3      12768           0.0000000000
     88137     13169  TIP3      OH2            -8.3421420960       15.5682259082      -36.1049847076  TIP3      12769           0.0000000000
     88138     13169  TIP3      H1             -7.8815882648       15.8780305172      -35.3181032915  TIP3      12769           0.0000000000
     88139     13169  TIP3      H2             -8.9020272444       16.3175966346      -36.3461524789  TIP3      12769           0.0000000000
     88140     13170  TIP3      OH2           -13.7918219097       15.5337987999      -26.2266380241  TIP3      12770           0.0000000000
     88141     13170  TIP3      H1            -13.8204362317       15.4138551544      -27.1896394272  TIP3      12770           0.0000000000
     88142     13170  TIP3      H2            -14.7321682449       15.4186605846      -25.9795973870  TIP3      12770           0.0000000000
     88143     13171  TIP3      OH2            -2.3483270670        0.5806241390      -39.7130265671  TIP3      12771           0.0000000000
     88144     13171  TIP3      H1             -3.2883573705        0.7160459895      -39.4342405689  TIP3      12771           0.0000000000
     88145     13171  TIP3      H2             -2.1178663632        1.4308960844      -40.1217351338  TIP3      12771           0.0000000000
     88146     13172  TIP3      OH2           -14.3582277901        9.3824393973      -37.7226176771  TIP3      12772           0.0000000000
     88147     13172  TIP3      H1            -14.6404242570       10.1669228890      -38.2584432835  TIP3      12772           0.0000000000
     88148     13172  TIP3      H2            -15.0431315163        8.7300287363      -37.9249203583  TIP3      12772           0.0000000000
     88149     13173  TIP3      OH2            -1.2118289281       14.9289935981      -41.3337801133  TIP3      12773           0.0000000000
     88150     13173  TIP3      H1             -1.0975882122       15.8896804966      -41.1882107776  TIP3      12773           0.0000000000
     88151     13173  TIP3      H2             -0.2786039651       14.6533802943      -41.4017550913  TIP3      12773           0.0000000000
     88152     13174  TIP3      OH2           -18.2260390157       11.7609493802      -28.8866742716  TIP3      12774           0.0000000000
     88153     13174  TIP3      H1            -18.7078660595       11.6930089762      -29.7315017825  TIP3      12774           0.0000000000
     88154     13174  TIP3      H2            -18.1975896860       10.8205593379      -28.6287760082  TIP3      12774           0.0000000000
     88155     13175  TIP3      OH2           -18.4753823578       14.5052903228      -32.0530799054  TIP3      12775           0.0000000000
     88156     13175  TIP3      H1            -17.5189788521       14.3803537311      -32.0704094595  TIP3      12775           0.0000000000
     88157     13175  TIP3      H2            -18.5706034088       15.3097550001      -31.5256978401  TIP3      12775           0.0000000000
     88158     13176  TIP3      OH2            -0.2474654159       15.1975501221      -26.3864410725  TIP3      12776           0.0000000000
     88159     13176  TIP3      H1             -0.3410495117       14.2341922331      -26.3929286948  TIP3      12776           0.0000000000
     88160     13176  TIP3      H2             -1.1072418864       15.4466247653      -25.9621635636  TIP3      12776           0.0000000000
     88161     13177  TIP3      OH2            -9.2740130483       14.7344525479      -27.4929051545  TIP3      12777           0.0000000000
     88162     13177  TIP3      H1             -9.2135937375       15.5945403026      -27.0047988282  TIP3      12777           0.0000000000
     88163     13177  TIP3      H2            -10.1675046116       14.4217719084      -27.2488148752  TIP3      12777           0.0000000000
     88164     13178  TIP3      OH2            -8.8698500240       18.5029315014      -37.6887135295  TIP3      12778           0.0000000000
     88165     13178  TIP3      H1             -8.9443053845       18.4117149382      -38.6553344033  TIP3      12778           0.0000000000
     88166     13178  TIP3      H2             -8.8351993421       19.4712574191      -37.5610925820  TIP3      12778           0.0000000000
     88167     13179  TIP3      OH2           -15.2107168638       17.3541925938      -35.8955266186  TIP3      12779           0.0000000000
     88168     13179  TIP3      H1            -15.0700101558       16.9550704095      -35.0119070376  TIP3      12779           0.0000000000
     88169     13179  TIP3      H2            -16.0650764312       16.9601843128      -36.1412740285  TIP3      12779           0.0000000000
     88170     13180  TIP3      OH2            -5.7961152331       17.6984167697      -40.7174463548  TIP3      12780           0.0000000000
     88171     13180  TIP3      H1             -5.3751899437       16.9278384322      -41.1551497843  TIP3      12780           0.0000000000
     88172     13180  TIP3      H2             -5.7609746729       17.4225093004      -39.7778631643  TIP3      12780           0.0000000000
     88173     13181  TIP3      OH2            -6.0974768827       17.6255978001      -37.9434485132  TIP3      12781           0.0000000000
     88174     13181  TIP3      H1             -7.0528727562       17.7050495190      -37.7547722179  TIP3      12781           0.0000000000
     88175     13181  TIP3      H2             -5.8379691276       16.8953763447      -37.3619061387  TIP3      12781           0.0000000000
     88176     13182  TIP3      OH2            -3.1125570100        6.6867880443      -25.8976537868  TIP3      12782           0.0000000000
     88177     13182  TIP3      H1             -3.5443184447        7.1457180245      -26.6217914147  TIP3      12782           0.0000000000
     88178     13182  TIP3      H2             -3.0833180082        5.7630280241      -26.1967993341  TIP3      12782           0.0000000000
     88179     13183  TIP3      OH2           -15.9630257436       13.0767846696      -27.8937955483  TIP3      12783           0.0000000000
     88180     13183  TIP3      H1            -15.7430188058       12.7023342082      -27.0170416054  TIP3      12783           0.0000000000
     88181     13183  TIP3      H2            -16.8321518843       12.6808525389      -28.1066759717  TIP3      12783           0.0000000000
     88182     13184  TIP3      OH2           -13.3069172977        1.5342781659      -31.9141643803  TIP3      12784           0.0000000000
     88183     13184  TIP3      H1            -14.2068094620        1.4419257782      -32.3048501251  TIP3      12784           0.0000000000
     88184     13184  TIP3      H2            -13.3908011265        2.3894577094      -31.4654186893  TIP3      12784           0.0000000000
     88185     13185  TIP3      OH2            -8.6586831514        1.2463489715      -28.5479852165  TIP3      12785           0.0000000000
     88186     13185  TIP3      H1             -8.2577201142        0.8200434105      -27.7687598979  TIP3      12785           0.0000000000
     88187     13185  TIP3      H2             -9.6255121850        1.0836454945      -28.4123735085  TIP3      12785           0.0000000000
     88188     13186  TIP3      OH2            -5.3499017679        5.0341951801      -27.6781114511  TIP3      12786           0.0000000000
     88189     13186  TIP3      H1             -5.8907287726        4.8617102081      -26.8698570306  TIP3      12786           0.0000000000
     88190     13186  TIP3      H2             -5.5205902678        5.9515160163      -27.9152661029  TIP3      12786           0.0000000000
     88191     13187  TIP3      OH2            -4.5339285495        9.9204860991      -41.8248049031  TIP3      12787           0.0000000000
     88192     13187  TIP3      H1             -4.5285387212        9.6933616721      -42.7830273649  TIP3      12787           0.0000000000
     88193     13187  TIP3      H2             -3.6777113207       10.3197256722      -41.6958458786  TIP3      12787           0.0000000000
     88194     13188  TIP3      OH2            -8.9878349225        3.7618443567      -41.2382449700  TIP3      12788           0.0000000000
     88195     13188  TIP3      H1             -9.2971088376        3.7555669048      -40.3151533912  TIP3      12788           0.0000000000
     88196     13188  TIP3      H2             -9.2862512837        2.8944799741      -41.5306927651  TIP3      12788           0.0000000000
     88197     13189  TIP3      OH2           -13.2150046832        6.4991735980      -30.7572270533  TIP3      12789           0.0000000000
     88198     13189  TIP3      H1            -13.9088502762        6.4785496120      -30.0738709201  TIP3      12789           0.0000000000
     88199     13189  TIP3      H2            -13.2308963895        7.4357779914      -31.0530405492  TIP3      12789           0.0000000000
     88200     13190  TIP3      OH2           -13.2438501800        6.7500929344      -35.9098754166  TIP3      12790           0.0000000000
     88201     13190  TIP3      H1            -14.1592260354        6.3697535748      -35.9396619187  TIP3      12790           0.0000000000
     88202     13190  TIP3      H2            -12.8139887009        6.2878527120      -36.6471673278  TIP3      12790           0.0000000000
     88203     13191  TIP3      OH2            -7.7249504542        7.1278900873      -37.0703925220  TIP3      12791           0.0000000000
     88204     13191  TIP3      H1             -8.1154272701        7.9695933591      -37.3799604140  TIP3      12791           0.0000000000
     88205     13191  TIP3      H2             -6.9997306249        6.9927091159      -37.7103191095  TIP3      12791           0.0000000000
     88206     13192  TIP3      OH2            -8.6198889170        7.3565452160      -25.5961953885  TIP3      12792           0.0000000000
     88207     13192  TIP3      H1             -9.1811532819        6.5905903463      -25.2878007605  TIP3      12792           0.0000000000
     88208     13192  TIP3      H2             -7.7973831375        7.1861872138      -25.1142532476  TIP3      12792           0.0000000000
     88209     13193  TIP3      OH2            -6.6961631969        6.6069554927      -34.2264625629  TIP3      12793           0.0000000000
     88210     13193  TIP3      H1             -6.9275959181        7.1867183468      -34.9719855519  TIP3      12793           0.0000000000
     88211     13193  TIP3      H2             -6.5500377928        5.7596824198      -34.6957240525  TIP3      12793           0.0000000000
     88212     13194  TIP3      OH2           -15.5246702666        6.8074671742      -28.9659529536  TIP3      12794           0.0000000000
     88213     13194  TIP3      H1            -15.5219967399        7.2071047352      -28.0783225193  TIP3      12794           0.0000000000
     88214     13194  TIP3      H2            -16.0013661840        5.9764783312      -28.8223163494  TIP3      12794           0.0000000000
     88215     13195  TIP3      OH2           -12.0349735204        4.3514546687      -41.8869763295  TIP3      12795           0.0000000000
     88216     13195  TIP3      H1            -12.5759577152        3.7464827669      -41.3677216264  TIP3      12795           0.0000000000
     88217     13195  TIP3      H2            -12.6893917667        4.6635344377      -42.5407803945  TIP3      12795           0.0000000000
     88218     13196  TIP3      OH2           -18.8864045641        3.9662018055      -35.0607036116  TIP3      12796           0.0000000000
     88219     13196  TIP3      H1            -18.2419185356        3.8693622465      -34.3416608576  TIP3      12796           0.0000000000
     88220     13196  TIP3      H2            -18.4724722473        3.4902137192      -35.8097832950  TIP3      12796           0.0000000000
     88221     13197  TIP3      OH2           -17.6080815652        4.6565501615      -39.6839028559  TIP3      12797           0.0000000000
     88222     13197  TIP3      H1            -17.1366733155        5.2661652898      -40.2704510576  TIP3      12797           0.0000000000
     88223     13197  TIP3      H2            -18.3253630391        5.2231201315      -39.3197580205  TIP3      12797           0.0000000000
     88224     13198  TIP3      OH2            -7.4425092594        8.2435077122      -29.5831934362  TIP3      12798           0.0000000000
     88225     13198  TIP3      H1             -7.1184120180        7.5724021882      -30.2343709624  TIP3      12798           0.0000000000
     88226     13198  TIP3      H2             -7.9150152621        7.6672278563      -28.9545005416  TIP3      12798           0.0000000000
     88227     13199  TIP3      OH2           -10.6734371918        4.1800396296      -34.8221415865  TIP3      12799           0.0000000000
     88228     13199  TIP3      H1            -11.6028737810        4.1943563296      -34.5080279130  TIP3      12799           0.0000000000
     88229     13199  TIP3      H2            -10.1758834432        4.0672571867      -33.9948473186  TIP3      12799           0.0000000000
     88230     13200  TIP3      OH2           -15.8281864920        5.7806308185      -35.9808236525  TIP3      12800           0.0000000000
     88231     13200  TIP3      H1            -16.7466777839        5.8764692773      -36.3187709114  TIP3      12800           0.0000000000
     88232     13200  TIP3      H2            -15.5746163631        4.9107900172      -36.3322451110  TIP3      12800           0.0000000000
     88233     13201  TIP3      OH2           -12.2192118122        5.8508279867      -38.2746584984  TIP3      12801           0.0000000000
     88234     13201  TIP3      H1            -11.2417235199        5.8737085666      -38.1566922495  TIP3      12801           0.0000000000
     88235     13201  TIP3      H2            -12.4131634262        6.3984386703      -39.0508179669  TIP3      12801           0.0000000000
     88236     13202  TIP3      OH2            -6.2594232432        3.4027524208      -31.5570358143  TIP3      12802           0.0000000000
     88237     13202  TIP3      H1             -6.9546887824        3.5010938027      -30.8718484324  TIP3      12802           0.0000000000
     88238     13202  TIP3      H2             -6.7651588135        3.2081817287      -32.3574241183  TIP3      12802           0.0000000000
     88239     13203  TIP3      OH2           -13.5138939946        6.9789165590      -40.6919216990  TIP3      12803           0.0000000000
     88240     13203  TIP3      H1            -14.0485630992        6.6058659649      -41.4402763006  TIP3      12803           0.0000000000
     88241     13203  TIP3      H2            -12.6987163411        7.1585432063      -41.2177186733  TIP3      12803           0.0000000000
     88242     13204  TIP3      OH2            -3.0364408975       19.0740787086      -25.2389889270  TIP3      12804           0.0000000000
     88243     13204  TIP3      H1             -2.7790427954       19.4669902440      -26.0997220786  TIP3      12804           0.0000000000
     88244     13204  TIP3      H2             -2.3165517783       19.3888852260      -24.6661184667  TIP3      12804           0.0000000000
     88245     13205  TIP3      OH2           -15.3739221226       11.5308833858      -25.6792714271  TIP3      12805           0.0000000000
     88246     13205  TIP3      H1            -14.6605451402       11.7860072241      -25.0775597754  TIP3      12805           0.0000000000
     88247     13205  TIP3      H2            -16.1683491871       11.6964986701      -25.1178656255  TIP3      12805           0.0000000000
     88248     13206  TIP3      OH2            -9.3720219319        6.9445396970      -32.9192483974  TIP3      12806           0.0000000000
     88249     13206  TIP3      H1             -8.7896644905        6.3973083927      -33.4623452151  TIP3      12806           0.0000000000
     88250     13206  TIP3      H2             -9.5127220846        6.4057433929      -32.1301744590  TIP3      12806           0.0000000000
     88251     13207  TIP3      OH2           -14.3498839333        3.1003078043      -36.4907229252  TIP3      12807           0.0000000000
     88252     13207  TIP3      H1            -14.6817943940        2.1761762790      -36.5234063189  TIP3      12807           0.0000000000
     88253     13207  TIP3      H2            -13.5686453281        3.0447588834      -37.0491101575  TIP3      12807           0.0000000000
     88254     13208  TIP3      OH2           -10.7342329546        5.2965791880      -30.5109433787  TIP3      12808           0.0000000000
     88255     13208  TIP3      H1            -11.5712884533        5.7880648612      -30.4009693552  TIP3      12808           0.0000000000
     88256     13208  TIP3      H2            -10.1970279523        5.6152068557      -29.7583668135  TIP3      12808           0.0000000000
     88257     13209  TIP3      OH2           -10.1610087338       11.5104819918      -38.8090729633  TIP3      12809           0.0000000000
     88258     13209  TIP3      H1            -10.9438096539       11.0316045394      -39.1498575515  TIP3      12809           0.0000000000
     88259     13209  TIP3      H2            -10.3423023077       11.5988040892      -37.8519348544  TIP3      12809           0.0000000000
     88260     13210  TIP3      OH2            -3.0164284230       10.6802403981      -30.0050779772  TIP3      12810           0.0000000000
     88261     13210  TIP3      H1             -2.4008328004       11.1450140229      -30.6045120547  TIP3      12810           0.0000000000
     88262     13210  TIP3      H2             -3.8515110498       10.7744885625      -30.5054394435  TIP3      12810           0.0000000000
     88263     13211  TIP3      OH2            -6.2869844266        4.3171117416      -40.6231058467  TIP3      12811           0.0000000000
     88264     13211  TIP3      H1             -7.2374488743        4.4613607516      -40.7814123452  TIP3      12811           0.0000000000
     88265     13211  TIP3      H2             -5.9999929710        5.1984364735      -40.3122112261  TIP3      12811           0.0000000000
     88266     13212  TIP3      OH2            -8.8688001897       11.8032720432      -27.6381560470  TIP3      12812           0.0000000000
     88267     13212  TIP3      H1             -9.0838198782       11.3993708011      -26.7838352788  TIP3      12812           0.0000000000
     88268     13212  TIP3      H2             -8.9174116164       12.7593117684      -27.4780569192  TIP3      12812           0.0000000000
     88269     13213  TIP3      OH2            -5.5806801082        6.2246752438      -38.9570058194  TIP3      12813           0.0000000000
     88270     13213  TIP3      H1             -4.6734364927        6.0867520831      -38.6234348706  TIP3      12813           0.0000000000
     88271     13213  TIP3      H2             -5.5123282988        7.0261109247      -39.4976203540  TIP3      12813           0.0000000000
     88272     13214  TIP3      OH2           -15.0623896286       10.8618417210      -33.0258197003  TIP3      12814           0.0000000000
     88273     13214  TIP3      H1            -14.3317649652       10.8244402199      -33.6678624452  TIP3      12814           0.0000000000
     88274     13214  TIP3      H2            -14.9831194640       10.0107809456      -32.5629467578  TIP3      12814           0.0000000000
     88275     13215  TIP3      OH2            -8.0387400862       12.9940954232      -39.7786889701  TIP3      12815           0.0000000000
     88276     13215  TIP3      H1             -8.3816581113       13.8266299536      -39.4066692087  TIP3      12815           0.0000000000
     88277     13215  TIP3      H2             -8.7765597265       12.3722059637      -39.5895312352  TIP3      12815           0.0000000000
     88278     13216  TIP3      OH2           -18.0600869821        9.3048041050      -27.7447837878  TIP3      12816           0.0000000000
     88279     13216  TIP3      H1            -17.8469338310        8.8637387996      -26.8983633726  TIP3      12816           0.0000000000
     88280     13216  TIP3      H2            -18.6678408921        8.6757566309      -28.1690414724  TIP3      12816           0.0000000000
     88281     13217  TIP3      OH2           -11.0269475691        8.8603903627      -25.5412559729  TIP3      12817           0.0000000000
     88282     13217  TIP3      H1            -11.3527268855        8.6022929801      -26.4214285090  TIP3      12817           0.0000000000
     88283     13217  TIP3      H2            -10.1087547360        8.5468302625      -25.5516318382  TIP3      12817           0.0000000000
     88284     13218  TIP3      OH2            -6.4013006616       14.1415713615      -27.6249315402  TIP3      12818           0.0000000000
     88285     13218  TIP3      H1             -7.3085004321       14.3926133273      -27.8797461376  TIP3      12818           0.0000000000
     88286     13218  TIP3      H2             -6.3879940079       14.4782788812      -26.7033593236  TIP3      12818           0.0000000000
     88287     13219  TIP3      OH2            -0.6803744425        6.3909356596      -39.2286193904  TIP3      12819           0.0000000000
     88288     13219  TIP3      H1             -1.2456764855        6.0512985116      -39.9480878286  TIP3      12819           0.0000000000
     88289     13219  TIP3      H2             -0.5987172561        7.3265596937      -39.5301339872  TIP3      12819           0.0000000000
     88290     13220  TIP3      OH2            -0.7045202984       12.2263622309      -26.4054574804  TIP3      12820           0.0000000000
     88291     13220  TIP3      H1             -1.5809007160       12.4625029157      -26.7892822865  TIP3      12820           0.0000000000
     88292     13220  TIP3      H2             -0.1372071913       12.2035850580      -27.1993283608  TIP3      12820           0.0000000000
     88293     13221  TIP3      OH2            -2.3892690642       15.2111360649      -38.8120060943  TIP3      12821           0.0000000000
     88294     13221  TIP3      H1             -2.7652413150       14.3827810322      -38.4918877652  TIP3      12821           0.0000000000
     88295     13221  TIP3      H2             -2.1032102507       15.0210154831      -39.7218787093  TIP3      12821           0.0000000000
     88296     13222  TIP3      OH2            -5.2149643687       10.0232848998      -31.7322158764  TIP3      12822           0.0000000000
     88297     13222  TIP3      H1             -6.1544641985        9.7911349263      -31.8308233414  TIP3      12822           0.0000000000
     88298     13222  TIP3      H2             -4.7732422970        9.2483078425      -32.1354166677  TIP3      12822           0.0000000000
     88299     13223  TIP3      OH2           -12.6789933020       14.3423674630      -35.6353371054  TIP3      12823           0.0000000000
     88300     13223  TIP3      H1            -12.1658495596       15.1392717343      -35.8424195531  TIP3      12823           0.0000000000
     88301     13223  TIP3      H2            -13.5620655707       14.5808967108      -35.9517848463  TIP3      12823           0.0000000000
     88302     13224  TIP3      OH2           -16.9198678026        9.2000664698      -41.0775675477  TIP3      12824           0.0000000000
     88303     13224  TIP3      H1            -16.3132113619        9.8415071732      -40.6787414924  TIP3      12824           0.0000000000
     88304     13224  TIP3      H2            -17.7996541171        9.5119642713      -40.7864209161  TIP3      12824           0.0000000000
     88305     13225  TIP3      OH2           -11.2540773512       11.9987562866      -36.0984279293  TIP3      12825           0.0000000000
     88306     13225  TIP3      H1            -11.5224975898       12.9387832828      -36.0172408618  TIP3      12825           0.0000000000
     88307     13225  TIP3      H2            -11.9999075965       11.5526843102      -35.6564212154  TIP3      12825           0.0000000000
     88308     13226  TIP3      OH2           -10.7856700709       16.1740846581      -29.7329907983  TIP3      12826           0.0000000000
     88309     13226  TIP3      H1            -10.3662424281       17.0100609983      -29.9856818535  TIP3      12826           0.0000000000
     88310     13226  TIP3      H2            -10.2008545192       15.8657401215      -29.0165785169  TIP3      12826           0.0000000000
     88311     13227  TIP3      OH2           -12.5728559748       17.0190884164      -36.5506342926  TIP3      12827           0.0000000000
     88312     13227  TIP3      H1            -13.5417166489       17.1467751189      -36.4566203708  TIP3      12827           0.0000000000
     88313     13227  TIP3      H2            -12.2233972222       17.8571166911      -36.1924406734  TIP3      12827           0.0000000000
     88314     13228  TIP3      OH2            -7.2173298268       12.2346395687      -30.0515289293  TIP3      12828           0.0000000000
     88315     13228  TIP3      H1             -7.6440178543       12.0401408546      -29.2173032764  TIP3      12828           0.0000000000
     88316     13228  TIP3      H2             -6.6177755780       11.5050796273      -30.2624499950  TIP3      12828           0.0000000000
     88317     13229  TIP3      OH2            -4.9924655194       13.2109415253      -40.9810691618  TIP3      12829           0.0000000000
     88318     13229  TIP3      H1             -4.6637756399       12.7964808034      -40.1572376289  TIP3      12829           0.0000000000
     88319     13229  TIP3      H2             -5.9494843244       13.0865964201      -40.8847940978  TIP3      12829           0.0000000000
     88320     13230  TIP3      OH2            -4.5124445939       16.7941568261      -27.5705377324  TIP3      12830           0.0000000000
     88321     13230  TIP3      H1             -5.1528515678       16.2691757674      -28.0853972068  TIP3      12830           0.0000000000
     88322     13230  TIP3      H2             -4.2724552825       17.4809802852      -28.2297424544  TIP3      12830           0.0000000000
     88323     13231  TIP3      OH2            -0.4835570746       17.6511659607      -40.7534415273  TIP3      12831           0.0000000000
     88324     13231  TIP3      H1              0.2413922584       18.2722424879      -40.9425233838  TIP3      12831           0.0000000000
     88325     13231  TIP3      H2             -1.1967901880       18.2505889613      -40.4442583297  TIP3      12831           0.0000000000
     88326     13232  TIP3      OH2           -16.4070125420        4.0429377774      -28.1904832305  TIP3      12832           0.0000000000
     88327     13232  TIP3      H1            -17.3173319812        4.3851288641      -28.2345176374  TIP3      12832           0.0000000000
     88328     13232  TIP3      H2            -16.5209682699        3.1871710875      -27.7486997849  TIP3      12832           0.0000000000
     88329     13233  TIP3      OH2            -4.1483963322       11.8821947502      -38.7611652033  TIP3      12833           0.0000000000
     88330     13233  TIP3      H1             -4.4055327836       11.1157315028      -38.2044735864  TIP3      12833           0.0000000000
     88331     13233  TIP3      H2             -3.2056179696       11.9696892128      -38.5398065237  TIP3      12833           0.0000000000
     88332     13234  TIP3      OH2           -16.7715307355       15.8449227120      -29.7611599316  TIP3      12834           0.0000000000
     88333     13234  TIP3      H1            -16.5283497372       14.9052110331      -29.7657191965  TIP3      12834           0.0000000000
     88334     13234  TIP3      H2            -16.5230042560       16.1144533871      -28.8676669854  TIP3      12834           0.0000000000
     88335     13235  TIP3      OH2           -11.9992971099       13.8913953142      -40.0763801980  TIP3      12835           0.0000000000
     88336     13235  TIP3      H1            -11.8057645435       13.3573499168      -39.2969517825  TIP3      12835           0.0000000000
     88337     13235  TIP3      H2            -11.9712022020       14.8054113378      -39.7479770703  TIP3      12835           0.0000000000
     88338     13236  TIP3      OH2           -15.5161791055       11.1132517450      -39.5711802159  TIP3      12836           0.0000000000
     88339     13236  TIP3      H1            -16.2121589631       11.5049946044      -38.9979386606  TIP3      12836           0.0000000000
     88340     13236  TIP3      H2            -14.9960503933       11.8997394970      -39.8211900255  TIP3      12836           0.0000000000
     88341     13237  TIP3      OH2            -7.6831019656        3.8029763040      -29.2760742094  TIP3      12837           0.0000000000
     88342     13237  TIP3      H1             -6.9767884888        3.8596302698      -28.6205728941  TIP3      12837           0.0000000000
     88343     13237  TIP3      H2             -8.0642037038        2.9188890642      -29.0960187353  TIP3      12837           0.0000000000
     88344     13238  TIP3      OH2            -6.9208235680        3.4130791074      -38.1640360596  TIP3      12838           0.0000000000
     88345     13238  TIP3      H1             -6.6785039637        3.8920710610      -38.9863946629  TIP3      12838           0.0000000000
     88346     13238  TIP3      H2             -6.3404992171        3.8297540563      -37.5187247671  TIP3      12838           0.0000000000
     88347     13239  TIP3      OH2            -9.2348952009       15.5535297694      -39.3281617698  TIP3      12839           0.0000000000
     88348     13239  TIP3      H1            -10.0543909947       16.0722278915      -39.2749926601  TIP3      12839           0.0000000000
     88349     13239  TIP3      H2             -8.7007614759       16.0559081183      -39.9650106238  TIP3      12839           0.0000000000
     88350     13240  TIP3      OH2            -9.7270036927        5.1779984010      -37.3551393574  TIP3      12840           0.0000000000
     88351     13240  TIP3      H1             -8.8872909541        5.6811157748      -37.3095594504  TIP3      12840           0.0000000000
     88352     13240  TIP3      H2             -9.9483083558        5.0060508382      -36.4245991025  TIP3      12840           0.0000000000
     88353     13241  TIP3      OH2            -9.1512393444        6.1601305401      -28.1749421394  TIP3      12841           0.0000000000
     88354     13241  TIP3      H1             -9.0647669446        6.7174363512      -27.3828844291  TIP3      12841           0.0000000000
     88355     13241  TIP3      H2             -8.5047333102        5.4506770058      -28.0496133040  TIP3      12841           0.0000000000
     88356     13242  TIP3      OH2            -8.8323865314        2.2122395322      -36.4286532532  TIP3      12842           0.0000000000
     88357     13242  TIP3      H1             -9.1632290056        2.8596259484      -35.7823448860  TIP3      12842           0.0000000000
     88358     13242  TIP3      H2             -8.1521997594        2.7540658046      -36.8987144117  TIP3      12842           0.0000000000
     88359     13243  TIP3      OH2           -11.8887569143       16.5912627863      -39.3354204627  TIP3      12843           0.0000000000
     88360     13243  TIP3      H1            -11.7230419869       17.4175116018      -39.8344456914  TIP3      12843           0.0000000000
     88361     13243  TIP3      H2            -12.1017350187       16.9272376391      -38.4394005802  TIP3      12843           0.0000000000
     88362     13244  TIP3      OH2           -13.1759473187        3.2887049545      -39.7288059375  TIP3      12844           0.0000000000
     88363     13244  TIP3      H1            -13.2432726408        4.1988328980      -39.3825458870  TIP3      12844           0.0000000000
     88364     13244  TIP3      H2            -12.2638758750        3.0506905912      -39.4813715185  TIP3      12844           0.0000000000
     88365     13245  TIP3      OH2            -2.9495116543        4.0404000507      -27.3113654920  TIP3      12845           0.0000000000
     88366     13245  TIP3      H1             -3.8883709411        4.3277140638      -27.4277179997  TIP3      12845           0.0000000000
     88367     13245  TIP3      H2             -2.6446739099        4.0390743216      -28.2318256427  TIP3      12845           0.0000000000
     88368     13246  TIP3      OH2            -4.3592347837        7.8187878586      -33.2600975249  TIP3      12846           0.0000000000
     88369     13246  TIP3      H1             -5.1714319757        7.3814758646      -33.5675399811  TIP3      12846           0.0000000000
     88370     13246  TIP3      H2             -3.8968104309        7.1154494770      -32.7512617746  TIP3      12846           0.0000000000
     88371     13247  TIP3      OH2           -14.9261985649       13.7365408587      -40.6764893079  TIP3      12847           0.0000000000
     88372     13247  TIP3      H1            -14.2953894074       14.4073632537      -40.3903784029  TIP3      12847           0.0000000000
     88373     13247  TIP3      H2            -14.4275511978       13.2887756968      -41.3870442472  TIP3      12847           0.0000000000
     88374     13248  TIP3      OH2           -16.5659404690        6.4066477885      -41.5095063969  TIP3      12848           0.0000000000
     88375     13248  TIP3      H1            -16.6213008310        7.3615189389      -41.3756849387  TIP3      12848           0.0000000000
     88376     13248  TIP3      H2            -17.4470478808        6.1825851376      -41.8394014313  TIP3      12848           0.0000000000
     88377     13249  TIP3      OH2            -3.2892262309       17.0565760493      -31.6100626564  TIP3      12849           0.0000000000
     88378     13249  TIP3      H1             -3.4072635075       17.7505615570      -32.2888223532  TIP3      12849           0.0000000000
     88379     13249  TIP3      H2             -2.3285319651       17.1357402910      -31.4259361301  TIP3      12849           0.0000000000
     88380     13250  TIP3      OH2           -15.7716190720        1.1909113364      -32.8465255825  TIP3      12850           0.0000000000
     88381     13250  TIP3      H1            -16.0129886721        1.2316497551      -33.8026504058  TIP3      12850           0.0000000000
     88382     13250  TIP3      H2            -16.2287927526        0.3703780705      -32.5745548881  TIP3      12850           0.0000000000
     88383     13251  TIP3      OH2           -16.8402340680       15.1127415651      -36.6965143388  TIP3      12851           0.0000000000
     88384     13251  TIP3      H1            -17.6848571144       15.5886411919      -36.7012291996  TIP3      12851           0.0000000000
     88385     13251  TIP3      H2            -16.3253624401       15.6170394983      -37.3395220948  TIP3      12851           0.0000000000
     88386     13252  TIP3      OH2           -17.5884403035       17.7494529729      -25.3814114466  TIP3      12852           0.0000000000
     88387     13252  TIP3      H1            -17.0071927317       17.5341871480      -24.6242597023  TIP3      12852           0.0000000000
     88388     13252  TIP3      H2            -18.0384335985       16.9118007092      -25.5737406329  TIP3      12852           0.0000000000
     88389     13253  TIP3      OH2           -12.9762735639       16.6628731963      -23.7764209691  TIP3      12853           0.0000000000
     88390     13253  TIP3      H1            -12.1929087225       16.2074278241      -23.4383009722  TIP3      12853           0.0000000000
     88391     13253  TIP3      H2            -12.9880657171       16.4193860464      -24.7141678434  TIP3      12853           0.0000000000
     88392     13254  TIP3      OH2            -8.5461869927       16.3156897131      -41.9067652449  TIP3      12854           0.0000000000
     88393     13254  TIP3      H1             -9.3432510150       15.7276137296      -41.9591271821  TIP3      12854           0.0000000000
     88394     13254  TIP3      H2             -8.0701264477       15.7483619263      -42.5135363123  TIP3      12854           0.0000000000
     88395     13255  TIP3      OH2            -6.4088209314       15.0466818657      -25.0538002046  TIP3      12855           0.0000000000
     88396     13255  TIP3      H1             -6.7459242231       14.1787323793      -24.7741903081  TIP3      12855           0.0000000000
     88397     13255  TIP3      H2             -5.6583341044       15.1845341433      -24.4422405365  TIP3      12855           0.0000000000
     88398     13256  TIP3      OH2            -4.2680381413       15.9785620349      -42.1708375857  TIP3      12856           0.0000000000
     88399     13256  TIP3      H1             -3.9843222343       15.1712387824      -41.6997928364  TIP3      12856           0.0000000000
     88400     13256  TIP3      H2             -3.5038347239       16.1997640240      -42.7184734231  TIP3      12856           0.0000000000
     88401     13257  TIP3      OH2           -17.6662374519       11.5486024798      -24.4219855937  TIP3      12857           0.0000000000
     88402     13257  TIP3      H1            -17.5267785415       10.6282259901      -24.7148077569  TIP3      12857           0.0000000000
     88403     13257  TIP3      H2            -18.4436303424       11.8200060655      -24.9393196120  TIP3      12857           0.0000000000
     88404     13258  TIP3      OH2           -13.3048058899       11.9390975667      -42.2589452544  TIP3      12858           0.0000000000
     88405     13258  TIP3      H1            -13.2375053078       11.1052598705      -41.7812127831  TIP3      12858           0.0000000000
     88406     13258  TIP3      H2            -12.6780431267       11.7392184494      -42.9861050781  TIP3      12858           0.0000000000
     88407     13259  TIP3      OH2           -10.9637360382       11.5234629074      -24.9929489363  TIP3      12859           0.0000000000
     88408     13259  TIP3      H1            -11.3429937483       11.8111047308      -25.8541239224  TIP3      12859           0.0000000000
     88409     13259  TIP3      H2            -10.8954964006       10.5472929544      -25.1067653569  TIP3      12859           0.0000000000
     88410     13260  TIP3      OH2            -5.2914033881       11.4147796137      -27.6142506902  TIP3      12860           0.0000000000
     88411     13260  TIP3      H1             -4.4974186676       12.0052685459      -27.7188146996  TIP3      12860           0.0000000000
     88412     13260  TIP3      H2             -5.9670696219       12.1037205788      -27.5780934254  TIP3      12860           0.0000000000
     88413     13261  TIP3      OH2           -16.8346448722        8.7535019647      -25.0285877443  TIP3      12861           0.0000000000
     88414     13261  TIP3      H1            -16.3969425606        7.8958204014      -25.1125908952  TIP3      12861           0.0000000000
     88415     13261  TIP3      H2            -17.0638824597        8.7669717581      -24.0762822399  TIP3      12861           0.0000000000
     88416     13262  TIP3      OH2           -12.1832563855        9.9274396851      -39.9541369015  TIP3      12862           0.0000000000
     88417     13262  TIP3      H1            -12.6621950597        9.4019695174      -39.3490030600  TIP3      12862           0.0000000000
     88418     13262  TIP3      H2            -11.8786711907        9.2308120817      -40.6226176623  TIP3      12862           0.0000000000
     88419     13263  TIP3      OH2           -12.8832855077        7.7309405979      -27.6390553159  TIP3      12863           0.0000000000
     88420     13263  TIP3      H1            -13.4966424123        8.4354388349      -27.3667639959  TIP3      12863           0.0000000000
     88421     13263  TIP3      H2            -12.5310190582        8.0794957937      -28.4741585146  TIP3      12863           0.0000000000
     88422     13264  TIP3      OH2           -10.8715765728        8.2788473854      -41.2696319861  TIP3      12864           0.0000000000
     88423     13264  TIP3      H1            -11.0715811013        8.1174119336      -42.2413198322  TIP3      12864           0.0000000000
     88424     13264  TIP3      H2             -9.9805318332        8.2187822072      -41.6059672086  TIP3      12864           0.0000000000
     88425     13265  TIP3      OH2            -7.8444716659       10.2581862191      -24.3420367385  TIP3      12865           0.0000000000
     88426     13265  TIP3      H1             -6.8780645361       10.2910476174      -24.3913762304  TIP3      12865           0.0000000000
     88427     13265  TIP3      H2             -8.0041834486        9.5020404139      -23.7648878309  TIP3      12865           0.0000000000
     88428     13266  TIP3      OH2            -1.8254723994       10.5270325842       42.7728859198  TIP3      12866           0.0000000000
     88429     13266  TIP3      H1             -1.9833219344       10.0544058201       41.9315295959  TIP3      12866           0.0000000000
     88430     13266  TIP3      H2             -1.6690419424       11.4366333334       42.4968046905  TIP3      12866           0.0000000000
     88431     13267  TIP3      OH2           -12.5129102241        5.1002372051      -26.5596586199  TIP3      12867           0.0000000000
     88432     13267  TIP3      H1            -12.3852979922        4.3753387885      -27.1904542153  TIP3      12867           0.0000000000
     88433     13267  TIP3      H2            -12.5370013558        5.8971964384      -27.1279080982  TIP3      12867           0.0000000000
     88434     13268  TIP3      OH2           -12.1066786853        3.4740880543      -29.0456458563  TIP3      12868           0.0000000000
     88435     13268  TIP3      H1            -11.5821231990        3.9354895971      -29.7392455184  TIP3      12868           0.0000000000
     88436     13268  TIP3      H2            -12.9876273222        3.3797156802      -29.4766784584  TIP3      12868           0.0000000000
     88437     13269  TIP3      OH2           -10.5185139659        8.9456450400      -28.7870895486  TIP3      12869           0.0000000000
     88438     13269  TIP3      H1             -9.8043048131        8.7636829285      -29.4049761347  TIP3      12869           0.0000000000
     88439     13269  TIP3      H2            -10.9065226649        9.7760169104      -29.1197066806  TIP3      12869           0.0000000000
     88440     13270  TIP3      OH2            -6.1551435718        6.7404141466      -23.7788432060  TIP3      12870           0.0000000000
     88441     13270  TIP3      H1             -5.9247699363        5.8042328141      -23.9201371208  TIP3      12870           0.0000000000
     88442     13270  TIP3      H2             -5.2688771305        7.1498527394      -23.8171903029  TIP3      12870           0.0000000000
     88443     13271  TIP3      OH2            -4.8457036208        9.5056736505      -25.7185226136  TIP3      12871           0.0000000000
     88444     13271  TIP3      H1             -5.0344215559       10.2522032842      -26.2987762056  TIP3      12871           0.0000000000
     88445     13271  TIP3      H2             -3.8645309933        9.4568823906      -25.8655404142  TIP3      12871           0.0000000000
     88446     13272  TIP3      OH2           -14.0420133905        6.3298818076      -24.6421632076  TIP3      12872           0.0000000000
     88447     13272  TIP3      H1            -14.8162352558        5.7719526334      -24.8453921530  TIP3      12872           0.0000000000
     88448     13272  TIP3      H2            -13.3755100522        5.9872475988      -25.2582115039  TIP3      12872           0.0000000000
     88449     13273  TIP3      OH2           -11.3056445869        0.9174887820      -28.6312108608  TIP3      12873           0.0000000000
     88450     13273  TIP3      H1            -11.4441216924        1.8849519130      -28.7421779212  TIP3      12873           0.0000000000
     88451     13273  TIP3      H2            -12.0640234781        0.5594856166      -29.1273417950  TIP3      12873           0.0000000000
     88452     13274  TIP3      OH2           -10.0304069532        5.2357136778      -25.0591400590  TIP3      12874           0.0000000000
     88453     13274  TIP3      H1            -10.3155742319        5.0227000022      -24.1549529733  TIP3      12874           0.0000000000
     88454     13274  TIP3      H2            -10.8366280038        5.0507515355      -25.5774128061  TIP3      12874           0.0000000000
     88455     13275  TIP3      OH2            -7.3232847928        4.3800918769      -25.9816734862  TIP3      12875           0.0000000000
     88456     13275  TIP3      H1             -8.2874563884        4.4187540688      -25.8497582516  TIP3      12875           0.0000000000
     88457     13275  TIP3      H2             -7.0355643651        3.7415727657      -25.3097982361  TIP3      12875           0.0000000000
     88458     13276  TIP3      OH2            -5.7081339024        3.0220324846      -24.0081116583  TIP3      12876           0.0000000000
     88459     13276  TIP3      H1             -5.8003733386        2.0464306460      -24.0002881656  TIP3      12876           0.0000000000
     88460     13276  TIP3      H2             -6.0078288331        3.2946337575      -23.1176544082  TIP3      12876           0.0000000000
     88461     13277  TIP3      OH2           -15.9060163361        4.2489545639      -24.9408454032  TIP3      12877           0.0000000000
     88462     13277  TIP3      H1            -15.6763255238        3.5208298284      -25.5448565084  TIP3      12877           0.0000000000
     88463     13277  TIP3      H2            -16.0013529160        3.8055551904      -24.0790587346  TIP3      12877           0.0000000000
     88464     13278  TIP3      OH2           -11.1052073730        0.2608985791      -25.9472831430  TIP3      12878           0.0000000000
     88465     13278  TIP3      H1            -10.3928506792       -0.4148383433      -25.9747535444  TIP3      12878           0.0000000000
     88466     13278  TIP3      H2            -11.1963416510        0.4736306436      -26.8913891194  TIP3      12878           0.0000000000
     88467     13279  TIP3      OH2           -10.7427351634        1.9085072550      -23.8814272198  TIP3      12879           0.0000000000
     88468     13279  TIP3      H1            -10.8756573047        1.4190659474      -24.7256335406  TIP3      12879           0.0000000000
     88469     13279  TIP3      H2            -11.3347804482        2.6713959348      -23.9631979007  TIP3      12879           0.0000000000
     88470     13280  TIP3      OH2           -11.2277932613       18.8023569079      -40.7338044334  TIP3      12880           0.0000000000
     88471     13280  TIP3      H1            -10.2637280178       18.9424589137      -40.5917302943  TIP3      12880           0.0000000000
     88472     13280  TIP3      H2            -11.4466246508       19.4816634284      -41.3670633721  TIP3      12880           0.0000000000
     88473     13281  TIP3      OH2           -17.6601386776       13.4270404244      -41.2228985894  TIP3      12881           0.0000000000
     88474     13281  TIP3      H1            -16.7073388202       13.5081987661      -40.9793217124  TIP3      12881           0.0000000000
     88475     13281  TIP3      H2            -17.6275419636       12.7714625591      -41.9270693036  TIP3      12881           0.0000000000
     88476     13282  TIP3      OH2           -18.9440487789       18.8131426593      -36.2034293532  TIP3      12882           0.0000000000
     88477     13282  TIP3      H1            -19.6352200404       18.3313073246      -36.7040224735  TIP3      12882           0.0000000000
     88478     13282  TIP3      H2            -18.6328073689       18.1394639896      -35.5758335490  TIP3      12882           0.0000000000
     88479     13283  TIP3      OH2           -18.1037245244       16.9133287337      -34.3720425725  TIP3      12883           0.0000000000
     88480     13283  TIP3      H1            -18.4472061997       16.0286022363      -34.1788851416  TIP3      12883           0.0000000000
     88481     13283  TIP3      H2            -17.8806756650       17.2483549836      -33.4851995976  TIP3      12883           0.0000000000
     88482     13284  TIP3      OH2            -0.5683913880       17.7108336723      -31.4056471885  TIP3      12884           0.0000000000
     88483     13284  TIP3      H1             -0.5601301571       17.8947657146      -30.4507066646  TIP3      12884           0.0000000000
     88484     13284  TIP3      H2              0.1352205237       18.2894795342      -31.7227178350  TIP3      12884           0.0000000000
     88485     13285  TIP3      OH2            -0.9912954172       17.3093655819      -28.4668976181  TIP3      12885           0.0000000000
     88486     13285  TIP3      H1             -1.4750250194       16.5388195871      -28.8406056478  TIP3      12885           0.0000000000
     88487     13285  TIP3      H2             -0.4658979122       16.8732644691      -27.7775219477  TIP3      12885           0.0000000000
     88488     13286  TIP3      OH2            -2.5433610475       13.0487443257      -23.8301935010  TIP3      12886           0.0000000000
     88489     13286  TIP3      H1             -3.4191705883       12.9852560792      -23.4182165829  TIP3      12886           0.0000000000
     88490     13286  TIP3      H2             -2.1689818658       13.8347292360      -23.3753339844  TIP3      12886           0.0000000000
     88491     13287  TIP3      OH2            -1.2399494555       11.3457276875      -38.3468707446  TIP3      12887           0.0000000000
     88492     13287  TIP3      H1             -0.3813729028       11.7551428158      -38.1708471959  TIP3      12887           0.0000000000
     88493     13287  TIP3      H2             -1.2392446811       10.6055366816      -37.6959361191  TIP3      12887           0.0000000000
     88494     13288  TIP3      OH2            -0.8614721428        9.4121180830      -36.4972241519  TIP3      12888           0.0000000000
     88495     13288  TIP3      H1             -1.5997702235        8.9067547197      -36.0923327505  TIP3      12888           0.0000000000
     88496     13288  TIP3      H2             -0.2654094407        9.5821114408      -35.7390993027  TIP3      12888           0.0000000000
     88497     13289  TIP3      OH2            -1.1085884406       12.1447221410      -31.5189708273  TIP3      12889           0.0000000000
     88498     13289  TIP3      H1             -0.2674941475       11.7793684659      -31.8502644235  TIP3      12889           0.0000000000
     88499     13289  TIP3      H2             -0.9711073979       13.1060610712      -31.6695692981  TIP3      12889           0.0000000000
     88500     13290  TIP3      OH2            -2.5736093333       15.0400616945      -29.2250569411  TIP3      12890           0.0000000000
     88501     13290  TIP3      H1             -3.2568052863       15.3739681188      -28.6216864666  TIP3      12890           0.0000000000
     88502     13290  TIP3      H2             -3.1201725276       14.6172259654      -29.9243562313  TIP3      12890           0.0000000000
     88503     13291  TIP3      OH2            -0.5748013503        9.2626174173      -40.1028309612  TIP3      12891           0.0000000000
     88504     13291  TIP3      H1             -1.1277630988        9.6373016185      -40.8147352143  TIP3      12891           0.0000000000
     88505     13291  TIP3      H2             -0.6300121571        9.9635174382      -39.4260117708  TIP3      12891           0.0000000000
     88506     13292  TIP3      OH2            -2.4595134004        6.5347835981      -41.4705223330  TIP3      12892           0.0000000000
     88507     13292  TIP3      H1             -2.1314578203        7.1418699719      -42.1623131088  TIP3      12892           0.0000000000
     88508     13292  TIP3      H2             -2.3737974611        5.7066785485      -41.9895927461  TIP3      12892           0.0000000000
     88509     13293  TIP3      OH2            -3.0559021359        7.9099087258      -35.9304607481  TIP3      12893           0.0000000000
     88510     13293  TIP3      H1             -3.2100432723        6.9536659750      -35.9471849728  TIP3      12893           0.0000000000
     88511     13293  TIP3      H2             -3.4077589146        8.1629937301      -35.0616649877  TIP3      12893           0.0000000000
     88512     13294  TIP3      OH2           -18.0441987136        9.9914706730      -31.8849624296  TIP3      12894           0.0000000000
     88513     13294  TIP3      H1            -17.8457013928        9.9056326568      -32.8439914075  TIP3      12894           0.0000000000
     88514     13294  TIP3      H2            -17.1593336980        9.8423130072      -31.4996780031  TIP3      12894           0.0000000000
     88515     13295  TIP3      OH2            -2.2195700488        9.8740398272      -26.2703083664  TIP3      12895           0.0000000000
     88516     13295  TIP3      H1             -1.6021659090        9.1274871826      -26.0875494377  TIP3      12895           0.0000000000
     88517     13295  TIP3      H2             -1.6191835997       10.6510458330      -26.2342756743  TIP3      12895           0.0000000000
     88518     13296  TIP3      OH2            -0.6999061546        7.7824305224      -25.6215986365  TIP3      12896           0.0000000000
     88519     13296  TIP3      H1             -1.5804871593        7.3755040273      -25.7560240738  TIP3      12896           0.0000000000
     88520     13296  TIP3      H2             -0.1129826783        7.0122874373      -25.6621174251  TIP3      12896           0.0000000000
     88521     13297  TIP3      OH2            -2.9725489822        3.9265855565      -42.4509731379  TIP3      12897           0.0000000000
     88522     13297  TIP3      H1             -2.3705024798        3.5328247892      -41.7930354736  TIP3      12897           0.0000000000
     88523     13297  TIP3      H2             -3.8334709430        3.5276457593      -42.2442828820  TIP3      12897           0.0000000000
     88524     13298  TIP3      OH2            -3.3732177726        5.4974936377      -37.4551016694  TIP3      12898           0.0000000000
     88525     13298  TIP3      H1             -3.0680601371        4.5681751330      -37.3380101618  TIP3      12898           0.0000000000
     88526     13298  TIP3      H2             -2.5918173955        5.9095046509      -37.8508153743  TIP3      12898           0.0000000000
     88527     13299  TIP3      OH2            -2.7517874941        6.0416960325      -32.0282082071  TIP3      12899           0.0000000000
     88528     13299  TIP3      H1             -1.7948627815        6.2794706030      -32.0470235079  TIP3      12899           0.0000000000
     88529     13299  TIP3      H2             -2.9584542652        6.1771891619      -31.0895028803  TIP3      12899           0.0000000000
     88530     13300  TIP3      OH2            -2.6887727780        6.7707733384      -29.2473690581  TIP3      12900           0.0000000000
     88531     13300  TIP3      H1             -3.5563924585        7.0606127008      -28.8990580424  TIP3      12900           0.0000000000
     88532     13300  TIP3      H2             -2.2576294363        7.6320063398      -29.4627400371  TIP3      12900           0.0000000000
     88533     13301  TIP3      OH2           -18.4406184432        5.2737794390      -25.7604179374  TIP3      12901           0.0000000000
     88534     13301  TIP3      H1            -17.5024927310        5.1131908583      -25.5335701044  TIP3      12901           0.0000000000
     88535     13301  TIP3      H2            -18.8806998865        4.4803828398      -25.3937489011  TIP3      12901           0.0000000000
     88536     13302  TIP3      OH2            -2.7252662330        2.7683619634      -37.4143155535  TIP3      12902           0.0000000000
     88537     13302  TIP3      H1             -2.5356137768        2.3092790262      -36.5732994104  TIP3      12902           0.0000000000
     88538     13302  TIP3      H2             -3.3369243980        2.1510158162      -37.8754565665  TIP3      12902           0.0000000000
     88539     13303  TIP3      OH2           -17.2153613666        3.5818262385      -32.8692011433  TIP3      12903           0.0000000000
     88540     13303  TIP3      H1            -16.7637350039        2.7637492424      -32.5874600441  TIP3      12903           0.0000000000
     88541     13303  TIP3      H2            -16.7151729949        4.2872778874      -32.4523321971  TIP3      12903           0.0000000000
     88542     13304  TIP3      OH2           -18.9434219528        6.5682709635      -31.8061161056  TIP3      12904           0.0000000000
     88543     13304  TIP3      H1            -18.3967938260        6.3447062420      -32.5930893441  TIP3      12904           0.0000000000
     88544     13304  TIP3      H2            -18.5165811697        7.3982865320      -31.5431776025  TIP3      12904           0.0000000000
     88545     13305  TIP3      OH2            -0.8871242521        2.9131374032      -25.5335831550  TIP3      12905           0.0000000000
     88546     13305  TIP3      H1             -1.8285545744        3.1637091858      -25.5935153812  TIP3      12905           0.0000000000
     88547     13305  TIP3      H2             -0.8060240612        2.3571750908      -26.3219967832  TIP3      12905           0.0000000000
     88548     13306  TIP3      OH2            -0.8936022223        2.8214513567      -40.8603696046  TIP3      12906           0.0000000000
     88549     13306  TIP3      H1             -0.4567761445        2.1087268430      -41.3588441058  TIP3      12906           0.0000000000
     88550     13306  TIP3      H2             -0.1790997338        3.4852239323      -40.8342590796  TIP3      12906           0.0000000000
     88551     13307  TIP3      OH2           -18.3154457507        3.0309679990      -37.8604952892  TIP3      12907           0.0000000000
     88552     13307  TIP3      H1            -19.3367503756        2.9979189730      -37.8703528883  TIP3      12907           0.0000000000
     88553     13307  TIP3      H2            -18.0884101347        3.4372179789      -38.6534095232  TIP3      12907           0.0000000000
     88554     13308  TIP3      OH2            -3.8400860674       17.7992677548      -35.8032490888  TIP3      12908           0.0000000000
     88555     13308  TIP3      H1             -3.1619674537       17.4701333407      -36.4206789003  TIP3      12908           0.0000000000
     88556     13308  TIP3      H2             -3.3117654238       18.2947661689      -35.1599718743  TIP3      12908           0.0000000000
     88557     13309  TIP3      OH2           -18.6144144169        1.5296838406      -29.4316403860  TIP3      12909           0.0000000000
     88558     13309  TIP3      H1            -19.2953768474        1.3096572385      -28.7745457885  TIP3      12909           0.0000000000
     88559     13309  TIP3      H2            -19.0747415376        2.1845112256      -29.9967467958  TIP3      12909           0.0000000000
     88560     13310  TIP3      OH2           -16.4158266352       14.7275595080      -25.2721017815  TIP3      12910           0.0000000000
     88561     13310  TIP3      H1            -17.2533463026       14.9141932903      -25.7247142882  TIP3      12910           0.0000000000
     88562     13310  TIP3      H2            -16.6910403952       14.6534850616      -24.3528386584  TIP3      12910           0.0000000000
     88563     13311  TIP3      OH2           -13.4938689497       15.6968757601      -29.0063661138  TIP3      12911           0.0000000000
     88564     13311  TIP3      H1            -13.8736113132       16.5387986511      -29.2937852805  TIP3      12911           0.0000000000
     88565     13311  TIP3      H2            -12.5699236042       15.8014395051      -29.3188077259  TIP3      12911           0.0000000000
     88566     13312  TIP3      OH2            -9.1756539534       17.1167155018      -26.0893813384  TIP3      12912           0.0000000000
     88567     13312  TIP3      H1             -8.9963032212       16.7818418844      -25.1753909161  TIP3      12912           0.0000000000
     88568     13312  TIP3      H2             -8.2918679044       17.4252257047      -26.3627556943  TIP3      12912           0.0000000000
     88569     13313  TIP3      OH2            -6.8622082089       18.3933555157      -26.8097741756  TIP3      12913           0.0000000000
     88570     13313  TIP3      H1             -6.1457211730       17.7795225194      -27.0432966242  TIP3      12913           0.0000000000
     88571     13313  TIP3      H2             -6.4976775157       18.8077314690      -26.0007704139  TIP3      12913           0.0000000000
     88572     13314  TIP3      OH2            -1.8879309939        1.0030461479      -27.7056812420  TIP3      12914           0.0000000000
     88573     13314  TIP3      H1             -2.7157789753        1.3058570063      -28.1197991273  TIP3      12914           0.0000000000
     88574     13314  TIP3      H2             -1.6872176515        0.2074306013      -28.2491985057  TIP3      12914           0.0000000000
     88575     13315  TIP3      OH2           -16.0671829899       18.9519795877      -28.9846327383  TIP3      12915           0.0000000000
     88576     13315  TIP3      H1            -16.8027800760       19.4227809258      -29.4116884834  TIP3      12915           0.0000000000
     88577     13315  TIP3      H2            -16.4214711211       18.7301091943      -28.1102978827  TIP3      12915           0.0000000000
     88578     13316  TIP3      OH2           -13.5944181176       18.5367365505      -29.9318617878  TIP3      12916           0.0000000000
     88579     13316  TIP3      H1            -14.4905694960       18.6510730677      -29.5343694064  TIP3      12916           0.0000000000
     88580     13316  TIP3      H2            -13.6681092231       19.1163299330      -30.7179962965  TIP3      12916           0.0000000000
     88581     13317  TIP3      OH2            -8.8977674373       18.4395318773      -30.7651921607  TIP3      12917           0.0000000000
     88582     13317  TIP3      H1             -9.3611813050       18.9874373075      -31.4177230872  TIP3      12917           0.0000000000
     88583     13317  TIP3      H2             -8.7471086002       19.0695831616      -30.0299179380  TIP3      12917           0.0000000000
     88584     13318  TIP3      OH2            -6.5785817119       17.2895169284      -29.7884204508  TIP3      12918           0.0000000000
     88585     13318  TIP3      H1             -7.4721963402       17.5124563400      -30.0941270258  TIP3      12918           0.0000000000
     88586     13318  TIP3      H2             -6.1405976543       18.1552734191      -29.8694786662  TIP3      12918           0.0000000000
     88587     13319  TIP3      OH2            -3.9917226940       18.8573511655      -29.5065510864  TIP3      12919           0.0000000000
     88588     13319  TIP3      H1             -4.1258060947       19.8103705068      -29.7410805765  TIP3      12919           0.0000000000
     88589     13319  TIP3      H2             -3.7990678192       18.4795991888      -30.3843941661  TIP3      12919           0.0000000000
     88590     13320  TIP3      OH2           -16.6527197749       17.5972067361      -32.0660210894  TIP3      12920           0.0000000000
     88591     13320  TIP3      H1            -16.6905473237       17.1489289099      -31.1938588775  TIP3      12920           0.0000000000
     88592     13320  TIP3      H2            -15.8300655431       17.2475562929      -32.4647046991  TIP3      12920           0.0000000000
     88593     13321  TIP3      OH2           -14.5391948866       16.3093127533      -33.4143249170  TIP3      12921           0.0000000000
     88594     13321  TIP3      H1            -14.7260045921       15.3744299914      -33.2110792829  TIP3      12921           0.0000000000
     88595     13321  TIP3      H2            -13.6868012770       16.4417772660      -32.9413168033  TIP3      12921           0.0000000000
     88596     13322  TIP3      OH2           -11.9657287043       16.7850942652      -32.5512220038  TIP3      12922           0.0000000000
     88597     13322  TIP3      H1            -11.7705305605       15.8724983751      -32.8232096761  TIP3      12922           0.0000000000
     88598     13322  TIP3      H2            -11.9058716159       16.7254725278      -31.5881635073  TIP3      12922           0.0000000000
     88599     13323  TIP3      OH2            -8.4770773401        2.4403871967      -33.4011826373  TIP3      12923           0.0000000000
     88600     13323  TIP3      H1             -9.1540029697        1.7944072245      -33.1424063135  TIP3      12923           0.0000000000
     88601     13323  TIP3      H2             -7.9192704839        1.9288369799      -34.0011923393  TIP3      12923           0.0000000000
     88602     13324  TIP3      OH2            -3.3417461765        0.5130628210      -33.3014182469  TIP3      12924           0.0000000000
     88603     13324  TIP3      H1             -2.7230889269        1.0900740533      -33.8181661579  TIP3      12924           0.0000000000
     88604     13324  TIP3      H2             -4.2182631523        0.8578931523      -33.5507641492  TIP3      12924           0.0000000000
     88605     13325  TIP3      OH2            -1.6501905207        1.7028064927      -35.0005092448  TIP3      12925           0.0000000000
     88606     13325  TIP3      H1             -0.9840223327        1.1572578695      -35.4845146276  TIP3      12925           0.0000000000
     88607     13325  TIP3      H2             -1.1955711112        2.5701189317      -34.9439479880  TIP3      12925           0.0000000000
     88608     13326  TIP3      OH2           -16.1191087066        1.0800627551      -35.5703833443  TIP3      12926           0.0000000000
     88609     13326  TIP3      H1            -16.9239152671        0.8444708480      -36.0919236383  TIP3      12926           0.0000000000
     88610     13326  TIP3      H2            -15.6387381344        0.2370369558      -35.5978703592  TIP3      12926           0.0000000000
     88611     13327  TIP3      OH2           -17.3350606193        0.8391061330      -39.8000510362  TIP3      12927           0.0000000000
     88612     13327  TIP3      H1            -16.8700812776        1.4783234588      -40.3675927531  TIP3      12927           0.0000000000
     88613     13327  TIP3      H2            -17.9359336238        1.4043241925      -39.2804905678  TIP3      12927           0.0000000000
     88614     13328  TIP3      OH2           -11.6010406013        0.9905380551      -35.7742563618  TIP3      12928           0.0000000000
     88615     13328  TIP3      H1            -10.7050408711        1.3705526672      -35.8111915640  TIP3      12928           0.0000000000
     88616     13328  TIP3      H2            -11.6899248011        0.7790696787      -34.8447723424  TIP3      12928           0.0000000000
     88617     13329  TIP3      OH2            -5.9760078367        1.0243719006      -34.1264451116  TIP3      12929           0.0000000000
     88618     13329  TIP3      H1             -5.9501750938        1.1159616331      -35.0842293514  TIP3      12929           0.0000000000
     88619     13329  TIP3      H2             -6.3023828921        0.1022740348      -34.0010253990  TIP3      12929           0.0000000000
     88620     13330  TIP3      OH2            -4.6497411489        1.0498566417      -38.4519847680  TIP3      12930           0.0000000000
     88621     13330  TIP3      H1             -5.3796889664        1.6563031942      -38.6406175807  TIP3      12930           0.0000000000
     88622     13330  TIP3      H2             -5.1064316828        0.1934829349      -38.2848143668  TIP3      12930           0.0000000000
     88623     13331  TIP3      OH2           -17.4046346177       16.7866146173      -38.8473821840  TIP3      12931           0.0000000000
     88624     13331  TIP3      H1            -18.0972305370       16.7819880644      -39.5417733539  TIP3      12931           0.0000000000
     88625     13331  TIP3      H2            -17.4124173904       17.7288426882      -38.6240954442  TIP3      12931           0.0000000000
     88626     13332  TIP3      OH2           -15.4817441937        2.7458878367      -41.3262375585  TIP3      12932           0.0000000000
     88627     13332  TIP3      H1            -14.9624742374        2.1459728911      -41.8611065879  TIP3      12932           0.0000000000
     88628     13332  TIP3      H2            -14.8299925337        3.0949583384      -40.6911567058  TIP3      12932           0.0000000000
     88629     13333  TIP3      OH2           -10.4600355088        3.0480587843      -38.9097941832  TIP3      12933           0.0000000000
     88630     13333  TIP3      H1            -10.2358218777        2.4349224361      -38.1870547862  TIP3      12933           0.0000000000
     88631     13333  TIP3      H2            -10.4472887226        3.8939131006      -38.4135805013  TIP3      12933           0.0000000000
     88632     13334  TIP3      OH2            -8.5803602307       18.2004468449      -40.3986249400  TIP3      12934           0.0000000000
     88633     13334  TIP3      H1             -7.6553377119       18.3664161577      -40.6477848599  TIP3      12934           0.0000000000
     88634     13334  TIP3      H2             -8.7688327210       17.6263833526      -41.1991487735  TIP3      12934           0.0000000000
     88635     13335  TIP3      OH2            -1.8339050251       17.5908729767      -37.7757121331  TIP3      12935           0.0000000000
     88636     13335  TIP3      H1             -2.0440628100       16.8219689785      -38.3623139863  TIP3      12935           0.0000000000
     88637     13335  TIP3      H2             -1.9031334544       18.3360916829      -38.3986541518  TIP3      12935           0.0000000000
     88638     13336  TIP3      OH2           -16.2180288616        1.5991808839      -26.0917552094  TIP3      12936           0.0000000000
     88639     13336  TIP3      H1            -16.5738538760        0.8092116108      -25.6443629034  TIP3      12936           0.0000000000
     88640     13336  TIP3      H2            -15.2870589720        1.5885045517      -25.7647205677  TIP3      12936           0.0000000000
     88641     13337  TIP3      OH2           -14.2201784914        0.9638418450      -24.5012487485  TIP3      12937           0.0000000000
     88642     13337  TIP3      H1            -13.3196421235        0.6420759837      -24.7105474102  TIP3      12937           0.0000000000
     88643     13337  TIP3      H2            -14.5799766687        0.1762062291      -24.0644084522  TIP3      12937           0.0000000000
     88644     13338  TIP3      OH2           -15.5929480419       17.7398505571      -41.8641515676  TIP3      12938           0.0000000000
     88645     13338  TIP3      H1            -15.8707229684       18.0183903429      -40.9813860515  TIP3      12938           0.0000000000
     88646     13338  TIP3      H2            -14.8286230812       17.1888477919      -41.7019811715  TIP3      12938           0.0000000000
     88647     13339  TIP3      OH2            -5.8048591708        0.2792967699      -24.3566983672  TIP3      12939           0.0000000000
     88648     13339  TIP3      H1             -5.7310598637       -0.1731919002      -23.4927321836  TIP3      12939           0.0000000000
     88649     13339  TIP3      H2             -4.8936956408        0.2683437013      -24.6898820243  TIP3      12939           0.0000000000
     88650     13340  TIP3      OH2            -2.6049856771       16.3239336795      -25.6571762911  TIP3      12940           0.0000000000
     88651     13340  TIP3      H1             -3.4123489452       16.1668494681      -26.1919812077  TIP3      12940           0.0000000000
     88652     13340  TIP3      H2             -2.7094596529       17.2732467552      -25.4466112545  TIP3      12940           0.0000000000
     88653     13341  TIP3      OH2            11.8095643844       10.2047029597      -35.6509216480  TIP3      12941           0.0000000000
     88654     13341  TIP3      H1             11.8530051887       11.1799177453      -35.7506560339  TIP3      12941           0.0000000000
     88655     13341  TIP3      H2             11.1263189015        9.9582873096      -36.2930032513  TIP3      12941           0.0000000000
     88656     13342  TIP3      OH2            10.7027350281        9.4781304909      -32.1933339857  TIP3      12942           0.0000000000
     88657     13342  TIP3      H1             10.6759810407        8.8196288592      -31.4925254674  TIP3      12942           0.0000000000
     88658     13342  TIP3      H2             10.3784314885        8.9891195462      -32.9684857846  TIP3      12942           0.0000000000
     88659     13343  TIP3      OH2             3.0620225326        9.1129667708      -30.6341191352  TIP3      12943           0.0000000000
     88660     13343  TIP3      H1              3.1330365012        8.4564544336      -29.9079875870  TIP3      12943           0.0000000000
     88661     13343  TIP3      H2              3.7932083467        9.7110022540      -30.4248553241  TIP3      12943           0.0000000000
     88662     13344  TIP3      OH2            14.4096692825       12.4104571904      -33.9161050706  TIP3      12944           0.0000000000
     88663     13344  TIP3      H1             13.9724645418       11.6964746326      -33.4399202116  TIP3      12944           0.0000000000
     88664     13344  TIP3      H2             14.4051488815       13.1306937893      -33.2566103825  TIP3      12944           0.0000000000
     88665     13345  TIP3      OH2             3.9889153085       13.5666418934      -32.0964072412  TIP3      12945           0.0000000000
     88666     13345  TIP3      H1              3.6505579641       12.7252140425      -32.4546835491  TIP3      12945           0.0000000000
     88667     13345  TIP3      H2              4.9439946922       13.3763174968      -32.0562057975  TIP3      12945           0.0000000000
     88668     13346  TIP3      OH2             0.6271960444        7.1676528356      -36.6696145793  TIP3      12946           0.0000000000
     88669     13346  TIP3      H1              0.1708008062        8.0358163282      -36.7096860967  TIP3      12946           0.0000000000
     88670     13346  TIP3      H2              0.0490979000        6.6178443469      -37.2165103869  TIP3      12946           0.0000000000
     88671     13347  TIP3      OH2             1.3189548485        9.3704007249      -34.5411292255  TIP3      12947           0.0000000000
     88672     13347  TIP3      H1              1.5654704365        8.5709540498      -34.0416602598  TIP3      12947           0.0000000000
     88673     13347  TIP3      H2              2.0540257744        9.4574194331      -35.1683537888  TIP3      12947           0.0000000000
     88674     13348  TIP3      OH2            11.5193824776       17.5517726874      -33.6791493807  TIP3      12948           0.0000000000
     88675     13348  TIP3      H1             12.1523038193       16.8473599675      -33.9655917049  TIP3      12948           0.0000000000
     88676     13348  TIP3      H2             11.3120994012       17.2739962223      -32.7918768706  TIP3      12948           0.0000000000
     88677     13349  TIP3      OH2             9.0797679562       11.8946857781      -31.7722294002  TIP3      12949           0.0000000000
     88678     13349  TIP3      H1              9.4151669474       11.2271039697      -32.3923719275  TIP3      12949           0.0000000000
     88679     13349  TIP3      H2              9.8521464003       12.0234546082      -31.1951958285  TIP3      12949           0.0000000000
     88680     13350  TIP3      OH2            17.7217664165        3.5032304795      -30.9661619675  TIP3      12950           0.0000000000
     88681     13350  TIP3      H1             17.8346621846        4.1237788699      -30.2140541854  TIP3      12950           0.0000000000
     88682     13350  TIP3      H2             18.2150394167        3.9643166190      -31.6612384059  TIP3      12950           0.0000000000
     88683     13351  TIP3      OH2            12.2412168259        6.3276794814      -31.4374688136  TIP3      12951           0.0000000000
     88684     13351  TIP3      H1             12.3909298422        5.3617225307      -31.4446132358  TIP3      12951           0.0000000000
     88685     13351  TIP3      H2             12.1370203092        6.4901691814      -32.3977642553  TIP3      12951           0.0000000000
     88686     13352  TIP3      OH2             5.4082646292        4.4034749358      -34.2150388136  TIP3      12952           0.0000000000
     88687     13352  TIP3      H1              5.4356059439        5.2808771728      -34.6263586348  TIP3      12952           0.0000000000
     88688     13352  TIP3      H2              4.9171276881        3.8426826451      -34.8401126221  TIP3      12952           0.0000000000
     88689     13353  TIP3      OH2            13.1004044956        4.5190773711      -35.8165202338  TIP3      12953           0.0000000000
     88690     13353  TIP3      H1             13.7688099368        4.1990655254      -35.1652772069  TIP3      12953           0.0000000000
     88691     13353  TIP3      H2             13.6482447417        5.0633416869      -36.4023694811  TIP3      12953           0.0000000000
     88692     13354  TIP3      OH2             1.9920906272        6.8239085502      -33.4436907144  TIP3      12954           0.0000000000
     88693     13354  TIP3      H1              2.6636741136        6.2614183625      -33.0033408622  TIP3      12954           0.0000000000
     88694     13354  TIP3      H2              2.0569730412        6.5236696852      -34.3612882629  TIP3      12954           0.0000000000
     88695     13355  TIP3      OH2             7.1633203054        8.3719863774      -34.1980149956  TIP3      12955           0.0000000000
     88696     13355  TIP3      H1              7.8012637376        7.8140352552      -33.7208134217  TIP3      12955           0.0000000000
     88697     13355  TIP3      H2              6.5979940513        7.7105970883      -34.6322556208  TIP3      12955           0.0000000000
     88698     13356  TIP3      OH2            18.1521497731        4.9564874092      -28.7187794004  TIP3      12956           0.0000000000
     88699     13356  TIP3      H1             17.4803919962        5.6679646175      -28.8075062481  TIP3      12956           0.0000000000
     88700     13356  TIP3      H2             18.1674340080        4.8103184664      -27.7627493062  TIP3      12956           0.0000000000
     88701     13357  TIP3      OH2             4.2386153218        3.3139870471      -30.1399651776  TIP3      12957           0.0000000000
     88702     13357  TIP3      H1              3.9807920753        3.8714768666      -30.8987912260  TIP3      12957           0.0000000000
     88703     13357  TIP3      H2              3.5489063994        3.5539225045      -29.4722259560  TIP3      12957           0.0000000000
     88704     13358  TIP3      OH2            11.5754736172       12.8014713615      -36.5859548521  TIP3      12958           0.0000000000
     88705     13358  TIP3      H1             11.2760638467       12.5100860770      -37.4562655672  TIP3      12958           0.0000000000
     88706     13358  TIP3      H2             11.2515828017       13.7301047552      -36.5490435716  TIP3      12958           0.0000000000
     88707     13359  TIP3      OH2             6.7819622585       10.9704620411      -29.8696229135  TIP3      12959           0.0000000000
     88708     13359  TIP3      H1              6.0498236271       11.6071908832      -29.7189332006  TIP3      12959           0.0000000000
     88709     13359  TIP3      H2              7.4871772421       11.5611953445      -30.1730568659  TIP3      12959           0.0000000000
     88710     13360  TIP3      OH2            14.8815380918        3.8378453176      -33.8280151683  TIP3      12960           0.0000000000
     88711     13360  TIP3      H1             14.6764315436        3.0668934626      -33.2885145597  TIP3      12960           0.0000000000
     88712     13360  TIP3      H2             15.5541479656        4.2909933566      -33.2917471467  TIP3      12960           0.0000000000
     88713     13361  TIP3      OH2             3.7983928737        5.1963813064      -32.1635012599  TIP3      12961           0.0000000000
     88714     13361  TIP3      H1              4.4397124766        5.8560691993      -31.8084092571  TIP3      12961           0.0000000000
     88715     13361  TIP3      H2              4.3371821401        4.7440210993      -32.8439099752  TIP3      12961           0.0000000000
     88716     13362  TIP3      OH2             5.2102941665       12.9500667125      -29.0750893786  TIP3      12962           0.0000000000
     88717     13362  TIP3      H1              5.1754764518       13.8589665891      -29.4321871933  TIP3      12962           0.0000000000
     88718     13362  TIP3      H2              4.3251920993       12.8838499514      -28.6328719046  TIP3      12962           0.0000000000
     88719     13363  TIP3      OH2             1.2979378924       12.6016172080      -38.2814024231  TIP3      12963           0.0000000000
     88720     13363  TIP3      H1              1.0491807659       12.8872678623      -39.1790193156  TIP3      12963           0.0000000000
     88721     13363  TIP3      H2              1.3589116294       13.4572123775      -37.8017855983  TIP3      12963           0.0000000000
     88722     13364  TIP3      OH2            14.9305773297       14.2419784890      -31.5509129798  TIP3      12964           0.0000000000
     88723     13364  TIP3      H1             13.9649678884       14.3342330478      -31.4083688088  TIP3      12964           0.0000000000
     88724     13364  TIP3      H2             15.1973561048       15.1689275308      -31.7156025364  TIP3      12964           0.0000000000
     88725     13365  TIP3      OH2            15.2350739170        2.5365035615      -30.1426258958  TIP3      12965           0.0000000000
     88726     13365  TIP3      H1             14.4996694354        3.1598574460      -30.2036038213  TIP3      12965           0.0000000000
     88727     13365  TIP3      H2             15.9311935115        2.9587233896      -30.6766031365  TIP3      12965           0.0000000000
     88728     13366  TIP3      OH2             8.2301295883        0.6413644975      -32.6865355941  TIP3      12966           0.0000000000
     88729     13366  TIP3      H1              8.1015989190       -0.3247624268      -32.7423046643  TIP3      12966           0.0000000000
     88730     13366  TIP3      H2              7.3553798463        0.9537627156      -32.3855259783  TIP3      12966           0.0000000000
     88731     13367  TIP3      OH2            13.1741586009       16.0300774429      -34.9313471305  TIP3      12967           0.0000000000
     88732     13367  TIP3      H1             13.6118566070       15.3202164793      -35.4409721461  TIP3      12967           0.0000000000
     88733     13367  TIP3      H2             13.5407198585       16.8350610895      -35.3533789146  TIP3      12967           0.0000000000
     88734     13368  TIP3      OH2            14.3627284100       13.9551873409      -36.4359659220  TIP3      12968           0.0000000000
     88735     13368  TIP3      H1             14.0855795269       13.2491974359      -37.0444922671  TIP3      12968           0.0000000000
     88736     13368  TIP3      H2             14.4128738756       13.4769458088      -35.5870935878  TIP3      12968           0.0000000000
     88737     13369  TIP3      OH2            16.0172789727       12.5257908984      -27.9388347626  TIP3      12969           0.0000000000
     88738     13369  TIP3      H1             16.1614006523       11.9013123123      -28.6825084208  TIP3      12969           0.0000000000
     88739     13369  TIP3      H2             16.1995664889       13.3901896849      -28.3364172342  TIP3      12969           0.0000000000
     88740     13370  TIP3      OH2            10.4954994756        9.4555257485      -38.1639901126  TIP3      12970           0.0000000000
     88741     13370  TIP3      H1              9.7913036774       10.0103381344      -38.5491164303  TIP3      12970           0.0000000000
     88742     13370  TIP3      H2             11.1968012391        9.5243998586      -38.8395344808  TIP3      12970           0.0000000000
     88743     13371  TIP3      OH2            10.5556302645        7.9607029052      -41.1355532331  TIP3      12971           0.0000000000
     88744     13371  TIP3      H1             11.2649068887        7.9447276986      -40.4743148262  TIP3      12971           0.0000000000
     88745     13371  TIP3      H2             10.8607569252        7.2936188862      -41.7651732594  TIP3      12971           0.0000000000
     88746     13372  TIP3      OH2            17.8817800805        8.8430277703      -29.8805605405  TIP3      12972           0.0000000000
     88747     13372  TIP3      H1             17.2180918963        9.5590227464      -29.8188343224  TIP3      12972           0.0000000000
     88748     13372  TIP3      H2             18.3515569182        9.0743352807      -30.7017165893  TIP3      12972           0.0000000000
     88749     13373  TIP3      OH2            13.9234746835        9.6727733467      -37.2426135771  TIP3      12973           0.0000000000
     88750     13373  TIP3      H1             13.1775696062        9.9031827267      -36.6404580867  TIP3      12973           0.0000000000
     88751     13373  TIP3      H2             14.3796280892        8.9661287416      -36.7513829590  TIP3      12973           0.0000000000
     88752     13374  TIP3      OH2            13.8469440612        7.8238426536      -28.1450295319  TIP3      12974           0.0000000000
     88753     13374  TIP3      H1             13.8803559682        8.6238239358      -27.5869711973  TIP3      12974           0.0000000000
     88754     13374  TIP3      H2             13.2154394938        8.1311870851      -28.8334867231  TIP3      12974           0.0000000000
     88755     13375  TIP3      OH2             5.5546950986       10.3254677556      -35.3363702749  TIP3      12975           0.0000000000
     88756     13375  TIP3      H1              5.2269825521        9.9261040417      -36.1769127532  TIP3      12975           0.0000000000
     88757     13375  TIP3      H2              6.1595659920        9.6282456414      -34.9957351349  TIP3      12975           0.0000000000
     88758     13376  TIP3      OH2             6.8941381875       13.7305614197      -32.6566404118  TIP3      12976           0.0000000000
     88759     13376  TIP3      H1              6.8446721376       13.1596391467      -33.4339090186  TIP3      12976           0.0000000000
     88760     13376  TIP3      H2              7.6581120599       13.3518901349      -32.1842629180  TIP3      12976           0.0000000000
     88761     13377  TIP3      OH2             5.9016081862        9.0629523282      -31.6976543392  TIP3      12977           0.0000000000
     88762     13377  TIP3      H1              6.4741570821        9.1873623786      -32.4776649268  TIP3      12977           0.0000000000
     88763     13377  TIP3      H2              6.2538387434        9.7219733487      -31.0665265211  TIP3      12977           0.0000000000
     88764     13378  TIP3      OH2            12.2572319614       14.6128645247      -30.9868230061  TIP3      12978           0.0000000000
     88765     13378  TIP3      H1             11.9956869769       15.2469944410      -30.3181375694  TIP3      12978           0.0000000000
     88766     13378  TIP3      H2             12.0318335346       13.7532681914      -30.5459581906  TIP3      12978           0.0000000000
     88767     13379  TIP3      OH2             6.8241979095       13.4762095815      -26.9724404406  TIP3      12979           0.0000000000
     88768     13379  TIP3      H1              6.4617351986       14.2602483406      -26.5229387104  TIP3      12979           0.0000000000
     88769     13379  TIP3      H2              6.1493328330       13.3071613409      -27.6773767116  TIP3      12979           0.0000000000
     88770     13380  TIP3      OH2            12.7828916913        8.8408970541      -39.5649350089  TIP3      12980           0.0000000000
     88771     13380  TIP3      H1             13.3640794841        9.0030263632      -38.7785411007  TIP3      12980           0.0000000000
     88772     13380  TIP3      H2             13.2145431285        9.3340300396      -40.2741640131  TIP3      12980           0.0000000000
     88773     13381  TIP3      OH2             3.7483029879        9.6495516362      -27.7783603986  TIP3      12981           0.0000000000
     88774     13381  TIP3      H1              3.7936765831       10.3243907955      -27.0691056933  TIP3      12981           0.0000000000
     88775     13381  TIP3      H2              2.8326490789        9.7667583884      -28.0766480126  TIP3      12981           0.0000000000
     88776     13382  TIP3      OH2            10.5076404492       15.5633229539      -36.0984479172  TIP3      12982           0.0000000000
     88777     13382  TIP3      H1             10.9736083891       15.8859745735      -35.3217640721  TIP3      12982           0.0000000000
     88778     13382  TIP3      H2              9.9574248667       16.3209009611      -36.3509317632  TIP3      12982           0.0000000000
     88779     13383  TIP3      OH2             5.0618457513       15.5324374958      -26.2274884072  TIP3      12983           0.0000000000
     88780     13383  TIP3      H1              5.0350468524       15.4129386841      -27.1912488646  TIP3      12983           0.0000000000
     88781     13383  TIP3      H2              4.1216214284       15.4170214766      -25.9832257638  TIP3      12983           0.0000000000
     88782     13384  TIP3      OH2            16.5081674221        0.5805792566      -39.7133403995  TIP3      12984           0.0000000000
     88783     13384  TIP3      H1             15.5699921170        0.7186931303      -39.4341109566  TIP3      12984           0.0000000000
     88784     13384  TIP3      H2             16.7383874199        1.4309198829      -40.1217925107  TIP3      12984           0.0000000000
     88785     13385  TIP3      OH2             4.5476837402        9.3451884673      -37.7365954002  TIP3      12985           0.0000000000
     88786     13385  TIP3      H1              4.2511872966       10.1321660104      -38.2479248078  TIP3      12985           0.0000000000
     88787     13385  TIP3      H2              3.8612759787        8.7074224148      -37.9342554082  TIP3      12985           0.0000000000
     88788     13386  TIP3      OH2            17.6455927429       14.9297328082      -41.3320189953  TIP3      12986           0.0000000000
     88789     13386  TIP3      H1             17.7587933501       15.8899934222      -41.1882936288  TIP3      12986           0.0000000000
     88790     13386  TIP3      H2             18.5775966478       14.6534531745      -41.4019227539  TIP3      12986           0.0000000000
     88791     13387  TIP3      OH2             0.6298784944       11.7588482341      -28.8873372337  TIP3      12987           0.0000000000
     88792     13387  TIP3      H1              0.1463977672       11.6921172845      -29.7306153924  TIP3      12987           0.0000000000
     88793     13387  TIP3      H2              0.6580495082       10.8187781343      -28.6289717450  TIP3      12987           0.0000000000
     88794     13388  TIP3      OH2             0.3805244549       14.5052900497      -32.0531805754  TIP3      12988           0.0000000000
     88795     13388  TIP3      H1              1.3369589260       14.3803401381      -32.0704373625  TIP3      12988           0.0000000000
     88796     13388  TIP3      H2              0.2853746606       15.3097466257      -31.5257533269  TIP3      12988           0.0000000000
     88797     13389  TIP3      OH2            18.6070035795       15.1982110229      -26.3879298181  TIP3      12989           0.0000000000
     88798     13389  TIP3      H1             18.5141551140       14.2347899994      -26.3915964670  TIP3      12989           0.0000000000
     88799     13389  TIP3      H2             17.7466913807       15.4476428775      -25.9584242506  TIP3      12989           0.0000000000
     88800     13390  TIP3      OH2             9.5721983895       14.7466775563      -27.5110038128  TIP3      12990           0.0000000000
     88801     13390  TIP3      H1              9.6468339322       15.5899848006      -27.0058104470  TIP3      12990           0.0000000000
     88802     13390  TIP3      H2              8.6970542861       14.4117316641      -27.2440429435  TIP3      12990           0.0000000000
     88803     13391  TIP3      OH2            10.5151242143       18.4127196025      -37.8765655734  TIP3      12991           0.0000000000
     88804     13391  TIP3      H1              9.9126473177       18.3776298947      -38.6529870275  TIP3      12991           0.0000000000
     88805     13391  TIP3      H2             10.0855409295       19.2779637188      -37.5712626652  TIP3      12991           0.0000000000
     88806     13392  TIP3      OH2             3.6374071569       17.3521616529      -35.8932342037  TIP3      12992           0.0000000000
     88807     13392  TIP3      H1              3.7916037190       16.9589005928      -35.0118427232  TIP3      12992           0.0000000000
     88808     13392  TIP3      H2              2.7860930084       16.9575093580      -36.1393111459  TIP3      12992           0.0000000000
     88809     13393  TIP3      OH2            13.0501964559       17.6892156425      -40.7222251351  TIP3      12993           0.0000000000
     88810     13393  TIP3      H1             13.4863723318       16.9298657320      -41.1517971834  TIP3      12993           0.0000000000
     88811     13393  TIP3      H2             13.0852889901       17.4258411910      -39.7766118386  TIP3      12993           0.0000000000
     88812     13394  TIP3      OH2            12.8269905158       17.5959929519      -37.9551070872  TIP3      12994           0.0000000000
     88813     13394  TIP3      H1             11.8381185583       17.7174276206      -37.7762515573  TIP3      12994           0.0000000000
     88814     13394  TIP3      H2             13.0156803041       16.8848351334      -37.3497265976  TIP3      12994           0.0000000000
     88815     13395  TIP3      OH2            15.7645324891        6.6778128158      -25.9051447994  TIP3      12995           0.0000000000
     88816     13395  TIP3      H1             15.3055703213        7.1504602676      -26.6106036532  TIP3      12995           0.0000000000
     88817     13395  TIP3      H2             15.7680032875        5.7603423172      -26.1993677877  TIP3      12995           0.0000000000
     88818     13396  TIP3      OH2             2.8910672237       13.0763748396      -27.8995316603  TIP3      12996           0.0000000000
     88819     13396  TIP3      H1              3.1132538040       12.7025110072      -27.0182227889  TIP3      12996           0.0000000000
     88820     13396  TIP3      H2              2.0236798566       12.6793504570      -28.1067682407  TIP3      12996           0.0000000000
     88821     13397  TIP3      OH2             5.5481179705        1.5347797007      -31.9160419797  TIP3      12997           0.0000000000
     88822     13397  TIP3      H1              4.6456930820        1.4376524524      -32.2971426130  TIP3      12997           0.0000000000
     88823     13397  TIP3      H2              5.4653079501        2.3893371014      -31.4656996684  TIP3      12997           0.0000000000
     88824     13398  TIP3      OH2            10.1970348048        1.2461671973      -28.5487370031  TIP3      12998           0.0000000000
     88825     13398  TIP3      H1             10.5979913188        0.8232688497      -27.7681366127  TIP3      12998           0.0000000000
     88826     13398  TIP3      H2              9.2304791935        1.0837344524      -28.4122505877  TIP3      12998           0.0000000000
     88827     13399  TIP3      OH2            13.5023152182        5.0277456106      -27.6860081997  TIP3      12999           0.0000000000
     88828     13399  TIP3      H1             12.9710946322        4.8728555059      -26.8675497707  TIP3      12999           0.0000000000
     88829     13399  TIP3      H2             13.3380834420        5.9558391404      -27.9108554625  TIP3      12999           0.0000000000
     88830     13400  TIP3      OH2            14.3032724331        9.9591402471      -41.8420443536  TIP3      13000           0.0000000000
     88831     13400  TIP3      H1             14.3417445090        9.6726591783      -42.7813406456  TIP3      13000           0.0000000000
     88832     13400  TIP3      H2             15.1855665530       10.3056468849      -41.6872025405  TIP3      13000           0.0000000000
     88833     13401  TIP3      OH2             9.8404542683        3.7744224777      -41.2413353835  TIP3      13001           0.0000000000
     88834     13401  TIP3      H1              9.5707629055        3.7492348533      -40.3110781646  TIP3      13001           0.0000000000
     88835     13401  TIP3      H2              9.5831539669        2.8892423781      -41.5326368504  TIP3      13001           0.0000000000
     88836     13402  TIP3      OH2             5.6389602824        6.4985088043      -30.7562772752  TIP3      13002           0.0000000000
     88837     13402  TIP3      H1              4.9422566030        6.4776302383      -30.0738170313  TIP3      13002           0.0000000000
     88838     13402  TIP3      H2              5.6315135979        7.4361965938      -31.0508361152  TIP3      13002           0.0000000000
     88839     13403  TIP3      OH2             5.6232686775        6.6596647425      -35.8507837077  TIP3      13003           0.0000000000
     88840     13403  TIP3      H1              4.6826535777        6.3989170565      -35.9534973630  TIP3      13003           0.0000000000
     88841     13403  TIP3      H2              6.0348615794        6.3843181417      -36.6747311329  TIP3      13003           0.0000000000
     88842     13404  TIP3      OH2            11.1288594742        7.1222413140      -37.0710393756  TIP3      13004           0.0000000000
     88843     13404  TIP3      H1             10.7344667643        7.9676285358      -37.3800462555  TIP3      13004           0.0000000000
     88844     13404  TIP3      H2             11.8509107140        6.9928744573      -37.7124626422  TIP3      13004           0.0000000000
     88845     13405  TIP3      OH2            10.2292331432        7.3487766369      -25.5948137157  TIP3      13005           0.0000000000
     88846     13405  TIP3      H1              9.6794465501        6.5916762245      -25.2756395570  TIP3      13005           0.0000000000
     88847     13405  TIP3      H2             11.0595453237        7.2035770259      -25.1274133264  TIP3      13005           0.0000000000
     88848     13406  TIP3      OH2            12.1597033958        6.6067998735      -34.2265407542  TIP3      13006           0.0000000000
     88849     13406  TIP3      H1             11.9285506849        7.1868118543      -34.9718935198  TIP3      13006           0.0000000000
     88850     13406  TIP3      H2             12.3060078054        5.7596686895      -34.6958000769  TIP3      13006           0.0000000000
     88851     13407  TIP3      OH2             3.3291754721        6.8073435035      -28.9641844720  TIP3      13007           0.0000000000
     88852     13407  TIP3      H1              3.3313152868        7.2079439407      -28.0784772776  TIP3      13007           0.0000000000
     88853     13407  TIP3      H2              2.8540496041        5.9753233158      -28.8251816128  TIP3      13007           0.0000000000
     88854     13408  TIP3      OH2             6.8191584794        4.3736756541      -41.8848177639  TIP3      13008           0.0000000000
     88855     13408  TIP3      H1              6.2863356053        3.7459967947      -41.3764730389  TIP3      13008           0.0000000000
     88856     13408  TIP3      H2              6.1529753100        4.6468665300      -42.5408392063  TIP3      13008           0.0000000000
     88857     13409  TIP3      OH2            -0.0529888485        3.9240444635      -35.0601222132  TIP3      13009           0.0000000000
     88858     13409  TIP3      H1              0.6114231488        3.8849169381      -34.3453653718  TIP3      13009           0.0000000000
     88859     13409  TIP3      H2              0.4043769268        3.5038957080      -35.8116449352  TIP3      13009           0.0000000000
     88860     13410  TIP3      OH2             1.2602068684        4.6421422265      -39.6411898967  TIP3      13010           0.0000000000
     88861     13410  TIP3      H1              1.7106655900        5.2559555767      -40.2599758559  TIP3      13010           0.0000000000
     88862     13410  TIP3      H2              0.5333821939        5.2224295210      -39.3198058123  TIP3      13010           0.0000000000
     88863     13411  TIP3      OH2            11.3965527595        8.2298921265      -29.6137038078  TIP3      13011           0.0000000000
     88864     13411  TIP3      H1             11.7427761639        7.5628945268      -30.2357509152  TIP3      13011           0.0000000000
     88865     13411  TIP3      H2             10.9475534442        7.6839127712      -28.9446136424  TIP3      13011           0.0000000000
     88866     13412  TIP3      OH2             8.1689666865        4.1621020029      -34.8335273896  TIP3      13012           0.0000000000
     88867     13412  TIP3      H1              7.2550550398        4.2039607019      -34.4859533780  TIP3      13012           0.0000000000
     88868     13412  TIP3      H2              8.6829645572        4.0682195779      -34.0014090311  TIP3      13012           0.0000000000
     88869     13413  TIP3      OH2             3.0243793926        5.7647571494      -35.9746197948  TIP3      13013           0.0000000000
     88870     13413  TIP3      H1              2.1096780301        5.8904814507      -36.3212344273  TIP3      13013           0.0000000000
     88871     13413  TIP3      H2              3.2763954332        4.9105304651      -36.3375429578  TIP3      13013           0.0000000000
     88872     13414  TIP3      OH2             6.6660192462        5.8315779199      -38.3382252123  TIP3      13014           0.0000000000
     88873     13414  TIP3      H1              7.6245754721        5.9455329079      -38.1622108653  TIP3      13014           0.0000000000
     88874     13414  TIP3      H2              6.4326942624        6.4919089148      -39.0132744909  TIP3      13014           0.0000000000
     88875     13415  TIP3      OH2            12.5959969111        3.4027563725      -31.5564593973  TIP3      13015           0.0000000000
     88876     13415  TIP3      H1             11.9026384041        3.5017934441      -30.8692088549  TIP3      13015           0.0000000000
     88877     13415  TIP3      H2             12.0906930123        3.2083494234      -32.3571764833  TIP3      13015           0.0000000000
     88878     13416  TIP3      OH2             5.3422449989        6.9459910185      -40.7233150408  TIP3      13016           0.0000000000
     88879     13416  TIP3      H1              4.7861886307        6.6082616637      -41.4532934541  TIP3      13016           0.0000000000
     88880     13416  TIP3      H2              6.1635133749        7.1753707516      -41.1944213926  TIP3      13016           0.0000000000
     88881     13417  TIP3      OH2            15.8279873925       19.0582821606      -25.2380639447  TIP3      13017           0.0000000000
     88882     13417  TIP3      H1             16.0762178909       19.4682772745      -26.0889960002  TIP3      13017           0.0000000000
     88883     13417  TIP3      H2             16.5309585726       19.3948138375      -24.6554966938  TIP3      13017           0.0000000000
     88884     13418  TIP3      OH2             3.4807622801       11.5358237632      -25.6852863177  TIP3      13018           0.0000000000
     88885     13418  TIP3      H1              4.1933887636       11.7786004422      -25.0708174231  TIP3      13018           0.0000000000
     88886     13418  TIP3      H2              2.6918866707       11.6978479400      -25.1150343946  TIP3      13018           0.0000000000
     88887     13419  TIP3      OH2             9.4851338159        6.9453213822      -32.9186479773  TIP3      13019           0.0000000000
     88888     13419  TIP3      H1             10.0716858084        6.3993239575      -33.4563509803  TIP3      13019           0.0000000000
     88889     13419  TIP3      H2              9.3429720737        6.4062524621      -32.1300461025  TIP3      13019           0.0000000000
     88890     13420  TIP3      OH2             4.4727819215        3.0732341030      -36.4814162569  TIP3      13020           0.0000000000
     88891     13420  TIP3      H1              4.1452952855        2.1480553634      -36.5021162028  TIP3      13020           0.0000000000
     88892     13420  TIP3      H2              5.2165145750        2.9359511808      -37.0399430761  TIP3      13020           0.0000000000
     88893     13421  TIP3      OH2             8.1216465165        5.2964450108      -30.5111902287  TIP3      13021           0.0000000000
     88894     13421  TIP3      H1              7.2847934205        5.7881985035      -30.4009106215  TIP3      13021           0.0000000000
     88895     13421  TIP3      H2              8.6588545734        5.6150674333      -29.7582631720  TIP3      13021           0.0000000000
     88896     13422  TIP3      OH2             8.7008771232       11.5241616493      -38.8162354244  TIP3      13022           0.0000000000
     88897     13422  TIP3      H1              7.9130328802       11.0268659838      -39.1370508375  TIP3      13022           0.0000000000
     88898     13422  TIP3      H2              8.5113291266       11.5906242837      -37.8568767973  TIP3      13022           0.0000000000
     88899     13423  TIP3      OH2            15.8482668563       10.6752928536      -30.0120432927  TIP3      13023           0.0000000000
     88900     13423  TIP3      H1             16.4530247921       11.1494405159      -30.6065357101  TIP3      13023           0.0000000000
     88901     13423  TIP3      H2             14.9997042975       10.7743675845      -30.4937415867  TIP3      13023           0.0000000000
     88902     13424  TIP3      OH2            12.5711209303        4.3199108972      -40.6249911620  TIP3      13024           0.0000000000
     88903     13424  TIP3      H1             11.6214763300        4.4608854071      -40.7793949601  TIP3      13024           0.0000000000
     88904     13424  TIP3      H2             12.8624400987        5.1960872200      -40.3103221000  TIP3      13024           0.0000000000
     88905     13425  TIP3      OH2            10.1842510629       11.7378147222      -27.5854452363  TIP3      13025           0.0000000000
     88906     13425  TIP3      H1              9.8420590702       11.3422107660      -26.7768298238  TIP3      13025           0.0000000000
     88907     13425  TIP3      H2              9.9707678164       12.6700239881      -27.4931916360  TIP3      13025           0.0000000000
     88908     13426  TIP3      OH2            13.2760058978        6.2248426009      -38.9571218120  TIP3      13026           0.0000000000
     88909     13426  TIP3      H1             14.1825749388        6.0860164044      -38.6226843846  TIP3      13026           0.0000000000
     88910     13426  TIP3      H2             13.3509403399        7.0253936684      -39.4959939976  TIP3      13026           0.0000000000
     88911     13427  TIP3      OH2             3.7955709660       10.8610344678      -33.0288788842  TIP3      13027           0.0000000000
     88912     13427  TIP3      H1              4.5259178037       10.8189991891      -33.6751306293  TIP3      13027           0.0000000000
     88913     13427  TIP3      H2              3.8731573319       10.0113202222      -32.5631278512  TIP3      13027           0.0000000000
     88914     13428  TIP3      OH2            10.8095972972       12.9846143605      -39.8092060657  TIP3      13028           0.0000000000
     88915     13428  TIP3      H1             10.4770420154       13.8174346472      -39.4051268226  TIP3      13028           0.0000000000
     88916     13428  TIP3      H2             10.0722591674       12.3679691016      -39.5780187468  TIP3      13028           0.0000000000
     88917     13429  TIP3      OH2             0.7979225964        9.3050762489      -27.7432567640  TIP3      13029           0.0000000000
     88918     13429  TIP3      H1              1.0140100018        8.8636781051      -26.8986750766  TIP3      13029           0.0000000000
     88919     13429  TIP3      H2              0.1883892120        8.6761763496      -28.1679188001  TIP3      13029           0.0000000000
     88920     13430  TIP3      OH2             7.8221214528        8.8333820751      -25.5320475801  TIP3      13030           0.0000000000
     88921     13430  TIP3      H1              7.5150072015        8.6100017821      -26.4243292785  TIP3      13030           0.0000000000
     88922     13430  TIP3      H2              8.7618341388        8.5728724564      -25.5526060634  TIP3      13030           0.0000000000
     88923     13431  TIP3      OH2            12.4646003681       14.1813482984      -27.6341750217  TIP3      13031           0.0000000000
     88924     13431  TIP3      H1             11.5423174463       14.3710858055      -27.8787091755  TIP3      13031           0.0000000000
     88925     13431  TIP3      H2             12.4632479045       14.4603940158      -26.6950689693  TIP3      13031           0.0000000000
     88926     13432  TIP3      OH2            18.1748837003        6.3916732451      -39.2281657447  TIP3      13032           0.0000000000
     88927     13432  TIP3      H1             17.6104818670        6.0511646891      -39.9480414855  TIP3      13032           0.0000000000
     88928     13432  TIP3      H2             18.2575595875        7.3266781383      -39.5300514880  TIP3      13032           0.0000000000
     88929     13433  TIP3      OH2            18.1561301902       12.2182951539      -26.4096628700  TIP3      13033           0.0000000000
     88930     13433  TIP3      H1             17.2726530120       12.4578829912      -26.7872077479  TIP3      13033           0.0000000000
     88931     13433  TIP3      H2             18.7193362638       12.2023364649      -27.2025373384  TIP3      13033           0.0000000000
     88932     13434  TIP3      OH2            16.4655610562       15.2105006855      -38.8133380915  TIP3      13034           0.0000000000
     88933     13434  TIP3      H1             16.0907388289       14.3822579545      -38.4919075831  TIP3      13034           0.0000000000
     88934     13434  TIP3      H2             16.7531515214       15.0202278478      -39.7226888220  TIP3      13034           0.0000000000
     88935     13435  TIP3      OH2            13.6457251570       10.0281187308      -31.7520606690  TIP3      13035           0.0000000000
     88936     13435  TIP3      H1             12.7029044108        9.7928451699      -31.8198434464  TIP3      13035           0.0000000000
     88937     13435  TIP3      H2             14.0814107904        9.2434909452      -32.1303778679  TIP3      13035           0.0000000000
     88938     13436  TIP3      OH2             6.1758644653       14.3372848454      -35.6345807265  TIP3      13036           0.0000000000
     88939     13436  TIP3      H1              6.6893592176       15.1402664145      -35.8423751097  TIP3      13036           0.0000000000
     88940     13436  TIP3      H2              5.2969305277       14.5872590491      -35.9527311518  TIP3      13036           0.0000000000
     88941     13437  TIP3      OH2             1.9187647530        9.2031207416      -41.0750905362  TIP3      13037           0.0000000000
     88942     13437  TIP3      H1              2.5431867118        9.8365995758      -40.6773878830  TIP3      13037           0.0000000000
     88943     13437  TIP3      H2              1.0516010102        9.5159568869      -40.7763303843  TIP3      13037           0.0000000000
     88944     13438  TIP3      OH2             7.6109075688       12.0066494249      -36.0853479269  TIP3      13038           0.0000000000
     88945     13438  TIP3      H1              7.3265670828       12.9387918570      -36.0195329878  TIP3      13038           0.0000000000
     88946     13438  TIP3      H2              6.8575067843       11.5433271179      -35.6671982896  TIP3      13038           0.0000000000
     88947     13439  TIP3      OH2             8.0704183983       16.1754989400      -29.7342047131  TIP3      13039           0.0000000000
     88948     13439  TIP3      H1              8.4870989335       17.0145551432      -29.9876382216  TIP3      13039           0.0000000000
     88949     13439  TIP3      H2              8.6576656335       15.8660295676      -29.0198927333  TIP3      13039           0.0000000000
     88950     13440  TIP3      OH2             6.2684647662       16.9928937414      -36.5261927195  TIP3      13040           0.0000000000
     88951     13440  TIP3      H1              5.3116744743       17.1586901826      -36.4584972520  TIP3      13040           0.0000000000
     88952     13440  TIP3      H2              6.6440906503       17.8525371683      -36.2196005787  TIP3      13040           0.0000000000
     88953     13441  TIP3      OH2            11.6259036014       12.2391462919      -30.0663646252  TIP3      13041           0.0000000000
     88954     13441  TIP3      H1             11.2333731249       12.0224094216      -29.1991057525  TIP3      13041           0.0000000000
     88955     13441  TIP3      H2             12.2331458740       11.5047391538      -30.2402919239  TIP3      13041           0.0000000000
     88956     13442  TIP3      OH2            13.8480510192       13.1830330173      -41.0077265499  TIP3      13042           0.0000000000
     88957     13442  TIP3      H1             14.1992842531       12.8071937862      -40.1596443633  TIP3      13042           0.0000000000
     88958     13442  TIP3      H2             12.9022482585       13.0964207445      -40.8450658436  TIP3      13042           0.0000000000
     88959     13443  TIP3      OH2            14.3454616687       16.7989053892      -27.5744043749  TIP3      13043           0.0000000000
     88960     13443  TIP3      H1             13.7038436732       16.2685755895      -28.0826815722  TIP3      13043           0.0000000000
     88961     13443  TIP3      H2             14.5849030598       17.4828528197      -28.2336219734  TIP3      13043           0.0000000000
     88962     13444  TIP3      OH2            18.3722813535       17.6511765704      -40.7535407010  TIP3      13044           0.0000000000
     88963     13444  TIP3      H1             19.0974095486       18.2722142351      -40.9424955585  TIP3      13044           0.0000000000
     88964     13444  TIP3      H2             17.6593776601       18.2506193947      -40.4439282001  TIP3      13044           0.0000000000
     88965     13445  TIP3      OH2             2.4548463884        4.0534313515      -28.1838458965  TIP3      13045           0.0000000000
     88966     13445  TIP3      H1              1.5389404547        4.3825881170      -28.2418507807  TIP3      13045           0.0000000000
     88967     13445  TIP3      H2              2.3354649407        3.1869163807      -27.7573337715  TIP3      13045           0.0000000000
     88968     13446  TIP3      OH2            14.7047907821       11.8798294626      -38.7738620255  TIP3      13046           0.0000000000
     88969     13446  TIP3      H1             14.4524274488       11.1187837566      -38.2012675488  TIP3      13046           0.0000000000
     88970     13446  TIP3      H2             15.6478953433       11.9703346820      -38.5375618992  TIP3      13046           0.0000000000
     88971     13447  TIP3      OH2             2.0835532959       15.8452715142      -29.7607015008  TIP3      13047           0.0000000000
     88972     13447  TIP3      H1              2.3280403864       14.9054379181      -29.7658252223  TIP3      13047           0.0000000000
     88973     13447  TIP3      H2              2.3329875058       16.1144598282      -28.8676340753  TIP3      13047           0.0000000000
     88974     13448  TIP3      OH2             6.8587624679       13.8833779257      -40.0752892650  TIP3      13048           0.0000000000
     88975     13448  TIP3      H1              7.0482114928       13.3478719326      -39.2955420752  TIP3      13048           0.0000000000
     88976     13448  TIP3      H2              6.8858446228       14.8037436426      -39.7482858552  TIP3      13048           0.0000000000
     88977     13449  TIP3      OH2             3.3234606847       11.1219172480      -39.5853987176  TIP3      13049           0.0000000000
     88978     13449  TIP3      H1              2.6461011591       11.5050347529      -38.9929264152  TIP3      13049           0.0000000000
     88979     13449  TIP3      H2              3.8686869126       11.8931319446      -39.8167176120  TIP3      13049           0.0000000000
     88980     13450  TIP3      OH2            11.1718677395        3.8005937722      -29.2796854843  TIP3      13050           0.0000000000
     88981     13450  TIP3      H1             11.8787422029        3.8575760237      -28.6234988446  TIP3      13050           0.0000000000
     88982     13450  TIP3      H2             10.7912147327        2.9185549999      -29.0960904884  TIP3      13050           0.0000000000
     88983     13451  TIP3      OH2            11.9193240275        3.4193863708      -38.1613900094  TIP3      13051           0.0000000000
     88984     13451  TIP3      H1             12.1757463456        3.8906258632      -38.9849095091  TIP3      13051           0.0000000000
     88985     13451  TIP3      H2             12.5128442086        3.8277479976      -37.5198286804  TIP3      13051           0.0000000000
     88986     13452  TIP3      OH2             9.6204091409       15.5281668544      -39.3524177763  TIP3      13052           0.0000000000
     88987     13452  TIP3      H1              8.8102815188       16.0667032256      -39.2734375996  TIP3      13052           0.0000000000
     88988     13452  TIP3      H2             10.1531023511       16.0733374371      -39.9519701834  TIP3      13052           0.0000000000
     88989     13453  TIP3      OH2             9.1227835625        5.1494132338      -37.3448884092  TIP3      13053           0.0000000000
     88990     13453  TIP3      H1              9.9554067753        5.6845919225      -37.3185693785  TIP3      13053           0.0000000000
     88991     13453  TIP3      H2              8.9254089440        5.0221280321      -36.4074500857  TIP3      13053           0.0000000000
     88992     13454  TIP3      OH2             9.6937538670        6.1479384106      -28.1719792593  TIP3      13054           0.0000000000
     88993     13454  TIP3      H1              9.7969524566        6.7302837317      -27.3965504723  TIP3      13054           0.0000000000
     88994     13454  TIP3      H2             10.3591753189        5.4589376930      -28.0556389176  TIP3      13054           0.0000000000
     88995     13455  TIP3      OH2            10.0092545894        2.2186850880      -36.4416734128  TIP3      13055           0.0000000000
     88996     13455  TIP3      H1              9.7073921708        2.8566789048      -35.7732673217  TIP3      13055           0.0000000000
     88997     13455  TIP3      H2             10.7123749473        2.7495837301      -36.8967718095  TIP3      13055           0.0000000000
     88998     13456  TIP3      OH2             6.9539366618       16.5832966222      -39.3423981767  TIP3      13056           0.0000000000
     88999     13456  TIP3      H1              7.1422541951       17.4205428200      -39.8232953257  TIP3      13056           0.0000000000
     89000     13456  TIP3      H2              6.7659398867       16.9368986853      -38.4410077681  TIP3      13056           0.0000000000
     89001     13457  TIP3      OH2             5.6774816013        3.2841502552      -39.6695589297  TIP3      13057           0.0000000000
     89002     13457  TIP3      H1              5.6064108697        4.2241723868      -39.4265746350  TIP3      13057           0.0000000000
     89003     13457  TIP3      H2              6.6075703094        3.0407629156      -39.5104908976  TIP3      13057           0.0000000000
     89004     13458  TIP3      OH2            15.9060601305        4.0372970096      -27.3120786884  TIP3      13058           0.0000000000
     89005     13458  TIP3      H1             14.9672239123        4.3293165739      -27.4282283865  TIP3      13058           0.0000000000
     89006     13458  TIP3      H2             16.2091929892        4.0408802899      -28.2316572602  TIP3      13058           0.0000000000
     89007     13459  TIP3      OH2            14.4970239254        7.8181957597      -33.2604033430  TIP3      13059           0.0000000000
     89008     13459  TIP3      H1             13.6844297199        7.3813489019      -33.5672907721  TIP3      13059           0.0000000000
     89009     13459  TIP3      H2             14.9591981159        7.1152791546      -32.7512036456  TIP3      13059           0.0000000000
     89010     13460  TIP3      OH2             3.9285948087       13.7371986182      -40.6757345010  TIP3      13060           0.0000000000
     89011     13460  TIP3      H1              4.5539330615       14.4128235123      -40.3908409242  TIP3      13060           0.0000000000
     89012     13460  TIP3      H2              4.4260569102       13.2899158109      -41.3861818482  TIP3      13060           0.0000000000
     89013     13461  TIP3      OH2             2.2847556381        6.4030623714      -41.5245375353  TIP3      13061           0.0000000000
     89014     13461  TIP3      H1              2.2384844988        7.3624141629      -41.3767310172  TIP3      13061           0.0000000000
     89015     13461  TIP3      H2              1.3976656920        6.1818745645      -41.8371088682  TIP3      13061           0.0000000000
     89016     13462  TIP3      OH2            15.5667460866       17.0565872351      -31.6101079157  TIP3      13062           0.0000000000
     89017     13462  TIP3      H1             15.4486438253       17.7505519493      -32.2888664574  TIP3      13062           0.0000000000
     89018     13462  TIP3      H2             16.5274124730       17.1356621044      -31.4260116316  TIP3      13062           0.0000000000
     89019     13463  TIP3      OH2             3.0750024278        1.1934837550      -32.8470338662  TIP3      13063           0.0000000000
     89020     13463  TIP3      H1              2.8429494114        1.2249686581      -33.7989559653  TIP3      13063           0.0000000000
     89021     13463  TIP3      H2              2.6331399678        0.3671076064      -32.5691022471  TIP3      13063           0.0000000000
     89022     13464  TIP3      OH2             2.0156265917       15.1123324937      -36.6968067502  TIP3      13064           0.0000000000
     89023     13464  TIP3      H1              1.1722610022       15.5891170448      -36.7015728698  TIP3      13064           0.0000000000
     89024     13464  TIP3      H2              2.5307629984       15.6169711643      -37.3393127146  TIP3      13064           0.0000000000
     89025     13465  TIP3      OH2             1.2717984267       17.7517706567      -25.3882136712  TIP3      13065           0.0000000000
     89026     13465  TIP3      H1              1.8434483462       17.5283274356      -24.6315254073  TIP3      13065           0.0000000000
     89027     13465  TIP3      H2              0.8124368671       16.9162060000      -25.5732406742  TIP3      13065           0.0000000000
     89028     13466  TIP3      OH2             5.8925340082       16.6566940377      -23.7306161078  TIP3      13066           0.0000000000
     89029     13466  TIP3      H1              6.6781773107       16.1836170563      -23.4879250134  TIP3      13066           0.0000000000
     89030     13466  TIP3      H2              5.8566471969       16.4317749397      -24.6951263315  TIP3      13066           0.0000000000
     89031     13467  TIP3      OH2            10.3264187612       16.2978988388      -41.8941107728  TIP3      13067           0.0000000000
     89032     13467  TIP3      H1              9.5093475778       15.7359433047      -41.9641788854  TIP3      13067           0.0000000000
     89033     13467  TIP3      H2             10.7788608100       15.7582908832      -42.5287891481  TIP3      13067           0.0000000000
     89034     13468  TIP3      OH2            12.4432295216       15.0562892946      -25.0469891404  TIP3      13068           0.0000000000
     89035     13468  TIP3      H1             12.1124774631       14.1744283146      -24.7777687555  TIP3      13068           0.0000000000
     89036     13468  TIP3      H2             13.1926346452       15.1734081547      -24.4379235141  TIP3      13068           0.0000000000
     89037     13469  TIP3      OH2            14.5789848363       15.9571371729      -42.1849197470  TIP3      13069           0.0000000000
     89038     13469  TIP3      H1             14.8858713348       15.1802464218      -41.6885858192  TIP3      13069           0.0000000000
     89039     13469  TIP3      H2             15.3537408884       16.2088318742      -42.7118216431  TIP3      13069           0.0000000000
     89040     13470  TIP3      OH2             1.1861314723       11.5512753351      -24.4128869651  TIP3      13070           0.0000000000
     89041     13470  TIP3      H1              1.3309124407       10.6338919648      -24.7163014150  TIP3      13070           0.0000000000
     89042     13470  TIP3      H2              0.4137812868       11.8099253907      -24.9367864905  TIP3      13070           0.0000000000
     89043     13471  TIP3      OH2             5.5650901932       11.9376233739      -42.2613683133  TIP3      13071           0.0000000000
     89044     13471  TIP3      H1              5.6158415715       11.1041245900      -41.7778653964  TIP3      13071           0.0000000000
     89045     13471  TIP3      H2              6.1752996411       11.7450525815      -42.9985942368  TIP3      13071           0.0000000000
     89046     13472  TIP3      OH2             7.8595747329       11.5272182986      -24.9903088595  TIP3      13072           0.0000000000
     89047     13472  TIP3      H1              7.5209032482       11.8074124273      -25.8622254888  TIP3      13072           0.0000000000
     89048     13472  TIP3      H2              7.9760230141       10.5563730776      -25.0965329254  TIP3      13072           0.0000000000
     89049     13473  TIP3      OH2            13.5698858232       11.4073557552      -27.6241620808  TIP3      13073           0.0000000000
     89050     13473  TIP3      H1             14.3400527433       12.0104187658      -27.7142568671  TIP3      13073           0.0000000000
     89051     13473  TIP3      H2             12.8398604986       12.0357591213      -27.5655063162  TIP3      13073           0.0000000000
     89052     13474  TIP3      OH2             2.0433671821        8.7588336110      -25.0119435505  TIP3      13074           0.0000000000
     89053     13474  TIP3      H1              2.4495396546        7.8955261920      -25.1180397134  TIP3      13074           0.0000000000
     89054     13474  TIP3      H2              1.7786508360        8.7513781761      -24.0798772148  TIP3      13074           0.0000000000
     89055     13475  TIP3      OH2             6.6927907717        9.9044167571      -39.9835517749  TIP3      13075           0.0000000000
     89056     13475  TIP3      H1              6.2169652396        9.3838934347      -39.3168039548  TIP3      13075           0.0000000000
     89057     13475  TIP3      H2              6.9737695634        9.2036002500      -40.6197914625  TIP3      13075           0.0000000000
     89058     13476  TIP3      OH2             5.9724204068        7.7316404566      -27.6389060126  TIP3      13076           0.0000000000
     89059     13476  TIP3      H1              5.3586728171        8.4375103383      -27.3721867667  TIP3      13076           0.0000000000
     89060     13476  TIP3      H2              6.3330273563        8.0817935105      -28.4711379627  TIP3      13076           0.0000000000
     89061     13477  TIP3      OH2             7.7561471357        8.1160748038      -41.7351678964  TIP3      13077           0.0000000000
     89062     13477  TIP3      H1              7.6103944346        7.9503106847      -42.6742526474  TIP3      13077           0.0000000000
     89063     13477  TIP3      H2              8.7330017732        8.2088620476      -41.6682098898  TIP3      13077           0.0000000000
     89064     13478  TIP3      OH2            11.0102505984       10.2562284455      -24.3227416827  TIP3      13078           0.0000000000
     89065     13478  TIP3      H1             11.9745756727       10.2913127761      -24.4154728856  TIP3      13078           0.0000000000
     89066     13478  TIP3      H2             10.8558458461        9.5127728416      -23.7333911665  TIP3      13078           0.0000000000
     89067     13479  TIP3      OH2            17.0130971426       10.5295784401       42.7693917978  TIP3      13079           0.0000000000
     89068     13479  TIP3      H1             16.8824448824       10.0494171333       41.9292060263  TIP3      13079           0.0000000000
     89069     13479  TIP3      H2             17.1992687580       11.4346116664       42.4972921777  TIP3      13079           0.0000000000
     89070     13480  TIP3      OH2             6.3362701591        5.1046780516      -26.5589312939  TIP3      13080           0.0000000000
     89071     13480  TIP3      H1              6.4679745237        4.3778269731      -27.1897140642  TIP3      13080           0.0000000000
     89072     13480  TIP3      H2              6.3226331236        5.8980242291      -27.1316123147  TIP3      13080           0.0000000000
     89073     13481  TIP3      OH2             6.7491433231        3.4739470478      -29.0462970274  TIP3      13081           0.0000000000
     89074     13481  TIP3      H1              7.2740264387        3.9357449344      -29.7394669455  TIP3      13081           0.0000000000
     89075     13481  TIP3      H2              5.8681655004        3.3797314766      -29.4769224598  TIP3      13081           0.0000000000
     89076     13482  TIP3      OH2             8.3100577984        8.9276709781      -28.8070946239  TIP3      13082           0.0000000000
     89077     13482  TIP3      H1              9.0631678742        8.7730454157      -29.3895579916  TIP3      13082           0.0000000000
     89078     13482  TIP3      H2              7.9626669993        9.7812587842      -29.1127296257  TIP3      13082           0.0000000000
     89079     13483  TIP3      OH2            14.0139115442        9.5038002137      -25.7122839277  TIP3      13083           0.0000000000
     89080     13483  TIP3      H1             13.7845387693       10.2437362647      -26.3021550097  TIP3      13083           0.0000000000
     89081     13483  TIP3      H2             14.9824356918        9.4662935425      -25.8599548897  TIP3      13083           0.0000000000
     89082     13484  TIP3      OH2             4.8049284019        6.3173877944      -24.6380556028  TIP3      13084           0.0000000000
     89083     13484  TIP3      H1              4.0369256038        5.7608061949      -24.8653729014  TIP3      13084           0.0000000000
     89084     13484  TIP3      H2              5.4745044926        5.9859453031      -25.2676530672  TIP3      13084           0.0000000000
     89085     13485  TIP3      OH2             7.5476682741        0.9144728390      -28.6246251866  TIP3      13085           0.0000000000
     89086     13485  TIP3      H1              7.4121843254        1.8837492806      -28.7415112779  TIP3      13085           0.0000000000
     89087     13485  TIP3      H2              6.7919226510        0.5592253428      -29.1272513306  TIP3      13085           0.0000000000
     89088     13486  TIP3      OH2             8.8212651459        5.2442662609      -25.0535046072  TIP3      13086           0.0000000000
     89089     13486  TIP3      H1              8.5410867205        5.0210209466      -24.1465141551  TIP3      13086           0.0000000000
     89090     13486  TIP3      H2              8.0140402752        5.0393828003      -25.5690259723  TIP3      13086           0.0000000000
     89091     13487  TIP3      OH2            11.5278643363        4.3710837982      -25.9975012243  TIP3      13087           0.0000000000
     89092     13487  TIP3      H1             10.5686829299        4.4201650002      -25.8400048864  TIP3      13087           0.0000000000
     89093     13487  TIP3      H2             11.8253444751        3.7555829614      -25.3083830762  TIP3      13087           0.0000000000
     89094     13488  TIP3      OH2            13.1577449985        3.0156252146      -23.9849665464  TIP3      13088           0.0000000000
     89095     13488  TIP3      H1             13.0503050481        2.0425497599      -24.0025646565  TIP3      13088           0.0000000000
     89096     13488  TIP3      H2             12.8175694039        3.2805631203      -23.1266320863  TIP3      13088           0.0000000000
     89097     13489  TIP3      OH2             2.9496192756        4.2655470169      -24.9241886888  TIP3      13089           0.0000000000
     89098     13489  TIP3      H1              3.1768489547        3.5332081226      -25.5394849601  TIP3      13089           0.0000000000
     89099     13489  TIP3      H2              2.8525904530        3.7744091677      -24.0848603038  TIP3      13089           0.0000000000
     89100     13490  TIP3      OH2             7.7552263099        0.2588901807      -25.9537516317  TIP3      13090           0.0000000000
     89101     13490  TIP3      H1              8.4679681392       -0.4128947229      -25.9848121038  TIP3      13090           0.0000000000
     89102     13490  TIP3      H2              7.6601840315        0.4753969764      -26.8979250322  TIP3      13090           0.0000000000
     89103     13491  TIP3      OH2             8.1291852873        1.9189058119      -23.8811492198  TIP3      13091           0.0000000000
     89104     13491  TIP3      H1              7.9731372422        1.4184903514      -24.7075065718  TIP3      13091           0.0000000000
     89105     13491  TIP3      H2              7.5188876695        2.6672400708      -23.9530359103  TIP3      13091           0.0000000000
     89106     13492  TIP3      OH2             7.6310664093       18.7838280445      -40.7658183921  TIP3      13092           0.0000000000
     89107     13492  TIP3      H1              8.5840099702       18.9489830115      -40.5684021627  TIP3      13092           0.0000000000
     89108     13492  TIP3      H2              7.4124718116       19.4877307397      -41.3649818970  TIP3      13092           0.0000000000
     89109     13493  TIP3      OH2             1.1958581002       13.4275509804      -41.2232228320  TIP3      13093           0.0000000000
     89110     13493  TIP3      H1              2.1491453947       13.5072864275      -40.9789638395  TIP3      13093           0.0000000000
     89111     13493  TIP3      H2              1.2285325738       12.7712988861      -41.9265642262  TIP3      13093           0.0000000000
     89112     13494  TIP3      OH2            -0.0882626469       18.8131361712      -36.2035626545  TIP3      13094           0.0000000000
     89113     13494  TIP3      H1             -0.7792691316       18.3311848884      -36.7040502752  TIP3      13094           0.0000000000
     89114     13494  TIP3      H2              0.2232919418       18.1395878243      -35.5758501599  TIP3      13094           0.0000000000
     89115     13495  TIP3      OH2             0.7520274170       16.9133429280      -34.3718954775  TIP3      13095           0.0000000000
     89116     13495  TIP3      H1              0.4088205013       16.0285578613      -34.1788675965  TIP3      13095           0.0000000000
     89117     13495  TIP3      H2              0.9770117870       17.2482469671      -33.4850804552  TIP3      13095           0.0000000000
     89118     13496  TIP3      OH2            18.2874970771       17.7108386695      -31.4060540024  TIP3      13096           0.0000000000
     89119     13496  TIP3      H1             18.2951987257       17.8945510555      -30.4507536271  TIP3      13096           0.0000000000
     89120     13496  TIP3      H2             18.9912698940       18.2894822571      -31.7226315909  TIP3      13096           0.0000000000
     89121     13497  TIP3      OH2            17.8697361787       17.3100929137      -28.4737200106  TIP3      13097           0.0000000000
     89122     13497  TIP3      H1             17.3790365591       16.5388956715      -28.8367754940  TIP3      13097           0.0000000000
     89123     13497  TIP3      H2             18.3915259727       16.8748297026      -27.7800306222  TIP3      13097           0.0000000000
     89124     13498  TIP3      OH2            16.3113373012       13.0567650721      -23.8441135325  TIP3      13098           0.0000000000
     89125     13498  TIP3      H1             15.4379364566       12.9771632704      -23.4185000219  TIP3      13098           0.0000000000
     89126     13498  TIP3      H2             16.6867265085       13.8348283505      -23.3618015933  TIP3      13098           0.0000000000
     89127     13499  TIP3      OH2            17.6159127097       11.3458114601      -38.3467658681  TIP3      13099           0.0000000000
     89128     13499  TIP3      H1             18.4746134966       11.7551292881      -38.1708658146  TIP3      13099           0.0000000000
     89129     13499  TIP3      H2             17.6168112624       10.6055252367      -37.6959200726  TIP3      13099           0.0000000000
     89130     13500  TIP3      OH2            17.9941611093        9.4123266135      -36.4976704034  TIP3      13100           0.0000000000
     89131     13500  TIP3      H1             17.2562351762        8.9067379902      -36.0924111686  TIP3      13100           0.0000000000
     89132     13500  TIP3      H2             18.5903129507        9.5818850466      -35.7395720122  TIP3      13100           0.0000000000
     89133     13501  TIP3      OH2            17.7474030683       12.1445972054      -31.5192380139  TIP3      13101           0.0000000000
     89134     13501  TIP3      H1             18.5885491843       11.7793629426      -31.8502322921  TIP3      13101           0.0000000000
     89135     13501  TIP3      H2             17.8848221704       13.1056383939      -31.6675801582  TIP3      13101           0.0000000000
     89136     13502  TIP3      OH2            16.2829606538       15.0411750037      -29.2328781080  TIP3      13102           0.0000000000
     89137     13502  TIP3      H1             15.6019670646       15.3732693688      -28.6228218846  TIP3      13102           0.0000000000
     89138     13502  TIP3      H2             15.7343407345       14.6152806355      -29.9255501151  TIP3      13102           0.0000000000
     89139     13503  TIP3      OH2            18.2810215853        9.2629227973      -40.1033645058  TIP3      13103           0.0000000000
     89140     13503  TIP3      H1             17.7278984612        9.6374408556      -40.8145523996  TIP3      13103           0.0000000000
     89141     13503  TIP3      H2             18.2260053113        9.9634965167      -39.4259961315  TIP3      13103           0.0000000000
     89142     13504  TIP3      OH2            16.3951762867        6.5348497457      -41.4712167098  TIP3      13104           0.0000000000
     89143     13504  TIP3      H1             16.7248762815        7.1416889322      -42.1623695974  TIP3      13104           0.0000000000
     89144     13504  TIP3      H2             16.4823901475        5.7065304201      -41.9895157595  TIP3      13104           0.0000000000
     89145     13505  TIP3      OH2            15.8001458676        7.9098789371      -35.9304731986  TIP3      13105           0.0000000000
     89146     13505  TIP3      H1             15.6459200011        6.9536759214      -35.9471421239  TIP3      13105           0.0000000000
     89147     13505  TIP3      H2             15.4481982553        8.1630418154      -35.0616541652  TIP3      13105           0.0000000000
     89148     13506  TIP3      OH2             0.8118316713        9.9915574943      -31.8851435370  TIP3      13106           0.0000000000
     89149     13506  TIP3      H1              1.0103445865        9.9056351526      -32.8440101298  TIP3      13106           0.0000000000
     89150     13506  TIP3      H2              1.6966220628        9.8422988921      -31.4996182956  TIP3      13106           0.0000000000
     89151     13507  TIP3      OH2            16.6495947073        9.8690895218      -26.2759913856  TIP3      13107           0.0000000000
     89152     13507  TIP3      H1             17.2544750212        9.1242913285      -26.0790459161  TIP3      13107           0.0000000000
     89153     13507  TIP3      H2             17.2339455041       10.6511876300      -26.2277428978  TIP3      13107           0.0000000000
     89154     13508  TIP3      OH2            18.1616268143        7.7812816737      -25.5996340362  TIP3      13108           0.0000000000
     89155     13508  TIP3      H1             17.2762865069        7.3802153184      -25.7427067264  TIP3      13108           0.0000000000
     89156     13508  TIP3      H2             18.7417961659        7.0117849362      -25.6665086142  TIP3      13108           0.0000000000
     89157     13509  TIP3      OH2            15.8828529968        3.9253169777      -42.4507781703  TIP3      13109           0.0000000000
     89158     13509  TIP3      H1             16.4855512159        3.5327756749      -41.7929751509  TIP3      13109           0.0000000000
     89159     13509  TIP3      H2             15.0223723494        3.5274042381      -42.2441646103  TIP3      13109           0.0000000000
     89160     13510  TIP3      OH2            15.4824291143        5.4971545084      -37.4549037805  TIP3      13110           0.0000000000
     89161     13510  TIP3      H1             15.7877878180        4.5680114268      -37.3379160781  TIP3      13110           0.0000000000
     89162     13510  TIP3      H2             16.2645746333        5.9074253438      -37.8487658044  TIP3      13110           0.0000000000
     89163     13511  TIP3      OH2            16.1041806441        6.0422406147      -32.0289425778  TIP3      13111           0.0000000000
     89164     13511  TIP3      H1             17.0611967682        6.2795047859      -32.0472082242  TIP3      13111           0.0000000000
     89165     13511  TIP3      H2             15.8994110924        6.1773989316      -31.0903356882  TIP3      13111           0.0000000000
     89166     13512  TIP3      OH2            16.1642682025        6.7716048949      -29.2458327882  TIP3      13112           0.0000000000
     89167     13512  TIP3      H1             15.2960086813        7.0681850076      -28.8926615044  TIP3      13112           0.0000000000
     89168     13512  TIP3      H2             16.5983518353        7.6315226823      -29.4626583336  TIP3      13112           0.0000000000
     89169     13513  TIP3      OH2             0.4209419271        5.2775320060      -25.7539836647  TIP3      13113           0.0000000000
     89170     13513  TIP3      H1              1.3551458735        5.1047812350      -25.5352668338  TIP3      13113           0.0000000000
     89171     13513  TIP3      H2             -0.0277693967        4.4792247523      -25.3907972012  TIP3      13113           0.0000000000
     89172     13514  TIP3      OH2            18.4225522940        0.7814237099      -23.8934443200  TIP3      13114           0.0000000000
     89173     13514  TIP3      H1             18.7896215741        0.1342555662      -24.5107887754  TIP3      13114           0.0000000000
     89174     13514  TIP3      H2             18.5692979500        1.6236893771      -24.3629190726  TIP3      13114           0.0000000000
     89175     13515  TIP3      OH2            16.1288289189        2.7691548516      -37.4142310586  TIP3      13115           0.0000000000
     89176     13515  TIP3      H1             16.3203049245        2.3095514226      -36.5737920119  TIP3      13115           0.0000000000
     89177     13515  TIP3      H2             15.5188226323        2.1506816672      -37.8757166636  TIP3      13115           0.0000000000
     89178     13516  TIP3      OH2             1.6299539412        3.5756614993      -32.8778191850  TIP3      13116           0.0000000000
     89179     13516  TIP3      H1              2.0945394608        2.7655032668      -32.5849855364  TIP3      13116           0.0000000000
     89180     13516  TIP3      H2              2.1359684805        4.2836834151      -32.4565965610  TIP3      13116           0.0000000000
     89181     13517  TIP3      OH2            -0.0789049943        6.5642405803      -31.8108106325  TIP3      13117           0.0000000000
     89182     13517  TIP3      H1              0.4631293361        6.3456716688      -32.5980852843  TIP3      13117           0.0000000000
     89183     13517  TIP3      H2              0.3399621804        7.3975622559      -31.5441336696  TIP3      13117           0.0000000000
     89184     13518  TIP3      OH2            17.9697512085        2.9014125441      -25.5315429072  TIP3      13118           0.0000000000
     89185     13518  TIP3      H1             17.0301289994        3.1704740679      -25.5970079031  TIP3      13118           0.0000000000
     89186     13518  TIP3      H2             18.0455608304        2.3669159313      -26.3357538927  TIP3      13118           0.0000000000
     89187     13519  TIP3      OH2            17.9621818843        2.8213202811      -40.8605361356  TIP3      13119           0.0000000000
     89188     13519  TIP3      H1             18.3993239366        2.1087700282      -41.3588505722  TIP3      13119           0.0000000000
     89189     13519  TIP3      H2             18.6770818392        3.4853506945      -40.8340053926  TIP3      13119           0.0000000000
     89190     13520  TIP3      OH2             0.2719673201        2.8286667712      -37.7556644198  TIP3      13120           0.0000000000
     89191     13520  TIP3      H1             -0.6666191217        3.0337417352      -37.8883456573  TIP3      13120           0.0000000000
     89192     13520  TIP3      H2              0.7017397497        3.3232095503      -38.4694712754  TIP3      13120           0.0000000000
     89193     13521  TIP3      OH2            15.0167339019       17.7955793921      -35.8018923852  TIP3      13121           0.0000000000
     89194     13521  TIP3      H1             15.6942733328       17.4700999687      -36.4218478756  TIP3      13121           0.0000000000
     89195     13521  TIP3      H2             15.5398589872       18.2964435282      -35.1618555765  TIP3      13121           0.0000000000
     89196     13522  TIP3      OH2             0.2357122500        1.5343453047      -29.4297247757  TIP3      13122           0.0000000000
     89197     13522  TIP3      H1             -0.4430178764        1.3144625490      -28.7677246864  TIP3      13122           0.0000000000
     89198     13522  TIP3      H2             -0.2283060388        2.1886739090      -29.9913661148  TIP3      13122           0.0000000000
     89199     13523  TIP3      OH2             2.4408188465       14.7274845555      -25.2755157813  TIP3      13123           0.0000000000
     89200     13523  TIP3      H1              1.5985859709       14.9090930468      -25.7226305519  TIP3      13123           0.0000000000
     89201     13523  TIP3      H2              2.1680221286       14.6563889741      -24.3556396988  TIP3      13123           0.0000000000
     89202     13524  TIP3      OH2             5.3619586573       15.6968908546      -29.0063427910  TIP3      13124           0.0000000000
     89203     13524  TIP3      H1              4.9824129244       16.5388988914      -29.2937585360  TIP3      13124           0.0000000000
     89204     13524  TIP3      H2              6.2859319074       15.8017773621      -29.3188400428  TIP3      13124           0.0000000000
     89205     13525  TIP3      OH2             9.6839797596       17.1129776108      -26.0855428662  TIP3      13125           0.0000000000
     89206     13525  TIP3      H1              9.8690181015       16.7818306006      -25.1748816906  TIP3      13125           0.0000000000
     89207     13525  TIP3      H2             10.5650457105       17.4269601470      -26.3649882802  TIP3      13125           0.0000000000
     89208     13526  TIP3      OH2            11.9943034215       18.3986021933      -26.8138191423  TIP3      13126           0.0000000000
     89209     13526  TIP3      H1             12.7107214734       17.7792657263      -27.0375842163  TIP3      13126           0.0000000000
     89210     13526  TIP3      H2             12.3556675463       18.8020027111      -25.9902423687  TIP3      13126           0.0000000000
     89211     13527  TIP3      OH2            16.9711448545        1.0031361047      -27.7051925030  TIP3      13127           0.0000000000
     89212     13527  TIP3      H1             16.1409801766        1.3054134618      -28.1184167190  TIP3      13127           0.0000000000
     89213     13527  TIP3      H2             17.1681147485        0.2077679309      -28.2500768980  TIP3      13127           0.0000000000
     89214     13528  TIP3      OH2             2.7884359261       18.9520428103      -28.9846056499  TIP3      13128           0.0000000000
     89215     13528  TIP3      H1              2.0531138730       19.4227985967      -29.4117941147  TIP3      13128           0.0000000000
     89216     13528  TIP3      H2              2.4344651396       18.7300418726      -28.1103069982  TIP3      13128           0.0000000000
     89217     13529  TIP3      OH2             5.2576821166       18.5366862617      -29.9240619527  TIP3      13129           0.0000000000
     89218     13529  TIP3      H1              4.3614840192       18.6510582831      -29.5307689344  TIP3      13129           0.0000000000
     89219     13529  TIP3      H2              5.1884468841       19.1148098512      -30.7149113411  TIP3      13129           0.0000000000
     89220     13530  TIP3      OH2             9.9585243181       18.4378277637      -30.7643019881  TIP3      13130           0.0000000000
     89221     13530  TIP3      H1              9.4942948871       18.9869413083      -31.4199242363  TIP3      13130           0.0000000000
     89222     13530  TIP3      H2             10.1088310229       19.0694769671      -30.0304507386  TIP3      13130           0.0000000000
     89223     13531  TIP3      OH2            12.2775197314       17.2897014611      -29.7885736337  TIP3      13131           0.0000000000
     89224     13531  TIP3      H1             11.3837857556       17.5123527125      -30.0941153280  TIP3      13131           0.0000000000
     89225     13531  TIP3      H2             12.7156236508       18.1552112061      -29.8694886270  TIP3      13131           0.0000000000
     89226     13532  TIP3      OH2            14.8643613909       18.8573942342      -29.5063321769  TIP3      13132           0.0000000000
     89227     13532  TIP3      H1             14.7302076839       19.8101980716      -29.7410948306  TIP3      13132           0.0000000000
     89228     13532  TIP3      H2             15.0572630421       18.4790637060      -30.3838119208  TIP3      13132           0.0000000000
     89229     13533  TIP3      OH2             2.2064914989       17.5989044679      -32.0670792643  TIP3      13133           0.0000000000
     89230     13533  TIP3      H1              2.1659110055       17.1492921630      -31.1947650433  TIP3      13133           0.0000000000
     89231     13533  TIP3      H2              3.0275026167       17.2483030160      -32.4652660157  TIP3      13133           0.0000000000
     89232     13534  TIP3      OH2             4.3185942406       16.3108067153      -33.4165613198  TIP3      13134           0.0000000000
     89233     13534  TIP3      H1              4.1328321336       15.3778291195      -33.2132154750  TIP3      13134           0.0000000000
     89234     13534  TIP3      H2              5.1692989230       16.4435201920      -32.9409163728  TIP3      13134           0.0000000000
     89235     13535  TIP3      OH2             6.8832653871       16.7812390707      -32.5415050811  TIP3      13135           0.0000000000
     89236     13535  TIP3      H1              7.0878223889       15.8751963407      -32.8277852144  TIP3      13135           0.0000000000
     89237     13535  TIP3      H2              6.9482190048       16.7204383036      -31.5810839614  TIP3      13135           0.0000000000
     89238     13536  TIP3      OH2            10.3714517695        2.4425609088      -33.4090443050  TIP3      13136           0.0000000000
     89239     13536  TIP3      H1              9.7071491864        1.7906451476      -33.1356540364  TIP3      13136           0.0000000000
     89240     13536  TIP3      H2             10.9365256265        1.9289599010      -34.0007983025  TIP3      13136           0.0000000000
     89241     13537  TIP3      OH2            15.5144908764        0.5129959721      -33.3012144754  TIP3      13137           0.0000000000
     89242     13537  TIP3      H1             16.1327723537        1.0901664841      -33.8183014800  TIP3      13137           0.0000000000
     89243     13537  TIP3      H2             14.6378109503        0.8578333928      -33.5507302841  TIP3      13137           0.0000000000
     89244     13538  TIP3      OH2            17.2061478372        1.7032289975      -35.0001453723  TIP3      13138           0.0000000000
     89245     13538  TIP3      H1             17.8733600150        1.1596154076      -35.4830634602  TIP3      13138           0.0000000000
     89246     13538  TIP3      H2             17.6601909711        2.5706380373      -34.9438670832  TIP3      13138           0.0000000000
     89247     13539  TIP3      OH2             2.7395950414        1.0873522457      -35.5867658485  TIP3      13139           0.0000000000
     89248     13539  TIP3      H1              1.9327713823        0.8394753014      -36.0849209258  TIP3      13139           0.0000000000
     89249     13539  TIP3      H2              3.2195246197        0.2353035754      -35.5905523812  TIP3      13139           0.0000000000
     89250     13540  TIP3      OH2             1.5232268499        0.8393433324      -39.7990405517  TIP3      13140           0.0000000000
     89251     13540  TIP3      H1              1.9837854914        1.4721075692      -40.3827721519  TIP3      13140           0.0000000000
     89252     13540  TIP3      H2              0.9222775021        1.4077330478      -39.2931912077  TIP3      13140           0.0000000000
     89253     13541  TIP3      OH2             7.2426996667        1.0295551299      -35.7766006721  TIP3      13141           0.0000000000
     89254     13541  TIP3      H1              8.1617632825        1.3547648122      -35.8053020787  TIP3      13141           0.0000000000
     89255     13541  TIP3      H2              7.1688410161        0.7688478104      -34.8498859065  TIP3      13141           0.0000000000
     89256     13542  TIP3      OH2            12.8796146286        1.0244955485      -34.1264563697  TIP3      13142           0.0000000000
     89257     13542  TIP3      H1             12.9060439210        1.1158742530      -35.0842165815  TIP3      13142           0.0000000000
     89258     13542  TIP3      H2             12.5537414823        0.1022164986      -34.0009753174  TIP3      13142           0.0000000000
     89259     13543  TIP3      OH2            14.2061699399        1.0499732852      -38.4519600743  TIP3      13143           0.0000000000
     89260     13543  TIP3      H1             13.4764369472        1.6560933782      -38.6407058807  TIP3      13143           0.0000000000
     89261     13543  TIP3      H2             13.7498007437        0.1934518217      -38.2847943017  TIP3      13143           0.0000000000
     89262     13544  TIP3      OH2             1.4514395899       16.7866333137      -38.8474100743  TIP3      13144           0.0000000000
     89263     13544  TIP3      H1              0.7587354212       16.7820335864      -39.5418195965  TIP3      13144           0.0000000000
     89264     13544  TIP3      H2              1.4435436864       17.7288112142      -38.6240360863  TIP3      13144           0.0000000000
     89265     13545  TIP3      OH2             3.3770763311        2.7432198888      -41.3184229205  TIP3      13145           0.0000000000
     89266     13545  TIP3      H1              3.8892280874        2.1451868291      -41.8654401597  TIP3      13145           0.0000000000
     89267     13545  TIP3      H2              4.0239001275        3.0881369824      -40.6916868549  TIP3      13145           0.0000000000
     89268     13546  TIP3      OH2             8.3476752484        3.0465722787      -38.8843650886  TIP3      13146           0.0000000000
     89269     13546  TIP3      H1              8.6414870812        2.4248540181      -38.1918076593  TIP3      13146           0.0000000000
     89270     13546  TIP3      H2              8.4474125944        3.9056359080      -38.4252723662  TIP3      13146           0.0000000000
     89271     13547  TIP3      OH2            10.2625205307       18.2131523821      -40.4314841718  TIP3      13147           0.0000000000
     89272     13547  TIP3      H1             11.1973306445       18.3683073800      -40.6380931218  TIP3      13147           0.0000000000
     89273     13547  TIP3      H2             10.0840590686       17.6214112352      -41.2084723234  TIP3      13147           0.0000000000
     89274     13548  TIP3      OH2            17.0224567475       17.5907803189      -37.7757625252  TIP3      13148           0.0000000000
     89275     13548  TIP3      H1             16.8117213284       16.8220397729      -38.3622207779  TIP3      13148           0.0000000000
     89276     13548  TIP3      H2             16.9527358816       18.3360685767      -38.3985688707  TIP3      13148           0.0000000000
     89277     13549  TIP3      OH2             2.6415190697        1.6069870206      -26.0879878071  TIP3      13149           0.0000000000
     89278     13549  TIP3      H1              2.2777132278        0.8128798340      -25.6444851794  TIP3      13149           0.0000000000
     89279     13549  TIP3      H2              3.5677480854        1.5816884286      -25.7537618773  TIP3      13149           0.0000000000
     89280     13550  TIP3      OH2             4.6442911640        0.9715957410      -24.5043525067  TIP3      13150           0.0000000000
     89281     13550  TIP3      H1              5.5378656777        0.6455727746      -24.7172439176  TIP3      13150           0.0000000000
     89282     13550  TIP3      H2              4.2607975364        0.1840531490      -24.0740515231  TIP3      13150           0.0000000000
     89283     13551  TIP3      OH2             3.2629527900       17.7398920037      -41.8640685843  TIP3      13151           0.0000000000
     89284     13551  TIP3      H1              2.9852564487       18.0183054659      -40.9813823679  TIP3      13151           0.0000000000
     89285     13551  TIP3      H2              4.0275048964       17.1888569953      -41.7021308997  TIP3      13151           0.0000000000
     89286     13552  TIP3      OH2            13.0519675507        0.2758153045      -24.3348157715  TIP3      13152           0.0000000000
     89287     13552  TIP3      H1             13.1420355936       -0.1679798621      -23.4699050658  TIP3      13152           0.0000000000
     89288     13552  TIP3      H2             13.9684447022        0.2610793836      -24.6780640191  TIP3      13152           0.0000000000
     89289     13553  TIP3      OH2            16.2525133684       16.3231340853      -25.6570439129  TIP3      13153           0.0000000000
     89290     13553  TIP3      H1             15.4393115165       16.1672751496      -26.1751247889  TIP3      13153           0.0000000000
     89291     13553  TIP3      H2             16.1461701921       17.2703983934      -25.4404663779  TIP3      13153           0.0000000000
     89292     13554  TIP3      OH2            30.6811140061       10.2080706829      -35.6534876960  TIP3      13154           0.0000000000
     89293     13554  TIP3      H1             30.7009538779       11.1828060029      -35.7510021344  TIP3      13154           0.0000000000
     89294     13554  TIP3      H2             29.9870443530        9.9578734273      -36.2879573057  TIP3      13154           0.0000000000
     89295     13555  TIP3      OH2            29.5582596709        9.4782156864      -32.1927718000  TIP3      13155           0.0000000000
     89296     13555  TIP3      H1             29.5318230974        8.8189606984      -31.4927424003  TIP3      13155           0.0000000000
     89297     13555  TIP3      H2             29.2347478696        8.9897514027      -32.9688621587  TIP3      13155           0.0000000000
     89298     13556  TIP3      OH2            21.9178860553        9.1130371369      -30.6342491294  TIP3      13156           0.0000000000
     89299     13556  TIP3      H1             21.9891159562        8.4564234455      -29.9081253410  TIP3      13156           0.0000000000
     89300     13556  TIP3      H2             22.6491840419        9.7109538585      -30.4247636902  TIP3      13156           0.0000000000
     89301     13557  TIP3      OH2            33.2889456902       12.3969080331      -33.9097248368  TIP3      13157           0.0000000000
     89302     13557  TIP3      H1             32.8147542030       11.7004235993      -33.4384850466  TIP3      13157           0.0000000000
     89303     13557  TIP3      H2             33.2597970561       13.1311180061      -33.2599963794  TIP3      13157           0.0000000000
     89304     13558  TIP3      OH2            22.8429193847       13.5668290770      -32.0970278973  TIP3      13158           0.0000000000
     89305     13558  TIP3      H1             22.5055861627       12.7251638501      -32.4546384848  TIP3      13158           0.0000000000
     89306     13558  TIP3      H2             23.7942822503       13.3716494827      -32.0553801211  TIP3      13158           0.0000000000
     89307     13559  TIP3      OH2            19.4838308264        7.1684555361      -36.6699638601  TIP3      13159           0.0000000000
     89308     13559  TIP3      H1             19.0266944496        8.0359673179      -36.7096546534  TIP3      13159           0.0000000000
     89309     13559  TIP3      H2             18.9049253969        6.6179064816      -37.2164405198  TIP3      13159           0.0000000000
     89310     13560  TIP3      OH2            20.1749259241        9.3704480511      -34.5410503132  TIP3      13160           0.0000000000
     89311     13560  TIP3      H1             20.4215220919        8.5708374287      -34.0417672823  TIP3      13160           0.0000000000
     89312     13560  TIP3      H2             20.9100549439        9.4573396837      -35.1683570149  TIP3      13160           0.0000000000
     89313     13561  TIP3      OH2            30.3328037338       17.5155557122      -33.6851067263  TIP3      13161           0.0000000000
     89314     13561  TIP3      H1             31.0266206146       16.8592221659      -33.9767131804  TIP3      13161           0.0000000000
     89315     13561  TIP3      H2             30.2314062422       17.3198222958      -32.7825529862  TIP3      13161           0.0000000000
     89316     13562  TIP3      OH2            27.9466429636       11.9177173959      -31.7824752198  TIP3      13162           0.0000000000
     89317     13562  TIP3      H1             28.2650445547       11.2215402297      -32.3883356264  TIP3      13162           0.0000000000
     89318     13562  TIP3      H2             28.7092855706       12.0074414362      -31.1889245168  TIP3      13162           0.0000000000
     89319     13563  TIP3      OH2            36.5774506140        3.5034677571      -30.9664418735  TIP3      13163           0.0000000000
     89320     13563  TIP3      H1             36.6905709516        4.1237025781      -30.2140896401  TIP3      13163           0.0000000000
     89321     13563  TIP3      H2             37.0711887823        3.9641179308      -31.6613506429  TIP3      13163           0.0000000000
     89322     13564  TIP3      OH2            31.0976156183        6.3278683898      -31.4376398797  TIP3      13164           0.0000000000
     89323     13564  TIP3      H1             31.2467677664        5.3617348875      -31.4445522004  TIP3      13164           0.0000000000
     89324     13564  TIP3      H2             30.9926846826        6.4900036971      -32.3978762866  TIP3      13164           0.0000000000
     89325     13565  TIP3      OH2            24.2385734142        4.4110531773      -34.1880050564  TIP3      13165           0.0000000000
     89326     13565  TIP3      H1             24.3035978243        5.2645148856      -34.6470179378  TIP3      13165           0.0000000000
     89327     13565  TIP3      H2             23.7999404969        3.8479297305      -34.8603777640  TIP3      13165           0.0000000000
     89328     13566  TIP3      OH2            31.9560262168        4.5198073880      -35.8164234573  TIP3      13166           0.0000000000
     89329     13566  TIP3      H1             32.6246834828        4.1988174244      -35.1655021510  TIP3      13166           0.0000000000
     89330     13566  TIP3      H2             32.5044218129        5.0631851973      -36.4025934100  TIP3      13166           0.0000000000
     89331     13567  TIP3      OH2            20.8496853450        6.8214091960      -33.4456101475  TIP3      13167           0.0000000000
     89332     13567  TIP3      H1             21.5244412655        6.2589040901      -33.0096006170  TIP3      13167           0.0000000000
     89333     13567  TIP3      H2             20.9179509935        6.5200673418      -34.3641599422  TIP3      13167           0.0000000000
     89334     13568  TIP3      OH2            26.0168048793        8.3776881623      -34.1898381331  TIP3      13168           0.0000000000
     89335     13568  TIP3      H1             26.6550743206        7.8087842499      -33.7270075782  TIP3      13168           0.0000000000
     89336     13568  TIP3      H2             25.4573941362        7.7098870559      -34.6366462232  TIP3      13168           0.0000000000
     89337     13569  TIP3      OH2            37.0055885808        4.9600554638      -28.7237105535  TIP3      13169           0.0000000000
     89338     13569  TIP3      H1             36.3333948960        5.6702016455      -28.8020389857  TIP3      13169           0.0000000000
     89339     13569  TIP3      H2             37.0216588759        4.8067634420      -27.7654744125  TIP3      13169           0.0000000000
     89340     13570  TIP3      OH2            23.0946592647        3.3134330273      -30.1397127229  TIP3      13170           0.0000000000
     89341     13570  TIP3      H1             22.8369422585        3.8718123776      -30.8987026356  TIP3      13170           0.0000000000
     89342     13570  TIP3      H2             22.4047414366        3.5539143148      -29.4722158153  TIP3      13170           0.0000000000
     89343     13571  TIP3      OH2            30.4258591299       12.8138358667      -36.5797291174  TIP3      13171           0.0000000000
     89344     13571  TIP3      H1             30.1345362560       12.5053288833      -37.4501539237  TIP3      13171           0.0000000000
     89345     13571  TIP3      H2             30.1038261077       13.7360137518      -36.5586894218  TIP3      13171           0.0000000000
     89346     13572  TIP3      OH2            25.6354311501       10.9679167204      -29.8687410556  TIP3      13172           0.0000000000
     89347     13572  TIP3      H1             24.9056279215       11.6072802088      -29.7187422691  TIP3      13172           0.0000000000
     89348     13572  TIP3      H2             26.3407954344       11.5552024574      -30.1703800590  TIP3      13172           0.0000000000
     89349     13573  TIP3      OH2            33.7371936025        3.8378619692      -33.8278697553  TIP3      13173           0.0000000000
     89350     13573  TIP3      H1             33.5324035344        3.0668685840      -33.2886889107  TIP3      13173           0.0000000000
     89351     13573  TIP3      H2             34.4103226946        4.2914173896      -33.2943594320  TIP3      13173           0.0000000000
     89352     13574  TIP3      OH2            22.6529542878        5.1949416251      -32.1532564264  TIP3      13174           0.0000000000
     89353     13574  TIP3      H1             23.2961982651        5.8571255425      -31.8073047381  TIP3      13174           0.0000000000
     89354     13574  TIP3      H2             23.1902170736        4.7468875300      -32.8490677730  TIP3      13174           0.0000000000
     89355     13575  TIP3      OH2            24.0657966974       12.9500818919      -29.0756250690  TIP3      13175           0.0000000000
     89356     13575  TIP3      H1             24.0316280912       13.8590913267      -29.4323039643  TIP3      13175           0.0000000000
     89357     13575  TIP3      H2             23.1811352191       12.8838198666      -28.6326418055  TIP3      13175           0.0000000000
     89358     13576  TIP3      OH2            20.1539019046       12.6016347987      -38.2813875509  TIP3      13176           0.0000000000
     89359     13576  TIP3      H1             19.9052020507       12.8872877343      -39.1790071972  TIP3      13176           0.0000000000
     89360     13576  TIP3      H2             20.2148951203       13.4572051443      -37.8018079287  TIP3      13176           0.0000000000
     89361     13577  TIP3      OH2            33.7833616209       14.2366710169      -31.5653805192  TIP3      13177           0.0000000000
     89362     13577  TIP3      H1             32.8280917999       14.3289740275      -31.4061575152  TIP3      13177           0.0000000000
     89363     13577  TIP3      H2             34.0619397196       15.1661740557      -31.7133937721  TIP3      13177           0.0000000000
     89364     13578  TIP3      OH2            34.0903900880        2.5376032091      -30.1432734218  TIP3      13178           0.0000000000
     89365     13578  TIP3      H1             33.3556662974        3.1599577802      -30.2040114770  TIP3      13178           0.0000000000
     89366     13578  TIP3      H2             34.7872500828        2.9587087308      -30.6765408617  TIP3      13178           0.0000000000
     89367     13579  TIP3      OH2            27.0872757051        0.6446945311      -32.6864570714  TIP3      13179           0.0000000000
     89368     13579  TIP3      H1             26.9646868319       -0.3206380842      -32.7441281711  TIP3      13179           0.0000000000
     89369     13579  TIP3      H2             26.2095483698        0.9572527014      -32.3933477226  TIP3      13179           0.0000000000
     89370     13580  TIP3      OH2            32.0212950762       16.0315885918      -34.9254595661  TIP3      13180           0.0000000000
     89371     13580  TIP3      H1             32.4693533237       15.3231221478      -35.4400032585  TIP3      13180           0.0000000000
     89372     13580  TIP3      H2             32.4016788505       16.8314543315      -35.3552286244  TIP3      13180           0.0000000000
     89373     13581  TIP3      OH2            33.2335388949       13.9469194894      -36.4348538747  TIP3      13181           0.0000000000
     89374     13581  TIP3      H1             32.9348297948       13.2533798596      -37.0486169763  TIP3      13181           0.0000000000
     89375     13581  TIP3      H2             33.2583169933       13.4799385687      -35.5846462545  TIP3      13181           0.0000000000
     89376     13582  TIP3      OH2            34.8739778387       12.5237066397      -27.9392361457  TIP3      13182           0.0000000000
     89377     13582  TIP3      H1             35.0188675951       11.9033812145      -28.6856550374  TIP3      13182           0.0000000000
     89378     13582  TIP3      H2             35.0555884651       13.3894170341      -28.3352412267  TIP3      13182           0.0000000000
     89379     13583  TIP3      OH2            29.3537423636        9.4566097208      -38.1668291266  TIP3      13183           0.0000000000
     89380     13583  TIP3      H1             28.6471950294       10.0104391948      -38.5487819229  TIP3      13183           0.0000000000
     89381     13583  TIP3      H2             30.0531296467        9.5295153946      -38.8460573012  TIP3      13183           0.0000000000
     89382     13584  TIP3      OH2            29.4004333235        7.9449617720      -41.1241523683  TIP3      13184           0.0000000000
     89383     13584  TIP3      H1             30.1245081814        7.9549278642      -40.4806666311  TIP3      13184           0.0000000000
     89384     13584  TIP3      H2             29.7213944047        7.3076392806      -41.7728600725  TIP3      13184           0.0000000000
     89385     13585  TIP3      OH2            36.7327850003        8.8421181434      -29.8894642981  TIP3      13185           0.0000000000
     89386     13585  TIP3      H1             36.0733918597        9.5593908047      -29.8096666187  TIP3      13185           0.0000000000
     89387     13585  TIP3      H2             37.2134606024        9.0753409107      -30.6961361923  TIP3      13185           0.0000000000
     89388     13586  TIP3      OH2            32.7972474348        9.6853464022      -37.2281149820  TIP3      13186           0.0000000000
     89389     13586  TIP3      H1             32.0251708389        9.9003678456      -36.6481320865  TIP3      13186           0.0000000000
     89390     13586  TIP3      H2             33.2244732734        8.9541332158      -36.7586484745  TIP3      13186           0.0000000000
     89391     13587  TIP3      OH2            32.6982331999        7.8251170368      -28.1478179481  TIP3      13187           0.0000000000
     89392     13587  TIP3      H1             32.7378697395        8.6256007211      -27.5960657858  TIP3      13187           0.0000000000
     89393     13587  TIP3      H2             32.0697524898        8.1299607192      -28.8384768729  TIP3      13187           0.0000000000
     89394     13588  TIP3      OH2            24.4107719013       10.3236368004      -35.3363070881  TIP3      13188           0.0000000000
     89395     13588  TIP3      H1             24.0825037557        9.9264118605      -36.1770260405  TIP3      13188           0.0000000000
     89396     13588  TIP3      H2             25.0145824822        9.6225921730      -34.9985090928  TIP3      13188           0.0000000000
     89397     13589  TIP3      OH2            25.7697411060       13.7496559862      -32.6611990387  TIP3      13189           0.0000000000
     89398     13589  TIP3      H1             25.6908032615       13.1584225477      -33.4297394213  TIP3      13189           0.0000000000
     89399     13589  TIP3      H2             26.5061546091       13.3355448168      -32.1814191266  TIP3      13189           0.0000000000
     89400     13590  TIP3      OH2            24.7575606327        9.0631479154      -31.6974281667  TIP3      13190           0.0000000000
     89401     13590  TIP3      H1             25.3300448765        9.1870143990      -32.4779463864  TIP3      13190           0.0000000000
     89402     13590  TIP3      H2             25.1097768214        9.7219426788      -31.0664240976  TIP3      13190           0.0000000000
     89403     13591  TIP3      OH2            31.0598868482       14.6305172634      -31.0056783334  TIP3      13191           0.0000000000
     89404     13591  TIP3      H1             30.8839916801       15.2373936768      -30.2862878826  TIP3      13191           0.0000000000
     89405     13591  TIP3      H2             30.9024154689       13.7519169937      -30.5465600801  TIP3      13191           0.0000000000
     89406     13592  TIP3      OH2            25.6819697175       13.4765335011      -26.9852685434  TIP3      13192           0.0000000000
     89407     13592  TIP3      H1             25.3187527862       14.2518573591      -26.5161353500  TIP3      13192           0.0000000000
     89408     13592  TIP3      H2             25.0037960346       13.3074659167      -27.6847142444  TIP3      13192           0.0000000000
     89409     13593  TIP3      OH2            31.6408358967        8.8312211149      -39.5624852550  TIP3      13193           0.0000000000
     89410     13593  TIP3      H1             32.2181040732        9.0057062918      -38.7843298522  TIP3      13193           0.0000000000
     89411     13593  TIP3      H2             32.0631403711        9.3384855838      -40.2774048440  TIP3      13193           0.0000000000
     89412     13594  TIP3      OH2            22.6061798899        9.6530401185      -27.7859534755  TIP3      13194           0.0000000000
     89413     13594  TIP3      H1             22.6502095051       10.3241268958      -27.0747046565  TIP3      13194           0.0000000000
     89414     13594  TIP3      H2             21.6881894432        9.7670044812      -28.0772157945  TIP3      13194           0.0000000000
     89415     13595  TIP3      OH2            29.3565523672       15.5654470330      -36.0857165408  TIP3      13195           0.0000000000
     89416     13595  TIP3      H1             29.8422751236       15.8847957539      -35.3281197164  TIP3      13195           0.0000000000
     89417     13595  TIP3      H2             28.8120566296       16.3175016481      -36.3593450787  TIP3      13195           0.0000000000
     89418     13596  TIP3      OH2            23.9185377117       15.5399285013      -26.2301199378  TIP3      13196           0.0000000000
     89419     13596  TIP3      H1             23.8907142581       15.4130795832      -27.1913638714  TIP3      13196           0.0000000000
     89420     13596  TIP3      H2             22.9810994378       15.4163215312      -25.9773714897  TIP3      13196           0.0000000000
     89421     13597  TIP3      OH2            35.3465887567        0.5698697230      -39.7029445379  TIP3      13197           0.0000000000
     89422     13597  TIP3      H1             34.4320165566        0.7674795334      -39.4492868141  TIP3      13197           0.0000000000
     89423     13597  TIP3      H2             35.6079390569        1.4217373207      -40.1214900704  TIP3      13197           0.0000000000
     89424     13598  TIP3      OH2            23.3988843899        9.3575779899      -37.7348367639  TIP3      13198           0.0000000000
     89425     13598  TIP3      H1             23.1032189764       10.1368098926      -38.2521491893  TIP3      13198           0.0000000000
     89426     13598  TIP3      H2             22.7258825402        8.7015386566      -37.9327143564  TIP3      13198           0.0000000000
     89427     13599  TIP3      OH2            36.5007758551       14.9285764880      -41.3294909787  TIP3      13199           0.0000000000
     89428     13599  TIP3      H1             36.6147270006       15.8897418615      -41.1885664710  TIP3      13199           0.0000000000
     89429     13599  TIP3      H2             37.4337609432       14.6513017204      -41.4042460699  TIP3      13199           0.0000000000
     89430     13600  TIP3      OH2            19.4866800508       11.7590715317      -28.8879217009  TIP3      13200           0.0000000000
     89431     13600  TIP3      H1             19.0020860212       11.6919320907      -29.7304551864  TIP3      13200           0.0000000000
     89432     13600  TIP3      H2             19.5143255464       10.8194659800      -28.6287235468  TIP3      13200           0.0000000000
     89433     13601  TIP3      OH2            19.2363547453       14.5056207134      -32.0537239450  TIP3      13201           0.0000000000
     89434     13601  TIP3      H1             20.1928202147       14.3803489407      -32.0704614788  TIP3      13201           0.0000000000
     89435     13601  TIP3      H2             19.1412935790       15.3096363110      -31.5258059349  TIP3      13201           0.0000000000
     89436     13602  TIP3      OH2            37.4655268266       15.2012782879      -26.3794307091  TIP3      13202           0.0000000000
     89437     13602  TIP3      H1             37.3713515669       14.2372902558      -26.3917652303  TIP3      13202           0.0000000000
     89438     13602  TIP3      H2             36.5970780687       15.4442713290      -25.9574992528  TIP3      13202           0.0000000000
     89439     13603  TIP3      OH2            28.4219050689       14.7584278622      -27.5297905857  TIP3      13203           0.0000000000
     89440     13603  TIP3      H1             28.5022884952       15.5855543330      -26.9942244988  TIP3      13203           0.0000000000
     89441     13603  TIP3      H2             27.5551320802       14.4102430138      -27.2379553719  TIP3      13203           0.0000000000
     89442     13604  TIP3      OH2            28.8425797508       18.5029257597      -37.6885926068  TIP3      13204           0.0000000000
     89443     13604  TIP3      H1             28.7676190611       18.4117634487      -38.6552664843  TIP3      13204           0.0000000000
     89444     13604  TIP3      H2             28.8766817603       19.4712370138      -37.5610009006  TIP3      13204           0.0000000000
     89445     13605  TIP3      OH2            22.5025776350       17.3549646782      -35.8943940082  TIP3      13205           0.0000000000
     89446     13605  TIP3      H1             22.6423131229       16.9550043109      -35.0106770309  TIP3      13205           0.0000000000
     89447     13605  TIP3      H2             21.6477224667       16.9605241725      -36.1410274029  TIP3      13205           0.0000000000
     89448     13606  TIP3      OH2            31.9162118424       17.6984278088      -40.7176774584  TIP3      13206           0.0000000000
     89449     13606  TIP3      H1             32.3366856043       16.9278790382      -41.1552816406  TIP3      13206           0.0000000000
     89450     13606  TIP3      H2             31.9511322417       17.4218196372      -39.7791843826  TIP3      13206           0.0000000000
     89451     13607  TIP3      OH2            31.6145605875       17.6255315823      -37.9431827205  TIP3      13207           0.0000000000
     89452     13607  TIP3      H1             30.6590399797       17.7052652425      -37.7549045593  TIP3      13207           0.0000000000
     89453     13607  TIP3      H2             31.8740049369       16.8953935078      -37.3620443113  TIP3      13207           0.0000000000
     89454     13608  TIP3      OH2            34.6164748259        6.6816210733      -25.8904756092  TIP3      13208           0.0000000000
     89455     13608  TIP3      H1             34.1700454463        7.1455309191      -26.6129993739  TIP3      13208           0.0000000000
     89456     13608  TIP3      H2             34.6255404517        5.7624502715      -26.1980383494  TIP3      13208           0.0000000000
     89457     13609  TIP3      OH2            21.7479199059       13.0773896908      -27.8946286416  TIP3      13209           0.0000000000
     89458     13609  TIP3      H1             21.9688315504       12.7011074431      -27.0152001734  TIP3      13209           0.0000000000
     89459     13609  TIP3      H2             20.8803266005       12.6801950223      -28.1062953772  TIP3      13209           0.0000000000
     89460     13610  TIP3      OH2            24.3982400842        1.5219046971      -31.9083010418  TIP3      13210           0.0000000000
     89461     13610  TIP3      H1             23.5038696700        1.4505772304      -32.3089725794  TIP3      13210           0.0000000000
     89462     13610  TIP3      H2             24.3228612928        2.3845747271      -31.4674796045  TIP3      13210           0.0000000000
     89463     13611  TIP3      OH2            29.0529865425        1.2466834849      -28.5495112573  TIP3      13211           0.0000000000
     89464     13611  TIP3      H1             29.4563741297        0.8225956522      -27.7710116533  TIP3      13211           0.0000000000
     89465     13611  TIP3      H2             28.0865622870        1.0837246456      -28.4119593706  TIP3      13211           0.0000000000
     89466     13612  TIP3      OH2            32.3513562457        5.0250286505      -27.6949623270  TIP3      13212           0.0000000000
     89467     13612  TIP3      H1             31.8258288052        4.8624865893      -26.8741287852  TIP3      13212           0.0000000000
     89468     13612  TIP3      H2             32.1966098003        5.9563968553      -27.9064506626  TIP3      13212           0.0000000000
     89469     13613  TIP3      OH2            33.1758125130        9.9197806574      -41.8274256773  TIP3      13213           0.0000000000
     89470     13613  TIP3      H1             33.1836873112        9.6931659814      -42.7843958914  TIP3      13213           0.0000000000
     89471     13613  TIP3      H2             34.0329195547       10.3196341307      -41.6965330416  TIP3      13213           0.0000000000
     89472     13614  TIP3      OH2            28.7106086169        3.7703527503      -41.2428067202  TIP3      13214           0.0000000000
     89473     13614  TIP3      H1             28.4190797586        3.7522035885      -40.3109647621  TIP3      13214           0.0000000000
     89474     13614  TIP3      H2             28.4330252181        2.8904206882      -41.5267309516  TIP3      13214           0.0000000000
     89475     13615  TIP3      OH2            24.4957243048        6.4988029894      -30.7557987508  TIP3      13215           0.0000000000
     89476     13615  TIP3      H1             23.7982593054        6.4775827885      -30.0741089530  TIP3      13215           0.0000000000
     89477     13615  TIP3      H2             24.4874019343        7.4362305811      -31.0509535382  TIP3      13215           0.0000000000
     89478     13616  TIP3      OH2            24.4731102171        6.6973805447      -35.8542134427  TIP3      13216           0.0000000000
     89479     13616  TIP3      H1             23.5517122541        6.3813668907      -35.9588801471  TIP3      13216           0.0000000000
     89480     13616  TIP3      H2             24.8884099579        6.3432839733      -36.6637003915  TIP3      13216           0.0000000000
     89481     13617  TIP3      OH2            29.9998229649        7.1306712990      -37.0648206838  TIP3      13217           0.0000000000
     89482     13617  TIP3      H1             29.5877061589        7.9646557920      -37.3800521773  TIP3      13217           0.0000000000
     89483     13617  TIP3      H2             30.7098458413        6.9932705977      -37.7158071537  TIP3      13217           0.0000000000
     89484     13618  TIP3      OH2            29.0845650211        7.3577251449      -25.5593579036  TIP3      13218           0.0000000000
     89485     13618  TIP3      H1             28.5262158434        6.5817689798      -25.2930194690  TIP3      13218           0.0000000000
     89486     13618  TIP3      H2             29.9259831024        7.1830551738      -25.1365090656  TIP3      13218           0.0000000000
     89487     13619  TIP3      OH2            31.0161232868        6.6069922851      -34.2263110461  TIP3      13219           0.0000000000
     89488     13619  TIP3      H1             30.7847297422        7.1868049173      -34.9718841850  TIP3      13219           0.0000000000
     89489     13619  TIP3      H2             31.1620166021        5.7597282806      -34.6956628159  TIP3      13219           0.0000000000
     89490     13620  TIP3      OH2            22.1860429118        6.8073506981      -28.9682980442  TIP3      13220           0.0000000000
     89491     13620  TIP3      H1             22.1881791030        7.2081272272      -28.0820303124  TIP3      13220           0.0000000000
     89492     13620  TIP3      H2             21.7103403611        5.9762520890      -28.8222747572  TIP3      13220           0.0000000000
     89493     13621  TIP3      OH2            25.6823787035        4.3702121994      -41.9003137232  TIP3      13221           0.0000000000
     89494     13621  TIP3      H1             25.1491643252        3.7524540717      -41.3642076332  TIP3      13221           0.0000000000
     89495     13621  TIP3      H2             25.0043471290        4.6480615123      -42.5346358695  TIP3      13221           0.0000000000
     89496     13622  TIP3      OH2            18.8044893571        3.9228448237      -35.0619036758  TIP3      13222           0.0000000000
     89497     13622  TIP3      H1             19.4672593168        3.8851868869      -34.3453763933  TIP3      13222           0.0000000000
     89498     13622  TIP3      H2             19.2656216169        3.5060394938      -35.8137325299  TIP3      13222           0.0000000000
     89499     13623  TIP3      OH2            20.0987208632        4.6386715401      -39.6524174774  TIP3      13223           0.0000000000
     89500     13623  TIP3      H1             20.5731803374        5.2541730128      -40.2543634871  TIP3      13223           0.0000000000
     89501     13623  TIP3      H2             19.3843362447        5.2278332499      -39.3230920924  TIP3      13223           0.0000000000
     89502     13624  TIP3      OH2            30.2527276826        8.2302421423      -29.6141087357  TIP3      13224           0.0000000000
     89503     13624  TIP3      H1             30.5987272880        7.5627398573      -30.2358569984  TIP3      13224           0.0000000000
     89504     13624  TIP3      H2             29.8037589334        7.6841304182      -28.9448861376  TIP3      13224           0.0000000000
     89505     13625  TIP3      OH2            27.0420776151        4.1657564817      -34.8161656038  TIP3      13225           0.0000000000
     89506     13625  TIP3      H1             26.1074015858        4.2023362501      -34.5122539323  TIP3      13225           0.0000000000
     89507     13625  TIP3      H2             27.5373248865        4.0663209842      -33.9890648155  TIP3      13225           0.0000000000
     89508     13626  TIP3      OH2            21.8649217386        5.7664219297      -35.9599900789  TIP3      13226           0.0000000000
     89509     13626  TIP3      H1             20.9664879272        5.8853284144      -36.3294279554  TIP3      13226           0.0000000000
     89510     13626  TIP3      H2             22.1541119898        4.9217600900      -36.3392480807  TIP3      13226           0.0000000000
     89511     13627  TIP3      OH2            25.5046161216        5.7874661609      -38.3159242975  TIP3      13227           0.0000000000
     89512     13627  TIP3      H1             26.4579354195        5.9051324511      -38.1414964516  TIP3      13227           0.0000000000
     89513     13627  TIP3      H2             25.2827612685        6.4555215142      -38.9867591753  TIP3      13227           0.0000000000
     89514     13628  TIP3      OH2            31.4530516280        3.4022740546      -31.5573347191  TIP3      13228           0.0000000000
     89515     13628  TIP3      H1             30.7578046018        3.5013289046      -30.8715061373  TIP3      13228           0.0000000000
     89516     13628  TIP3      H2             30.9467068888        3.2082848014      -32.3574658013  TIP3      13228           0.0000000000
     89517     13629  TIP3      OH2            24.1902483625        6.9672915368      -40.7336233862  TIP3      13229           0.0000000000
     89518     13629  TIP3      H1             23.6433420059        6.5996376876      -41.4501288085  TIP3      13229           0.0000000000
     89519     13629  TIP3      H2             25.0220958767        7.1683458347      -41.1905861804  TIP3      13229           0.0000000000
     89520     13630  TIP3      OH2            34.6794898105       19.0669611185      -25.2507251252  TIP3      13230           0.0000000000
     89521     13630  TIP3      H1             34.9391612683       19.4725909244      -26.0984867514  TIP3      13230           0.0000000000
     89522     13630  TIP3      H2             35.3882546448       19.3886885574      -24.6601203955  TIP3      13230           0.0000000000
     89523     13631  TIP3      OH2            22.3394745212       11.5420127377      -25.6889601917  TIP3      13231           0.0000000000
     89524     13631  TIP3      H1             23.0482055682       11.7790730932      -25.0687188947  TIP3      13231           0.0000000000
     89525     13631  TIP3      H2             21.5475248716       11.6931560601      -25.1130961747  TIP3      13231           0.0000000000
     89526     13632  TIP3      OH2            28.3392550516        6.9442388105      -32.9194433139  TIP3      13232           0.0000000000
     89527     13632  TIP3      H1             28.9204521671        6.3953191932      -33.4607121730  TIP3      13232           0.0000000000
     89528     13632  TIP3      H2             28.1989456403        6.4059668556      -32.1298828027  TIP3      13232           0.0000000000
     89529     13633  TIP3      OH2            23.3480920475        3.0903300314      -36.4889160128  TIP3      13233           0.0000000000
     89530     13633  TIP3      H1             23.0395763950        2.1657211361      -36.5234891912  TIP3      13233           0.0000000000
     89531     13633  TIP3      H2             24.1355051443        3.0556979169      -37.0471422873  TIP3      13233           0.0000000000
     89532     13634  TIP3      OH2            26.9776599218        5.2962897512      -30.5110100981  TIP3      13234           0.0000000000
     89533     13634  TIP3      H1             26.1407303360        5.7882244086      -30.4010257744  TIP3      13234           0.0000000000
     89534     13634  TIP3      H2             27.5148624536        5.6151348743      -29.7583483731  TIP3      13234           0.0000000000
     89535     13635  TIP3      OH2            27.5530582439       11.5234136986      -38.8131496283  TIP3      13235           0.0000000000
     89536     13635  TIP3      H1             26.7681097638       11.0262732561      -39.1366887744  TIP3      13235           0.0000000000
     89537     13635  TIP3      H2             27.3671488408       11.5907373186      -37.8565652333  TIP3      13235           0.0000000000
     89538     13636  TIP3      OH2            34.7079782102       10.6672639359      -30.0248106912  TIP3      13236           0.0000000000
     89539     13636  TIP3      H1             35.3092128661       11.1565139898      -30.6014420353  TIP3      13236           0.0000000000
     89540     13636  TIP3      H2             33.8495749959       10.7772814643      -30.4853281567  TIP3      13236           0.0000000000
     89541     13637  TIP3      OH2            31.4285031283        4.3060784435      -40.6165530770  TIP3      13237           0.0000000000
     89542     13637  TIP3      H1             30.4802383653        4.4578674344      -40.7797914558  TIP3      13237           0.0000000000
     89543     13637  TIP3      H2             31.7189502507        5.1900667541      -40.3120829260  TIP3      13237           0.0000000000
     89544     13638  TIP3      OH2            29.0494141428       11.7338541624      -27.5770731261  TIP3      13238           0.0000000000
     89545     13638  TIP3      H1             28.6968167985       11.3413847554      -26.7744429908  TIP3      13238           0.0000000000
     89546     13638  TIP3      H2             28.8267249886       12.6635421675      -27.4862253549  TIP3      13238           0.0000000000
     89547     13639  TIP3      OH2            32.1323158030        6.2199896061      -38.9571328112  TIP3      13239           0.0000000000
     89548     13639  TIP3      H1             33.0389299784        6.0859978234      -38.6227574804  TIP3      13239           0.0000000000
     89549     13639  TIP3      H2             32.2035395542        7.0236238002      -39.4946268980  TIP3      13239           0.0000000000
     89550     13640  TIP3      OH2            22.6539376502       10.8639027665      -33.0274554572  TIP3      13240           0.0000000000
     89551     13640  TIP3      H1             23.3819952865       10.8188010493      -33.6754097603  TIP3      13240           0.0000000000
     89552     13640  TIP3      H2             22.7290157215       10.0117623705      -32.5634513017  TIP3      13240           0.0000000000
     89553     13641  TIP3      OH2            29.6665777585       12.9850882689      -39.7820487434  TIP3      13241           0.0000000000
     89554     13641  TIP3      H1             29.3302342835       13.8216241445      -39.4097542475  TIP3      13241           0.0000000000
     89555     13641  TIP3      H2             28.9290686680       12.3655198772      -39.5866104063  TIP3      13241           0.0000000000
     89556     13642  TIP3      OH2            19.6547892815        9.3039326130      -27.7391238033  TIP3      13242           0.0000000000
     89557     13642  TIP3      H1             19.8666176594        8.8643207665      -26.8924335133  TIP3      13242           0.0000000000
     89558     13642  TIP3      H2             19.0458602126        8.6748732947      -28.1644397403  TIP3      13242           0.0000000000
     89559     13643  TIP3      OH2            26.6782612889        8.8319613457      -25.5290258729  TIP3      13243           0.0000000000
     89560     13643  TIP3      H1             26.3677762457        8.6111781039      -26.4231514663  TIP3      13243           0.0000000000
     89561     13643  TIP3      H2             27.6110521795        8.5637080293      -25.5609846770  TIP3      13243           0.0000000000
     89562     13644  TIP3      OH2            31.3216156707       14.1914288414      -27.6493535974  TIP3      13244           0.0000000000
     89563     13644  TIP3      H1             30.3952572208       14.3665008446      -27.8699950418  TIP3      13244           0.0000000000
     89564     13644  TIP3      H2             31.3216089286       14.4559591975      -26.7034158950  TIP3      13244           0.0000000000
     89565     13645  TIP3      OH2            37.0308789465        6.3913935022      -39.2285714257  TIP3      13245           0.0000000000
     89566     13645  TIP3      H1             36.4662967087        6.0505691176      -39.9479786099  TIP3      13245           0.0000000000
     89567     13645  TIP3      H2             37.1163751941        7.3239300844      -39.5395153327  TIP3      13245           0.0000000000
     89568     13646  TIP3      OH2            37.0097975007       12.2113335696      -26.4066116406  TIP3      13246           0.0000000000
     89569     13646  TIP3      H1             36.1302240537       12.4608468771      -26.7892456070  TIP3      13246           0.0000000000
     89570     13646  TIP3      H2             37.5760369790       12.2047438152      -27.2006140442  TIP3      13246           0.0000000000
     89571     13647  TIP3      OH2            35.3234953391       15.2135983904      -38.8126984421  TIP3      13247           0.0000000000
     89572     13647  TIP3      H1             34.9433947736       14.3874743371      -38.4970329636  TIP3      13247           0.0000000000
     89573     13647  TIP3      H2             35.6092055255       15.0215789168      -39.7219488618  TIP3      13247           0.0000000000
     89574     13648  TIP3      OH2            32.5093483161       10.0321374773      -31.7679247569  TIP3      13248           0.0000000000
     89575     13648  TIP3      H1             31.5597798773        9.7951021316      -31.8142783580  TIP3      13248           0.0000000000
     89576     13648  TIP3      H2             32.9306266973        9.2340634385      -32.1220515142  TIP3      13248           0.0000000000
     89577     13649  TIP3      OH2            25.0382837281       14.3475737588      -35.6241357881  TIP3      13249           0.0000000000
     89578     13649  TIP3      H1             25.5435534009       15.1411166054      -35.8509307840  TIP3      13249           0.0000000000
     89579     13649  TIP3      H2             24.1540791587       14.5786716415      -35.9495119661  TIP3      13249           0.0000000000
     89580     13650  TIP3      OH2            20.7746162382        9.2031624990      -41.0751231493  TIP3      13250           0.0000000000
     89581     13650  TIP3      H1             21.3992839429        9.8365286632      -40.6774023398  TIP3      13250           0.0000000000
     89582     13650  TIP3      H2             19.9076763818        9.5160005992      -40.7762003448  TIP3      13250           0.0000000000
     89583     13651  TIP3      OH2            26.4663841347       12.0054142039      -36.0858524270  TIP3      13251           0.0000000000
     89584     13651  TIP3      H1             26.1783543081       12.9354905819      -36.0259833882  TIP3      13251           0.0000000000
     89585     13651  TIP3      H2             25.7138434260       11.5430306860      -35.6669604964  TIP3      13251           0.0000000000
     89586     13652  TIP3      OH2            26.9633454322       16.1605476994      -29.7733297301  TIP3      13252           0.0000000000
     89587     13652  TIP3      H1             27.3254584099       17.0364914098      -29.9610091118  TIP3      13252           0.0000000000
     89588     13652  TIP3      H2             27.4952471581       15.8687071195      -29.0002239802  TIP3      13252           0.0000000000
     89589     13653  TIP3      OH2            25.1374681995       17.0195613002      -36.5508801269  TIP3      13253           0.0000000000
     89590     13653  TIP3      H1             24.1696210299       17.1463672962      -36.4567107164  TIP3      13253           0.0000000000
     89591     13653  TIP3      H2             25.4835069613       17.8608250572      -36.1993787111  TIP3      13253           0.0000000000
     89592     13654  TIP3      OH2            30.4795926780       12.2490872369      -30.0704697737  TIP3      13254           0.0000000000
     89593     13654  TIP3      H1             30.0928021233       12.0202077552      -29.2010448867  TIP3      13254           0.0000000000
     89594     13654  TIP3      H2             31.0870775433       11.5057440954      -30.2384245051  TIP3      13254           0.0000000000
     89595     13655  TIP3      OH2            32.7198195170       13.2106780504      -40.9806481493  TIP3      13255           0.0000000000
     89596     13655  TIP3      H1             33.0488065792       12.7966188938      -40.1571718205  TIP3      13255           0.0000000000
     89597     13655  TIP3      H2             31.7623504385       13.0863469839      -40.8854801623  TIP3      13255           0.0000000000
     89598     13656  TIP3      OH2            33.1997104650       16.8032797218      -27.5618060197  TIP3      13256           0.0000000000
     89599     13656  TIP3      H1             32.5669396564       16.2676699045      -28.0735824210  TIP3      13256           0.0000000000
     89600     13656  TIP3      H2             33.4473772975       17.4829236753      -28.2249123264  TIP3      13256           0.0000000000
     89601     13657  TIP3      OH2            37.2285221203       17.6512732997      -40.7536923703  TIP3      13257           0.0000000000
     89602     13657  TIP3      H1             37.9534562339       18.2722613997      -40.9425187642  TIP3      13257           0.0000000000
     89603     13657  TIP3      H2             36.5153019154       18.2503177195      -40.4440407240  TIP3      13257           0.0000000000
     89604     13658  TIP3      OH2            21.3066704990        4.0459436645      -28.1842198640  TIP3      13258           0.0000000000
     89605     13658  TIP3      H1             20.3941594839        4.3843038670      -28.2369188081  TIP3      13258           0.0000000000
     89606     13658  TIP3      H2             21.1900613280        3.1855739524      -27.7516004489  TIP3      13258           0.0000000000
     89607     13659  TIP3      OH2            33.5655943798       11.8828154081      -38.7529057316  TIP3      13259           0.0000000000
     89608     13659  TIP3      H1             33.3002537413       11.1131386024      -38.2092160745  TIP3      13259           0.0000000000
     89609     13659  TIP3      H2             34.5080791868       11.9727884818      -38.5477045620  TIP3      13259           0.0000000000
     89610     13660  TIP3      OH2            20.9515364440       15.8452433585      -29.7636631838  TIP3      13260           0.0000000000
     89611     13660  TIP3      H1             21.1839370039       14.9041271603      -29.7653930989  TIP3      13260           0.0000000000
     89612     13660  TIP3      H2             21.1889368274       16.1141839705      -28.8673328399  TIP3      13260           0.0000000000
     89613     13661  TIP3      OH2            25.7151556722       13.8812366499      -40.0769192950  TIP3      13261           0.0000000000
     89614     13661  TIP3      H1             25.9042898453       13.3476461303      -39.2955070421  TIP3      13261           0.0000000000
     89615     13661  TIP3      H2             25.7413263091       14.7993164823      -39.7499424909  TIP3      13261           0.0000000000
     89616     13662  TIP3      OH2            22.1792071317       11.1221173145      -39.5858503160  TIP3      13262           0.0000000000
     89617     13662  TIP3      H1             21.5025233573       11.5044703742      -38.9931079702  TIP3      13262           0.0000000000
     89618     13662  TIP3      H2             22.7246944268       11.8931546087      -39.8167794458  TIP3      13262           0.0000000000
     89619     13663  TIP3      OH2            30.0290287409        3.8021342197      -29.2812139570  TIP3      13263           0.0000000000
     89620     13663  TIP3      H1             30.7349796607        3.8578878782      -28.6238735383  TIP3      13263           0.0000000000
     89621     13663  TIP3      H2             29.6474775060        2.9193434517      -29.0964543987  TIP3      13263           0.0000000000
     89622     13664  TIP3      OH2            30.8116234805        3.3929952465      -38.1692929081  TIP3      13264           0.0000000000
     89623     13664  TIP3      H1             31.0272150357        3.8996716244      -38.9844306089  TIP3      13264           0.0000000000
     89624     13664  TIP3      H2             31.3646206237        3.8390675449      -37.5171607554  TIP3      13264           0.0000000000
     89625     13665  TIP3      OH2            28.4775037140       15.5538137569      -39.3271982502  TIP3      13265           0.0000000000
     89626     13665  TIP3      H1             27.6576161091       16.0720361970      -39.2751637838  TIP3      13265           0.0000000000
     89627     13665  TIP3      H2             29.0109820247       16.0556124795      -39.9654879931  TIP3      13265           0.0000000000
     89628     13666  TIP3      OH2            28.0064282319        5.1502191263      -37.3483326628  TIP3      13266           0.0000000000
     89629     13666  TIP3      H1             28.8170986212        5.6915212141      -37.3109289719  TIP3      13266           0.0000000000
     89630     13666  TIP3      H2             27.7554711868        5.0128991702      -36.4218239076  TIP3      13266           0.0000000000
     89631     13667  TIP3      OH2            28.5530343282        6.1484510259      -28.1702138024  TIP3      13267           0.0000000000
     89632     13667  TIP3      H1             28.6502957899        6.7255024186      -27.3946600783  TIP3      13267           0.0000000000
     89633     13667  TIP3      H2             29.2140669399        5.4565358248      -28.0484575310  TIP3      13267           0.0000000000
     89634     13668  TIP3      OH2            28.8882730427        2.2063569786      -36.4308736139  TIP3      13268           0.0000000000
     89635     13668  TIP3      H1             28.5493090575        2.8547768454      -35.7851542701  TIP3      13268           0.0000000000
     89636     13668  TIP3      H2             29.5554715394        2.7620814591      -36.8979669600  TIP3      13268           0.0000000000
     89637     13669  TIP3      OH2            25.8230243351       16.5909963113      -39.3354838796  TIP3      13269           0.0000000000
     89638     13669  TIP3      H1             25.9887656521       17.4173748788      -39.8344186132  TIP3      13269           0.0000000000
     89639     13669  TIP3      H2             25.6103865358       16.9270294055      -38.4397485079  TIP3      13269           0.0000000000
     89640     13670  TIP3      OH2            24.5383089623        3.2873270722      -39.7321234764  TIP3      13270           0.0000000000
     89641     13670  TIP3      H1             24.4694587079        4.2009166975      -39.3747921331  TIP3      13270           0.0000000000
     89642     13670  TIP3      H2             25.4469677730        3.0537432025      -39.4727224371  TIP3      13270           0.0000000000
     89643     13671  TIP3      OH2            34.7622034006        4.0382218963      -27.3033311677  TIP3      13271           0.0000000000
     89644     13671  TIP3      H1             33.8237322305        4.3296351316      -27.4259552818  TIP3      13271           0.0000000000
     89645     13671  TIP3      H2             35.0661643666        4.0442284866      -28.2233346166  TIP3      13271           0.0000000000
     89646     13672  TIP3      OH2            33.3626338637        7.8229182787      -33.2726777155  TIP3      13272           0.0000000000
     89647     13672  TIP3      H1             32.5395039223        7.3828602014      -33.5628963745  TIP3      13272           0.0000000000
     89648     13672  TIP3      H2             33.8096077997        7.1142085873      -32.7482063980  TIP3      13272           0.0000000000
     89649     13673  TIP3      OH2            22.7850796368       13.7367655324      -40.6762315176  TIP3      13273           0.0000000000
     89650     13673  TIP3      H1             23.4097328590       14.4126715020      -40.3909524463  TIP3      13273           0.0000000000
     89651     13673  TIP3      H2             23.2837468258       13.2897885050      -41.3869164285  TIP3      13273           0.0000000000
     89652     13674  TIP3      OH2            21.1408618263        6.4029847372      -41.5239456606  TIP3      13274           0.0000000000
     89653     13674  TIP3      H1             21.0945602987        7.3624530687      -41.3769347877  TIP3      13274           0.0000000000
     89654     13674  TIP3      H2             20.2537822107        6.1816841396      -41.8370025005  TIP3      13274           0.0000000000
     89655     13675  TIP3      OH2            34.4120181428       17.0557975523      -31.6116084976  TIP3      13275           0.0000000000
     89656     13675  TIP3      H1             34.3122292910       17.7533033220      -32.2897170819  TIP3      13275           0.0000000000
     89657     13675  TIP3      H2             35.3759680623       17.1330077002      -31.4250720984  TIP3      13275           0.0000000000
     89658     13676  TIP3      OH2            21.9373586973        1.1813302294      -32.8484390300  TIP3      13276           0.0000000000
     89659     13676  TIP3      H1             21.7045728765        1.2378021935      -33.8040835671  TIP3      13276           0.0000000000
     89660     13676  TIP3      H2             21.4789745137        0.3740609104      -32.5727687396  TIP3      13276           0.0000000000
     89661     13677  TIP3      OH2            20.8718696010       15.1127830264      -36.6964621360  TIP3      13277           0.0000000000
     89662     13677  TIP3      H1             20.0272601261       15.5886885324      -36.7012759974  TIP3      13277           0.0000000000
     89663     13677  TIP3      H2             21.3865972682       15.6170223238      -37.3395579836  TIP3      13277           0.0000000000
     89664     13678  TIP3      OH2            20.1365346692       17.7499183212      -25.3962824201  TIP3      13278           0.0000000000
     89665     13678  TIP3      H1             20.6904022271       17.5276622153      -24.6169293046  TIP3      13278           0.0000000000
     89666     13678  TIP3      H2             19.6673146575       16.9152914752      -25.5679323027  TIP3      13278           0.0000000000
     89667     13679  TIP3      OH2            24.7463763980       16.6709205308      -23.7625301562  TIP3      13279           0.0000000000
     89668     13679  TIP3      H1             25.5199275631       16.1918644489      -23.4481905278  TIP3      13279           0.0000000000
     89669     13679  TIP3      H2             24.7200334411       16.4149464961      -24.7050406366  TIP3      13279           0.0000000000
     89670     13680  TIP3      OH2            29.1692890490       16.3145134486      -41.8977330096  TIP3      13280           0.0000000000
     89671     13680  TIP3      H1             28.3708974300       15.7276520102      -41.9670175224  TIP3      13280           0.0000000000
     89672     13680  TIP3      H2             29.6383828682       15.7514603963      -42.5204984526  TIP3      13280           0.0000000000
     89673     13681  TIP3      OH2            31.2996533636       15.0560571524      -25.0490255958  TIP3      13281           0.0000000000
     89674     13681  TIP3      H1             30.9672018375       14.1774552146      -24.7741107658  TIP3      13281           0.0000000000
     89675     13681  TIP3      H2             32.0545597691       15.1660870805      -24.4506873591  TIP3      13281           0.0000000000
     89676     13682  TIP3      OH2            33.4429344065       15.9775719236      -42.1722884494  TIP3      13282           0.0000000000
     89677     13682  TIP3      H1             33.7271859699       15.1719284087      -41.7001645935  TIP3      13282           0.0000000000
     89678     13682  TIP3      H2             34.2074704131       16.2000125095      -42.7185962358  TIP3      13282           0.0000000000
     89679     13683  TIP3      OH2            20.0483267476       11.5476589739      -24.4124874001  TIP3      13283           0.0000000000
     89680     13683  TIP3      H1             20.1795965517       10.6333151778      -24.7171347206  TIP3      13283           0.0000000000
     89681     13683  TIP3      H2             19.2671897661       11.8150511149      -24.9269095898  TIP3      13283           0.0000000000
     89682     13684  TIP3      OH2            24.4201072844       11.9372691782      -42.2603066444  TIP3      13284           0.0000000000
     89683     13684  TIP3      H1             24.4714801058       11.1039078505      -41.7774753808  TIP3      13284           0.0000000000
     89684     13684  TIP3      H2             25.0306866930       11.7440395137      -42.9979642526  TIP3      13284           0.0000000000
     89685     13685  TIP3      OH2            26.7217641847       11.5218945239      -24.9932174901  TIP3      13285           0.0000000000
     89686     13685  TIP3      H1             26.3749811806       11.8104474674      -25.8600122940  TIP3      13285           0.0000000000
     89687     13685  TIP3      H2             26.8300188767       10.5546938919      -25.1004562599  TIP3      13285           0.0000000000
     89688     13686  TIP3      OH2            32.4264099650       11.4048531535      -27.6158524555  TIP3      13286           0.0000000000
     89689     13686  TIP3      H1             33.1946064007       12.0100350508      -27.7147604242  TIP3      13286           0.0000000000
     89690     13686  TIP3      H2             31.6961189099       12.0359321892      -27.5676878771  TIP3      13286           0.0000000000
     89691     13687  TIP3      OH2            20.9081632271        8.7641808677      -25.0035484294  TIP3      13287           0.0000000000
     89692     13687  TIP3      H1             21.3029350346        7.8932991196      -25.1198451455  TIP3      13287           0.0000000000
     89693     13687  TIP3      H2             20.6262206576        8.7550237217      -24.0718860879  TIP3      13287           0.0000000000
     89694     13688  TIP3      OH2            25.5477167563        9.9013713456      -39.9808122051  TIP3      13288           0.0000000000
     89695     13688  TIP3      H1             25.0735865590        9.3783988739      -39.3132128349  TIP3      13288           0.0000000000
     89696     13688  TIP3      H2             25.8253208524        9.1991501364      -40.6167177301  TIP3      13288           0.0000000000
     89697     13689  TIP3      OH2            24.8287594839        7.7314181578      -27.6389748998  TIP3      13289           0.0000000000
     89698     13689  TIP3      H1             24.2151184439        8.4376359972      -27.3737647590  TIP3      13289           0.0000000000
     89699     13689  TIP3      H2             25.1890935737        8.0816243555      -28.4712450964  TIP3      13289           0.0000000000
     89700     13690  TIP3      OH2            26.6130617351        8.1168824804      -41.7349091519  TIP3      13290           0.0000000000
     89701     13690  TIP3      H1             26.4629217958        7.9436195732      -42.6724055224  TIP3      13290           0.0000000000
     89702     13690  TIP3      H2             27.5913097503        8.2118913912      -41.6683427343  TIP3      13290           0.0000000000
     89703     13691  TIP3      OH2            29.8755576241       10.2536328971      -24.3225293855  TIP3      13291           0.0000000000
     89704     13691  TIP3      H1             30.8358526628       10.3092669389      -24.4261810713  TIP3      13291           0.0000000000
     89705     13691  TIP3      H2             29.6800039223        9.5133702129      -23.7731498176  TIP3      13291           0.0000000000
     89706     13692  TIP3      OH2            35.8857721580       10.5284897354       42.7732171687  TIP3      13292           0.0000000000
     89707     13692  TIP3      H1             35.7267196098       10.0530338754       41.9327827214  TIP3      13292           0.0000000000
     89708     13692  TIP3      H2             36.0460208604       11.4369622114       42.4956385380  TIP3      13292           0.0000000000
     89709     13693  TIP3      OH2            25.1863811261        5.1024415642      -26.5530718814  TIP3      13293           0.0000000000
     89710     13693  TIP3      H1             25.3262605157        4.3776494572      -27.1868401677  TIP3      13293           0.0000000000
     89711     13693  TIP3      H2             25.1752441041        5.8967732625      -27.1267548814  TIP3      13293           0.0000000000
     89712     13694  TIP3      OH2            25.6053106859        3.4736121983      -29.0455270733  TIP3      13294           0.0000000000
     89713     13694  TIP3      H1             26.1299000235        3.9356033759      -29.7389340498  TIP3      13294           0.0000000000
     89714     13694  TIP3      H2             24.7244129408        3.3799070855      -29.4765318966  TIP3      13294           0.0000000000
     89715     13695  TIP3      OH2            27.1662134620        8.9277003197      -28.8070111359  TIP3      13295           0.0000000000
     89716     13695  TIP3      H1             27.9191354094        8.7729425888      -29.3895833523  TIP3      13295           0.0000000000
     89717     13695  TIP3      H2             26.8185553401        9.7811649186      -29.1126101775  TIP3      13295           0.0000000000
     89718     13696  TIP3      OH2            32.8786226097        9.5074717997      -25.6840997756  TIP3      13296           0.0000000000
     89719     13696  TIP3      H1             32.6381517331       10.2358792965      -26.3061983917  TIP3      13296           0.0000000000
     89720     13696  TIP3      H2             33.8446582880        9.4602114878      -25.8838143990  TIP3      13296           0.0000000000
     89721     13697  TIP3      OH2            23.6612721439        6.3210951309      -24.6358305593  TIP3      13297           0.0000000000
     89722     13697  TIP3      H1             22.8916014409        5.7611881746      -24.8620763805  TIP3      13297           0.0000000000
     89723     13697  TIP3      H2             24.3318598766        5.9849836474      -25.2642963347  TIP3      13297           0.0000000000
     89724     13698  TIP3      OH2            26.4053854486        0.9164183130      -28.6252541799  TIP3      13298           0.0000000000
     89725     13698  TIP3      H1             26.2684712874        1.8846414919      -28.7414086452  TIP3      13298           0.0000000000
     89726     13698  TIP3      H2             25.6511355691        0.5635830845      -29.1252451685  TIP3      13298           0.0000000000
     89727     13699  TIP3      OH2            27.6714233944        5.2601062799      -25.0583909367  TIP3      13299           0.0000000000
     89728     13699  TIP3      H1             27.3975322875        5.0087641226      -24.1520436085  TIP3      13299           0.0000000000
     89729     13699  TIP3      H2             26.8683718764        5.0326059560      -25.5694427807  TIP3      13299           0.0000000000
     89730     13700  TIP3      OH2            30.3806657238        4.3852728981      -25.9837398978  TIP3      13300           0.0000000000
     89731     13700  TIP3      H1             29.4200598327        4.4123286559      -25.8450513087  TIP3      13300           0.0000000000
     89732     13700  TIP3      H2             30.6841919923        3.7535077553      -25.3062793886  TIP3      13300           0.0000000000
     89733     13701  TIP3      OH2            31.9964077971        3.0113226589      -24.0239479152  TIP3      13301           0.0000000000
     89734     13701  TIP3      H1             31.9058225969        2.0415883994      -23.9996751641  TIP3      13301           0.0000000000
     89735     13701  TIP3      H2             31.6995398609        3.2866768067      -23.1251452970  TIP3      13301           0.0000000000
     89736     13702  TIP3      OH2            21.8142578648        4.2503977109      -24.9449155174  TIP3      13302           0.0000000000
     89737     13702  TIP3      H1             22.0366885352        3.5184269008      -25.5464580578  TIP3      13302           0.0000000000
     89738     13702  TIP3      H2             21.7141100272        3.7874330007      -24.0849818416  TIP3      13302           0.0000000000
     89739     13703  TIP3      OH2            26.6132410159        0.2564909512      -25.9627428469  TIP3      13303           0.0000000000
     89740     13703  TIP3      H1             27.3215504309       -0.4169873409      -25.9653312871  TIP3      13303           0.0000000000
     89741     13703  TIP3      H2             26.5204889135        0.4757332061      -26.9035665539  TIP3      13303           0.0000000000
     89742     13704  TIP3      OH2            27.0103960378        1.9404662992      -23.9123511632  TIP3      13304           0.0000000000
     89743     13704  TIP3      H1             26.8189064701        1.4107063949      -24.7141018266  TIP3      13304           0.0000000000
     89744     13704  TIP3      H2             26.3674122720        2.6643594240      -23.9444320492  TIP3      13304           0.0000000000
     89745     13705  TIP3      OH2            26.4840731356       18.8024465201      -40.7331080652  TIP3      13305           0.0000000000
     89746     13705  TIP3      H1             27.4482716098       18.9424203439      -40.5916975427  TIP3      13305           0.0000000000
     89747     13705  TIP3      H2             26.2654198423       19.4813406006      -41.3670267317  TIP3      13305           0.0000000000
     89748     13706  TIP3      OH2            20.0516435690       13.4273807661      -41.2231013344  TIP3      13306           0.0000000000
     89749     13706  TIP3      H1             21.0049520669       13.5073153259      -40.9789754273  TIP3      13306           0.0000000000
     89750     13706  TIP3      H2             20.0845129158       12.7713817629      -41.9265749337  TIP3      13306           0.0000000000
     89751     13707  TIP3      OH2            18.7679921037       18.8130775148      -36.2034274069  TIP3      13307           0.0000000000
     89752     13707  TIP3      H1             18.0766903992       18.3313266645      -36.7040654215  TIP3      13307           0.0000000000
     89753     13707  TIP3      H2             19.0791324966       18.1396767342      -35.5760032504  TIP3      13307           0.0000000000
     89754     13708  TIP3      OH2            19.6080145612       16.9130692605      -34.3725847113  TIP3      13308           0.0000000000
     89755     13708  TIP3      H1             19.2647311773       16.0284642605      -34.1790292800  TIP3      13308           0.0000000000
     89756     13708  TIP3      H2             19.8265630030       17.2491257642      -33.4853551032  TIP3      13308           0.0000000000
     89757     13709  TIP3      OH2            37.1430228332       17.7109480046      -31.4055966407  TIP3      13309           0.0000000000
     89758     13709  TIP3      H1             37.1518785875       17.8948644214      -30.4502905881  TIP3      13309           0.0000000000
     89759     13709  TIP3      H2             37.8470922192       18.2892953763      -31.7226696284  TIP3      13309           0.0000000000
     89760     13710  TIP3      OH2            36.7269634763       17.3041611522      -28.4784581233  TIP3      13310           0.0000000000
     89761     13710  TIP3      H1             36.2339397008       16.5360300460      -28.8375119762  TIP3      13310           0.0000000000
     89762     13710  TIP3      H2             37.2472721428       16.8741991600      -27.7802499080  TIP3      13310           0.0000000000
     89763     13711  TIP3      OH2            35.1689680593       13.0387862728      -23.8264556262  TIP3      13311           0.0000000000
     89764     13711  TIP3      H1             34.2881080794       12.9972561195      -23.4227049401  TIP3      13311           0.0000000000
     89765     13711  TIP3      H2             35.5322374078       13.8398595317      -23.3769635854  TIP3      13311           0.0000000000
     89766     13712  TIP3      OH2            36.4658960313       11.3536986908      -38.3254368604  TIP3      13312           0.0000000000
     89767     13712  TIP3      H1             37.3379231999       11.7554651561      -38.1896092822  TIP3      13312           0.0000000000
     89768     13712  TIP3      H2             36.4775318970       10.5965959276      -37.7108867915  TIP3      13312           0.0000000000
     89769     13713  TIP3      OH2            36.8332839036        9.4376542724      -36.4797186810  TIP3      13313           0.0000000000
     89770     13713  TIP3      H1             36.1162606907        8.8561286956      -36.1307894950  TIP3      13313           0.0000000000
     89771     13713  TIP3      H2             37.5071005270        9.5403584661      -35.7787903617  TIP3      13313           0.0000000000
     89772     13714  TIP3      OH2            36.5945377644       12.1405041920      -31.5550292742  TIP3      13314           0.0000000000
     89773     13714  TIP3      H1             37.4581414247       11.7872073190      -31.8299207597  TIP3      13314           0.0000000000
     89774     13714  TIP3      H2             36.7423999445       13.1108378996      -31.6561676826  TIP3      13314           0.0000000000
     89775     13715  TIP3      OH2            35.1386964884       15.0397287404      -29.2309178881  TIP3      13315           0.0000000000
     89776     13715  TIP3      H1             34.4579604909       15.3734102288      -28.6226406559  TIP3      13315           0.0000000000
     89777     13715  TIP3      H2             34.5907336378       14.6158048153      -29.9250972328  TIP3      13315           0.0000000000
     89778     13716  TIP3      OH2            37.1317910808        9.2624360060      -40.0970633729  TIP3      13316           0.0000000000
     89779     13716  TIP3      H1             36.5829056386        9.6347364498      -40.8119114852  TIP3      13316           0.0000000000
     89780     13716  TIP3      H2             37.0838683041        9.9681317139      -39.4316774901  TIP3      13316           0.0000000000
     89781     13717  TIP3      OH2            35.2508856874        6.5348494040      -41.4702101400  TIP3      13317           0.0000000000
     89782     13717  TIP3      H1             35.5801885235        7.1415495307      -42.1623390950  TIP3      13317           0.0000000000
     89783     13717  TIP3      H2             35.3382688243        5.7070120393      -41.9893544512  TIP3      13317           0.0000000000
     89784     13718  TIP3      OH2            34.6841324061        7.9260787898      -35.9083110591  TIP3      13318           0.0000000000
     89785     13718  TIP3      H1             34.5014342118        6.9627116683      -35.9585909515  TIP3      13318           0.0000000000
     89786     13718  TIP3      H2             34.2765768676        8.1419510205      -35.0589039125  TIP3      13318           0.0000000000
     89787     13719  TIP3      OH2            19.6676671225        9.9912598166      -31.8853340197  TIP3      13319           0.0000000000
     89788     13719  TIP3      H1             19.8663159553        9.9055781087      -32.8441108834  TIP3      13319           0.0000000000
     89789     13719  TIP3      H2             20.5524821487        9.8422969201      -31.4996305576  TIP3      13319           0.0000000000
     89790     13720  TIP3      OH2            35.5003913408        9.8711493848      -26.2502479086  TIP3      13320           0.0000000000
     89791     13720  TIP3      H1             36.1096481077        9.1216510693      -26.0980914997  TIP3      13320           0.0000000000
     89792     13720  TIP3      H2             36.0878923234       10.6536026718      -26.2406807390  TIP3      13320           0.0000000000
     89793     13721  TIP3      OH2            37.0174400398        7.7829944878      -25.5755143050  TIP3      13321           0.0000000000
     89794     13721  TIP3      H1             36.1347734460        7.3814442815      -25.7642926264  TIP3      13321           0.0000000000
     89795     13721  TIP3      H2             37.5975080767        7.0108325766      -25.6796941786  TIP3      13321           0.0000000000
     89796     13722  TIP3      OH2            34.7401469300        3.9268665746      -42.4532577066  TIP3      13322           0.0000000000
     89797     13722  TIP3      H1             35.3439438809        3.5374343829      -41.7960167331  TIP3      13322           0.0000000000
     89798     13722  TIP3      H2             33.8781710492        3.5333802933      -42.2489438458  TIP3      13322           0.0000000000
     89799     13723  TIP3      OH2            34.3436755751        5.5100840596      -37.4438345233  TIP3      13323           0.0000000000
     89800     13723  TIP3      H1             34.6446111233        4.5782145576      -37.3349024724  TIP3      13323           0.0000000000
     89801     13723  TIP3      H2             35.1196068314        5.9048098465      -37.8602001601  TIP3      13323           0.0000000000
     89802     13724  TIP3      OH2            34.9604315541        6.0588735790      -32.0338858647  TIP3      13324           0.0000000000
     89803     13724  TIP3      H1             35.9219675668        6.2702316885      -32.0400389689  TIP3      13324           0.0000000000
     89804     13724  TIP3      H2             34.7543590595        6.1696529705      -31.0896520118  TIP3      13324           0.0000000000
     89805     13725  TIP3      OH2            35.0179973174        6.7696726983      -29.2509719498  TIP3      13325           0.0000000000
     89806     13725  TIP3      H1             34.1538894096        7.0651435497      -28.8892782039  TIP3      13325           0.0000000000
     89807     13725  TIP3      H2             35.4541807905        7.6293064462      -29.4562986157  TIP3      13325           0.0000000000
     89808     13726  TIP3      OH2            19.2786079690        5.2630473926      -25.7874418292  TIP3      13326           0.0000000000
     89809     13726  TIP3      H1             20.2082510108        5.1119541379      -25.5294407603  TIP3      13326           0.0000000000
     89810     13726  TIP3      H2             18.8311656547        4.4913709990      -25.3823670019  TIP3      13326           0.0000000000
     89811     13727  TIP3      OH2            37.2764459290        0.7950353588      -23.8866961991  TIP3      13327           0.0000000000
     89812     13727  TIP3      H1             37.6429646094        0.1412196536      -24.5047682689  TIP3      13327           0.0000000000
     89813     13727  TIP3      H2             37.4295140725        1.6320064976      -24.3614467197  TIP3      13327           0.0000000000
     89814     13728  TIP3      OH2            34.9871728629        2.7636715442      -37.4166289830  TIP3      13328           0.0000000000
     89815     13728  TIP3      H1             35.1816899327        2.3185041040      -36.5669880897  TIP3      13328           0.0000000000
     89816     13728  TIP3      H2             34.3726238127        2.1613290893      -37.8748817392  TIP3      13328           0.0000000000
     89817     13729  TIP3      OH2            20.4864129566        3.5750328215      -32.8779812350  TIP3      13329           0.0000000000
     89818     13729  TIP3      H1             20.9505849868        2.7656591907      -32.5845268117  TIP3      13329           0.0000000000
     89819     13729  TIP3      H2             20.9918550640        4.2837431871      -32.4565349825  TIP3      13329           0.0000000000
     89820     13730  TIP3      OH2            18.7771473304        6.5642675136      -31.8107996393  TIP3      13330           0.0000000000
     89821     13730  TIP3      H1             19.3191557538        6.3457014264      -32.5981672860  TIP3      13330           0.0000000000
     89822     13730  TIP3      H2             19.1960043233        7.3975886391      -31.5441747239  TIP3      13330           0.0000000000
     89823     13731  TIP3      OH2            36.8251986508        2.9006805879      -25.5258903552  TIP3      13331           0.0000000000
     89824     13731  TIP3      H1             35.8850471478        3.1744927827      -25.5965029615  TIP3      13331           0.0000000000
     89825     13731  TIP3      H2             36.8967654970        2.3686735185      -26.3390740136  TIP3      13331           0.0000000000
     89826     13732  TIP3      OH2            36.8131435509        2.8114851308      -40.8542900610  TIP3      13332           0.0000000000
     89827     13732  TIP3      H1             37.2596286774        2.1126999677      -41.3628153747  TIP3      13332           0.0000000000
     89828     13732  TIP3      H2             37.5265940757        3.4821593002      -40.8328197105  TIP3      13332           0.0000000000
     89829     13733  TIP3      OH2            19.1286025144        2.8274461018      -37.7563483535  TIP3      13333           0.0000000000
     89830     13733  TIP3      H1             18.1908256175        3.0349817021      -37.8891320830  TIP3      13333           0.0000000000
     89831     13733  TIP3      H2             19.5652366102        3.3236978854      -38.4659788407  TIP3      13333           0.0000000000
     89832     13734  TIP3      OH2            33.8712375113       17.7983575782      -35.8027660991  TIP3      13334           0.0000000000
     89833     13734  TIP3      H1             34.5499850870       17.4702197007      -36.4206648289  TIP3      13334           0.0000000000
     89834     13734  TIP3      H2             34.4001753227       18.2945879611      -35.1601548976  TIP3      13334           0.0000000000
     89835     13735  TIP3      OH2            19.0917378831        1.5361024021      -29.4287809113  TIP3      13335           0.0000000000
     89836     13735  TIP3      H1             18.4116079415        1.3146740812      -28.7693487643  TIP3      13335           0.0000000000
     89837     13735  TIP3      H2             18.6282697624        2.1886850822      -29.9953963514  TIP3      13335           0.0000000000
     89838     13736  TIP3      OH2            21.2934772585       14.7241334260      -25.2793287473  TIP3      13336           0.0000000000
     89839     13736  TIP3      H1             20.4488388516       14.9098318401      -25.7199691530  TIP3      13336           0.0000000000
     89840     13736  TIP3      H2             21.0276842958       14.6590838451      -24.3454756561  TIP3      13336           0.0000000000
     89841     13737  TIP3      OH2            24.2223324596       15.6970859781      -29.0117101768  TIP3      13337           0.0000000000
     89842     13737  TIP3      H1             23.8321110656       16.5384645896      -29.2897901671  TIP3      13337           0.0000000000
     89843     13737  TIP3      H2             25.1402548438       15.8032914235      -29.3159293459  TIP3      13337           0.0000000000
     89844     13738  TIP3      OH2            28.5451355708       17.1071701214      -26.0779621365  TIP3      13338           0.0000000000
     89845     13738  TIP3      H1             28.7224077979       16.7814469079      -25.1623342741  TIP3      13338           0.0000000000
     89846     13738  TIP3      H2             29.4196379785       17.4317919724      -26.3579374883  TIP3      13338           0.0000000000
     89847     13739  TIP3      OH2            30.8503637975       18.3867554351      -26.8167502495  TIP3      13339           0.0000000000
     89848     13739  TIP3      H1             31.5735664255       17.7793242826      -27.0395222519  TIP3      13339           0.0000000000
     89849     13739  TIP3      H2             31.2114952897       18.8015318170      -25.9997605382  TIP3      13339           0.0000000000
     89850     13740  TIP3      OH2            35.8260595428        1.0035617048      -27.7104577255  TIP3      13340           0.0000000000
     89851     13740  TIP3      H1             34.9950671090        1.3052530433      -28.1200699930  TIP3      13340           0.0000000000
     89852     13740  TIP3      H2             36.0231472162        0.2061257479      -28.2513932316  TIP3      13340           0.0000000000
     89853     13741  TIP3      OH2            21.6456306494       18.9522980177      -28.9851213267  TIP3      13341           0.0000000000
     89854     13741  TIP3      H1             20.9094880790       19.4224872736      -29.4121638642  TIP3      13341           0.0000000000
     89855     13741  TIP3      H2             21.2888826104       18.7285528853      -28.1124588199  TIP3      13341           0.0000000000
     89856     13742  TIP3      OH2            24.1229510362       18.5336468897      -29.9383166024  TIP3      13342           0.0000000000
     89857     13742  TIP3      H1             23.2269612389       18.6491032692      -29.5352909190  TIP3      13342           0.0000000000
     89858     13742  TIP3      H2             24.0387199515       19.1207736039      -30.7174483235  TIP3      13342           0.0000000000
     89859     13743  TIP3      OH2            28.8167596513       18.4128332821      -30.7852191126  TIP3      13343           0.0000000000
     89860     13743  TIP3      H1             28.3475429448       19.0022695184      -31.4093289094  TIP3      13343           0.0000000000
     89861     13743  TIP3      H2             28.9632294023       19.0592448804      -30.0374554627  TIP3      13343           0.0000000000
     89862     13744  TIP3      OH2            31.1257366357       17.2789405014      -29.8231347521  TIP3      13344           0.0000000000
     89863     13744  TIP3      H1             30.2370277812       17.5403623882      -30.0675993229  TIP3      13344           0.0000000000
     89864     13744  TIP3      H2             31.5786532966       18.1505467826      -29.8569883418  TIP3      13344           0.0000000000
     89865     13745  TIP3      OH2            33.7055355420       18.8528084911      -29.5112178167  TIP3      13345           0.0000000000
     89866     13745  TIP3      H1             33.5870380682       19.8081172505      -29.7428556527  TIP3      13345           0.0000000000
     89867     13745  TIP3      H2             33.9202975654       18.4824327833      -30.3852593163  TIP3      13345           0.0000000000
     89868     13746  TIP3      OH2            21.0601948126       17.5975799732      -32.0659383963  TIP3      13346           0.0000000000
     89869     13746  TIP3      H1             21.0214460671       17.1488776507      -31.1938162991  TIP3      13346           0.0000000000
     89870     13746  TIP3      H2             21.8807834283       17.2474956985      -32.4653987836  TIP3      13346           0.0000000000
     89871     13747  TIP3      OH2            23.1706329110       16.3090743480      -33.4156412487  TIP3      13347           0.0000000000
     89872     13747  TIP3      H1             22.9856268161       15.3741366070      -33.2113792173  TIP3      13347           0.0000000000
     89873     13747  TIP3      H2             24.0172611907       16.4426260879      -32.9424621226  TIP3      13347           0.0000000000
     89874     13748  TIP3      OH2            25.7868878895       16.7877374152      -32.5477505223  TIP3      13348           0.0000000000
     89875     13748  TIP3      H1             25.9127264902       15.8621062021      -32.8257251419  TIP3      13348           0.0000000000
     89876     13748  TIP3      H2             25.7800629509       16.7226796801      -31.5827121134  TIP3      13348           0.0000000000
     89877     13749  TIP3      OH2            29.2353896321        2.4403226003      -33.4011062542  TIP3      13349           0.0000000000
     89878     13749  TIP3      H1             28.5579567960        1.7947215111      -33.1424386924  TIP3      13349           0.0000000000
     89879     13749  TIP3      H2             29.7924252928        1.9287384431      -34.0016067830  TIP3      13349           0.0000000000
     89880     13750  TIP3      OH2            34.3685439988        0.5030193039      -33.3179426926  TIP3      13350           0.0000000000
     89881     13750  TIP3      H1             34.9915639315        1.0950734151      -33.8110324621  TIP3      13350           0.0000000000
     89882     13750  TIP3      H2             33.4924754460        0.8637023028      -33.5420798894  TIP3      13350           0.0000000000
     89883     13751  TIP3      OH2            36.0532704495        1.6997999162      -35.0130498855  TIP3      13351           0.0000000000
     89884     13751  TIP3      H1             36.7352269223        1.1595196852      -35.4789696480  TIP3      13351           0.0000000000
     89885     13751  TIP3      H2             36.5126081116        2.5662689730      -34.9439235767  TIP3      13351           0.0000000000
     89886     13752  TIP3      OH2            21.5832734732        1.0789183252      -35.5697007852  TIP3      13352           0.0000000000
     89887     13752  TIP3      H1             20.7911446656        0.8416249305      -36.0890597316  TIP3      13352           0.0000000000
     89888     13752  TIP3      H2             22.0838300443        0.2443521987      -35.6018544941  TIP3      13352           0.0000000000
     89889     13753  TIP3      OH2            20.3801706097        0.8402104910      -39.7991235419  TIP3      13353           0.0000000000
     89890     13753  TIP3      H1             20.8462280034        1.4753203898      -40.3773627001  TIP3      13353           0.0000000000
     89891     13753  TIP3      H2             19.7779935043        1.4076716563      -39.2934127197  TIP3      13353           0.0000000000
     89892     13754  TIP3      OH2            26.1123880812        0.9890468126      -35.7742151295  TIP3      13354           0.0000000000
     89893     13754  TIP3      H1             27.0092110618        1.3739132292      -35.8134686286  TIP3      13354           0.0000000000
     89894     13754  TIP3      H2             26.0223393642        0.7796445539      -34.8447015064  TIP3      13354           0.0000000000
     89895     13755  TIP3      OH2            31.7430437010        1.0190170203      -34.1323968447  TIP3      13355           0.0000000000
     89896     13755  TIP3      H1             31.7573659381        1.1207726168      -35.0833182889  TIP3      13355           0.0000000000
     89897     13755  TIP3      H2             31.4089015435        0.1011925424      -33.9979076871  TIP3      13355           0.0000000000
     89898     13756  TIP3      OH2            33.0534100284        1.1128593904      -38.4516463794  TIP3      13356           0.0000000000
     89899     13756  TIP3      H1             32.3233183341        1.7219394557      -38.6459564505  TIP3      13356           0.0000000000
     89900     13756  TIP3      H2             32.5375310590        0.3438605645      -38.2329942631  TIP3      13356           0.0000000000
     89901     13757  TIP3      OH2            20.3074399645       16.7865745407      -38.8472785624  TIP3      13357           0.0000000000
     89902     13757  TIP3      H1             19.6148216269       16.7820158352      -39.5418082340  TIP3      13357           0.0000000000
     89903     13757  TIP3      H2             20.2995719664       17.7288364578      -38.6241081007  TIP3      13357           0.0000000000
     89904     13758  TIP3      OH2            22.2289243010        2.7443549010      -41.3253978823  TIP3      13358           0.0000000000
     89905     13758  TIP3      H1             22.7494869883        2.1462687854      -41.8605934116  TIP3      13358           0.0000000000
     89906     13758  TIP3      H2             22.8788781090        3.0885992281      -40.6868671725  TIP3      13358           0.0000000000
     89907     13759  TIP3      OH2            27.2624707168        3.0392665509      -38.9104067635  TIP3      13359           0.0000000000
     89908     13759  TIP3      H1             27.4772382386        2.4325480399      -38.1834745932  TIP3      13359           0.0000000000
     89909     13759  TIP3      H2             27.2583332903        3.8955769318      -38.4180978002  TIP3      13359           0.0000000000
     89910     13760  TIP3      OH2            29.1319716374       18.2028359741      -40.3964805553  TIP3      13360           0.0000000000
     89911     13760  TIP3      H1             30.0567285420       18.3667031581      -40.6475919628  TIP3      13360           0.0000000000
     89912     13760  TIP3      H2             28.9428694752       17.6275718505      -41.1972880002  TIP3      13360           0.0000000000
     89913     13761  TIP3      OH2            35.8775092944       17.5911279910      -37.7750942783  TIP3      13361           0.0000000000
     89914     13761  TIP3      H1             35.6682082639       16.8219072279      -38.3621571886  TIP3      13361           0.0000000000
     89915     13761  TIP3      H2             35.8088591156       18.3361063634      -38.3985892589  TIP3      13361           0.0000000000
     89916     13762  TIP3      OH2            21.4868546331        1.6016286576      -26.0959391030  TIP3      13362           0.0000000000
     89917     13762  TIP3      H1             21.1422666999        0.8116511475      -25.6362151192  TIP3      13362           0.0000000000
     89918     13762  TIP3      H2             22.4188675458        1.5839699786      -25.7633148233  TIP3      13362           0.0000000000
     89919     13763  TIP3      OH2            23.4916162143        0.9653470082      -24.5334464538  TIP3      13363           0.0000000000
     89920     13763  TIP3      H1             24.4007805846        0.6470450414      -24.6959000134  TIP3      13363           0.0000000000
     89921     13763  TIP3      H2             23.1281062352        0.1898156610      -24.0531595110  TIP3      13363           0.0000000000
     89922     13764  TIP3      OH2            22.1190174183       17.7398732925      -41.8640773717  TIP3      13364           0.0000000000
     89923     13764  TIP3      H1             21.8412742088       18.0183979807      -40.9813583640  TIP3      13364           0.0000000000
     89924     13764  TIP3      H2             22.8833980888       17.1888564132      -41.7020687022  TIP3      13364           0.0000000000
     89925     13765  TIP3      OH2            31.9059568594        0.2738407179      -24.3401637408  TIP3      13365           0.0000000000
     89926     13765  TIP3      H1             31.9888567829       -0.1691585647      -23.4746429184  TIP3      13365           0.0000000000
     89927     13765  TIP3      H2             32.8184468126        0.2681562384      -24.6766937816  TIP3      13365           0.0000000000
     89928     13766  TIP3      OH2            35.1125271292       16.3189967109      -25.6790192782  TIP3      13366           0.0000000000
     89929     13766  TIP3      H1             34.2958143421       16.1658693611      -26.1842837693  TIP3      13366           0.0000000000
     89930     13766  TIP3      H2             35.0028084761       17.2613989363      -25.4368755916  TIP3      13366           0.0000000000
     89931     13767  TIP3      OH2            49.5210195720       10.2051420485      -35.6506077864  TIP3      13367           0.0000000000
     89932     13767  TIP3      H1             49.5650407394       11.1800351999      -35.7505897895  TIP3      13367           0.0000000000
     89933     13767  TIP3      H2             48.8383580871        9.9582378007      -36.2931124660  TIP3      13367           0.0000000000
     89934     13768  TIP3      OH2            48.4149286251        9.4779546544      -32.1934301277  TIP3      13368           0.0000000000
     89935     13768  TIP3      H1             48.3877017574        8.8197719086      -31.4924571017  TIP3      13368           0.0000000000
     89936     13768  TIP3      H2             48.0902346261        8.9893472704      -32.9685484946  TIP3      13368           0.0000000000
     89937     13769  TIP3      OH2            40.7727869173        9.1137306738      -30.6341289002  TIP3      13369           0.0000000000
     89938     13769  TIP3      H1             40.8450624846        8.4564994739      -29.9083722209  TIP3      13369           0.0000000000
     89939     13769  TIP3      H2             41.5050629352        9.7108092805      -30.4249670090  TIP3      13369           0.0000000000
     89940     13770  TIP3      OH2            52.1255972517       12.4178212366      -33.9152751169  TIP3      13370           0.0000000000
     89941     13770  TIP3      H1             51.6949818083       11.7030429479      -33.4389253195  TIP3      13370           0.0000000000
     89942     13770  TIP3      H2             52.1136120508       13.1336849792      -33.2552458056  TIP3      13370           0.0000000000
     89943     13771  TIP3      OH2            41.7007383713       13.5658826905      -32.0965544774  TIP3      13371           0.0000000000
     89944     13771  TIP3      H1             41.3614117176       12.7250178513      -32.4555767538  TIP3      13371           0.0000000000
     89945     13771  TIP3      H2             42.6559861197       13.3762544366      -32.0561904542  TIP3      13371           0.0000000000
     89946     13772  TIP3      OH2            38.3280912535        7.1741158223      -36.6557638873  TIP3      13372           0.0000000000
     89947     13772  TIP3      H1             37.8865718894        8.0346942932      -36.7257710081  TIP3      13372           0.0000000000
     89948     13772  TIP3      H2             37.7696749019        6.6123214465      -37.2196437433  TIP3      13372           0.0000000000
     89949     13773  TIP3      OH2            39.0023074427        9.3749507743      -34.5492493872  TIP3      13373           0.0000000000
     89950     13773  TIP3      H1             39.2846276268        8.5760435258      -34.0437079470  TIP3      13373           0.0000000000
     89951     13773  TIP3      H2             39.7659038003        9.4576891880      -35.1602602027  TIP3      13373           0.0000000000
     89952     13774  TIP3      OH2            49.2255017616       17.5522321392      -33.6859173884  TIP3      13374           0.0000000000
     89953     13774  TIP3      H1             49.8667693832       16.8471726386      -33.9605709275  TIP3      13374           0.0000000000
     89954     13774  TIP3      H2             49.0279259630       17.2739664878      -32.7922251430  TIP3      13374           0.0000000000
     89955     13775  TIP3      OH2            46.7917263174       11.8947798109      -31.7722828388  TIP3      13375           0.0000000000
     89956     13775  TIP3      H1             47.1271025380       11.2271010091      -32.3923308199  TIP3      13375           0.0000000000
     89957     13775  TIP3      H2             47.5641747275       12.0234372401      -31.1952230902  TIP3      13375           0.0000000000
     89958     13776  TIP3      OH2            55.4217547504        3.5106784139      -30.9729692260  TIP3      13376           0.0000000000
     89959     13776  TIP3      H1             55.5471740535        4.1225858527      -30.2105434589  TIP3      13376           0.0000000000
     89960     13776  TIP3      H2             55.9347116132        3.9651879071      -31.6598761393  TIP3      13376           0.0000000000
     89961     13777  TIP3      OH2            49.9560515531        6.3108046010      -31.4435863469  TIP3      13377           0.0000000000
     89962     13777  TIP3      H1             50.1000903884        5.3545309244      -31.4405598266  TIP3      13377           0.0000000000
     89963     13777  TIP3      H2             49.8446883818        6.5003118471      -32.3962672166  TIP3      13377           0.0000000000
     89964     13778  TIP3      OH2            43.0950820999        4.4110808397      -34.1882845851  TIP3      13378           0.0000000000
     89965     13778  TIP3      H1             43.1593906516        5.2644977209      -34.6471601565  TIP3      13378           0.0000000000
     89966     13778  TIP3      H2             42.6558613198        3.8478398798      -34.8602181854  TIP3      13378           0.0000000000
     89967     13779  TIP3      OH2            50.8307053922        4.4830384930      -35.8055612376  TIP3      13379           0.0000000000
     89968     13779  TIP3      H1             51.5195168373        4.2466928779      -35.1776046281  TIP3      13379           0.0000000000
     89969     13779  TIP3      H2             51.3517650130        5.0653404293      -36.4063613322  TIP3      13379           0.0000000000
     89970     13780  TIP3      OH2            39.6981518258        6.8326842826      -33.4491783919  TIP3      13380           0.0000000000
     89971     13780  TIP3      H1             40.3737238311        6.2655605033      -33.0104779252  TIP3      13380           0.0000000000
     89972     13780  TIP3      H2             39.7788674801        6.5139614972      -34.3626450519  TIP3      13380           0.0000000000
     89973     13781  TIP3      OH2            44.8719911502        8.3769517723      -34.1863220316  TIP3      13381           0.0000000000
     89974     13781  TIP3      H1             45.5117616077        7.8080991332      -33.7262995746  TIP3      13381           0.0000000000
     89975     13781  TIP3      H2             44.3137779238        7.7101245492      -34.6363039330  TIP3      13381           0.0000000000
     89976     13782  TIP3      OH2            55.8935824807        4.9767457995      -28.7218204738  TIP3      13382           0.0000000000
     89977     13782  TIP3      H1             55.2002073958        5.6665892621      -28.8098244277  TIP3      13382           0.0000000000
     89978     13782  TIP3      H2             55.8691802882        4.8029111752      -27.7650977496  TIP3      13382           0.0000000000
     89979     13783  TIP3      OH2            41.9510798226        3.3139288396      -30.1395843470  TIP3      13383           0.0000000000
     89980     13783  TIP3      H1             41.6929028647        3.8715814227      -30.8987931376  TIP3      13383           0.0000000000
     89981     13783  TIP3      H2             41.2606475030        3.5536070864      -29.4724431171  TIP3      13383           0.0000000000
     89982     13784  TIP3      OH2            49.2859578263       12.8100262854      -36.5884208263  TIP3      13384           0.0000000000
     89983     13784  TIP3      H1             48.9884796873       12.5045273275      -37.4548502349  TIP3      13384           0.0000000000
     89984     13784  TIP3      H2             48.9600938269       13.7348651945      -36.5509233575  TIP3      13384           0.0000000000
     89985     13785  TIP3      OH2            44.4939126883       10.9706066489      -29.8695412082  TIP3      13385           0.0000000000
     89986     13785  TIP3      H1             43.7618050621       11.6072583042      -29.7189140402  TIP3      13385           0.0000000000
     89987     13785  TIP3      H2             45.1991757356       11.5611683908      -30.1731000673  TIP3      13385           0.0000000000
     89988     13786  TIP3      OH2            52.6884314591        3.9047150983      -33.8020621739  TIP3      13386           0.0000000000
     89989     13786  TIP3      H1             52.4941551817        3.1441369851      -33.2267066001  TIP3      13386           0.0000000000
     89990     13786  TIP3      H2             53.3293181682        4.3442945404      -33.2626675835  TIP3      13386           0.0000000000
     89991     13787  TIP3      OH2            41.5082382868        5.1957382190      -32.1538212744  TIP3      13387           0.0000000000
     89992     13787  TIP3      H1             42.1533889052        5.8560926361      -31.8075147957  TIP3      13387           0.0000000000
     89993     13787  TIP3      H2             42.0459690292        4.7467079247      -32.8488544094  TIP3      13387           0.0000000000
     89994     13788  TIP3      OH2            42.9196560221       12.9485094155      -29.0773722776  TIP3      13388           0.0000000000
     89995     13788  TIP3      H1             42.8874324559       13.8589488632      -29.4321412033  TIP3      13388           0.0000000000
     89996     13788  TIP3      H2             42.0368868216       12.8839093229      -28.6326737310  TIP3      13388           0.0000000000
     89997     13789  TIP3      OH2            38.9978529937       12.5976316407      -38.2721273415  TIP3      13389           0.0000000000
     89998     13789  TIP3      H1             38.7628360163       12.8858485850      -39.1752356119  TIP3      13389           0.0000000000
     89999     13789  TIP3      H2             39.0792216712       13.4604399370      -37.8109331253  TIP3      13389           0.0000000000
     90000     13790  TIP3      OH2            52.6370183534       14.2389684935      -31.5465307913  TIP3      13390           0.0000000000
     90001     13790  TIP3      H1             51.6704209937       14.3342323402      -31.4064733368  TIP3      13390           0.0000000000
     90002     13790  TIP3      H2             52.9150539965       15.1631893575      -31.7102731643  TIP3      13390           0.0000000000
     90003     13791  TIP3      OH2            52.9430275461        2.5322238741      -30.1733232239  TIP3      13391           0.0000000000
     90004     13791  TIP3      H1             52.2176228001        3.1667110349      -30.1874294100  TIP3      13391           0.0000000000
     90005     13791  TIP3      H2             53.6570144081        2.9686512361      -30.6643332662  TIP3      13391           0.0000000000
     90006     13792  TIP3      OH2            45.9503278652        0.6461652181      -32.6900212274  TIP3      13392           0.0000000000
     90007     13792  TIP3      H1             45.8169465038       -0.3216025870      -32.7433258217  TIP3      13392           0.0000000000
     90008     13792  TIP3      H2             45.0709257162        0.9580630921      -32.3950284811  TIP3      13392           0.0000000000
     90009     13793  TIP3      OH2            50.8938706828       16.0315953906      -34.9298672185  TIP3      13393           0.0000000000
     90010     13793  TIP3      H1             51.3231154789       15.3175602117      -35.4403488373  TIP3      13393           0.0000000000
     90011     13793  TIP3      H2             51.2617138508       16.8351239890      -35.3512087371  TIP3      13393           0.0000000000
     90012     13794  TIP3      OH2            52.0699332142       13.9573282544      -36.4315909939  TIP3      13394           0.0000000000
     90013     13794  TIP3      H1             51.7983531549       13.2503804788      -37.0431836076  TIP3      13394           0.0000000000
     90014     13794  TIP3      H2             52.1232690133       13.4773664205      -35.5821031254  TIP3      13394           0.0000000000
     90015     13795  TIP3      OH2            53.7379782629       12.5180701546      -27.9370603984  TIP3      13395           0.0000000000
     90016     13795  TIP3      H1             53.8672985284       11.9020665949      -28.6870540549  TIP3      13395           0.0000000000
     90017     13795  TIP3      H2             53.9193395911       13.3859052124      -28.3346238878  TIP3      13395           0.0000000000
     90018     13796  TIP3      OH2            48.2088800156        9.4568000709      -38.1673059435  TIP3      13396           0.0000000000
     90019     13796  TIP3      H1             47.5020445775       10.0108493189      -38.5506517054  TIP3      13396           0.0000000000
     90020     13796  TIP3      H2             48.9092426169        9.5295132860      -38.8458197734  TIP3      13396           0.0000000000
     90021     13797  TIP3      OH2            48.2557840584        7.9449511849      -41.1246762820  TIP3      13397           0.0000000000
     90022     13797  TIP3      H1             48.9788175904        7.9559651463      -40.4812799319  TIP3      13397           0.0000000000
     90023     13797  TIP3      H2             48.5773802637        7.3076327494      -41.7728895086  TIP3      13397           0.0000000000
     90024     13798  TIP3      OH2            55.5700804318        8.8254413102      -29.8894186371  TIP3      13398           0.0000000000
     90025     13798  TIP3      H1             54.9308395140        9.5605335622      -29.8085783455  TIP3      13398           0.0000000000
     90026     13798  TIP3      H2             56.0465888219        9.0816885715      -30.7052796054  TIP3      13398           0.0000000000
     90027     13799  TIP3      OH2            51.6268531960        9.6738060407      -37.2426795751  TIP3      13399           0.0000000000
     90028     13799  TIP3      H1             50.8838541510        9.9046408098      -36.6386573924  TIP3      13399           0.0000000000
     90029     13799  TIP3      H2             52.0946785085        8.9709576444      -36.7509367501  TIP3      13399           0.0000000000
     90030     13800  TIP3      OH2            51.5423787143        7.8153578612      -28.1363812687  TIP3      13400           0.0000000000
     90031     13800  TIP3      H1             51.5876701105        8.6280291904      -27.5996581469  TIP3      13400           0.0000000000
     90032     13800  TIP3      H2             50.9256463637        8.1274451292      -28.8363596999  TIP3      13400           0.0000000000
     90033     13801  TIP3      OH2            43.2654037128       10.3225880537      -35.3361862269  TIP3      13401           0.0000000000
     90034     13801  TIP3      H1             42.9384137512        9.9262951606      -36.1775708992  TIP3      13401           0.0000000000
     90035     13801  TIP3      H2             43.8704889210        9.6226649763      -34.9986379738  TIP3      13401           0.0000000000
     90036     13802  TIP3      OH2            44.6060339853       13.7306927539      -32.6566931021  TIP3      13402           0.0000000000
     90037     13802  TIP3      H1             44.5567507981       13.1596323985      -33.4338472456  TIP3      13402           0.0000000000
     90038     13802  TIP3      H2             45.3705083283       13.3516735523      -32.1853774563  TIP3      13402           0.0000000000
     90039     13803  TIP3      OH2            43.6129424936        9.0635161258      -31.6975232976  TIP3      13403           0.0000000000
     90040     13803  TIP3      H1             44.1860723458        9.1868011738      -32.4779575115  TIP3      13403           0.0000000000
     90041     13803  TIP3      H2             43.9660980000        9.7219459771      -31.0665082957  TIP3      13403           0.0000000000
     90042     13804  TIP3      OH2            49.9702583328       14.6126867620      -30.9865844346  TIP3      13404           0.0000000000
     90043     13804  TIP3      H1             49.7076563869       15.2469180403      -30.3180532135  TIP3      13404           0.0000000000
     90044     13804  TIP3      H2             49.7438097567       13.7532925838      -30.5459964862  TIP3      13404           0.0000000000
     90045     13805  TIP3      OH2            44.5383554023       13.4752538142      -26.9855560058  TIP3      13405           0.0000000000
     90046     13805  TIP3      H1             44.1765596377       14.2510657593      -26.5173770543  TIP3      13405           0.0000000000
     90047     13805  TIP3      H2             43.8597645914       13.3075395482      -27.6847993602  TIP3      13405           0.0000000000
     90048     13806  TIP3      OH2            50.4966593130        8.8308884312      -39.5632592251  TIP3      13406           0.0000000000
     90049     13806  TIP3      H1             51.0716977148        9.0121032288      -38.7824638537  TIP3      13406           0.0000000000
     90050     13806  TIP3      H2             50.9193570768        9.3384502012      -40.2772281528  TIP3      13406           0.0000000000
     90051     13807  TIP3      OH2            41.4588553935        9.6493784985      -27.7801362786  TIP3      13407           0.0000000000
     90052     13807  TIP3      H1             41.5087960167       10.3237026192      -27.0732688263  TIP3      13407           0.0000000000
     90053     13807  TIP3      H2             40.5439259866        9.7676891186      -28.0764802649  TIP3      13407           0.0000000000
     90054     13808  TIP3      OH2            48.2261865546       15.5684375754      -36.1050559241  TIP3      13408           0.0000000000
     90055     13808  TIP3      H1             48.6862307627       15.8780865843      -35.3180610253  TIP3      13408           0.0000000000
     90056     13808  TIP3      H2             47.6658979863       16.3174884435      -36.3461178202  TIP3      13408           0.0000000000
     90057     13809  TIP3      OH2            42.7774832560       15.5377660902      -26.2363709963  TIP3      13409           0.0000000000
     90058     13809  TIP3      H1             42.7469140444       15.4105816711      -27.1965340001  TIP3      13409           0.0000000000
     90059     13809  TIP3      H2             41.8413341791       15.4186151438      -25.9700914105  TIP3      13409           0.0000000000
     90060     13810  TIP3      OH2            54.2204410127        0.5804605365      -39.7105000595  TIP3      13410           0.0000000000
     90061     13810  TIP3      H1             53.2803433638        0.7160466055      -39.4501474985  TIP3      13410           0.0000000000
     90062     13810  TIP3      H2             54.4573815367        1.4283014924      -40.1181982109  TIP3      13410           0.0000000000
     90063     13811  TIP3      OH2            42.2573285123        9.3589569485      -37.7417780696  TIP3      13411           0.0000000000
     90064     13811  TIP3      H1             41.9575323083       10.1383839525      -38.2547462299  TIP3      13411           0.0000000000
     90065     13811  TIP3      H2             41.5820605317        8.7018464618      -37.9318909004  TIP3      13411           0.0000000000
     90066     13812  TIP3      OH2            55.3362441620       14.9469988785      -41.3293303105  TIP3      13412           0.0000000000
     90067     13812  TIP3      H1             55.4652530223       15.9005379366      -41.1859554163  TIP3      13412           0.0000000000
     90068     13812  TIP3      H2             56.2716107494       14.6531017870      -41.3944981450  TIP3      13412           0.0000000000
     90069     13813  TIP3      OH2            38.3440766925       11.7601405988      -28.8843282910  TIP3      13413           0.0000000000
     90070     13813  TIP3      H1             37.8607988185       11.6950042736      -29.7249795095  TIP3      13413           0.0000000000
     90071     13813  TIP3      H2             38.3706924805       10.8196604185      -28.6284621348  TIP3      13413           0.0000000000
     90072     13814  TIP3      OH2            38.0896572897       14.4965851389      -32.0607093509  TIP3      13414           0.0000000000
     90073     13814  TIP3      H1             39.0501224477       14.3860526766      -32.0676592158  TIP3      13414           0.0000000000
     90074     13814  TIP3      H2             37.9946352994       15.3033839333      -31.5305590820  TIP3      13414           0.0000000000
     90075     13815  TIP3      OH2            47.2834017059       14.7475599279      -27.5098133235  TIP3      13415           0.0000000000
     90076     13815  TIP3      H1             47.3576445345       15.5899154903      -27.0030418727  TIP3      13415           0.0000000000
     90077     13815  TIP3      H2             46.4083736703       14.4125445023      -27.2414863893  TIP3      13415           0.0000000000
     90078     13816  TIP3      OH2            47.6981089956       18.5028779797      -37.6894920492  TIP3      13416           0.0000000000
     90079     13816  TIP3      H1             47.6235118977       18.4116933862      -38.6559623015  TIP3      13416           0.0000000000
     90080     13816  TIP3      H2             47.7329869459       19.4710540729      -37.5612953854  TIP3      13416           0.0000000000
     90081     13817  TIP3      OH2            41.3572670236       17.3542713644      -35.8955101421  TIP3      13417           0.0000000000
     90082     13817  TIP3      H1             41.4980356400       16.9549615330      -35.0120627200  TIP3      13417           0.0000000000
     90083     13817  TIP3      H2             40.5029976642       16.9601167714      -36.1411703758  TIP3      13417           0.0000000000
     90084     13818  TIP3      OH2            50.7607546310       17.7016265420      -40.7247945331  TIP3      13418           0.0000000000
     90085     13818  TIP3      H1             51.1936898704       16.9289447938      -41.1533442811  TIP3      13418           0.0000000000
     90086     13818  TIP3      H2             50.8061488898       17.4262672046      -39.7823885451  TIP3      13418           0.0000000000
     90087     13819  TIP3      OH2            50.4716098354       17.6259681812      -37.9437095058  TIP3      13419           0.0000000000
     90088     13819  TIP3      H1             49.5158944606       17.7045645475      -37.7543340717  TIP3      13419           0.0000000000
     90089     13819  TIP3      H2             50.7366650126       16.8982729855      -37.3606250111  TIP3      13419           0.0000000000
     90090     13820  TIP3      OH2            53.4426504594        6.6783364244      -25.8998709861  TIP3      13420           0.0000000000
     90091     13820  TIP3      H1             53.0257208524        7.1565032838      -26.6283785841  TIP3      13420           0.0000000000
     90092     13820  TIP3      H2             53.4988917388        5.7620438805      -26.2093202834  TIP3      13420           0.0000000000
     90093     13821  TIP3      OH2            40.6045600354       13.0767594477      -27.8936466254  TIP3      13421           0.0000000000
     90094     13821  TIP3      H1             40.8250175575       12.7009651813      -27.0147175666  TIP3      13421           0.0000000000
     90095     13821  TIP3      H2             39.7372335008       12.6799742648      -28.1058522446  TIP3      13421           0.0000000000
     90096     13822  TIP3      OH2            43.2601067084        1.5339244315      -31.9145744482  TIP3      13422           0.0000000000
     90097     13822  TIP3      H1             42.3604168959        1.4420824585      -32.3051805910  TIP3      13422           0.0000000000
     90098     13822  TIP3      H2             43.1770976727        2.3893050612      -31.4656323510  TIP3      13422           0.0000000000
     90099     13823  TIP3      OH2            47.9088794768        1.2467554192      -28.5475218869  TIP3      13423           0.0000000000
     90100     13823  TIP3      H1             48.3101540099        0.8200158375      -27.7687174999  TIP3      13423           0.0000000000
     90101     13823  TIP3      H2             46.9423489564        1.0836180352      -28.4120679483  TIP3      13423           0.0000000000
     90102     13824  TIP3      OH2            51.1964326215        5.0277918859      -27.6842239001  TIP3      13424           0.0000000000
     90103     13824  TIP3      H1             50.6675125307        4.8664514238      -26.8816028598  TIP3      13424           0.0000000000
     90104     13824  TIP3      H2             51.0512556756        5.9577680759      -27.9223577088  TIP3      13424           0.0000000000
     90105     13825  TIP3      OH2            52.0359540495        9.9188098850      -41.8298579692  TIP3      13425           0.0000000000
     90106     13825  TIP3      H1             52.0403441153        9.6929960431      -42.7859030911  TIP3      13425           0.0000000000
     90107     13825  TIP3      H2             52.8911039343       10.3193268459      -41.6958948456  TIP3      13425           0.0000000000
     90108     13826  TIP3      OH2            47.5633323634        3.7725701117      -41.2445430345  TIP3      13426           0.0000000000
     90109     13826  TIP3      H1             47.2749398368        3.7524398396      -40.3113770288  TIP3      13426           0.0000000000
     90110     13826  TIP3      H2             47.2888771687        2.8906983217      -41.5268294824  TIP3      13426           0.0000000000
     90111     13827  TIP3      OH2            43.3516596781        6.4987593350      -30.7557485290  TIP3      13427           0.0000000000
     90112     13827  TIP3      H1             42.6542801828        6.4776046628      -30.0741743037  TIP3      13427           0.0000000000
     90113     13827  TIP3      H2             43.3435491486        7.4362113165      -31.0509515322  TIP3      13427           0.0000000000
     90114     13828  TIP3      OH2            43.3299901128        6.6968536236      -35.8552944635  TIP3      13428           0.0000000000
     90115     13828  TIP3      H1             42.4080689677        6.3812473256      -35.9591744264  TIP3      13428           0.0000000000
     90116     13828  TIP3      H2             43.7480894559        6.3408802204      -36.6644858371  TIP3      13428           0.0000000000
     90117     13829  TIP3      OH2            48.8588034925        7.1276866138      -37.0634109431  TIP3      13429           0.0000000000
     90118     13829  TIP3      H1             48.4442263003        7.9634557271      -37.3796074363  TIP3      13429           0.0000000000
     90119     13829  TIP3      H2             49.5674374957        6.9934811078      -37.7174715433  TIP3      13429           0.0000000000
     90120     13830  TIP3      OH2            47.9506675376        7.3206753373      -25.5994678660  TIP3      13430           0.0000000000
     90121     13830  TIP3      H1             47.3694569370        6.5958928301      -25.2837144682  TIP3      13430           0.0000000000
     90122     13830  TIP3      H2             48.7807682213        7.2301028480      -25.1261405425  TIP3      13430           0.0000000000
     90123     13831  TIP3      OH2            49.8770147032        6.5967245399      -34.2274709801  TIP3      13431           0.0000000000
     90124     13831  TIP3      H1             49.6389220566        7.1925369264      -34.9655722550  TIP3      13431           0.0000000000
     90125     13831  TIP3      H2             50.0111861649        5.7669627001      -34.7075797891  TIP3      13431           0.0000000000
     90126     13832  TIP3      OH2            41.0392937123        6.8074949256      -28.9671859515  TIP3      13432           0.0000000000
     90127     13832  TIP3      H1             41.0483022711        7.2035406854      -28.0765322568  TIP3      13432           0.0000000000
     90128     13832  TIP3      H2             40.5661072948        5.9756394159      -28.8225570687  TIP3      13432           0.0000000000
     90129     13833  TIP3      OH2            44.5383996906        4.3702323245      -41.9000362121  TIP3      13433           0.0000000000
     90130     13833  TIP3      H1             44.0051191287        3.7524006102      -41.3642620277  TIP3      13433           0.0000000000
     90131     13833  TIP3      H2             43.8605100474        4.6481253226      -42.5347567772  TIP3      13433           0.0000000000
     90132     13834  TIP3      OH2            37.6603169036        3.9220767265      -35.0618494615  TIP3      13434           0.0000000000
     90133     13834  TIP3      H1             38.3231668570        3.8852383506      -34.3453724055  TIP3      13434           0.0000000000
     90134     13834  TIP3      H2             38.1215976840        3.5059882400      -35.8136593053  TIP3      13434           0.0000000000
     90135     13835  TIP3      OH2            38.9546997198        4.6388340227      -39.6526760573  TIP3      13435           0.0000000000
     90136     13835  TIP3      H1             39.4290454345        5.2544279724      -40.2545950060  TIP3      13435           0.0000000000
     90137     13835  TIP3      H2             38.2403175500        5.2279153639      -39.3234148961  TIP3      13435           0.0000000000
     90138     13836  TIP3      OH2            49.1081152155        8.2293115560      -29.6141125537  TIP3      13436           0.0000000000
     90139     13836  TIP3      H1             49.4547163569        7.5626649982      -30.2353032980  TIP3      13436           0.0000000000
     90140     13836  TIP3      H2             48.6596691839        7.6842215784      -28.9431660232  TIP3      13436           0.0000000000
     90141     13837  TIP3      OH2            45.9081591491        4.1608903026      -34.8159759659  TIP3      13437           0.0000000000
     90142     13837  TIP3      H1             44.9705176693        4.2017010920      -34.5176004062  TIP3      13437           0.0000000000
     90143     13837  TIP3      H2             46.3866273808        4.0695520726      -33.9834048382  TIP3      13437           0.0000000000
     90144     13838  TIP3      OH2            40.7213960308        5.7663313876      -35.9600079194  TIP3      13438           0.0000000000
     90145     13838  TIP3      H1             39.8236320309        5.8829311059      -36.3302451814  TIP3      13438           0.0000000000
     90146     13838  TIP3      H2             41.0108168150        4.9215807202      -36.3389410630  TIP3      13438           0.0000000000
     90147     13839  TIP3      OH2            44.3603892011        5.7874570308      -38.3158762194  TIP3      13439           0.0000000000
     90148     13839  TIP3      H1             45.3139240287        5.9051269900      -38.1415856057  TIP3      13439           0.0000000000
     90149     13839  TIP3      H2             44.1387702836        6.4555273814      -38.9868060887  TIP3      13439           0.0000000000
     90150     13840  TIP3      OH2            50.3149764834        3.3853400935      -31.5843410891  TIP3      13440           0.0000000000
     90151     13840  TIP3      H1             49.6272529980        3.5033633521      -30.8709067654  TIP3      13440           0.0000000000
     90152     13840  TIP3      H2             49.7563972325        3.2210943995      -32.3394834963  TIP3      13440           0.0000000000
     90153     13841  TIP3      OH2            43.0471461906        6.9658800552      -40.7334302118  TIP3      13441           0.0000000000
     90154     13841  TIP3      H1             42.4987083394        6.6004608213      -41.4497841509  TIP3      13441           0.0000000000
     90155     13841  TIP3      H2             43.8779632083        7.1690668276      -41.1904158874  TIP3      13441           0.0000000000
     90156     13842  TIP3      OH2            53.5464190779       19.0497208767      -25.2495193783  TIP3      13442           0.0000000000
     90157     13842  TIP3      H1             53.7918097423       19.4626548171      -26.1010001893  TIP3      13442           0.0000000000
     90158     13842  TIP3      H2             54.2318612414       19.3966750088      -24.6646963780  TIP3      13442           0.0000000000
     90159     13843  TIP3      OH2            41.1885029689       11.5309708870      -25.6794243995  TIP3      13443           0.0000000000
     90160     13843  TIP3      H1             41.9030672830       11.7986089607      -25.0807795036  TIP3      13443           0.0000000000
     90161     13843  TIP3      H2             40.3973001952       11.7033321234      -25.1189942545  TIP3      13443           0.0000000000
     90162     13844  TIP3      OH2            47.1936576381        6.9471026084      -32.9179565517  TIP3      13444           0.0000000000
     90163     13844  TIP3      H1             47.7732817179        6.4033909933      -33.4628179300  TIP3      13444           0.0000000000
     90164     13844  TIP3      H2             47.0553162435        6.4056641037      -32.1301492818  TIP3      13444           0.0000000000
     90165     13845  TIP3      OH2            42.2038956716        3.0895366411      -36.4891102595  TIP3      13445           0.0000000000
     90166     13845  TIP3      H1             41.8971450909        2.1632615088      -36.5253437069  TIP3      13445           0.0000000000
     90167     13845  TIP3      H2             42.9914931804        3.0556700482      -37.0472910390  TIP3      13445           0.0000000000
     90168     13846  TIP3      OH2            45.8336941575        5.2961585160      -30.5107707409  TIP3      13446           0.0000000000
     90169     13846  TIP3      H1             44.9967167388        5.7881855524      -30.4011118019  TIP3      13446           0.0000000000
     90170     13846  TIP3      H2             46.3706812007        5.6152113270      -29.7583895216  TIP3      13446           0.0000000000
     90171     13847  TIP3      OH2            46.4088631910       11.5238027115      -38.8134009349  TIP3      13447           0.0000000000
     90172     13847  TIP3      H1             45.6219247055       11.0276667778      -39.1390668260  TIP3      13447           0.0000000000
     90173     13847  TIP3      H2             46.2230252033       11.5907453712      -37.8567335521  TIP3      13447           0.0000000000
     90174     13848  TIP3      OH2            53.5673856520       10.6684141212      -30.0178294766  TIP3      13448           0.0000000000
     90175     13848  TIP3      H1             54.1678552796       11.1542420065      -30.6056210063  TIP3      13448           0.0000000000
     90176     13848  TIP3      H2             52.7151403224       10.7741803493      -30.4926118168  TIP3      13448           0.0000000000
     90177     13849  TIP3      OH2            50.2811455169        4.3155496512      -40.6222634222  TIP3      13449           0.0000000000
     90178     13849  TIP3      H1             49.3329017430        4.4600645988      -40.7800644147  TIP3      13449           0.0000000000
     90179     13849  TIP3      H2             50.5715610970        5.1960403139      -40.3123133948  TIP3      13449           0.0000000000
     90180     13850  TIP3      OH2            47.9046207131       11.7390022460      -27.5827050210  TIP3      13450           0.0000000000
     90181     13850  TIP3      H1             47.5589633993       11.3406517837      -26.7745874073  TIP3      13450           0.0000000000
     90182     13850  TIP3      H2             47.6829086097       12.6698220290      -27.4933720222  TIP3      13450           0.0000000000
     90183     13851  TIP3      OH2            50.9966179385        6.2222782285      -38.9568893366  TIP3      13451           0.0000000000
     90184     13851  TIP3      H1             51.9079862162        6.0905998213      -38.6316604391  TIP3      13451           0.0000000000
     90185     13851  TIP3      H2             51.0565740043        7.0247078669      -39.4964080921  TIP3      13451           0.0000000000
     90186     13852  TIP3      OH2            41.4917826572       10.8546648363      -33.0371970296  TIP3      13452           0.0000000000
     90187     13852  TIP3      H1             42.2335025819       10.8201883546      -33.6739290418  TIP3      13452           0.0000000000
     90188     13852  TIP3      H2             41.5930820061       10.0128881104      -32.5597191683  TIP3      13452           0.0000000000
     90189     13853  TIP3      OH2            48.5221382569       12.9850313112      -39.7822535173  TIP3      13453           0.0000000000
     90190     13853  TIP3      H1             48.1827659682       13.8211063220      -39.4110147039  TIP3      13453           0.0000000000
     90191     13853  TIP3      H2             47.7840820298       12.3654175351      -39.5871249409  TIP3      13453           0.0000000000
     90192     13854  TIP3      OH2            38.5120133245        9.3035383984      -27.7402120353  TIP3      13454           0.0000000000
     90193     13854  TIP3      H1             38.7294263235        8.8616599361      -26.9028254571  TIP3      13454           0.0000000000
     90194     13854  TIP3      H2             37.9002454829        8.6761657140      -28.1636855752  TIP3      13454           0.0000000000
     90195     13855  TIP3      OH2            45.5156172330        8.8400155297      -25.5198009847  TIP3      13455           0.0000000000
     90196     13855  TIP3      H1             45.2297845263        8.6118361992      -26.4218151368  TIP3      13455           0.0000000000
     90197     13855  TIP3      H2             46.4568288767        8.5750079765      -25.5493079884  TIP3      13455           0.0000000000
     90198     13856  TIP3      OH2            50.1764840626       14.1786369475      -27.6404163965  TIP3      13456           0.0000000000
     90199     13856  TIP3      H1             49.2545481971       14.3720799407      -27.8765013669  TIP3      13456           0.0000000000
     90200     13856  TIP3      H2             50.1777410339       14.4614321041      -26.7027333705  TIP3      13456           0.0000000000
     90201     13857  TIP3      OH2            55.8278566675        6.4356776346      -39.1984289645  TIP3      13457           0.0000000000
     90202     13857  TIP3      H1             55.3041453312        6.0602120166      -39.9436463388  TIP3      13457           0.0000000000
     90203     13857  TIP3      H2             55.9636986193        7.3424706513      -39.5553539315  TIP3      13457           0.0000000000
     90204     13858  TIP3      OH2            55.8562080312       12.1987077409      -26.4103985009  TIP3      13458           0.0000000000
     90205     13858  TIP3      H1             54.9838606223       12.4633992006      -26.7914666837  TIP3      13458           0.0000000000
     90206     13858  TIP3      H2             56.4203702404       12.2250386168      -27.2031321811  TIP3      13458           0.0000000000
     90207     13859  TIP3      OH2            54.1823054611       15.2067418471      -38.8136896351  TIP3      13459           0.0000000000
     90208     13859  TIP3      H1             53.7982921467       14.3829695287      -38.4913890707  TIP3      13459           0.0000000000
     90209     13859  TIP3      H2             54.4664551658       15.0138021757      -39.7234964968  TIP3      13459           0.0000000000
     90210     13860  TIP3      OH2            51.3492245833       10.0285470096      -31.7512024503  TIP3      13460           0.0000000000
     90211     13860  TIP3      H1             50.4091895546        9.7895253951      -31.8214107953  TIP3      13460           0.0000000000
     90212     13860  TIP3      H2             51.7890943945        9.2459208575      -32.1296817811  TIP3      13460           0.0000000000
     90213     13861  TIP3      OH2            43.8885857548       14.3425811448      -35.6354778060  TIP3      13461           0.0000000000
     90214     13861  TIP3      H1             44.4022134825       15.1392145093      -35.8423826929  TIP3      13461           0.0000000000
     90215     13861  TIP3      H2             43.0057280611       14.5810973294      -35.9518326678  TIP3      13461           0.0000000000
     90216     13862  TIP3      OH2            39.6164840734        9.1686835851      -41.0318735842  TIP3      13462           0.0000000000
     90217     13862  TIP3      H1             40.2555347989        9.8356893785      -40.7001820457  TIP3      13462           0.0000000000
     90218     13862  TIP3      H2             38.7616148794        9.5266284493      -40.7821679576  TIP3      13462           0.0000000000
     90219     13863  TIP3      OH2            45.3226894943       12.0068498489      -36.0850751095  TIP3      13463           0.0000000000
     90220     13863  TIP3      H1             45.0387689800       12.9389005604      -36.0196651690  TIP3      13463           0.0000000000
     90221     13863  TIP3      H2             44.5694357016       11.5431294674      -35.6672689843  TIP3      13463           0.0000000000
     90222     13864  TIP3      OH2            45.7825259626       16.1754703007      -29.7338776710  TIP3      13464           0.0000000000
     90223     13864  TIP3      H1             46.1990637437       17.0144963145      -29.9876710027  TIP3      13464           0.0000000000
     90224     13864  TIP3      H2             46.3675142401       15.8666796286      -29.0165987500  TIP3      13464           0.0000000000
     90225     13865  TIP3      OH2            43.9948596308       17.0193803602      -36.5505588451  TIP3      13465           0.0000000000
     90226     13865  TIP3      H1             43.0261802278       17.1467980801      -36.4565589204  TIP3      13465           0.0000000000
     90227     13865  TIP3      H2             44.3445673581       17.8571155189      -36.1923511225  TIP3      13465           0.0000000000
     90228     13866  TIP3      OH2            49.3371946714       12.2398938197      -30.0704734731  TIP3      13466           0.0000000000
     90229     13866  TIP3      H1             48.9461898142       12.0251190362      -29.2018119154  TIP3      13466           0.0000000000
     90230     13866  TIP3      H2             49.9450995812       11.5050498463      -30.2407544681  TIP3      13466           0.0000000000
     90231     13867  TIP3      OH2            51.5675915343       13.2106326189      -40.9792317409  TIP3      13467           0.0000000000
     90232     13867  TIP3      H1             51.9063663904       12.7973467883      -40.1566765164  TIP3      13467           0.0000000000
     90233     13867  TIP3      H2             50.6131524145       13.0848957367      -40.8834514590  TIP3      13467           0.0000000000
     90234     13868  TIP3      OH2            52.0499903508       16.7987207031      -27.5684753497  TIP3      13468           0.0000000000
     90235     13868  TIP3      H1             51.4127511361       16.2665662047      -28.0802025516  TIP3      13468           0.0000000000
     90236     13868  TIP3      H2             52.3008613663       17.4837366368      -28.2232493480  TIP3      13468           0.0000000000
     90237     13869  TIP3      OH2            56.0652691552       17.6552637943      -40.7698795587  TIP3      13469           0.0000000000
     90238     13869  TIP3      H1             56.8116424958       18.2694598338      -40.9252429603  TIP3      13469           0.0000000000
     90239     13869  TIP3      H2             55.3649876820       18.2592746068      -40.4475420202  TIP3      13469           0.0000000000
     90240     13870  TIP3      OH2            40.1601630987        4.0429349596      -28.1886958342  TIP3      13470           0.0000000000
     90241     13870  TIP3      H1             39.2495859902        4.3846105822      -28.2350305828  TIP3      13470           0.0000000000
     90242     13870  TIP3      H2             40.0490666123        3.1827480418      -27.7547666426  TIP3      13470           0.0000000000
     90243     13871  TIP3      OH2            52.4170017057       11.8749272365      -38.7587757802  TIP3      13471           0.0000000000
     90244     13871  TIP3      H1             52.1588989941       11.1114161951      -38.2029436356  TIP3      13471           0.0000000000
     90245     13871  TIP3      H2             53.3590515455       11.9672114611      -38.5372432244  TIP3      13471           0.0000000000
     90246     13872  TIP3      OH2            39.7953494059       15.8450484553      -29.7608141100  TIP3      13472           0.0000000000
     90247     13872  TIP3      H1             40.0398077977       14.9052972932      -29.7655756283  TIP3      13472           0.0000000000
     90248     13872  TIP3      H2             40.0449764790       16.1145068751      -28.8676775277  TIP3      13472           0.0000000000
     90249     13873  TIP3      OH2            44.5767446012       13.8830247155      -40.0653222503  TIP3      13473           0.0000000000
     90250     13873  TIP3      H1             44.7647721608       13.3472046010      -39.2859398218  TIP3      13473           0.0000000000
     90251     13873  TIP3      H2             44.5995044030       14.8024828449      -39.7447912847  TIP3      13473           0.0000000000
     90252     13874  TIP3      OH2            41.0405613629       11.1225440084      -39.5676412698  TIP3      13474           0.0000000000
     90253     13874  TIP3      H1             40.3558498417       11.5052887366      -38.9915929279  TIP3      13474           0.0000000000
     90254     13874  TIP3      H2             41.5778113975       11.8909247757      -39.8274804585  TIP3      13474           0.0000000000
     90255     13875  TIP3      OH2            48.8964175872        3.7972102015      -29.2897340634  TIP3      13475           0.0000000000
     90256     13875  TIP3      H1             49.5896920616        3.8601979277      -28.6233374089  TIP3      13475           0.0000000000
     90257     13875  TIP3      H2             48.5001864718        2.9214360950      -29.0910128314  TIP3      13475           0.0000000000
     90258     13876  TIP3      OH2            49.6601791584        3.4064244512      -38.1561296445  TIP3      13476           0.0000000000
     90259     13876  TIP3      H1             49.8799028974        3.8895861652      -38.9887815316  TIP3      13476           0.0000000000
     90260     13876  TIP3      H2             50.2299338263        3.8432604850      -37.5278983174  TIP3      13476           0.0000000000
     90261     13877  TIP3      OH2            47.3335669784       15.5541417535      -39.3284131954  TIP3      13477           0.0000000000
     90262     13877  TIP3      H1             46.5126026870       16.0708365792      -39.2739247178  TIP3      13477           0.0000000000
     90263     13877  TIP3      H2             47.8671307691       16.0558678568      -39.9652265260  TIP3      13477           0.0000000000
     90264     13878  TIP3      OH2            46.8573855961        5.1544390364      -37.3516802134  TIP3      13478           0.0000000000
     90265     13878  TIP3      H1             47.6676093146        5.6962345573      -37.3157734516  TIP3      13478           0.0000000000
     90266     13878  TIP3      H2             46.6059420359        5.0209247143      -36.4249580536  TIP3      13478           0.0000000000
     90267     13879  TIP3      OH2            47.4126640476        6.1484891202      -28.1645605706  TIP3      13479           0.0000000000
     90268     13879  TIP3      H1             47.5092733611        6.7354770765      -27.3938087987  TIP3      13479           0.0000000000
     90269     13879  TIP3      H2             48.0688901666        5.4560503008      -28.0567811469  TIP3      13479           0.0000000000
     90270     13880  TIP3      OH2            47.7585479006        2.2105968843      -36.4085866867  TIP3      13480           0.0000000000
     90271     13880  TIP3      H1             47.3898350872        2.8623211211      -35.7890657189  TIP3      13480           0.0000000000
     90272     13880  TIP3      H2             48.4053436497        2.7589283460      -36.9118715470  TIP3      13480           0.0000000000
     90273     13881  TIP3      OH2            44.6787718199       16.5915912360      -39.3358603098  TIP3      13481           0.0000000000
     90274     13881  TIP3      H1             44.8473343668       17.4176233161      -39.8349576534  TIP3      13481           0.0000000000
     90275     13881  TIP3      H2             44.4663214111       16.9270234662      -38.4398102574  TIP3      13481           0.0000000000
     90276     13882  TIP3      OH2            43.3949277964        3.2868204732      -39.7317540554  TIP3      13482           0.0000000000
     90277     13882  TIP3      H1             43.3255286569        4.2008154512      -39.3748891586  TIP3      13482           0.0000000000
     90278     13882  TIP3      H2             44.3032952886        3.0536523188      -39.4726283103  TIP3      13482           0.0000000000
     90279     13883  TIP3      OH2            53.6052856374        4.0352538904      -27.3054707257  TIP3      13483           0.0000000000
     90280     13883  TIP3      H1             52.6749369702        4.3272750124      -27.4342566663  TIP3      13483           0.0000000000
     90281     13883  TIP3      H2             53.9281594863        4.0405240149      -28.2191213800  TIP3      13483           0.0000000000
     90282     13884  TIP3      OH2            52.1897021469        7.8190516765      -33.2518310749  TIP3      13484           0.0000000000
     90283     13884  TIP3      H1             51.3853517025        7.3844117659      -33.5644061926  TIP3      13484           0.0000000000
     90284     13884  TIP3      H2             52.6720495368        7.1232493745      -32.7500958680  TIP3      13484           0.0000000000
     90285     13885  TIP3      OH2            41.6449226196       13.7329869324      -40.6734477380  TIP3      13485           0.0000000000
     90286     13885  TIP3      H1             42.2652438483       14.4145519582      -40.3978211954  TIP3      13485           0.0000000000
     90287     13885  TIP3      H2             42.1371348713       13.2884117385      -41.3945600280  TIP3      13485           0.0000000000
     90288     13886  TIP3      OH2            39.9988036469        6.4051673712      -41.5276045467  TIP3      13486           0.0000000000
     90289     13886  TIP3      H1             39.9528083578        7.3647515749      -41.3783321779  TIP3      13486           0.0000000000
     90290     13886  TIP3      H2             39.1102137046        6.1824492967      -41.8361480966  TIP3      13486           0.0000000000
     90291     13887  TIP3      OH2            53.2756207018       17.0653682849      -31.6062426714  TIP3      13487           0.0000000000
     90292     13887  TIP3      H1             53.1574271040       17.7513940725      -32.2895968068  TIP3      13487           0.0000000000
     90293     13887  TIP3      H2             54.2379179305       17.1386831488      -31.4301285329  TIP3      13487           0.0000000000
     90294     13888  TIP3      OH2            40.7875181605        1.1944239819      -32.8478878729  TIP3      13488           0.0000000000
     90295     13888  TIP3      H1             40.5611426128        1.2291815822      -33.8034260544  TIP3      13488           0.0000000000
     90296     13888  TIP3      H2             40.3449965720        0.3677758844      -32.5700999566  TIP3      13488           0.0000000000
     90297     13889  TIP3      OH2            39.7280179426       15.1128981433      -36.6966054197  TIP3      13489           0.0000000000
     90298     13889  TIP3      H1             38.8831885518       15.5885143330      -36.7012321338  TIP3      13489           0.0000000000
     90299     13889  TIP3      H2             40.2426700689       15.6171310915      -37.3395504984  TIP3      13489           0.0000000000
     90300     13890  TIP3      OH2            38.9926923971       17.7457632611      -25.3865402352  TIP3      13490           0.0000000000
     90301     13890  TIP3      H1             39.5410704554       17.5247225156      -24.6205700537  TIP3      13490           0.0000000000
     90302     13890  TIP3      H2             38.5230584916       16.9151180117      -25.5605425249  TIP3      13490           0.0000000000
     90303     13891  TIP3      OH2            43.6184515200       16.6698408535      -23.7847299721  TIP3      13491           0.0000000000
     90304     13891  TIP3      H1             44.3758403732       16.1900962192      -23.4346580533  TIP3      13491           0.0000000000
     90305     13891  TIP3      H2             43.5837932818       16.4057518747      -24.7157002613  TIP3      13491           0.0000000000
     90306     13892  TIP3      OH2            48.0233202851       16.3289368540      -41.9127284434  TIP3      13492           0.0000000000
     90307     13892  TIP3      H1             47.2297316512       15.7258686869      -41.9622121228  TIP3      13492           0.0000000000
     90308     13892  TIP3      H2             48.4952709686       15.7438360786      -42.5150065762  TIP3      13492           0.0000000000
     90309     13893  TIP3      OH2            50.1474666692       15.0556343421      -25.0444666089  TIP3      13493           0.0000000000
     90310     13893  TIP3      H1             49.8258856766       14.1710544982      -24.7813870643  TIP3      13493           0.0000000000
     90311     13893  TIP3      H2             50.9076853928       15.1844688771      -24.4394441226  TIP3      13493           0.0000000000
     90312     13894  TIP3      OH2            52.2930539099       15.9824242871      -42.1703453348  TIP3      13494           0.0000000000
     90313     13894  TIP3      H1             52.5780065917       15.1745376337      -41.7018325383  TIP3      13494           0.0000000000
     90314     13894  TIP3      H2             53.0615200486       16.1978332211      -42.7146797747  TIP3      13494           0.0000000000
     90315     13895  TIP3      OH2            38.8897408445       11.5408146382      -24.4043687118  TIP3      13495           0.0000000000
     90316     13895  TIP3      H1             39.0482226000       10.6396068395      -24.7333252536  TIP3      13495           0.0000000000
     90317     13895  TIP3      H2             38.1260170294       11.8307941589      -24.9386642230  TIP3      13495           0.0000000000
     90318     13896  TIP3      OH2            43.3149108150       11.9413992599      -42.2044380656  TIP3      13496           0.0000000000
     90319     13896  TIP3      H1             43.3227752335       11.0831694352      -41.7762288998  TIP3      13496           0.0000000000
     90320     13896  TIP3      H2             43.8602136811       11.7470844271      -42.9964049992  TIP3      13496           0.0000000000
     90321     13897  TIP3      OH2            45.5623722585       11.5207892505      -24.9830490142  TIP3      13497           0.0000000000
     90322     13897  TIP3      H1             45.2379312692       11.8114902368      -25.8612629725  TIP3      13497           0.0000000000
     90323     13897  TIP3      H2             45.6960629271       10.5552455609      -25.1017017929  TIP3      13497           0.0000000000
     90324     13898  TIP3      OH2            51.2810261630       11.4044925694      -27.6262921516  TIP3      13498           0.0000000000
     90325     13898  TIP3      H1             52.0501749386       12.0103682982      -27.7146339333  TIP3      13498           0.0000000000
     90326     13898  TIP3      H2             50.5511757716       12.0347206740      -27.5661909341  TIP3      13498           0.0000000000
     90327     13899  TIP3      OH2            39.7381355602        8.7653517184      -25.0019763934  TIP3      13499           0.0000000000
     90328     13899  TIP3      H1             40.1607613471        7.9041036491      -25.1386184438  TIP3      13499           0.0000000000
     90329     13899  TIP3      H2             39.4981955794        8.7552212263      -24.0844940670  TIP3      13499           0.0000000000
     90330     13900  TIP3      OH2            44.4121648395        9.8991075335      -39.9748629598  TIP3      13500           0.0000000000
     90331     13900  TIP3      H1             43.9282645291        9.3769754486      -39.3127128916  TIP3      13500           0.0000000000
     90332     13900  TIP3      H2             44.6759816572        9.2028016265      -40.6221026224  TIP3      13500           0.0000000000
     90333     13901  TIP3      OH2            43.6849208708        7.7277775431      -27.6379918217  TIP3      13501           0.0000000000
     90334     13901  TIP3      H1             43.0715071394        8.4315492530      -27.3663017869  TIP3      13501           0.0000000000
     90335     13901  TIP3      H2             44.0430739031        8.0787389099      -28.4722470041  TIP3      13501           0.0000000000
     90336     13902  TIP3      OH2            45.4693580971        8.1156802352      -41.7350626698  TIP3      13502           0.0000000000
     90337     13902  TIP3      H1             45.3172164013        7.9466844870      -42.6731665639  TIP3      13502           0.0000000000
     90338     13902  TIP3      H2             46.4473315728        8.2121449814      -41.6690013030  TIP3      13502           0.0000000000
     90339     13903  TIP3      OH2            48.7143096596       10.2456917272      -24.3289491384  TIP3      13503           0.0000000000
     90340     13903  TIP3      H1             49.6823648127       10.2946573618      -24.3924581033  TIP3      13503           0.0000000000
     90341     13903  TIP3      H2             48.5572772418        9.5127479558      -23.7186808236  TIP3      13503           0.0000000000
     90342     13904  TIP3      OH2            54.7379229581       10.5369557929       42.7792336100  TIP3      13504           0.0000000000
     90343     13904  TIP3      H1             54.5852121762       10.0558709578       41.9340827938  TIP3      13504           0.0000000000
     90344     13904  TIP3      H2             54.8887729914       11.4442522694       42.4963210846  TIP3      13504           0.0000000000
     90345     13905  TIP3      OH2            44.0615249300        5.1000980633      -26.5588791988  TIP3      13505           0.0000000000
     90346     13905  TIP3      H1             44.1804440852        4.3763426311      -27.1974039422  TIP3      13505           0.0000000000
     90347     13905  TIP3      H2             44.0294437731        5.8967174239      -27.1302792517  TIP3      13505           0.0000000000
     90348     13906  TIP3      OH2            44.4624432707        3.4748225466      -29.0403273389  TIP3      13506           0.0000000000
     90349     13906  TIP3      H1             44.9853680339        3.9347620105      -29.7374433569  TIP3      13506           0.0000000000
     90350     13906  TIP3      H2             43.5813002285        3.3798398822      -29.4717229544  TIP3      13506           0.0000000000
     90351     13907  TIP3      OH2            46.0210465719        8.9266028759      -28.8124341158  TIP3      13507           0.0000000000
     90352     13907  TIP3      H1             46.7767329439        8.7731478703      -29.3886244143  TIP3      13507           0.0000000000
     90353     13907  TIP3      H2             45.6743966131        9.7818659400      -29.1103166322  TIP3      13507           0.0000000000
     90354     13908  TIP3      OH2            50.5176534864        6.9580276202      -23.8863415254  TIP3      13508           0.0000000000
     90355     13908  TIP3      H1             50.8179692965        6.0704665756      -24.0269233371  TIP3      13508           0.0000000000
     90356     13908  TIP3      H2             51.4222308926        7.2914596702      -23.7944787603  TIP3      13508           0.0000000000
     90357     13909  TIP3      OH2            51.7398365719        9.4991667904      -25.7043837199  TIP3      13509           0.0000000000
     90358     13909  TIP3      H1             51.4913533598       10.2377135540      -26.3022492112  TIP3      13509           0.0000000000
     90359     13909  TIP3      H2             52.7110414401        9.4686824693      -25.8701128934  TIP3      13509           0.0000000000
     90360     13910  TIP3      OH2            42.5294751757        6.3365180018      -24.6334571469  TIP3      13510           0.0000000000
     90361     13910  TIP3      H1             41.7557756491        5.7700572599      -24.8567290138  TIP3      13510           0.0000000000
     90362     13910  TIP3      H2             43.1851795227        5.9816254621      -25.2683348195  TIP3      13510           0.0000000000
     90363     13911  TIP3      OH2            45.2580524723        0.9119386428      -28.6230275287  TIP3      13511           0.0000000000
     90364     13911  TIP3      H1             45.1239128292        1.8817758534      -28.7447736660  TIP3      13511           0.0000000000
     90365     13911  TIP3      H2             44.5035035848        0.5585847683      -29.1273312161  TIP3      13511           0.0000000000
     90366     13912  TIP3      OH2            46.5395739165        5.2198263245      -25.0488314154  TIP3      13512           0.0000000000
     90367     13912  TIP3      H1             46.2554360367        5.0266373732      -24.1523792128  TIP3      13512           0.0000000000
     90368     13912  TIP3      H2             45.7265509547        5.0576588963      -25.5889229826  TIP3      13512           0.0000000000
     90369     13913  TIP3      OH2            49.2533073851        4.4136984742      -25.9268208142  TIP3      13513           0.0000000000
     90370     13913  TIP3      H1             48.2733479462        4.4077326730      -25.8712127529  TIP3      13513           0.0000000000
     90371     13913  TIP3      H2             49.5309540250        3.6981462294      -25.3387691095  TIP3      13513           0.0000000000
     90372     13914  TIP3      OH2            50.8283025567        3.0402341360      -24.0004763376  TIP3      13514           0.0000000000
     90373     13914  TIP3      H1             50.7771543153        2.0473912207      -24.0110073497  TIP3      13514           0.0000000000
     90374     13914  TIP3      H2             50.5718623019        3.2238866132      -23.0802358935  TIP3      13514           0.0000000000
     90375     13915  TIP3      OH2            40.6725953224        4.2584909877      -24.9314621245  TIP3      13515           0.0000000000
     90376     13915  TIP3      H1             40.8914175385        3.5290389454      -25.5460475964  TIP3      13515           0.0000000000
     90377     13915  TIP3      H2             40.5619119069        3.7903805558      -24.0979930996  TIP3      13515           0.0000000000
     90378     13916  TIP3      OH2            45.4712909084        0.2630295009      -25.9441354734  TIP3      13516           0.0000000000
     90379     13916  TIP3      H1             46.1806735810       -0.4178378928      -25.9695258964  TIP3      13516           0.0000000000
     90380     13916  TIP3      H2             45.3715907312        0.4743724042      -26.8894040878  TIP3      13516           0.0000000000
     90381     13917  TIP3      OH2            45.8255994919        1.9414321237      -23.8725372166  TIP3      13517           0.0000000000
     90382     13917  TIP3      H1             45.6866020177        1.4118974852      -24.7123839644  TIP3      13517           0.0000000000
     90383     13917  TIP3      H2             45.2113616424        2.6516653388      -24.0006795887  TIP3      13517           0.0000000000
     90384     13918  TIP3      OH2            45.3453935498       18.8000955920      -40.7424349430  TIP3      13518           0.0000000000
     90385     13918  TIP3      H1             46.3042751317       18.9407874928      -40.5807913328  TIP3      13518           0.0000000000
     90386     13918  TIP3      H2             45.1127127371       19.4839961234      -41.3590855791  TIP3      13518           0.0000000000
     90387     13919  TIP3      OH2            38.9017650450       13.4242527010      -41.2155919419  TIP3      13519           0.0000000000
     90388     13919  TIP3      H1             39.8606455960       13.5049883404      -40.9862696569  TIP3      13519           0.0000000000
     90389     13919  TIP3      H2             38.9407018786       12.7747299112      -41.9261927096  TIP3      13519           0.0000000000
     90390     13920  TIP3      OH2            37.6240222418       18.8121927393      -36.2025306895  TIP3      13520           0.0000000000
     90391     13920  TIP3      H1             36.9328414552       18.3311328070      -36.7039975575  TIP3      13520           0.0000000000
     90392     13920  TIP3      H2             37.9352337047       18.1392941914      -35.5757513693  TIP3      13520           0.0000000000
     90393     13921  TIP3      OH2            38.4642923347       16.9133479253      -34.3719465058  TIP3      13521           0.0000000000
     90394     13921  TIP3      H1             38.1207435617       16.0284739383      -34.1790392932  TIP3      13521           0.0000000000
     90395     13921  TIP3      H2             38.6873312666       17.2483732415      -33.4851990097  TIP3      13521           0.0000000000
     90396     13922  TIP3      OH2            55.9669154915       17.7108677371      -31.3888834799  TIP3      13522           0.0000000000
     90397     13922  TIP3      H1             55.9973085736       17.8961521405      -30.4384895022  TIP3      13522           0.0000000000
     90398     13922  TIP3      H2             56.6966230493       18.2661185468      -31.7180215205  TIP3      13522           0.0000000000
     90399     13923  TIP3      OH2            55.5922722523       17.3017362108      -28.4733077908  TIP3      13523           0.0000000000
     90400     13923  TIP3      H1             55.0846193130       16.5386889336      -28.8415216433  TIP3      13523           0.0000000000
     90401     13923  TIP3      H2             56.1111103184       16.8805815479      -27.7756762083  TIP3      13523           0.0000000000
     90402     13924  TIP3      OH2            54.0252240035       13.0489503639      -23.8128264037  TIP3      13524           0.0000000000
     90403     13924  TIP3      H1             53.1419893962       12.9760992076      -23.4160440517  TIP3      13524           0.0000000000
     90404     13924  TIP3      H2             54.4021953632       13.8460558915      -23.3767065249  TIP3      13524           0.0000000000
     90405     13925  TIP3      OH2            55.3001345580       11.3240502249      -38.3473802660  TIP3      13525           0.0000000000
     90406     13925  TIP3      H1             56.1589277176       11.7609500232      -38.1718014565  TIP3      13525           0.0000000000
     90407     13925  TIP3      H2             55.3191647786       10.6030464821      -37.6856199260  TIP3      13525           0.0000000000
     90408     13926  TIP3      OH2            55.7108505512        9.4277566271      -36.4991069400  TIP3      13526           0.0000000000
     90409     13926  TIP3      H1             54.9604542536        8.9203497680      -36.0964155935  TIP3      13526           0.0000000000
     90410     13926  TIP3      H2             56.2923618692        9.6022905433      -35.7254802259  TIP3      13526           0.0000000000
     90411     13927  TIP3      OH2            55.4701851794       12.1411876403      -31.5043239827  TIP3      13527           0.0000000000
     90412     13927  TIP3      H1             56.3101250163       11.7745428334      -31.8375281360  TIP3      13527           0.0000000000
     90413     13927  TIP3      H2             55.5894019914       13.1058420920      -31.6770351390  TIP3      13527           0.0000000000
     90414     13928  TIP3      OH2            53.9795504036       15.0260350790      -29.2274485111  TIP3      13528           0.0000000000
     90415     13928  TIP3      H1             53.3110936108       15.3759346458      -28.6164110765  TIP3      13528           0.0000000000
     90416     13928  TIP3      H2             53.4337835313       14.6107754214      -29.9239057881  TIP3      13528           0.0000000000
     90417     13929  TIP3      OH2            55.9384224562        9.2516387105      -40.0734030435  TIP3      13529           0.0000000000
     90418     13929  TIP3      H1             55.4301265661        9.6416523582      -40.8168241584  TIP3      13529           0.0000000000
     90419     13929  TIP3      H2             55.9308935316        9.9826386413      -39.4261382051  TIP3      13529           0.0000000000
     90420     13930  TIP3      OH2            54.0841696443        6.5329331746      -41.4576352463  TIP3      13530           0.0000000000
     90421     13930  TIP3      H1             54.4283456086        7.1391302934      -42.1549199575  TIP3      13530           0.0000000000
     90422     13930  TIP3      H2             54.1923154149        5.7133509899      -41.9894237869  TIP3      13530           0.0000000000
     90423     13931  TIP3      OH2            53.5309777422        7.9096516705      -35.9286230301  TIP3      13531           0.0000000000
     90424     13931  TIP3      H1             53.3496490183        6.9588232441      -35.9519618442  TIP3      13531           0.0000000000
     90425     13931  TIP3      H2             53.1579213838        8.1663755689      -35.0661026291  TIP3      13531           0.0000000000
     90426     13932  TIP3      OH2            38.5157031327        9.9952521486      -31.8985184583  TIP3      13532           0.0000000000
     90427     13932  TIP3      H1             38.7480170892        9.9004887408      -32.8410641598  TIP3      13532           0.0000000000
     90428     13932  TIP3      H2             39.4008649545        9.8437977174      -31.4937578831  TIP3      13532           0.0000000000
     90429     13933  TIP3      OH2            54.3544659533        9.8668204021      -26.2732701684  TIP3      13533           0.0000000000
     90430     13933  TIP3      H1             54.9573143370        9.1282304900      -26.0693389862  TIP3      13533           0.0000000000
     90431     13933  TIP3      H2             54.9323246123       10.6554743548      -26.2403984506  TIP3      13533           0.0000000000
     90432     13934  TIP3      OH2            55.8775988984        7.7887600175      -25.6507141780  TIP3      13534           0.0000000000
     90433     13934  TIP3      H1             54.9801781798        7.3870794815      -25.7423880819  TIP3      13534           0.0000000000
     90434     13934  TIP3      H2             56.4293494880        6.9909640085      -25.6610277406  TIP3      13534           0.0000000000
     90435     13935  TIP3      OH2            53.5912037802        3.9232848638      -42.4586574366  TIP3      13535           0.0000000000
     90436     13935  TIP3      H1             54.1937194212        3.5341537065      -41.7962225225  TIP3      13535           0.0000000000
     90437     13935  TIP3      H2             52.7364869937        3.5209267622      -42.2420559669  TIP3      13535           0.0000000000
     90438     13936  TIP3      OH2            53.1970682482        5.4933704337      -37.4402812014  TIP3      13536           0.0000000000
     90439     13936  TIP3      H1             53.5032721123        4.5645660185      -37.3502818647  TIP3      13536           0.0000000000
     90440     13936  TIP3      H2             53.9674472600        5.9150721543      -37.8569510489  TIP3      13536           0.0000000000
     90441     13937  TIP3      OH2            53.7716792379        6.0294917313      -32.0368037239  TIP3      13537           0.0000000000
     90442     13937  TIP3      H1             54.7465774473        6.2719204527      -32.0469185533  TIP3      13537           0.0000000000
     90443     13937  TIP3      H2             53.6022079909        6.1806422723      -31.0913082588  TIP3      13537           0.0000000000
     90444     13938  TIP3      OH2            53.8673050134        6.7734282885      -29.2562558456  TIP3      13538           0.0000000000
     90445     13938  TIP3      H1             53.0087177907        7.0741460909      -28.8914653680  TIP3      13538           0.0000000000
     90446     13938  TIP3      H2             54.3110036022        7.6284239667      -29.4635238022  TIP3      13538           0.0000000000
     90447     13939  TIP3      OH2            38.1243149275        5.2835474663      -25.7464665229  TIP3      13539           0.0000000000
     90448     13939  TIP3      H1             39.0640239555        5.1088082453      -25.5402695232  TIP3      13539           0.0000000000
     90449     13939  TIP3      H2             37.6859934375        4.4792069152      -25.3997516671  TIP3      13539           0.0000000000
     90450     13940  TIP3      OH2            53.8022140281        2.7864534010      -37.3997879334  TIP3      13540           0.0000000000
     90451     13940  TIP3      H1             54.0380234855        2.3065872935      -36.5856701479  TIP3      13540           0.0000000000
     90452     13940  TIP3      H2             53.2314746990        2.1500655849      -37.8867771619  TIP3      13540           0.0000000000
     90453     13941  TIP3      OH2            39.3418686032        3.5758126607      -32.8777609441  TIP3      13541           0.0000000000
     90454     13941  TIP3      H1             39.8067576999        2.7656831968      -32.5848275276  TIP3      13541           0.0000000000
     90455     13941  TIP3      H2             39.8481543433        4.2835743677      -32.4564768825  TIP3      13541           0.0000000000
     90456     13942  TIP3      OH2            37.6221810990        6.5780132909      -31.8244733872  TIP3      13542           0.0000000000
     90457     13942  TIP3      H1             38.1808592185        6.3370780339      -32.5935708819  TIP3      13542           0.0000000000
     90458     13942  TIP3      H2             38.0597613267        7.3920527131      -31.5355485567  TIP3      13542           0.0000000000
     90459     13943  TIP3      OH2            55.6777035205        2.8868428243      -25.5250776582  TIP3      13543           0.0000000000
     90460     13943  TIP3      H1             54.7458848456        3.1657932553      -25.5951325035  TIP3      13543           0.0000000000
     90461     13943  TIP3      H2             55.7557551544        2.3493873192      -26.3287301686  TIP3      13543           0.0000000000
     90462     13944  TIP3      OH2            55.6679585050        2.8186846042      -40.8769120741  TIP3      13544           0.0000000000
     90463     13944  TIP3      H1             56.1128239359        2.1034596356      -41.3549128508  TIP3      13544           0.0000000000
     90464     13944  TIP3      H2             56.3839621074        3.4839707773      -40.8331578599  TIP3      13544           0.0000000000
     90465     13945  TIP3      OH2            37.9833398033        2.8248058174      -37.7577420169  TIP3      13545           0.0000000000
     90466     13945  TIP3      H1             37.0498230528        3.0428048159      -37.8878556219  TIP3      13545           0.0000000000
     90467     13945  TIP3      H2             38.4212434063        3.3230371177      -38.4652009236  TIP3      13545           0.0000000000
     90468     13946  TIP3      OH2            52.7312544716       17.8035612929      -35.7993307297  TIP3      13546           0.0000000000
     90469     13946  TIP3      H1             53.4002506646       17.4719185346      -36.4249116314  TIP3      13546           0.0000000000
     90470     13946  TIP3      H2             53.2703999893       18.2914477286      -35.1585362734  TIP3      13546           0.0000000000
     90471     13947  TIP3      OH2            37.9473914943        1.5364660498      -29.4293565011  TIP3      13547           0.0000000000
     90472     13947  TIP3      H1             37.2674369967        1.3145374112      -28.7695877559  TIP3      13547           0.0000000000
     90473     13947  TIP3      H2             37.4843753858        2.1883825894      -29.9955376969  TIP3      13547           0.0000000000
     90474     13948  TIP3      OH2            40.1502243266       14.7206146502      -25.2843547515  TIP3      13548           0.0000000000
     90475     13948  TIP3      H1             39.3074434030       14.9201657886      -25.7167853422  TIP3      13548           0.0000000000
     90476     13948  TIP3      H2             39.8845694347       14.6542797554      -24.3553969263  TIP3      13548           0.0000000000
     90477     13949  TIP3      OH2            43.0738793708       15.6967379346      -29.0073611986  TIP3      13549           0.0000000000
     90478     13949  TIP3      H1             42.6943340424       16.5389340214      -29.2936788883  TIP3      13549           0.0000000000
     90479     13949  TIP3      H2             43.9980807001       15.8018022129      -29.3187512449  TIP3      13549           0.0000000000
     90480     13950  TIP3      OH2            47.3912987887       17.1181959795      -26.0749925188  TIP3      13550           0.0000000000
     90481     13950  TIP3      H1             47.5720964488       16.7781714633      -25.1610721473  TIP3      13550           0.0000000000
     90482     13950  TIP3      H2             48.2733207412       17.4230664872      -26.3634622473  TIP3      13550           0.0000000000
     90483     13951  TIP3      OH2            49.7069031576       18.3929365015      -26.8087358370  TIP3      13551           0.0000000000
     90484     13951  TIP3      H1             50.4252977722       17.7782712346      -27.0418662572  TIP3      13551           0.0000000000
     90485     13951  TIP3      H2             50.0717727217       18.8070949689      -25.9970894109  TIP3      13551           0.0000000000
     90486     13952  TIP3      OH2            54.6561116969        1.0024296132      -27.6843378645  TIP3      13552           0.0000000000
     90487     13952  TIP3      H1             53.8412177140        1.3061780089      -28.1186613556  TIP3      13552           0.0000000000
     90488     13952  TIP3      H2             54.8731179574        0.2124706199      -28.2356351956  TIP3      13552           0.0000000000
     90489     13953  TIP3      OH2            40.5018308093       18.9522193775      -28.9870758684  TIP3      13553           0.0000000000
     90490     13953  TIP3      H1             39.7666181881       19.4233997143      -29.4125622197  TIP3      13553           0.0000000000
     90491     13953  TIP3      H2             40.1443246414       18.7284659093      -28.1167709794  TIP3      13553           0.0000000000
     90492     13954  TIP3      OH2            42.9722778876       18.5385207055      -29.9329601714  TIP3      13554           0.0000000000
     90493     13954  TIP3      H1             42.0769800219       18.6513214763      -29.5343499788  TIP3      13554           0.0000000000
     90494     13954  TIP3      H2             42.8995875388       19.1169107485      -30.7185972948  TIP3      13554           0.0000000000
     90495     13955  TIP3      OH2            47.6701714901       18.4392113428      -30.7642648521  TIP3      13555           0.0000000000
     90496     13955  TIP3      H1             47.2080494547       18.9893047488      -31.4175473992  TIP3      13555           0.0000000000
     90497     13955  TIP3      H2             47.8209055493       19.0694533123      -30.0297728059  TIP3      13555           0.0000000000
     90498     13956  TIP3      OH2            49.9889480693       17.2893090065      -29.7887628783  TIP3      13556           0.0000000000
     90499     13956  TIP3      H1             49.0954041027       17.5118189592      -30.0940343403  TIP3      13556           0.0000000000
     90500     13956  TIP3      H2             50.4247239611       18.1547589305      -29.8702173586  TIP3      13556           0.0000000000
     90501     13957  TIP3      OH2            52.5828083057       18.8595176323      -29.5068541036  TIP3      13557           0.0000000000
     90502     13957  TIP3      H1             52.4408136210       19.8074500588      -29.7393027027  TIP3      13557           0.0000000000
     90503     13957  TIP3      H2             52.7675168724       18.4751265985      -30.3835348210  TIP3      13557           0.0000000000
     90504     13958  TIP3      OH2            39.9152116815       17.5970942381      -32.0660480275  TIP3      13558           0.0000000000
     90505     13958  TIP3      H1             39.8774979203       17.1490303028      -31.1937960022  TIP3      13558           0.0000000000
     90506     13958  TIP3      H2             40.7379500174       17.2476010280      -32.4647136298  TIP3      13558           0.0000000000
     90507     13959  TIP3      OH2            42.0287887810       16.3092944328      -33.4142698493  TIP3      13559           0.0000000000
     90508     13959  TIP3      H1             41.8420236839       15.3743887841      -33.2111555146  TIP3      13559           0.0000000000
     90509     13959  TIP3      H2             42.8813847385       16.4416675131      -32.9416191255  TIP3      13559           0.0000000000
     90510     13960  TIP3      OH2            44.6009793971       16.7864715285      -32.5495719755  TIP3      13560           0.0000000000
     90511     13960  TIP3      H1             44.7976044739       15.8729180731      -32.8234595432  TIP3      13560           0.0000000000
     90512     13960  TIP3      H2             44.6583058319       16.7207816886      -31.5866371391  TIP3      13560           0.0000000000
     90513     13961  TIP3      OH2            48.1241376424        2.4398559983      -33.3953489702  TIP3      13561           0.0000000000
     90514     13961  TIP3      H1             47.4126559419        1.8090143995      -33.1422181174  TIP3      13561           0.0000000000
     90515     13961  TIP3      H2             48.6202400342        1.9039516315      -34.0155180486  TIP3      13561           0.0000000000
     90516     13962  TIP3      OH2            53.2279110329        0.5296549964      -33.2913003314  TIP3      13562           0.0000000000
     90517     13962  TIP3      H1             53.8643911123        1.0808031995      -33.8200116774  TIP3      13562           0.0000000000
     90518     13962  TIP3      H2             52.3604293590        0.8139948591      -33.5386970727  TIP3      13562           0.0000000000
     90519     13963  TIP3      OH2            54.8782855214        1.7145268432      -34.9861240826  TIP3      13563           0.0000000000
     90520     13963  TIP3      H1             55.5654215278        1.1761436979      -35.4749894922  TIP3      13563           0.0000000000
     90521     13963  TIP3      H2             55.3611638324        2.5724471040      -34.9397140583  TIP3      13563           0.0000000000
     90522     13964  TIP3      OH2            40.4418543103        1.0760743897      -35.5686920874  TIP3      13564           0.0000000000
     90523     13964  TIP3      H1             39.6481466960        0.8416255879      -36.0889003381  TIP3      13564           0.0000000000
     90524     13964  TIP3      H2             40.9388906467        0.2382987246      -35.5943611872  TIP3      13564           0.0000000000
     90525     13965  TIP3      OH2            39.2361859266        0.8401575717      -39.7994315935  TIP3      13565           0.0000000000
     90526     13965  TIP3      H1             39.7023973330        1.4752955156      -40.3773946227  TIP3      13565           0.0000000000
     90527     13965  TIP3      H2             38.6369522598        1.4093802710      -39.2935171907  TIP3      13565           0.0000000000
     90528     13966  TIP3      OH2            44.9630527055        0.9897571931      -35.7746597771  TIP3      13566           0.0000000000
     90529     13966  TIP3      H1             45.8569420863        1.3693352587      -35.8137032900  TIP3      13566           0.0000000000
     90530     13966  TIP3      H2             44.8786375406        0.7787387287      -34.8446531697  TIP3      13566           0.0000000000
     90531     13967  TIP3      OH2            50.3372303109        0.7903824599      -34.1705114580  TIP3      13567           0.0000000000
     90532     13967  TIP3      H1             50.5758410019        0.9541328034      -35.0939394820  TIP3      13567           0.0000000000
     90533     13967  TIP3      H2             50.2149824793       -0.1600080852      -34.0249579570  TIP3      13567           0.0000000000
     90534     13968  TIP3      OH2            51.9205234483        1.0580537245      -38.4213983375  TIP3      13568           0.0000000000
     90535     13968  TIP3      H1             51.1943915078        1.6529592777      -38.6521787261  TIP3      13568           0.0000000000
     90536     13968  TIP3      H2             51.4634109615        0.1926857977      -38.2965766818  TIP3      13568           0.0000000000
     90537     13969  TIP3      OH2            39.1635120702       16.7866019860      -38.8474405798  TIP3      13569           0.0000000000
     90538     13969  TIP3      H1             38.4706780704       16.7819631951      -39.5417182026  TIP3      13569           0.0000000000
     90539     13969  TIP3      H2             39.1556051563       17.7287655106      -38.6240496599  TIP3      13569           0.0000000000
     90540     13970  TIP3      OH2            41.0848915788        2.7436985414      -41.3248442520  TIP3      13570           0.0000000000
     90541     13970  TIP3      H1             41.6057384561        2.1462911807      -41.8605068753  TIP3      13570           0.0000000000
     90542     13970  TIP3      H2             41.7349761135        3.0885974408      -40.6868647360  TIP3      13570           0.0000000000
     90543     13971  TIP3      OH2            46.1166410126        3.0390282269      -38.9085441109  TIP3      13571           0.0000000000
     90544     13971  TIP3      H1             46.3375384256        2.4324885886      -38.1806538892  TIP3      13571           0.0000000000
     90545     13971  TIP3      H2             46.1141866600        3.8959684403      -38.4180964125  TIP3      13571           0.0000000000
     90546     13972  TIP3      OH2            47.9847611577       18.2176438228      -40.4092035579  TIP3      13572           0.0000000000
     90547     13972  TIP3      H1             48.9181703271       18.3600403743      -40.6387937182  TIP3      13572           0.0000000000
     90548     13972  TIP3      H2             47.7986156719       17.6186910947      -41.1908164345  TIP3      13572           0.0000000000
     90549     13973  TIP3      OH2            54.6964723183       17.5769195625      -37.7917825734  TIP3      13573           0.0000000000
     90550     13973  TIP3      H1             54.5235749687       16.8065311665      -38.3756430706  TIP3      13573           0.0000000000
     90551     13973  TIP3      H2             54.6764778101       18.3313945253      -38.4071164102  TIP3      13573           0.0000000000
     90552     13974  TIP3      OH2            40.3478224248        1.6026716503      -26.0937781614  TIP3      13574           0.0000000000
     90553     13974  TIP3      H1             39.9996807406        0.8120811473      -25.6401363613  TIP3      13574           0.0000000000
     90554     13974  TIP3      H2             41.2793013704        1.5852397322      -25.7652425242  TIP3      13574           0.0000000000
     90555     13975  TIP3      OH2            42.3580952108        0.9615286159      -24.5234673236  TIP3      13575           0.0000000000
     90556     13975  TIP3      H1             43.2499338350        0.6307653594      -24.7219375238  TIP3      13575           0.0000000000
     90557     13975  TIP3      H2             41.9604361316        0.1905524927      -24.0580073831  TIP3      13575           0.0000000000
     90558     13976  TIP3      OH2            40.9752865855       17.7422188093      -41.8613329555  TIP3      13576           0.0000000000
     90559     13976  TIP3      H1             40.6979746397       18.0192967586      -40.9788251091  TIP3      13576           0.0000000000
     90560     13976  TIP3      H2             41.7363830992       17.1806777037      -41.7113437680  TIP3      13576           0.0000000000
     90561     13977  TIP3      OH2            50.7651516863        0.2953829629      -24.3400947790  TIP3      13577           0.0000000000
     90562     13977  TIP3      H1             50.8447823802       -0.1753951040      -23.4911756387  TIP3      13577           0.0000000000
     90563     13977  TIP3      H2             51.6762756027        0.2505042976      -24.6843988314  TIP3      13577           0.0000000000
     90564     13978  TIP3      OH2            53.9760128744       16.3280257884      -25.6613407928  TIP3      13578           0.0000000000
     90565     13978  TIP3      H1             53.1660943190       16.1618044642      -26.1862751741  TIP3      13578           0.0000000000
     90566     13978  TIP3      H2             53.8580299922       17.2734650316      -25.4462397836  TIP3      13578           0.0000000000
     90567     13979  TIP3      OH2           -44.7676686717       29.0701520474      -35.6395691824  TIP3      13579           0.0000000000
     90568     13979  TIP3      H1            -44.7098550199       30.0352327699      -35.7625025779  TIP3      13579           0.0000000000
     90569     13979  TIP3      H2            -45.4364995751       28.8081171168      -36.2960536290  TIP3      13579           0.0000000000
     90570     13980  TIP3      OH2           -45.8738422213       28.3475276920      -32.1938759243  TIP3      13580           0.0000000000
     90571     13980  TIP3      H1            -45.8880866683       27.6795257388      -31.4948054994  TIP3      13580           0.0000000000
     90572     13980  TIP3      H2            -46.1865388501       27.8402216723      -32.9668973550  TIP3      13580           0.0000000000
     90573     13981  TIP3      OH2           -53.5080272685       27.9700384795      -30.6376923573  TIP3      13581           0.0000000000
     90574     13981  TIP3      H1            -53.4323492022       27.3145025393      -29.9095892336  TIP3      13581           0.0000000000
     90575     13981  TIP3      H2            -52.7760055649       28.5663209861      -30.4261039057  TIP3      13581           0.0000000000
     90576     13982  TIP3      OH2           -42.1806617370       31.2849525943      -33.9145661352  TIP3      13582           0.0000000000
     90577     13982  TIP3      H1            -42.5801265906       30.5455826331      -33.4422748721  TIP3      13582           0.0000000000
     90578     13982  TIP3      H2            -42.1536700610       31.9805710444      -33.2392276481  TIP3      13582           0.0000000000
     90579     13983  TIP3      OH2           -52.5870297549       32.4277822446      -32.0969661586  TIP3      13583           0.0000000000
     90580     13983  TIP3      H1            -52.9178712399       31.5832752626      -32.4538059636  TIP3      13583           0.0000000000
     90581     13983  TIP3      H2            -51.6378410617       32.2298099199      -32.0524217285  TIP3      13583           0.0000000000
     90582     13984  TIP3      OH2           -55.9211649837       25.9980168977      -36.6659461058  TIP3      13584           0.0000000000
     90583     13984  TIP3      H1            -56.3649449078       26.8817163388      -36.7155835640  TIP3      13584           0.0000000000
     90584     13984  TIP3      H2            -56.5107330162       25.4709780843      -37.2144967052  TIP3      13584           0.0000000000
     90585     13985  TIP3      OH2           -55.2421456439       28.2292326815      -34.5402304690  TIP3      13585           0.0000000000
     90586     13985  TIP3      H1            -55.0081088916       27.4225380189      -34.0462177011  TIP3      13585           0.0000000000
     90587     13985  TIP3      H2            -54.5086386811       28.3118265099      -35.1648203846  TIP3      13585           0.0000000000
     90588     13986  TIP3      OH2           -45.0596017575       36.3867350594      -33.6847685780  TIP3      13586           0.0000000000
     90589     13986  TIP3      H1            -44.4063997105       35.7061476342      -33.9637285869  TIP3      13586           0.0000000000
     90590     13986  TIP3      H2            -45.2533339460       36.1517097498      -32.7791564274  TIP3      13586           0.0000000000
     90591     13987  TIP3      OH2           -47.4550319334       30.8108064226      -31.8103727976  TIP3      13587           0.0000000000
     90592     13987  TIP3      H1            -47.1685558944       30.0643272406      -32.3792749386  TIP3      13587           0.0000000000
     90593     13987  TIP3      H2            -46.7225074459       30.8435653788      -31.1744303859  TIP3      13587           0.0000000000
     90594     13988  TIP3      OH2           -38.8473578059       22.3605764144      -30.9664883866  TIP3      13588           0.0000000000
     90595     13988  TIP3      H1            -38.7328838052       22.9803951017      -30.2137185910  TIP3      13588           0.0000000000
     90596     13988  TIP3      H2            -38.3520627073       22.8204411831      -31.6612551216  TIP3      13588           0.0000000000
     90597     13989  TIP3      OH2           -44.3268033452       25.1838334947      -31.4374325248  TIP3      13589           0.0000000000
     90598     13989  TIP3      H1            -44.1770968610       24.2177068224      -31.4446980319  TIP3      13589           0.0000000000
     90599     13989  TIP3      H2            -44.4309872134       25.3459828828      -32.3978501427  TIP3      13589           0.0000000000
     90600     13990  TIP3      OH2           -51.1850004033       23.2675709055      -34.1875768891  TIP3      13590           0.0000000000
     90601     13990  TIP3      H1            -51.1204869558       24.1205968752      -34.6469846798  TIP3      13590           0.0000000000
     90602     13990  TIP3      H2            -51.6214812556       22.7042195509      -34.8605329827  TIP3      13590           0.0000000000
     90603     13991  TIP3      OH2           -43.4690288478       23.3753677406      -35.8161372427  TIP3      13591           0.0000000000
     90604     13991  TIP3      H1            -42.7994788240       23.0556114112      -35.1654971393  TIP3      13591           0.0000000000
     90605     13991  TIP3      H2            -42.9198575672       23.9198154230      -36.4021134814  TIP3      13591           0.0000000000
     90606     13992  TIP3      OH2           -54.5725158405       25.6771258873      -33.4488615145  TIP3      13592           0.0000000000
     90607     13992  TIP3      H1            -53.8962679539       25.1158539746      -33.0107723940  TIP3      13592           0.0000000000
     90608     13992  TIP3      H2            -54.5017515065       25.3706206125      -34.3664110338  TIP3      13592           0.0000000000
     90609     13993  TIP3      OH2           -49.4073744503       27.2335883752      -34.1897525386  TIP3      13593           0.0000000000
     90610     13993  TIP3      H1            -48.7688805323       26.6648331604      -33.7270773724  TIP3      13593           0.0000000000
     90611     13993  TIP3      H2            -49.9666030516       26.5658968324      -34.6366632831  TIP3      13593           0.0000000000
     90612     13994  TIP3      OH2           -38.4186560190       23.8149659289      -28.7170270558  TIP3      13594           0.0000000000
     90613     13994  TIP3      H1            -39.0885067382       24.5244604131      -28.8071985224  TIP3      13594           0.0000000000
     90614     13994  TIP3      H2            -38.4030329962       23.6623671835      -27.7612925926  TIP3      13594           0.0000000000
     90615     13995  TIP3      OH2           -52.3320785769       22.1702333778      -30.1391522487  TIP3      13595           0.0000000000
     90616     13995  TIP3      H1            -52.5848913224       22.7273321522      -30.9001723447  TIP3      13595           0.0000000000
     90617     13995  TIP3      H2            -53.0192691678       22.4139846281      -29.4710663444  TIP3      13595           0.0000000000
     90618     13996  TIP3      OH2           -45.0073321416       31.6682245688      -36.5720554455  TIP3      13596           0.0000000000
     90619     13996  TIP3      H1            -45.2837626326       31.3589167114      -37.4533082503  TIP3      13596           0.0000000000
     90620     13996  TIP3      H2            -45.3176724765       32.5953427586      -36.5681979923  TIP3      13596           0.0000000000
     90621     13997  TIP3      OH2           -49.7830977731       29.8292592986      -29.8766396532  TIP3      13597           0.0000000000
     90622     13997  TIP3      H1            -50.5229535256       30.4577197396      -29.7167140132  TIP3      13597           0.0000000000
     90623     13997  TIP3      H2            -49.0824256965       30.4189998397      -30.1672058558  TIP3      13597           0.0000000000
     90624     13998  TIP3      OH2           -41.6875007600       22.7011936779      -33.8293122890  TIP3      13598           0.0000000000
     90625     13998  TIP3      H1            -41.8911392090       21.9253000798      -33.2915468342  TIP3      13598           0.0000000000
     90626     13998  TIP3      H2            -41.0130422614       23.1484133771      -33.2919027898  TIP3      13598           0.0000000000
     90627     13999  TIP3      OH2           -52.7744936521       24.0505186498      -32.1528666796  TIP3      13599           0.0000000000
     90628     13999  TIP3      H1            -52.1343061937       24.7094135276      -31.8011776600  TIP3      13599           0.0000000000
     90629     13999  TIP3      H2            -52.2325026247       23.6044188520      -32.8487710574  TIP3      13599           0.0000000000
     90630     14000  TIP3      OH2           -51.3591814824       31.8020935194      -29.0801125630  TIP3      13600           0.0000000000
     90631     14000  TIP3      H1            -51.3957364983       32.7102525181      -29.4331128856  TIP3      13600           0.0000000000
     90632     14000  TIP3      H2            -52.2398228452       31.7389901365      -28.6327688220  TIP3      13600           0.0000000000
     90633     14001  TIP3      OH2           -55.2432126313       31.4620965343      -38.2863548459  TIP3      13601           0.0000000000
     90634     14001  TIP3      H1            -55.5104914070       31.7452032856      -39.1799913814  TIP3      13601           0.0000000000
     90635     14001  TIP3      H2            -55.2017524947       32.3145095391      -37.7995576242  TIP3      13601           0.0000000000
     90636     14002  TIP3      OH2           -41.6446555086       33.1028605499      -31.5782847337  TIP3      13602           0.0000000000
     90637     14002  TIP3      H1            -42.5965438390       33.1850798572      -31.4011368744  TIP3      13602           0.0000000000
     90638     14002  TIP3      H2            -41.3652033149       34.0263168532      -31.6982433588  TIP3      13602           0.0000000000
     90639     14003  TIP3      OH2           -41.3379365312       21.4063413356      -30.1395310939  TIP3      13603           0.0000000000
     90640     14003  TIP3      H1            -42.0727919009       22.0232818137      -30.2069163169  TIP3      13603           0.0000000000
     90641     14003  TIP3      H2            -40.6351396718       21.8089569950      -30.6784087125  TIP3      13603           0.0000000000
     90642     14004  TIP3      OH2           -48.3408515344       19.4968337505      -32.6893344569  TIP3      13604           0.0000000000
     90643     14004  TIP3      H1            -48.4702854100       18.5308624675      -32.7418931388  TIP3      13604           0.0000000000
     90644     14004  TIP3      H2            -49.2147131058       19.8141105860      -32.3931964898  TIP3      13604           0.0000000000
     90645     14005  TIP3      OH2           -43.3644733579       34.8856245752      -34.9088516867  TIP3      13605           0.0000000000
     90646     14005  TIP3      H1            -42.9662471278       34.1699899102      -35.4532480854  TIP3      13605           0.0000000000
     90647     14005  TIP3      H2            -43.0543021374       35.6917772217      -35.3726693216  TIP3      13605           0.0000000000
     90648     14006  TIP3      OH2           -42.2129472528       32.8223355795      -36.4228735745  TIP3      13606           0.0000000000
     90649     14006  TIP3      H1            -42.4752505172       32.1105530633      -37.0476487440  TIP3      13606           0.0000000000
     90650     14006  TIP3      H2            -42.1508841998       32.3191233129      -35.5917813002  TIP3      13606           0.0000000000
     90651     14007  TIP3      OH2           -40.5633700174       31.3871686150      -27.9373857962  TIP3      13607           0.0000000000
     90652     14007  TIP3      H1            -40.4067093475       30.7609672409      -28.6809213156  TIP3      13607           0.0000000000
     90653     14007  TIP3      H2            -40.3605910330       32.2443763181      -28.3393130830  TIP3      13607           0.0000000000
     90654     14008  TIP3      OH2           -46.0701846694       28.3126500041      -38.1668423880  TIP3      13608           0.0000000000
     90655     14008  TIP3      H1            -46.7767459617       28.8664306762      -38.5487261982  TIP3      13608           0.0000000000
     90656     14008  TIP3      H2            -45.3706850146       28.3853885848      -38.8459991187  TIP3      13608           0.0000000000
     90657     14009  TIP3      OH2           -46.0235333792       26.8010577887      -41.1242232609  TIP3      13609           0.0000000000
     90658     14009  TIP3      H1            -45.2995175557       26.8108617545      -40.4806184598  TIP3      13609           0.0000000000
     90659     14009  TIP3      H2            -45.7025872084       26.1635957636      -41.7727934039  TIP3      13609           0.0000000000
     90660     14010  TIP3      OH2           -38.6872138422       27.6998171605      -29.8809601404  TIP3      13610           0.0000000000
     90661     14010  TIP3      H1            -39.3498830259       28.4151410913      -29.8190462898  TIP3      13610           0.0000000000
     90662     14010  TIP3      H2            -38.2164236781       27.9302296617      -30.7017693110  TIP3      13610           0.0000000000
     90663     14011  TIP3      OH2           -42.6454790128       28.5291995586      -37.2420124245  TIP3      13611           0.0000000000
     90664     14011  TIP3      H1            -43.3905069553       28.7591928269      -36.6400169333  TIP3      13611           0.0000000000
     90665     14011  TIP3      H2            -42.1890698130       27.8219285621      -36.7514457331  TIP3      13611           0.0000000000
     90666     14012  TIP3      OH2           -42.7188841233       26.6806596759      -28.1484542010  TIP3      13612           0.0000000000
     90667     14012  TIP3      H1            -42.6878480056       27.4796162357      -27.5938297414  TIP3      13612           0.0000000000
     90668     14012  TIP3      H2            -43.3532221916       26.9846411001      -28.8360700752  TIP3      13612           0.0000000000
     90669     14013  TIP3      OH2           -51.0146047730       29.1799254976      -35.3364658085  TIP3      13613           0.0000000000
     90670     14013  TIP3      H1            -51.3454630673       28.7802667995      -36.1765596530  TIP3      13613           0.0000000000
     90671     14013  TIP3      H2            -50.4099105452       28.4792203339      -34.9988695995  TIP3      13613           0.0000000000
     90672     14014  TIP3      OH2           -49.6435661937       32.6044057490      -32.6698232809  TIP3      13614           0.0000000000
     90673     14014  TIP3      H1            -49.7413161791       32.0113556583      -33.4315880790  TIP3      13614           0.0000000000
     90674     14014  TIP3      H2            -48.9297834171       32.1872121698      -32.1704251424  TIP3      13614           0.0000000000
     90675     14015  TIP3      OH2           -50.6661644866       27.9190325104      -31.6971604755  TIP3      13615           0.0000000000
     90676     14015  TIP3      H1            -50.0936935772       28.0434454877      -32.4776605673  TIP3      13615           0.0000000000
     90677     14015  TIP3      H2            -50.3143155187       28.5781115315      -31.0665828287  TIP3      13615           0.0000000000
     90678     14016  TIP3      OH2           -44.3630740683       33.4595415534      -31.0012293125  TIP3      13616           0.0000000000
     90679     14016  TIP3      H1            -44.5515352496       34.1092430864      -30.3167953809  TIP3      13616           0.0000000000
     90680     14016  TIP3      H2            -44.5167719187       32.6001176161      -30.5299582336  TIP3      13616           0.0000000000
     90681     14017  TIP3      OH2           -49.7258246370       32.3494560426      -26.9884256236  TIP3      13617           0.0000000000
     90682     14017  TIP3      H1            -50.1198021148       33.1010756131      -26.5103648813  TIP3      13617           0.0000000000
     90683     14017  TIP3      H2            -50.4203635816       32.1529915303      -27.6759468603  TIP3      13617           0.0000000000
     90684     14018  TIP3      OH2           -43.7816223780       27.6877811577      -39.5612510540  TIP3      13618           0.0000000000
     90685     14018  TIP3      H1            -43.2021918028       27.8631073104      -38.7803963639  TIP3      13618           0.0000000000
     90686     14018  TIP3      H2            -43.3606875407       28.1944604229      -40.2771174309  TIP3      13618           0.0000000000
     90687     14019  TIP3      OH2           -52.8191332919       28.5175732926      -27.7949159471  TIP3      13619           0.0000000000
     90688     14019  TIP3      H1            -52.7816185932       29.1816280088      -27.0733268461  TIP3      13619           0.0000000000
     90689     14019  TIP3      H2            -53.7414222882       28.6271956295      -28.0741238333  TIP3      13619           0.0000000000
     90690     14020  TIP3      OH2           -46.0738579087       34.4095409831      -36.0742416093  TIP3      13620           0.0000000000
     90691     14020  TIP3      H1            -45.5882252079       34.7542486443      -35.3313717644  TIP3      13620           0.0000000000
     90692     14020  TIP3      H2            -46.6108489220       35.1707388729      -36.3597093452  TIP3      13620           0.0000000000
     90693     14021  TIP3      OH2           -51.5177320296       34.3962528130      -26.2471850526  TIP3      13621           0.0000000000
     90694     14021  TIP3      H1            -51.5389626340       34.2540544204      -27.1989398501  TIP3      13621           0.0000000000
     90695     14021  TIP3      H2            -52.4471509484       34.2706925395      -25.9722285453  TIP3      13621           0.0000000000
     90696     14022  TIP3      OH2           -40.0679251844       19.4368671036      -39.7079907397  TIP3      13622           0.0000000000
     90697     14022  TIP3      H1            -41.0058635125       19.5754385581      -39.4324643715  TIP3      13622           0.0000000000
     90698     14022  TIP3      H2            -39.8238928661       20.2823581475      -40.1232742569  TIP3      13622           0.0000000000
     90699     14023  TIP3      OH2           -52.0044657052       28.2160229576      -37.7381547546  TIP3      13623           0.0000000000
     90700     14023  TIP3      H1            -52.3171164668       28.9931375172      -38.2506576325  TIP3      13623           0.0000000000
     90701     14023  TIP3      H2            -52.6874105099       27.5625595773      -37.9284790001  TIP3      13623           0.0000000000
     90702     14024  TIP3      OH2           -38.9231519492       33.7852394774      -41.3309241829  TIP3      13624           0.0000000000
     90703     14024  TIP3      H1            -38.8094882575       34.7458527418      -41.1882494998  TIP3      13624           0.0000000000
     90704     14024  TIP3      H2            -37.9908122425       33.5091917893      -41.4019774097  TIP3      13624           0.0000000000
     90705     14025  TIP3      OH2           -55.9091405933       30.6246676663      -28.9015421935  TIP3      13625           0.0000000000
     90706     14025  TIP3      H1            -56.4165193231       30.5542737809      -29.7342506017  TIP3      13625           0.0000000000
     90707     14025  TIP3      H2            -55.9093403826       29.6805926550      -28.6281324088  TIP3      13625           0.0000000000
     90708     14026  TIP3      OH2           -56.1959677166       33.3682702328      -32.0565134771  TIP3      13626           0.0000000000
     90709     14026  TIP3      H1            -55.2372511803       33.2343823378      -32.0685481119  TIP3      13626           0.0000000000
     90710     14026  TIP3      H2            -56.2789790746       34.1662329319      -31.5254243408  TIP3      13626           0.0000000000
     90711     14027  TIP3      OH2           -37.9575604624       34.0539348069      -26.3877304050  TIP3      13627           0.0000000000
     90712     14027  TIP3      H1            -38.0501496806       33.0903534154      -26.3923359290  TIP3      13627           0.0000000000
     90713     14027  TIP3      H2            -38.8158780848       34.3048830394      -25.9655397479  TIP3      13627           0.0000000000
     90714     14028  TIP3      OH2           -47.0359452564       33.6181115636      -27.5373922695  TIP3      13628           0.0000000000
     90715     14028  TIP3      H1            -46.9926247036       34.4633309513      -27.0267751722  TIP3      13628           0.0000000000
     90716     14028  TIP3      H2            -47.8977360295       33.2500231893      -27.2494416441  TIP3      13628           0.0000000000
     90717     14029  TIP3      OH2           -46.5780592088       37.3586685426      -37.6874800089  TIP3      13629           0.0000000000
     90718     14029  TIP3      H1            -46.6560932318       37.2678554476      -38.6546320678  TIP3      13629           0.0000000000
     90719     14029  TIP3      H2            -46.5482014680       38.3274978828      -37.5615101979  TIP3      13629           0.0000000000
     90720     14030  TIP3      OH2           -52.9292901026       36.2106842951      -35.9019419518  TIP3      13630           0.0000000000
     90721     14030  TIP3      H1            -52.7828124945       35.8129338876      -35.0161976499  TIP3      13630           0.0000000000
     90722     14030  TIP3      H2            -53.7818879708       35.8100964648      -36.1451895123  TIP3      13630           0.0000000000
     90723     14031  TIP3      OH2           -43.5061937450       36.5549848011      -40.7142612250  TIP3      13631           0.0000000000
     90724     14031  TIP3      H1            -43.0873882136       35.7842194515      -41.1545626027  TIP3      13631           0.0000000000
     90725     14031  TIP3      H2            -43.4727290344       36.2782196720      -39.7766089678  TIP3      13631           0.0000000000
     90726     14032  TIP3      OH2           -43.8055342974       36.4869466834      -37.9363081550  TIP3      13632           0.0000000000
     90727     14032  TIP3      H1            -44.7660241992       36.5621415692      -37.7602987955  TIP3      13632           0.0000000000
     90728     14032  TIP3      H2            -43.5534115552       35.7478805227      -37.3734016390  TIP3      13632           0.0000000000
     90729     14033  TIP3      OH2           -40.8186977937       25.5312777732      -25.8864660792  TIP3      13633           0.0000000000
     90730     14033  TIP3      H1            -41.2544721427       26.0034436860      -26.6125819679  TIP3      13633           0.0000000000
     90731     14033  TIP3      H2            -40.7973655533       24.6179320730      -26.2052152694  TIP3      13633           0.0000000000
     90732     14034  TIP3      OH2           -53.6802783350       31.9365454166      -27.8988002600  TIP3      13634           0.0000000000
     90733     14034  TIP3      H1            -53.4687585448       31.5511443879      -27.0226924361  TIP3      13634           0.0000000000
     90734     14034  TIP3      H2            -54.5433922977       31.5335249446      -28.1153347806  TIP3      13634           0.0000000000
     90735     14035  TIP3      OH2           -51.0210475659       20.3903150100      -31.9143131344  TIP3      13635           0.0000000000
     90736     14035  TIP3      H1            -51.9204320197       20.3014393969      -32.3051242130  TIP3      13635           0.0000000000
     90737     14035  TIP3      H2            -51.0992857675       21.2466931619      -31.4659601685  TIP3      13635           0.0000000000
     90738     14036  TIP3      OH2           -46.3705231828       20.1017847161      -28.5474078603  TIP3      13636           0.0000000000
     90739     14036  TIP3      H1            -45.9707241268       19.6781237105      -27.7654511429  TIP3      13636           0.0000000000
     90740     14036  TIP3      H2            -47.3374175128       19.9396427106      -28.4124493294  TIP3      13636           0.0000000000
     90741     14037  TIP3      OH2           -43.0604336365       23.8887356975      -27.6777414201  TIP3      13637           0.0000000000
     90742     14037  TIP3      H1            -43.6048776644       23.7259591263      -26.8717719601  TIP3      13637           0.0000000000
     90743     14037  TIP3      H2            -43.2327914655       24.8107596376      -27.9163253874  TIP3      13637           0.0000000000
     90744     14038  TIP3      OH2           -42.2478564956       28.7765469278      -41.8276889123  TIP3      13638           0.0000000000
     90745     14038  TIP3      H1            -42.2403034877       28.5492231128      -42.7844288033  TIP3      13638           0.0000000000
     90746     14038  TIP3      H2            -41.3909229134       29.1755397783      -41.6960279924  TIP3      13638           0.0000000000
     90747     14039  TIP3      OH2           -46.7167943113       22.6286372909      -41.2447361303  TIP3      13639           0.0000000000
     90748     14039  TIP3      H1            -47.0048782210       22.6084520556      -40.3112859173  TIP3      13639           0.0000000000
     90749     14039  TIP3      H2            -46.9910859574       21.7466716344      -41.5267207046  TIP3      13639           0.0000000000
     90750     14040  TIP3      OH2           -50.9279356049       25.3543877446      -30.7560327496  TIP3      13640           0.0000000000
     90751     14040  TIP3      H1            -51.6239779867       25.3314862023      -30.0730263853  TIP3      13640           0.0000000000
     90752     14040  TIP3      H2            -50.9369341452       26.2920388688      -31.0508882729  TIP3      13640           0.0000000000
     90753     14041  TIP3      OH2           -50.9512998651       25.5533730598      -35.8543905481  TIP3      13641           0.0000000000
     90754     14041  TIP3      H1            -51.8721096639       25.2367877825      -35.9587612960  TIP3      13641           0.0000000000
     90755     14041  TIP3      H2            -50.5355278348       25.1992312888      -36.6636718336  TIP3      13641           0.0000000000
     90756     14042  TIP3      OH2           -45.4241760638       25.9868281788      -37.0646485326  TIP3      13642           0.0000000000
     90757     14042  TIP3      H1            -45.8362765536       26.8206067058      -37.3801279330  TIP3      13642           0.0000000000
     90758     14042  TIP3      H2            -44.7140795194       25.8491521345      -37.7157927954  TIP3      13642           0.0000000000
     90759     14043  TIP3      OH2           -46.3342082896       26.1887825495      -25.6229323059  TIP3      13643           0.0000000000
     90760     14043  TIP3      H1            -46.8922711573       25.4518570959      -25.2684623820  TIP3      13643           0.0000000000
     90761     14043  TIP3      H2            -45.5165570267       26.0671903109      -25.1074957903  TIP3      13643           0.0000000000
     90762     14044  TIP3      OH2           -44.4083366059       25.4629477669      -34.2263939416  TIP3      13644           0.0000000000
     90763     14044  TIP3      H1            -44.6394354810       26.0426858349      -34.9721244045  TIP3      13644           0.0000000000
     90764     14044  TIP3      H2            -44.2620243689       24.6156890853      -34.6957816805  TIP3      13644           0.0000000000
     90765     14045  TIP3      OH2           -53.2386292832       25.6627826388      -28.9711572055  TIP3      13645           0.0000000000
     90766     14045  TIP3      H1            -53.2407261803       26.0603587775      -28.0831773385  TIP3      13645           0.0000000000
     90767     14045  TIP3      H2            -53.7079978258       24.8296317700      -28.8238641287  TIP3      13645           0.0000000000
     90768     14046  TIP3      OH2           -49.7422714212       23.2257511734      -41.9004141504  TIP3      13646           0.0000000000
     90769     14046  TIP3      H1            -50.2750671888       22.6084326397      -41.3640108380  TIP3      13646           0.0000000000
     90770     14046  TIP3      H2            -50.4195766904       23.5045160036      -42.5344581836  TIP3      13646           0.0000000000
     90771     14047  TIP3      OH2           -56.6028373528       22.7948370224      -35.0728148297  TIP3      13647           0.0000000000
     90772     14047  TIP3      H1            -55.9556114821       22.7410375291      -34.3417734651  TIP3      13647           0.0000000000
     90773     14047  TIP3      H2            -56.1584703699       22.3626443330      -35.8231717232  TIP3      13647           0.0000000000
     90774     14048  TIP3      OH2           -55.3094226302       23.4693300245      -39.6598466722  TIP3      13648           0.0000000000
     90775     14048  TIP3      H1            -54.8443316319       24.1065281111      -40.2490765797  TIP3      13648           0.0000000000
     90776     14048  TIP3      H2            -56.0195040786       24.0625634676      -39.3156452315  TIP3      13648           0.0000000000
     90777     14049  TIP3      OH2           -45.1712032491       27.0864727602      -29.6145247601  TIP3      13649           0.0000000000
     90778     14049  TIP3      H1            -44.8251763699       26.4185524274      -30.2358237870  TIP3      13649           0.0000000000
     90779     14049  TIP3      H2            -45.6202209245       26.5408722270      -28.9440528861  TIP3      13649           0.0000000000
     90780     14050  TIP3      OH2           -48.3808040459       23.0219316942      -34.8165139448  TIP3      13650           0.0000000000
     90781     14050  TIP3      H1            -49.3131667384       23.0579183396      -34.5145404689  TIP3      13650           0.0000000000
     90782     14050  TIP3      H2            -47.8866606149       22.9222826558      -33.9890494638  TIP3      13650           0.0000000000
     90783     14051  TIP3      OH2           -53.5670566878       24.6159976762      -35.9519070062  TIP3      13651           0.0000000000
     90784     14051  TIP3      H1            -54.4586375089       24.7410121277      -36.3321856411  TIP3      13651           0.0000000000
     90785     14051  TIP3      H2            -53.2769785736       23.7757860047      -36.3390124287  TIP3      13651           0.0000000000
     90786     14052  TIP3      OH2           -49.9194994858       24.6435231263      -38.3159230519  TIP3      13652           0.0000000000
     90787     14052  TIP3      H1            -48.9660600367       24.7610825875      -38.1414984129  TIP3      13652           0.0000000000
     90788     14052  TIP3      H2            -50.1411946636       25.3115933051      -38.9868512801  TIP3      13652           0.0000000000
     90789     14053  TIP3      OH2           -43.9704021361       22.2598447010      -31.5564415157  TIP3      13653           0.0000000000
     90790     14053  TIP3      H1            -44.6666649947       22.3572948170      -30.8713588779  TIP3      13653           0.0000000000
     90791     14053  TIP3      H2            -44.4731154696       22.0572179938      -32.3567186953  TIP3      13653           0.0000000000
     90792     14054  TIP3      OH2           -51.2327183363       25.8241908280      -40.7336441764  TIP3      13654           0.0000000000
     90793     14054  TIP3      H1            -51.7831356555       25.4603538761      -41.4490177317  TIP3      13654           0.0000000000
     90794     14054  TIP3      H2            -50.3999082988       26.0240000877      -41.1923219988  TIP3      13654           0.0000000000
     90795     14055  TIP3      OH2           -40.7330468522       37.9086069805      -25.2555553608  TIP3      13655           0.0000000000
     90796     14055  TIP3      H1            -40.4881731972       38.3285931107      -26.0992009254  TIP3      13655           0.0000000000
     90797     14055  TIP3      H2            -40.0409581293       38.2518908444      -24.6553827441  TIP3      13655           0.0000000000
     90798     14056  TIP3      OH2           -53.0858786677       30.3925776249      -25.6724119483  TIP3      13656           0.0000000000
     90799     14056  TIP3      H1            -52.3629788883       30.6376065848      -25.0671210716  TIP3      13656           0.0000000000
     90800     14056  TIP3      H2            -53.8823394099       30.5599285383      -25.1137012755  TIP3      13656           0.0000000000
     90801     14057  TIP3      OH2           -47.0866764038       25.7994803619      -32.9198534669  TIP3      13657           0.0000000000
     90802     14057  TIP3      H1            -46.5018775558       25.2533728059      -33.4618218932  TIP3      13657           0.0000000000
     90803     14057  TIP3      H2            -47.2250121863       25.2615599312      -32.1298017490  TIP3      13657           0.0000000000
     90804     14058  TIP3      OH2           -52.0772777887       21.9456152852      -36.4882352055  TIP3      13658           0.0000000000
     90805     14058  TIP3      H1            -52.3911256471       21.0219015106      -36.5215945619  TIP3      13658           0.0000000000
     90806     14058  TIP3      H2            -51.2894484475       21.9108734269      -37.0468066941  TIP3      13658           0.0000000000
     90807     14059  TIP3      OH2           -48.4462710211       24.1523764022      -30.5110990361  TIP3      13659           0.0000000000
     90808     14059  TIP3      H1            -49.2832052016       24.6442304053      -30.4009627680  TIP3      13659           0.0000000000
     90809     14059  TIP3      H2            -47.9092625300       24.4710889056      -29.7581839652  TIP3      13659           0.0000000000
     90810     14060  TIP3      OH2           -47.8712613879       30.3791085886      -38.8154828451  TIP3      13660           0.0000000000
     90811     14060  TIP3      H1            -48.6560651841       29.8818885358      -39.1377376604  TIP3      13660           0.0000000000
     90812     14060  TIP3      H2            -48.0592659485       30.4429799047      -37.8611923215  TIP3      13660           0.0000000000
     90813     14061  TIP3      OH2           -40.7253682731       29.5397136242      -30.0061331898  TIP3      13661           0.0000000000
     90814     14061  TIP3      H1            -40.1164000755       30.0048423025      -30.6053753236  TIP3      13661           0.0000000000
     90815     14061  TIP3      H2            -41.5698614132       29.6311471286      -30.4943345176  TIP3      13661           0.0000000000
     90816     14062  TIP3      OH2           -43.9979201521       23.1714535145      -40.6232654539  TIP3      13662           0.0000000000
     90817     14062  TIP3      H1            -44.9467753405       23.3162442895      -40.7795501927  TIP3      13662           0.0000000000
     90818     14062  TIP3      H2            -43.7058261036       24.0506209625      -40.3107459542  TIP3      13662           0.0000000000
     90819     14063  TIP3      OH2           -46.3611786441       30.6048469101      -27.5778013199  TIP3      13663           0.0000000000
     90820     14063  TIP3      H1            -46.7246310928       30.1863952665      -26.7759589055  TIP3      13663           0.0000000000
     90821     14063  TIP3      H2            -46.6236187013       31.5133169996      -27.4943812094  TIP3      13663           0.0000000000
     90822     14064  TIP3      OH2           -43.2921442352       25.0797439012      -38.9569044940  TIP3      13664           0.0000000000
     90823     14064  TIP3      H1            -42.3853093162       24.9422112856      -38.6228346923  TIP3      13664           0.0000000000
     90824     14064  TIP3      H2            -43.2200296381       25.8810612775      -39.4952870410  TIP3      13664           0.0000000000
     90825     14065  TIP3      OH2           -52.7639829877       29.7250056737      -33.0306443926  TIP3      13665           0.0000000000
     90826     14065  TIP3      H1            -52.0428688997       29.6768493279      -33.6803970805  TIP3      13665           0.0000000000
     90827     14065  TIP3      H2            -52.6968918203       28.8684972750      -32.5713671482  TIP3      13665           0.0000000000
     90828     14066  TIP3      OH2           -45.7571394063       31.8411632147      -39.7819936451  TIP3      13666           0.0000000000
     90829     14066  TIP3      H1            -46.0942468489       32.6774532017      -39.4099520215  TIP3      13666           0.0000000000
     90830     14066  TIP3      H2            -46.4944052973       31.2213363826      -39.5863521804  TIP3      13666           0.0000000000
     90831     14067  TIP3      OH2           -55.7507995659       28.1570702800      -27.7526715410  TIP3      13667           0.0000000000
     90832     14067  TIP3      H1            -55.5641827533       27.7252060864      -26.8949986011  TIP3      13667           0.0000000000
     90833     14067  TIP3      H2            -56.3801858817       27.5383986102      -28.1701256174  TIP3      13667           0.0000000000
     90834     14068  TIP3      OH2           -48.7560180776       27.6977247124      -25.5399018447  TIP3      13668           0.0000000000
     90835     14068  TIP3      H1            -49.0521589856       27.4627565171      -26.4301081305  TIP3      13668           0.0000000000
     90836     14068  TIP3      H2            -47.8164808595       27.4311707508      -25.5486156684  TIP3      13668           0.0000000000
     90837     14069  TIP3      OH2           -44.0058926088       32.9297486648      -27.7764248906  TIP3      13669           0.0000000000
     90838     14069  TIP3      H1            -44.9282768650       33.1404902397      -27.9878490187  TIP3      13669           0.0000000000
     90839     14069  TIP3      H2            -43.9046613620       33.1709726648      -26.8467623053  TIP3      13669           0.0000000000
     90840     14070  TIP3      OH2           -38.3996857885       25.2553116114      -39.2255637074  TIP3      13670           0.0000000000
     90841     14070  TIP3      H1            -38.9562334775       24.9073507024      -39.9485157067  TIP3      13670           0.0000000000
     90842     14070  TIP3      H2            -38.3110924746       26.1868729571      -39.5320443073  TIP3      13670           0.0000000000
     90843     14071  TIP3      OH2           -38.4198438663       31.0792954501      -26.3986522769  TIP3      13671           0.0000000000
     90844     14071  TIP3      H1            -39.2936582715       31.3146908510      -26.7959837396  TIP3      13671           0.0000000000
     90845     14071  TIP3      H2            -37.8505434284       31.0601157935      -27.1933669226  TIP3      13671           0.0000000000
     90846     14072  TIP3      OH2           -40.0964933073       34.0727233886      -38.8033306252  TIP3      13672           0.0000000000
     90847     14072  TIP3      H1            -40.4767314783       33.2366387577      -38.5004071081  TIP3      13672           0.0000000000
     90848     14072  TIP3      H2            -39.8165570085       33.8792095910      -39.7199829621  TIP3      13672           0.0000000000
     90849     14073  TIP3      OH2           -42.9283301843       28.8952869782      -31.7593667162  TIP3      13673           0.0000000000
     90850     14073  TIP3      H1            -43.8644674294       28.6438072099      -31.8122643589  TIP3      13673           0.0000000000
     90851     14073  TIP3      H2            -42.4886224738       28.1047861094      -32.1288256512  TIP3      13673           0.0000000000
     90852     14074  TIP3      OH2           -50.3843928883       33.2011588743      -35.6264819575  TIP3      13674           0.0000000000
     90853     14074  TIP3      H1            -49.8843210743       33.9998118919      -35.8507054042  TIP3      13674           0.0000000000
     90854     14074  TIP3      H2            -51.2723036653       33.4328003225      -35.9520399412  TIP3      13674           0.0000000000
     90855     14075  TIP3      OH2           -54.6044050469       28.0681961854      -41.1075959952  TIP3      13675           0.0000000000
     90856     14075  TIP3      H1            -54.0123435834       28.6985007987      -40.6717543087  TIP3      13675           0.0000000000
     90857     14075  TIP3      H2            -55.4883179180       28.3563151632      -40.7838323543  TIP3      13675           0.0000000000
     90858     14076  TIP3      OH2           -48.9458351307       30.8693323574      -36.0632659732  TIP3      13676           0.0000000000
     90859     14076  TIP3      H1            -49.2518590761       31.7944250298      -36.0297525145  TIP3      13676           0.0000000000
     90860     14076  TIP3      H2            -49.7122884773       30.3972603036      -35.6742115616  TIP3      13676           0.0000000000
     90861     14077  TIP3      OH2           -48.4904009818       35.0465361935      -29.7180529758  TIP3      13677           0.0000000000
     90862     14077  TIP3      H1            -48.0750540943       35.8733750453      -30.0095569600  TIP3      13677           0.0000000000
     90863     14077  TIP3      H2            -47.9089639120       34.7083238813      -29.0218185418  TIP3      13677           0.0000000000
     90864     14078  TIP3      OH2           -50.2860481708       35.8755934316      -36.5502277977  TIP3      13678           0.0000000000
     90865     14078  TIP3      H1            -51.2540620816       36.0029718994      -36.4567991515  TIP3      13678           0.0000000000
     90866     14078  TIP3      H2            -49.9352239219       36.7130281993      -36.1923700751  TIP3      13678           0.0000000000
     90867     14079  TIP3      OH2           -44.9527975535       31.1056461543      -30.0755530595  TIP3      13679           0.0000000000
     90868     14079  TIP3      H1            -45.3313643305       30.8628984639      -29.2041610292  TIP3      13679           0.0000000000
     90869     14079  TIP3      H2            -44.3359055634       30.3618816257      -30.2401088126  TIP3      13679           0.0000000000
     90870     14080  TIP3      OH2           -42.7043919405       32.0671746568      -40.9807890824  TIP3      13680           0.0000000000
     90871     14080  TIP3      H1            -42.3758629114       31.6522940493      -40.1573255794  TIP3      13680           0.0000000000
     90872     14080  TIP3      H2            -43.6617631850       31.9423210796      -40.8856860497  TIP3      13680           0.0000000000
     90873     14081  TIP3      OH2           -42.2468452414       35.6509096932      -27.5631901213  TIP3      13681           0.0000000000
     90874     14081  TIP3      H1            -42.8492930770       35.1290946441      -28.1108792469  TIP3      13681           0.0000000000
     90875     14081  TIP3      H2            -41.9754875872       36.3358885067      -28.2230200340  TIP3      13681           0.0000000000
     90876     14082  TIP3      OH2           -38.1954225966       36.5072170133      -40.7532028375  TIP3      13682           0.0000000000
     90877     14082  TIP3      H1            -37.4705694312       37.1282915621      -40.9425990590  TIP3      13682           0.0000000000
     90878     14082  TIP3      H2            -38.9085499535       37.1064875455      -40.4439042664  TIP3      13682           0.0000000000
     90879     14083  TIP3      OH2           -54.1180833283       22.9005628005      -28.2016241192  TIP3      13683           0.0000000000
     90880     14083  TIP3      H1            -55.0283374249       23.2404410809      -28.2432707311  TIP3      13683           0.0000000000
     90881     14083  TIP3      H2            -54.2210518388       22.0438406285      -27.7549335772  TIP3      13683           0.0000000000
     90882     14084  TIP3      OH2           -41.8604790492       30.7388047431      -38.7605830985  TIP3      13684           0.0000000000
     90883     14084  TIP3      H1            -42.1175307272       29.9716286478      -38.2047002293  TIP3      13684           0.0000000000
     90884     14084  TIP3      H2            -40.9174443091       30.8254497194      -38.5398774416  TIP3      13684           0.0000000000
     90885     14085  TIP3      OH2           -54.4671410638       34.6999379485      -29.7678691719  TIP3      13685           0.0000000000
     90886     14085  TIP3      H1            -54.2320836951       33.7602940901      -29.7664584435  TIP3      13685           0.0000000000
     90887     14085  TIP3      H2            -54.2334302922       34.9696895738      -28.8692674952  TIP3      13685           0.0000000000
     90888     14086  TIP3      OH2           -49.7093231658       32.7366464645      -40.0772217923  TIP3      13686           0.0000000000
     90889     14086  TIP3      H1            -49.5196534609       32.2037490723      -39.2954642963  TIP3      13686           0.0000000000
     90890     14086  TIP3      H2            -49.6886894775       33.6549493031      -39.7509648186  TIP3      13686           0.0000000000
     90891     14087  TIP3      OH2           -53.2284705051       29.9756549081      -39.5707180136  TIP3      13687           0.0000000000
     90892     14087  TIP3      H1            -53.9207161853       30.3524508747      -38.9925665226  TIP3      13687           0.0000000000
     90893     14087  TIP3      H2            -52.7020494936       30.7543008112      -39.8174225229  TIP3      13687           0.0000000000
     90894     14088  TIP3      OH2           -45.3955190584       22.6568207902      -29.2792063250  TIP3      13688           0.0000000000
     90895     14088  TIP3      H1            -44.6898647648       22.7157121431      -28.6211759664  TIP3      13688           0.0000000000
     90896     14088  TIP3      H2            -45.7765367416       21.7746720440      -29.0958791188  TIP3      13688           0.0000000000
     90897     14089  TIP3      OH2           -44.6329076776       22.2690996835      -38.1639567716  TIP3      13689           0.0000000000
     90898     14089  TIP3      H1            -44.3906728339       22.7480240037      -38.9860782478  TIP3      13689           0.0000000000
     90899     14089  TIP3      H2            -44.0527354218       22.6857809741      -37.5185456530  TIP3      13689           0.0000000000
     90900     14090  TIP3      OH2           -46.9462379580       34.4100407953      -39.3269348908  TIP3      13690           0.0000000000
     90901     14090  TIP3      H1            -47.7664532905       34.9279126814      -39.2752003238  TIP3      13690           0.0000000000
     90902     14090  TIP3      H2            -46.4131342008       34.9115578018      -39.9656853774  TIP3      13690           0.0000000000
     90903     14091  TIP3      OH2           -47.4178875873       24.0067551287      -37.3483016850  TIP3      13691           0.0000000000
     90904     14091  TIP3      H1            -46.6067002840       24.5472769457      -37.3111853860  TIP3      13691           0.0000000000
     90905     14091  TIP3      H2            -47.6677715349       23.8700130520      -36.4215936069  TIP3      13691           0.0000000000
     90906     14092  TIP3      OH2           -46.8713880223       25.0071832610      -28.1665519194  TIP3      13692           0.0000000000
     90907     14092  TIP3      H1            -46.7690670168       25.5872864026      -27.3891491222  TIP3      13692           0.0000000000
     90908     14092  TIP3      H2            -46.2091995708       24.3146344340      -28.0575888221  TIP3      13692           0.0000000000
     90909     14093  TIP3      OH2           -46.5448762051       21.0679443629      -36.4290551481  TIP3      13693           0.0000000000
     90910     14093  TIP3      H1            -46.8754900696       21.7158767806      -35.7825090869  TIP3      13693           0.0000000000
     90911     14093  TIP3      H2            -45.8647651821       21.6103453034      -36.8987527267  TIP3      13693           0.0000000000
     90912     14094  TIP3      OH2           -49.6009375035       35.4469536593      -39.3355637325  TIP3      13694           0.0000000000
     90913     14094  TIP3      H1            -49.4353118598       36.2733612306      -39.8344867667  TIP3      13694           0.0000000000
     90914     14094  TIP3      H2            -49.8130173008       35.7832553994      -38.4398662339  TIP3      13694           0.0000000000
     90915     14095  TIP3      OH2           -50.8864127932       22.1444841452      -39.7325706353  TIP3      13695           0.0000000000
     90916     14095  TIP3      H1            -50.9508049234       23.0574353143      -39.3738743500  TIP3      13695           0.0000000000
     90917     14095  TIP3      H2            -49.9773285465       21.9092975080      -39.4729509815  TIP3      13695           0.0000000000
     90918     14096  TIP3      OH2           -40.6607163380       22.9014330326      -27.3064125136  TIP3      13696           0.0000000000
     90919     14096  TIP3      H1            -41.6013798428       23.1852192455      -27.4289497601  TIP3      13696           0.0000000000
     90920     14096  TIP3      H2            -40.3574356095       22.8948437929      -28.2292247312  TIP3      13696           0.0000000000
     90921     14097  TIP3      OH2           -42.0710942466       26.6745140724      -33.2599624744  TIP3      13697           0.0000000000
     90922     14097  TIP3      H1            -42.8834674396       26.2375079196      -33.5675240545  TIP3      13697           0.0000000000
     90923     14097  TIP3      H2            -41.6088016059       25.9712341271      -32.7512786659  TIP3      13697           0.0000000000
     90924     14098  TIP3      OH2           -52.6410482681       32.5977569356      -40.6844313447  TIP3      13698           0.0000000000
     90925     14098  TIP3      H1            -52.0131156155       33.2696389323      -40.3930419117  TIP3      13698           0.0000000000
     90926     14098  TIP3      H2            -52.1343699452       32.1430312235      -41.3849781695  TIP3      13698           0.0000000000
     90927     14099  TIP3      OH2           -54.2839214952       25.2590876510      -41.5137123635  TIP3      13699           0.0000000000
     90928     14099  TIP3      H1            -54.3292768634       26.2213080548      -41.3741189928  TIP3      13699           0.0000000000
     90929     14099  TIP3      H2            -55.1660880857       25.0393345051      -41.8416457934  TIP3      13699           0.0000000000
     90930     14100  TIP3      OH2           -40.9883735393       35.8985988047      -31.6549913681  TIP3      13700           0.0000000000
     90931     14100  TIP3      H1            -41.1357364498       36.6364732300      -32.2561839779  TIP3      13700           0.0000000000
     90932     14100  TIP3      H2            -40.0412530982       35.9935341508      -31.4006284180  TIP3      13700           0.0000000000
     90933     14101  TIP3      OH2           -53.4927204387       20.0528318045      -32.8493623354  TIP3      13701           0.0000000000
     90934     14101  TIP3      H1            -53.7200879389       20.0826925498      -33.8039684170  TIP3      13701           0.0000000000
     90935     14101  TIP3      H2            -53.9327621618       19.2248023571      -32.5753726075  TIP3      13701           0.0000000000
     90936     14102  TIP3      OH2           -54.5560368555       33.9654552244      -36.6977071939  TIP3      13702           0.0000000000
     90937     14102  TIP3      H1            -55.3962894369       34.4518792054      -36.7091259707  TIP3      13702           0.0000000000
     90938     14102  TIP3      H2            -54.0345255896       34.4692268840      -37.3382560659  TIP3      13702           0.0000000000
     90939     14103  TIP3      OH2           -55.2752140394       36.6107071745      -25.3932223154  TIP3      13703           0.0000000000
     90940     14103  TIP3      H1            -54.7194228268       36.3801521935      -24.6292691510  TIP3      13703           0.0000000000
     90941     14103  TIP3      H2            -55.7538457813       35.7887234117      -25.5684629639  TIP3      13703           0.0000000000
     90942     14104  TIP3      OH2           -46.2546722723       35.1702319322      -41.8972394504  TIP3      13704           0.0000000000
     90943     14104  TIP3      H1            -47.0532271782       34.5836477449      -41.9676087344  TIP3      13704           0.0000000000
     90944     14104  TIP3      H2            -45.7855356307       34.6074708657      -42.5205312123  TIP3      13704           0.0000000000
     90945     14105  TIP3      OH2           -44.0386930193       33.9127615000      -24.8897626113  TIP3      13705           0.0000000000
     90946     14105  TIP3      H1            -44.4116893424       33.0177393091      -24.6909856011  TIP3      13705           0.0000000000
     90947     14105  TIP3      H2            -43.2671010619       34.0360655373      -24.3320239157  TIP3      13705           0.0000000000
     90948     14106  TIP3      OH2           -41.9808911256       34.8352008684      -42.1689531281  TIP3      13706           0.0000000000
     90949     14106  TIP3      H1            -41.6969076942       34.0276506456      -41.7001333498  TIP3      13706           0.0000000000
     90950     14106  TIP3      H2            -41.2171287102       35.0560122559      -42.7182852213  TIP3      13706           0.0000000000
     90951     14107  TIP3      OH2           -55.3822250027       30.3983951649      -24.3995504218  TIP3      13707           0.0000000000
     90952     14107  TIP3      H1            -55.2339025353       29.4872750952      -24.7153509879  TIP3      13707           0.0000000000
     90953     14107  TIP3      H2            -56.1415005331       30.6839011110      -24.9423032041  TIP3      13707           0.0000000000
     90954     14108  TIP3      OH2           -51.0017685746       30.7944633127      -42.2577695197  TIP3      13708           0.0000000000
     90955     14108  TIP3      H1            -50.9529352059       29.9597746758      -41.7771846479  TIP3      13708           0.0000000000
     90956     14108  TIP3      H2            -50.3932395613       30.5982141213      -42.9949120210  TIP3      13708           0.0000000000
     90957     14109  TIP3      OH2           -48.6876643431       30.3920952521      -25.0151818848  TIP3      13709           0.0000000000
     90958     14109  TIP3      H1            -49.0631509433       30.6561784999      -25.8751876230  TIP3      13709           0.0000000000
     90959     14109  TIP3      H2            -48.5930486499       29.4102961004      -25.0867997617  TIP3      13709           0.0000000000
     90960     14110  TIP3      OH2           -42.9970062295       30.2644007083      -27.5969174565  TIP3      13710           0.0000000000
     90961     14110  TIP3      H1            -42.2232913082       30.8579646871      -27.7248651292  TIP3      13710           0.0000000000
     90962     14110  TIP3      H2            -43.7291683496       30.8832422642      -27.5787523176  TIP3      13710           0.0000000000
     90963     14111  TIP3      OH2           -54.5302767800       27.6225352440      -25.0171686855  TIP3      13711           0.0000000000
     90964     14111  TIP3      H1            -54.1127685641       26.7571573030      -25.1164161117  TIP3      13711           0.0000000000
     90965     14111  TIP3      H2            -54.7774943809       27.6262015970      -24.0735071647  TIP3      13711           0.0000000000
     90966     14112  TIP3      OH2           -49.8759751883       28.7574256944      -39.9807846571  TIP3      13712           0.0000000000
     90967     14112  TIP3      H1            -50.3506167910       28.2345652184      -39.3131692394  TIP3      13712           0.0000000000
     90968     14112  TIP3      H2            -49.5987728171       28.0551194082      -40.6167204666  TIP3      13712           0.0000000000
     90969     14113  TIP3      OH2           -50.5958047232       26.5870547181      -27.6385293428  TIP3      13713           0.0000000000
     90970     14113  TIP3      H1            -51.2086425691       27.2921197666      -27.3677847680  TIP3      13713           0.0000000000
     90971     14113  TIP3      H2            -50.2353713211       26.9378895906      -28.4708911829  TIP3      13713           0.0000000000
     90972     14114  TIP3      OH2           -48.8110890106       26.9729098789      -41.7343874637  TIP3      13714           0.0000000000
     90973     14114  TIP3      H1            -48.9660376654       26.8006434346      -42.6712020015  TIP3      13714           0.0000000000
     90974     14114  TIP3      H2            -47.8326618519       27.0678195488      -41.6687585423  TIP3      13714           0.0000000000
     90975     14115  TIP3      OH2           -45.5572539444       29.1241059191      -24.3368190615  TIP3      13715           0.0000000000
     90976     14115  TIP3      H1            -44.5975863854       29.1308045973      -24.3910837776  TIP3      13715           0.0000000000
     90977     14115  TIP3      H2            -45.7345444929       28.3789796540      -23.7288928625  TIP3      13715           0.0000000000
     90978     14116  TIP3      OH2           -39.5374825543       29.3830159537       42.7728987319  TIP3      13716           0.0000000000
     90979     14116  TIP3      H1            -39.6953367427       28.9104400456       41.9315163347  TIP3      13716           0.0000000000
     90980     14116  TIP3      H2            -39.3810850619       30.2926282026       42.4967566549  TIP3      13716           0.0000000000
     90981     14117  TIP3      OH2           -50.2202229428       23.9571999022      -26.5620359107  TIP3      13717           0.0000000000
     90982     14117  TIP3      H1            -50.0984319386       23.2307209869      -27.1953549989  TIP3      13717           0.0000000000
     90983     14117  TIP3      H2            -50.2480129575       24.7535207211      -27.1294625162  TIP3      13717           0.0000000000
     90984     14118  TIP3      OH2           -49.8188783216       22.3296568456      -29.0456954685  TIP3      13718           0.0000000000
     90985     14118  TIP3      H1            -49.2940484194       22.7915283613      -29.7389236504  TIP3      13718           0.0000000000
     90986     14118  TIP3      H2            -50.6995935221       22.2356647019      -29.4766482594  TIP3      13718           0.0000000000
     90987     14119  TIP3      OH2           -48.2579000646       27.7844782447      -28.8101777467  TIP3      13719           0.0000000000
     90988     14119  TIP3      H1            -47.5046208938       27.6286822894      -29.3896533822  TIP3      13719           0.0000000000
     90989     14119  TIP3      H2            -48.6054831429       28.6374196062      -29.1128838888  TIP3      13719           0.0000000000
     90990     14120  TIP3      OH2           -43.8573685764       25.5852798699      -23.8413091715  TIP3      13720           0.0000000000
     90991     14120  TIP3      H1            -43.6335532504       24.6513994420      -23.8893295725  TIP3      13720           0.0000000000
     90992     14120  TIP3      H2            -42.9886882089       26.0144722725      -23.8034017530  TIP3      13720           0.0000000000
     90993     14121  TIP3      OH2           -42.5372840308       28.3666608120      -25.6918911554  TIP3      13721           0.0000000000
     90994     14121  TIP3      H1            -42.7865389349       29.0868579448      -26.3062148954  TIP3      13721           0.0000000000
     90995     14121  TIP3      H2            -41.5770881577       28.3179570546      -25.8778902414  TIP3      13721           0.0000000000
     90996     14122  TIP3      OH2           -51.7580111366       25.1799172335      -24.6312675323  TIP3      13722           0.0000000000
     90997     14122  TIP3      H1            -52.5315832670       24.6229899861      -24.8554751054  TIP3      13722           0.0000000000
     90998     14122  TIP3      H2            -51.0942150645       24.8382689778      -25.2556636212  TIP3      13722           0.0000000000
     90999     14123  TIP3      OH2           -49.0188112435       19.7697644937      -28.6245013966  TIP3      13723           0.0000000000
     91000     14123  TIP3      H1            -49.1551933351       20.7391146914      -28.7414889430  TIP3      13723           0.0000000000
     91001     14123  TIP3      H2            -49.7756277878       19.4149738122      -29.1270937194  TIP3      13723           0.0000000000
     91002     14124  TIP3      OH2           -47.7405569034       24.0877058475      -25.0796158785  TIP3      13724           0.0000000000
     91003     14124  TIP3      H1            -48.0225643996       23.8882301517      -24.1580431793  TIP3      13724           0.0000000000
     91004     14124  TIP3      H2            -48.5583630024       23.9004357831      -25.5693427475  TIP3      13724           0.0000000000
     91005     14125  TIP3      OH2           -45.0353946997       23.2271753601      -25.9939883743  TIP3      13725           0.0000000000
     91006     14125  TIP3      H1            -45.9984252053       23.2774722437      -25.8402810918  TIP3      13725           0.0000000000
     91007     14125  TIP3      H2            -44.7486914948       22.6021406391      -25.3088199395  TIP3      13725           0.0000000000
     91008     14126  TIP3      OH2           -43.4211252792       21.8844322634      -23.9857833116  TIP3      13726           0.0000000000
     91009     14126  TIP3      H1            -43.5145770896       20.9045279055      -23.9997224897  TIP3      13726           0.0000000000
     91010     14126  TIP3      H2            -43.7488729807       22.1306721634      -23.1116200765  TIP3      13726           0.0000000000
     91011     14127  TIP3      OH2           -53.6033559339       23.1079659311      -24.9574928976  TIP3      13727           0.0000000000
     91012     14127  TIP3      H1            -53.3808001579       22.3665326652      -25.5458554787  TIP3      13727           0.0000000000
     91013     14127  TIP3      H2            -53.7094088649       22.6635654666      -24.0919143208  TIP3      13727           0.0000000000
     91014     14128  TIP3      OH2           -48.8141288094       19.1115415428      -25.9448281623  TIP3      13728           0.0000000000
     91015     14128  TIP3      H1            -48.0978628385       18.4426729262      -25.9823741597  TIP3      13728           0.0000000000
     91016     14128  TIP3      H2            -48.9063236676       19.3299442884      -26.8901281758  TIP3      13728           0.0000000000
     91017     14129  TIP3      OH2           -48.4431323791       20.7824100827      -23.8914688096  TIP3      13729           0.0000000000
     91018     14129  TIP3      H1            -48.5940370635       20.2793296667      -24.7156914739  TIP3      13729           0.0000000000
     91019     14129  TIP3      H2            -49.0582391209       21.5273141818      -23.9536461130  TIP3      13729           0.0000000000
     91020     14130  TIP3      OH2           -48.9397900553       37.6583945587      -40.7336389119  TIP3      13730           0.0000000000
     91021     14130  TIP3      H1            -47.9757386541       37.7985382266      -40.5917800068  TIP3      13730           0.0000000000
     91022     14130  TIP3      H2            -49.1586214539       38.3375637250      -41.3672211905  TIP3      13730           0.0000000000
     91023     14131  TIP3      OH2           -55.3334989297       32.2816572154      -41.2345100683  TIP3      13731           0.0000000000
     91024     14131  TIP3      H1            -54.3935928956       32.3669548043      -40.9833860525  TIP3      13731           0.0000000000
     91025     14131  TIP3      H2            -55.3203042578       31.6212351887      -41.9292791798  TIP3      13731           0.0000000000
     91026     14132  TIP3      OH2            56.2137804621       37.6639022705      -36.2090815784  TIP3      13732           0.0000000000
     91027     14132  TIP3      H1             55.4984614752       37.1921587093      -36.6980486883  TIP3      13732           0.0000000000
     91028     14132  TIP3      H2             56.5003951573       36.9889892860      -35.5714297021  TIP3      13732           0.0000000000
     91029     14133  TIP3      OH2           -55.8133351599       35.7707248034      -34.3741858534  TIP3      13733           0.0000000000
     91030     14133  TIP3      H1            -56.1676469091       34.8864549032      -34.1788208453  TIP3      13733           0.0000000000
     91031     14133  TIP3      H2            -55.6036764775       36.1056429912      -33.4829713523  TIP3      13733           0.0000000000
     91032     14134  TIP3      OH2           -38.2965700113       36.5760055845      -31.4221346057  TIP3      13734           0.0000000000
     91033     14134  TIP3      H1            -38.2700507922       36.7462654020      -30.4544381113  TIP3      13734           0.0000000000
     91034     14134  TIP3      H2            -37.5679115505       37.1442390167      -31.7121886328  TIP3      13734           0.0000000000
     91035     14135  TIP3      OH2           -38.7029485047       36.1642076718      -28.4669570446  TIP3      13735           0.0000000000
     91036     14135  TIP3      H1            -39.1861781734       35.3922524499      -28.8325120230  TIP3      13735           0.0000000000
     91037     14135  TIP3      H2            -38.1770718653       35.7300141453      -27.7770836903  TIP3      13735           0.0000000000
     91038     14136  TIP3      OH2           -40.2649895617       31.8926780370      -23.8089476389  TIP3      13736           0.0000000000
     91039     14136  TIP3      H1            -41.1373694394       31.8373352569      -23.4349897188  TIP3      13736           0.0000000000
     91040     14136  TIP3      H2            -39.8778581311       32.6976104423      -23.3860145306  TIP3      13736           0.0000000000
     91041     14137  TIP3      OH2           -38.9520504508       30.2018376754      -38.3468247173  TIP3      13737           0.0000000000
     91042     14137  TIP3      H1            -38.0933620164       30.6111297875      -38.1708356762  TIP3      13737           0.0000000000
     91043     14137  TIP3      H2            -38.9512307519       29.4615599508      -37.6959170930  TIP3      13737           0.0000000000
     91044     14138  TIP3      OH2           -38.5736349891       28.2683693588      -36.4971786394  TIP3      13738           0.0000000000
     91045     14138  TIP3      H1            -39.3116951087       27.7626319818      -36.0923456554  TIP3      13738           0.0000000000
     91046     14138  TIP3      H2            -37.9773231347       28.4379947005      -35.7391341486  TIP3      13738           0.0000000000
     91047     14139  TIP3      OH2           -38.8205552675       30.9991076152      -31.5173433097  TIP3      13739           0.0000000000
     91048     14139  TIP3      H1            -37.9794186797       30.6344796495      -31.8504760364  TIP3      13739           0.0000000000
     91049     14139  TIP3      H2            -38.6799183023       31.9569370205      -31.6644346882  TIP3      13739           0.0000000000
     91050     14140  TIP3      OH2           -40.2912750396       33.9054335454      -29.2354189710  TIP3      13740           0.0000000000
     91051     14140  TIP3      H1            -40.9638358797       34.2321748640      -28.6244580630  TIP3      13740           0.0000000000
     91052     14140  TIP3      H2            -40.8301892987       33.4632094803      -29.9226905975  TIP3      13740           0.0000000000
     91053     14141  TIP3      OH2           -38.2867108268       28.1187858950      -40.1029062164  TIP3      13741           0.0000000000
     91054     14141  TIP3      H1            -38.8397856115       28.4932939780      -40.8147457880  TIP3      13741           0.0000000000
     91055     14141  TIP3      H2            -38.3420134746       28.8195026152      -39.4259542498  TIP3      13741           0.0000000000
     91056     14142  TIP3      OH2           -40.1726542009       25.3907270092      -41.4707352807  TIP3      13742           0.0000000000
     91057     14142  TIP3      H1            -39.8433969594       25.9977745121      -42.1621688685  TIP3      13742           0.0000000000
     91058     14142  TIP3      H2            -40.0870691657       24.5638490931      -41.9907236094  TIP3      13742           0.0000000000
     91059     14143  TIP3      OH2           -40.7678507278       26.7659407813      -35.9304370337  TIP3      13743           0.0000000000
     91060     14143  TIP3      H1            -40.9220251818       25.8096572071      -35.9471947223  TIP3      13743           0.0000000000
     91061     14143  TIP3      H2            -41.1198354401       27.0189697518      -35.0616792509  TIP3      13743           0.0000000000
     91062     14144  TIP3      OH2           -55.7444243205       28.8325989210      -31.8817340649  TIP3      13744           0.0000000000
     91063     14144  TIP3      H1            -55.5608802087       28.7604490616      -32.8437531978  TIP3      13744           0.0000000000
     91064     14144  TIP3      H2            -54.8649831887       28.6921265444      -31.4906333923  TIP3      13744           0.0000000000
     91065     14145  TIP3      OH2           -39.9271023599       28.7362602810      -26.2384223949  TIP3      13745           0.0000000000
     91066     14145  TIP3      H1            -39.3174100764       27.9809149449      -26.0976499891  TIP3      13745           0.0000000000
     91067     14145  TIP3      H2            -39.3305738692       29.5109775715      -26.2484282766  TIP3      13745           0.0000000000
     91068     14146  TIP3      OH2           -38.4072032525       26.6424939668      -25.5955161086  TIP3      13746           0.0000000000
     91069     14146  TIP3      H1            -39.2892052935       26.2378373891      -25.7630338845  TIP3      13746           0.0000000000
     91070     14146  TIP3      H2            -37.8270823602       25.8682183736      -25.6793041854  TIP3      13746           0.0000000000
     91071     14147  TIP3      OH2           -40.6821899325       22.7832286213      -42.4477606658  TIP3      13747           0.0000000000
     91072     14147  TIP3      H1            -40.0757379239       22.3844583327      -41.7955775395  TIP3      13747           0.0000000000
     91073     14147  TIP3      H2            -41.5401757439       22.3789642028      -42.2459750145  TIP3      13747           0.0000000000
     91074     14148  TIP3      OH2           -41.0855688851       24.3534027539      -37.4550432973  TIP3      13748           0.0000000000
     91075     14148  TIP3      H1            -40.7799507179       23.4242642795      -37.3379175473  TIP3      13748           0.0000000000
     91076     14148  TIP3      H2            -40.3052864383       24.7663324407      -37.8517428239  TIP3      13748           0.0000000000
     91077     14149  TIP3      OH2           -40.4637118659       24.8982613537      -32.0288330287  TIP3      13749           0.0000000000
     91078     14149  TIP3      H1            -39.5067619855       25.1354983864      -32.0471844130  TIP3      13749           0.0000000000
     91079     14149  TIP3      H2            -40.6685818403       25.0333359602      -31.0903378121  TIP3      13749           0.0000000000
     91080     14150  TIP3      OH2           -40.4058738439       25.6326756868      -29.2460832316  TIP3      13750           0.0000000000
     91081     14150  TIP3      H1            -41.2740350580       25.9236568475      -28.8944838592  TIP3      13750           0.0000000000
     91082     14150  TIP3      H2            -39.9696365412       26.4894535541      -29.4630433903  TIP3      13750           0.0000000000
     91083     14151  TIP3      OH2           -56.1239352636       24.1345257356      -25.7752447432  TIP3      13751           0.0000000000
     91084     14151  TIP3      H1            -55.1996956868       23.9664370462      -25.5228719147  TIP3      13751           0.0000000000
     91085     14151  TIP3      H2            -56.5824862368       23.3446205071      -25.3944308587  TIP3      13751           0.0000000000
     91086     14152  TIP3      OH2           -38.1598921865       19.6429776672      -23.9004066705  TIP3      13752           0.0000000000
     91087     14152  TIP3      H1            -37.7776715598       18.9892839173      -24.4998676145  TIP3      13752           0.0000000000
     91088     14152  TIP3      H2            -37.9937685141       20.4899131404      -24.3497575154  TIP3      13752           0.0000000000
     91089     14153  TIP3      OH2           -40.4363598985       21.6239831178      -37.4145896237  TIP3      13753           0.0000000000
     91090     14153  TIP3      H1            -40.2469160317       21.1651543316      -36.5731852848  TIP3      13753           0.0000000000
     91091     14153  TIP3      H2            -41.0483588531       21.0069574683      -37.8751737576  TIP3      13753           0.0000000000
     91092     14154  TIP3      OH2           -54.9281288502       22.4355856576      -32.8876608367  TIP3      13754           0.0000000000
     91093     14154  TIP3      H1            -54.4759590357       21.6236975641      -32.5767539289  TIP3      13754           0.0000000000
     91094     14154  TIP3      H2            -54.4359534555       23.1449040695      -32.4517746980  TIP3      13754           0.0000000000
     91095     14155  TIP3      OH2           -56.5909745684       25.4113167415      -31.7879811605  TIP3      13755           0.0000000000
     91096     14155  TIP3      H1            -56.0925342333       25.2050714272      -32.5997518136  TIP3      13755           0.0000000000
     91097     14155  TIP3      H2            -56.2246124564       26.2681945060      -31.5441661349  TIP3      13755           0.0000000000
     91098     14156  TIP3      OH2           -38.6003867191       21.7610744073      -25.5415068657  TIP3      13756           0.0000000000
     91099     14156  TIP3      H1            -39.5395005584       22.0265267696      -25.5985743766  TIP3      13756           0.0000000000
     91100     14156  TIP3      H2            -38.5261261200       21.2187931228      -26.3412284293  TIP3      13756           0.0000000000
     91101     14157  TIP3      OH2           -38.6062961136       21.6735996136      -40.8599359195  TIP3      13757           0.0000000000
     91102     14157  TIP3      H1            -38.1579701991       20.9621256204      -41.3591689605  TIP3      13757           0.0000000000
     91103     14157  TIP3      H2            -37.8889946407       22.3375233952      -40.8367652424  TIP3      13757           0.0000000000
     91104     14158  TIP3      OH2            56.5386271030       21.6857371410      -37.7547921733  TIP3      13758           0.0000000000
     91105     14158  TIP3      H1             55.5979988763       21.8896423729      -37.8884271063  TIP3      13758           0.0000000000
     91106     14158  TIP3      H2             56.9809986358       22.1776131922      -38.4647225362  TIP3      13758           0.0000000000
     91107     14159  TIP3      OH2           -41.6325040838       36.7051822205      -35.9196654447  TIP3      13759           0.0000000000
     91108     14159  TIP3      H1            -40.9262379434       36.3345542780      -36.4953733379  TIP3      13759           0.0000000000
     91109     14159  TIP3      H2            -41.1555880668       37.2433575531      -35.2837063181  TIP3      13759           0.0000000000
     91110     14160  TIP3      OH2            56.5274129389       20.3803369358      -29.4479495859  TIP3      13760           0.0000000000
     91111     14160  TIP3      H1             55.8556505400       20.1825173414      -28.7655526708  TIP3      13760           0.0000000000
     91112     14160  TIP3      H2             56.0521104655       21.0407080596      -29.9973277486  TIP3      13760           0.0000000000
     91113     14161  TIP3      OH2           -54.1365578346       33.5978978172      -25.2797242910  TIP3      13761           0.0000000000
     91114     14161  TIP3      H1            -54.9689150540       33.7504827981      -25.7206377229  TIP3      13761           0.0000000000
     91115     14161  TIP3      H2            -54.3827984600       33.4982158489      -24.3497203992  TIP3      13761           0.0000000000
     91116     14162  TIP3      OH2           -51.1990003339       34.5718391125      -28.9877440710  TIP3      13762           0.0000000000
     91117     14162  TIP3      H1            -51.6133169624       35.3849089638      -29.3111295070  TIP3      13762           0.0000000000
     91118     14162  TIP3      H2            -50.2945487044       34.6473309865      -29.3353961819  TIP3      13762           0.0000000000
     91119     14163  TIP3      OH2           -46.8674791439       35.9278464209      -26.1296938163  TIP3      13763           0.0000000000
     91120     14163  TIP3      H1            -46.7274874552       35.6618103225      -25.1636687211  TIP3      13763           0.0000000000
     91121     14163  TIP3      H2            -45.9971539755       36.3236559591      -26.3491993007  TIP3      13763           0.0000000000
     91122     14164  TIP3      OH2           -44.5988149283       37.2189675145      -26.7941941626  TIP3      13764           0.0000000000
     91123     14164  TIP3      H1            -43.8372106821       36.6655922677      -27.0453652496  TIP3      13764           0.0000000000
     91124     14164  TIP3      H2            -44.2082225926       37.6759304037      -26.0021406360  TIP3      13764           0.0000000000
     91125     14165  TIP3      OH2           -39.5992939595       19.8725203625      -27.7095966706  TIP3      13765           0.0000000000
     91126     14165  TIP3      H1            -40.4299271750       20.1539240198      -28.1254188136  TIP3      13765           0.0000000000
     91127     14165  TIP3      H2            -39.3986885476       19.0586827677      -28.2455107702  TIP3      13765           0.0000000000
     91128     14166  TIP3      OH2           -53.7727085687       37.8010940410      -28.9825543959  TIP3      13766           0.0000000000
     91129     14166  TIP3      H1            -54.5160934289       38.2787984936      -29.4119983686  TIP3      13766           0.0000000000
     91130     14166  TIP3      H2            -54.1551290835       37.5946437423      -28.1117648755  TIP3      13766           0.0000000000
     91131     14167  TIP3      OH2           -51.2788232966       37.4101698054      -29.9054354060  TIP3      13767           0.0000000000
     91132     14167  TIP3      H1            -52.1991664495       37.5028737693      -29.5434146834  TIP3      13767           0.0000000000
     91133     14167  TIP3      H2            -51.3806939953       37.9649933831      -30.7192289938  TIP3      13767           0.0000000000
     91134     14168  TIP3      OH2           -46.6300057633       37.2687431084      -30.7395174531  TIP3      13768           0.0000000000
     91135     14168  TIP3      H1            -47.0610531264       37.8386685837      -31.4156110877  TIP3      13768           0.0000000000
     91136     14168  TIP3      H2            -46.4494439090       37.9427411303      -30.0455703399  TIP3      13768           0.0000000000
     91137     14169  TIP3      OH2           -44.3066563492       36.1347485578      -29.7711317515  TIP3      13769           0.0000000000
     91138     14169  TIP3      H1            -45.1789069750       36.3836764110      -30.1077660778  TIP3      13769           0.0000000000
     91139     14169  TIP3      H2            -43.8538337457       37.0066517301      -29.8639649531  TIP3      13769           0.0000000000
     91140     14170  TIP3      OH2           -41.7016997647       37.7112123753      -29.5125861190  TIP3      13770           0.0000000000
     91141     14170  TIP3      H1            -41.8398025961       38.6682318570      -29.7334886124  TIP3      13770           0.0000000000
     91142     14170  TIP3      H2            -41.5116690727       37.3390238960      -30.3841947681  TIP3      13770           0.0000000000
     91143     14171  TIP3      OH2           -54.3293930982       36.4687133681      -32.0695355385  TIP3      13771           0.0000000000
     91144     14171  TIP3      H1            -54.3836768822       36.0065126890      -31.2018071392  TIP3      13771           0.0000000000
     91145     14171  TIP3      H2            -53.5293187946       36.0975251675      -32.4740115046  TIP3      13771           0.0000000000
     91146     14172  TIP3      OH2           -52.2538761633       35.1649509749      -33.4168751834  TIP3      13772           0.0000000000
     91147     14172  TIP3      H1            -52.4352390378       34.2292509738      -33.2133457125  TIP3      13772           0.0000000000
     91148     14172  TIP3      H2            -51.4113816500       35.3047571953      -32.9368110520  TIP3      13772           0.0000000000
     91149     14173  TIP3      OH2           -49.6618044262       35.6431462596      -32.5449336968  TIP3      13773           0.0000000000
     91150     14173  TIP3      H1            -49.5034004729       34.7267867817      -32.8293385943  TIP3      13773           0.0000000000
     91151     14173  TIP3      H2            -49.6302102890       35.5798662418      -31.5863712279  TIP3      13773           0.0000000000
     91152     14174  TIP3      OH2           -46.1879984451       21.2956255419      -33.4017846099  TIP3      13774           0.0000000000
     91153     14174  TIP3      H1            -46.8660051854       20.6506349461      -33.1426804662  TIP3      13774           0.0000000000
     91154     14174  TIP3      H2            -45.6270622992       20.7811210656      -33.9978885203  TIP3      13774           0.0000000000
     91155     14175  TIP3      OH2           -41.0465865109       19.3942320303      -33.3069527526  TIP3      13775           0.0000000000
     91156     14175  TIP3      H1            -40.4262319385       19.9523217261      -33.8235716450  TIP3      13775           0.0000000000
     91157     14175  TIP3      H2            -41.9315669555       19.7118424549      -33.5499867073  TIP3      13775           0.0000000000
     91158     14176  TIP3      OH2           -39.3618660059       20.5600481783      -35.0012419184  TIP3      13776           0.0000000000
     91159     14176  TIP3      H1            -38.6949929282       20.0141125133      -35.4841821740  TIP3      13776           0.0000000000
     91160     14176  TIP3      H2            -38.9068869471       21.4263502917      -34.9444111746  TIP3      13776           0.0000000000
     91161     14177  TIP3      OH2           -53.8423518097       19.9307247738      -35.5703525024  TIP3      13777           0.0000000000
     91162     14177  TIP3      H1            -54.6350134184       19.6904015615      -36.0909707810  TIP3      13777           0.0000000000
     91163     14177  TIP3      H2            -53.3369421787       19.0952055109      -35.5955018305  TIP3      13777           0.0000000000
     91164     14178  TIP3      OH2           -55.0214855510       19.6907526331      -39.7896728408  TIP3      13778           0.0000000000
     91165     14178  TIP3      H1            -54.5752973023       20.3319611660      -40.3756666370  TIP3      13778           0.0000000000
     91166     14178  TIP3      H2            -55.6451545495       20.2493273061      -39.2954762293  TIP3      13778           0.0000000000
     91167     14179  TIP3      OH2           -49.3131462076       19.8462432710      -35.7742435363  TIP3      13779           0.0000000000
     91168     14179  TIP3      H1            -48.4171044861       20.2267322883      -35.8112291502  TIP3      13779           0.0000000000
     91169     14179  TIP3      H2            -49.4017726459       19.6351675050      -34.8446691003  TIP3      13779           0.0000000000
     91170     14180  TIP3      OH2           -43.6890767098       19.8815818226      -34.1264954030  TIP3      13780           0.0000000000
     91171     14180  TIP3      H1            -43.6620690453       19.9712002642      -35.0842608489  TIP3      13780           0.0000000000
     91172     14180  TIP3      H2            -44.0128788701       18.9580520600      -34.0000532670  TIP3      13780           0.0000000000
     91173     14181  TIP3      OH2           -42.3624121754       19.9063046779      -38.4514724804  TIP3      13781           0.0000000000
     91174     14181  TIP3      H1            -43.0920324157       20.5124409510      -38.6405799784  TIP3      13781           0.0000000000
     91175     14181  TIP3      H2            -42.8182407490       19.0494379496      -38.2847054639  TIP3      13781           0.0000000000
     91176     14182  TIP3      OH2           -55.1001733659       35.6436559908      -38.8479500883  TIP3      13782           0.0000000000
     91177     14182  TIP3      H1            -55.8013707982       35.6356997559      -39.5409998300  TIP3      13782           0.0000000000
     91178     14182  TIP3      H2            -55.1229306167       36.5831391493      -38.6181538749  TIP3      13782           0.0000000000
     91179     14183  TIP3      OH2           -53.2048323634       21.6008688933      -41.3309920218  TIP3      13783           0.0000000000
     91180     14183  TIP3      H1            -52.6789343109       21.0010442883      -41.8617832736  TIP3      13783           0.0000000000
     91181     14183  TIP3      H2            -52.5516808900       21.9471461840      -40.6925864795  TIP3      13783           0.0000000000
     91182     14184  TIP3      OH2           -48.1645051351       21.8965061190      -38.9108122912  TIP3      13784           0.0000000000
     91183     14184  TIP3      H1            -47.9468098606       21.2891713651      -38.1838556120  TIP3      13784           0.0000000000
     91184     14184  TIP3      H2            -48.1655736740       22.7519352994      -38.4179220129  TIP3      13784           0.0000000000
     91185     14185  TIP3      OH2           -46.2918607606       37.0587348418      -40.3963340011  TIP3      13785           0.0000000000
     91186     14185  TIP3      H1            -45.3675018587       37.2230138321      -40.6482219178  TIP3      13785           0.0000000000
     91187     14185  TIP3      H2            -46.4812073038       36.4836665301      -41.1972490448  TIP3      13785           0.0000000000
     91188     14186  TIP3      OH2           -39.5621667372       36.4462449928      -37.7532377615  TIP3      13786           0.0000000000
     91189     14186  TIP3      H1            -39.7531473487       35.6830859075      -38.3660206167  TIP3      13786           0.0000000000
     91190     14186  TIP3      H2            -39.6108333901       37.1872247599      -38.3993009361  TIP3      13786           0.0000000000
     91191     14187  TIP3      OH2           -53.9285133889       20.4606837931      -26.1033467825  TIP3      13787           0.0000000000
     91192     14187  TIP3      H1            -54.2839228182       19.6729817843      -25.6473210927  TIP3      13787           0.0000000000
     91193     14187  TIP3      H2            -53.0046268639       20.4461737290      -25.7707233885  TIP3      13787           0.0000000000
     91194     14188  TIP3      OH2           -51.9300753592       19.8259793516      -24.4996024100  TIP3      13788           0.0000000000
     91195     14188  TIP3      H1            -51.0341560657       19.5060634673      -24.7180510959  TIP3      13788           0.0000000000
     91196     14188  TIP3      H2            -52.3197979826       19.0414722041      -24.0754341578  TIP3      13788           0.0000000000
     91197     14189  TIP3      OH2           -53.2865589976       36.6050048664      -41.8572452799  TIP3      13789           0.0000000000
     91198     14189  TIP3      H1            -53.5793414969       36.8746611340      -40.9776780158  TIP3      13789           0.0000000000
     91199     14189  TIP3      H2            -52.5328680039       36.0439865013      -41.6965235158  TIP3      13789           0.0000000000
     91200     14190  TIP3      OH2           -43.5106766094       19.1358104053      -24.3658632838  TIP3      13790           0.0000000000
     91201     14190  TIP3      H1            -43.4438519009       18.6835374896      -23.4946078776  TIP3      13790           0.0000000000
     91202     14190  TIP3      H2            -42.5969225727       19.1184333694      -24.6870826836  TIP3      13790           0.0000000000
     91203     14191  TIP3      OH2           -40.3301042501       35.1722965547      -25.6551118580  TIP3      13791           0.0000000000
     91204     14191  TIP3      H1            -41.1216320762       35.0320136134      -26.2001275413  TIP3      13791           0.0000000000
     91205     14191  TIP3      H2            -40.4089682513       36.1317422494      -25.4490772725  TIP3      13791           0.0000000000
     91206     14192  TIP3      OH2           -25.8969905516       29.0604376715      -35.6629623036  TIP3      13792           0.0000000000
     91207     14192  TIP3      H1            -25.8594081765       30.0377567531      -35.7428408862  TIP3      13792           0.0000000000
     91208     14192  TIP3      H2            -26.5919768089       28.8144010999      -36.2854393025  TIP3      13792           0.0000000000
     91209     14193  TIP3      OH2           -27.0091186412       28.3341721148      -32.1935464721  TIP3      13793           0.0000000000
     91210     14193  TIP3      H1            -27.0360322874       27.6756920150      -31.4925404632  TIP3      13793           0.0000000000
     91211     14193  TIP3      H2            -27.3336747963       27.8451025139      -32.9684730819  TIP3      13793           0.0000000000
     91212     14194  TIP3      OH2           -34.6500959296       27.9691380266      -30.6340252168  TIP3      13794           0.0000000000
     91213     14194  TIP3      H1            -34.5788507386       27.3123505412      -29.9081773128  TIP3      13794           0.0000000000
     91214     14194  TIP3      H2            -33.9187211648       28.5669686875      -30.4249207124  TIP3      13794           0.0000000000
     91215     14195  TIP3      OH2           -23.2854696957       31.2627744710      -33.9107874942  TIP3      13795           0.0000000000
     91216     14195  TIP3      H1            -23.7451380471       30.5540843081      -33.4410451217  TIP3      13795           0.0000000000
     91217     14195  TIP3      H2            -23.3161559882       31.9867406001      -33.2545315499  TIP3      13795           0.0000000000
     91218     14196  TIP3      OH2           -33.7231315768       32.4227651646      -32.0965467519  TIP3      13796           0.0000000000
     91219     14196  TIP3      H1            -34.0613778754       31.5811369131      -32.4546485053  TIP3      13796           0.0000000000
     91220     14196  TIP3      H2            -32.7680273711       32.2322140225      -32.0561028279  TIP3      13796           0.0000000000
     91221     14197  TIP3      OH2           -37.0841218058       26.0246155824      -36.6699864300  TIP3      13797           0.0000000000
     91222     14197  TIP3      H1            -37.5413491915       26.8919264574      -36.7096915470  TIP3      13797           0.0000000000
     91223     14197  TIP3      H2            -37.6630576569       25.4739274921      -37.2164073229  TIP3      13797           0.0000000000
     91224     14198  TIP3      OH2           -36.3930677121       28.2265134527      -34.5409922666  TIP3      13798           0.0000000000
     91225     14198  TIP3      H1            -36.1464895777       27.4268086270      -34.0417736666  TIP3      13798           0.0000000000
     91226     14198  TIP3      H2            -35.6579614884       28.3133100784      -35.1683391108  TIP3      13798           0.0000000000
     91227     14199  TIP3      OH2           -26.1997481124       36.4072298923      -33.6856288727  TIP3      13799           0.0000000000
     91228     14199  TIP3      H1            -25.5573147849       35.7033262091      -33.9604710907  TIP3      13799           0.0000000000
     91229     14199  TIP3      H2            -26.3959807420       36.1297403484      -32.7917430396  TIP3      13799           0.0000000000
     91230     14200  TIP3      OH2           -28.6321476405       30.7507885134      -31.7723345398  TIP3      13800           0.0000000000
     91231     14200  TIP3      H1            -28.2969508634       30.0830123370      -32.3922973986  TIP3      13800           0.0000000000
     91232     14200  TIP3      H2            -27.8598896940       30.8794329491      -31.1951533099  TIP3      13800           0.0000000000
     91233     14201  TIP3      OH2           -19.9903014772       22.3593472206      -30.9660346106  TIP3      13801           0.0000000000
     91234     14201  TIP3      H1            -19.8774446702       22.9799085797      -30.2141139181  TIP3      13801           0.0000000000
     91235     14201  TIP3      H2            -19.4968552218       22.8201626024      -31.6613148844  TIP3      13801           0.0000000000
     91236     14202  TIP3      OH2           -25.4707411649       25.1836798735      -31.4374386672  TIP3      13802           0.0000000000
     91237     14202  TIP3      H1            -25.3211135020       24.2177296072      -31.4446673372  TIP3      13802           0.0000000000
     91238     14202  TIP3      H2            -25.5750519446       25.3461118914      -32.3977783046  TIP3      13802           0.0000000000
     91239     14203  TIP3      OH2           -32.3276920998       23.2575789178      -34.1866947592  TIP3      13803           0.0000000000
     91240     14203  TIP3      H1            -32.2638688284       24.1159359735      -34.6427839656  TIP3      13803           0.0000000000
     91241     14203  TIP3      H2            -32.7710179109       22.7098958492      -34.8653812573  TIP3      13803           0.0000000000
     91242     14204  TIP3      OH2           -24.6137623501       23.3754998485      -35.8158328336  TIP3      13804           0.0000000000
     91243     14204  TIP3      H1            -23.9436874449       23.0550575909      -35.1654177675  TIP3      13804           0.0000000000
     91244     14204  TIP3      H2            -24.0641528082       23.9190809782      -36.4025697733  TIP3      13804           0.0000000000
     91245     14205  TIP3      OH2           -35.7188625097       25.6790171344      -33.4446671195  TIP3      13805           0.0000000000
     91246     14205  TIP3      H1            -35.0437976751       25.1150675762      -33.0096302095  TIP3      13805           0.0000000000
     91247     14205  TIP3      H2            -35.6502757005       25.3762471913      -34.3639053329  TIP3      13805           0.0000000000
     91248     14206  TIP3      OH2           -30.5511895298       27.2336027794      -34.1897271027  TIP3      13806           0.0000000000
     91249     14206  TIP3      H1            -29.9128920270       26.6647647950      -33.7268652619  TIP3      13806           0.0000000000
     91250     14206  TIP3      H2            -31.1105808957       26.5658945644      -34.6366070220  TIP3      13806           0.0000000000
     91251     14207  TIP3      OH2           -19.5640820162       23.8176610056      -28.7197517226  TIP3      13807           0.0000000000
     91252     14207  TIP3      H1            -20.2340284411       24.5263366263      -28.8074127320  TIP3      13807           0.0000000000
     91253     14207  TIP3      H2            -19.5471720040       23.6651719122      -27.7658944910  TIP3      13807           0.0000000000
     91254     14208  TIP3      OH2           -33.4740795444       22.1571567586      -30.1491978502  TIP3      13808           0.0000000000
     91255     14208  TIP3      H1            -33.7316203289       22.7338370100      -30.8954473766  TIP3      13808           0.0000000000
     91256     14208  TIP3      H2            -34.1590969214       22.4053414651      -29.4753791001  TIP3      13808           0.0000000000
     91257     14209  TIP3      OH2           -26.1351987455       31.6625208462      -36.5951430527  TIP3      13809           0.0000000000
     91258     14209  TIP3      H1            -26.4396795360       31.3650241972      -37.4544841311  TIP3      13809           0.0000000000
     91259     14209  TIP3      H2            -26.4629328548       32.5878405881      -36.5510259158  TIP3      13809           0.0000000000
     91260     14210  TIP3      OH2           -30.9300499342       29.8265040081      -29.8695454623  TIP3      13810           0.0000000000
     91261     14210  TIP3      H1            -31.6621559416       30.4631856605      -29.7189678906  TIP3      13810           0.0000000000
     91262     14210  TIP3      H2            -30.2248302700       30.4171715371      -30.1730762934  TIP3      13810           0.0000000000
     91263     14211  TIP3      OH2           -22.8304499138       22.6939225886      -33.8281136061  TIP3      13811           0.0000000000
     91264     14211  TIP3      H1            -23.0355831410       21.9227608543      -33.2888537463  TIP3      13811           0.0000000000
     91265     14211  TIP3      H2            -22.1578623152       23.1469917624      -33.2917047511  TIP3      13811           0.0000000000
     91266     14212  TIP3      OH2           -33.9151399859       24.0508581266      -32.1534486068  TIP3      13812           0.0000000000
     91267     14212  TIP3      H1            -33.2716444140       24.7123940275      -31.8086572317  TIP3      13812           0.0000000000
     91268     14212  TIP3      H2            -33.3779316923       23.6027164212      -32.8490274996  TIP3      13812           0.0000000000
     91269     14213  TIP3      OH2           -32.5016495194       31.8062280837      -29.0749928382  TIP3      13813           0.0000000000
     91270     14213  TIP3      H1            -32.5364741070       32.7150232000      -29.4322275165  TIP3      13813           0.0000000000
     91271     14213  TIP3      H2            -33.3867283663       31.7398878052      -28.6330010734  TIP3      13813           0.0000000000
     91272     14214  TIP3      OH2           -36.4138025846       31.4577415976      -38.2814226000  TIP3      13814           0.0000000000
     91273     14214  TIP3      H1            -36.6628781591       31.7432343568      -39.1789800933  TIP3      13814           0.0000000000
     91274     14214  TIP3      H2            -36.3534875665       32.3131114211      -37.8017300259  TIP3      13814           0.0000000000
     91275     14215  TIP3      OH2           -22.7748628967       33.0966631665      -31.5613165459  TIP3      13815           0.0000000000
     91276     14215  TIP3      H1            -23.7416190729       33.1876642406      -31.4093255873  TIP3      13815           0.0000000000
     91277     14215  TIP3      H2            -22.5192489265       34.0287018015      -31.7105221487  TIP3      13815           0.0000000000
     91278     14216  TIP3      OH2           -22.4769196373       21.3926631573      -30.1425265100  TIP3      13816           0.0000000000
     91279     14216  TIP3      H1            -23.2122205963       22.0158685198      -30.2038316595  TIP3      13816           0.0000000000
     91280     14216  TIP3      H2            -21.7807774475       21.8146177434      -30.6766249397  TIP3      13816           0.0000000000
     91281     14217  TIP3      OH2           -29.5012517896       19.4931151806      -32.7043492743  TIP3      13817           0.0000000000
     91282     14217  TIP3      H1            -29.5801422367       18.5250541191      -32.7280092080  TIP3      13817           0.0000000000
     91283     14217  TIP3      H2            -30.3482096673       19.8349548475      -32.3778245247  TIP3      13817           0.0000000000
     91284     14218  TIP3      OH2           -24.5378330210       34.8858890333      -34.9325119165  TIP3      13818           0.0000000000
     91285     14218  TIP3      H1            -24.0994867834       34.1757893932      -35.4400145876  TIP3      13818           0.0000000000
     91286     14218  TIP3      H2            -24.1704890634       35.6909152711      -35.3521816536  TIP3      13818           0.0000000000
     91287     14219  TIP3      OH2           -23.3283245695       32.8054432517      -36.4358548926  TIP3      13819           0.0000000000
     91288     14219  TIP3      H1            -23.6350897835       32.1085061859      -37.0452619218  TIP3      13819           0.0000000000
     91289     14219  TIP3      H2            -23.3105797438       32.3309673031      -35.5851764294  TIP3      13819           0.0000000000
     91290     14220  TIP3      OH2           -21.6962869038       31.3816513833      -27.9407406027  TIP3      13820           0.0000000000
     91291     14220  TIP3      H1            -21.5489603547       30.7585360715      -28.6845865525  TIP3      13820           0.0000000000
     91292     14220  TIP3      H2            -21.5126136814       32.2466242539      -28.3355417308  TIP3      13820           0.0000000000
     91293     14221  TIP3      OH2           -27.2202956772       28.3056603309      -38.1870193527  TIP3      13821           0.0000000000
     91294     14221  TIP3      H1            -27.9342419288       28.8735751646      -38.5311530084  TIP3      13821           0.0000000000
     91295     14221  TIP3      H2            -26.4999481673       28.3874072557      -38.8196127508  TIP3      13821           0.0000000000
     91296     14222  TIP3      OH2           -27.1638351569       26.7789992013      -41.1244730890  TIP3      13822           0.0000000000
     91297     14222  TIP3      H1            -26.4561005271       26.7404139184      -40.4610246529  TIP3      13822           0.0000000000
     91298     14222  TIP3      H2            -26.8579913627       26.1243742974      -41.7766502111  TIP3      13822           0.0000000000
     91299     14223  TIP3      OH2           -19.8303955506       27.6972533136      -29.8858066175  TIP3      13823           0.0000000000
     91300     14223  TIP3      H1            -20.4931361538       28.4144230772      -29.8153028120  TIP3      13823           0.0000000000
     91301     14223  TIP3      H2            -19.3602473281       27.9315197065      -30.7040947016  TIP3      13823           0.0000000000
     91302     14224  TIP3      OH2           -23.8026253719       28.5208546941      -37.2575621115  TIP3      13824           0.0000000000
     91303     14224  TIP3      H1            -24.5289451450       28.7605988264      -36.6320707665  TIP3      13824           0.0000000000
     91304     14224  TIP3      H2            -23.3296447791       27.8301930456      -36.7524163538  TIP3      13824           0.0000000000
     91305     14225  TIP3      OH2           -23.8669757379       26.6790132029      -28.1503439535  TIP3      13825           0.0000000000
     91306     14225  TIP3      H1            -23.8337882797       27.4791591509      -27.5920394480  TIP3      13825           0.0000000000
     91307     14225  TIP3      H2            -24.4984670745       26.9856809170      -28.8379615073  TIP3      13825           0.0000000000
     91308     14226  TIP3      OH2           -32.1570455918       29.1797234458      -35.3364967096  TIP3      13826           0.0000000000
     91309     14226  TIP3      H1            -32.4855402484       28.7823606989      -36.1769917930  TIP3      13826           0.0000000000
     91310     14226  TIP3      H2            -31.5534573992       28.4785953056      -34.9984266711  TIP3      13826           0.0000000000
     91311     14227  TIP3      OH2           -30.8178964280       32.5868013197      -32.6566706256  TIP3      13827           0.0000000000
     91312     14227  TIP3      H1            -30.8672758577       32.0155638038      -33.4337503765  TIP3      13827           0.0000000000
     91313     14227  TIP3      H2            -30.0539355320       32.2078920693      -32.1842496275  TIP3      13827           0.0000000000
     91314     14228  TIP3      OH2           -31.8104973080       27.9190421913      -31.6973356631  TIP3      13828           0.0000000000
     91315     14228  TIP3      H1            -31.2379185001       28.0431475305      -32.4778345922  TIP3      13828           0.0000000000
     91316     14228  TIP3      H2            -31.4580831112       28.5780462857      -31.0665531005  TIP3      13828           0.0000000000
     91317     14229  TIP3      OH2           -25.4539864648       33.4687085836      -30.9870170868  TIP3      13829           0.0000000000
     91318     14229  TIP3      H1            -25.7167263976       34.1030269068      -30.3194954297  TIP3      13829           0.0000000000
     91319     14229  TIP3      H2            -25.6801960647       32.6093108029      -30.5459880469  TIP3      13829           0.0000000000
     91320     14230  TIP3      OH2           -30.8878446928       32.3315479832      -26.9748026240  TIP3      13830           0.0000000000
     91321     14230  TIP3      H1            -31.2497238329       33.1143196613      -26.5196491614  TIP3      13830           0.0000000000
     91322     14230  TIP3      H2            -31.5635795296       32.1632178947      -27.6784309122  TIP3      13830           0.0000000000
     91323     14231  TIP3      OH2           -24.9475092104       27.7225988663      -39.5811730195  TIP3      13831           0.0000000000
     91324     14231  TIP3      H1            -24.3533613804       27.8483600612      -38.7798853191  TIP3      13831           0.0000000000
     91325     14231  TIP3      H2            -24.4431471886       28.1833803403      -40.2626664408  TIP3      13831           0.0000000000
     91326     14232  TIP3      OH2           -33.9638636065       28.5058139360      -27.7798466337  TIP3      13832           0.0000000000
     91327     14232  TIP3      H1            -33.9149827394       29.1849813730      -27.0769076043  TIP3      13832           0.0000000000
     91328     14232  TIP3      H2            -34.8795818420       28.6231052085      -28.0767714324  TIP3      13832           0.0000000000
     91329     14233  TIP3      OH2           -27.1979124946       34.4240882877      -36.1050853638  TIP3      13833           0.0000000000
     91330     14233  TIP3      H1            -26.7376954273       34.7340242794      -35.3180440789  TIP3      13833           0.0000000000
     91331     14233  TIP3      H2            -27.7580151060       35.1735152372      -36.3461122356  TIP3      13833           0.0000000000
     91332     14234  TIP3      OH2           -32.6499537391       34.3881291389      -26.2286206412  TIP3      13834           0.0000000000
     91333     14234  TIP3      H1            -32.6766414129       34.2689306313      -27.1910667103  TIP3      13834           0.0000000000
     91334     14234  TIP3      H2            -33.5885964639       34.2733777303      -25.9800346065  TIP3      13834           0.0000000000
     91335     14235  TIP3      OH2           -21.2038740345       19.4367533975      -39.7132077633  TIP3      13835           0.0000000000
     91336     14235  TIP3      H1            -22.1420759351       19.5746529820      -39.4341065453  TIP3      13835           0.0000000000
     91337     14235  TIP3      H2            -20.9736186078       20.2869346256      -40.1218192054  TIP3      13835           0.0000000000
     91338     14236  TIP3      OH2           -33.1690271901       28.2136724070      -37.7349218074  TIP3      13836           0.0000000000
     91339     14236  TIP3      H1            -33.4649085080       28.9928505845      -38.2519240509  TIP3      13836           0.0000000000
     91340     14236  TIP3      H2            -33.8420803531       27.5575516149      -37.9325476416  TIP3      13836           0.0000000000
     91341     14237  TIP3      OH2           -20.0669024876       33.7856565681      -41.3330161458  TIP3      13837           0.0000000000
     91342     14237  TIP3      H1            -19.9532848177       34.7458621901      -41.1880417706  TIP3      13837           0.0000000000
     91343     14237  TIP3      H2            -19.1345678881       33.5094607219      -41.4015382722  TIP3      13837           0.0000000000
     91344     14238  TIP3      OH2           -37.0822117263       30.6153513104      -28.8872642341  TIP3      13838           0.0000000000
     91345     14238  TIP3      H1            -37.5636147927       30.5495734810      -29.7321575945  TIP3      13838           0.0000000000
     91346     14238  TIP3      H2            -37.0534922514       29.6752331650      -28.6290822974  TIP3      13838           0.0000000000
     91347     14239  TIP3      OH2           -37.3380777497       33.3753064566      -32.0673993703  TIP3      13839           0.0000000000
     91348     14239  TIP3      H1            -36.3780460573       33.2303465899      -32.0665194835  TIP3      13839           0.0000000000
     91349     14239  TIP3      H2            -37.4221843649       34.1639844017      -31.5179885029  TIP3      13839           0.0000000000
     91350     14240  TIP3      OH2           -19.0985929219       34.0544981679      -26.3770507866  TIP3      13840           0.0000000000
     91351     14240  TIP3      H1            -19.1996444933       33.0907404591      -26.3938227026  TIP3      13840           0.0000000000
     91352     14240  TIP3      H2            -19.9657284981       34.3024512510      -25.9601643982  TIP3      13840           0.0000000000
     91353     14241  TIP3      OH2           -28.1406421730       33.6028035661      -27.5102216817  TIP3      13841           0.0000000000
     91354     14241  TIP3      H1            -28.0674870956       34.4456127686      -27.0052983919  TIP3      13841           0.0000000000
     91355     14241  TIP3      H2            -29.0154542194       33.2682505344      -27.2414273378  TIP3      13841           0.0000000000
     91356     14242  TIP3      OH2           -27.7257877025       37.3589963561      -37.6884368230  TIP3      13842           0.0000000000
     91357     14242  TIP3      H1            -27.8002601238       37.2677274510      -38.6551993395  TIP3      13842           0.0000000000
     91358     14242  TIP3      H2            -27.6911861239       38.3273251824      -37.5610694531  TIP3      13842           0.0000000000
     91359     14243  TIP3      OH2           -34.0652311935       36.2109329202      -35.8953631933  TIP3      13843           0.0000000000
     91360     14243  TIP3      H1            -33.9260888278       35.8115880600      -35.0113272689  TIP3      13843           0.0000000000
     91361     14243  TIP3      H2            -34.9155999607       35.8142745479      -36.1455686129  TIP3      13843           0.0000000000
     91362     14244  TIP3      OH2           -24.6517305462       36.5543297245      -40.7174030869  TIP3      13844           0.0000000000
     91363     14244  TIP3      H1            -24.2313375776       35.7839684433      -41.1554219001  TIP3      13844           0.0000000000
     91364     14244  TIP3      H2            -24.6171879844       36.2786095865      -39.7778625905  TIP3      13844           0.0000000000
     91365     14245  TIP3      OH2           -24.9534040031       36.4813614017      -37.9436195337  TIP3      13845           0.0000000000
     91366     14245  TIP3      H1            -25.9088585489       36.5611828808      -37.7547617301  TIP3      13845           0.0000000000
     91367     14245  TIP3      H2            -24.6939914917       35.7515246443      -37.3617266601  TIP3      13845           0.0000000000
     91368     14246  TIP3      OH2           -21.9490157453       25.5324044772      -25.9000780542  TIP3      13846           0.0000000000
     91369     14246  TIP3      H1            -22.4019478185       26.0060037407      -26.6129282132  TIP3      13846           0.0000000000
     91370     14246  TIP3      H2            -21.9459292244       24.6141062721      -26.2052743876  TIP3      13846           0.0000000000
     91371     14247  TIP3      OH2           -34.8203201170       31.9311047168      -27.8978961367  TIP3      13847           0.0000000000
     91372     14247  TIP3      H1            -34.5979421960       31.5582040139      -27.0168531299  TIP3      13847           0.0000000000
     91373     14247  TIP3      H2            -35.6881390881       31.5353400678      -28.1065488590  TIP3      13847           0.0000000000
     91374     14248  TIP3      OH2           -32.1668300297       20.3641136469      -31.9264254199  TIP3      13848           0.0000000000
     91375     14248  TIP3      H1            -33.0759256883       20.3233778342      -32.3000430585  TIP3      13848           0.0000000000
     91376     14248  TIP3      H2            -32.2362983788       21.2361825204      -31.4691137568  TIP3      13848           0.0000000000
     91377     14249  TIP3      OH2           -27.5111985488       20.1099369587      -28.5408819916  TIP3      13849           0.0000000000
     91378     14249  TIP3      H1            -27.1119590414       19.6763132168      -27.7663033121  TIP3      13849           0.0000000000
     91379     14249  TIP3      H2            -28.4790335907       19.9396903934      -28.4129513422  TIP3      13849           0.0000000000
     91380     14250  TIP3      OH2           -24.2047418018       23.8868468797      -27.6792942558  TIP3      13850           0.0000000000
     91381     14250  TIP3      H1            -24.7479101821       23.7234071536      -26.8706972534  TIP3      13850           0.0000000000
     91382     14250  TIP3      H2            -24.3776747066       24.8106675703      -27.9133926395  TIP3      13850           0.0000000000
     91383     14251  TIP3      OH2           -23.4130950219       28.7864697237      -41.8196894294  TIP3      13851           0.0000000000
     91384     14251  TIP3      H1            -23.3687160130       28.5515902353      -42.7819651157  TIP3      13851           0.0000000000
     91385     14251  TIP3      H2            -22.5357702913       29.1708994269      -41.6948005654  TIP3      13851           0.0000000000
     91386     14252  TIP3      OH2           -27.8604048444       22.6283109089      -41.2445880972  TIP3      13852           0.0000000000
     91387     14252  TIP3      H1            -28.1489737491       22.6085900517      -40.3113361691  TIP3      13852           0.0000000000
     91388     14252  TIP3      H2            -28.1352342561       21.7465826774      -41.5268033639  TIP3      13852           0.0000000000
     91389     14253  TIP3      OH2           -32.0723449504       25.3547163843      -30.7558392618  TIP3      13853           0.0000000000
     91390     14253  TIP3      H1            -32.7691252293       25.3338985256      -30.0742005386  TIP3      13853           0.0000000000
     91391     14253  TIP3      H2            -32.0805215351       26.2922208318      -31.0509569810  TIP3      13853           0.0000000000
     91392     14254  TIP3      OH2           -32.0950168544       25.5531193138      -35.8539075369  TIP3      13854           0.0000000000
     91393     14254  TIP3      H1            -33.0163760760       25.2374895505      -35.9588035655  TIP3      13854           0.0000000000
     91394     14254  TIP3      H2            -31.6795576270       25.1992448158      -36.6634982238  TIP3      13854           0.0000000000
     91395     14255  TIP3      OH2           -26.5706901182       25.9908224390      -37.0662341207  TIP3      13855           0.0000000000
     91396     14255  TIP3      H1            -26.9856077665       26.8207835368      -37.3731263482  TIP3      13855           0.0000000000
     91397     14255  TIP3      H2            -25.8550935004       25.8426216745      -37.7082292068  TIP3      13855           0.0000000000
     91398     14256  TIP3      OH2           -27.4883003733       26.2035975345      -25.5887032461  TIP3      13856           0.0000000000
     91399     14256  TIP3      H1            -28.0362094480       25.4419391826      -25.2737309223  TIP3      13856           0.0000000000
     91400     14256  TIP3      H2            -26.6496615928       26.0532487852      -25.1247157956  TIP3      13856           0.0000000000
     91401     14257  TIP3      OH2           -25.5523143301       25.4629527108      -34.2265667033  TIP3      13857           0.0000000000
     91402     14257  TIP3      H1            -25.7833337077       26.0427928170      -34.9721215310  TIP3      13857           0.0000000000
     91403     14257  TIP3      H2            -25.4060349157       24.6156170346      -34.6957355884  TIP3      13857           0.0000000000
     91404     14258  TIP3      OH2           -34.3828895581       25.6632170759      -28.9688450407  TIP3      13858           0.0000000000
     91405     14258  TIP3      H1            -34.3785653363       26.0679062902      -28.0836678505  TIP3      13858           0.0000000000
     91406     14258  TIP3      H2            -34.8578928627       24.8319434122      -28.8220211135  TIP3      13858           0.0000000000
     91407     14259  TIP3      OH2           -30.8768512886       23.2343544859      -41.8989752384  TIP3      13859           0.0000000000
     91408     14259  TIP3      H1            -31.4159428310       22.6147602171      -41.3645641865  TIP3      13859           0.0000000000
     91409     14259  TIP3      H2            -31.5652316794       23.4988670289      -42.5315065333  TIP3      13859           0.0000000000
     91410     14260  TIP3      OH2           -37.7618364949       22.7874187555      -35.0655433608  TIP3      13860           0.0000000000
     91411     14260  TIP3      H1            -37.1015790312       22.7409095983      -34.3458620077  TIP3      13860           0.0000000000
     91412     14260  TIP3      H2            -37.3030543212       22.3619321990      -35.8144639267  TIP3      13860           0.0000000000
     91413     14261  TIP3      OH2           -36.4684816610       23.5082680235      -39.6409823585  TIP3      13861           0.0000000000
     91414     14261  TIP3      H1            -35.9918296040       24.1030983165      -40.2599139906  TIP3      13861           0.0000000000
     91415     14261  TIP3      H2            -37.1877917716       24.0868354930      -39.3256987381  TIP3      13861           0.0000000000
     91416     14262  TIP3      OH2           -26.3154786372       27.0858982796      -29.6135589702  TIP3      13862           0.0000000000
     91417     14262  TIP3      H1            -25.9693345229       26.4188585811      -30.2357133677  TIP3      13862           0.0000000000
     91418     14262  TIP3      H2            -26.7647490543       26.5402909912      -28.9438750270  TIP3      13862           0.0000000000
     91419     14263  TIP3      OH2           -29.5231838448       23.0221375372      -34.8171683137  TIP3      13863           0.0000000000
     91420     14263  TIP3      H1            -30.4545997126       23.0655381922      -34.5164656260  TIP3      13863           0.0000000000
     91421     14263  TIP3      H2            -29.0307052649       22.9221995138      -33.9889518246  TIP3      13863           0.0000000000
     91422     14264  TIP3      OH2           -34.7039010608       24.6214394583      -35.9611389890  TIP3      13864           0.0000000000
     91423     14264  TIP3      H1            -35.6002880417       24.7338371664      -36.3379940207  TIP3      13864           0.0000000000
     91424     14264  TIP3      H2            -34.4132572334       23.7775870390      -36.3391837660  TIP3      13864           0.0000000000
     91425     14265  TIP3      OH2           -31.0647508416       24.6437843311      -38.3151024085  TIP3      13865           0.0000000000
     91426     14265  TIP3      H1            -30.1119982466       24.7587904429      -38.1442137103  TIP3      13865           0.0000000000
     91427     14265  TIP3      H2            -31.2853445050       25.3111690043      -38.9871483115  TIP3      13865           0.0000000000
     91428     14266  TIP3      OH2           -25.1158085753       22.2584041145      -31.5568460266  TIP3      13866           0.0000000000
     91429     14266  TIP3      H1            -25.8106236818       22.3573041450      -30.8717963387  TIP3      13866           0.0000000000
     91430     14266  TIP3      H2            -25.6211882673       22.0644191507      -32.3575568693  TIP3      13866           0.0000000000
     91431     14267  TIP3      OH2           -32.3801640861       25.8245552221      -40.7328275192  TIP3      13867           0.0000000000
     91432     14267  TIP3      H1            -32.9263629034       25.4521170836      -41.4488274042  TIP3      13867           0.0000000000
     91433     14267  TIP3      H2            -31.5502106089       26.0199547804      -41.1903481385  TIP3      13867           0.0000000000
     91434     14268  TIP3      OH2           -21.8904005139       37.9217067810      -25.2431562483  TIP3      13868           0.0000000000
     91435     14268  TIP3      H1            -21.6315035834       38.3210468114      -26.0998670228  TIP3      13868           0.0000000000
     91436     14268  TIP3      H2            -21.1763214112       38.2492331622      -24.6644727695  TIP3      13868           0.0000000000
     91437     14269  TIP3      OH2           -34.2326999069       30.3808195911      -25.6668601130  TIP3      13869           0.0000000000
     91438     14269  TIP3      H1            -33.5147571839       30.6488826123      -25.0679469488  TIP3      13869           0.0000000000
     91439     14269  TIP3      H2            -35.0195385473       30.5643686881      -25.1113378520  TIP3      13869           0.0000000000
     91440     14270  TIP3      OH2           -28.2285137189       25.8000913727      -32.9200316372  TIP3      13870           0.0000000000
     91441     14270  TIP3      H1            -27.6453552851       25.2530310247      -33.4620274845  TIP3      13870           0.0000000000
     91442     14270  TIP3      H2            -28.3688146870       25.2619823648      -32.1301130431  TIP3      13870           0.0000000000
     91443     14271  TIP3      OH2           -33.2118639838       21.9349741015      -36.4786505898  TIP3      13871           0.0000000000
     91444     14271  TIP3      H1            -33.5343432779       21.0191793004      -36.5394370460  TIP3      13871           0.0000000000
     91445     14271  TIP3      H2            -32.4391377082       21.9125340473      -37.0610717285  TIP3      13871           0.0000000000
     91446     14272  TIP3      OH2           -29.5904088483       24.1522241197      -30.5110199830  TIP3      13872           0.0000000000
     91447     14272  TIP3      H1            -30.4271860020       24.6442999343      -30.4009751407  TIP3      13872           0.0000000000
     91448     14272  TIP3      H2            -29.0531595531       24.4711496642      -29.7583106153  TIP3      13872           0.0000000000
     91449     14273  TIP3      OH2           -28.9995726291       30.3605864592      -38.8202907107  TIP3      13873           0.0000000000
     91450     14273  TIP3      H1            -29.8090822256       29.8884951065      -39.1305652651  TIP3      13873           0.0000000000
     91451     14273  TIP3      H2            -29.2029429169       30.4530610706      -37.8611804421  TIP3      13873           0.0000000000
     91452     14274  TIP3      OH2           -21.8660752080       29.5293930298      -30.0145547923  TIP3      13874           0.0000000000
     91453     14274  TIP3      H1            -21.2616815296       30.0044821945      -30.6025697632  TIP3      13874           0.0000000000
     91454     14274  TIP3      H2            -22.7136732543       29.6307621203      -30.4954824920  TIP3      13874           0.0000000000
     91455     14275  TIP3      OH2           -25.1423714800       23.1788089606      -40.6284566866  TIP3      13875           0.0000000000
     91456     14275  TIP3      H1            -26.0931983083       23.3088840646      -40.7781096403  TIP3      13875           0.0000000000
     91457     14275  TIP3      H2            -24.8466188650       24.0481926724      -40.3064124941  TIP3      13875           0.0000000000
     91458     14276  TIP3      OH2           -27.5214253302       30.5925748400      -27.5807668576  TIP3      13876           0.0000000000
     91459     14276  TIP3      H1            -27.8683717240       30.1973829687      -26.7745238355  TIP3      13876           0.0000000000
     91460     14276  TIP3      H2            -27.7410818665       31.5245525022      -27.4933330673  TIP3      13876           0.0000000000
     91461     14277  TIP3      OH2           -24.4403815699       25.0896969959      -38.9582376714  TIP3      13877           0.0000000000
     91462     14277  TIP3      H1            -23.5320862057       24.9354262033      -38.6203646651  TIP3      13877           0.0000000000
     91463     14277  TIP3      H2            -24.3515402655       25.8776781825      -39.4956068710  TIP3      13877           0.0000000000
     91464     14278  TIP3      OH2           -33.9159722138       29.7175896701      -33.0280037554  TIP3      13878           0.0000000000
     91465     14278  TIP3      H1            -33.1862936737       29.6748785824      -33.6749464951  TIP3      13878           0.0000000000
     91466     14278  TIP3      H2            -33.8387841117       28.8670536135      -32.5631076765  TIP3      13878           0.0000000000
     91467     14279  TIP3      OH2           -26.9019869457       31.8219177263      -39.7927558125  TIP3      13879           0.0000000000
     91468     14279  TIP3      H1            -27.2280694543       32.6737648657      -39.4140390004  TIP3      13879           0.0000000000
     91469     14279  TIP3      H2            -27.6540849141       31.2345962085      -39.5724502694  TIP3      13879           0.0000000000
     91470     14280  TIP3      OH2           -36.9161499668       28.1624585191      -27.7427105164  TIP3      13880           0.0000000000
     91471     14280  TIP3      H1            -36.7025586683       27.7175378702      -26.9033297534  TIP3      13880           0.0000000000
     91472     14280  TIP3      H2            -37.5229335358       27.5326696371      -28.1688998046  TIP3      13880           0.0000000000
     91473     14281  TIP3      OH2           -29.8975055958       27.6940369431      -25.5319982751  TIP3      13881           0.0000000000
     91474     14281  TIP3      H1            -30.1986353413       27.4662733722      -26.4244239130  TIP3      13881           0.0000000000
     91475     14281  TIP3      H2            -28.9593584478       27.4218836312      -25.5526115819  TIP3      13881           0.0000000000
     91476     14282  TIP3      OH2           -25.2443668976       33.0374936131      -27.6404307965  TIP3      13882           0.0000000000
     91477     14282  TIP3      H1            -26.1681888658       33.2264292737      -27.8800532438  TIP3      13882           0.0000000000
     91478     14282  TIP3      H2            -25.2498573699       33.3146501672      -26.7051048476  TIP3      13882           0.0000000000
     91479     14283  TIP3      OH2           -19.5372055315       25.2478122472      -39.2278832345  TIP3      13883           0.0000000000
     91480     14283  TIP3      H1            -20.1014349664       24.9071576536      -39.9480269692  TIP3      13883           0.0000000000
     91481     14283  TIP3      H2            -19.4542524221       26.1825545480      -39.5301339785  TIP3      13883           0.0000000000
     91482     14284  TIP3      OH2           -19.5541031128       31.0798672177      -26.4146910112  TIP3      13884           0.0000000000
     91483     14284  TIP3      H1            -20.4417679196       31.3121494882      -26.7843237132  TIP3      13884           0.0000000000
     91484     14284  TIP3      H2            -18.9919180657       31.0602554531      -27.2062858832  TIP3      13884           0.0000000000
     91485     14285  TIP3      OH2           -21.2257064773       34.0608979917      -38.8024595546  TIP3      13885           0.0000000000
     91486     14285  TIP3      H1            -21.6318230050       33.2411366465      -38.5001363000  TIP3      13885           0.0000000000
     91487     14285  TIP3      H2            -20.9650895502       33.8821640998      -39.7253675817  TIP3      13885           0.0000000000
     91488     14286  TIP3      OH2           -24.0665963325       28.8841994776      -31.7521805293  TIP3      13886           0.0000000000
     91489     14286  TIP3      H1            -25.0092753758       28.6487434584      -31.8195164194  TIP3      13886           0.0000000000
     91490     14286  TIP3      H2            -23.6304869660       28.0996038824      -32.1303633044  TIP3      13886           0.0000000000
     91491     14287  TIP3      OH2           -31.5353337978       33.1984553757      -35.6357709054  TIP3      13887           0.0000000000
     91492     14287  TIP3      H1            -31.0218018032       33.9952789564      -35.8422559674  TIP3      13887           0.0000000000
     91493     14287  TIP3      H2            -32.4182297668       33.4371224485      -35.9517310877  TIP3      13887           0.0000000000
     91494     14288  TIP3      OH2           -35.7933129554       28.0592511553      -41.0751827770  TIP3      13888           0.0000000000
     91495     14288  TIP3      H1            -35.1688273800       28.6924105265      -40.6774136352  TIP3      13888           0.0000000000
     91496     14288  TIP3      H2            -36.6604427116       28.3719440311      -40.7763128864  TIP3      13888           0.0000000000
     91497     14289  TIP3      OH2           -30.1013048775       30.8629550009      -36.0859405124  TIP3      13889           0.0000000000
     91498     14289  TIP3      H1            -30.3852429775       31.7949344172      -36.0194166181  TIP3      13889           0.0000000000
     91499     14289  TIP3      H2            -30.8543970899       30.3991056284      -35.6671914325  TIP3      13889           0.0000000000
     91500     14290  TIP3      OH2           -29.6414766461       35.0315589236      -29.7338519158  TIP3      13890           0.0000000000
     91501     14290  TIP3      H1            -29.2244403873       35.8704442107      -29.9874774410  TIP3      13890           0.0000000000
     91502     14290  TIP3      H2            -29.0564197573       34.7226599824      -29.0167300000  TIP3      13890           0.0000000000
     91503     14291  TIP3      OH2           -31.4298306933       35.8758349862      -36.5500361667  TIP3      13891           0.0000000000
     91504     14291  TIP3      H1            -32.3977927302       36.0028634600      -36.4565317440  TIP3      13891           0.0000000000
     91505     14291  TIP3      H2            -31.0793915543       36.7131675548      -36.1923511324  TIP3      13891           0.0000000000
     91506     14292  TIP3      OH2           -26.0859623469       31.0952529975      -30.0665585485  TIP3      13892           0.0000000000
     91507     14292  TIP3      H1            -26.4785087528       30.8789881277      -29.1994195894  TIP3      13892           0.0000000000
     91508     14292  TIP3      H2            -25.4788828347       30.3606991946      -30.2402894108  TIP3      13892           0.0000000000
     91509     14293  TIP3      OH2           -23.8517611133       32.0405655593      -40.9821197412  TIP3      13893           0.0000000000
     91510     14293  TIP3      H1            -23.5111222270       31.6615900544      -40.1493591900  TIP3      13893           0.0000000000
     91511     14293  TIP3      H2            -24.8071192868       31.9605313835      -40.8795071412  TIP3      13893           0.0000000000
     91512     14294  TIP3      OH2           -23.3743036737       35.6589309627      -27.5603936270  TIP3      13894           0.0000000000
     91513     14294  TIP3      H1            -24.0055407756       35.1246766487      -28.0808765323  TIP3      13894           0.0000000000
     91514     14294  TIP3      H2            -23.1273432336       36.3359049930      -28.2273490258  TIP3      13894           0.0000000000
     91515     14295  TIP3      OH2           -19.3389864594       36.5075601435      -40.7530754268  TIP3      13895           0.0000000000
     91516     14295  TIP3      H1            -18.6147012219       37.1281339588      -40.9430232940  TIP3      13895           0.0000000000
     91517     14295  TIP3      H2            -20.0527063208       37.1063971157      -40.4440401977  TIP3      13895           0.0000000000
     91518     14296  TIP3      OH2           -35.2620009683       22.8992903526      -28.1902514514  TIP3      13896           0.0000000000
     91519     14296  TIP3      H1            -36.1731298505       23.2427482389      -28.2328074615  TIP3      13896           0.0000000000
     91520     14296  TIP3      H2            -35.3775404275       22.0430584113      -27.7487840889  TIP3      13896           0.0000000000
     91521     14297  TIP3      OH2           -23.0073168381       30.7305232525      -38.7656084761  TIP3      13897           0.0000000000
     91522     14297  TIP3      H1            -23.2593164905       29.9725611999      -38.1982359142  TIP3      13897           0.0000000000
     91523     14297  TIP3      H2            -22.0646509954       30.8274734264      -38.5432107033  TIP3      13897           0.0000000000
     91524     14298  TIP3      OH2           -35.6284636606       34.7012725312      -29.7608179556  TIP3      13898           0.0000000000
     91525     14298  TIP3      H1            -35.3842331048       33.7613217527      -29.7655454032  TIP3      13898           0.0000000000
     91526     14298  TIP3      H2            -35.3790481003       34.9704481366      -28.8675850836  TIP3      13898           0.0000000000
     91527     14299  TIP3      OH2           -30.8529618957       32.7378606548      -40.0766474588  TIP3      13899           0.0000000000
     91528     14299  TIP3      H1            -30.6711724812       32.2086838102      -39.2918175921  TIP3      13899           0.0000000000
     91529     14299  TIP3      H2            -30.8267829668       33.6559370610      -39.7505277742  TIP3      13899           0.0000000000
     91530     14300  TIP3      OH2           -34.3885611640       29.9780811606      -39.5858247034  TIP3      13900           0.0000000000
     91531     14300  TIP3      H1            -35.0654832406       30.3604065131      -38.9931560858  TIP3      13900           0.0000000000
     91532     14300  TIP3      H2            -33.8433660554       30.7492730291      -39.8167507347  TIP3      13900           0.0000000000
     91533     14301  TIP3      OH2           -26.5394422343       22.6568575831      -29.2793015099  TIP3      13901           0.0000000000
     91534     14301  TIP3      H1            -25.8337920636       22.7156918368      -28.6213737663  TIP3      13901           0.0000000000
     91535     14301  TIP3      H2            -26.9205821480       21.7747029865      -29.0957036637  TIP3      13901           0.0000000000
     91536     14302  TIP3      OH2           -25.7766654038       22.2693129729      -38.1644554642  TIP3      13902           0.0000000000
     91537     14302  TIP3      H1            -25.5349538936       22.7482881325      -38.9861162187  TIP3      13902           0.0000000000
     91538     14302  TIP3      H2            -25.1968639155       22.6856406232      -37.5184465624  TIP3      13902           0.0000000000
     91539     14303  TIP3      OH2           -28.0904375080       34.4090009777      -39.3276580222  TIP3      13903           0.0000000000
     91540     14303  TIP3      H1            -28.9100827982       34.9278911947      -39.2750896719  TIP3      13903           0.0000000000
     91541     14303  TIP3      H2            -27.5569824186       34.9116211416      -39.9653846684  TIP3      13903           0.0000000000
     91542     14304  TIP3      OH2           -28.5628989906       24.0056532667      -37.3475523105  TIP3      13904           0.0000000000
     91543     14304  TIP3      H1            -27.7511913398       24.5419036396      -37.3058112971  TIP3      13904           0.0000000000
     91544     14304  TIP3      H2            -28.8116214814       23.8714770641      -36.4209601509  TIP3      13904           0.0000000000
     91545     14305  TIP3      OH2           -28.0141440175       25.0059712808      -28.1692238007  TIP3      13905           0.0000000000
     91546     14305  TIP3      H1            -27.9153555886       25.5818635939      -27.3885167797  TIP3      13905           0.0000000000
     91547     14305  TIP3      H2            -27.3542873506       24.3135298963      -28.0483453482  TIP3      13905           0.0000000000
     91548     14306  TIP3      OH2           -27.6883350568       21.0676143397      -36.4283399854  TIP3      13906           0.0000000000
     91549     14306  TIP3      H1            -28.0196541767       21.7154552657      -35.7820361380  TIP3      13906           0.0000000000
     91550     14306  TIP3      H2            -27.0086269214       21.6100573399      -36.8985826388  TIP3      13906           0.0000000000
     91551     14307  TIP3      OH2           -30.7449869963       35.4469642045      -39.3355924068  TIP3      13907           0.0000000000
     91552     14307  TIP3      H1            -30.5791968676       36.2733381409      -39.8344712406  TIP3      13907           0.0000000000
     91553     14307  TIP3      H2            -30.9567685013       35.7832968141      -38.4398478963  TIP3      13907           0.0000000000
     91554     14308  TIP3      OH2           -32.0195182402       22.1430578383      -39.7220240453  TIP3      13908           0.0000000000
     91555     14308  TIP3      H1            -32.1037884616       23.0562640121      -39.3776416565  TIP3      13908           0.0000000000
     91556     14308  TIP3      H2            -31.1151962904       21.9096705368      -39.4693039895  TIP3      13908           0.0000000000
     91557     14309  TIP3      OH2           -21.8049985383       22.8926256988      -27.3121458406  TIP3      13909           0.0000000000
     91558     14309  TIP3      H1            -22.7445390252       23.1848760127      -27.4294684114  TIP3      13909           0.0000000000
     91559     14309  TIP3      H2            -21.5010980089       22.8954659683      -28.2326130383  TIP3      13909           0.0000000000
     91560     14310  TIP3      OH2           -23.2150311732       26.6741236392      -33.2604258932  TIP3      13910           0.0000000000
     91561     14310  TIP3      H1            -24.0276633819       26.2367827705      -33.5666247311  TIP3      13910           0.0000000000
     91562     14310  TIP3      H2            -22.7526472358       25.9713282419      -32.7513243410  TIP3      13910           0.0000000000
     91563     14311  TIP3      OH2           -33.7830236636       32.5929312363      -40.6759642944  TIP3      13911           0.0000000000
     91564     14311  TIP3      H1            -33.1586672924       33.2691959608      -40.3906484254  TIP3      13911           0.0000000000
     91565     14311  TIP3      H2            -33.2849065933       32.1460720235      -41.3872033127  TIP3      13911           0.0000000000
     91566     14312  TIP3      OH2           -35.4280231545       25.2631637511      -41.5280521857  TIP3      13912           0.0000000000
     91567     14312  TIP3      H1            -35.4750992045       26.2194612572      -41.3764325085  TIP3      13912           0.0000000000
     91568     14312  TIP3      H2            -36.3129825145       25.0305650273      -41.8366422370  TIP3      13912           0.0000000000
     91569     14313  TIP3      OH2           -22.1455073684       35.9127400773      -31.6097258293  TIP3      13913           0.0000000000
     91570     14313  TIP3      H1            -22.2632414842       36.6064210280      -32.2889068832  TIP3      13913           0.0000000000
     91571     14313  TIP3      H2            -21.1845801383       35.9915718326      -31.4262139898  TIP3      13913           0.0000000000
     91572     14314  TIP3      OH2           -34.6045121247       20.0188527570      -32.8607200397  TIP3      13914           0.0000000000
     91573     14314  TIP3      H1            -34.8793218211       20.0969543210      -33.8064918198  TIP3      13914           0.0000000000
     91574     14314  TIP3      H2            -35.1113968553       19.2303202315      -32.5656905833  TIP3      13914           0.0000000000
     91575     14315  TIP3      OH2           -35.7011889161       33.9739383311      -36.6890523034  TIP3      13915           0.0000000000
     91576     14315  TIP3      H1            -36.5407382150       34.4445326790      -36.7086160534  TIP3      13915           0.0000000000
     91577     14315  TIP3      H2            -35.1834110597       34.4711389205      -37.3374811973  TIP3      13915           0.0000000000
     91578     14316  TIP3      OH2           -36.4359731181       36.5970315755      -25.3934053846  TIP3      13916           0.0000000000
     91579     14316  TIP3      H1            -35.8728333582       36.3830018195      -24.6238894562  TIP3      13916           0.0000000000
     91580     14316  TIP3      H2            -36.9055800559       35.7701512342      -25.5684213780  TIP3      13916           0.0000000000
     91581     14317  TIP3      OH2           -31.8126247082       35.5426096044      -23.7529403138  TIP3      13917           0.0000000000
     91582     14317  TIP3      H1            -31.0523535549       35.0326659042      -23.4541098718  TIP3      13917           0.0000000000
     91583     14317  TIP3      H2            -31.8463367176       35.2779941104      -24.7005855444  TIP3      13917           0.0000000000
     91584     14318  TIP3      OH2           -27.3987571795       35.1704485979      -41.8975848192  TIP3      13918           0.0000000000
     91585     14318  TIP3      H1            -28.1970484211       34.5833752217      -41.9660327974  TIP3      13918           0.0000000000
     91586     14318  TIP3      H2            -26.9295931506       34.6073840171      -42.5204225209  TIP3      13918           0.0000000000
     91587     14319  TIP3      OH2           -25.2740579528       33.9261578537      -25.0246760896  TIP3      13919           0.0000000000
     91588     14319  TIP3      H1            -25.5992109767       33.0263737611      -24.7886756668  TIP3      13919           0.0000000000
     91589     14319  TIP3      H2            -24.5030459897       34.0050185681      -24.4527627276  TIP3      13919           0.0000000000
     91590     14320  TIP3      OH2           -23.1251764876       34.8335519603      -42.1718536120  TIP3      13920           0.0000000000
     91591     14320  TIP3      H1            -22.8405784983       34.0279836827      -41.7006046893  TIP3      13920           0.0000000000
     91592     14320  TIP3      H2            -22.3606768993       35.0561886770      -42.7186291360  TIP3      13920           0.0000000000
     91593     14321  TIP3      OH2           -36.5507662464       30.3742741667      -24.3952189807  TIP3      13921           0.0000000000
     91594     14321  TIP3      H1            -36.3792019177       29.4889298023      -24.7486581727  TIP3      13921           0.0000000000
     91595     14321  TIP3      H2            -37.2923626253       30.6860663697      -24.9502967641  TIP3      13921           0.0000000000
     91596     14322  TIP3      OH2           -32.1505598249       30.7950662254      -42.2603580252  TIP3      13922           0.0000000000
     91597     14322  TIP3      H1            -32.1049386242       29.9610838978      -41.7785179369  TIP3      13922           0.0000000000
     91598     14322  TIP3      H2            -31.5447500328       30.6025996622      -43.0013290842  TIP3      13922           0.0000000000
     91599     14323  TIP3      OH2           -29.8429946080       30.3810071395      -24.9954253339  TIP3      13923           0.0000000000
     91600     14323  TIP3      H1            -30.1924430806       30.6650740367      -25.8612380192  TIP3      13923           0.0000000000
     91601     14323  TIP3      H2            -29.7405464438       29.4107226507      -25.0979984058  TIP3      13923           0.0000000000
     91602     14324  TIP3      OH2           -24.1403673582       30.2578648226      -27.6169229263  TIP3      13924           0.0000000000
     91603     14324  TIP3      H1            -23.3722382149       30.8644266352      -27.7139633399  TIP3      13924           0.0000000000
     91604     14324  TIP3      H2            -24.8678271164       30.8892460249      -27.5607732710  TIP3      13924           0.0000000000
     91605     14325  TIP3      OH2           -35.6595034527       27.6164825432      -25.0004701762  TIP3      13925           0.0000000000
     91606     14325  TIP3      H1            -35.2608784913       26.7439628920      -25.1324215495  TIP3      13925           0.0000000000
     91607     14325  TIP3      H2            -35.9389259818       27.6023533709      -24.0950530179  TIP3      13925           0.0000000000
     91608     14326  TIP3      OH2           -31.0017049976       28.7554018921      -39.9773507579  TIP3      13926           0.0000000000
     91609     14326  TIP3      H1            -31.4997904380       28.2391002546      -39.3150962661  TIP3      13926           0.0000000000
     91610     14326  TIP3      H2            -30.7554140461       28.0500315036      -40.6186263561  TIP3      13926           0.0000000000
     91611     14327  TIP3      OH2           -31.7396199709       26.5871010875      -27.6390266320  TIP3      13927           0.0000000000
     91612     14327  TIP3      H1            -32.3544800293       27.2915910628      -27.3709796855  TIP3      13927           0.0000000000
     91613     14327  TIP3      H2            -31.3790416968       26.9379561544      -28.4710385676  TIP3      13927           0.0000000000
     91614     14328  TIP3      OH2           -29.9465546821       26.9847081690      -41.7361129420  TIP3      13928           0.0000000000
     91615     14328  TIP3      H1            -30.1159745509       26.7945567960      -42.6710969834  TIP3      13928           0.0000000000
     91616     14328  TIP3      H2            -28.9790275397       27.0555238087      -41.6769884026  TIP3      13928           0.0000000000
     91617     14329  TIP3      OH2           -26.7044091215       29.1191422922      -24.3074634489  TIP3      13929           0.0000000000
     91618     14329  TIP3      H1            -25.7414811948       29.1524719128      -24.4228552979  TIP3      13929           0.0000000000
     91619     14329  TIP3      H2            -26.8652988816       28.3554386138      -23.7520992742  TIP3      13929           0.0000000000
     91620     14330  TIP3      OH2           -20.6986140807       29.3809957974       42.7731990523  TIP3      13930           0.0000000000
     91621     14330  TIP3      H1            -20.8306745864       28.9101085534       41.9273380648  TIP3      13930           0.0000000000
     91622     14330  TIP3      H2            -20.5256838386       30.2901778656       42.4981324933  TIP3      13930           0.0000000000
     91623     14331  TIP3      OH2           -31.3698303586       23.9587968926      -26.5674069033  TIP3      13931           0.0000000000
     91624     14331  TIP3      H1            -31.2399641641       23.2304026237      -27.1955544385  TIP3      13931           0.0000000000
     91625     14331  TIP3      H2            -31.3921173465       24.7556352486      -27.1327578804  TIP3      13931           0.0000000000
     91626     14332  TIP3      OH2           -30.9622234253       22.3298252136      -29.0448975714  TIP3      13932           0.0000000000
     91627     14332  TIP3      H1            -30.4379835529       22.7922636973      -29.7379703736  TIP3      13932           0.0000000000
     91628     14332  TIP3      H2            -31.8435409973       22.2390327174      -29.4733449099  TIP3      13932           0.0000000000
     91629     14333  TIP3      OH2           -29.4019084959       27.7837058569      -28.8070482627  TIP3      13933           0.0000000000
     91630     14333  TIP3      H1            -28.6488567518       27.6289995852      -29.3895748923  TIP3      13933           0.0000000000
     91631     14333  TIP3      H2            -29.7493463808       28.6372355499      -29.1127308318  TIP3      13933           0.0000000000
     91632     14334  TIP3      OH2           -24.9919351961       25.5958340154      -23.8013985647  TIP3      13934           0.0000000000
     91633     14334  TIP3      H1            -24.7807123203       24.6529506669      -23.8952639001  TIP3      13934           0.0000000000
     91634     14334  TIP3      H2            -24.1156001237       26.0102961171      -23.8214593241  TIP3      13934           0.0000000000
     91635     14335  TIP3      OH2           -23.6841679832       28.3598219831      -25.7003580698  TIP3      13935           0.0000000000
     91636     14335  TIP3      H1            -23.9273065353       29.0945303703      -26.3055740645  TIP3      13935           0.0000000000
     91637     14335  TIP3      H2            -22.7125984470       28.3228038880      -25.8679907037  TIP3      13935           0.0000000000
     91638     14336  TIP3      OH2           -32.9051013265       25.1869663325      -24.6458098264  TIP3      13936           0.0000000000
     91639     14336  TIP3      H1            -33.6758675639       24.6183341356      -24.8531114572  TIP3      13936           0.0000000000
     91640     14336  TIP3      H2            -32.2359057316       24.8380900686      -25.2646021066  TIP3      13936           0.0000000000
     91641     14337  TIP3      OH2           -30.1620060182       19.7710947442      -28.6322996242  TIP3      13937           0.0000000000
     91642     14337  TIP3      H1            -30.2965577970       20.7427952094      -28.7344387157  TIP3      13937           0.0000000000
     91643     14337  TIP3      H2            -30.9220769094       19.4186763864      -29.1190338964  TIP3      13937           0.0000000000
     91644     14338  TIP3      OH2           -28.8944120118       24.0997149129      -25.0636217568  TIP3      13938           0.0000000000
     91645     14338  TIP3      H1            -29.1650487546       23.8783264057      -24.1489886221  TIP3      13938           0.0000000000
     91646     14338  TIP3      H2            -29.6988292163       23.8958471777      -25.5737886205  TIP3      13938           0.0000000000
     91647     14339  TIP3      OH2           -26.1804204070       23.2314540205      -25.9880024902  TIP3      13939           0.0000000000
     91648     14339  TIP3      H1            -27.1429476255       23.2758966597      -25.8429572239  TIP3      13939           0.0000000000
     91649     14339  TIP3      H2            -25.8915993127       22.6033814736      -25.3052906386  TIP3      13939           0.0000000000
     91650     14340  TIP3      OH2           -24.5754425387       21.8714828916      -24.0196613532  TIP3      13940           0.0000000000
     91651     14340  TIP3      H1            -24.6527173873       20.9031704074      -23.9964973776  TIP3      13940           0.0000000000
     91652     14340  TIP3      H2            -24.8629129144       22.1503103385      -23.1212012514  TIP3      13940           0.0000000000
     91653     14341  TIP3      OH2           -34.7663713770       23.1141033233      -24.9306538814  TIP3      13941           0.0000000000
     91654     14341  TIP3      H1            -34.5325045422       22.3826650489      -25.5369678140  TIP3      13941           0.0000000000
     91655     14341  TIP3      H2            -34.8523716221       22.6446109182      -24.0683761910  TIP3      13941           0.0000000000
     91656     14342  TIP3      OH2           -29.9582184896       19.1157655563      -25.9522417449  TIP3      13942           0.0000000000
     91657     14342  TIP3      H1            -29.2428843725       18.4451819360      -25.9807685633  TIP3      13942           0.0000000000
     91658     14342  TIP3      H2            -30.0488366476       19.3323661718      -26.8946615493  TIP3      13942           0.0000000000
     91659     14343  TIP3      OH2           -29.5788890192       20.7763072238      -23.8729203839  TIP3      13943           0.0000000000
     91660     14343  TIP3      H1            -29.7485213530       20.2716073655      -24.7040355280  TIP3      13943           0.0000000000
     91661     14343  TIP3      H2            -30.1935422817       21.5250855189      -23.9520016226  TIP3      13943           0.0000000000
     91662     14344  TIP3      OH2           -30.0838489158       37.6584139595      -40.7336558233  TIP3      13944           0.0000000000
     91663     14344  TIP3      H1            -29.1197247084       37.7984566795      -40.5917483580  TIP3      13944           0.0000000000
     91664     14344  TIP3      H2            -30.3025857517       38.3375908700      -41.3672181473  TIP3      13944           0.0000000000
     91665     14345  TIP3      OH2           -36.5161163990       32.2836091578      -41.2232679502  TIP3      13945           0.0000000000
     91666     14345  TIP3      H1            -35.5628729044       32.3632266010      -40.9789851367  TIP3      13945           0.0000000000
     91667     14345  TIP3      H2            -36.4834759289       31.6272879376      -41.9265504389  TIP3      13945           0.0000000000
     91668     14346  TIP3      OH2           -37.8310200500       37.6668383508      -36.1792019478  TIP3      13946           0.0000000000
     91669     14346  TIP3      H1            -38.4772927385       37.1877120778      -36.7307331076  TIP3      13946           0.0000000000
     91670     14346  TIP3      H2            -37.4620368378       36.9944343109      -35.5863376444  TIP3      13946           0.0000000000
     91671     14347  TIP3      OH2           -37.0128715443       35.7814577200      -34.3647736587  TIP3      13947           0.0000000000
     91672     14347  TIP3      H1            -37.2767694805       34.8698657020      -34.1753832557  TIP3      13947           0.0000000000
     91673     14347  TIP3      H2            -36.7152799495       36.1004959225      -33.4865803176  TIP3      13947           0.0000000000
     91674     14348  TIP3      OH2           -19.4248705974       36.5672662008      -31.4055009475  TIP3      13948           0.0000000000
     91675     14348  TIP3      H1            -19.4158371118       36.7506717063      -30.4505310721  TIP3      13948           0.0000000000
     91676     14348  TIP3      H2            -18.7208049745       37.1450817611      -31.7226718313  TIP3      13948           0.0000000000
     91677     14349  TIP3      OH2           -19.8414051245       36.1624798000      -28.4771741942  TIP3      13949           0.0000000000
     91678     14349  TIP3      H1            -20.3335258693       35.3936100558      -28.8374110985  TIP3      13949           0.0000000000
     91679     14349  TIP3      H2            -19.3203594135       35.7307728671      -27.7803172972  TIP3      13949           0.0000000000
     91680     14350  TIP3      OH2           -21.4023271818       31.9000670482      -23.8323758054  TIP3      13950           0.0000000000
     91681     14350  TIP3      H1            -22.2724658340       31.8342196314      -23.4166284074  TIP3      13950           0.0000000000
     91682     14350  TIP3      H2            -21.0241239430       32.6764573878      -23.3617138380  TIP3      13950           0.0000000000
     91683     14351  TIP3      OH2           -20.0987716146       30.2165236581      -38.3240636443  TIP3      13951           0.0000000000
     91684     14351  TIP3      H1            -19.2304555376       30.6012887096      -38.1900832136  TIP3      13951           0.0000000000
     91685     14351  TIP3      H2            -20.1004899094       29.4494177201      -37.7054321558  TIP3      13951           0.0000000000
     91686     14352  TIP3      OH2           -19.7201671746       28.2922277103      -36.4873687264  TIP3      13952           0.0000000000
     91687     14352  TIP3      H1            -20.4543299356       27.7561002688      -36.0996567822  TIP3      13952           0.0000000000
     91688     14352  TIP3      H2            -19.1180005861       28.4163517366      -35.7327941955  TIP3      13952           0.0000000000
     91689     14353  TIP3      OH2           -19.9655250696       31.0059516477      -31.5437237456  TIP3      13953           0.0000000000
     91690     14353  TIP3      H1            -19.1182585756       30.6286803560      -31.8324042390  TIP3      13953           0.0000000000
     91691     14353  TIP3      H2            -19.8294690134       31.9679903942      -31.6515584458  TIP3      13953           0.0000000000
     91692     14354  TIP3      OH2           -21.4293264074       33.8974774075      -29.2331980851  TIP3      13954           0.0000000000
     91693     14354  TIP3      H1            -22.1101840773       34.2293319011      -28.6231485933  TIP3      13954           0.0000000000
     91694     14354  TIP3      H2            -21.9775273411       33.4713048088      -29.9258817845  TIP3      13954           0.0000000000
     91695     14355  TIP3      OH2           -19.4308763782       28.1174665649      -40.1043889211  TIP3      13955           0.0000000000
     91696     14355  TIP3      H1            -19.9841482640       28.4927685565      -40.8152708826  TIP3      13955           0.0000000000
     91697     14355  TIP3      H2            -19.4879269608       28.8158321186      -39.4314215305  TIP3      13955           0.0000000000
     91698     14356  TIP3      OH2           -21.3164923666       25.3906826221      -41.4711120513  TIP3      13956           0.0000000000
     91699     14356  TIP3      H1            -20.9873286690       25.9977227889      -42.1624032522  TIP3      13956           0.0000000000
     91700     14356  TIP3      H2            -21.2295329116       24.5625618745      -41.9895092999  TIP3      13956           0.0000000000
     91701     14357  TIP3      OH2           -21.9108988108       26.7668320594      -35.9310110474  TIP3      13957           0.0000000000
     91702     14357  TIP3      H1            -22.0652051240       25.8111352972      -35.9479373731  TIP3      13957           0.0000000000
     91703     14357  TIP3      H2            -22.2635646779       27.0192259950      -35.0618026662  TIP3      13957           0.0000000000
     91704     14358  TIP3      OH2           -36.9002817739       28.8474076232      -31.8852629262  TIP3      13958           0.0000000000
     91705     14358  TIP3      H1            -36.7016798775       28.7615332060      -32.8441045970  TIP3      13958           0.0000000000
     91706     14358  TIP3      H2            -36.0154655202       28.6982435289      -31.4996608374  TIP3      13958           0.0000000000
     91707     14359  TIP3      OH2           -21.0703256725       28.7321243624      -26.3001344689  TIP3      13959           0.0000000000
     91708     14359  TIP3      H1            -20.4669378903       27.9911175264      -26.0720040899  TIP3      13959           0.0000000000
     91709     14359  TIP3      H2            -20.4811119863       29.5084779020      -26.2147058710  TIP3      13959           0.0000000000
     91710     14360  TIP3      OH2           -19.5482561047       26.6322065096      -25.6034546044  TIP3      13960           0.0000000000
     91711     14360  TIP3      H1            -20.4341795046       26.2393910466      -25.7515847657  TIP3      13960           0.0000000000
     91712     14360  TIP3      H2            -18.9665075294       25.8656697913      -25.6680149820  TIP3      13960           0.0000000000
     91713     14361  TIP3      OH2           -21.8286710070       22.7833135370      -42.4510596947  TIP3      13961           0.0000000000
     91714     14361  TIP3      H1            -21.2264292992       22.3889563401      -41.7932049280  TIP3      13961           0.0000000000
     91715     14361  TIP3      H2            -22.6892429842       22.3834432325      -42.2442544269  TIP3      13961           0.0000000000
     91716     14362  TIP3      OH2           -22.2294755952       24.3535493485      -37.4558689647  TIP3      13962           0.0000000000
     91717     14362  TIP3      H1            -21.9241963442       23.4241772198      -37.3379259801  TIP3      13962           0.0000000000
     91718     14362  TIP3      H2            -21.4468843997       24.7649377548      -37.8500597152  TIP3      13962           0.0000000000
     91719     14363  TIP3      OH2           -21.6079830945       24.8984748637      -32.0291710515  TIP3      13963           0.0000000000
     91720     14363  TIP3      H1            -20.6505033192       25.1355721864      -32.0469535293  TIP3      13963           0.0000000000
     91721     14363  TIP3      H2            -21.8125659128       25.0334498157      -31.0903693639  TIP3      13963           0.0000000000
     91722     14364  TIP3      OH2           -21.5472988167       25.6281116080      -29.2458396522  TIP3      13964           0.0000000000
     91723     14364  TIP3      H1            -22.4153388090       25.9247360486      -28.8936454943  TIP3      13964           0.0000000000
     91724     14364  TIP3      H2            -21.1133284732       26.4890082473      -29.4590419614  TIP3      13964           0.0000000000
     91725     14365  TIP3      OH2           -37.2921447324       24.1380807822      -25.7466668895  TIP3      13965           0.0000000000
     91726     14365  TIP3      H1            -36.3538724607       23.9624137065      -25.5343110885  TIP3      13965           0.0000000000
     91727     14365  TIP3      H2            -37.7377978504       23.3367772260      -25.3946395017  TIP3      13965           0.0000000000
     91728     14366  TIP3      OH2           -19.2962733077       19.6364204237      -23.8861587906  TIP3      13966           0.0000000000
     91729     14366  TIP3      H1            -18.9148397449       18.9981162404      -24.5082169887  TIP3      13966           0.0000000000
     91730     14366  TIP3      H2            -19.1382306461       20.4812472817      -24.3597638229  TIP3      13966           0.0000000000
     91731     14367  TIP3      OH2           -21.5828124276       21.6250433165      -37.4142320758  TIP3      13967           0.0000000000
     91732     14367  TIP3      H1            -21.3916495902       21.1654733100      -36.5736917360  TIP3      13967           0.0000000000
     91733     14367  TIP3      H2            -22.1930404820       21.0067187798      -37.8757297045  TIP3      13967           0.0000000000
     91734     14368  TIP3      OH2           -36.0834257223       22.4321840524      -32.8801724826  TIP3      13968           0.0000000000
     91735     14368  TIP3      H1            -35.6242203116       21.6262397924      -32.5820782178  TIP3      13968           0.0000000000
     91736     14368  TIP3      H2            -35.5783897770       23.1357075152      -32.4542729918  TIP3      13968           0.0000000000
     91737     14369  TIP3      OH2           -37.7908751847       25.4202770049      -31.8107763565  TIP3      13969           0.0000000000
     91738     14369  TIP3      H1            -37.2488426612       25.2017535954      -32.5981910274  TIP3      13969           0.0000000000
     91739     14369  TIP3      H2            -37.3719783277       26.2535858209      -31.5442214117  TIP3      13969           0.0000000000
     91740     14370  TIP3      OH2           -19.7412957693       21.7518406063      -25.5314995505  TIP3      13970           0.0000000000
     91741     14370  TIP3      H1            -20.6812017960       22.0289647399      -25.5896478653  TIP3      13970           0.0000000000
     91742     14370  TIP3      H2            -19.6713968397       21.2219861823      -26.3419673675  TIP3      13970           0.0000000000
     91743     14371  TIP3      OH2           -19.7498546662       21.6773320442      -40.8605547808  TIP3      13971           0.0000000000
     91744     14371  TIP3      H1            -19.3126806853       20.9647540255      -41.3588315729  TIP3      13971           0.0000000000
     91745     14371  TIP3      H2            -19.0349297335       22.3413489602      -40.8340161309  TIP3      13971           0.0000000000
     91746     14372  TIP3      OH2           -37.4450349980       21.7034633189      -37.7381114521  TIP3      13972           0.0000000000
     91747     14372  TIP3      H1            -38.3797936332       21.8881464999      -37.8967888853  TIP3      13972           0.0000000000
     91748     14372  TIP3      H2            -36.9996754245       22.1680633287      -38.4688084339  TIP3      13972           0.0000000000
     91749     14373  TIP3      OH2           -22.6977860667       36.6564517104      -35.8024944115  TIP3      13973           0.0000000000
     91750     14373  TIP3      H1            -22.0224100450       36.3325169563      -36.4237517705  TIP3      13973           0.0000000000
     91751     14373  TIP3      H2            -22.1677038124       37.1505974252      -35.1597739196  TIP3      13973           0.0000000000
     91752     14374  TIP3      OH2           -37.4627379745       20.4072005927      -29.4176843477  TIP3      13974           0.0000000000
     91753     14374  TIP3      H1            -38.1545653761       20.1626460516      -28.7758557594  TIP3      13974           0.0000000000
     91754     14374  TIP3      H2            -37.9428812262       21.0338342902      -29.9989641384  TIP3      13974           0.0000000000
     91755     14375  TIP3      OH2           -35.2711771556       33.5764128608      -25.2818647058  TIP3      13975           0.0000000000
     91756     14375  TIP3      H1            -36.1114656225       33.7721893487      -25.7210859148  TIP3      13975           0.0000000000
     91757     14375  TIP3      H2            -35.5424400986       33.5130180079      -24.3571380277  TIP3      13975           0.0000000000
     91758     14376  TIP3      OH2           -32.3500176754       34.5529762136      -29.0065601941  TIP3      13976           0.0000000000
     91759     14376  TIP3      H1            -32.7296398941       35.3947940173      -29.2938197059  TIP3      13976           0.0000000000
     91760     14376  TIP3      H2            -31.4260059239       34.6577142418      -29.3188793861  TIP3      13976           0.0000000000
     91761     14377  TIP3      OH2           -28.0252026139       35.9738375034      -26.0783796180  TIP3      13977           0.0000000000
     91762     14377  TIP3      H1            -27.8480984805       35.6299386801      -25.1770106702  TIP3      13977           0.0000000000
     91763     14377  TIP3      H2            -27.1495503702       36.2834634095      -26.3707222350  TIP3      13977           0.0000000000
     91764     14378  TIP3      OH2           -25.7201983991       37.2426813768      -26.7985479089  TIP3      13978           0.0000000000
     91765     14378  TIP3      H1            -25.0006517762       36.6377257105      -27.0513979533  TIP3      13978           0.0000000000
     91766     14378  TIP3      H2            -25.3515724185       37.6700411847      -26.0018583781  TIP3      13978           0.0000000000
     91767     14379  TIP3      OH2           -20.7414668602       19.8596446835      -27.7048153080  TIP3      13979           0.0000000000
     91768     14379  TIP3      H1            -21.5714426837       20.1615639633      -28.1185415229  TIP3      13979           0.0000000000
     91769     14379  TIP3      H2            -20.5443680541       19.0636163509      -28.2495884009  TIP3      13979           0.0000000000
     91770     14380  TIP3      OH2           -34.9230235952       37.8078791836      -28.9855933493  TIP3      13980           0.0000000000
     91771     14380  TIP3      H1            -35.6589840174       38.2790641713      -29.4116589181  TIP3      13980           0.0000000000
     91772     14380  TIP3      H2            -35.2775244315       37.5848480790      -28.1121584707  TIP3      13980           0.0000000000
     91773     14381  TIP3      OH2           -32.4519150392       37.3945162868      -29.9329693220  TIP3      13981           0.0000000000
     91774     14381  TIP3      H1            -33.3470166323       37.5073721845      -29.5343299765  TIP3      13981           0.0000000000
     91775     14381  TIP3      H2            -32.5243310199       37.9729971012      -30.7185667308  TIP3      13981           0.0000000000
     91776     14382  TIP3      OH2           -27.7538473140       37.2956824468      -30.7651972402  TIP3      13982           0.0000000000
     91777     14382  TIP3      H1            -28.2172258309       37.8434156947      -31.4178273342  TIP3      13982           0.0000000000
     91778     14382  TIP3      H2            -27.6031746023       37.9251842575      -30.0301866740  TIP3      13982           0.0000000000
     91779     14383  TIP3      OH2           -25.4344249485       36.1459600947      -29.7883525178  TIP3      13983           0.0000000000
     91780     14383  TIP3      H1            -26.3281830606       36.3681960057      -30.0941094317  TIP3      13983           0.0000000000
     91781     14383  TIP3      H2            -24.9962581304       37.0112519610      -29.8696213256  TIP3      13983           0.0000000000
     91782     14384  TIP3      OH2           -22.8474602735       37.7132247539      -29.5064269036  TIP3      13984           0.0000000000
     91783     14384  TIP3      H1            -22.9795520927       38.6645933537      -29.7436731470  TIP3      13984           0.0000000000
     91784     14384  TIP3      H2            -22.6549759063       37.3353226494      -30.3843022597  TIP3      13984           0.0000000000
     91785     14385  TIP3      OH2           -35.5211274104       36.4453021072      -32.0737003139  TIP3      13985           0.0000000000
     91786     14385  TIP3      H1            -35.5412459670       36.0067634247      -31.1922164883  TIP3      13985           0.0000000000
     91787     14385  TIP3      H2            -34.6845694975       36.1069156019      -32.4614191585  TIP3      13985           0.0000000000
     91788     14386  TIP3      OH2           -33.3955216423       35.1654397943      -33.4140918886  TIP3      13986           0.0000000000
     91789     14386  TIP3      H1            -33.5811722629       34.2300201060      -33.2115389577  TIP3      13986           0.0000000000
     91790     14386  TIP3      H2            -32.5426707504       35.2976964198      -32.9415205270  TIP3      13986           0.0000000000
     91791     14387  TIP3      OH2           -30.8236622851       35.6424865022      -32.5503792416  TIP3      13987           0.0000000000
     91792     14387  TIP3      H1            -30.6266191028       34.7285268587      -32.8231952251  TIP3      13987           0.0000000000
     91793     14387  TIP3      H2            -30.7617290557       35.5815462707      -31.5880269251  TIP3      13987           0.0000000000
     91794     14388  TIP3      OH2           -27.3335110325       21.2995987356      -33.4045237139  TIP3      13988           0.0000000000
     91795     14388  TIP3      H1            -28.0024150086       20.6552730931      -33.1411551385  TIP3      13988           0.0000000000
     91796     14388  TIP3      H2            -26.7748330546       20.7849537332      -34.0013328532  TIP3      13988           0.0000000000
     91797     14389  TIP3      OH2           -22.1977755821       19.3690545883      -33.3014151593  TIP3      13989           0.0000000000
     91798     14389  TIP3      H1            -21.5790611318       19.9460498305      -33.8181673777  TIP3      13989           0.0000000000
     91799     14389  TIP3      H2            -23.0742341574       19.7139237178      -33.5508034479  TIP3      13989           0.0000000000
     91800     14390  TIP3      OH2           -20.5058046717       20.5586560384      -35.0008959977  TIP3      13990           0.0000000000
     91801     14390  TIP3      H1            -19.8401200982       20.0130240722      -35.4846353334  TIP3      13990           0.0000000000
     91802     14390  TIP3      H2            -20.0514605086       21.4260834407      -34.9440225762  TIP3      13990           0.0000000000
     91803     14391  TIP3      OH2           -34.9826356072       19.9256457211      -35.5594713870  TIP3      13991           0.0000000000
     91804     14391  TIP3      H1            -35.7753466607       19.7053649110      -36.1001346816  TIP3      13991           0.0000000000
     91805     14391  TIP3      H2            -34.4931485633       19.0924120813      -35.6071318365  TIP3      13991           0.0000000000
     91806     14392  TIP3      OH2           -36.2327981246       19.7507553662      -39.4915545544  TIP3      13992           0.0000000000
     91807     14392  TIP3      H1            -35.7862438288       20.2306107202      -40.2792716640  TIP3      13992           0.0000000000
     91808     14392  TIP3      H2            -36.8898905186       20.3560964509      -39.2469770334  TIP3      13992           0.0000000000
     91809     14393  TIP3      OH2           -30.4595655408       19.8301023112      -35.7661920623  TIP3      13993           0.0000000000
     91810     14393  TIP3      H1            -29.5637907088       20.2334334440      -35.8210477372  TIP3      13993           0.0000000000
     91811     14393  TIP3      H2            -30.5287608084       19.6543249792      -34.8417367518  TIP3      13993           0.0000000000
     91812     14394  TIP3      OH2           -24.8327490159       19.8788250207      -34.1260378660  TIP3      13994           0.0000000000
     91813     14394  TIP3      H1            -24.8062606170       19.9718893781      -35.0840718681  TIP3      13994           0.0000000000
     91814     14394  TIP3      H2            -25.1630092948       18.9571495248      -34.0003426591  TIP3      13994           0.0000000000
     91815     14395  TIP3      OH2           -23.5057594092       19.9059776159      -38.4520375570  TIP3      13995           0.0000000000
     91816     14395  TIP3      H1            -24.2357690087       20.5122443618      -38.6405177808  TIP3      13995           0.0000000000
     91817     14395  TIP3      H2            -23.9622536926       19.0494997687      -38.2847936987  TIP3      13995           0.0000000000
     91818     14396  TIP3      OH2           -36.2728768721       35.6416437259      -38.8335639191  TIP3      13996           0.0000000000
     91819     14396  TIP3      H1            -36.9531554456       35.6382599061      -39.5411032862  TIP3      13996           0.0000000000
     91820     14396  TIP3      H2            -36.2555278938       36.5879552750      -38.6345275188  TIP3      13996           0.0000000000
     91821     14397  TIP3      OH2           -34.1691420507       21.9607209666      -41.3787691383  TIP3      13997           0.0000000000
     91822     14397  TIP3      H1            -33.9076855899       21.0741350969      -41.7950748428  TIP3      13997           0.0000000000
     91823     14397  TIP3      H2            -33.6315531695       21.9465133870      -40.6100200839  TIP3      13997           0.0000000000
     91824     14398  TIP3      OH2           -29.3079541980       21.8961829134      -38.9108187519  TIP3      13998           0.0000000000
     91825     14398  TIP3      H1            -29.0922060175       21.2886999088      -38.1846387952  TIP3      13998           0.0000000000
     91826     14398  TIP3      H2            -29.3097404348       22.7520299957      -38.4182919436  TIP3      13998           0.0000000000
     91827     14399  TIP3      OH2           -27.4360427579       37.0588427029      -40.3964948689  TIP3      13999           0.0000000000
     91828     14399  TIP3      H1            -26.5112441000       37.2226726468      -40.6474462362  TIP3      13999           0.0000000000
     91829     14399  TIP3      H2            -27.6251364614       36.4835709082      -41.1972955548  TIP3      13999           0.0000000000
     91830     14400  TIP3      OH2           -20.6841980407       36.4390903782      -37.7725782328  TIP3      14000           0.0000000000
     91831     14400  TIP3      H1            -20.9040031057       35.6814397356      -38.3677304197  TIP3      14000           0.0000000000
     91832     14400  TIP3      H2            -20.7579716731       37.1887821311      -38.3934792425  TIP3      14000           0.0000000000
     91833     14401  TIP3      OH2           -35.0735318561       20.4519881284      -26.0850183356  TIP3      14001           0.0000000000
     91834     14401  TIP3      H1            -35.4272081149       19.6633856605      -25.6335740128  TIP3      14001           0.0000000000
     91835     14401  TIP3      H2            -34.1464089705       20.4400272715      -25.7467731782  TIP3      14001           0.0000000000
     91836     14402  TIP3      OH2           -33.0684137850       19.8219017362      -24.5210564333  TIP3      14002           0.0000000000
     91837     14402  TIP3      H1            -32.1684346282       19.4978570167      -24.7016950425  TIP3      14002           0.0000000000
     91838     14402  TIP3      H2            -33.4502477958       19.0468584913      -24.0474219529  TIP3      14002           0.0000000000
     91839     14403  TIP3      OH2           -34.4490348559       36.5957339374      -41.8640228471  TIP3      14003           0.0000000000
     91840     14403  TIP3      H1            -34.7265964416       36.8745734084      -40.9814926783  TIP3      14003           0.0000000000
     91841     14403  TIP3      H2            -33.6845296888       36.0448802080      -41.7021358884  TIP3      14003           0.0000000000
     91842     14404  TIP3      OH2           -24.6643695771       19.1294988493      -24.3384973911  TIP3      14004           0.0000000000
     91843     14404  TIP3      H1            -24.5737922832       18.6707064553      -23.5021815391  TIP3      14004           0.0000000000
     91844     14404  TIP3      H2            -23.7551588609       19.1196203903      -24.6994173790  TIP3      14004           0.0000000000
     91845     14405  TIP3      OH2           -21.4642377691       35.1836214463      -25.6557543492  TIP3      14005           0.0000000000
     91846     14405  TIP3      H1            -22.2650797694       35.0192879727      -26.1898047059  TIP3      14005           0.0000000000
     91847     14405  TIP3      H2            -21.5629714275       36.1303424011      -25.4448371836  TIP3      14005           0.0000000000
     91848     14406  TIP3      OH2            -7.0465856566       29.0612192398      -35.6509881493  TIP3      14006           0.0000000000
     91849     14406  TIP3      H1             -7.0028985017       30.0360458519      -35.7506121033  TIP3      14006           0.0000000000
     91850     14406  TIP3      H2             -7.7295512307       28.8141112935      -36.2930711399  TIP3      14006           0.0000000000
     91851     14407  TIP3      OH2            -8.1532151728       28.3341142766      -32.1933589009  TIP3      14007           0.0000000000
     91852     14407  TIP3      H1             -8.1800399065       27.6756152185      -31.4925440316  TIP3      14007           0.0000000000
     91853     14407  TIP3      H2             -8.4775437579       27.8452471297      -32.9685836481  TIP3      14007           0.0000000000
     91854     14408  TIP3      OH2           -15.7947851261       27.9690910639      -30.6345385631  TIP3      14008           0.0000000000
     91855     14408  TIP3      H1            -15.7229118520       27.3125550707      -29.9081660548  TIP3      14008           0.0000000000
     91856     14408  TIP3      H2            -15.0631526523       28.5668716378      -30.4247634674  TIP3      14008           0.0000000000
     91857     14409  TIP3      OH2            -4.4464703990       31.2663484736      -33.9159226938  TIP3      14009           0.0000000000
     91858     14409  TIP3      H1             -4.8835783943       30.5524033975      -33.4396707639  TIP3      14009           0.0000000000
     91859     14409  TIP3      H2             -4.4508495497       31.9866679035      -33.2565822982  TIP3      14009           0.0000000000
     91860     14410  TIP3      OH2           -14.8738612156       32.4230862103      -32.1112273300  TIP3      14010           0.0000000000
     91861     14410  TIP3      H1            -15.1974550144       31.5720896608      -32.4476549674  TIP3      14010           0.0000000000
     91862     14410  TIP3      H2            -13.9134673461       32.2360355663      -32.0505874661  TIP3      14010           0.0000000000
     91863     14411  TIP3      OH2           -18.2319273617       26.0280339092      -36.6682015415  TIP3      14011           0.0000000000
     91864     14411  TIP3      H1            -18.6885159770       26.8901914375      -36.7126581125  TIP3      14011           0.0000000000
     91865     14411  TIP3      H2            -18.8051145527       25.4750489004      -37.2149373111  TIP3      14011           0.0000000000
     91866     14412  TIP3      OH2           -17.5353948854       28.2467983516      -34.5413860371  TIP3      14012           0.0000000000
     91867     14412  TIP3      H1            -17.2959055020       27.4302785881      -34.0456615678  TIP3      14012           0.0000000000
     91868     14412  TIP3      H2            -16.7961275661       28.2981380155      -35.1689097810  TIP3      14012           0.0000000000
     91869     14413  TIP3      OH2            -7.3438175925       36.4072900577      -33.6856432883  TIP3      14013           0.0000000000
     91870     14413  TIP3      H1             -6.7013842058       35.7032732260      -33.9604855487  TIP3      14013           0.0000000000
     91871     14413  TIP3      H2             -7.5399547119       36.1297002472      -32.7917395929  TIP3      14013           0.0000000000
     91872     14414  TIP3      OH2            -9.7762761075       30.7507265519      -31.7722714800  TIP3      14014           0.0000000000
     91873     14414  TIP3      H1             -9.4408473190       30.0830744088      -32.3923393713  TIP3      14014           0.0000000000
     91874     14414  TIP3      H2             -9.0039025911       30.8794504734      -31.1952069851  TIP3      14014           0.0000000000
     91875     14415  TIP3      OH2            -1.1343401513       22.3593396040      -30.9659900685  TIP3      14015           0.0000000000
     91876     14415  TIP3      H1             -1.0221764865       22.9798155611      -30.2138281824  TIP3      14015           0.0000000000
     91877     14415  TIP3      H2             -0.6408271804       22.8201369202      -31.6612964581  TIP3      14015           0.0000000000
     91878     14416  TIP3      OH2            -6.6147503389       25.1836860893      -31.4374577863  TIP3      14016           0.0000000000
     91879     14416  TIP3      H1             -6.4651060558       24.2177154910      -31.4446412584  TIP3      14016           0.0000000000
     91880     14416  TIP3      H2             -6.7190589748       25.3461265121      -32.3977898262  TIP3      14016           0.0000000000
     91881     14417  TIP3      OH2           -13.4734243176       23.2670757426      -34.1880415783  TIP3      14017           0.0000000000
     91882     14417  TIP3      H1            -13.4084586815       24.1204376976      -34.6469964120  TIP3      14017           0.0000000000
     91883     14417  TIP3      H2            -13.9120703580       22.7038630657      -34.8602934251  TIP3      14017           0.0000000000
     91884     14418  TIP3      OH2            -5.7569278615       23.3753273057      -35.8159402847  TIP3      14018           0.0000000000
     91885     14418  TIP3      H1             -5.0873173502       23.0550229434      -35.1653183330  TIP3      14018           0.0000000000
     91886     14418  TIP3      H2             -5.2079409047       23.9192421236      -36.4023458835  TIP3      14018           0.0000000000
     91887     14419  TIP3      OH2           -16.8624082722       25.6781826518      -33.4459932436  TIP3      14019           0.0000000000
     91888     14419  TIP3      H1            -16.1877810435       25.1150853869      -33.0096658905  TIP3      14019           0.0000000000
     91889     14419  TIP3      H2            -16.7939423058       25.3758792157      -34.3641415334  TIP3      14019           0.0000000000
     91890     14420  TIP3      OH2           -11.6953686000       27.2339181276      -34.1900904436  TIP3      14020           0.0000000000
     91891     14420  TIP3      H1            -11.0570204568       26.6649719022      -33.7270565893  TIP3      14020           0.0000000000
     91892     14420  TIP3      H2            -12.2546406495       26.5658870444      -34.6366483054  TIP3      14020           0.0000000000
     91893     14421  TIP3      OH2            -0.7083091566       23.8175883726      -28.7195602409  TIP3      14021           0.0000000000
     91894     14421  TIP3      H1             -1.3780747924       24.5263049911      -28.8075966600  TIP3      14021           0.0000000000
     91895     14421  TIP3      H2             -0.6911691491       23.6650535272      -27.7658948523  TIP3      14021           0.0000000000
     91896     14422  TIP3      OH2           -14.6172394038       22.1697856524      -30.1396154663  TIP3      14022           0.0000000000
     91897     14422  TIP3      H1            -14.8751264464       22.7276726740      -30.8988085952  TIP3      14022           0.0000000000
     91898     14422  TIP3      H2            -15.3073080494       22.4097282568      -29.4722782062  TIP3      14022           0.0000000000
     91899     14423  TIP3      OH2            -7.2820068979       31.6661073226      -36.5886609073  TIP3      14023           0.0000000000
     91900     14423  TIP3      H1             -7.5795820662       31.3609831354      -37.4552319664  TIP3      14023           0.0000000000
     91901     14423  TIP3      H2             -7.6079088820       32.5909055269      -36.5508651231  TIP3      14023           0.0000000000
     91902     14424  TIP3      OH2           -12.0741917702       29.8265320665      -29.8698705301  TIP3      14024           0.0000000000
     91903     14424  TIP3      H1            -12.8060977290       30.4631529216      -29.7187442398  TIP3      14024           0.0000000000
     91904     14424  TIP3      H2            -11.3687375751       30.4171662449      -30.1729416584  TIP3      14024           0.0000000000
     91905     14425  TIP3      OH2            -3.9744114278       22.6939080405      -33.8280622353  TIP3      14025           0.0000000000
     91906     14425  TIP3      H1             -4.1795899946       21.9227397595      -33.2888303885  TIP3      14025           0.0000000000
     91907     14425  TIP3      H2             -3.3018415199       23.1469914249      -33.2917001961  TIP3      14025           0.0000000000
     91908     14426  TIP3      OH2           -15.0591302620       24.0511634882      -32.1533286675  TIP3      14026           0.0000000000
     91909     14426  TIP3      H1            -14.4157298492       24.7130674634      -31.8073075477  TIP3      14026           0.0000000000
     91910     14426  TIP3      H2            -14.5217959739       23.6027627648      -32.8489608289  TIP3      14026           0.0000000000
     91911     14427  TIP3      OH2           -13.6438493273       31.8077591056      -29.0730560272  TIP3      14027           0.0000000000
     91912     14427  TIP3      H1            -13.6803442925       32.7154536181      -29.4321636802  TIP3      14027           0.0000000000
     91913     14427  TIP3      H2            -14.5302352413       31.7398150990      -28.6331183613  TIP3      14027           0.0000000000
     91914     14428  TIP3      OH2           -17.5766715769       31.4631221742      -38.2548211675  TIP3      14028           0.0000000000
     91915     14428  TIP3      H1            -17.7982223404       31.7330131079      -39.1777476781  TIP3      14028           0.0000000000
     91916     14428  TIP3      H2            -17.4856517226       32.3325002641      -37.8268555708  TIP3      14028           0.0000000000
     91917     14429  TIP3      OH2            -3.9252952890       33.0981021835      -31.5506640657  TIP3      14029           0.0000000000
     91918     14429  TIP3      H1             -4.8909996159       33.1901860381      -31.4083541826  TIP3      14029           0.0000000000
     91919     14429  TIP3      H2             -3.6586643354       34.0249337793      -31.7156172759  TIP3      14029           0.0000000000
     91920     14430  TIP3      OH2            -3.6208165338       21.3926516704      -30.1424628124  TIP3      14030           0.0000000000
     91921     14430  TIP3      H1             -4.3561155548       22.0157882095      -30.2040477926  TIP3      14030           0.0000000000
     91922     14430  TIP3      H2             -2.9247878992       21.8146227537      -30.6766644879  TIP3      14030           0.0000000000
     91923     14431  TIP3      OH2           -10.6260436467       19.4981708156      -32.6868290491  TIP3      14031           0.0000000000
     91924     14431  TIP3      H1            -10.7546424165       18.5315650592      -32.7422002226  TIP3      14031           0.0000000000
     91925     14431  TIP3      H2            -11.5022744586       19.8140434885      -32.3933323968  TIP3      14031           0.0000000000
     91926     14432  TIP3      OH2            -5.6814421487       34.8862928520      -34.9320051003  TIP3      14032           0.0000000000
     91927     14432  TIP3      H1             -5.2441500615       34.1754831210      -35.4402954398  TIP3      14032           0.0000000000
     91928     14432  TIP3      H2             -5.3146572059       35.6910203011      -35.3524071838  TIP3      14032           0.0000000000
     91929     14433  TIP3      OH2            -4.4903024298       32.8109546334      -36.4363525540  TIP3      14033           0.0000000000
     91930     14433  TIP3      H1             -4.7702523289       32.1053388922      -37.0446078847  TIP3      14033           0.0000000000
     91931     14433  TIP3      H2             -4.4429450710       32.3324419666      -35.5874087301  TIP3      14033           0.0000000000
     91932     14434  TIP3      OH2            -2.8400414481       31.3820250340      -27.9368720661  TIP3      14034           0.0000000000
     91933     14434  TIP3      H1             -2.6945342169       30.7571841648      -28.6800584300  TIP3      14034           0.0000000000
     91934     14434  TIP3      H2             -2.6573796217       32.2461297585      -28.3358042011  TIP3      14034           0.0000000000
     91935     14435  TIP3      OH2            -8.3585906845       28.3124930424      -38.1670454354  TIP3      14035           0.0000000000
     91936     14435  TIP3      H1             -9.0647769679       28.8665405232      -38.5488564977  TIP3      14035           0.0000000000
     91937     14435  TIP3      H2             -7.6586377823       28.3854597097      -38.8458292096  TIP3      14035           0.0000000000
     91938     14436  TIP3      OH2            -8.3115430622       26.8010545448      -41.1242283778  TIP3      14036           0.0000000000
     91939     14436  TIP3      H1             -7.5875147949       26.8108757327      -40.4805938859  TIP3      14036           0.0000000000
     91940     14436  TIP3      H2             -7.9905817962       26.1635958387      -41.7727907179  TIP3      14036           0.0000000000
     91941     14437  TIP3      OH2            -0.9748659852       27.6970001420      -29.8853602683  TIP3      14037           0.0000000000
     91942     14437  TIP3      H1             -1.6370195558       28.4146944787      -29.8154709336  TIP3      14037           0.0000000000
     91943     14437  TIP3      H2             -0.5040926733       27.9312941162      -30.7037105582  TIP3      14037           0.0000000000
     91944     14438  TIP3      OH2            -4.9326143180       28.5289754981      -37.2426183436  TIP3      14038           0.0000000000
     91945     14438  TIP3      H1             -5.6785041771       28.7591361462      -36.6404205415  TIP3      14038           0.0000000000
     91946     14438  TIP3      H2             -4.4770283892       27.8219539063      -36.7513850039  TIP3      14038           0.0000000000
     91947     14439  TIP3      OH2            -5.0110514539       26.6779504787      -28.1504990915  TIP3      14039           0.0000000000
     91948     14439  TIP3      H1             -4.9772264365       27.4781209927      -27.5926135136  TIP3      14039           0.0000000000
     91949     14439  TIP3      H2             -5.6429394760       26.9871912911      -28.8348559646  TIP3      14039           0.0000000000
     91950     14440  TIP3      OH2           -13.3090794280       29.1844001755      -35.3345222005  TIP3      14040           0.0000000000
     91951     14440  TIP3      H1            -13.6229091304       28.7792002952      -36.1786907796  TIP3      14040           0.0000000000
     91952     14440  TIP3      H2            -12.7006697168       28.4836717955      -34.9985310157  TIP3      14040           0.0000000000
     91953     14441  TIP3      OH2           -11.9620612826       32.5867992764      -32.6564747440  TIP3      14041           0.0000000000
     91954     14441  TIP3      H1            -12.0114492060       32.0156611391      -33.4337932075  TIP3      14041           0.0000000000
     91955     14441  TIP3      H2            -11.1982414880       32.2082787170      -32.1844025755  TIP3      14041           0.0000000000
     91956     14442  TIP3      OH2           -12.9548930899       27.9195383562      -31.6975863915  TIP3      14042           0.0000000000
     91957     14442  TIP3      H1            -12.3817931122       28.0430227698      -32.4778294557  TIP3      14042           0.0000000000
     91958     14442  TIP3      H2            -12.6019659612       28.5779422740      -31.0664198630  TIP3      14042           0.0000000000
     91959     14443  TIP3      OH2            -6.5979740352       33.4686101464      -30.9866552923  TIP3      14043           0.0000000000
     91960     14443  TIP3      H1             -6.8604820941       34.1029537303      -30.3186218159  TIP3      14043           0.0000000000
     91961     14443  TIP3      H2             -6.8241932283       32.6092850855      -30.5459612482  TIP3      14043           0.0000000000
     91962     14444  TIP3      OH2           -12.0315541945       32.3312746863      -26.9757628232  TIP3      14044           0.0000000000
     91963     14444  TIP3      H1            -12.3919346884       33.1152085240      -26.5222106477  TIP3      14044           0.0000000000
     91964     14444  TIP3      H2            -12.7077580358       32.1630759408      -27.6785797833  TIP3      14044           0.0000000000
     91965     14445  TIP3      OH2            -6.0695606879       27.6876516519      -39.5613384604  TIP3      14045           0.0000000000
     91966     14445  TIP3      H1             -5.4903063553       27.8632210630      -38.7803197253  TIP3      14045           0.0000000000
     91967     14445  TIP3      H2             -5.6487080559       28.1945105278      -40.2770842198  TIP3      14045           0.0000000000
     91968     14446  TIP3      OH2           -15.1035425183       28.5116829620      -27.7903404469  TIP3      14046           0.0000000000
     91969     14446  TIP3      H1            -15.0599100637       29.1800815109      -27.0736747779  TIP3      14046           0.0000000000
     91970     14446  TIP3      H2            -16.0255180716       28.6209938703      -28.0713085386  TIP3      14046           0.0000000000
     91971     14447  TIP3      OH2            -8.3421769836       34.4242493705      -36.1050067005  TIP3      14047           0.0000000000
     91972     14447  TIP3      H1             -7.8814689892       34.7333960151      -35.3180449947  TIP3      14047           0.0000000000
     91973     14447  TIP3      H2             -8.9019501582       35.1736209408      -36.3461927182  TIP3      14047           0.0000000000
     91974     14448  TIP3      OH2           -13.7957791427       34.3869631689      -26.2224035763  TIP3      14048           0.0000000000
     91975     14448  TIP3      H1            -13.8180329106       34.2698334288      -27.1881781721  TIP3      14048           0.0000000000
     91976     14448  TIP3      H2            -14.7351059968       34.2736049760      -25.9873533794  TIP3      14048           0.0000000000
     91977     14449  TIP3      OH2            -2.3494781110       19.4354830481      -39.7163223419  TIP3      14049           0.0000000000
     91978     14449  TIP3      H1             -3.2865149775       19.5747478629      -39.4341145872  TIP3      14049           0.0000000000
     91979     14449  TIP3      H2             -2.1177876273       20.2868258246      -40.1218007625  TIP3      14049           0.0000000000
     91980     14450  TIP3      OH2           -14.3119971407       28.2120218484      -37.7347582397  TIP3      14050           0.0000000000
     91981     14450  TIP3      H1            -14.6021023330       28.9885766850      -38.2580669615  TIP3      14050           0.0000000000
     91982     14450  TIP3      H2            -14.9863346881       27.5575832310      -37.9325255055  TIP3      14050           0.0000000000
     91983     14451  TIP3      OH2            -1.2129627297       33.7854259776      -41.3327928223  TIP3      14051           0.0000000000
     91984     14451  TIP3      H1             -1.0976235266       34.7459590001      -41.1882246898  TIP3      14051           0.0000000000
     91985     14451  TIP3      H2             -0.2818593466       33.5106093745      -41.4086582133  TIP3      14051           0.0000000000
     91986     14452  TIP3      OH2           -18.2154505977       30.6164880261      -28.8963385690  TIP3      14052           0.0000000000
     91987     14452  TIP3      H1            -18.7108744940       30.5468182257      -29.7276530707  TIP3      14052           0.0000000000
     91988     14452  TIP3      H2            -18.1978650410       29.6776639909      -28.6286929988  TIP3      14052           0.0000000000
     91989     14453  TIP3      OH2           -18.4700036968       33.3611412421      -32.0866581548  TIP3      14053           0.0000000000
     91990     14453  TIP3      H1            -17.5135281516       33.2421454313      -32.0509470754  TIP3      14053           0.0000000000
     91991     14453  TIP3      H2            -18.5742965600       34.1562300744      -31.5252537969  TIP3      14053           0.0000000000
     91992     14454  TIP3      OH2            -0.2479735416       34.0504846955      -26.3848262171  TIP3      14054           0.0000000000
     91993     14454  TIP3      H1             -0.3404622996       33.0880577366      -26.3983289097  TIP3      14054           0.0000000000
     91994     14454  TIP3      H2             -1.1076579061       34.3025015377      -25.9651342932  TIP3      14054           0.0000000000
     91995     14455  TIP3      OH2            -9.2843365988       33.6033418411      -27.5100394075  TIP3      14055           0.0000000000
     91996     14455  TIP3      H1             -9.2102629869       34.4460771016      -27.0033250156  TIP3      14055           0.0000000000
     91997     14455  TIP3      H2            -10.1590853273       33.2684138974      -27.2412526069  TIP3      14055           0.0000000000
     91998     14456  TIP3      OH2            -8.8691250654       37.3583184778      -37.6880912664  TIP3      14056           0.0000000000
     91999     14456  TIP3      H1             -8.9445097827       37.2676324136      -38.6549712549  TIP3      14056           0.0000000000
     92000     14456  TIP3      H2             -8.8337526231       38.3267811181      -37.5611396713  TIP3      14056           0.0000000000
     92001     14457  TIP3      OH2           -15.2110732007       36.2120593522      -35.8992769413  TIP3      14057           0.0000000000
     92002     14457  TIP3      H1            -15.0638354269       35.8211774865      -35.0121786515  TIP3      14057           0.0000000000
     92003     14457  TIP3      H2            -16.0643704508       35.8240349499      -36.1421248141  TIP3      14057           0.0000000000
     92004     14458  TIP3      OH2            -5.7969332985       36.5543243719      -40.7173564585  TIP3      14058           0.0000000000
     92005     14458  TIP3      H1             -5.3753127542       35.7839081923      -41.1552658810  TIP3      14058           0.0000000000
     92006     14458  TIP3      H2             -5.7610837210       36.2784990675      -39.7778859755  TIP3      14058           0.0000000000
     92007     14459  TIP3      OH2            -6.0974849982       36.4815644617      -37.9434936234  TIP3      14059           0.0000000000
     92008     14459  TIP3      H1             -7.0528805859       36.5610048295      -37.7548093697  TIP3      14059           0.0000000000
     92009     14459  TIP3      H2             -5.8379732558       35.7514168093      -37.3618956732  TIP3      14059           0.0000000000
     92010     14460  TIP3      OH2            -3.1022420133       25.5320246084      -25.8956472244  TIP3      14060           0.0000000000
     92011     14460  TIP3      H1             -3.5470580434       26.0027639625      -26.6170874325  TIP3      14060           0.0000000000
     92012     14460  TIP3      H2             -3.0862262752       24.6179578390      -26.2098772041  TIP3      14060           0.0000000000
     92013     14461  TIP3      OH2           -15.9652136297       31.9308464357      -27.8974299231  TIP3      14061           0.0000000000
     92014     14461  TIP3      H1            -15.7440541141       31.5569632615      -27.0188917177  TIP3      14061           0.0000000000
     92015     14461  TIP3      H2            -16.8352182395       31.5350088679      -28.1051541421  TIP3      14061           0.0000000000
     92016     14462  TIP3      OH2           -13.3081504757       20.3898768764      -31.9143954992  TIP3      14062           0.0000000000
     92017     14462  TIP3      H1            -14.2076291189       20.2981031806      -32.3052117029  TIP3      14062           0.0000000000
     92018     14462  TIP3      H2            -13.3908508536       21.2453522306      -31.4656433193  TIP3      14062           0.0000000000
     92019     14463  TIP3      OH2            -8.6589441413       20.1022551416      -28.5497462434  TIP3      14063           0.0000000000
     92020     14463  TIP3      H1             -8.2570355924       19.6772351709      -27.7714846721  TIP3      14063           0.0000000000
     92021     14463  TIP3      H2             -9.6255457724       19.9394301246      -28.4131834736  TIP3      14063           0.0000000000
     92022     14464  TIP3      OH2            -5.3514973157       23.8840693826      -27.6835839904  TIP3      14064           0.0000000000
     92023     14464  TIP3      H1             -5.8907695899       23.7274563376      -26.8706567314  TIP3      14064           0.0000000000
     92024     14464  TIP3      H2             -5.5198182690       24.8117300915      -27.9104473676  TIP3      14064           0.0000000000
     92025     14465  TIP3      OH2            -4.5358955537       28.7764583688      -41.8276807831  TIP3      14065           0.0000000000
     92026     14465  TIP3      H1             -4.5283499054       28.5492199061      -42.7844432840  TIP3      14065           0.0000000000
     92027     14465  TIP3      H2             -3.6791041923       29.1756694511      -41.6963830065  TIP3      14065           0.0000000000
     92028     14466  TIP3      OH2            -9.0048900265       22.6287282030      -41.2443513995  TIP3      14066           0.0000000000
     92029     14466  TIP3      H1             -9.2930972710       22.6105200677      -40.3100151991  TIP3      14066           0.0000000000
     92030     14466  TIP3      H2             -9.2791114526       21.7467072524      -41.5265514142  TIP3      14066           0.0000000000
     92031     14467  TIP3      OH2           -13.2162088388       25.3548720410      -30.7557750941  TIP3      14067           0.0000000000
     92032     14467  TIP3      H1            -13.9131228393       25.3337502391      -30.0742277771  TIP3      14067           0.0000000000
     92033     14467  TIP3      H2            -13.2245329376       26.2922417712      -31.0509442466  TIP3      14067           0.0000000000
     92034     14468  TIP3      OH2           -13.2388698956       25.5533981321      -35.8542156548  TIP3      14068           0.0000000000
     92035     14468  TIP3      H1            -14.1602498900       25.2373749718      -35.9588973354  TIP3      14068           0.0000000000
     92036     14468  TIP3      H2            -12.8235690291       25.1992526871      -36.6636934733  TIP3      14068           0.0000000000
     92037     14469  TIP3      OH2            -7.7123598310       25.9866410391      -37.0647506411  TIP3      14069           0.0000000000
     92038     14469  TIP3      H1             -8.1241077459       26.8207004557      -37.3800749984  TIP3      14069           0.0000000000
     92039     14469  TIP3      H2             -7.0020513376       25.8492547434      -37.7157445590  TIP3      14069           0.0000000000
     92040     14470  TIP3      OH2            -8.6204382455       26.1922998346      -25.6141521760  TIP3      14070           0.0000000000
     92041     14470  TIP3      H1             -9.1772205335       25.4533764286      -25.2654281959  TIP3      14070           0.0000000000
     92042     14470  TIP3      H2             -7.7997645811       26.0630710320      -25.1073215411  TIP3      14070           0.0000000000
     92043     14471  TIP3      OH2            -6.6962947802       25.4628782070      -34.2264631528  TIP3      14071           0.0000000000
     92044     14471  TIP3      H1             -6.9273671103       26.0427287921      -34.9721329935  TIP3      14071           0.0000000000
     92045     14471  TIP3      H2             -6.5500269622       24.6156911767      -34.6958330685  TIP3      14071           0.0000000000
     92046     14472  TIP3      OH2           -15.5295107304       25.6621995125      -28.9704109097  TIP3      14072           0.0000000000
     92047     14472  TIP3      H1            -15.5230963549       26.0639353697      -28.0827156609  TIP3      14072           0.0000000000
     92048     14472  TIP3      H2            -16.0022199293       24.8313739069      -28.8219635716  TIP3      14072           0.0000000000
     92049     14473  TIP3      OH2           -12.0295223171       23.2261740171      -41.9002132143  TIP3      14073           0.0000000000
     92050     14473  TIP3      H1            -12.5628638824       22.6084930854      -41.3641522078  TIP3      14073           0.0000000000
     92051     14473  TIP3      H2            -12.7075792796       23.5040217415      -42.5346233656  TIP3      14073           0.0000000000
     92052     14474  TIP3      OH2           -18.9074336783       22.7791849112      -35.0620304723  TIP3      14074           0.0000000000
     92053     14474  TIP3      H1            -18.2447796431       22.7409874088      -34.3452939618  TIP3      14074           0.0000000000
     92054     14474  TIP3      H2            -18.4463954790       22.3619459059      -35.8136597680  TIP3      14074           0.0000000000
     92055     14475  TIP3      OH2           -17.6133049514       23.4947315643      -39.6523659387  TIP3      14075           0.0000000000
     92056     14475  TIP3      H1            -17.1388041871       24.1101450555      -40.2543827039  TIP3      14075           0.0000000000
     92057     14475  TIP3      H2            -18.3277428668       24.0839246921      -39.3233317892  TIP3      14075           0.0000000000
     92058     14476  TIP3      OH2            -7.4594734968       27.0859036250      -29.6134587244  TIP3      14076           0.0000000000
     92059     14476  TIP3      H1             -7.1133713962       26.4188114179      -30.2356031656  TIP3      14076           0.0000000000
     92060     14476  TIP3      H2             -7.9087860568       26.5401523117      -28.9436918509  TIP3      14076           0.0000000000
     92061     14477  TIP3      OH2           -10.6687856801       23.0219036824      -34.8165036315  TIP3      14077           0.0000000000
     92062     14477  TIP3      H1            -11.6011542097       23.0579149202      -34.5145556916  TIP3      14077           0.0000000000
     92063     14477  TIP3      H2            -10.1746696662       22.9222767447      -33.9890258157  TIP3      14077           0.0000000000
     92064     14478  TIP3      OH2           -15.8472610830       24.6225350216      -35.9600323781  TIP3      14078           0.0000000000
     92065     14478  TIP3      H1            -16.7454231735       24.7411356766      -36.3294647253  TIP3      14078           0.0000000000
     92066     14478  TIP3      H2            -15.5578524385       23.7777685151      -36.3391766169  TIP3      14078           0.0000000000
     92067     14479  TIP3      OH2           -12.2074423016       24.6435453568      -38.3159121307  TIP3      14079           0.0000000000
     92068     14479  TIP3      H1            -11.2540362954       24.7610502821      -38.1414947864  TIP3      14079           0.0000000000
     92069     14479  TIP3      H2            -12.4292466516       25.3115172472      -38.9867864523  TIP3      14079           0.0000000000
     92070     14480  TIP3      OH2            -6.2593933863       22.2585639339      -31.5571257604  TIP3      14080           0.0000000000
     92071     14480  TIP3      H1             -6.9546354750       22.3571487003      -30.8718356072  TIP3      14080           0.0000000000
     92072     14480  TIP3      H2             -6.7652468987       22.0642017632      -32.3574555845  TIP3      14080           0.0000000000
     92073     14481  TIP3      OH2           -13.5217433295       25.8233810659      -40.7336568596  TIP3      14081           0.0000000000
     92074     14481  TIP3      H1            -14.0686398416       25.4556034427      -41.4501217971  TIP3      14081           0.0000000000
     92075     14481  TIP3      H2            -12.6897468540       26.0240899549      -41.1906795644  TIP3      14081           0.0000000000
     92076     14482  TIP3      OH2            -3.0243268719       37.9148962020      -25.2573311292  TIP3      14082           0.0000000000
     92077     14482  TIP3      H1             -2.7764078448       38.3308922969      -26.1006356193  TIP3      14082           0.0000000000
     92078     14482  TIP3      H2             -2.3285709134       38.2502765774      -24.6586145612  TIP3      14082           0.0000000000
     92079     14483  TIP3      OH2           -15.3765133282       30.3819431275      -25.6708079944  TIP3      14083           0.0000000000
     92080     14483  TIP3      H1            -14.6560444982       30.6414817461      -25.0808605162  TIP3      14083           0.0000000000
     92081     14483  TIP3      H2            -16.1745369881       30.5460553737      -25.1151746900  TIP3      14083           0.0000000000
     92082     14484  TIP3      OH2            -9.3725818145       25.8000440415      -32.9199594258  TIP3      14084           0.0000000000
     92083     14484  TIP3      H1             -8.7894601036       25.2530165102      -33.4620113117  TIP3      14084           0.0000000000
     92084     14484  TIP3      H2             -9.5128224530       25.2619435260      -32.1300707126  TIP3      14084           0.0000000000
     92085     14485  TIP3      OH2           -14.3639874142       21.9463344417      -36.4889850447  TIP3      14085           0.0000000000
     92086     14485  TIP3      H1            -14.6724954522       21.0216501326      -36.5234531080  TIP3      14085           0.0000000000
     92087     14485  TIP3      H2            -13.5764762985       21.9116424527      -37.0471077242  TIP3      14085           0.0000000000
     92088     14486  TIP3      OH2           -10.7343354599       24.1523851928      -30.5110834290  TIP3      14086           0.0000000000
     92089     14486  TIP3      H1            -11.5712346441       24.6442162914      -30.4009592841  TIP3      14086           0.0000000000
     92090     14486  TIP3      H2            -10.1971146268       24.4711094816      -29.7582675179  TIP3      14086           0.0000000000
     92091     14487  TIP3      OH2           -10.1590109886       30.3794557527      -38.8131714037  TIP3      14087           0.0000000000
     92092     14487  TIP3      H1            -10.9439244059       29.8822855000      -39.1366718847  TIP3      14087           0.0000000000
     92093     14487  TIP3      H2            -10.3448537686       30.4467553033      -37.8564922926  TIP3      14087           0.0000000000
     92094     14488  TIP3      OH2            -3.0083359820       29.5308198989      -30.0165643134  TIP3      14088           0.0000000000
     92095     14488  TIP3      H1             -2.4026531911       30.0062309970      -30.6080361018  TIP3      14088           0.0000000000
     92096     14488  TIP3      H2             -3.8573648308       29.6309140701      -30.4954396829  TIP3      14088           0.0000000000
     92097     14489  TIP3      OH2            -6.2858680484       23.1714436158      -40.6232947370  TIP3      14089           0.0000000000
     92098     14489  TIP3      H1             -7.2347605743       23.3162239929      -40.7795449867  TIP3      14089           0.0000000000
     92099     14489  TIP3      H2             -5.9938578887       24.0506254133      -40.3107343754  TIP3      14089           0.0000000000
     92100     14490  TIP3      OH2            -8.6715431340       30.5938085615      -27.5854660574  TIP3      14090           0.0000000000
     92101     14490  TIP3      H1             -9.0141380621       30.1982061299      -26.7768949195  TIP3      14090           0.0000000000
     92102     14490  TIP3      H2             -8.8852759690       31.5259606343      -27.4932143230  TIP3      14090           0.0000000000
     92103     14491  TIP3      OH2            -5.5801266109       25.0796926596      -38.9569621812  TIP3      14091           0.0000000000
     92104     14491  TIP3      H1             -4.6733532736       24.9422163693      -38.6228194913  TIP3      14091           0.0000000000
     92105     14491  TIP3      H2             -5.5081062545       25.8811133119      -39.4952055295  TIP3      14091           0.0000000000
     92106     14492  TIP3      OH2           -15.0745107117       29.7176878789      -33.0431214334  TIP3      14092           0.0000000000
     92107     14492  TIP3      H1            -14.3247233694       29.6715068056      -33.6703733610  TIP3      14092           0.0000000000
     92108     14492  TIP3      H2            -14.9794338897       28.8716329262      -32.5613842574  TIP3      14092           0.0000000000
     92109     14493  TIP3      OH2            -8.0455721772       31.8410878787      -39.7823282110  TIP3      14093           0.0000000000
     92110     14493  TIP3      H1             -8.3813175289       32.6774096503      -39.4097933053  TIP3      14093           0.0000000000
     92111     14493  TIP3      H2             -8.7828866627       31.2214929220      -39.5865463611  TIP3      14093           0.0000000000
     92112     14494  TIP3      OH2           -18.0578485113       28.1604537043      -27.7470259032  TIP3      14094           0.0000000000
     92113     14494  TIP3      H1            -17.8484300703       27.7205737809      -26.8994845087  TIP3      14094           0.0000000000
     92114     14494  TIP3      H2            -18.6690913418       27.5325536509      -28.1684849878  TIP3      14094           0.0000000000
     92115     14495  TIP3      OH2           -11.0423087192       27.7005947329      -25.5467398465  TIP3      14095           0.0000000000
     92116     14495  TIP3      H1            -11.3410649940       27.4625177574      -26.4350622847  TIP3      14095           0.0000000000
     92117     14495  TIP3      H2            -10.1028375376       27.4231241300      -25.5412053048  TIP3      14095           0.0000000000
     92118     14496  TIP3      OH2            -6.3911695545       33.0354489018      -27.6336361713  TIP3      14096           0.0000000000
     92119     14496  TIP3      H1             -7.3130287508       33.2281861430      -27.8756524114  TIP3      14096           0.0000000000
     92120     14496  TIP3      H2             -6.3935691322       33.3160015105      -26.6966332832  TIP3      14096           0.0000000000
     92121     14497  TIP3      OH2            -0.6811494514       25.2476164200      -39.2281384937  TIP3      14097           0.0000000000
     92122     14497  TIP3      H1             -1.2455774970       24.9072313106      -39.9480835722  TIP3      14097           0.0000000000
     92123     14497  TIP3      H2             -0.5989844288       26.1827349933      -39.5303491686  TIP3      14097           0.0000000000
     92124     14498  TIP3      OH2            -0.7043715704       31.0921853261      -26.4109661675  TIP3      14098           0.0000000000
     92125     14498  TIP3      H1             -1.5884198126       31.3147548066      -26.7914871964  TIP3      14098           0.0000000000
     92126     14498  TIP3      H2             -0.1390741173       31.0616006994      -27.2037763182  TIP3      14098           0.0000000000
     92127     14499  TIP3      OH2            -2.3889759630       34.0670227925      -38.8117414520  TIP3      14099           0.0000000000
     92128     14499  TIP3      H1             -2.7653932227       33.2388818077      -38.4918722167  TIP3      14099           0.0000000000
     92129     14499  TIP3      H2             -2.1032800124       33.8771991893      -39.7218598797  TIP3      14099           0.0000000000
     92130     14500  TIP3      OH2            -5.2103954060       28.8841548883      -31.7521001354  TIP3      14100           0.0000000000
     92131     14500  TIP3      H1             -6.1531393580       28.6487899465      -31.8198661707  TIP3      14100           0.0000000000
     92132     14500  TIP3      H2             -4.7745708818       28.0995064557      -32.1303483568  TIP3      14100           0.0000000000
     92133     14501  TIP3      OH2           -12.6875138850       33.1972415098      -35.6329382986  TIP3      14101           0.0000000000
     92134     14501  TIP3      H1            -12.1671962455       33.9910293722      -35.8410370308  TIP3      14101           0.0000000000
     92135     14501  TIP3      H2            -13.5597864632       33.4424025658      -35.9563065797  TIP3      14101           0.0000000000
     92136     14502  TIP3      OH2           -16.9372588736       28.0594009555      -41.0750922830  TIP3      14102           0.0000000000
     92137     14502  TIP3      H1            -16.3127151354       28.6923968860      -40.6773287696  TIP3      14102           0.0000000000
     92138     14502  TIP3      H2            -17.8043106363       28.3718458652      -40.7762544108  TIP3      14102           0.0000000000
     92139     14503  TIP3      OH2           -11.2454546534       30.8627439449      -36.0850364956  TIP3      14103           0.0000000000
     92140     14503  TIP3      H1            -11.5293337749       31.7946675176      -36.0196322304  TIP3      14103           0.0000000000
     92141     14503  TIP3      H2            -11.9988522108       30.3994048074      -35.6671677066  TIP3      14103           0.0000000000
     92142     14504  TIP3      OH2           -10.7856545670       35.0317016501      -29.7342755534  TIP3      14104           0.0000000000
     92143     14504  TIP3      H1            -10.3679313227       35.8704374791      -29.9872021226  TIP3      14104           0.0000000000
     92144     14504  TIP3      H2            -10.1981408294       34.7218226633      -29.0202526738  TIP3      14104           0.0000000000
     92145     14505  TIP3      OH2           -12.5759613835       35.8847907716      -36.5594326312  TIP3      14105           0.0000000000
     92146     14505  TIP3      H1            -13.5432132793       35.9959030896      -36.4522109044  TIP3      14105           0.0000000000
     92147     14505  TIP3      H2            -12.2200923061       36.7087807876      -36.1852757938  TIP3      14105           0.0000000000
     92148     14506  TIP3      OH2            -7.2300424586       31.0950305628      -30.0660581069  TIP3      14106           0.0000000000
     92149     14506  TIP3      H1             -7.6227655976       30.8779710247      -29.1988323099  TIP3      14106           0.0000000000
     92150     14506  TIP3      H2             -6.6229135633       30.3607268292      -30.2404244047  TIP3      14106           0.0000000000
     92151     14507  TIP3      OH2            -4.9929164569       32.0668844971      -40.9807366222  TIP3      14107           0.0000000000
     92152     14507  TIP3      H1             -4.6693986393       31.6516828466      -40.1558410566  TIP3      14107           0.0000000000
     92153     14507  TIP3      H2             -5.9499501064       31.9426602073      -40.8857035587  TIP3      14107           0.0000000000
     92154     14508  TIP3      OH2            -4.5089467198       35.6524836166      -27.5708589300  TIP3      14108           0.0000000000
     92155     14508  TIP3      H1             -5.1517767194       35.1253128668      -28.0835002968  TIP3      14108           0.0000000000
     92156     14508  TIP3      H2             -4.2720900040       36.3381917364      -28.2308049082  TIP3      14108           0.0000000000
     92157     14509  TIP3      OH2            -0.4847862289       36.5081872428      -40.7529992958  TIP3      14109           0.0000000000
     92158     14509  TIP3      H1              0.2411278173       37.1283120760      -40.9427346110  TIP3      14109           0.0000000000
     92159     14509  TIP3      H2             -1.1974250803       37.1069445998      -40.4445334691  TIP3      14109           0.0000000000
     92160     14510  TIP3      OH2           -16.4061281187       22.9009636619      -28.1836675414  TIP3      14110           0.0000000000
     92161     14510  TIP3      H1            -17.3172650763       23.2411948705      -28.2342689575  TIP3      14110           0.0000000000
     92162     14510  TIP3      H2            -16.5219748494       22.0411985823      -27.7523548945  TIP3      14110           0.0000000000
     92163     14511  TIP3      OH2            -4.1481501648       30.7381304702      -38.7612374395  TIP3      14111           0.0000000000
     92164     14511  TIP3      H1             -4.4057549328       29.9717996380      -38.2045042990  TIP3      14111           0.0000000000
     92165     14511  TIP3      H2             -3.2057954702       30.8258722782      -38.5396845629  TIP3      14111           0.0000000000
     92166     14512  TIP3      OH2           -16.7728323887       34.7008856281      -29.7604838732  TIP3      14112           0.0000000000
     92167     14512  TIP3      H1            -16.5281103163       33.7612233901      -29.7657163259  TIP3      14112           0.0000000000
     92168     14512  TIP3      H2            -16.5229608486       34.9705467917      -28.8676596628  TIP3      14112           0.0000000000
     92169     14513  TIP3      OH2           -12.0027827192       32.7363015726      -40.0753102353  TIP3      14113           0.0000000000
     92170     14513  TIP3      H1            -11.8076730088       32.2034900315      -39.2951382114  TIP3      14113           0.0000000000
     92171     14513  TIP3      H2            -11.9675737927       33.6553457130      -39.7506523729  TIP3      14113           0.0000000000
     92172     14514  TIP3      OH2           -15.5340074738       29.9803047056      -39.5785399910  TIP3      14114           0.0000000000
     92173     14514  TIP3      H1            -16.2093460300       30.3618440892      -38.9964410093  TIP3      14114           0.0000000000
     92174     14514  TIP3      H2            -14.9838548161       30.7461447778      -39.8226175075  TIP3      14114           0.0000000000
     92175     14515  TIP3      OH2            -7.6835428462       22.6567079375      -29.2791246898  TIP3      14115           0.0000000000
     92176     14515  TIP3      H1             -6.9776576083       22.7158838386      -28.6213850488  TIP3      14115           0.0000000000
     92177     14515  TIP3      H2             -8.0645891127       21.7746366505      -29.0960024319  TIP3      14115           0.0000000000
     92178     14516  TIP3      OH2            -6.9209109684       22.2690500654      -38.1639438234  TIP3      14116           0.0000000000
     92179     14516  TIP3      H1             -6.6787387740       22.7478541661      -38.9861561582  TIP3      14116           0.0000000000
     92180     14516  TIP3      H2             -6.3407330660       22.6858004306      -37.5185706702  TIP3      14116           0.0000000000
     92181     14517  TIP3      OH2            -9.2348041334       34.4096262711      -39.3276306259  TIP3      14117           0.0000000000
     92182     14517  TIP3      H1            -10.0543489235       34.9280959019      -39.2750702629  TIP3      14117           0.0000000000
     92183     14517  TIP3      H2             -8.7008549795       34.9116056910      -39.9653060831  TIP3      14117           0.0000000000
     92184     14518  TIP3      OH2            -9.7058338776       24.0067646132      -37.3482781763  TIP3      14118           0.0000000000
     92185     14518  TIP3      H1             -8.8946722950       24.5472709345      -37.3112460599  TIP3      14118           0.0000000000
     92186     14518  TIP3      H2             -9.9547054557       23.8720297785      -36.4212548399  TIP3      14118           0.0000000000
     92187     14519  TIP3      OH2            -9.1585118580       25.0056741149      -28.1697961749  TIP3      14119           0.0000000000
     92188     14519  TIP3      H1             -9.0589497486       25.5817421170      -27.3883592332  TIP3      14119           0.0000000000
     92189     14519  TIP3      H2             -8.4984045150       24.3133822238      -28.0475891098  TIP3      14119           0.0000000000
     92190     14520  TIP3      OH2            -8.8321091459       21.0677093832      -36.4282954398  TIP3      14120           0.0000000000
     92191     14520  TIP3      H1             -9.1634834905       21.7158290313      -35.7826011137  TIP3      14120           0.0000000000
     92192     14520  TIP3      H2             -8.1526880988       21.6103506155      -36.8987900213  TIP3      14120           0.0000000000
     92193     14521  TIP3      OH2           -11.8880244692       35.4431977850      -39.3375180895  TIP3      14121           0.0000000000
     92194     14521  TIP3      H1            -11.7187071161       36.2676873543      -39.8371986391  TIP3      14121           0.0000000000
     92195     14521  TIP3      H2            -12.0969807952       35.7754516232      -38.4398251725  TIP3      14121           0.0000000000
     92196     14522  TIP3      OH2           -13.1742809187       22.1439438540      -39.7325853257  TIP3      14122           0.0000000000
     92197     14522  TIP3      H1            -13.2425183670       23.0569808249      -39.3747541267  TIP3      14122           0.0000000000
     92198     14522  TIP3      H2            -12.2650451174       21.9097485892      -39.4726866451  TIP3      14122           0.0000000000
     92199     14523  TIP3      OH2            -2.9499458343       22.8952494461      -27.3081476316  TIP3      14123           0.0000000000
     92200     14523  TIP3      H1             -3.8892891516       23.1850928554      -27.4292427133  TIP3      14123           0.0000000000
     92201     14523  TIP3      H2             -2.6454376153       22.8954919109      -28.2301059182  TIP3      14123           0.0000000000
     92202     14524  TIP3      OH2            -4.3589445418       26.6742056779      -33.2604296560  TIP3      14124           0.0000000000
     92203     14524  TIP3      H1             -5.1715566667       26.2374831274      -33.5674565314  TIP3      14124           0.0000000000
     92204     14524  TIP3      H2             -3.8968197539       25.9712862272      -32.7511736609  TIP3      14124           0.0000000000
     92205     14525  TIP3      OH2           -14.9271169963       32.5921799403      -40.6768996301  TIP3      14125           0.0000000000
     92206     14525  TIP3      H1            -14.3023222391       33.2687535712      -40.3904285688  TIP3      14125           0.0000000000
     92207     14525  TIP3      H2            -14.4281499198       32.1459006169      -41.3869809043  TIP3      14125           0.0000000000
     92208     14526  TIP3      OH2           -16.5710585692       25.2586882886      -41.5239989418  TIP3      14126           0.0000000000
     92209     14526  TIP3      H1            -16.6169026670       26.2182020684      -41.3775000598  TIP3      14126           0.0000000000
     92210     14526  TIP3      H2            -17.4582379835       25.0376901673      -41.8370046230  TIP3      14126           0.0000000000
     92211     14527  TIP3      OH2            -3.2892186094       35.9125358767      -31.6102078406  TIP3      14127           0.0000000000
     92212     14527  TIP3      H1             -3.4073490206       36.6065899876      -32.2888150485  TIP3      14127           0.0000000000
     92213     14527  TIP3      H2             -2.3286086684       35.9916857563      -31.4259496122  TIP3      14127           0.0000000000
     92214     14528  TIP3      OH2           -15.7804211643       20.0503785319      -32.8479053459  TIP3      14128           0.0000000000
     92215     14528  TIP3      H1            -16.0069474626       20.0852002459      -33.8034189729  TIP3      14128           0.0000000000
     92216     14528  TIP3      H2            -16.2230496623       19.2237744959      -32.5701362020  TIP3      14128           0.0000000000
     92217     14529  TIP3      OH2           -16.8637569452       33.9453653674      -36.6889890977  TIP3      14129           0.0000000000
     92218     14529  TIP3      H1            -17.6806289382       34.4686376974      -36.7125741836  TIP3      14129           0.0000000000
     92219     14529  TIP3      H2            -16.3264652481       34.4645540395      -37.3282401498  TIP3      14129           0.0000000000
     92220     14530  TIP3      OH2           -17.5760594300       36.5962805009      -25.3942841269  TIP3      14130           0.0000000000
     92221     14530  TIP3      H1            -17.0232952468       36.3890672428      -24.6231149058  TIP3      14130           0.0000000000
     92222     14530  TIP3      H2            -18.0485886738       35.7689055249      -25.5770214855  TIP3      14130           0.0000000000
     92223     14531  TIP3      OH2           -12.9797965294       35.5108711701      -23.7344440958  TIP3      14131           0.0000000000
     92224     14531  TIP3      H1            -12.1749079987       35.0475215199      -23.4630691397  TIP3      14131           0.0000000000
     92225     14531  TIP3      H2            -12.9865802716       35.2832328689      -24.7027128238  TIP3      14131           0.0000000000
     92226     14532  TIP3      OH2            -8.5427633336       35.1706136945      -41.8977183172  TIP3      14132           0.0000000000
     92227     14532  TIP3      H1             -9.3409409863       34.5834856899      -41.9661504488  TIP3      14132           0.0000000000
     92228     14532  TIP3      H2             -8.0736487675       34.6074701596      -42.5205046915  TIP3      14132           0.0000000000
     92229     14533  TIP3      OH2            -6.4120232803       33.9063899427      -25.0461999767  TIP3      14133           0.0000000000
     92230     14533  TIP3      H1             -6.7454369066       33.0269523828      -24.7811646635  TIP3      14133           0.0000000000
     92231     14533  TIP3      H2             -5.6565964510       34.0369520034      -24.4441798864  TIP3      14133           0.0000000000
     92232     14534  TIP3      OH2            -4.2691133372       34.8335699111      -42.1722815756  TIP3      14134           0.0000000000
     92233     14534  TIP3      H1             -3.9848396775       34.0279081049      -41.7001774660  TIP3      14134           0.0000000000
     92234     14534  TIP3      H2             -3.5045480343       35.0561296730      -42.7185706271  TIP3      14134           0.0000000000
     92235     14535  TIP3      OH2           -17.6683996713       30.4120432601      -24.4123430191  TIP3      14135           0.0000000000
     92236     14535  TIP3      H1            -17.5315848520       29.4898264659      -24.7163708802  TIP3      14135           0.0000000000
     92237     14535  TIP3      H2            -18.4495602439       30.6819463367      -24.9380653666  TIP3      14135           0.0000000000
     92238     14536  TIP3      OH2           -13.2919781852       30.7932150339      -42.2602804494  TIP3      14136           0.0000000000
     92239     14536  TIP3      H1            -13.2403619988       29.9598607496      -41.7775596165  TIP3      14136           0.0000000000
     92240     14536  TIP3      H2            -12.6813472701       30.6001377056      -42.9980227640  TIP3      14136           0.0000000000
     92241     14537  TIP3      OH2           -10.9926885351       30.3864750144      -25.0046725688  TIP3      14137           0.0000000000
     92242     14537  TIP3      H1            -11.3364039035       30.6644833983      -25.8732067424  TIP3      14137           0.0000000000
     92243     14537  TIP3      H2            -10.8809604432       29.4106166433      -25.0861247846  TIP3      14137           0.0000000000
     92244     14538  TIP3      OH2            -5.2844473730       30.2583240599      -27.6133477139  TIP3      14138           0.0000000000
     92245     14538  TIP3      H1             -4.5169235077       30.8643849972      -27.7161254879  TIP3      14138           0.0000000000
     92246     14538  TIP3      H2             -6.0123476684       30.8895476994      -27.5627101422  TIP3      14138           0.0000000000
     92247     14539  TIP3      OH2           -16.8239627966       27.6122020358      -25.0217824852  TIP3      14139           0.0000000000
     92248     14539  TIP3      H1            -16.4076331858       26.7516587449      -25.1149589517  TIP3      14139           0.0000000000
     92249     14539  TIP3      H2            -17.0724500276       27.6186205184      -24.0793628579  TIP3      14139           0.0000000000
     92250     14540  TIP3      OH2           -12.1643861851       28.7573748205      -39.9808268444  TIP3      14140           0.0000000000
     92251     14540  TIP3      H1            -12.6383148323       28.2343195771      -39.3131928480  TIP3      14140           0.0000000000
     92252     14540  TIP3      H2            -11.8866505445       28.0551499625      -40.6167194374  TIP3      14140           0.0000000000
     92253     14541  TIP3      OH2           -12.8837817390       26.5867968539      -27.6386396866  TIP3      14141           0.0000000000
     92254     14541  TIP3      H1            -13.4968516175       27.2919180297      -27.3676092099  TIP3      14141           0.0000000000
     92255     14541  TIP3      H2            -12.5233162517       26.9381183900      -28.4708231942  TIP3      14141           0.0000000000
     92256     14542  TIP3      OH2           -11.0989497794       26.9729232443      -41.7348505916  TIP3      14142           0.0000000000
     92257     14542  TIP3      H1            -11.2491341900       26.7997531800      -42.6723944230  TIP3      14142           0.0000000000
     92258     14542  TIP3      H2            -10.1206880334       27.0678790384      -41.6683585445  TIP3      14142           0.0000000000
     92259     14543  TIP3      OH2            -7.8499604134       29.1250969868      -24.3245805465  TIP3      14143           0.0000000000
     92260     14543  TIP3      H1             -6.8924640409       29.1380087364      -24.4191742920  TIP3      14143           0.0000000000
     92261     14543  TIP3      H2             -8.0129578815       28.3667805673      -23.7542805420  TIP3      14143           0.0000000000
     92262     14544  TIP3      OH2            -1.8251491589       29.3830119653       42.7729925638  TIP3      14144           0.0000000000
     92263     14544  TIP3      H1             -1.9834162142       28.9104383056       41.9315840349  TIP3      14144           0.0000000000
     92264     14544  TIP3      H2             -1.6693067004       30.2926329666       42.4966478727  TIP3      14144           0.0000000000
     92265     14545  TIP3      OH2           -12.5163907726       23.9551592261      -26.5559195642  TIP3      14145           0.0000000000
     92266     14545  TIP3      H1            -12.3828389733       23.2321028335      -27.1922080683  TIP3      14145           0.0000000000
     92267     14545  TIP3      H2            -12.5365136242       24.7518371951      -27.1269476842  TIP3      14145           0.0000000000
     92268     14546  TIP3      OH2           -12.1066914294       22.3298583698      -29.0454730505  TIP3      14146           0.0000000000
     92269     14546  TIP3      H1            -11.5820935101       22.7914933719      -29.7389807314  TIP3      14146           0.0000000000
     92270     14546  TIP3      H2            -12.9875378160       22.2356968359      -29.4765524489  TIP3      14146           0.0000000000
     92271     14547  TIP3      OH2           -10.5459911384       27.7836695090      -28.8079948272  TIP3      14147           0.0000000000
     92272     14547  TIP3      H1             -9.7927969943       27.6290119111      -29.3895325390  TIP3      14147           0.0000000000
     92273     14547  TIP3      H2            -10.8932760947       28.6372848887      -29.1126276719  TIP3      14147           0.0000000000
     92274     14548  TIP3      OH2            -6.1336521991       25.5950023334      -23.8360844895  TIP3      14148           0.0000000000
     92275     14548  TIP3      H1             -5.9317972871       24.6555022076      -23.8847661626  TIP3      14148           0.0000000000
     92276     14548  TIP3      H2             -5.2673423205       26.0120139206      -23.8159069629  TIP3      14148           0.0000000000
     92277     14549  TIP3      OH2            -4.8285027788       28.3672365451      -25.6860439249  TIP3      14149           0.0000000000
     92278     14549  TIP3      H1             -5.0728135216       29.0907110344      -26.3046178436  TIP3      14149           0.0000000000
     92279     14549  TIP3      H2             -3.8647997632       28.3206657164      -25.8686185744  TIP3      14149           0.0000000000
     92280     14550  TIP3      OH2           -14.0486016741       25.1886119659      -24.6511798175  TIP3      14150           0.0000000000
     92281     14550  TIP3      H1            -14.8173130626       24.6197303260      -24.8527079558  TIP3      14150           0.0000000000
     92282     14550  TIP3      H2            -13.3762363984       24.8390353898      -25.2634239871  TIP3      14150           0.0000000000
     92283     14551  TIP3      OH2           -11.3062272659       19.7716313517      -28.6282277569  TIP3      14151           0.0000000000
     92284     14551  TIP3      H1            -11.4438245388       20.7401702315      -28.7418038676  TIP3      14151           0.0000000000
     92285     14551  TIP3      H2            -12.0639593780       19.4153217412      -29.1272461713  TIP3      14151           0.0000000000
     92286     14552  TIP3      OH2           -10.0359509944       24.0865062993      -25.0643521632  TIP3      14152           0.0000000000
     92287     14552  TIP3      H1            -10.3085024416       23.8900934104      -24.1451510461  TIP3      14152           0.0000000000
     92288     14552  TIP3      H2            -10.8482567813       23.9016714362      -25.5705881643  TIP3      14152           0.0000000000
     92289     14553  TIP3      OH2            -7.3226377781       23.2316508680      -25.9901176901  TIP3      14153           0.0000000000
     92290     14553  TIP3      H1             -8.2860048539       23.2804549528      -25.8454737137  TIP3      14153           0.0000000000
     92291     14553  TIP3      H2             -7.0400949764       22.6069382893      -25.3105495698  TIP3      14153           0.0000000000
     92292     14554  TIP3      OH2            -5.6916699563       21.8744312283      -23.9827582305  TIP3      14154           0.0000000000
     92293     14554  TIP3      H1             -5.8103762328       20.9061791341      -24.0171516600  TIP3      14154           0.0000000000
     92294     14554  TIP3      H2             -6.0448572567       22.1555214498      -23.1349106471  TIP3      14154           0.0000000000
     92295     14555  TIP3      OH2           -15.9107244928       23.1051468658      -24.9375319930  TIP3      14155           0.0000000000
     92296     14555  TIP3      H1            -15.6741395330       22.3773735207      -25.5430796029  TIP3      14155           0.0000000000
     92297     14555  TIP3      H2            -16.0018954737       22.6566391332      -24.0822056440  TIP3      14155           0.0000000000
     92298     14556  TIP3      OH2           -11.0949362464       19.1197039465      -25.9487876069  TIP3      14156           0.0000000000
     92299     14556  TIP3      H1            -10.3871016410       18.4417761674      -25.9794003940  TIP3      14156           0.0000000000
     92300     14556  TIP3      H2            -11.1975812864       19.3330476790      -26.8933573823  TIP3      14156           0.0000000000
     92301     14557  TIP3      OH2           -10.7261374764       20.7771356088      -23.8771285426  TIP3      14157           0.0000000000
     92302     14557  TIP3      H1            -10.8811793622       20.2781502675      -24.7152011353  TIP3      14157           0.0000000000
     92303     14557  TIP3      H2            -11.3404903929       21.5280172186      -23.9604343826  TIP3      14157           0.0000000000
     92304     14558  TIP3      OH2           -11.2331287204       37.6719062130      -40.7233195642  TIP3      14158           0.0000000000
     92305     14558  TIP3      H1            -10.2620636028       37.7927440568      -40.5959804366  TIP3      14158           0.0000000000
     92306     14558  TIP3      H2            -11.4414941043       38.3326838764      -41.3768190555  TIP3      14158           0.0000000000
     92307     14559  TIP3      OH2           -17.6601231605       32.2828110988      -41.2225372470  TIP3      14159           0.0000000000
     92308     14559  TIP3      H1            -16.7068696222       32.3635314092      -40.9792146545  TIP3      14159           0.0000000000
     92309     14559  TIP3      H2            -17.6275591663       31.6274988387      -41.9267042160  TIP3      14159           0.0000000000
     92310     14560  TIP3      OH2           -18.9422659911       37.6660694312      -36.2071223685  TIP3      14160           0.0000000000
     92311     14560  TIP3      H1            -19.6388531345       37.1921533926      -36.7068395387  TIP3      14160           0.0000000000
     92312     14560  TIP3      H2            -18.6323421663       37.0014879648      -35.5736504776  TIP3      14160           0.0000000000
     92313     14561  TIP3      OH2           -18.0967480803       35.7550433237      -34.3757846358  TIP3      14161           0.0000000000
     92314     14561  TIP3      H1            -18.4559556153       34.8947809467      -34.1613476833  TIP3      14161           0.0000000000
     92315     14561  TIP3      H2            -17.8804094533       36.1141455528      -33.4897824777  TIP3      14161           0.0000000000
     92316     14562  TIP3      OH2            -0.5683975434       36.5669568742      -31.4053518747  TIP3      14162           0.0000000000
     92317     14562  TIP3      H1             -0.5608972050       36.7515140820      -30.4500069244  TIP3      14162           0.0000000000
     92318     14562  TIP3      H2              0.1352383472       37.1454901174      -31.7225330112  TIP3      14162           0.0000000000
     92319     14563  TIP3      OH2            -0.9917752851       36.1656553390      -28.4678194329  TIP3      14163           0.0000000000
     92320     14563  TIP3      H1             -1.4752657180       35.3947562983      -28.8406140757  TIP3      14163           0.0000000000
     92321     14563  TIP3      H2             -0.4645569348       35.7290427435      -27.7809131862  TIP3      14163           0.0000000000
     92322     14564  TIP3      OH2            -2.5474640529       31.8745876812      -23.7985379826  TIP3      14164           0.0000000000
     92323     14564  TIP3      H1             -3.4383294401       31.8642033459      -23.4412226858  TIP3      14164           0.0000000000
     92324     14564  TIP3      H2             -2.1691478120       32.6908948620      -23.3949713906  TIP3      14164           0.0000000000
     92325     14565  TIP3      OH2            -1.2332078387       30.2040985291      -38.3461224493  TIP3      14165           0.0000000000
     92326     14565  TIP3      H1             -0.3839759694       30.6087527168      -38.1694560725  TIP3      14165           0.0000000000
     92327     14565  TIP3      H2             -1.2460222324       29.4590003508      -37.6976735288  TIP3      14165           0.0000000000
     92328     14566  TIP3      OH2            -0.8554670738       28.2749913175      -36.4973790391  TIP3      14166           0.0000000000
     92329     14566  TIP3      H1             -1.5963281769       27.7654247084      -36.0958388825  TIP3      14166           0.0000000000
     92330     14566  TIP3      H2             -0.2678612256       28.4337720733      -35.7331806561  TIP3      14166           0.0000000000
     92331     14567  TIP3      OH2            -1.1085497527       31.0007204214      -31.5191336251  TIP3      14167           0.0000000000
     92332     14567  TIP3      H1             -0.2674450598       30.6353905478      -31.8503413471  TIP3      14167           0.0000000000
     92333     14567  TIP3      H2             -0.9711039034       31.9616913951      -31.6680143336  TIP3      14167           0.0000000000
     92334     14568  TIP3      OH2            -2.5739699161       33.8961984925      -29.2251711211  TIP3      14168           0.0000000000
     92335     14568  TIP3      H1             -3.2568846436       34.2305115161      -28.6216933704  TIP3      14168           0.0000000000
     92336     14568  TIP3      H2             -3.1204305957       33.4720841430      -29.9233369022  TIP3      14168           0.0000000000
     92337     14569  TIP3      OH2            -0.5748184947       28.1178816014      -40.1037901502  TIP3      14169           0.0000000000
     92338     14569  TIP3      H1             -1.1278898924       28.4928260184      -40.8152430984  TIP3      14169           0.0000000000
     92339     14569  TIP3      H2             -0.6369512477       28.8154699560      -39.4272449463  TIP3      14169           0.0000000000
     92340     14570  TIP3      OH2            -2.4598327304       25.3906896072      -41.4708693224  TIP3      14170           0.0000000000
     92341     14570  TIP3      H1             -2.1314140509       25.9978808317      -42.1623662853  TIP3      14170           0.0000000000
     92342     14570  TIP3      H2             -2.3737732618       24.5626692011      -41.9895422838  TIP3      14170           0.0000000000
     92343     14571  TIP3      OH2            -3.0550826319       26.7660482734      -35.9305035758  TIP3      14171           0.0000000000
     92344     14571  TIP3      H1             -3.2101931609       25.8097268459      -35.9471393218  TIP3      14171           0.0000000000
     92345     14571  TIP3      H2             -3.4078070867       27.0190874743      -35.0617928109  TIP3      14171           0.0000000000
     92346     14572  TIP3      OH2           -18.0434359704       28.8656566532      -31.8944537690  TIP3      14172           0.0000000000
     92347     14572  TIP3      H1            -17.8402437093       28.7453358779      -32.8426528997  TIP3      14172           0.0000000000
     92348     14572  TIP3      H2            -17.1641719574       28.6922166504      -31.4941181780  TIP3      14172           0.0000000000
     92349     14573  TIP3      OH2            -2.2104710535       28.7308117827      -26.2801578519  TIP3      14173           0.0000000000
     92350     14573  TIP3      H1             -1.6056086959       27.9862775001      -26.0837812598  TIP3      14173           0.0000000000
     92351     14573  TIP3      H2             -1.6219238300       29.5092232963      -26.2296776306  TIP3      14173           0.0000000000
     92352     14574  TIP3      OH2            -0.6975705320       26.6377408688      -25.5954717833  TIP3      14174           0.0000000000
     92353     14574  TIP3      H1             -1.5765212942       26.2352464187      -25.7581304746  TIP3      14174           0.0000000000
     92354     14574  TIP3      H2             -0.1111040816       25.8701314911      -25.6745112781  TIP3      14174           0.0000000000
     92355     14575  TIP3      OH2            -2.9725196429       22.7826994902      -42.4509702305  TIP3      14175           0.0000000000
     92356     14575  TIP3      H1             -2.3704635658       22.3888277988      -41.7930450575  TIP3      14175           0.0000000000
     92357     14575  TIP3      H2             -3.8334077608       22.3836717293      -42.2442593409  TIP3      14175           0.0000000000
     92358     14576  TIP3      OH2            -3.3734118096       24.3535675563      -37.4549594037  TIP3      14176           0.0000000000
     92359     14576  TIP3      H1             -3.0680633188       23.4241518835      -37.3380675444  TIP3      14176           0.0000000000
     92360     14576  TIP3      H2             -2.5932951882       24.7661899523      -37.8518013052  TIP3      14176           0.0000000000
     92361     14577  TIP3      OH2            -2.7518016300       24.8981802445      -32.0289443835  TIP3      14177           0.0000000000
     92362     14577  TIP3      H1             -1.7944600771       25.1355557628      -32.0469464095  TIP3      14177           0.0000000000
     92363     14577  TIP3      H2             -2.9565923140       25.0334625574      -31.0903697659  TIP3      14177           0.0000000000
     92364     14578  TIP3      OH2            -2.6920268395       25.6286053342      -29.2449252067  TIP3      14178           0.0000000000
     92365     14578  TIP3      H1             -3.5594394199       25.9264017917      -28.8903418426  TIP3      14178           0.0000000000
     92366     14578  TIP3      H2             -2.2573249008       26.4889454809      -29.4592651588  TIP3      14178           0.0000000000
     92367     14579  TIP3      OH2           -18.4339640469       24.1262631308      -25.7618552106  TIP3      14179           0.0000000000
     92368     14579  TIP3      H1            -17.4975436175       23.9649961440      -25.5295357457  TIP3      14179           0.0000000000
     92369     14579  TIP3      H2            -18.8855973451       23.3382691463      -25.3927560285  TIP3      14179           0.0000000000
     92370     14580  TIP3      OH2            -0.4270120558       19.6563959242      -23.8858671373  TIP3      14180           0.0000000000
     92371     14580  TIP3      H1             -0.0728919729       18.9898565040      -24.5024254604  TIP3      14180           0.0000000000
     92372     14580  TIP3      H2             -0.2830509083       20.4860682946      -24.3742072488  TIP3      14180           0.0000000000
     92373     14581  TIP3      OH2            -2.7308981293       21.6265065179      -37.4147721528  TIP3      14181           0.0000000000
     92374     14581  TIP3      H1             -2.5358719699       21.1659066458      -36.5743932584  TIP3      14181           0.0000000000
     92375     14581  TIP3      H2             -3.3377654297       21.0063362651      -37.8760236323  TIP3      14181           0.0000000000
     92376     14582  TIP3      OH2           -17.2260618409       22.4317103226      -32.8779107733  TIP3      14182           0.0000000000
     92377     14582  TIP3      H1            -16.7614343423       21.6215254422      -32.5850347232  TIP3      14182           0.0000000000
     92378     14582  TIP3      H2            -16.7199516738       23.1396315876      -32.4564449714  TIP3      14182           0.0000000000
     92379     14583  TIP3      OH2           -18.9347748675       25.4197125839      -31.8111607443  TIP3      14183           0.0000000000
     92380     14583  TIP3      H1            -18.3927279497       25.2014546873      -32.5983665656  TIP3      14183           0.0000000000
     92381     14583  TIP3      H2            -18.5163405091       26.2530532653      -31.5441811413  TIP3      14183           0.0000000000
     92382     14584  TIP3      OH2            -0.8840700877       21.7513828726      -25.5299084465  TIP3      14184           0.0000000000
     92383     14584  TIP3      H1             -1.8204625122       22.0301781923      -25.6010057735  TIP3      14184           0.0000000000
     92384     14584  TIP3      H2             -0.8132397515       21.2213755367      -26.3413517604  TIP3      14184           0.0000000000
     92385     14585  TIP3      OH2            -0.8938104765       21.6773217736      -40.8605111521  TIP3      14185           0.0000000000
     92386     14585  TIP3      H1             -0.4566902027       20.9647539706      -41.3588362688  TIP3      14185           0.0000000000
     92387     14585  TIP3      H2             -0.1789109954       22.3413529677      -40.8340257897  TIP3      14185           0.0000000000
     92388     14586  TIP3      OH2           -18.5833936345       21.6835154313      -37.7563383736  TIP3      14186           0.0000000000
     92389     14586  TIP3      H1            -19.5211790251       21.8909646443      -37.8891474247  TIP3      14186           0.0000000000
     92390     14586  TIP3      H2            -18.1467611561       22.1796759731      -38.4660121468  TIP3      14186           0.0000000000
     92391     14587  TIP3      OH2            -3.8458603382       36.6609971872      -35.8053867453  TIP3      14187           0.0000000000
     92392     14587  TIP3      H1             -3.1643190040       36.3267240006      -36.4196421974  TIP3      14187           0.0000000000
     92393     14587  TIP3      H2             -3.3129584577       37.1505832732      -35.1602673363  TIP3      14187           0.0000000000
     92394     14588  TIP3      OH2           -18.6200932220       20.3917177190      -29.4283830635  TIP3      14188           0.0000000000
     92395     14588  TIP3      H1            -19.3005804610       20.1705967887      -28.7694437479  TIP3      14188           0.0000000000
     92396     14588  TIP3      H2            -19.0836887317       21.0444686633      -29.9955881861  TIP3      14188           0.0000000000
     92397     14589  TIP3      OH2           -16.4093162567       33.5849228008      -25.2581706005  TIP3      14189           0.0000000000
     92398     14589  TIP3      H1            -17.2499298729       33.7662658506      -25.7251233202  TIP3      14189           0.0000000000
     92399     14589  TIP3      H2            -16.7070424686       33.5117962130      -24.3575188372  TIP3      14189           0.0000000000
     92400     14590  TIP3      OH2           -13.4940400181       34.5531082777      -29.0061492092  TIP3      14190           0.0000000000
     92401     14590  TIP3      H1            -13.8736540749       35.3948017780      -29.2938039671  TIP3      14190           0.0000000000
     92402     14590  TIP3      H2            -12.5700140614       34.6577166368      -29.3188264001  TIP3      14190           0.0000000000
     92403     14591  TIP3      OH2            -9.1765652292       35.9699831871      -26.0881022933  TIP3      14191           0.0000000000
     92404     14591  TIP3      H1             -8.9925457870       35.6379884249      -25.1732341380  TIP3      14191           0.0000000000
     92405     14591  TIP3      H2             -8.2927365199       36.2816408541      -26.3614225932  TIP3      14191           0.0000000000
     92406     14592  TIP3      OH2            -6.8624482134       37.2517293662      -26.8141677058  TIP3      14192           0.0000000000
     92407     14592  TIP3      H1             -6.1452494854       36.6357617585      -27.0395717056  TIP3      14192           0.0000000000
     92408     14592  TIP3      H2             -6.5006826793       37.6619394390      -25.9950011018  TIP3      14192           0.0000000000
     92409     14593  TIP3      OH2            -1.8854132218       19.8595837669      -27.7048343046  TIP3      14193           0.0000000000
     92410     14593  TIP3      H1             -2.7154449208       20.1615285621      -28.1184860580  TIP3      14193           0.0000000000
     92411     14593  TIP3      H2             -1.6883573883       19.0636075433      -28.2496825301  TIP3      14193           0.0000000000
     92412     14594  TIP3      OH2           -16.0670115135       37.8079530242      -28.9857042054  TIP3      14194           0.0000000000
     92413     14594  TIP3      H1            -16.8028878736       38.2788699889      -29.4117820010  TIP3      14194           0.0000000000
     92414     14594  TIP3      H2            -16.4226543524       37.5842705968      -28.1129412354  TIP3      14194           0.0000000000
     92415     14595  TIP3      OH2           -13.5962092275       37.3959161402      -29.9353779798  TIP3      14195           0.0000000000
     92416     14595  TIP3      H1            -14.4908228627       37.5075038942      -29.5346022215  TIP3      14195           0.0000000000
     92417     14595  TIP3      H2            -13.6691941004       37.9748766115      -30.7231201265  TIP3      14195           0.0000000000
     92418     14596  TIP3      OH2            -8.8978674098       37.2956549897      -30.7652156611  TIP3      14196           0.0000000000
     92419     14596  TIP3      H1             -9.3612280039       37.8434440596      -31.4177443610  TIP3      14196           0.0000000000
     92420     14596  TIP3      H2             -8.7470400813       37.9254814205      -30.0299113814  TIP3      14196           0.0000000000
     92421     14597  TIP3      OH2            -6.5784076788       36.1457707664      -29.7887674143  TIP3      14197           0.0000000000
     92422     14597  TIP3      H1             -7.4722167947       36.3682630480      -30.0940327468  TIP3      14197           0.0000000000
     92423     14597  TIP3      H2             -6.1403141042       37.0112405828      -29.8693596392  TIP3      14197           0.0000000000
     92424     14598  TIP3      OH2            -3.9911495389       37.7136799217      -29.5068343924  TIP3      14198           0.0000000000
     92425     14598  TIP3      H1             -4.1240289686       38.6649189549      -29.7432232572  TIP3      14198           0.0000000000
     92426     14598  TIP3      H2             -3.7994212689       37.3357708524      -30.3848972435  TIP3      14198           0.0000000000
     92427     14599  TIP3      OH2           -16.6606960461       36.4390819020      -32.0746650910  TIP3      14199           0.0000000000
     92428     14599  TIP3      H1            -16.6900866546       36.0033662110      -31.1944447454  TIP3      14199           0.0000000000
     92429     14599  TIP3      H2            -15.8242119559       36.1160074697      -32.4647607922  TIP3      14199           0.0000000000
     92430     14600  TIP3      OH2           -14.5462703417       35.1520698886      -33.4156864022  TIP3      14200           0.0000000000
     92431     14600  TIP3      H1            -14.7190317470       34.2241265275      -33.2022849638  TIP3      14200           0.0000000000
     92432     14600  TIP3      H2            -13.6919305018       35.2975982768      -32.9447856132  TIP3      14200           0.0000000000
     92433     14601  TIP3      OH2           -11.9675045811       35.6427132526      -32.5507448871  TIP3      14201           0.0000000000
     92434     14601  TIP3      H1            -11.7704410449       34.7287805016      -32.8230903445  TIP3      14201           0.0000000000
     92435     14601  TIP3      H2            -11.9057069782       35.5814192467      -31.5882160337  TIP3      14201           0.0000000000
     92436     14602  TIP3      OH2            -8.4768043000       21.2965893316      -33.4011035107  TIP3      14202           0.0000000000
     92437     14602  TIP3      H1             -9.1540178386       20.6505607146      -33.1425677556  TIP3      14202           0.0000000000
     92438     14602  TIP3      H2             -7.9193460879       20.7849146435      -34.0013197668  TIP3      14202           0.0000000000
     92439     14603  TIP3      OH2            -3.3417336292       19.3690573046      -33.3014063724  TIP3      14203           0.0000000000
     92440     14603  TIP3      H1             -2.7230509528       19.9460524854      -33.8181660598  TIP3      14203           0.0000000000
     92441     14603  TIP3      H2             -4.2182596483       19.7138955890      -33.5507664672  TIP3      14203           0.0000000000
     92442     14604  TIP3      OH2            -1.6502174728       20.5588689969      -35.0007544336  TIP3      14204           0.0000000000
     92443     14604  TIP3      H1             -0.9839133340       20.0132487107      -35.4844197167  TIP3      14204           0.0000000000
     92444     14604  TIP3      H2             -1.1954174332       21.4260908594      -34.9439986318  TIP3      14204           0.0000000000
     92445     14605  TIP3      OH2           -16.1277685729       19.9327724775      -35.5693283535  TIP3      14205           0.0000000000
     92446     14605  TIP3      H1            -16.9205778878       19.6973863035      -36.0889682282  TIP3      14205           0.0000000000
     92447     14605  TIP3      H2            -15.6295625990       19.0946793874      -35.5944002152  TIP3      14205           0.0000000000
     92448     14606  TIP3      OH2           -17.3318782230       19.6963688940      -39.7992211553  TIP3      14206           0.0000000000
     92449     14606  TIP3      H1            -16.8657398383       20.3313800562      -40.3773787537  TIP3      14206           0.0000000000
     92450     14606  TIP3      H2            -17.9340136001       20.2636601050      -39.2933682471  TIP3      14206           0.0000000000
     92451     14607  TIP3      OH2           -11.6011185805       19.8462513580      -35.7742608208  TIP3      14207           0.0000000000
     92452     14607  TIP3      H1            -10.7051017016       20.2267400261      -35.8112096974  TIP3      14207           0.0000000000
     92453     14607  TIP3      H2            -11.6898121236       19.6351616678      -34.8447003257  TIP3      14207           0.0000000000
     92454     14608  TIP3      OH2            -5.9759548716       19.8803550090      -34.1264561097  TIP3      14208           0.0000000000
     92455     14608  TIP3      H1             -5.9502370761       19.9720110317      -35.0842514191  TIP3      14208           0.0000000000
     92456     14608  TIP3      H2             -6.3023824867       18.9582916086      -34.0010424407  TIP3      14208           0.0000000000
     92457     14609  TIP3      OH2            -4.6497291801       19.9058972366      -38.4520223837  TIP3      14209           0.0000000000
     92458     14609  TIP3      H1             -5.3797229318       20.5123127293      -38.6405555232  TIP3      14209           0.0000000000
     92459     14609  TIP3      H2             -5.1062789729       19.0495004731      -38.2847987176  TIP3      14209           0.0000000000
     92460     14610  TIP3      OH2           -17.4142226246       35.6317290813      -38.8336152731  TIP3      14210           0.0000000000
     92461     14610  TIP3      H1            -18.0933040641       35.6412362306      -39.5455054474  TIP3      14210           0.0000000000
     92462     14610  TIP3      H2            -17.4146038356       36.5801529035      -38.6287145410  TIP3      14210           0.0000000000
     92463     14611  TIP3      OH2           -15.4830543815       21.6003730497      -41.3254158720  TIP3      14211           0.0000000000
     92464     14611  TIP3      H1            -14.9625401501       21.0022755633      -41.8605901297  TIP3      14211           0.0000000000
     92465     14611  TIP3      H2            -14.8331022928       21.9446033505      -40.6868719544  TIP3      14211           0.0000000000
     92466     14612  TIP3      OH2           -10.4524327800       21.8964755160      -38.9107438287  TIP3      14212           0.0000000000
     92467     14612  TIP3      H1            -10.2348475426       21.2891706865      -38.1837639436  TIP3      14212           0.0000000000
     92468     14612  TIP3      H2            -10.4536015853       22.7519399258      -38.4179267356  TIP3      14212           0.0000000000
     92469     14613  TIP3      OH2            -8.5806089831       37.0591576013      -40.3968881873  TIP3      14213           0.0000000000
     92470     14613  TIP3      H1             -7.6553311424       37.2225257554      -40.6473329043  TIP3      14213           0.0000000000
     92471     14613  TIP3      H2             -8.7689009017       36.4833871372      -41.1973623058  TIP3      14213           0.0000000000
     92472     14614  TIP3      OH2            -1.8337254076       36.4467799604      -37.7755110808  TIP3      14214           0.0000000000
     92473     14614  TIP3      H1             -2.0440848913       35.6780215213      -38.3622915475  TIP3      14214           0.0000000000
     92474     14614  TIP3      H2             -1.9032376193       37.1921266392      -38.3985884758  TIP3      14214           0.0000000000
     92475     14615  TIP3      OH2           -16.2214857500       20.4579279989      -26.0839715392  TIP3      14215           0.0000000000
     92476     14615  TIP3      H1            -16.5748361161       19.6627967819      -25.6446946168  TIP3      14215           0.0000000000
     92477     14615  TIP3      H2            -15.2889561563       20.4406870582      -25.7545489086  TIP3      14215           0.0000000000
     92478     14616  TIP3      OH2           -14.2143165186       19.8166837046      -24.5191258439  TIP3      14216           0.0000000000
     92479     14616  TIP3      H1            -13.3134608875       19.4979688377      -24.6975416210  TIP3      14216           0.0000000000
     92480     14616  TIP3      H2            -14.5915108083       19.0435370114      -24.0537006359  TIP3      14216           0.0000000000
     92481     14617  TIP3      OH2           -15.5930438829       36.5953657710      -41.8655616686  TIP3      14217           0.0000000000
     92482     14617  TIP3      H1            -15.8722820416       36.8696651384      -40.9830085436  TIP3      14217           0.0000000000
     92483     14617  TIP3      H2            -14.8270871743       36.0465810266      -41.7039140165  TIP3      14217           0.0000000000
     92484     14618  TIP3      OH2            -5.7984479133       19.1435273602      -24.3350556437  TIP3      14218           0.0000000000
     92485     14618  TIP3      H1             -5.7213699500       18.6643481051      -23.4884571824  TIP3      14218           0.0000000000
     92486     14618  TIP3      H2             -4.8926108969       19.1094376682      -24.6984610020  TIP3      14218           0.0000000000
     92487     14619  TIP3      OH2            -2.6041747184       35.1820966229      -25.6606550265  TIP3      14219           0.0000000000
     92488     14619  TIP3      H1             -3.4140909898       35.0223879955      -26.1891772904  TIP3      14219           0.0000000000
     92489     14619  TIP3      H2             -2.7104008807       36.1330388026      -25.4420556208  TIP3      14219           0.0000000000
     92490     14620  TIP3      OH2            11.8110994877       29.0639926414      -35.6507484551  TIP3      14220           0.0000000000
     92491     14620  TIP3      H1             11.8532364275       30.0375250172      -35.7508318825  TIP3      14220           0.0000000000
     92492     14620  TIP3      H2             11.1272354909       28.8144478308      -36.2923768792  TIP3      14220           0.0000000000
     92493     14621  TIP3      OH2            10.7027382753       28.3341403396      -32.1934079297  TIP3      14221           0.0000000000
     92494     14621  TIP3      H1             10.6759293988       27.6756131008      -31.4925721722  TIP3      14221           0.0000000000
     92495     14621  TIP3      H2             10.3784746344       27.8453056265      -32.9686847490  TIP3      14221           0.0000000000
     92496     14622  TIP3      OH2             3.0621779412       27.9691618834      -30.6346333868  TIP3      14222           0.0000000000
     92497     14622  TIP3      H1              3.1330251130       27.3125588727      -29.9082189036  TIP3      14222           0.0000000000
     92498     14622  TIP3      H2              3.7931818757       28.5669232318      -30.4244474500  TIP3      14222           0.0000000000
     92499     14623  TIP3      OH2            14.4096171572       31.2663838716      -33.9158564463  TIP3      14223           0.0000000000
     92500     14623  TIP3      H1             13.9723938311       30.5523970808      -33.4397158292  TIP3      14223           0.0000000000
     92501     14623  TIP3      H2             14.4051025673       31.9866560085      -33.2565792471  TIP3      14223           0.0000000000
     92502     14624  TIP3      OH2             3.9900651366       32.4263367675      -32.1184752608  TIP3      14224           0.0000000000
     92503     14624  TIP3      H1              3.6489344711       31.5747970734      -32.4439511971  TIP3      14224           0.0000000000
     92504     14624  TIP3      H2              4.9441419583       32.2318592755      -32.0463512011  TIP3      14224           0.0000000000
     92505     14625  TIP3      OH2             0.6274673236       26.0245891126      -36.6697103579  TIP3      14225           0.0000000000
     92506     14625  TIP3      H1              0.1721556190       26.8928797292      -36.7092590431  TIP3      14225           0.0000000000
     92507     14625  TIP3      H2              0.0488666666       25.4740481974      -37.2165257699  TIP3      14225           0.0000000000
     92508     14626  TIP3      OH2             1.3244452905       28.2365596145      -34.5437755911  TIP3      14226           0.0000000000
     92509     14626  TIP3      H1              1.5632017332       27.4318959229      -34.0439959782  TIP3      14226           0.0000000000
     92510     14626  TIP3      H2              2.0562125238       28.3027432303      -35.1687300828  TIP3      14226           0.0000000000
     92511     14627  TIP3      OH2            11.5124132820       36.4073892550      -33.6854079255  TIP3      14227           0.0000000000
     92512     14627  TIP3      H1             12.1544946776       35.7032295139      -33.9605933127  TIP3      14227           0.0000000000
     92513     14627  TIP3      H2             11.3159941454       36.1295148384      -32.7919403207  TIP3      14227           0.0000000000
     92514     14628  TIP3      OH2             9.0796173615       30.7508864809      -31.7724057769  TIP3      14228           0.0000000000
     92515     14628  TIP3      H1              9.4151758086       30.0830455759      -32.3922435531  TIP3      14228           0.0000000000
     92516     14628  TIP3      H2              9.8520903572       30.8794596328      -31.1952391295  TIP3      14228           0.0000000000
     92517     14629  TIP3      OH2            17.7216961345       22.3591294485      -30.9663121006  TIP3      14229           0.0000000000
     92518     14629  TIP3      H1             17.8344795966       22.9798480552      -30.2142707225  TIP3      14229           0.0000000000
     92519     14629  TIP3      H2             18.2151358689       22.8201845770      -31.6613327083  TIP3      14229           0.0000000000
     92520     14630  TIP3      OH2            12.2413017496       25.1837529045      -31.4374598483  TIP3      14230           0.0000000000
     92521     14630  TIP3      H1             12.3908715243       24.2176839372      -31.4446080817  TIP3      14230           0.0000000000
     92522     14630  TIP3      H2             12.1369337495       25.3461152490      -32.3977820595  TIP3      14230           0.0000000000
     92523     14631  TIP3      OH2             5.3660555105       23.2794570655      -34.1795207272  TIP3      14231           0.0000000000
     92524     14631  TIP3      H1              5.4483770720       24.1222167094      -34.6496301607  TIP3      14231           0.0000000000
     92525     14631  TIP3      H2              4.9581249407       22.6958888153      -34.8592556272  TIP3      14231           0.0000000000
     92526     14632  TIP3      OH2            13.1058589143       23.3842744716      -35.8132979292  TIP3      14232           0.0000000000
     92527     14632  TIP3      H1             13.7699493487       23.0548042484      -35.1647024062  TIP3      14232           0.0000000000
     92528     14632  TIP3      H2             13.6504751977       23.9205955512      -36.4037330996  TIP3      14232           0.0000000000
     92529     14633  TIP3      OH2             1.9934336564       25.6778349767      -33.4458335711  TIP3      14233           0.0000000000
     92530     14633  TIP3      H1              2.6683090872       25.1150409499      -33.0095541710  TIP3      14233           0.0000000000
     92531     14633  TIP3      H2              2.0620312624       25.3760396539      -34.3642461644  TIP3      14233           0.0000000000
     92532     14634  TIP3      OH2             7.1600795431       27.2341992126      -34.1892917903  TIP3      14234           0.0000000000
     92533     14634  TIP3      H1              7.7990140561       26.6648747253      -33.7270706275  TIP3      14234           0.0000000000
     92534     14634  TIP3      H2              6.6015045322       26.5659144244      -34.6366037070  TIP3      14234           0.0000000000
     92535     14635  TIP3      OH2            18.1497429201       23.8166936632      -28.7261083962  TIP3      14235           0.0000000000
     92536     14635  TIP3      H1             17.4772609047       24.5265637298      -28.8024926455  TIP3      14235           0.0000000000
     92537     14635  TIP3      H2             18.1656983293       23.6647924704      -27.7698009792  TIP3      14235           0.0000000000
     92538     14636  TIP3      OH2             4.2380673792       22.1709801305      -30.1377606578  TIP3      14236           0.0000000000
     92539     14636  TIP3      H1              3.9843318977       22.7240444079      -30.9035219160  TIP3      14236           0.0000000000
     92540     14636  TIP3      H2              3.5482069260       22.4103037903      -29.4727232306  TIP3      14236           0.0000000000
     92541     14637  TIP3      OH2            11.5724859885       31.6663339751      -36.5890412590  TIP3      14237           0.0000000000
     92542     14637  TIP3      H1             11.2762619866       31.3608733733      -37.4556449602  TIP3      14237           0.0000000000
     92543     14637  TIP3      H2             11.2478130212       32.5913138990      -36.5510063641  TIP3      14237           0.0000000000
     92544     14638  TIP3      OH2             6.7818278859       29.8265724913      -29.8697695050  TIP3      14238           0.0000000000
     92545     14638  TIP3      H1              6.0497406480       30.4631151930      -29.7176102821  TIP3      14238           0.0000000000
     92546     14638  TIP3      H2              7.4872416126       30.4171574620      -30.1729860661  TIP3      14238           0.0000000000
     92547     14639  TIP3      OH2            14.8822222133       22.6938391070      -33.8278841892  TIP3      14239           0.0000000000
     92548     14639  TIP3      H1             14.6760601886       21.9228554519      -33.2886476229  TIP3      14239           0.0000000000
     92549     14639  TIP3      H2             15.5543248052       23.1470692399      -33.2914630208  TIP3      14239           0.0000000000
     92550     14640  TIP3      OH2             3.7929639353       24.0578852103      -32.1494850049  TIP3      14240           0.0000000000
     92551     14640  TIP3      H1              4.4405835274       24.7154384923      -31.8045716923  TIP3      14240           0.0000000000
     92552     14640  TIP3      H2              4.3323873788       23.6042364591      -32.8467260625  TIP3      14240           0.0000000000
     92553     14641  TIP3      OH2             5.2101541747       31.8062571193      -29.0753938680  TIP3      14241           0.0000000000
     92554     14641  TIP3      H1              5.1755485257       32.7151909953      -29.4319504498  TIP3      14241           0.0000000000
     92555     14641  TIP3      H2              4.3252256879       31.7397808784      -28.6328584164  TIP3      14241           0.0000000000
     92556     14642  TIP3      OH2             1.3619477186       31.4772776757      -38.2776405618  TIP3      14242           0.0000000000
     92557     14642  TIP3      H1              1.0350985578       31.7309623620      -39.1746764709  TIP3      14242           0.0000000000
     92558     14642  TIP3      H2              1.3030164882       32.3302654359      -37.8066391670  TIP3      14242           0.0000000000
     92559     14643  TIP3      OH2            14.9308375750       33.0985248479      -31.5506786433  TIP3      14243           0.0000000000
     92560     14643  TIP3      H1             13.9650180846       33.1900825858      -31.4083223638  TIP3      14243           0.0000000000
     92561     14643  TIP3      H2             15.1973157333       34.0248163486      -31.7154040347  TIP3      14243           0.0000000000
     92562     14644  TIP3      OH2            15.2350628691       21.3926060884      -30.1425348475  TIP3      14244           0.0000000000
     92563     14644  TIP3      H1             14.4997065602       22.0158447189      -30.2038602755  TIP3      14244           0.0000000000
     92564     14644  TIP3      H2             15.9312424016       21.8146342678      -30.6765802991  TIP3      14244           0.0000000000
     92565     14645  TIP3      OH2             8.2370833297       19.4910933643      -32.6589850647  TIP3      14245           0.0000000000
     92566     14645  TIP3      H1              8.0997913041       18.5330355003      -32.7520673209  TIP3      14245           0.0000000000
     92567     14645  TIP3      H2              7.3517572941       19.8171906747      -32.4104249275  TIP3      14245           0.0000000000
     92568     14646  TIP3      OH2            13.1747090295       34.8864041089      -34.9317829250  TIP3      14246           0.0000000000
     92569     14646  TIP3      H1             13.6117579487       34.1754438985      -35.4403250870  TIP3      14246           0.0000000000
     92570     14646  TIP3      H2             13.5412432782       35.6909017181      -35.3525138718  TIP3      14246           0.0000000000
     92571     14647  TIP3      OH2            14.3628941211       32.8113332130      -36.4357066271  TIP3      14247           0.0000000000
     92572     14647  TIP3      H1             14.0857423412       32.1052976450      -37.0446169591  TIP3      14247           0.0000000000
     92573     14647  TIP3      H2             14.4129785732       32.3324394879      -35.5873418284  TIP3      14247           0.0000000000
     92574     14648  TIP3      OH2            16.0167089556       31.3770169701      -27.9437434073  TIP3      14248           0.0000000000
     92575     14648  TIP3      H1             16.1624816735       30.7582199155      -28.6905419623  TIP3      14248           0.0000000000
     92576     14648  TIP3      H2             16.1994747307       32.2472853218      -28.3309932058  TIP3      14248           0.0000000000
     92577     14649  TIP3      OH2            10.4973225916       28.3130146717      -38.1670178091  TIP3      14249           0.0000000000
     92578     14649  TIP3      H1              9.7911849861       28.8662237018      -38.5489042529  TIP3      14249           0.0000000000
     92579     14649  TIP3      H2             11.1975134254       28.3848558146      -38.8457260557  TIP3      14249           0.0000000000
     92580     14650  TIP3      OH2            10.5444799734       26.8012581982      -41.1242970333  TIP3      14250           0.0000000000
     92581     14650  TIP3      H1             11.2684566622       26.8107599076      -40.4805949635  TIP3      14250           0.0000000000
     92582     14650  TIP3      H2             10.8653722628       26.1635117058      -41.7727272442  TIP3      14250           0.0000000000
     92583     14651  TIP3      OH2            17.8816444250       27.6989456029      -29.8803822782  TIP3      14251           0.0000000000
     92584     14651  TIP3      H1             17.2186410613       28.4153135121      -29.8180263965  TIP3      14251           0.0000000000
     92585     14651  TIP3      H2             18.3516136792       27.9304377144      -30.7017719896  TIP3      14251           0.0000000000
     92586     14652  TIP3      OH2            13.9232774304       28.5289232554      -37.2426788211  TIP3      14252           0.0000000000
     92587     14652  TIP3      H1             13.1775593025       28.7591747186      -36.6403648776  TIP3      14252           0.0000000000
     92588     14652  TIP3      H2             14.3791200050       27.8220199042      -36.7514696191  TIP3      14252           0.0000000000
     92589     14653  TIP3      OH2            13.8469184984       26.6815342554      -28.1516305986  TIP3      14253           0.0000000000
     92590     14653  TIP3      H1             13.8775465191       27.4792802747      -27.5910863378  TIP3      14253           0.0000000000
     92591     14653  TIP3      H2             13.2131250828       26.9861035958      -28.8380005463  TIP3      14253           0.0000000000
     92592     14654  TIP3      OH2             5.5498662386       29.1904599050      -35.3460761868  TIP3      14254           0.0000000000
     92593     14654  TIP3      H1              5.2312920586       28.7665089096      -36.1757832450  TIP3      14254           0.0000000000
     92594     14654  TIP3      H2              6.1549846510       28.4839394257      -34.9960877449  TIP3      14254           0.0000000000
     92595     14655  TIP3      OH2             6.8884919529       32.5870129598      -32.6642543382  TIP3      14255           0.0000000000
     92596     14655  TIP3      H1              6.8513099280       32.0099921520      -33.4311665570  TIP3      14255           0.0000000000
     92597     14655  TIP3      H2              7.6541217733       32.2106525086      -32.1870011723  TIP3      14255           0.0000000000
     92598     14656  TIP3      OH2             5.9012711472       27.9194646455      -31.6974847540  TIP3      14256           0.0000000000
     92599     14656  TIP3      H1              6.4741815676       28.0429879829      -32.4777996933  TIP3      14256           0.0000000000
     92600     14656  TIP3      H2              6.2540091736       28.5779821134      -31.0664148771  TIP3      14256           0.0000000000
     92601     14657  TIP3      OH2            12.2582028335       33.4690199727      -30.9865916038  TIP3      14257           0.0000000000
     92602     14657  TIP3      H1             11.9955457654       34.1026940185      -30.3181357730  TIP3      14257           0.0000000000
     92603     14657  TIP3      H2             12.0318185175       32.6093365171      -30.5462317568  TIP3      14257           0.0000000000
     92604     14658  TIP3      OH2             6.8245059324       32.3309798146      -26.9753276043  TIP3      14258           0.0000000000
     92605     14658  TIP3      H1              6.4614514848       33.1113298026      -26.5180111053  TIP3      14258           0.0000000000
     92606     14658  TIP3      H2              6.1483071732       32.1632396857      -27.6783611917  TIP3      14258           0.0000000000
     92607     14659  TIP3      OH2            12.7863986386       27.6876684032      -39.5612270205  TIP3      14259           0.0000000000
     92608     14659  TIP3      H1             13.3657532955       27.8632009136      -38.7803324396  TIP3      14259           0.0000000000
     92609     14659  TIP3      H2             13.2073343165       28.1944874532      -40.2770827245  TIP3      14259           0.0000000000
     92610     14660  TIP3      OH2             3.7526657292       28.5116505226      -27.7902505002  TIP3      14260           0.0000000000
     92611     14660  TIP3      H1              3.7962622389       29.1797617301      -27.0726928346  TIP3      14260           0.0000000000
     92612     14660  TIP3      H2              2.8309596939       28.6215436708      -28.0699570647  TIP3      14260           0.0000000000
     92613     14661  TIP3      OH2            10.5138291310       34.4242901351      -36.1049910461  TIP3      14261           0.0000000000
     92614     14661  TIP3      H1             10.9744674962       34.7337804752      -35.3181444107  TIP3      14261           0.0000000000
     92615     14661  TIP3      H2              9.9540175891       35.1735944897      -36.3461545207  TIP3      14261           0.0000000000
     92616     14662  TIP3      OH2             5.0607477702       34.3835847281      -26.2386646379  TIP3      14262           0.0000000000
     92617     14662  TIP3      H1              5.0318344892       34.2679519381      -27.1972717772  TIP3      14262           0.0000000000
     92618     14662  TIP3      H2              4.1250801089       34.2728276600      -25.9734450874  TIP3      14262           0.0000000000
     92619     14663  TIP3      OH2            16.5065935202       19.4358389481      -39.7153904452  TIP3      14263           0.0000000000
     92620     14663  TIP3      H1             15.5689483968       19.5741791854      -39.4337650043  TIP3      14263           0.0000000000
     92621     14663  TIP3      H2             16.7381837163       20.2868934809      -40.1216594333  TIP3      14263           0.0000000000
     92622     14664  TIP3      OH2             4.5343280770       28.2301380529      -37.7263906370  TIP3      14264           0.0000000000
     92623     14664  TIP3      H1              4.2464829727       28.9819418270      -38.2706419088  TIP3      14264           0.0000000000
     92624     14664  TIP3      H2              3.8788563122       27.5508310824      -37.9326091582  TIP3      14264           0.0000000000
     92625     14665  TIP3      OH2            17.6454213385       33.7853569538      -41.3324680849  TIP3      14265           0.0000000000
     92626     14665  TIP3      H1             17.7585079979       34.7459288353      -41.1882665306  TIP3      14265           0.0000000000
     92627     14665  TIP3      H2             18.5776965039       33.5095068764      -41.4018325115  TIP3      14265           0.0000000000
     92628     14666  TIP3      OH2             0.6392598957       30.6169491328      -28.8981788687  TIP3      14266           0.0000000000
     92629     14666  TIP3      H1              0.1463060763       30.5485260733      -29.7343185172  TIP3      14266           0.0000000000
     92630     14666  TIP3      H2              0.6574856964       29.6782856516      -28.6294739321  TIP3      14266           0.0000000000
     92631     14667  TIP3      OH2             0.3801777988       33.3618903793      -32.0509399761  TIP3      14267           0.0000000000
     92632     14667  TIP3      H1              1.3350708014       33.2372961933      -32.0616775930  TIP3      14267           0.0000000000
     92633     14667  TIP3      H2              0.2846428385       34.1661778507      -31.5253596456  TIP3      14267           0.0000000000
     92634     14668  TIP3      OH2            18.6170782416       34.0493954194      -26.3611455068  TIP3      14268           0.0000000000
     92635     14668  TIP3      H1             18.5132117240       33.0853529795      -26.4028004449  TIP3      14268           0.0000000000
     92636     14668  TIP3      H2             17.7422307927       34.3058886295      -25.9759395009  TIP3      14268           0.0000000000
     92637     14669  TIP3      OH2             9.5718655621       33.6043493171      -27.5096848097  TIP3      14269           0.0000000000
     92638     14669  TIP3      H1              9.6451938374       34.4481665733      -27.0043215030  TIP3      14269           0.0000000000
     92639     14669  TIP3      H2              8.6970870248       33.2684435193      -27.2412159888  TIP3      14269           0.0000000000
     92640     14670  TIP3      OH2             9.9856240140       37.3588931582      -37.6886343331  TIP3      14270           0.0000000000
     92641     14670  TIP3      H1              9.9120590411       37.2678059030      -38.6553690890  TIP3      14270           0.0000000000
     92642     14670  TIP3      H2             10.0209522521       38.3272415007      -37.5610522926  TIP3      14270           0.0000000000
     92643     14671  TIP3      OH2             3.6535551061       36.1851926475      -35.9050933356  TIP3      14271           0.0000000000
     92644     14671  TIP3      H1              3.7850348353       35.8233183676      -35.0042766284  TIP3      14271           0.0000000000
     92645     14671  TIP3      H2              2.7811417141       35.8324121191      -36.1338409531  TIP3      14271           0.0000000000
     92646     14672  TIP3      OH2            13.0588194784       36.5542264824      -40.7175454553  TIP3      14272           0.0000000000
     92647     14672  TIP3      H1             13.4809535930       35.7839707034      -41.1552437889  TIP3      14272           0.0000000000
     92648     14672  TIP3      H2             13.0947401420       36.2784818165      -39.7781145134  TIP3      14272           0.0000000000
     92649     14673  TIP3      OH2            12.7586320796       36.4816726442      -37.9433758742  TIP3      14273           0.0000000000
     92650     14673  TIP3      H1             11.8032045591       36.5610460611      -37.7547735130  TIP3      14273           0.0000000000
     92651     14673  TIP3      H2             13.0179707720       35.7513300641      -37.3619424984  TIP3      14273           0.0000000000
     92652     14674  TIP3      OH2            15.7608547617       25.5353879826      -25.9075941301  TIP3      14274           0.0000000000
     92653     14674  TIP3      H1             15.3115100650       26.0059275620      -26.6188600728  TIP3      14274           0.0000000000
     92654     14674  TIP3      H2             15.7673851652       24.6152498835      -26.2017241669  TIP3      14274           0.0000000000
     92655     14675  TIP3      OH2             2.8900172182       31.9318731442      -27.9002310221  TIP3      14275           0.0000000000
     92656     14675  TIP3      H1              3.1097116601       31.5603339634      -27.0206504331  TIP3      14275           0.0000000000
     92657     14675  TIP3      H2              2.0214642534       31.5349132943      -28.1044127877  TIP3      14275           0.0000000000
     92658     14676  TIP3      OH2             5.5441638012       20.3855370024      -31.9032792401  TIP3      14276           0.0000000000
     92659     14676  TIP3      H1              4.6508574064       20.2994278488      -32.3083640539  TIP3      14276           0.0000000000
     92660     14676  TIP3      H2              5.4653190448       21.2473161300      -31.4676380056  TIP3      14276           0.0000000000
     92661     14677  TIP3      OH2            10.1971883831       20.1020268299      -28.5483819665  TIP3      14277           0.0000000000
     92662     14677  TIP3      H1             10.5981664451       19.6761801987      -27.7687518120  TIP3      14277           0.0000000000
     92663     14677  TIP3      H2              9.2303515982       19.9385804916      -28.4152299133  TIP3      14277           0.0000000000
     92664     14678  TIP3      OH2            13.4971894211       23.8819613975      -27.6909356573  TIP3      14278           0.0000000000
     92665     14678  TIP3      H1             12.9661575617       23.7231766580      -26.8723054180  TIP3      14278           0.0000000000
     92666     14678  TIP3      H2             13.3393010279       24.8122227875      -27.9073399288  TIP3      14278           0.0000000000
     92667     14679  TIP3      OH2            14.3202686088       28.7766085773      -41.8276813936  TIP3      14279           0.0000000000
     92668     14679  TIP3      H1             14.3276988055       28.5492359220      -42.7844291613  TIP3      14279           0.0000000000
     92669     14679  TIP3      H2             15.1775708565       29.1750337468      -41.6958772500  TIP3      14279           0.0000000000
     92670     14680  TIP3      OH2             9.8517480691       22.6342334440      -41.2526745122  TIP3      14280           0.0000000000
     92671     14680  TIP3      H1              9.5657032989       22.6066245143      -40.3140326183  TIP3      14280           0.0000000000
     92672     14680  TIP3      H2              9.5767273473       21.7451628143      -41.5184993514  TIP3      14280           0.0000000000
     92673     14681  TIP3      OH2             5.6401157778       25.3549165081      -30.7555114605  TIP3      14281           0.0000000000
     92674     14681  TIP3      H1              4.9428084634       25.3337192915      -30.0743033327  TIP3      14281           0.0000000000
     92675     14681  TIP3      H2              5.6314343324       26.2922110094      -31.0509972195  TIP3      14281           0.0000000000
     92676     14682  TIP3      OH2             5.6166146207       25.5550386395      -35.8553955598  TIP3      14282           0.0000000000
     92677     14682  TIP3      H1              4.6951082636       25.2387755461      -35.9585961155  TIP3      14282           0.0000000000
     92678     14682  TIP3      H2              6.0329116555       25.1958958627      -36.6620188753  TIP3      14282           0.0000000000
     92679     14683  TIP3      OH2            11.1395553277       25.9850776040      -37.0649604703  TIP3      14283           0.0000000000
     92680     14683  TIP3      H1             10.7315345028       26.8203779848      -37.3798108325  TIP3      14283           0.0000000000
     92681     14683  TIP3      H2             11.8529782259       25.8490116986      -37.7146261327  TIP3      14283           0.0000000000
     92682     14684  TIP3      OH2            10.2327318327       26.1931642976      -25.6060980346  TIP3      14284           0.0000000000
     92683     14684  TIP3      H1              9.6774638418       25.4470554665      -25.2701273656  TIP3      14284           0.0000000000
     92684     14684  TIP3      H2             11.0607299739       26.0614143471      -25.1031744035  TIP3      14284           0.0000000000
     92685     14685  TIP3      OH2            12.1598350632       25.4632794444      -34.2263546080  TIP3      14285           0.0000000000
     92686     14685  TIP3      H1             11.9285388048       26.0424826270      -34.9722116064  TIP3      14285           0.0000000000
     92687     14685  TIP3      H2             12.3058380457       24.6154881717      -34.6956886619  TIP3      14285           0.0000000000
     92688     14686  TIP3      OH2             3.3263620703       25.6624474358      -28.9703687246  TIP3      14286           0.0000000000
     92689     14686  TIP3      H1              3.3329083188       26.0633512968      -28.0824549315  TIP3      14286           0.0000000000
     92690     14686  TIP3      H2              2.8539283561       24.8314623519      -28.8222470631  TIP3      14286           0.0000000000
     92691     14687  TIP3      OH2             6.8264738811       23.2250644362      -41.8994472888  TIP3      14287           0.0000000000
     92692     14687  TIP3      H1              6.2979222205       22.6040492495      -41.3582187795  TIP3      14287           0.0000000000
     92693     14687  TIP3      H2              6.1479962809       23.5032419053      -42.5337088734  TIP3      14287           0.0000000000
     92694     14688  TIP3      OH2            -0.0515374637       22.7789958584      -35.0619272023  TIP3      14288           0.0000000000
     92695     14688  TIP3      H1              0.6112448837       22.7410192028      -34.3453428093  TIP3      14288           0.0000000000
     92696     14688  TIP3      H2              0.4096641191       22.3619881200      -35.8136365767  TIP3      14288           0.0000000000
     92697     14689  TIP3      OH2             1.2425754442       23.4944260285      -39.6525338979  TIP3      14289           0.0000000000
     92698     14689  TIP3      H1              1.7171052058       24.1102087759      -40.2542214847  TIP3      14289           0.0000000000
     92699     14689  TIP3      H2              0.5271971133       24.0826257166      -39.3236243852  TIP3      14289           0.0000000000
     92700     14690  TIP3      OH2            11.3964981049       27.0858668187      -29.6135721736  TIP3      14290           0.0000000000
     92701     14690  TIP3      H1             11.7426380674       26.4187486135      -30.2356296798  TIP3      14290           0.0000000000
     92702     14690  TIP3      H2             10.9472323463       26.5402114384      -28.9436544771  TIP3      14290           0.0000000000
     92703     14691  TIP3      OH2             8.1935628374       23.0501335194      -34.8133304308  TIP3      14291           0.0000000000
     92704     14691  TIP3      H1              7.2546775570       23.0400189366      -34.5215081057  TIP3      14291           0.0000000000
     92705     14691  TIP3      H2              8.6781641323       22.9158193298      -33.9877366400  TIP3      14291           0.0000000000
     92706     14692  TIP3      OH2             3.0038783155       24.6299269510      -35.9619784220  TIP3      14292           0.0000000000
     92707     14692  TIP3      H1              2.1069348239       24.7421129608      -36.3306626294  TIP3      14292           0.0000000000
     92708     14692  TIP3      H2              3.2951830196       23.7817560623      -36.3369953031  TIP3      14292           0.0000000000
     92709     14693  TIP3      OH2             6.6442568946       24.6554066217      -38.3154698003  TIP3      14293           0.0000000000
     92710     14693  TIP3      H1              7.6021514685       24.7513662943      -38.1404561259  TIP3      14293           0.0000000000
     92711     14693  TIP3      H2              6.4277442324       25.3163485938      -38.9910185651  TIP3      14293           0.0000000000
     92712     14694  TIP3      OH2            12.5965959319       22.2590313917      -31.5565952711  TIP3      14294           0.0000000000
     92713     14694  TIP3      H1             11.9008940177       22.3567939251      -30.8730990738  TIP3      14294           0.0000000000
     92714     14694  TIP3      H2             12.0906553052       22.0637609820      -32.3577887532  TIP3      14294           0.0000000000
     92715     14695  TIP3      OH2             5.3340623417       25.8239768985      -40.7338609816  TIP3      14295           0.0000000000
     92716     14695  TIP3      H1              4.7874635256       25.4553599754      -41.4500978253  TIP3      14295           0.0000000000
     92717     14695  TIP3      H2              6.1665343391       26.0236291123      -41.1907532116  TIP3      14295           0.0000000000
     92718     14696  TIP3      OH2            15.8419911716       37.9137824898      -25.2525420703  TIP3      14296           0.0000000000
     92719     14696  TIP3      H1             16.0784470691       38.3289980593      -26.0926384735  TIP3      14296           0.0000000000
     92720     14696  TIP3      H2             16.5280473366       38.2567477838      -24.6515565412  TIP3      14296           0.0000000000
     92721     14697  TIP3      OH2             3.4819060890       30.3820205453      -25.6732816035  TIP3      14297           0.0000000000
     92722     14697  TIP3      H1              4.1956782007       30.6496644533      -25.0658893586  TIP3      14297           0.0000000000
     92723     14697  TIP3      H2              2.6930438595       30.5569512331      -25.1103468948  TIP3      14297           0.0000000000
     92724     14698  TIP3      OH2             9.4822463541       25.7993319109      -32.9203507884  TIP3      14298           0.0000000000
     92725     14698  TIP3      H1             10.0664199986       25.2533685574      -33.4625904106  TIP3      14298           0.0000000000
     92726     14698  TIP3      H2              9.3435633607       25.2563830789      -32.1344302283  TIP3      14298           0.0000000000
     92727     14699  TIP3      OH2             4.4716866300       21.9578898299      -36.5034649625  TIP3      14299           0.0000000000
     92728     14699  TIP3      H1              4.1978782356       21.0209291663      -36.5182912115  TIP3      14299           0.0000000000
     92729     14699  TIP3      H2              5.2815679791       21.9068781765      -37.0358665580  TIP3      14299           0.0000000000
     92730     14700  TIP3      OH2             8.1225716326       24.1513296689      -30.5141007625  TIP3      14300           0.0000000000
     92731     14700  TIP3      H1              7.2853566138       24.6436792360      -30.4014457151  TIP3      14300           0.0000000000
     92732     14700  TIP3      H2              8.6586401442       24.4705338668      -29.7593010991  TIP3      14300           0.0000000000
     92733     14701  TIP3      OH2             8.6864681453       30.3895913935      -38.8128895578  TIP3      14301           0.0000000000
     92734     14701  TIP3      H1              7.9167844370       29.8750304763      -39.1395960490  TIP3      14301           0.0000000000
     92735     14701  TIP3      H2              8.5166234242       30.4418651802      -37.8544814877  TIP3      14301           0.0000000000
     92736     14702  TIP3      OH2            15.8483204805       29.5310948049      -30.0122292190  TIP3      14302           0.0000000000
     92737     14702  TIP3      H1             16.4530248548       30.0054225224      -30.6066438944  TIP3      14302           0.0000000000
     92738     14702  TIP3      H2             14.9997321846       29.6303209614      -30.4938407155  TIP3      14302           0.0000000000
     92739     14703  TIP3      OH2            12.5736394031       23.1782114472      -40.6307541923  TIP3      14303           0.0000000000
     92740     14703  TIP3      H1             11.6223096659       23.3166340840      -40.7794869524  TIP3      14303           0.0000000000
     92741     14703  TIP3      H2             12.8628613320       24.0535609587      -40.3101997760  TIP3      14303           0.0000000000
     92742     14704  TIP3      OH2            10.1902536001       30.5925714567      -27.5804037694  TIP3      14304           0.0000000000
     92743     14704  TIP3      H1              9.8468910986       30.1983809191      -26.7711765268  TIP3      14304           0.0000000000
     92744     14704  TIP3      H2              9.9708762829       31.5244897872      -27.4931833294  TIP3      14304           0.0000000000
     92745     14705  TIP3      OH2            13.2744577098       25.0796773997      -38.9571526143  TIP3      14305           0.0000000000
     92746     14705  TIP3      H1             14.1789682461       24.9382791512      -38.6199984788  TIP3      14305           0.0000000000
     92747     14705  TIP3      H2             13.3484065315       25.8812061451      -39.4951831841  TIP3      14305           0.0000000000
     92748     14706  TIP3      OH2             3.7917683341       29.7189194467      -33.0436867710  TIP3      14306           0.0000000000
     92749     14706  TIP3      H1              4.5340027152       29.6667686116      -33.6683691465  TIP3      14306           0.0000000000
     92750     14706  TIP3      H2              3.8708478111       28.8721093447      -32.5600669138  TIP3      14306           0.0000000000
     92751     14707  TIP3      OH2            10.8100359545       31.8409676402      -39.7825365733  TIP3      14307           0.0000000000
     92752     14707  TIP3      H1             10.4738020700       32.6773584212      -39.4097687561  TIP3      14307           0.0000000000
     92753     14707  TIP3      H2             10.0726818550       31.2216660315      -39.5865824442  TIP3      14307           0.0000000000
     92754     14708  TIP3      OH2             0.7981301783       28.1600788432      -27.7457736518  TIP3      14308           0.0000000000
     92755     14708  TIP3      H1              1.0068767501       27.7209724686      -26.8969790608  TIP3      14308           0.0000000000
     92756     14708  TIP3      H2              0.1872071637       27.5325909189      -28.1685504493  TIP3      14308           0.0000000000
     92757     14709  TIP3      OH2             7.8123344651       27.6993202457      -25.5435226717  TIP3      14309           0.0000000000
     92758     14709  TIP3      H1              7.5136848187       27.4639848057      -26.4322758230  TIP3      14309           0.0000000000
     92759     14709  TIP3      H2              8.7512749030       27.4221061670      -25.5428680445  TIP3      14309           0.0000000000
     92760     14710  TIP3      OH2            12.4726030583       33.0370298344      -27.6306655325  TIP3      14310           0.0000000000
     92761     14710  TIP3      H1             11.5476206004       33.2257070593      -27.8727657180  TIP3      14310           0.0000000000
     92762     14710  TIP3      H2             12.4638762309       33.3154955715      -26.6922310583  TIP3      14310           0.0000000000
     92763     14711  TIP3      OH2            18.1749403465       25.2476797868      -39.2281761845  TIP3      14311           0.0000000000
     92764     14711  TIP3      H1             17.6104184959       24.9072383756      -39.9480636860  TIP3      14311           0.0000000000
     92765     14711  TIP3      H2             18.2569641267       26.1828392217      -39.5303779877  TIP3      14311           0.0000000000
     92766     14712  TIP3      OH2            18.1517396526       31.0927516552      -26.4056939548  TIP3      14312           0.0000000000
     92767     14712  TIP3      H1             17.2746571254       31.3159190552      -26.8041837886  TIP3      14312           0.0000000000
     92768     14712  TIP3      H2             18.7204516280       31.0622885801      -27.2009134064  TIP3      14312           0.0000000000
     92769     14713  TIP3      OH2            16.4675312506       34.0688974766      -38.8105873881  TIP3      14313           0.0000000000
     92770     14713  TIP3      H1             16.0909366016       33.2393437110      -38.4918217529  TIP3      14313           0.0000000000
     92771     14713  TIP3      H2             16.7527236077       33.8773782808      -39.7213512500  TIP3      14313           0.0000000000
     92772     14714  TIP3      OH2            13.6456214605       28.8841662833      -31.7520358444  TIP3      14314           0.0000000000
     92773     14714  TIP3      H1             12.7026352226       28.6489941011      -31.8192575031  TIP3      14314           0.0000000000
     92774     14714  TIP3      H2             14.0813899197       28.0994796975      -32.1303590005  TIP3      14314           0.0000000000
     92775     14715  TIP3      OH2             6.1632410244       33.1862742839      -35.6620583481  TIP3      14315           0.0000000000
     92776     14715  TIP3      H1              6.6984903038       33.9896844806      -35.8306890757  TIP3      14315           0.0000000000
     92777     14715  TIP3      H2              5.3000955694       33.4750050891      -35.9329208069  TIP3      14315           0.0000000000
     92778     14716  TIP3      OH2             1.9198167773       28.0623050057      -41.0698255145  TIP3      14316           0.0000000000
     92779     14716  TIP3      H1              2.5440814454       28.6896355895      -40.6798101927  TIP3      14316           0.0000000000
     92780     14716  TIP3      H2              1.0473455660       28.3678848077      -40.7804457285  TIP3      14316           0.0000000000
     92781     14717  TIP3      OH2             7.5952358762       30.8650950693      -36.1000606883  TIP3      14317           0.0000000000
     92782     14717  TIP3      H1              7.3394177131       31.7991481617      -36.0113016755  TIP3      14317           0.0000000000
     92783     14717  TIP3      H2              6.8653004821       30.3923393924      -35.6588047229  TIP3      14317           0.0000000000
     92784     14718  TIP3      OH2             8.0705523140       35.0316442087      -29.7338640565  TIP3      14318           0.0000000000
     92785     14718  TIP3      H1              8.4870300118       35.8703751795      -29.9876563605  TIP3      14318           0.0000000000
     92786     14718  TIP3      H2              8.6554872108       34.7225466694      -29.0166199828  TIP3      14318           0.0000000000
     92787     14719  TIP3      OH2             6.2762536446       35.8658834947      -36.5485687323  TIP3      14319           0.0000000000
     92788     14719  TIP3      H1              5.3140926800       36.0164624462      -36.4542948390  TIP3      14319           0.0000000000
     92789     14719  TIP3      H2              6.6358186590       36.7094123242      -36.1956133400  TIP3      14319           0.0000000000
     92790     14720  TIP3      OH2            11.6250272949       31.0958099912      -30.0702450031  TIP3      14320           0.0000000000
     92791     14720  TIP3      H1             11.2338155776       30.8793727360      -29.2009838930  TIP3      14320           0.0000000000
     92792     14720  TIP3      H2             12.2330696750       30.3611620836      -30.2409450289  TIP3      14320           0.0000000000
     92793     14721  TIP3      OH2            13.8640119834       32.0673015767      -40.9799315443  TIP3      14321           0.0000000000
     92794     14721  TIP3      H1             14.1922430007       31.6522886531      -40.1570144618  TIP3      14321           0.0000000000
     92795     14721  TIP3      H2             12.9063989797       31.9422889756      -40.8854722918  TIP3      14321           0.0000000000
     92796     14722  TIP3      OH2            14.3504996535       35.6573984006      -27.5739635776  TIP3      14322           0.0000000000
     92797     14722  TIP3      H1             13.7040991713       35.1267140941      -28.0838498473  TIP3      14322           0.0000000000
     92798     14722  TIP3      H2             14.5794990864       36.3357236094      -28.2332333892  TIP3      14322           0.0000000000
     92799     14723  TIP3      OH2            18.3721433516       36.5074225631      -40.7533251384  TIP3      14323           0.0000000000
     92800     14723  TIP3      H1             19.0973996236       37.1281834653      -40.9426341149  TIP3      14323           0.0000000000
     92801     14723  TIP3      H2             17.6593035459       37.1065280862      -40.4441638806  TIP3      14323           0.0000000000
     92802     14724  TIP3      OH2             2.4500470565       22.9008213441      -28.1837749492  TIP3      14324           0.0000000000
     92803     14724  TIP3      H1              1.5389992171       23.2410879446      -28.2343047372  TIP3      14324           0.0000000000
     92804     14724  TIP3      H2              2.3340947651       22.0411391099      -27.7522356112  TIP3      14324           0.0000000000
     92805     14725  TIP3      OH2            14.7076769661       30.7382828341      -38.7611977908  TIP3      14325           0.0000000000
     92806     14725  TIP3      H1             14.4504080427       29.9717926851      -38.2045430289  TIP3      14325           0.0000000000
     92807     14725  TIP3      H2             15.6503994601       30.8256625708      -38.5397820112  TIP3      14325           0.0000000000
     92808     14726  TIP3      OH2             2.0839782431       34.7011259572      -29.7609972571  TIP3      14326           0.0000000000
     92809     14726  TIP3      H1              2.3275126611       33.7612278274      -29.7655054427  TIP3      14326           0.0000000000
     92810     14726  TIP3      H2              2.3328619127       34.9705276645      -28.8675340049  TIP3      14326           0.0000000000
     92811     14727  TIP3      OH2             6.8331624479       32.7402356270      -40.0751119908  TIP3      14327           0.0000000000
     92812     14727  TIP3      H1              7.0673195345       32.2019475762      -39.3034442520  TIP3      14327           0.0000000000
     92813     14727  TIP3      H2              6.9032231406       33.6568353465      -39.7461679822  TIP3      14327           0.0000000000
     92814     14728  TIP3      OH2             3.3410489296       29.9855483435      -39.5548776450  TIP3      14328           0.0000000000
     92815     14728  TIP3      H1              2.6254328553       30.3486282577      -39.0069175662  TIP3      14328           0.0000000000
     92816     14728  TIP3      H2              3.8699838694       30.7454578231      -39.8451475023  TIP3      14328           0.0000000000
     92817     14729  TIP3      OH2            11.1723838025       22.6568895642      -29.2787554554  TIP3      14329           0.0000000000
     92818     14729  TIP3      H1             11.8783719652       22.7159559229      -28.6213705201  TIP3      14329           0.0000000000
     92819     14729  TIP3      H2             10.7914972676       21.7745847470      -29.0960147796  TIP3      14329           0.0000000000
     92820     14730  TIP3      OH2            11.9350257404       22.2743705893      -38.1650883565  TIP3      14330           0.0000000000
     92821     14730  TIP3      H1             12.1727881561       22.7454363364      -38.9864873010  TIP3      14330           0.0000000000
     92822     14730  TIP3      H2             12.5108968289       22.6821475612      -37.5149678818  TIP3      14330           0.0000000000
     92823     14731  TIP3      OH2             9.6211844045       34.4094021245      -39.3280253585  TIP3      14331           0.0000000000
     92824     14731  TIP3      H1              8.8027390043       34.9283001260      -39.2732391962  TIP3      14331           0.0000000000
     92825     14731  TIP3      H2             10.1550159551       34.9118800858      -39.9651009342  TIP3      14331           0.0000000000
     92826     14732  TIP3      OH2             9.1434464033       24.0255694793      -37.3500209524  TIP3      14332           0.0000000000
     92827     14732  TIP3      H1              9.9650816420       24.5416566467      -37.3079341040  TIP3      14332           0.0000000000
     92828     14732  TIP3      H2              8.8992065894       23.8554524151      -36.4251265983  TIP3      14332           0.0000000000
     92829     14733  TIP3      OH2             9.6973441903       25.0058993401      -28.1698803467  TIP3      14333           0.0000000000
     92830     14733  TIP3      H1              9.7970164651       25.5817153530      -27.3883327168  TIP3      14333           0.0000000000
     92831     14733  TIP3      H2             10.3581832884       24.3142182123      -28.0495830543  TIP3      14333           0.0000000000
     92832     14734  TIP3      OH2            10.1886311510       21.1425269818      -36.3162213115  TIP3      14334           0.0000000000
     92833     14734  TIP3      H1              9.6767112453       21.7535814356      -35.7792633311  TIP3      14334           0.0000000000
     92834     14734  TIP3      H2             10.7310658066       21.6659528155      -36.9266006656  TIP3      14334           0.0000000000
     92835     14735  TIP3      OH2             6.9444316743       35.4412404273      -39.3419506675  TIP3      14335           0.0000000000
     92836     14735  TIP3      H1              7.1387098702       36.2725647723      -39.8251562940  TIP3      14335           0.0000000000
     92837     14735  TIP3      H2              6.7635141063       35.7872231024      -38.4391283290  TIP3      14335           0.0000000000
     92838     14736  TIP3      OH2             5.6863914568       22.1452060893      -39.7416480265  TIP3      14336           0.0000000000
     92839     14736  TIP3      H1              5.6211870030       23.0484766680      -39.3651877420  TIP3      14336           0.0000000000
     92840     14736  TIP3      H2              6.5918658577       21.8992005409      -39.4639049136  TIP3      14336           0.0000000000
     92841     14737  TIP3      OH2            15.9056679704       22.8915763692      -27.3104441222  TIP3      14337           0.0000000000
     92842     14737  TIP3      H1             14.9676610393       23.1854151005      -27.4289012500  TIP3      14337           0.0000000000
     92843     14737  TIP3      H2             16.2123449751       22.8989712123      -28.2279560426  TIP3      14337           0.0000000000
     92844     14738  TIP3      OH2            14.4970548033       26.6742397981      -33.2603804648  TIP3      14338           0.0000000000
     92845     14738  TIP3      H1             13.6844622991       26.2374624213      -33.5674672052  TIP3      14338           0.0000000000
     92846     14738  TIP3      H2             14.9591894202       25.9712639928      -32.7511850866  TIP3      14338           0.0000000000
     92847     14739  TIP3      OH2             3.9359207999       32.5940209625      -40.6617659354  TIP3      14339           0.0000000000
     92848     14739  TIP3      H1              4.5645574999       33.2717454766      -40.3932682918  TIP3      14339           0.0000000000
     92849     14739  TIP3      H2              4.4229284181       32.1370820090      -41.3812643956  TIP3      14339           0.0000000000
     92850     14740  TIP3      OH2             2.2848285513       25.2592240878      -41.5240145448  TIP3      14340           0.0000000000
     92851     14740  TIP3      H1              2.2384858383       26.2183650567      -41.3767452523  TIP3      14340           0.0000000000
     92852     14740  TIP3      H2              1.3977893641       25.0376062483      -41.8369896883  TIP3      14340           0.0000000000
     92853     14741  TIP3      OH2            15.5676359186       35.9314842750      -31.5955797967  TIP3      14341           0.0000000000
     92854     14741  TIP3      H1             15.4441928799       36.5979662687      -32.2991643267  TIP3      14341           0.0000000000
     92855     14741  TIP3      H2             16.5307453531       35.9786150996      -31.4322973517  TIP3      14341           0.0000000000
     92856     14742  TIP3      OH2             3.0729978367       20.0510110209      -32.8466480146  TIP3      14342           0.0000000000
     92857     14742  TIP3      H1              2.8511771486       20.0857144047      -33.8034281270  TIP3      14342           0.0000000000
     92858     14742  TIP3      H2              2.6334442899       19.2232720622      -32.5705579759  TIP3      14342           0.0000000000
     92859     14743  TIP3      OH2             2.0340086626       33.9373677701      -36.7201564879  TIP3      14343           0.0000000000
     92860     14743  TIP3      H1              1.1824846560       34.4373699025      -36.6917483046  TIP3      14343           0.0000000000
     92861     14743  TIP3      H2              2.5154773071       34.5092012817      -37.3389136616  TIP3      14343           0.0000000000
     92862     14744  TIP3      OH2             1.2872821609       36.5905849819      -25.4142881928  TIP3      14344           0.0000000000
     92863     14744  TIP3      H1              1.8404734111       36.3880716078      -24.6298964571  TIP3      14344           0.0000000000
     92864     14744  TIP3      H2              0.8044643497       35.7675399731      -25.5637475242  TIP3      14344           0.0000000000
     92865     14745  TIP3      OH2             5.8905777745       35.5238328043      -23.7681521222  TIP3      14345           0.0000000000
     92866     14745  TIP3      H1              6.6599060309       35.0394373954      -23.4434960633  TIP3      14345           0.0000000000
     92867     14745  TIP3      H2              5.8761930644       35.2771398967      -24.7133573095  TIP3      14345           0.0000000000
     92868     14746  TIP3      OH2            10.3039585888       35.1733319548      -41.9054190475  TIP3      14346           0.0000000000
     92869     14746  TIP3      H1              9.5196334495       34.5766014862      -41.9611007956  TIP3      14346           0.0000000000
     92870     14746  TIP3      H2             10.7891403970       34.6090928465      -42.5158514310  TIP3      14346           0.0000000000
     92871     14747  TIP3      OH2            12.4442562741       33.9227594739      -25.0404953085  TIP3      14347           0.0000000000
     92872     14747  TIP3      H1             12.1179305553       33.0331585261      -24.7749357565  TIP3      14347           0.0000000000
     92873     14747  TIP3      H2             13.1952756414       34.0118011266      -24.4405830948  TIP3      14347           0.0000000000
     92874     14748  TIP3      OH2            14.5896416545       34.8341608792      -42.1691068027  TIP3      14348           0.0000000000
     92875     14748  TIP3      H1             14.8717957672       34.0271926717      -41.6998923394  TIP3      14348           0.0000000000
     92876     14748  TIP3      H2             15.3517527967       35.0560090979      -42.7188117377  TIP3      14348           0.0000000000
     92877     14749  TIP3      OH2             1.1751987042       30.3972918064      -24.4002316942  TIP3      14349           0.0000000000
     92878     14749  TIP3      H1              1.3327927893       29.4895967471      -24.7241400521  TIP3      14349           0.0000000000
     92879     14749  TIP3      H2              0.4183544904       30.6827537419      -24.9460810696  TIP3      14349           0.0000000000
     92880     14750  TIP3      OH2             5.5633964644       30.8068680144      -42.2532754196  TIP3      14350           0.0000000000
     92881     14750  TIP3      H1              5.6155332864       29.9587877996      -41.7837959161  TIP3      14350           0.0000000000
     92882     14750  TIP3      H2              6.1716345172       30.5907421272      -42.9875985083  TIP3      14350           0.0000000000
     92883     14751  TIP3      OH2             7.8689764756       30.3799240845      -24.9922246083  TIP3      14351           0.0000000000
     92884     14751  TIP3      H1              7.5205056421       30.6644445275      -25.8594940994  TIP3      14351           0.0000000000
     92885     14751  TIP3      H2              7.9734255621       29.4071302922      -25.0910383803  TIP3      14351           0.0000000000
     92886     14752  TIP3      OH2            13.5730910894       30.2615288518      -27.6062310253  TIP3      14352           0.0000000000
     92887     14752  TIP3      H1             14.3384422574       30.8669373096      -27.7149044679  TIP3      14352           0.0000000000
     92888     14752  TIP3      H2             12.8387374457       30.8901204568      -27.5650818437  TIP3      14352           0.0000000000
     92889     14753  TIP3      OH2             2.0422127309       27.6122242189      -25.0110312424  TIP3      14353           0.0000000000
     92890     14753  TIP3      H1              2.4517971736       26.7479591854      -25.1203887427  TIP3      14353           0.0000000000
     92891     14753  TIP3      H2              1.7935360366       27.6085905616      -24.0688629104  TIP3      14353           0.0000000000
     92892     14754  TIP3      OH2             6.6869534702       28.7620499213      -39.9742322678  TIP3      14354           0.0000000000
     92893     14754  TIP3      H1              6.2220334106       28.2257015944      -39.3143895813  TIP3      14354           0.0000000000
     92894     14754  TIP3      H2              6.9683023878       28.0611644219      -40.6137523056  TIP3      14354           0.0000000000
     92895     14755  TIP3      OH2             5.9722265330       26.5870465542      -27.6390129412  TIP3      14355           0.0000000000
     92896     14755  TIP3      H1              5.3576012168       27.2916452445      -27.3712371578  TIP3      14355           0.0000000000
     92897     14755  TIP3      H2              6.3329246077       26.9379541558      -28.4710415804  TIP3      14355           0.0000000000
     92898     14756  TIP3      OH2             7.7567424682       26.9739508904      -41.7346432599  TIP3      14356           0.0000000000
     92899     14756  TIP3      H1              7.6069349869       26.7995098490      -42.6721602043  TIP3      14356           0.0000000000
     92900     14756  TIP3      H2              8.7352378204       27.0677113455      -41.6682767934  TIP3      14356           0.0000000000
     92901     14757  TIP3      OH2            11.0037362537       29.1093482494      -24.3657112453  TIP3      14357           0.0000000000
     92902     14757  TIP3      H1             11.9702774448       29.1470261083      -24.3868395357  TIP3      14357           0.0000000000
     92903     14757  TIP3      H2             10.8570585638       28.3877315224      -23.7432162461  TIP3      14357           0.0000000000
     92904     14758  TIP3      OH2            17.0304641209       29.3829951814       42.7729274118  TIP3      14358           0.0000000000
     92905     14758  TIP3      H1             16.8727090806       28.9104328788       41.9315044483  TIP3      14358           0.0000000000
     92906     14758  TIP3      H2             17.1869380677       30.2926168737       42.4967702311  TIP3      14358           0.0000000000
     92907     14759  TIP3      OH2             6.3410113108       23.9591561724      -26.5682823840  TIP3      14359           0.0000000000
     92908     14759  TIP3      H1              6.4737718430       23.2314886399      -27.1971857936  TIP3      14359           0.0000000000
     92909     14759  TIP3      H2              6.3187282191       24.7563255989      -27.1318929603  TIP3      14359           0.0000000000
     92910     14760  TIP3      OH2             6.7493302249       22.3294050017      -29.0450506336  TIP3      14360           0.0000000000
     92911     14760  TIP3      H1              7.2740471658       22.7933154201      -29.7367251131  TIP3      14360           0.0000000000
     92912     14760  TIP3      H2              5.8685502834       22.2355187058      -29.4766212655  TIP3      14360           0.0000000000
     92913     14761  TIP3      OH2             8.3099205236       27.7836780503      -28.8080843118  TIP3      14361           0.0000000000
     92914     14761  TIP3      H1              9.0632312580       27.6290012800      -29.3894755395  TIP3      14361           0.0000000000
     92915     14761  TIP3      H2              7.9627214627       28.6372821980      -29.1126516525  TIP3      14361           0.0000000000
     92916     14762  TIP3      OH2            12.7102703467       25.5831176976      -23.8207041407  TIP3      14362           0.0000000000
     92917     14762  TIP3      H1             12.9344269900       24.6501962874      -23.9033113579  TIP3      14362           0.0000000000
     92918     14762  TIP3      H2             13.5809264837       26.0164184928      -23.8119792741  TIP3      14362           0.0000000000
     92919     14763  TIP3      OH2            14.0333421516       28.3614623536      -25.7066815206  TIP3      14363           0.0000000000
     92920     14763  TIP3      H1             13.7773134607       29.0971874085      -26.3056993185  TIP3      14363           0.0000000000
     92921     14763  TIP3      H2             14.9981649009       28.3184167925      -25.8733764069  TIP3      14363           0.0000000000
     92922     14764  TIP3      OH2             4.8067343307       25.1832252648      -24.6466367761  TIP3      14364           0.0000000000
     92923     14764  TIP3      H1              4.0354668460       24.6189274638      -24.8476684424  TIP3      14364           0.0000000000
     92924     14764  TIP3      H2              5.4743971890       24.8395842482      -25.2641664922  TIP3      14364           0.0000000000
     92925     14765  TIP3      OH2             7.5471117986       19.7675895502      -28.6224915825  TIP3      14365           0.0000000000
     92926     14765  TIP3      H1              7.4125566537       20.7382188327      -28.7412978069  TIP3      14365           0.0000000000
     92927     14765  TIP3      H2              6.7917621292       19.4147990520      -29.1272195400  TIP3      14365           0.0000000000
     92928     14766  TIP3      OH2             8.8157506871       24.0924196515      -25.0667093121  TIP3      14366           0.0000000000
     92929     14766  TIP3      H1              8.5394330092       23.8846654045      -24.1540105639  TIP3      14366           0.0000000000
     92930     14766  TIP3      H2              8.0086450238       23.8946817626      -25.5761321486  TIP3      14366           0.0000000000
     92931     14767  TIP3      OH2            11.5282561774       23.2293734868      -25.9910355345  TIP3      14367           0.0000000000
     92932     14767  TIP3      H1             10.5668910696       23.2755449622      -25.8440268373  TIP3      14367           0.0000000000
     92933     14767  TIP3      H2             11.8238494031       22.6044417318      -25.3082913039  TIP3      14367           0.0000000000
     92934     14768  TIP3      OH2            13.1317871081       21.8820946879      -24.0032835271  TIP3      14368           0.0000000000
     92935     14768  TIP3      H1             13.0572305621       20.9040894472      -24.0060482718  TIP3      14368           0.0000000000
     92936     14768  TIP3      H2             12.8439348340       22.1432898382      -23.1090604321  TIP3      14368           0.0000000000
     92937     14769  TIP3      OH2             2.9431258069       23.1027690335      -24.9482568797  TIP3      14369           0.0000000000
     92938     14769  TIP3      H1              3.1856863397       22.3731823148      -25.5468088949  TIP3      14369           0.0000000000
     92939     14769  TIP3      H2              2.8607221013       22.6575199660      -24.0943927412  TIP3      14369           0.0000000000
     92940     14770  TIP3      OH2             7.7577329050       19.1091353028      -25.9479181556  TIP3      14370           0.0000000000
     92941     14770  TIP3      H1              8.4744985172       18.4437095743      -25.9846127078  TIP3      14370           0.0000000000
     92942     14770  TIP3      H2              7.6610357532       19.3340606744      -26.8903686860  TIP3      14370           0.0000000000
     92943     14771  TIP3      OH2             8.1336519306       20.7778952346      -23.8772521533  TIP3      14371           0.0000000000
     92944     14771  TIP3      H1              7.9714529660       20.2776088020      -24.7140347149  TIP3      14371           0.0000000000
     92945     14771  TIP3      H2              7.5154492031       21.5230888901      -23.9624017807  TIP3      14371           0.0000000000
     92946     14772  TIP3      OH2             7.6268117573       37.6453819695      -40.7487623703  TIP3      14372           0.0000000000
     92947     14772  TIP3      H1              8.5898479086       37.8007383017      -40.5859442360  TIP3      14372           0.0000000000
     92948     14772  TIP3      H2              7.4129716818       38.3468280196      -41.3590687640  TIP3      14372           0.0000000000
     92949     14773  TIP3      OH2             1.2093766549       32.2861170650      -41.2202621799  TIP3      14373           0.0000000000
     92950     14773  TIP3      H1              2.1540148353       32.3586251565      -40.9850698849  TIP3      14373           0.0000000000
     92951     14773  TIP3      H2              1.2201552649       31.6266097711      -41.9273020353  TIP3      14373           0.0000000000
     92952     14774  TIP3      OH2            -0.0877689225       37.6680454249      -36.2023587044  TIP3      14374           0.0000000000
     92953     14774  TIP3      H1             -0.7792976220       37.1874240013      -36.7040685205  TIP3      14374           0.0000000000
     92954     14774  TIP3      H2              0.2231814684       36.9953542750      -35.5760443302  TIP3      14374           0.0000000000
     92955     14775  TIP3      OH2             0.7665788036       35.7579415748      -34.3793295528  TIP3      14375           0.0000000000
     92956     14775  TIP3      H1              0.3996621719       34.8877474349      -34.1720028223  TIP3      14375           0.0000000000
     92957     14775  TIP3      H2              0.9749637003       36.1035342321      -33.4901666326  TIP3      14375           0.0000000000
     92958     14776  TIP3      OH2            18.2648095912       36.6102164355      -31.3972802948  TIP3      14376           0.0000000000
     92959     14776  TIP3      H1             18.3101565863       36.7233029399      -30.4395909538  TIP3      14376           0.0000000000
     92960     14776  TIP3      H2             19.0086910523       37.1262667401      -31.7328834955  TIP3      14376           0.0000000000
     92961     14777  TIP3      OH2            17.8657610746       36.1794303196      -28.4867978534  TIP3      14377           0.0000000000
     92962     14777  TIP3      H1             17.3805171052       35.3906636892      -28.8327459260  TIP3      14377           0.0000000000
     92963     14777  TIP3      H2             18.3908642350       35.7338282631      -27.7899369078  TIP3      14377           0.0000000000
     92964     14778  TIP3      OH2            17.6160467845       30.2017408102      -38.3468706501  TIP3      14378           0.0000000000
     92965     14778  TIP3      H1             18.4746445058       30.6111265944      -38.1708411844  TIP3      14378           0.0000000000
     92966     14778  TIP3      H2             17.6167711677       29.4615413137      -37.6959327592  TIP3      14378           0.0000000000
     92967     14779  TIP3      OH2            17.9944673963       28.2681891656      -36.4972257277  TIP3      14379           0.0000000000
     92968     14779  TIP3      H1             17.2562345667       27.7627397404      -36.0923086027  TIP3      14379           0.0000000000
     92969     14779  TIP3      H2             18.5906263949       28.4380527210      -35.7391107723  TIP3      14379           0.0000000000
     92970     14780  TIP3      OH2            17.7478600701       31.0026374298      -31.5174607845  TIP3      14380           0.0000000000
     92971     14780  TIP3      H1             18.5879786685       30.6356289349      -31.8500397565  TIP3      14380           0.0000000000
     92972     14780  TIP3      H2             17.8852104810       31.9630717733      -31.6698211926  TIP3      14380           0.0000000000
     92973     14781  TIP3      OH2            16.2845065368       33.9079566594      -29.2284719789  TIP3      14381           0.0000000000
     92974     14781  TIP3      H1             15.5969790020       34.2229891110      -28.6194031707  TIP3      14381           0.0000000000
     92975     14781  TIP3      H2             15.7381566469       33.4735342764      -29.9222812048  TIP3      14381           0.0000000000
     92976     14782  TIP3      OH2            18.2811694708       28.1186095448      -40.1027964511  TIP3      14382           0.0000000000
     92977     14782  TIP3      H1             17.7282732680       28.4932840624      -40.8147518590  TIP3      14382           0.0000000000
     92978     14782  TIP3      H2             18.2260040011       28.8195308082      -39.4260131167  TIP3      14382           0.0000000000
     92979     14783  TIP3      OH2            16.3952044875       25.3906777649      -41.4704734037  TIP3      14383           0.0000000000
     92980     14783  TIP3      H1             16.7245162820       25.9977542524      -42.1621718590  TIP3      14383           0.0000000000
     92981     14783  TIP3      H2             16.4822151559       24.5627042031      -41.9894929653  TIP3      14383           0.0000000000
     92982     14784  TIP3      OH2            15.8002790756       26.7658610158      -35.9304375984  TIP3      14384           0.0000000000
     92983     14784  TIP3      H1             15.6458601628       25.8096790853      -35.9471828711  TIP3      14384           0.0000000000
     92984     14784  TIP3      H2             15.4481421323       27.0190432181      -35.0616977647  TIP3      14384           0.0000000000
     92985     14785  TIP3      OH2             0.8116572280       28.8470518925      -31.8854050523  TIP3      14385           0.0000000000
     92986     14785  TIP3      H1              1.0105094234       28.7619850280      -32.8442450429  TIP3      14385           0.0000000000
     92987     14785  TIP3      H2              1.6964230947       28.6983194986      -31.4996374156  TIP3      14385           0.0000000000
     92988     14786  TIP3      OH2            16.6445512983       28.7392549408      -26.2619275024  TIP3      14386           0.0000000000
     92989     14786  TIP3      H1             17.2499764763       27.9801956963      -26.0928100356  TIP3      14386           0.0000000000
     92990     14786  TIP3      H2             17.2442888709       29.5066521778      -26.2426889658  TIP3      14386           0.0000000000
     92991     14787  TIP3      OH2            18.1601811012       26.6463313360      -25.5932470025  TIP3      14387           0.0000000000
     92992     14787  TIP3      H1             17.2775079436       26.2389334575      -25.7520184234  TIP3      14387           0.0000000000
     92993     14787  TIP3      H2             18.7369564598       25.8729052541      -25.6793119617  TIP3      14387           0.0000000000
     92994     14788  TIP3      OH2            15.8835678467       22.7827896168      -42.4510759205  TIP3      14388           0.0000000000
     92995     14788  TIP3      H1             16.4855388201       22.3888730782      -41.7930420065  TIP3      14388           0.0000000000
     92996     14788  TIP3      H2             15.0225907568       22.3837513304      -42.2442908001  TIP3      14388           0.0000000000
     92997     14789  TIP3      OH2            15.4824959340       24.3534107348      -37.4550273577  TIP3      14389           0.0000000000
     92998     14789  TIP3      H1             15.7880181464       23.4241875811      -37.3380744274  TIP3      14389           0.0000000000
     92999     14789  TIP3      H2             16.2626291627       24.7662310792      -37.8518169311  TIP3      14389           0.0000000000
     93000     14790  TIP3      OH2            16.1040077654       24.8984510991      -32.0292770292  TIP3      14390           0.0000000000
     93001     14790  TIP3      H1             17.0615175206       25.1355260461      -32.0469509686  TIP3      14390           0.0000000000
     93002     14790  TIP3      H2             15.8994617063       25.0334543542      -31.0903120817  TIP3      14390           0.0000000000
     93003     14791  TIP3      OH2            16.1632475283       25.6268824195      -29.2525889992  TIP3      14391           0.0000000000
     93004     14791  TIP3      H1             15.2981296752       25.9217395685      -28.8900560912  TIP3      14391           0.0000000000
     93005     14791  TIP3      H2             16.5982487811       26.4877412294      -29.4633093119  TIP3      14391           0.0000000000
     93006     14792  TIP3      OH2             0.4196635665       24.1308861265      -25.7588229769  TIP3      14392           0.0000000000
     93007     14792  TIP3      H1              1.3571498624       23.9693249516      -25.5356669451  TIP3      14392           0.0000000000
     93008     14792  TIP3      H2             -0.0308071268       23.3395222240      -25.3999873861  TIP3      14392           0.0000000000
     93009     14793  TIP3      OH2            18.4380517846       19.6560188603      -23.8959008609  TIP3      14393           0.0000000000
     93010     14793  TIP3      H1             18.7860955416       18.9837687784      -24.5014431957  TIP3      14393           0.0000000000
     93011     14793  TIP3      H2             18.5639513483       20.4837523765      -24.3820842784  TIP3      14393           0.0000000000
     93012     14794  TIP3      OH2            16.1277585697       21.6231668016      -37.4151986995  TIP3      14394           0.0000000000
     93013     14794  TIP3      H1             16.3203498105       21.1653973725      -36.5738275366  TIP3      14394           0.0000000000
     93014     14794  TIP3      H2             15.5131975094       21.0046601195      -37.8745206639  TIP3      14394           0.0000000000
     93015     14795  TIP3      OH2             1.6310086532       22.4305685698      -32.8774743209  TIP3      14395           0.0000000000
     93016     14795  TIP3      H1              2.1012812279       21.6205214232      -32.5897049172  TIP3      14395           0.0000000000
     93017     14795  TIP3      H2              2.1359014096       23.1397182482      -32.4564399073  TIP3      14395           0.0000000000
     93018     14796  TIP3      OH2            -0.0789367941       25.4191840668      -31.8114177281  TIP3      14396           0.0000000000
     93019     14796  TIP3      H1              0.4634433398       25.2014857919      -32.5984769601  TIP3      14396           0.0000000000
     93020     14796  TIP3      H2              0.3396131562       26.2529488602      -31.5442741355  TIP3      14396           0.0000000000
     93021     14797  TIP3      OH2            17.9763363229       21.7641283428      -25.5335202592  TIP3      14397           0.0000000000
     93022     14797  TIP3      H1             17.0290695685       22.0246360427      -25.5976199389  TIP3      14397           0.0000000000
     93023     14797  TIP3      H2             18.0424353700       21.2238198989      -26.3379328789  TIP3      14397           0.0000000000
     93024     14798  TIP3      OH2            17.9621966924       21.6773257142      -40.8605299340  TIP3      14398           0.0000000000
     93025     14798  TIP3      H1             18.3993202028       20.9647620340      -41.3588375515  TIP3      14398           0.0000000000
     93026     14798  TIP3      H2             18.6770821451       22.3413639756      -40.8340257360  TIP3      14398           0.0000000000
     93027     14799  TIP3      OH2             0.2724955419       21.6833834146      -37.7564410233  TIP3      14399           0.0000000000
     93028     14799  TIP3      H1             -0.6651306910       21.8910580856      -37.8891286894  TIP3      14399           0.0000000000
     93029     14799  TIP3      H2              0.7093428597       22.1797245569      -38.4659306261  TIP3      14399           0.0000000000
     93030     14800  TIP3      OH2            15.0161332381       36.6556610596      -35.8029699786  TIP3      14400           0.0000000000
     93031     14800  TIP3      H1             15.6938034411       36.3259004605      -36.4207899010  TIP3      14400           0.0000000000
     93032     14800  TIP3      H2             15.5454454982       37.1506811010      -35.1612119659  TIP3      14400           0.0000000000
     93033     14801  TIP3      OH2             0.2355929527       20.3920210501      -29.4285842596  TIP3      14401           0.0000000000
     93034     14801  TIP3      H1             -0.4445856953       20.1705848320      -28.7694519455  TIP3      14401           0.0000000000
     93035     14801  TIP3      H2             -0.2276625495       21.0444679806      -29.9956394732  TIP3      14401           0.0000000000
     93036     14802  TIP3      OH2             2.4372422244       33.5802523851      -25.2764377214  TIP3      14402           0.0000000000
     93037     14802  TIP3      H1              1.5991327799       33.7690614682      -25.7203359267  TIP3      14402           0.0000000000
     93038     14802  TIP3      H2              2.1733437253       33.5194026011      -24.3484166042  TIP3      14402           0.0000000000
     93039     14803  TIP3      OH2             5.3613170472       34.5527550790      -29.0071619849  TIP3      14403           0.0000000000
     93040     14803  TIP3      H1              4.9822085236       35.3949642787      -29.2937168444  TIP3      14403           0.0000000000
     93041     14803  TIP3      H2              6.2846209376       34.6559817184      -29.3197886431  TIP3      14403           0.0000000000
     93042     14804  TIP3      OH2             9.6867802108       35.9756343621      -26.0858976013  TIP3      14404           0.0000000000
     93043     14804  TIP3      H1              9.8624378691       35.6338979499      -25.1715929568  TIP3      14404           0.0000000000
     93044     14804  TIP3      H2             10.5680031275       36.2693706700      -26.3644034335  TIP3      14404           0.0000000000
     93045     14805  TIP3      OH2            11.9921933099       37.2662117448      -26.8142640273  TIP3      14405           0.0000000000
     93046     14805  TIP3      H1             12.7037778943       36.6330774999      -27.0381919666  TIP3      14405           0.0000000000
     93047     14805  TIP3      H2             12.3637410368       37.6473778023      -25.9899784475  TIP3      14405           0.0000000000
     93048     14806  TIP3      OH2            16.9743780923       19.8646117798      -27.7099038344  TIP3      14406           0.0000000000
     93049     14806  TIP3      H1             16.1389646170       20.1590911441      -28.1164430630  TIP3      14406           0.0000000000
     93050     14806  TIP3      H2             17.1659786376       19.0614084749      -28.2464059423  TIP3      14406           0.0000000000
     93051     14807  TIP3      OH2             2.7888704296       37.8079024841      -28.9851547564  TIP3      14407           0.0000000000
     93052     14807  TIP3      H1              2.0532463624       38.2789218349      -29.4116348579  TIP3      14407           0.0000000000
     93053     14807  TIP3      H2              2.4326402341       37.5852995237      -28.1115606078  TIP3      14407           0.0000000000
     93054     14808  TIP3      OH2             5.2608806313       37.3949585446      -29.9325153269  TIP3      14408           0.0000000000
     93055     14808  TIP3      H1              4.3650408583       37.5072118313      -29.5343593469  TIP3      14408           0.0000000000
     93056     14808  TIP3      H2              5.1875341407       37.9729364626      -30.7185681920  TIP3      14408           0.0000000000
     93057     14809  TIP3      OH2             9.9584085539       37.2961217853      -30.7589905910  TIP3      14409           0.0000000000
     93058     14809  TIP3      H1              9.4947165799       37.8372355948      -31.4233685694  TIP3      14409           0.0000000000
     93059     14809  TIP3      H2             10.1063316199       37.9219640205      -30.0330177592  TIP3      14409           0.0000000000
     93060     14810  TIP3      OH2            12.2726878757       36.1483886093      -29.7805000419  TIP3      14410           0.0000000000
     93061     14810  TIP3      H1             11.3837658800       36.3605974714      -30.1005515212  TIP3      14410           0.0000000000
     93062     14810  TIP3      H2             12.7109490555       37.0056334877      -29.8750276611  TIP3      14410           0.0000000000
     93063     14811  TIP3      OH2            14.9085792677       37.7235377143      -29.5105547836  TIP3      14411           0.0000000000
     93064     14811  TIP3      H1             14.7076302325       38.6568138050      -29.7520006237  TIP3      14411           0.0000000000
     93065     14811  TIP3      H2             15.0373155928       37.3183173607      -30.3894843761  TIP3      14411           0.0000000000
     93066     14812  TIP3      OH2             2.2035962910       36.4531216517      -32.0662806924  TIP3      14412           0.0000000000
     93067     14812  TIP3      H1              2.1653915486       36.0049666041      -31.1938637152  TIP3      14412           0.0000000000
     93068     14812  TIP3      H2              3.0256623850       36.1034182976      -32.4647461319  TIP3      14412           0.0000000000
     93069     14813  TIP3      OH2             4.3217863688       35.1553526509      -33.4308149404  TIP3      14413           0.0000000000
     93070     14813  TIP3      H1              4.1307800031       34.2311315525      -33.1970161034  TIP3      14413           0.0000000000
     93071     14813  TIP3      H2              5.1665235342       35.3021763743      -32.9395524812  TIP3      14413           0.0000000000
     93072     14814  TIP3      OH2             6.8890214566       35.6427956399      -32.5501897101  TIP3      14414           0.0000000000
     93073     14814  TIP3      H1              7.0853184415       34.7288787612      -32.8232754968  TIP3      14414           0.0000000000
     93074     14814  TIP3      H2              6.9501464512       35.5817605923      -31.5878499877  TIP3      14414           0.0000000000
     93075     14815  TIP3      OH2            10.3933367019       21.3011895823      -33.3823598545  TIP3      14415           0.0000000000
     93076     14815  TIP3      H1              9.6992670534       20.6556694016      -33.1546831293  TIP3      14415           0.0000000000
     93077     14815  TIP3      H2             10.9249942204       20.7898074244      -34.0115256222  TIP3      14415           0.0000000000
     93078     14816  TIP3      OH2            15.5142408708       19.3692015578      -33.3013957871  TIP3      14416           0.0000000000
     93079     14816  TIP3      H1             16.1329435710       19.9460280542      -33.8182002774  TIP3      14416           0.0000000000
     93080     14816  TIP3      H2             14.6374486857       19.7139731491      -33.5507762019  TIP3      14416           0.0000000000
     93081     14817  TIP3      OH2            17.2061269182       20.5588549890      -35.0008522468  TIP3      14417           0.0000000000
     93082     14817  TIP3      H1             17.8723492504       20.0138105305      -35.4840621987  TIP3      14417           0.0000000000
     93083     14817  TIP3      H2             17.6604929542       21.4261847545      -34.9439664950  TIP3      14417           0.0000000000
     93084     14818  TIP3      OH2             2.7178301281       19.9298329051      -35.5618665919  TIP3      14418           0.0000000000
     93085     14818  TIP3      H1              1.9310419595       19.6954337249      -36.0902340548  TIP3      14418           0.0000000000
     93086     14818  TIP3      H2              3.2341685378       19.1015257513      -35.5957214671  TIP3      14418           0.0000000000
     93087     14819  TIP3      OH2             1.5241574088       19.6963660655      -39.7992278744  TIP3      14419           0.0000000000
     93088     14819  TIP3      H1              1.9902488284       20.3314153307      -40.3773932311  TIP3      14419           0.0000000000
     93089     14819  TIP3      H2              0.9220310591       20.2636757443      -39.2933461970  TIP3      14419           0.0000000000
     93090     14820  TIP3      OH2             6.8807293719       20.2807076176      -35.1519013147  TIP3      14420           0.0000000000
     93091     14820  TIP3      H1              7.7659886839       20.2932592783      -35.6544115291  TIP3      14420           0.0000000000
     93092     14820  TIP3      H2              7.1635544779       19.4992038529      -34.7221505146  TIP3      14420           0.0000000000
     93093     14821  TIP3      OH2            12.8820443964       19.8795987279      -34.1239372848  TIP3      14421           0.0000000000
     93094     14821  TIP3      H1             12.9019910686       19.9723994223      -35.0849713309  TIP3      14421           0.0000000000
     93095     14821  TIP3      H2             12.5460395120       18.9603805332      -34.0044732491  TIP3      14421           0.0000000000
     93096     14822  TIP3      OH2            14.2028757137       19.9064493319      -38.4527285782  TIP3      14422           0.0000000000
     93097     14822  TIP3      H1             13.4671748665       20.5084366607      -38.6367981512  TIP3      14422           0.0000000000
     93098     14822  TIP3      H2             13.7401834321       19.0503452722      -38.2826392348  TIP3      14422           0.0000000000
     93099     14823  TIP3      OH2             1.4544034276       35.6353324377      -38.8384714238  TIP3      14423           0.0000000000
     93100     14823  TIP3      H1              0.7602573625       35.6418917549      -39.5400835989  TIP3      14423           0.0000000000
     93101     14823  TIP3      H2              1.4417944347       36.5845282278      -38.6273497878  TIP3      14423           0.0000000000
     93102     14824  TIP3      OH2             3.3737691108       21.6004204185      -41.3244859443  TIP3      14424           0.0000000000
     93103     14824  TIP3      H1              3.8934036546       21.0023793333      -41.8607442142  TIP3      14424           0.0000000000
     93104     14824  TIP3      H2              4.0259865694       21.9421830956      -40.6846769316  TIP3      14424           0.0000000000
     93105     14825  TIP3      OH2             8.4182734271       21.9245577363      -38.9298128178  TIP3      14425           0.0000000000
     93106     14825  TIP3      H1              8.6013545258       21.2707976095      -38.1973456768  TIP3      14425           0.0000000000
     93107     14825  TIP3      H2              8.4014306829       22.7487306822      -38.4050051198  TIP3      14425           0.0000000000
     93108     14826  TIP3      OH2            10.2775303897       37.0584669372      -40.3943674202  TIP3      14426           0.0000000000
     93109     14826  TIP3      H1             11.2014242702       37.2232998935      -40.6469000950  TIP3      14426           0.0000000000
     93110     14826  TIP3      H2             10.0930266528       36.4843182508      -41.1954263091  TIP3      14426           0.0000000000
     93111     14827  TIP3      OH2            17.0220123091       36.4471689574      -37.7755371707  TIP3      14427           0.0000000000
     93112     14827  TIP3      H1             16.8120090887       35.6779303823      -38.3621852069  TIP3      14427           0.0000000000
     93113     14827  TIP3      H2             16.9528708279       37.1919430092      -38.3988873268  TIP3      14427           0.0000000000
     93114     14828  TIP3      OH2             2.6356035167       20.4597833430      -26.0876000562  TIP3      14428           0.0000000000
     93115     14828  TIP3      H1              2.2855204782       19.6622141158      -25.6470995592  TIP3      14428           0.0000000000
     93116     14828  TIP3      H2              3.5700478249       20.4436798893      -25.7591769229  TIP3      14428           0.0000000000
     93117     14829  TIP3      OH2             4.6364919111       19.8128203552      -24.5192316213  TIP3      14429           0.0000000000
     93118     14829  TIP3      H1              5.5399889047       19.5068302088      -24.7113276319  TIP3      14429           0.0000000000
     93119     14829  TIP3      H2              4.2636363423       19.0392311131      -24.0548656334  TIP3      14429           0.0000000000
     93120     14830  TIP3      OH2             3.2736787447       36.5858537495      -41.8773911492  TIP3      14430           0.0000000000
     93121     14830  TIP3      H1              2.9803164139       36.8773690381      -40.9910697430  TIP3      14430           0.0000000000
     93122     14830  TIP3      H2              4.0284121846       36.0511456501      -41.6808764740  TIP3      14430           0.0000000000
     93123     14831  TIP3      OH2            13.0517975188       19.1501427462      -24.3424436399  TIP3      14431           0.0000000000
     93124     14831  TIP3      H1             13.1412042431       18.6653646843      -23.4963515053  TIP3      14431           0.0000000000
     93125     14831  TIP3      H2             13.9635384529       19.1200246772      -24.6873221012  TIP3      14431           0.0000000000
     93126     14832  TIP3      OH2            16.2611964026       35.1775463145      -25.6551601696  TIP3      14432           0.0000000000
     93127     14832  TIP3      H1             15.4469237118       35.0246658263      -26.1858314424  TIP3      14432           0.0000000000
     93128     14832  TIP3      H2             16.1386087421       36.1240249340      -25.4396575163  TIP3      14432           0.0000000000
     93129     14833  TIP3      OH2            30.6654202334       29.0611944271      -35.6510007252  TIP3      14433           0.0000000000
     93130     14833  TIP3      H1             30.7091002148       30.0360502882      -35.7506103906  TIP3      14433           0.0000000000
     93131     14833  TIP3      H2             29.9824201254       28.8141273755      -36.2930621680  TIP3      14433           0.0000000000
     93132     14834  TIP3      OH2            29.5588002819       28.3341017009      -32.1933394690  TIP3      14434           0.0000000000
     93133     14834  TIP3      H1             29.5319421105       27.6756104578      -31.4925501601  TIP3      14434           0.0000000000
     93134     14834  TIP3      H2             29.2344497391       27.8452640694      -32.9685889748  TIP3      14434           0.0000000000
     93135     14835  TIP3      OH2            21.9179951918       27.9689186057      -30.6345830433  TIP3      14435           0.0000000000
     93136     14835  TIP3      H1             21.9890423880       27.3126449919      -29.9081335433  TIP3      14435           0.0000000000
     93137     14835  TIP3      H2             22.6490996745       28.5669977891      -30.4246461853  TIP3      14435           0.0000000000
     93138     14836  TIP3      OH2            33.2656406289       31.2664236011      -33.9159955871  TIP3      14436           0.0000000000
     93139     14836  TIP3      H1             32.8284477055       30.5523253118      -33.4400978879  TIP3      14436           0.0000000000
     93140     14836  TIP3      H2             33.2611331224       31.9866772260      -33.2565674540  TIP3      14436           0.0000000000
     93141     14837  TIP3      OH2            22.8449294682       32.4227885559      -32.0965852503  TIP3      14437           0.0000000000
     93142     14837  TIP3      H1             22.5065682385       31.5811769732      -32.4546051177  TIP3      14437           0.0000000000
     93143     14837  TIP3      H2             23.7999811066       32.2322007227      -32.0560955540  TIP3      14437           0.0000000000
     93144     14838  TIP3      OH2            19.4838448576       26.0244395370      -36.6699704407  TIP3      14438           0.0000000000
     93145     14838  TIP3      H1             19.0266966909       26.8919661584      -36.7096392961  TIP3      14438           0.0000000000
     93146     14838  TIP3      H2             18.9049221118       25.4738978476      -37.2164393757  TIP3      14438           0.0000000000
     93147     14839  TIP3      OH2            20.1748990784       28.2264382410      -34.5410517510  TIP3      14439           0.0000000000
     93148     14839  TIP3      H1             20.4215361282       27.4268382028      -34.0417662447  TIP3      14439           0.0000000000
     93149     14839  TIP3      H2             20.9100632735       28.3133433632      -35.1683422372  TIP3      14439           0.0000000000
     93150     14840  TIP3      OH2            30.3682731089       36.4073048712      -33.6855933418  TIP3      14440           0.0000000000
     93151     14840  TIP3      H1             31.0106268558       35.7032613559      -33.9604921527  TIP3      14440           0.0000000000
     93152     14840  TIP3      H2             30.1720199982       36.1296976865      -32.7917461079  TIP3      14440           0.0000000000
     93153     14841  TIP3      OH2            27.9357649352       30.7507512618      -31.7722565844  TIP3      14441           0.0000000000
     93154     14841  TIP3      H1             28.2711112669       30.0830716272      -32.3923472692  TIP3      14441           0.0000000000
     93155     14841  TIP3      H2             28.7081539757       30.8794544140      -31.1952343278  TIP3      14441           0.0000000000
     93156     14842  TIP3      OH2            36.5776406720       22.3590875868      -30.9663573116  TIP3      14442           0.0000000000
     93157     14842  TIP3      H1             36.6905070993       22.9797990022      -30.2142520468  TIP3      14442           0.0000000000
     93158     14842  TIP3      H2             37.0711602368       22.8201793739      -31.6613044277  TIP3      14442           0.0000000000
     93159     14843  TIP3      OH2            31.0971903226       25.1836773966      -31.4374462678  TIP3      14443           0.0000000000
     93160     14843  TIP3      H1             31.2469471929       24.2177120905      -31.4446482416  TIP3      14443           0.0000000000
     93161     14843  TIP3      H2             30.9929637364       25.3461441985      -32.3977844482  TIP3      14443           0.0000000000
     93162     14844  TIP3      OH2            24.2387086685       23.2669913575      -34.1880707799  TIP3      14444           0.0000000000
     93163     14844  TIP3      H1             24.3034716030       24.1204565120      -34.6469830315  TIP3      14444           0.0000000000
     93164     14844  TIP3      H2             23.7998471113       22.7039138455      -34.8603130204  TIP3      14444           0.0000000000
     93165     14845  TIP3      OH2            31.9549465338       23.3750802804      -35.8158542128  TIP3      14445           0.0000000000
     93166     14845  TIP3      H1             32.6247062254       23.0550802710      -35.1652544604  TIP3      14445           0.0000000000
     93167     14845  TIP3      H2             32.5038654351       23.9192159332      -36.4018123969  TIP3      14445           0.0000000000
     93168     14846  TIP3      OH2            20.8497119968       25.6774509538      -33.4456272236  TIP3      14446           0.0000000000
     93169     14846  TIP3      H1             21.5244268598       25.1148675946      -33.0096019163  TIP3      14446           0.0000000000
     93170     14846  TIP3      H2             20.9179493503       25.3760461727      -34.3641477171  TIP3      14446           0.0000000000
     93171     14847  TIP3      OH2            26.0172475442       27.2336845335      -34.1908747002  TIP3      14447           0.0000000000
     93172     14847  TIP3      H1             26.6549866192       26.6649718805      -33.7270543223  TIP3      14447           0.0000000000
     93173     14847  TIP3      H2             25.4573258750       26.5657958829      -34.6367248532  TIP3      14447           0.0000000000
     93174     14848  TIP3      OH2            37.0033685900       23.8134485599      -28.7247648551  TIP3      14448           0.0000000000
     93175     14848  TIP3      H1             36.3343191127       24.5259524040      -28.8015501470  TIP3      14448           0.0000000000
     93176     14848  TIP3      H2             37.0210397638       23.6617271812      -27.7675260508  TIP3      14448           0.0000000000
     93177     14849  TIP3      OH2            23.0946583067       22.1696771475      -30.1395815515  TIP3      14449           0.0000000000
     93178     14849  TIP3      H1             22.8369065037       22.7276841464      -30.8987904887  TIP3      14449           0.0000000000
     93179     14849  TIP3      H2             22.4048167684       22.4098443342      -29.4722701776  TIP3      14449           0.0000000000
     93180     14850  TIP3      OH2            30.4303651049       31.6659653469      -36.5884482198  TIP3      14450           0.0000000000
     93181     14850  TIP3      H1             30.1324503221       31.3610007617      -37.4551451098  TIP3      14450           0.0000000000
     93182     14850  TIP3      H2             30.1041209059       32.5908250909      -36.5508364117  TIP3      14450           0.0000000000
     93183     14851  TIP3      OH2            25.6379940844       29.8265183224      -29.8696914735  TIP3      14451           0.0000000000
     93184     14851  TIP3      H1             24.9057980199       30.4630948728      -29.7188820984  TIP3      14451           0.0000000000
     93185     14851  TIP3      H2             26.3431869102       30.4171963021      -30.1730445250  TIP3      14451           0.0000000000
     93186     14852  TIP3      OH2            33.7375697657       22.6937061150      -33.8281236242  TIP3      14452           0.0000000000
     93187     14852  TIP3      H1             33.5324667688       21.9230601933      -33.2882899583  TIP3      14452           0.0000000000
     93188     14852  TIP3      H2             34.4100994520       23.1471120439      -33.2927835304  TIP3      14452           0.0000000000
     93189     14853  TIP3      OH2            22.6528799734       24.0510944206      -32.1533465808  TIP3      14453           0.0000000000
     93190     14853  TIP3      H1             23.2962334785       24.7130769521      -31.8074100496  TIP3      14453           0.0000000000
     93191     14853  TIP3      H2             23.1901664846       23.6027904753      -32.8490084041  TIP3      14453           0.0000000000
     93192     14854  TIP3      OH2            24.0662126902       31.8062695224      -29.0752690951  TIP3      14454           0.0000000000
     93193     14854  TIP3      H1             24.0315067689       32.7150283196      -29.4323000969  TIP3      14454           0.0000000000
     93194     14854  TIP3      H2             23.1812096086       31.7396907151      -28.6329801844  TIP3      14454           0.0000000000
     93195     14855  TIP3      OH2            20.1538484323       31.4576516806      -38.2813572006  TIP3      14455           0.0000000000
     93196     14855  TIP3      H1             19.9052261733       31.7432548091      -39.1790276712  TIP3      14455           0.0000000000
     93197     14855  TIP3      H2             20.2149013628       32.3132151478      -37.8018005730  TIP3      14455           0.0000000000
     93198     14856  TIP3      OH2            33.7865908362       33.0980171654      -31.5508149321  TIP3      14456           0.0000000000
     93199     14856  TIP3      H1             32.8209600784       33.1902203226      -31.4083876815  TIP3      14456           0.0000000000
     93200     14856  TIP3      H2             34.0533838472       34.0249171703      -31.7156271173  TIP3      14456           0.0000000000
     93201     14857  TIP3      OH2            34.0912470141       21.3920890372      -30.1422935281  TIP3      14457           0.0000000000
     93202     14857  TIP3      H1             33.3562055410       22.0155194765      -30.2043361584  TIP3      14457           0.0000000000
     93203     14857  TIP3      H2             34.7871718056       21.8145636708      -30.6765149448  TIP3      14457           0.0000000000
     93204     14858  TIP3      OH2            27.0932228706       19.4860730736      -32.6761156683  TIP3      14458           0.0000000000
     93205     14858  TIP3      H1             26.9361848811       18.5339746800      -32.7493380805  TIP3      14458           0.0000000000
     93206     14858  TIP3      H2             26.2126543923       19.8219245158      -32.3981518459  TIP3      14458           0.0000000000
     93207     14859  TIP3      OH2            32.0304666885       34.8863370530      -34.9320118138  TIP3      14459           0.0000000000
     93208     14859  TIP3      H1             32.4678662049       34.1754854080      -35.4402851473  TIP3      14459           0.0000000000
     93209     14859  TIP3      H2             32.3974075272       35.6909518726      -35.3523665042  TIP3      14459           0.0000000000
     93210     14860  TIP3      OH2            33.2189259845       32.8112993667      -36.4357390586  TIP3      14460           0.0000000000
     93211     14860  TIP3      H1             32.9417176482       32.1052769470      -37.0446092793  TIP3      14460           0.0000000000
     93212     14860  TIP3      H2             33.2690198435       32.3323896785      -35.5873550371  TIP3      14460           0.0000000000
     93213     14861  TIP3      OH2            34.8731874369       31.3806541052      -27.9395835588  TIP3      14461           0.0000000000
     93214     14861  TIP3      H1             35.0186685321       30.7592038191      -28.6856988458  TIP3      14461           0.0000000000
     93215     14861  TIP3      H2             35.0546672165       32.2464501830      -28.3358512472  TIP3      14461           0.0000000000
     93216     14862  TIP3      OH2            29.3534791515       28.3123994617      -38.1669973258  TIP3      14462           0.0000000000
     93217     14862  TIP3      H1             28.6471399813       28.8664346355      -38.5488913559  TIP3      14462           0.0000000000
     93218     14862  TIP3      H2             30.0533546567       28.3854547953      -38.8457814548  TIP3      14462           0.0000000000
     93219     14863  TIP3      OH2            29.3995718043       26.8021172100      -41.1262121051  TIP3      14463           0.0000000000
     93220     14863  TIP3      H1             30.1221556250       26.8108403029      -40.4846486376  TIP3      14463           0.0000000000
     93221     14863  TIP3      H2             29.7200147510       26.1631718657      -41.7736070333  TIP3      14463           0.0000000000
     93222     14864  TIP3      OH2            36.7375437212       27.6989713942      -29.8804231106  TIP3      14464           0.0000000000
     93223     14864  TIP3      H1             36.0740531029       28.4150787152      -29.8190648663  TIP3      14464           0.0000000000
     93224     14864  TIP3      H2             37.2075739938       27.9302679276      -30.7016649838  TIP3      14464           0.0000000000
     93225     14865  TIP3      OH2            32.7793189898       28.5289648416      -37.2426119051  TIP3      14465           0.0000000000
     93226     14865  TIP3      H1             32.0335169796       28.7591392088      -36.6403908661  TIP3      14465           0.0000000000
     93227     14865  TIP3      H2             33.2350172974       27.8219928592      -36.7513948032  TIP3      14465           0.0000000000
     93228     14866  TIP3      OH2            32.7028957923       26.6814242256      -28.1519952302  TIP3      14466           0.0000000000
     93229     14866  TIP3      H1             32.7361273167       27.4805966951      -27.5943807710  TIP3      14466           0.0000000000
     93230     14866  TIP3      H2             32.0690883242       26.9859903138      -28.8381600881  TIP3      14466           0.0000000000
     93231     14867  TIP3      OH2            24.4108771295       29.1796487495      -35.3363942790  TIP3      14467           0.0000000000
     93232     14867  TIP3      H1             24.0824714095       28.7824227886      -36.1770297918  TIP3      14467           0.0000000000
     93233     14867  TIP3      H2             25.0145964521       28.4786013748      -34.9984566501  TIP3      14467           0.0000000000
     93234     14868  TIP3      OH2            25.7492526319       32.5871247329      -32.6561608430  TIP3      14468           0.0000000000
     93235     14868  TIP3      H1             25.7007375776       32.0156157700      -33.4337324754  TIP3      14468           0.0000000000
     93236     14868  TIP3      H2             26.5139581536       32.2079757820      -32.1841385290  TIP3      14468           0.0000000000
     93237     14869  TIP3      OH2            24.7575719417       27.9190103533      -31.6973925215  TIP3      14469           0.0000000000
     93238     14869  TIP3      H1             25.3300887137       28.0431825414      -32.4778348009  TIP3      14469           0.0000000000
     93239     14869  TIP3      H2             25.1098672026       28.5780417716      -31.0664991957  TIP3      14469           0.0000000000
     93240     14870  TIP3      OH2            31.1134530049       33.4690230533      -30.9868087328  TIP3      14470           0.0000000000
     93241     14870  TIP3      H1             30.8516143576       34.1030121513      -30.3182645575  TIP3      14470           0.0000000000
     93242     14870  TIP3      H2             30.8878111061       32.6093368049      -30.5461177003  TIP3      14470           0.0000000000
     93243     14871  TIP3      OH2            25.6800547595       32.3319013544      -26.9753199645  TIP3      14471           0.0000000000
     93244     14871  TIP3      H1             25.3185959145       33.1150106554      -26.5196948311  TIP3      14471           0.0000000000
     93245     14871  TIP3      H2             25.0042524125       32.1630973702      -27.6783708278  TIP3      14471           0.0000000000
     93246     14872  TIP3      OH2            31.6423625130       27.6875278821      -39.5611588364  TIP3      14472           0.0000000000
     93247     14872  TIP3      H1             32.2217716285       27.8632912610      -38.7803161985  TIP3      14472           0.0000000000
     93248     14872  TIP3      H2             32.0636156985       28.1941317076      -40.2770269135  TIP3      14472           0.0000000000
     93249     14873  TIP3      OH2            22.6104799194       28.5147577601      -27.7960442918  TIP3      14473           0.0000000000
     93250     14873  TIP3      H1             22.6513096308       29.1781165313      -27.0736035729  TIP3      14473           0.0000000000
     93251     14873  TIP3      H2             21.6865589825       28.6214657369      -28.0706248127  TIP3      14473           0.0000000000
     93252     14874  TIP3      OH2            29.3699787689       34.4243178856      -36.1050424758  TIP3      14474           0.0000000000
     93253     14874  TIP3      H1             29.8303783906       34.7337929840      -35.3180633601  TIP3      14474           0.0000000000
     93254     14874  TIP3      H2             28.8099382667       35.1735626566      -36.3461601215  TIP3      14474           0.0000000000
     93255     14875  TIP3      OH2            23.9224538387       34.3904163463      -26.2266638060  TIP3      14475           0.0000000000
     93256     14875  TIP3      H1             23.8930526289       34.2692758091      -27.1893409742  TIP3      14475           0.0000000000
     93257     14875  TIP3      H2             22.9867117511       34.2716508140      -25.9828125335  TIP3      14475           0.0000000000
     93258     14876  TIP3      OH2            35.3644732663       19.4342350349      -39.7111063538  TIP3      14476           0.0000000000
     93259     14876  TIP3      H1             34.4256730098       19.5742029321      -39.4339875133  TIP3      14476           0.0000000000
     93260     14876  TIP3      H2             35.5942660439       20.2815566399      -40.1156885594  TIP3      14476           0.0000000000
     93261     14877  TIP3      OH2            23.3984613335       28.2135018176      -37.7341107998  TIP3      14477           0.0000000000
     93262     14877  TIP3      H1             23.1034648156       28.9926054610      -38.2520048382  TIP3      14477           0.0000000000
     93263     14877  TIP3      H2             22.7257973062       27.5574051311      -37.9327152021  TIP3      14477           0.0000000000
     93264     14878  TIP3      OH2            36.5016965656       33.7855008621      -41.3323272534  TIP3      14478           0.0000000000
     93265     14878  TIP3      H1             36.6145366645       34.7459150239      -41.1882252685  TIP3      14478           0.0000000000
     93266     14878  TIP3      H2             37.4337422618       33.5094449792      -41.4017695452  TIP3      14478           0.0000000000
     93267     14879  TIP3      OH2            19.4858390241       30.6151940426      -28.8872897786  TIP3      14479           0.0000000000
     93268     14879  TIP3      H1             19.0039588811       30.5487316424      -29.7318997924  TIP3      14479           0.0000000000
     93269     14879  TIP3      H2             19.5148063657       29.6750412206      -28.6292321227  TIP3      14479           0.0000000000
     93270     14880  TIP3      OH2            19.2373242214       33.3593229738      -32.0550846311  TIP3      14480           0.0000000000
     93271     14880  TIP3      H1             20.1935869351       33.2355713330      -32.0707778327  TIP3      14480           0.0000000000
     93272     14880  TIP3      H2             19.1438180639       34.1591702410      -31.5259735997  TIP3      14480           0.0000000000
     93273     14881  TIP3      OH2            37.4685602067       34.0540274675      -26.3794488844  TIP3      14481           0.0000000000
     93274     14881  TIP3      H1             37.3716380270       33.0894411667      -26.3965230787  TIP3      14481           0.0000000000
     93275     14881  TIP3      H2             36.6034958007       34.3045070975      -25.9714388559  TIP3      14481           0.0000000000
     93276     14882  TIP3      OH2            28.4275591261       33.6012915134      -27.5116788536  TIP3      14482           0.0000000000
     93277     14882  TIP3      H1             28.5015731277       34.4455537752      -27.0095366404  TIP3      14482           0.0000000000
     93278     14882  TIP3      H2             27.5526344801       33.2683541487      -27.2411079378  TIP3      14482           0.0000000000
     93279     14883  TIP3      OH2            28.8421826972       37.3590224866      -37.6884118185  TIP3      14483           0.0000000000
     93280     14883  TIP3      H1             28.7677512608       37.2677000717      -38.6551921263  TIP3      14483           0.0000000000
     93281     14883  TIP3      H2             28.8768159345       38.3273487138      -37.5610748068  TIP3      14483           0.0000000000
     93282     14884  TIP3      OH2            22.5012631891       36.2103450268      -35.8953603352  TIP3      14484           0.0000000000
     93283     14884  TIP3      H1             22.6417882212       35.8114309473      -35.0115844809  TIP3      14484           0.0000000000
     93284     14884  TIP3      H2             21.6470284328       35.8161124170      -36.1412633176  TIP3      14484           0.0000000000
     93285     14885  TIP3      OH2            31.9162349648       36.5544320996      -40.7174901687  TIP3      14485           0.0000000000
     93286     14885  TIP3      H1             32.3366909418       35.7838527095      -41.1552697338  TIP3      14485           0.0000000000
     93287     14885  TIP3      H2             31.9508951378       36.2784747252      -39.7779056353  TIP3      14485           0.0000000000
     93288     14886  TIP3      OH2            31.6145487373       36.4815953379      -37.9434431901  TIP3      14486           0.0000000000
     93289     14886  TIP3      H1             30.6591201057       36.5610497845      -37.7547990079  TIP3      14486           0.0000000000
     93290     14886  TIP3      H2             31.8740160911       35.7513720931      -37.3618967572  TIP3      14486           0.0000000000
     93291     14887  TIP3      OH2            34.6055299997       25.5284571900      -25.8962903760  TIP3      14487           0.0000000000
     93292     14887  TIP3      H1             34.1675543634       26.0022404893      -26.6167186900  TIP3      14487           0.0000000000
     93293     14887  TIP3      H2             34.6259352699       24.6153425118      -26.2067548863  TIP3      14487           0.0000000000
     93294     14888  TIP3      OH2            21.7464258312       31.9336690775      -27.9012464062  TIP3      14488           0.0000000000
     93295     14888  TIP3      H1             21.9696046770       31.5601012444      -27.0211358059  TIP3      14488           0.0000000000
     93296     14888  TIP3      H2             20.8788684368       31.5353689795      -28.1071485020  TIP3      14488           0.0000000000
     93297     14889  TIP3      OH2            24.4038774863       20.3901685711      -31.9146895531  TIP3      14489           0.0000000000
     93298     14889  TIP3      H1             23.5043834598       20.2981550521      -32.3052986058  TIP3      14489           0.0000000000
     93299     14889  TIP3      H2             24.3211709336       21.2454275108      -31.4656582009  TIP3      14489           0.0000000000
     93300     14890  TIP3      OH2            29.0543929795       20.0805251596      -28.5610704137  TIP3      14490           0.0000000000
     93301     14890  TIP3      H1             29.4527342372       19.6867719060      -27.7603832022  TIP3      14490           0.0000000000
     93302     14890  TIP3      H2             28.0853310485       19.9477611073      -28.4057890078  TIP3      14490           0.0000000000
     93303     14891  TIP3      OH2            32.3536123324       23.8833250778      -27.6901702450  TIP3      14491           0.0000000000
     93304     14891  TIP3      H1             31.8229109461       23.7226940641      -26.8757221250  TIP3      14491           0.0000000000
     93305     14891  TIP3      H2             32.1964447327       24.8123063517      -27.9103818105  TIP3      14491           0.0000000000
     93306     14892  TIP3      OH2            33.1865509828       28.7584079089      -41.8272725712  TIP3      14492           0.0000000000
     93307     14892  TIP3      H1             33.1797413272       28.5578961513      -42.7874724988  TIP3      14492           0.0000000000
     93308     14892  TIP3      H2             34.0304061618       29.1842108087      -41.6945980074  TIP3      14492           0.0000000000
     93309     14893  TIP3      OH2            28.7131443551       22.6224234389      -41.2386460456  TIP3      14493           0.0000000000
     93310     14893  TIP3      H1             28.4181630405       22.6074749450      -40.3090327848  TIP3      14493           0.0000000000
     93311     14893  TIP3      H2             28.4323317943       21.7452213198      -41.5262634647  TIP3      14493           0.0000000000
     93312     14894  TIP3      OH2            24.4957544744       25.3548142703      -30.7557395604  TIP3      14494           0.0000000000
     93313     14894  TIP3      H1             23.7981721606       25.3336350715      -30.0741834669  TIP3      14494           0.0000000000
     93314     14894  TIP3      H2             24.4874291143       26.2922611887      -31.0509601494  TIP3      14494           0.0000000000
     93315     14895  TIP3      OH2            24.4731466568       25.5533279549      -35.8542589748  TIP3      14495           0.0000000000
     93316     14895  TIP3      H1             23.5517307811       25.2373626792      -35.9589050477  TIP3      14495           0.0000000000
     93317     14895  TIP3      H2             24.8884666494       25.1993846737      -36.6638370915  TIP3      14495           0.0000000000
     93318     14896  TIP3      OH2            29.9977959395       25.9846261129      -37.0632126536  TIP3      14496           0.0000000000
     93319     14896  TIP3      H1             29.5869501320       26.8193492239      -37.3801973925  TIP3      14496           0.0000000000
     93320     14896  TIP3      H2             30.7090498470       25.8490198884      -37.7146233156  TIP3      14496           0.0000000000
     93321     14897  TIP3      OH2            29.0888967948       26.1870375314      -25.6013711197  TIP3      14497           0.0000000000
     93322     14897  TIP3      H1             28.5252047658       25.4497465268      -25.2688245694  TIP3      14497           0.0000000000
     93323     14897  TIP3      H2             29.9219622419       26.0642285524      -25.1198785297  TIP3      14497           0.0000000000
     93324     14898  TIP3      OH2            31.0157141788       25.4628565424      -34.2264537755  TIP3      14498           0.0000000000
     93325     14898  TIP3      H1             30.7846181796       26.0427213941      -34.9721189366  TIP3      14498           0.0000000000
     93326     14898  TIP3      H2             31.1619719683       24.6157121365      -34.6958341232  TIP3      14498           0.0000000000
     93327     14899  TIP3      OH2            22.1824853752       25.6620333810      -28.9716984919  TIP3      14499           0.0000000000
     93328     14899  TIP3      H1             22.1891535796       26.0642727149      -28.0851738372  TIP3      14499           0.0000000000
     93329     14899  TIP3      H2             21.7099454316       24.8315853449      -28.8221635892  TIP3      14499           0.0000000000
     93330     14900  TIP3      OH2            25.6830145712       23.2274014732      -41.9008797971  TIP3      14500           0.0000000000
     93331     14900  TIP3      H1             25.1496444892       22.6116321438      -41.3673301099  TIP3      14500           0.0000000000
     93332     14900  TIP3      H2             25.0048517055       23.5043328236      -42.5352765114  TIP3      14500           0.0000000000
     93333     14901  TIP3      OH2            18.8044995207       22.7789438024      -35.0619405163  TIP3      14501           0.0000000000
     93334     14901  TIP3      H1             19.4672531905       22.7410615050      -34.3453092452  TIP3      14501           0.0000000000
     93335     14901  TIP3      H2             19.2656194905       22.3619897391      -35.8136816066  TIP3      14501           0.0000000000
     93336     14902  TIP3      OH2            20.0987289622       23.4947709489      -39.6524340073  TIP3      14502           0.0000000000
     93337     14902  TIP3      H1             20.5731545018       24.1102262678      -40.2544934358  TIP3      14502           0.0000000000
     93338     14902  TIP3      H2             19.3842702043       24.0839628318      -39.3232583341  TIP3      14502           0.0000000000
     93339     14903  TIP3      OH2            30.2524253797       27.0857934377      -29.6134220286  TIP3      14503           0.0000000000
     93340     14903  TIP3      H1             30.5986458849       26.4188114687      -30.2356132889  TIP3      14503           0.0000000000
     93341     14903  TIP3      H2             29.8032721963       26.5401229455      -28.9436127555  TIP3      14503           0.0000000000
     93342     14904  TIP3      OH2            27.0431075781       23.0215403117      -34.8163614446  TIP3      14504           0.0000000000
     93343     14904  TIP3      H1             26.1106724719       23.0581126140      -34.5144236131  TIP3      14504           0.0000000000
     93344     14904  TIP3      H2             27.5372750761       22.9225539987      -33.9889819656  TIP3      14504           0.0000000000
     93345     14905  TIP3      OH2            21.8649402770       24.6224552200      -35.9600446382  TIP3      14505           0.0000000000
     93346     14905  TIP3      H1             20.9664771187       24.7413146388      -36.3294092108  TIP3      14505           0.0000000000
     93347     14905  TIP3      H2             22.1541001439       23.7777406673      -36.3392074278  TIP3      14505           0.0000000000
     93348     14906  TIP3      OH2            25.5043172021       24.6443475099      -38.3167242770  TIP3      14506           0.0000000000
     93349     14906  TIP3      H1             26.4578258043       24.7611233484      -38.1415862430  TIP3      14506           0.0000000000
     93350     14906  TIP3      H2             25.2834681511       25.3123880628      -38.9891830779  TIP3      14506           0.0000000000
     93351     14907  TIP3      OH2            31.4523733931       22.2588941955      -31.5568632400  TIP3      14507           0.0000000000
     93352     14907  TIP3      H1             30.7574078541       22.3570635385      -30.8719430866  TIP3      14507           0.0000000000
     93353     14907  TIP3      H2             30.9466966139       22.0639611783      -32.3573629156  TIP3      14507           0.0000000000
     93354     14908  TIP3      OH2            24.1922811258       25.8255569942      -40.7380940068  TIP3      14508           0.0000000000
     93355     14908  TIP3      H1             23.6436798771       25.4547083732      -41.4506337284  TIP3      14508           0.0000000000
     93356     14908  TIP3      H2             25.0234205499       26.0279894952      -41.1979648692  TIP3      14508           0.0000000000
     93357     14909  TIP3      OH2            34.6855745964       37.9203288133      -25.2427645276  TIP3      14509           0.0000000000
     93358     14909  TIP3      H1             34.9323582804       38.3273989087      -26.0989278106  TIP3      14509           0.0000000000
     93359     14909  TIP3      H2             35.3931183226       38.2573188230      -24.6702272084  TIP3      14509           0.0000000000
     93360     14910  TIP3      OH2            22.3382400923       30.3923339378      -25.6935043096  TIP3      14510           0.0000000000
     93361     14910  TIP3      H1             23.0497604461       30.6370230075      -25.0717100469  TIP3      14510           0.0000000000
     93362     14910  TIP3      H2             21.5543679209       30.5541451498      -25.1230044073  TIP3      14510           0.0000000000
     93363     14911  TIP3      OH2            28.3394194112       25.8000006524      -32.9199407290  TIP3      14511           0.0000000000
     93364     14911  TIP3      H1             28.9225651355       25.2530528762      -33.4620194241  TIP3      14511           0.0000000000
     93365     14911  TIP3      H2             28.1991836153       25.2619708119      -32.1300399074  TIP3      14511           0.0000000000
     93366     14912  TIP3      OH2            23.3481033161       21.9464095068      -36.4888984985  TIP3      14512           0.0000000000
     93367     14912  TIP3      H1             23.0389096855       21.0219906032      -36.5239309736  TIP3      14512           0.0000000000
     93368     14912  TIP3      H2             24.1354946698       21.9116368034      -37.0471705768  TIP3      14512           0.0000000000
     93369     14913  TIP3      OH2            26.9777237609       24.1523743553      -30.5109855235  TIP3      14513           0.0000000000
     93370     14913  TIP3      H1             26.1407502172       24.6442169260      -30.4010089745  TIP3      14513           0.0000000000
     93371     14913  TIP3      H2             27.5147846157       24.4711490283      -29.7582933039  TIP3      14513           0.0000000000
     93372     14914  TIP3      OH2            27.5530491300       30.3794964428      -38.8130413421  TIP3      14514           0.0000000000
     93373     14914  TIP3      H1             26.7681360067       29.8822214559      -39.1368549294  TIP3      14514           0.0000000000
     93374     14914  TIP3      H2             27.3670799451       30.4467207339      -37.8564548769  TIP3      14514           0.0000000000
     93375     14915  TIP3      OH2            34.7042457381       29.5313419508      -30.0119629144  TIP3      14515           0.0000000000
     93376     14915  TIP3      H1             35.3090409851       30.0053984366      -30.6065908886  TIP3      14515           0.0000000000
     93377     14915  TIP3      H2             33.8557706758       29.6303111582      -30.4938468042  TIP3      14515           0.0000000000
     93378     14916  TIP3      OH2            31.4366386442       23.1766172567      -40.6368191103  TIP3      14516           0.0000000000
     93379     14916  TIP3      H1             30.4821452923       23.3146151822      -40.7800137232  TIP3      14516           0.0000000000
     93380     14916  TIP3      H2             31.7128221273       24.0521367137      -40.3031548400  TIP3      14516           0.0000000000
     93381     14917  TIP3      OH2            29.0458797445       30.5917197974      -27.5792455848  TIP3      14517           0.0000000000
     93382     14917  TIP3      H1             28.7035084916       30.1972094158      -26.7687611019  TIP3      14517           0.0000000000
     93383     14917  TIP3      H2             28.8268633300       31.5242559793      -27.4930155772  TIP3      14517           0.0000000000
     93384     14918  TIP3      OH2            32.1306164271       25.0785944116      -38.9565822974  TIP3      14518           0.0000000000
     93385     14918  TIP3      H1             33.0357786066       24.9433968696      -38.6168306874  TIP3      14518           0.0000000000
     93386     14918  TIP3      H2             32.1992641754       25.8844287492      -39.4884130623  TIP3      14518           0.0000000000
     93387     14919  TIP3      OH2            22.6518698342       29.7174935920      -33.0286182949  TIP3      14519           0.0000000000
     93388     14919  TIP3      H1             23.3818767109       29.6748572614      -33.6751072793  TIP3      14519           0.0000000000
     93389     14919  TIP3      H2             22.7291843112       28.8672516196      -32.5631301168  TIP3      14519           0.0000000000
     93390     14920  TIP3      OH2            29.6658825538       31.8420967549      -39.7817643707  TIP3      14520           0.0000000000
     93391     14920  TIP3      H1             29.3266875577       32.6797016277      -39.4082924810  TIP3      14520           0.0000000000
     93392     14920  TIP3      H2             28.9290758796       31.2214603651      -39.5866228686  TIP3      14520           0.0000000000
     93393     14921  TIP3      OH2            19.6570726921       28.1597447248      -27.7485341598  TIP3      14521           0.0000000000
     93394     14921  TIP3      H1             19.8627532496       27.7223803637      -26.8990781974  TIP3      14521           0.0000000000
     93395     14921  TIP3      H2             19.0427039351       27.5310372270      -28.1648210457  TIP3      14521           0.0000000000
     93396     14922  TIP3      OH2            26.6728008445       27.6965981492      -25.5483535674  TIP3      14522           0.0000000000
     93397     14922  TIP3      H1             26.3722696266       27.4618321573      -26.4343332268  TIP3      14522           0.0000000000
     93398     14922  TIP3      H2             27.6100117691       27.4281546188      -25.5509771774  TIP3      14522           0.0000000000
     93399     14923  TIP3      OH2            31.3234578464       33.0354914168      -27.6343714147  TIP3      14523           0.0000000000
     93400     14923  TIP3      H1             30.4008043941       33.2262633600      -27.8790626539  TIP3      14523           0.0000000000
     93401     14923  TIP3      H2             31.3169205861       33.3172303230      -26.7001154710  TIP3      14523           0.0000000000
     93402     14924  TIP3      OH2            37.0323940076       25.2468457705      -39.2351270234  TIP3      14524           0.0000000000
     93403     14924  TIP3      H1             36.4632207775       24.9083602689      -39.9415425109  TIP3      14524           0.0000000000
     93404     14924  TIP3      H2             37.1166483938       26.1885744953      -39.5161382483  TIP3      14524           0.0000000000
     93405     14925  TIP3      OH2            37.0076343547       31.0805120738      -26.4173733387  TIP3      14525           0.0000000000
     93406     14925  TIP3      H1             36.1287435562       31.3155331085      -26.8037012238  TIP3      14525           0.0000000000
     93407     14925  TIP3      H2             37.5783473949       31.0618472137      -27.2060498443  TIP3      14525           0.0000000000
     93408     14926  TIP3      OH2            35.3228786280       34.0673698209      -38.8116512517  TIP3      14526           0.0000000000
     93409     14926  TIP3      H1             34.9468136671       33.2389209271      -38.4918363216  TIP3      14526           0.0000000000
     93410     14926  TIP3      H2             35.6087992271       33.8774499103      -39.7215555325  TIP3      14526           0.0000000000
     93411     14927  TIP3      OH2            32.5016000476       28.8841725128      -31.7519880094  TIP3      14527           0.0000000000
     93412     14927  TIP3      H1             31.5585289850       28.6490832622      -31.8189789940  TIP3      14527           0.0000000000
     93413     14927  TIP3      H2             32.9373634101       28.0994821274      -32.1303715674  TIP3      14527           0.0000000000
     93414     14928  TIP3      OH2            25.0325763570       33.1985455413      -35.6355660406  TIP3      14528           0.0000000000
     93415     14928  TIP3      H1             25.5462155911       33.9952209471      -35.8423424695  TIP3      14528           0.0000000000
     93416     14928  TIP3      H2             24.1497317456       33.4371346819      -35.9518125666  TIP3      14528           0.0000000000
     93417     14929  TIP3      OH2            20.7746814077       28.0590751425      -41.0750955573  TIP3      14529           0.0000000000
     93418     14929  TIP3      H1             21.3992790806       28.6925651166      -40.6774117764  TIP3      14529           0.0000000000
     93419     14929  TIP3      H2             19.9076079043       28.3720196233      -40.7763738218  TIP3      14529           0.0000000000
     93420     14930  TIP3      OH2            26.4666952303       30.8628785130      -36.0852250183  TIP3      14530           0.0000000000
     93421     14930  TIP3      H1             26.1827898247       31.7949111339      -36.0195980560  TIP3      14530           0.0000000000
     93422     14930  TIP3      H2             25.7134699308       30.3991085155      -35.6671833477  TIP3      14530           0.0000000000
     93423     14931  TIP3      OH2            26.9260568939       35.0315903245      -29.7338030570  TIP3      14531           0.0000000000
     93424     14931  TIP3      H1             27.3429799289       35.8703579160      -29.9876310791  TIP3      14531           0.0000000000
     93425     14931  TIP3      H2             27.5113640409       34.7226616562      -29.0167514466  TIP3      14531           0.0000000000
     93426     14932  TIP3      OH2            25.1391097129       35.8751352365      -36.5506541075  TIP3      14532           0.0000000000
     93427     14932  TIP3      H1             24.1702883564       36.0027626659      -36.4566509594  TIP3      14532           0.0000000000
     93428     14932  TIP3      H2             25.4886439898       36.7131078567      -36.1924557162  TIP3      14532           0.0000000000
     93429     14933  TIP3      OH2            30.4813651275       31.0959221399      -30.0701187906  TIP3      14533           0.0000000000
     93430     14933  TIP3      H1             30.0899972469       30.8809864580      -29.2017820991  TIP3      14533           0.0000000000
     93431     14933  TIP3      H2             31.0890413960       30.3610385549      -30.2408168242  TIP3      14533           0.0000000000
     93432     14934  TIP3      OH2            32.7204316013       32.0669798963      -40.9794327226  TIP3      14534           0.0000000000
     93433     14934  TIP3      H1             33.0482174319       31.6523360703      -40.1567081531  TIP3      14534           0.0000000000
     93434     14934  TIP3      H2             31.7621756103       31.9423645664      -40.8862328988  TIP3      14534           0.0000000000
     93435     14935  TIP3      OH2            33.1985579787       35.6570285194      -27.5652085181  TIP3      14535           0.0000000000
     93436     14935  TIP3      H1             32.5610995529       35.1251176811      -28.0797135333  TIP3      14535           0.0000000000
     93437     14935  TIP3      H2             33.4406727810       36.3371026408      -28.2300195112  TIP3      14535           0.0000000000
     93438     14936  TIP3      OH2            37.2284186171       36.5072051251      -40.7534518302  TIP3      14536           0.0000000000
     93439     14936  TIP3      H1             37.9534146274       37.1281893976      -40.9425466176  TIP3      14536           0.0000000000
     93440     14936  TIP3      H2             36.5153556330       37.1065341212      -40.4440446736  TIP3      14536           0.0000000000
     93441     14937  TIP3      OH2            21.3109160139       22.9015133743      -28.1787592438  TIP3      14537           0.0000000000
     93442     14937  TIP3      H1             20.3965523215       23.2380745184      -28.2408735170  TIP3      14537           0.0000000000
     93443     14937  TIP3      H2             21.1906824344       22.0385836896      -27.7540643423  TIP3      14537           0.0000000000
     93444     14938  TIP3      OH2            33.5636576066       30.7383880194      -38.7613626106  TIP3      14538           0.0000000000
     93445     14938  TIP3      H1             33.3059710360       29.9726466622      -38.2038052734  TIP3      14538           0.0000000000
     93446     14938  TIP3      H2             34.5063723102       30.8256284438      -38.5397344127  TIP3      14538           0.0000000000
     93447     14939  TIP3      OH2            20.9399877573       34.7022916912      -29.7633080346  TIP3      14539           0.0000000000
     93448     14939  TIP3      H1             21.1844460836       33.7614608918      -29.7677049891  TIP3      14539           0.0000000000
     93449     14939  TIP3      H2             21.1942742808       34.9652696918      -28.8680686061  TIP3      14539           0.0000000000
     93450     14940  TIP3      OH2            25.7151516214       32.7374424370      -40.0768022526  TIP3      14540           0.0000000000
     93451     14940  TIP3      H1             25.9042624547       32.2035733603      -39.2955577094  TIP3      14540           0.0000000000
     93452     14940  TIP3      H2             25.7413147462       33.6553997965      -39.7498979809  TIP3      14540           0.0000000000
     93453     14941  TIP3      OH2            22.1791247364       29.9780732242      -39.5858289867  TIP3      14541           0.0000000000
     93454     14941  TIP3      H1             21.5026637297       30.3604480707      -38.9930088655  TIP3      14541           0.0000000000
     93455     14941  TIP3      H2             22.7248346059       30.7490470313      -39.8168235747  TIP3      14541           0.0000000000
     93456     14942  TIP3      OH2            30.0282283275       22.6574648172      -29.2762578537  TIP3      14542           0.0000000000
     93457     14942  TIP3      H1             30.7349804691       22.7160102067      -28.6210446515  TIP3      14542           0.0000000000
     93458     14942  TIP3      H2             29.6478018794       21.7747063314      -29.0964128389  TIP3      14542           0.0000000000
     93459     14943  TIP3      OH2            30.7916264559       22.2693608577      -38.1650232869  TIP3      14543           0.0000000000
     93460     14943  TIP3      H1             31.0335761467       22.7482153085      -38.9861889816  TIP3      14543           0.0000000000
     93461     14943  TIP3      H2             31.3712017679       22.6857216172      -37.5186212090  TIP3      14543           0.0000000000
     93462     14944  TIP3      OH2            28.4772570962       34.4096613642      -39.3275276370  TIP3      14544           0.0000000000
     93463     14944  TIP3      H1             27.6576395557       34.9280843956      -39.2751222258  TIP3      14544           0.0000000000
     93464     14944  TIP3      H2             29.0110697660       34.9116182029      -39.9653768313  TIP3      14544           0.0000000000
     93465     14945  TIP3      OH2            28.0061833339       24.0066213766      -37.3482610098  TIP3      14545           0.0000000000
     93466     14945  TIP3      H1             28.8172798674       24.5473370777      -37.3112304054  TIP3      14545           0.0000000000
     93467     14945  TIP3      H2             27.7572800107       23.8720994026      -36.4212677702  TIP3      14545           0.0000000000
     93468     14946  TIP3      OH2            28.5523772647       25.0069935293      -28.1655903751  TIP3      14546           0.0000000000
     93469     14946  TIP3      H1             28.6550059565       25.5875308080      -27.3894747651  TIP3      14546           0.0000000000
     93470     14946  TIP3      H2             29.2150503980       24.3146629445      -28.0579084453  TIP3      14546           0.0000000000
     93471     14947  TIP3      OH2            28.8801861016       21.0682558165      -36.4282117772  TIP3      14547           0.0000000000
     93472     14947  TIP3      H1             28.5476821670       21.7155356728      -35.7818727647  TIP3      14547           0.0000000000
     93473     14947  TIP3      H2             29.5587897573       21.6116437414      -36.9000777712  TIP3      14547           0.0000000000
     93474     14948  TIP3      OH2            25.8229878284       35.4470718072      -39.3354762357  TIP3      14548           0.0000000000
     93475     14948  TIP3      H1             25.9887816551       36.2733726234      -39.8344348560  TIP3      14548           0.0000000000
     93476     14948  TIP3      H2             25.6103462868       35.7830206729      -38.4397301970  TIP3      14548           0.0000000000
     93477     14949  TIP3      OH2            24.5376704218       22.1439147203      -39.7324640294  TIP3      14549           0.0000000000
     93478     14949  TIP3      H1             24.4695173793       23.0570008008      -39.3748018800  TIP3      14549           0.0000000000
     93479     14949  TIP3      H2             25.4469673760       21.9097579601      -39.4727727924  TIP3      14549           0.0000000000
     93480     14950  TIP3      OH2            34.7624951073       22.8917234868      -27.3058528221  TIP3      14550           0.0000000000
     93481     14950  TIP3      H1             33.8240719751       23.1853865556      -27.4279170852  TIP3      14550           0.0000000000
     93482     14950  TIP3      H2             35.0683470486       22.8989476924      -28.2256012276  TIP3      14550           0.0000000000
     93483     14951  TIP3      OH2            33.3530427886       26.6742145715      -33.2603951394  TIP3      14551           0.0000000000
     93484     14951  TIP3      H1             32.5404502174       26.2374897280      -33.5674612188  TIP3      14551           0.0000000000
     93485     14951  TIP3      H2             33.8150009860       25.9712706920      -32.7510037390  TIP3      14551           0.0000000000
     93486     14952  TIP3      OH2            22.7848928300       32.5925916609      -40.6762694553  TIP3      14552           0.0000000000
     93487     14952  TIP3      H1             23.4110113190       33.2674750112      -40.3913816539  TIP3      14552           0.0000000000
     93488     14952  TIP3      H2             23.2837053019       32.1455481588      -41.3869883451  TIP3      14552           0.0000000000
     93489     14953  TIP3      OH2            21.1408334216       25.2589973623      -41.5238931883  TIP3      14553           0.0000000000
     93490     14953  TIP3      H1             21.0945421084       26.2184445301      -41.3769054836  TIP3      14553           0.0000000000
     93491     14953  TIP3      H2             20.2537975754       25.0377020483      -41.8371182072  TIP3      14553           0.0000000000
     93492     14954  TIP3      OH2            34.4226895812       35.9125552830      -31.6101385069  TIP3      14554           0.0000000000
     93493     14954  TIP3      H1             34.3047281532       36.6065794595      -32.2888386871  TIP3      14554           0.0000000000
     93494     14954  TIP3      H2             35.3834188965       35.9916861072      -31.4260354051  TIP3      14554           0.0000000000
     93495     14955  TIP3      OH2            21.9316635694       20.0502256766      -32.8479134541  TIP3      14555           0.0000000000
     93496     14955  TIP3      H1             21.7050114455       20.0852645079      -33.8034111402  TIP3      14555           0.0000000000
     93497     14955  TIP3      H2             21.4889301553       19.2236212999      -32.5703604280  TIP3      14555           0.0000000000
     93498     14956  TIP3      OH2            20.8718863723       33.9688184559      -36.6963837551  TIP3      14556           0.0000000000
     93499     14956  TIP3      H1             20.0272449151       34.4446821859      -36.7013639047  TIP3      14556           0.0000000000
     93500     14956  TIP3      H2             21.3866074757       34.4729862515      -37.3395874834  TIP3      14556           0.0000000000
     93501     14957  TIP3      OH2            20.1219512018       36.6052094676      -25.3832865603  TIP3      14557           0.0000000000
     93502     14957  TIP3      H1             20.7035274076       36.3898040140      -24.6384445075  TIP3      14557           0.0000000000
     93503     14957  TIP3      H2             19.6720944195       35.7724930013      -25.5939411574  TIP3      14557           0.0000000000
     93504     14958  TIP3      OH2            24.7435764653       35.5366922704      -23.7559400021  TIP3      14558           0.0000000000
     93505     14958  TIP3      H1             25.5127931674       35.0385141977      -23.4389970490  TIP3      14558           0.0000000000
     93506     14958  TIP3      H2             24.7217804347       35.2700226753      -24.6988946993  TIP3      14558           0.0000000000
     93507     14959  TIP3      OH2            29.1693560773       35.1706461251      -41.8976697588  TIP3      14559           0.0000000000
     93508     14959  TIP3      H1             28.3710060059       34.5836513483      -41.9661659222  TIP3      14559           0.0000000000
     93509     14959  TIP3      H2             29.6383360663       34.6074395039      -42.5205875338  TIP3      14559           0.0000000000
     93510     14960  TIP3      OH2            31.3039253050       33.9081822003      -25.0419943740  TIP3      14560           0.0000000000
     93511     14960  TIP3      H1             30.9639745104       33.0243150743      -24.7787720207  TIP3      14560           0.0000000000
     93512     14960  TIP3      H2             32.0501229325       34.0238350768      -24.4402487813  TIP3      14560           0.0000000000
     93513     14961  TIP3      OH2            33.4437705783       34.8329920511      -42.1717979324  TIP3      14561           0.0000000000
     93514     14961  TIP3      H1             33.7274694746       34.0275558475      -41.7000493865  TIP3      14561           0.0000000000
     93515     14961  TIP3      H2             34.2075036983       35.0564547998      -42.7185853569  TIP3      14561           0.0000000000
     93516     14962  TIP3      OH2            20.0240934065       30.4156162215      -24.4184174932  TIP3      14562           0.0000000000
     93517     14962  TIP3      H1             20.2000288709       29.4962566931      -24.7168916887  TIP3      14562           0.0000000000
     93518     14962  TIP3      H2             19.2603882692       30.6687786141      -24.9544930299  TIP3      14562           0.0000000000
     93519     14963  TIP3      OH2            24.4253668058       30.7975148734      -42.2567311426  TIP3      14563           0.0000000000
     93520     14963  TIP3      H1             24.4738191447       29.9562915083      -41.7863212931  TIP3      14563           0.0000000000
     93521     14963  TIP3      H2             25.0261998079       30.5946274204      -43.0057533426  TIP3      14563           0.0000000000
     93522     14964  TIP3      OH2            26.7338551810       30.3841405731      -25.0036958155  TIP3      14564           0.0000000000
     93523     14964  TIP3      H1             26.3727105044       30.6645765786      -25.8616413892  TIP3      14564           0.0000000000
     93524     14964  TIP3      H2             26.8229842339       29.4084031715      -25.0867881942  TIP3      14564           0.0000000000
     93525     14965  TIP3      OH2            32.4283720086       30.2604878098      -27.6078245178  TIP3      14565           0.0000000000
     93526     14965  TIP3      H1             33.1947659726       30.8654431267      -27.7192309137  TIP3      14565           0.0000000000
     93527     14965  TIP3      H2             31.6949360237       30.8891192404      -27.5694373257  TIP3      14565           0.0000000000
     93528     14966  TIP3      OH2            20.8700607067       27.5975099088      -25.0177706717  TIP3      14566           0.0000000000
     93529     14966  TIP3      H1             21.3124588199       26.7529637940      -25.1343746840  TIP3      14566           0.0000000000
     93530     14966  TIP3      H2             20.6440148714       27.6257715602      -24.0728272010  TIP3      14566           0.0000000000
     93531     14967  TIP3      OH2            25.5489674438       28.7564839358      -39.9812951492  TIP3      14567           0.0000000000
     93532     14967  TIP3      H1             25.0739791994       28.2339723946      -39.3138552169  TIP3      14567           0.0000000000
     93533     14967  TIP3      H2             25.8241307627       28.0569498959      -40.6241414713  TIP3      14567           0.0000000000
     93534     14968  TIP3      OH2            24.8283209316       26.5869290412      -27.6388023432  TIP3      14568           0.0000000000
     93535     14968  TIP3      H1             24.2171561534       27.2938896233      -27.3704849023  TIP3      14568           0.0000000000
     93536     14968  TIP3      H2             25.1889274267       26.9378179568      -28.4710903110  TIP3      14568           0.0000000000
     93537     14969  TIP3      OH2            26.6151653000       26.9624564651      -41.7256606793  TIP3      14569           0.0000000000
     93538     14969  TIP3      H1             26.4613387637       26.8053977921      -42.6746951233  TIP3      14569           0.0000000000
     93539     14969  TIP3      H2             27.5902670569       27.0701373420      -41.6769649622  TIP3      14569           0.0000000000
     93540     14970  TIP3      OH2            29.8661315018       29.1166050352      -24.3259291265  TIP3      14570           0.0000000000
     93541     14970  TIP3      H1             30.8275239561       29.1391317234      -24.3974560671  TIP3      14570           0.0000000000
     93542     14970  TIP3      H2             29.6973314609       28.3689221428      -23.7285002616  TIP3      14570           0.0000000000
     93543     14971  TIP3      OH2            35.8873712290       29.3754625526       42.7712203307  TIP3      14571           0.0000000000
     93544     14971  TIP3      H1             35.7263866297       28.9180948026       41.9268374489  TIP3      14571           0.0000000000
     93545     14971  TIP3      H2             36.0421007057       30.2883715740       42.4994458916  TIP3      14571           0.0000000000
     93546     14972  TIP3      OH2            25.1928050163       23.9588176949      -26.5492206970  TIP3      14572           0.0000000000
     93547     14972  TIP3      H1             25.3235788275       23.2346374990      -27.1868229779  TIP3      14572           0.0000000000
     93548     14972  TIP3      H2             25.1751825998       24.7519640917      -27.1254690496  TIP3      14572           0.0000000000
     93549     14973  TIP3      OH2            25.6054222876       22.3295706219      -29.0452799969  TIP3      14573           0.0000000000
     93550     14973  TIP3      H1             26.1298148379       22.7914475842      -29.7389058445  TIP3      14573           0.0000000000
     93551     14973  TIP3      H2             24.7245245633       22.2357430239      -29.4765279663  TIP3      14573           0.0000000000
     93552     14974  TIP3      OH2            27.1659531009       27.7837524426      -28.8113904361  TIP3      14574           0.0000000000
     93553     14974  TIP3      H1             27.9196873063       27.6291442019      -29.3900882022  TIP3      14574           0.0000000000
     93554     14974  TIP3      H2             26.8186464290       28.6376458531      -29.1129450548  TIP3      14574           0.0000000000
     93555     14975  TIP3      OH2            31.5632397896       25.5705196646      -23.8174334661  TIP3      14575           0.0000000000
     93556     14975  TIP3      H1             31.8047980960       24.6500664827      -23.9168321822  TIP3      14575           0.0000000000
     93557     14975  TIP3      H2             32.4329325975       26.0187982568      -23.8044335672  TIP3      14575           0.0000000000
     93558     14976  TIP3      OH2            32.8885158623       28.3632531066      -25.7026415202  TIP3      14576           0.0000000000
     93559     14976  TIP3      H1             32.6346719911       29.0954176137      -26.3073751032  TIP3      14576           0.0000000000
     93560     14976  TIP3      H2             33.8548003956       28.3178899240      -25.8739688905  TIP3      14576           0.0000000000
     93561     14977  TIP3      OH2            23.6437416773       25.1748692756      -24.6428324389  TIP3      14577           0.0000000000
     93562     14977  TIP3      H1             22.8941174121       24.6104103039      -24.8816970724  TIP3      14577           0.0000000000
     93563     14977  TIP3      H2             24.3279184828       24.8468055259      -25.2648563113  TIP3      14577           0.0000000000
     93564     14978  TIP3      OH2            26.4060167435       19.7661613784      -28.6347485975  TIP3      14578           0.0000000000
     93565     14978  TIP3      H1             26.2695172000       20.7371040155      -28.7415219600  TIP3      14578           0.0000000000
     93566     14978  TIP3      H2             25.6394433540       19.4199495445      -29.1233960429  TIP3      14578           0.0000000000
     93567     14979  TIP3      OH2            27.6852819986       24.0731556463      -25.0621005918  TIP3      14579           0.0000000000
     93568     14979  TIP3      H1             27.3819442826       23.8935138427      -24.1531728082  TIP3      14579           0.0000000000
     93569     14979  TIP3      H2             26.8701219799       23.9069127846      -25.5793749801  TIP3      14579           0.0000000000
     93570     14980  TIP3      OH2            30.3857079037       23.2364303038      -25.9795527700  TIP3      14580           0.0000000000
     93571     14980  TIP3      H1             29.4210312344       23.2770297816      -25.8526498565  TIP3      14580           0.0000000000
     93572     14980  TIP3      H2             30.6793618171       22.5982046991      -25.3149621433  TIP3      14580           0.0000000000
     93573     14981  TIP3      OH2            31.9844656075       21.8853873384      -23.9868046276  TIP3      14581           0.0000000000
     93574     14981  TIP3      H1             31.9147690793       20.9011553162      -24.0172089631  TIP3      14581           0.0000000000
     93575     14981  TIP3      H2             31.6967919452       22.1302038004      -23.1164323762  TIP3      14581           0.0000000000
     93576     14982  TIP3      OH2            21.8068677953       23.1180135568      -24.9267764378  TIP3      14582           0.0000000000
     93577     14982  TIP3      H1             22.0344091025       22.3866727425      -25.5462295880  TIP3      14582           0.0000000000
     93578     14982  TIP3      H2             21.7172763592       22.6329879832      -24.0912820312  TIP3      14582           0.0000000000
     93579     14983  TIP3      OH2            26.6135491479       19.1164054805      -25.9498305626  TIP3      14583           0.0000000000
     93580     14983  TIP3      H1             27.3243349890       18.4409005729      -25.9811039562  TIP3      14583           0.0000000000
     93581     14983  TIP3      H2             26.5176486404       19.3287779765      -26.8942308545  TIP3      14583           0.0000000000
     93582     14984  TIP3      OH2            26.9959723280       20.7799445689      -23.8911070553  TIP3      14584           0.0000000000
     93583     14984  TIP3      H1             26.8322398249       20.2779587696      -24.7228908069  TIP3      14584           0.0000000000
     93584     14984  TIP3      H2             26.3664214144       21.5206098278      -23.9514267288  TIP3      14584           0.0000000000
     93585     14985  TIP3      OH2            26.4841616743       37.6584433669      -40.7336416977  TIP3      14585           0.0000000000
     93586     14985  TIP3      H1             27.4482851892       37.7984663090      -40.5917457830  TIP3      14585           0.0000000000
     93587     14985  TIP3      H2             26.2654171707       38.3375973778      -41.3672201140  TIP3      14585           0.0000000000
     93588     14986  TIP3      OH2            20.0518516212       32.2835030058      -41.2231873102  TIP3      14586           0.0000000000
     93589     14986  TIP3      H1             21.0051655380       32.3632795141      -40.9789989043  TIP3      14586           0.0000000000
     93590     14986  TIP3      H2             20.0846818574       31.6273926010      -41.9266422541  TIP3      14586           0.0000000000
     93591     14987  TIP3      OH2            18.7671164232       37.6691173652      -36.2030385745  TIP3      14587           0.0000000000
     93592     14987  TIP3      H1             18.0768382993       37.1868726703      -36.7040968490  TIP3      14587           0.0000000000
     93593     14987  TIP3      H2             19.0791584217       36.9957120643      -35.5757141465  TIP3      14587           0.0000000000
     93594     14988  TIP3      OH2            19.6080093016       35.7679114929      -34.3743062628  TIP3      14588           0.0000000000
     93595     14988  TIP3      H1             19.2645035093       34.8840693455      -34.1794453764  TIP3      14588           0.0000000000
     93596     14988  TIP3      H2             19.8389847866       36.0988848393      -33.4900058543  TIP3      14588           0.0000000000
     93597     14989  TIP3      OH2            37.1435056033       36.5669154975      -31.4057792907  TIP3      14589           0.0000000000
     93598     14989  TIP3      H1             37.1515428388       36.7508194606      -30.4505225667  TIP3      14589           0.0000000000
     93599     14989  TIP3      H2             37.8472740847       37.1453686298      -31.7226143655  TIP3      14589           0.0000000000
     93600     14990  TIP3      OH2            36.7251783687       36.1662308191      -28.4743033092  TIP3      14590           0.0000000000
     93601     14990  TIP3      H1             36.2348923639       35.3948634824      -28.8370879364  TIP3      14590           0.0000000000
     93602     14990  TIP3      H2             37.2489380903       35.7305460669      -27.7835767872  TIP3      14590           0.0000000000
     93603     14991  TIP3      OH2            35.1712937843       31.9105910983      -23.8239809447  TIP3      14591           0.0000000000
     93604     14991  TIP3      H1             34.2953661586       31.8254180021      -23.4210729346  TIP3      14591           0.0000000000
     93605     14991  TIP3      H2             35.5347679083       32.6975091331      -23.3714317635  TIP3      14591           0.0000000000
     93606     14992  TIP3      OH2            36.4723007374       30.2012716402      -38.3473572949  TIP3      14592           0.0000000000
     93607     14992  TIP3      H1             37.3305393891       30.6110439281      -38.1707654899  TIP3      14592           0.0000000000
     93608     14992  TIP3      H2             36.4727395421       29.4615995387      -37.6958733383  TIP3      14592           0.0000000000
     93609     14993  TIP3      OH2            36.8506106405       28.2679720456      -36.4971976000  TIP3      14593           0.0000000000
     93610     14993  TIP3      H1             36.1122110023       27.7628002370      -36.0922079037  TIP3      14593           0.0000000000
     93611     14993  TIP3      H2             37.4464506707       28.4379329415      -35.7391571347  TIP3      14593           0.0000000000
     93612     14994  TIP3      OH2            36.6034448386       31.0009679144      -31.5193407183  TIP3      14594           0.0000000000
     93613     14994  TIP3      H1             37.4445356887       30.6353342014      -31.8502058292  TIP3      14594           0.0000000000
     93614     14994  TIP3      H2             36.7410219905       31.9621885898      -31.6695529026  TIP3      14594           0.0000000000
     93615     14995  TIP3      OH2            35.1390211357       33.8963677961      -29.2303637693  TIP3      14595           0.0000000000
     93616     14995  TIP3      H1             34.4575478543       34.2293838260      -28.6227016292  TIP3      14595           0.0000000000
     93617     14995  TIP3      H2             34.5906691675       33.4714584070      -29.9252410184  TIP3      14595           0.0000000000
     93618     14996  TIP3      OH2            37.1311978585       28.1092532396      -40.1112159108  TIP3      14596           0.0000000000
     93619     14996  TIP3      H1             36.5838260552       28.5021862510      -40.8131816307  TIP3      14596           0.0000000000
     93620     14996  TIP3      H2             37.0835051260       28.8129991836      -39.4297721841  TIP3      14596           0.0000000000
     93621     14997  TIP3      OH2            35.2440829605       25.3858076843      -41.4920352692  TIP3      14597           0.0000000000
     93622     14997  TIP3      H1             35.5814025152       26.0273288109      -42.1454010254  TIP3      14597           0.0000000000
     93623     14997  TIP3      H2             35.3323913720       24.5480089162      -41.9501689949  TIP3      14597           0.0000000000
     93624     14998  TIP3      OH2            34.6563268763       26.7658270621      -35.9305018830  TIP3      14598           0.0000000000
     93625     14998  TIP3      H1             34.5019002172       25.8097656446      -35.9471577169  TIP3      14598           0.0000000000
     93626     14998  TIP3      H2             34.3041587598       27.0190590255      -35.0617313072  TIP3      14598           0.0000000000
     93627     14999  TIP3      OH2            19.6678316267       28.8475950268      -31.8852305575  TIP3      14599           0.0000000000
     93628     14999  TIP3      H1             19.8663703235       28.7615777662      -32.8440327688  TIP3      14599           0.0000000000
     93629     14999  TIP3      H2             20.5526140106       28.6982751440      -31.4995587599  TIP3      14599           0.0000000000
     93630     15000  TIP3      OH2            35.4925070105       28.7342496537      -26.2675076839  TIP3      14600           0.0000000000
     93631     15000  TIP3      H1             36.1048557369       27.9857477383      -26.0908169585  TIP3      14600           0.0000000000
     93632     15000  TIP3      H2             36.0948798314       29.5040923452      -26.2429790276  TIP3      14600           0.0000000000
     93633     15001  TIP3      OH2            37.0150801070       26.6404311021      -25.6056815654  TIP3      14601           0.0000000000
     93634     15001  TIP3      H1             36.1327086328       26.2371443089      -25.7558588849  TIP3      14601           0.0000000000
     93635     15001  TIP3      H2             37.5982430610       25.8708471521      -25.6818330936  TIP3      14601           0.0000000000
     93636     15002  TIP3      OH2            34.7451347894       22.7848612037      -42.4567506714  TIP3      14602           0.0000000000
     93637     15002  TIP3      H1             35.3340787598       22.3779408803      -41.7809860539  TIP3      14602           0.0000000000
     93638     15002  TIP3      H2             33.8791435227       22.3802598750      -42.2383089539  TIP3      14602           0.0000000000
     93639     15003  TIP3      OH2            34.3385445684       24.3535202132      -37.4550171831  TIP3      14603           0.0000000000
     93640     15003  TIP3      H1             34.6439037893       23.4241779126      -37.3380330813  TIP3      14603           0.0000000000
     93641     15003  TIP3      H2             35.1185900427       24.7661876677      -37.8517797343  TIP3      14603           0.0000000000
     93642     15004  TIP3      OH2            34.9599843262       24.8984452085      -32.0292891488  TIP3      14604           0.0000000000
     93643     15004  TIP3      H1             35.9175174901       25.1355120637      -32.0469569547  TIP3      14604           0.0000000000
     93644     15004  TIP3      H2             34.7554650398       25.0334486111      -31.0903257896  TIP3      14604           0.0000000000
     93645     15005  TIP3      OH2            35.0192506484       25.6268894388      -29.2525026173  TIP3      14605           0.0000000000
     93646     15005  TIP3      H1             34.1541162206       25.9217600078      -28.8900836241  TIP3      14605           0.0000000000
     93647     15005  TIP3      H2             35.4542842067       26.4877320031      -29.4632871314  TIP3      14605           0.0000000000
     93648     15006  TIP3      OH2            19.2786898502       24.1405193983      -25.7303570761  TIP3      14606           0.0000000000
     93649     15006  TIP3      H1             20.2167782823       23.9586283688      -25.5452633284  TIP3      14606           0.0000000000
     93650     15006  TIP3      H2             18.8214928127       23.3341577853      -25.4037450278  TIP3      14606           0.0000000000
     93651     15007  TIP3      OH2            37.2898290597       19.6473008150      -23.8848123787  TIP3      14607           0.0000000000
     93652     15007  TIP3      H1             37.6378608171       18.9913602404      -24.5079233596  TIP3      14607           0.0000000000
     93653     15007  TIP3      H2             37.4350982427       20.4799539951      -24.3550345269  TIP3      14607           0.0000000000
     93654     15008  TIP3      OH2            34.9852124413       21.6251123991      -37.4144228241  TIP3      14608           0.0000000000
     93655     15008  TIP3      H1             35.1762316207       21.1655693255      -36.5737846416  TIP3      14608           0.0000000000
     93656     15008  TIP3      H2             34.3754699384       21.0066936153      -37.8764177941  TIP3      14608           0.0000000000
     93657     15009  TIP3      OH2            20.4859430002       22.4317045097      -32.8778781986  TIP3      14609           0.0000000000
     93658     15009  TIP3      H1             20.9505711913       21.6215233571      -32.5850463330  TIP3      14609           0.0000000000
     93659     15009  TIP3      H2             20.9920220529       23.1397062917      -32.4564880164  TIP3      14609           0.0000000000
     93660     15010  TIP3      OH2            18.7771779920       25.4202905274      -31.8108629779  TIP3      14610           0.0000000000
     93661     15010  TIP3      H1             19.3191742461       25.2016814441      -32.5981738230  TIP3      14610           0.0000000000
     93662     15010  TIP3      H2             19.1960103555       26.2535871347      -31.5441662036  TIP3      14610           0.0000000000
     93663     15011  TIP3      OH2            36.8242201758       21.7608259964      -25.5318884713  TIP3      14611           0.0000000000
     93664     15011  TIP3      H1             35.8852918854       22.0257897873      -25.6008875831  TIP3      14611           0.0000000000
     93665     15011  TIP3      H2             36.8991890371       21.2184793811      -26.3342104113  TIP3      14611           0.0000000000
     93666     15012  TIP3      OH2            36.8083595069       21.7024333923      -40.9034362281  TIP3      14612           0.0000000000
     93667     15012  TIP3      H1             37.2576778340       20.9599260006      -41.3497828798  TIP3      14612           0.0000000000
     93668     15012  TIP3      H2             37.5471353829       22.3319676248      -40.8143105765  TIP3      14612           0.0000000000
     93669     15013  TIP3      OH2            19.1286646581       21.6835704616      -37.7563103057  TIP3      14613           0.0000000000
     93670     15013  TIP3      H1             18.1908779028       21.8909605705      -37.8891439346  TIP3      14613           0.0000000000
     93671     15013  TIP3      H2             19.5652703369       22.1797227021      -38.4660236568  TIP3      14613           0.0000000000
     93672     15014  TIP3      OH2            33.8719050519       36.6552879887      -35.8032978755  TIP3      14614           0.0000000000
     93673     15014  TIP3      H1             34.5500453840       36.3261188322      -36.4206633287  TIP3      14614           0.0000000000
     93674     15014  TIP3      H2             34.4001909194       37.1507023850      -35.1599391351  TIP3      14614           0.0000000000
     93675     15015  TIP3      OH2            19.0922333546       20.3920052659      -29.4284319216  TIP3      14615           0.0000000000
     93676     15015  TIP3      H1             18.4113025048       20.1704918086      -28.7695994223  TIP3      14615           0.0000000000
     93677     15015  TIP3      H2             18.6282395119       21.0444070130      -29.9956357139  TIP3      14615           0.0000000000
     93678     15016  TIP3      OH2            21.2820033295       33.5769767779      -25.2678018397  TIP3      14616           0.0000000000
     93679     15016  TIP3      H1             20.4499740567       33.7655609661      -25.7300298018  TIP3      14616           0.0000000000
     93680     15016  TIP3      H2             21.0282708614       33.4995570798      -24.3528522518  TIP3      14616           0.0000000000
     93681     15017  TIP3      OH2            24.2165560982       34.5548986121      -29.0070284092  TIP3      14617           0.0000000000
     93682     15017  TIP3      H1             23.8337837435       35.3979678132      -29.2931605441  TIP3      14617           0.0000000000
     93683     15017  TIP3      H2             25.1413595536       34.6583343031      -29.3189011259  TIP3      14617           0.0000000000
     93684     15018  TIP3      OH2            28.5422310294       35.9602409977      -26.0823773367  TIP3      14618           0.0000000000
     93685     15018  TIP3      H1             28.7205045763       35.6402351411      -25.1650705089  TIP3      14618           0.0000000000
     93686     15018  TIP3      H2             29.4163583281       36.2883189379      -26.3647161901  TIP3      14618           0.0000000000
     93687     15019  TIP3      OH2            30.8511164380       37.2466526652      -26.8120047206  TIP3      14619           0.0000000000
     93688     15019  TIP3      H1             31.5678985280       36.6342932501      -27.0409583179  TIP3      14619           0.0000000000
     93689     15019  TIP3      H2             31.2123541108       37.6609348409      -25.9981123323  TIP3      14619           0.0000000000
     93690     15020  TIP3      OH2            35.8296922987       19.8641029511      -27.7159975217  TIP3      14620           0.0000000000
     93691     15020  TIP3      H1             34.9934883376       20.1591753527      -28.1178746896  TIP3      14620           0.0000000000
     93692     15020  TIP3      H2             36.0218035611       19.0599230788      -28.2483041575  TIP3      14620           0.0000000000
     93693     15021  TIP3      OH2            21.6480890694       37.7957115549      -28.9869598899  TIP3      14621           0.0000000000
     93694     15021  TIP3      H1             20.9203164073       38.2815239214      -29.4049702074  TIP3      14621           0.0000000000
     93695     15021  TIP3      H2             21.2964529055       37.5870803503      -28.1096937671  TIP3      14621           0.0000000000
     93696     15022  TIP3      OH2            24.1108233408       37.3965658706      -29.9328757132  TIP3      14622           0.0000000000
     93697     15022  TIP3      H1             23.2178050522       37.5083728182      -29.5332910512  TIP3      14622           0.0000000000
     93698     15022  TIP3      H2             24.0446162610       37.9735066658      -30.7195251601  TIP3      14622           0.0000000000
     93699     15023  TIP3      OH2            28.8140508455       37.2957064322      -30.7651907966  TIP3      14623           0.0000000000
     93700     15023  TIP3      H1             28.3508300135       37.8434733829      -31.4177922863  TIP3      14623           0.0000000000
     93701     15023  TIP3      H2             28.9650224177       37.9254556382      -30.0298442035  TIP3      14623           0.0000000000
     93702     15024  TIP3      OH2            31.1335863823       36.1457903942      -29.7887047767  TIP3      14624           0.0000000000
     93703     15024  TIP3      H1             30.2397976819       36.3682657877      -30.0940119712  TIP3      14624           0.0000000000
     93704     15024  TIP3      H2             31.5716648063       37.0112389464      -29.8694415648  TIP3      14624           0.0000000000
     93705     15025  TIP3      OH2            33.7206962004       37.7138409110      -29.5065432712  TIP3      14625           0.0000000000
     93706     15025  TIP3      H1             33.5868544167       38.6658079420      -29.7418001148  TIP3      14625           0.0000000000
     93707     15025  TIP3      H2             33.9125679577       37.3359881394      -30.3848997766  TIP3      14625           0.0000000000
     93708     15026  TIP3      OH2            21.0509347654       36.4602484924      -32.0596172439  TIP3      14626           0.0000000000
     93709     15026  TIP3      H1             21.0282875737       35.9987939143      -31.1943915907  TIP3      14626           0.0000000000
     93710     15026  TIP3      H2             21.8749511130       36.1078584260      -32.4634543195  TIP3      14626           0.0000000000
     93711     15027  TIP3      OH2            23.1721742259       35.1654723470      -33.4137235491  TIP3      14627           0.0000000000
     93712     15027  TIP3      H1             22.9877652293       34.2295998243      -33.2122214955  TIP3      14627           0.0000000000
     93713     15027  TIP3      H2             24.0252222353       35.2977437724      -32.9415020041  TIP3      14627           0.0000000000
     93714     15028  TIP3      OH2            25.7442187966       35.6425467000      -32.5504484378  TIP3      14628           0.0000000000
     93715     15028  TIP3      H1             25.9414007282       34.7285284959      -32.8231790331  TIP3      14628           0.0000000000
     93716     15028  TIP3      H2             25.8062874769       35.5813318436      -31.5880968584  TIP3      14628           0.0000000000
     93717     15029  TIP3      OH2            29.2403183600       21.2930756974      -33.3975628292  TIP3      14629           0.0000000000
     93718     15029  TIP3      H1             28.5533894064       20.6577483349      -33.1463430055  TIP3      14629           0.0000000000
     93719     15029  TIP3      H2             29.7936114254       20.7918220481      -34.0073465741  TIP3      14629           0.0000000000
     93720     15030  TIP3      OH2            34.3712879295       19.3693481161      -33.3018229174  TIP3      14630           0.0000000000
     93721     15030  TIP3      H1             34.9901694282       19.9459196056      -33.8180442804  TIP3      14630           0.0000000000
     93722     15030  TIP3      H2             33.4992075148       19.7197191469      -33.5529136609  TIP3      14630           0.0000000000
     93723     15031  TIP3      OH2            36.0621025383       20.5586713890      -35.0008795377  TIP3      14631           0.0000000000
     93724     15031  TIP3      H1             36.7278103331       20.0128860166      -35.4846295338  TIP3      14631           0.0000000000
     93725     15031  TIP3      H2             36.5165545235       21.4260839075      -34.9439827858  TIP3      14631           0.0000000000
     93726     15032  TIP3      OH2            21.5839699260       19.9328813020      -35.5694140037  TIP3      14632           0.0000000000
     93727     15032  TIP3      H1             20.7912789287       19.6973453308      -36.0890563172  TIP3      14632           0.0000000000
     93728     15032  TIP3      H2             22.0823277338       19.0948121942      -35.5944482183  TIP3      14632           0.0000000000
     93729     15033  TIP3      OH2            20.3792368171       19.6958857198      -39.7984345045  TIP3      14633           0.0000000000
     93730     15033  TIP3      H1             20.8461664045       20.3312100782      -40.3772446673  TIP3      14633           0.0000000000
     93731     15033  TIP3      H2             19.7778997839       20.2637210526      -39.2932802115  TIP3      14633           0.0000000000
     93732     15034  TIP3      OH2            26.1098279673       19.8473244903      -35.7776716676  TIP3      14634           0.0000000000
     93733     15034  TIP3      H1             27.0035300161       20.2324302615      -35.8155053661  TIP3      14634           0.0000000000
     93734     15034  TIP3      H2             26.0163488863       19.6420137267      -34.8486746453  TIP3      14634           0.0000000000
     93735     15035  TIP3      OH2            31.7275391269       19.8750379205      -34.1232687738  TIP3      14635           0.0000000000
     93736     15035  TIP3      H1             31.7662064062       19.9781444754      -35.0833434586  TIP3      14635           0.0000000000
     93737     15035  TIP3      H2             31.4155555371       18.9584392217      -34.0073642508  TIP3      14635           0.0000000000
     93738     15036  TIP3      OH2            33.0623512222       19.9059743302      -38.4518912942  TIP3      14636           0.0000000000
     93739     15036  TIP3      H1             32.3322334531       20.5122488725      -38.6405659831  TIP3      14636           0.0000000000
     93740     15036  TIP3      H2             32.6057001433       19.0495308939      -38.2849078539  TIP3      14636           0.0000000000
     93741     15037  TIP3      OH2            20.3074106356       35.6426033349      -38.8472880456  TIP3      14637           0.0000000000
     93742     15037  TIP3      H1             19.6147775330       35.6379717230      -39.5418246355  TIP3      14637           0.0000000000
     93743     15037  TIP3      H2             20.2996568788       36.5847672629      -38.6240988294  TIP3      14637           0.0000000000
     93744     15038  TIP3      OH2            22.2288831639       21.6002988808      -41.3253166230  TIP3      14638           0.0000000000
     93745     15038  TIP3      H1             22.7495002751       21.0023304969      -41.8606321906  TIP3      14638           0.0000000000
     93746     15038  TIP3      H2             22.8789203189       21.9446172620      -40.6869100419  TIP3      14638           0.0000000000
     93747     15039  TIP3      OH2            27.2594692800       21.8965042378      -38.9106934304  TIP3      14639           0.0000000000
     93748     15039  TIP3      H1             27.4772051064       21.2891131729      -38.1838969886  TIP3      14639           0.0000000000
     93749     15039  TIP3      H2             27.2583794236       22.7519774238      -38.4179361230  TIP3      14639           0.0000000000
     93750     15040  TIP3      OH2            29.1319848561       37.0589664409      -40.3963728801  TIP3      14640           0.0000000000
     93751     15040  TIP3      H1             30.0567973116       37.2226286168      -40.6474047880  TIP3      14640           0.0000000000
     93752     15040  TIP3      H2             28.9428814735       36.4836167661      -41.1971358633  TIP3      14640           0.0000000000
     93753     15041  TIP3      OH2            35.8781993973       36.4468741588      -37.7756498712  TIP3      14641           0.0000000000
     93754     15041  TIP3      H1             35.6679563418       35.6779535881      -38.3622434664  TIP3      14641           0.0000000000
     93755     15041  TIP3      H2             35.8088210968       37.1920792321      -38.3986783569  TIP3      14641           0.0000000000
     93756     15042  TIP3      OH2            21.4903450911       20.4697985447      -26.0796787328  TIP3      14642           0.0000000000
     93757     15042  TIP3      H1             21.1392696645       19.6674107505      -25.6444026106  TIP3      14642           0.0000000000
     93758     15042  TIP3      H2             22.4267949378       20.4354673056      -25.7676012784  TIP3      14642           0.0000000000
     93759     15043  TIP3      OH2            23.4864468082       19.8278185505      -24.5102861158  TIP3      14643           0.0000000000
     93760     15043  TIP3      H1             24.3854495558       19.4979815580      -24.7103760726  TIP3      14643           0.0000000000
     93761     15043  TIP3      H2             23.1101995863       19.0382005181      -24.0669854607  TIP3      14643           0.0000000000
     93762     15044  TIP3      OH2            22.1190484638       36.5959531094      -41.8640601633  TIP3      14644           0.0000000000
     93763     15044  TIP3      H1             21.8412921364       36.8743327846      -40.9813556723  TIP3      14644           0.0000000000
     93764     15044  TIP3      H2             22.8833685690       36.0448040720      -41.7021173757  TIP3      14644           0.0000000000
     93765     15045  TIP3      OH2            31.9057125690       19.1496887743      -24.3221057226  TIP3      14645           0.0000000000
     93766     15045  TIP3      H1             31.9985551889       18.6683238050      -23.4886711279  TIP3      14645           0.0000000000
     93767     15045  TIP3      H2             32.8156139007       19.1060453087      -24.6889587334  TIP3      14645           0.0000000000
     93768     15046  TIP3      OH2            35.1123417491       35.1755223584      -25.6526006951  TIP3      14646           0.0000000000
     93769     15046  TIP3      H1             34.3042109131       35.0233327272      -26.1860195639  TIP3      14646           0.0000000000
     93770     15046  TIP3      H2             35.0018626604       36.1267231180      -25.4514735432  TIP3      14646           0.0000000000
     93771     15047  TIP3      OH2            49.5223038822       29.0521980543      -35.6456158822  TIP3      14647           0.0000000000
     93772     15047  TIP3      H1             49.5660790331       30.0298741602      -35.7479038681  TIP3      14647           0.0000000000
     93773     15047  TIP3      H2             48.8395537159       28.8122307077      -36.2913745073  TIP3      14647           0.0000000000
     93774     15048  TIP3      OH2            48.4305487779       28.3228418924      -32.1978910310  TIP3      14648           0.0000000000
     93775     15048  TIP3      H1             48.3805204965       27.6827312888      -31.4854264966  TIP3      14648           0.0000000000
     93776     15048  TIP3      H2             48.0800523472       27.8526573066      -32.9704435236  TIP3      14648           0.0000000000
     93777     15049  TIP3      OH2            40.7740109688       27.9689858162      -30.6344340902  TIP3      14649           0.0000000000
     93778     15049  TIP3      H1             40.8450241593       27.3125641620      -29.9081034970  TIP3      14649           0.0000000000
     93779     15049  TIP3      H2             41.5051379382       28.5669800250      -30.4247032129  TIP3      14649           0.0000000000
     93780     15050  TIP3      OH2            52.1135651045       31.2815467908      -33.9141271316  TIP3      14650           0.0000000000
     93781     15050  TIP3      H1             51.7009930459       30.5452191906      -33.4416743262  TIP3      14650           0.0000000000
     93782     15050  TIP3      H2             52.1220524816       31.9800983324      -33.2500944500  TIP3      14650           0.0000000000
     93783     15051  TIP3      OH2            41.7009669447       32.4227406564      -32.0965329045  TIP3      14651           0.0000000000
     93784     15051  TIP3      H1             41.3627544075       31.5813398595      -32.4544468782  TIP3      14651           0.0000000000
     93785     15051  TIP3      H2             42.6559987580       32.2322401545      -32.0561328495  TIP3      14651           0.0000000000
     93786     15052  TIP3      OH2            38.3401239186       26.0244134662      -36.6705462066  TIP3      14652           0.0000000000
     93787     15052  TIP3      H1             37.8828715754       26.8920192390      -36.7088589106  TIP3      14652           0.0000000000
     93788     15052  TIP3      H2             37.7607987569       25.4739105938      -37.2162010986  TIP3      14652           0.0000000000
     93789     15053  TIP3      OH2            39.0308685087       28.2264073756      -34.5411081369  TIP3      14653           0.0000000000
     93790     15053  TIP3      H1             39.2775364674       27.4268523509      -34.0417662957  TIP3      14653           0.0000000000
     93791     15053  TIP3      H2             39.7660908489       28.3133579361      -35.1683158167  TIP3      14653           0.0000000000
     93792     15054  TIP3      OH2            49.2475021722       36.4038112742      -33.6651802029  TIP3      14654           0.0000000000
     93793     15054  TIP3      H1             49.8498241897       35.7028841179      -34.0035274421  TIP3      14654           0.0000000000
     93794     15054  TIP3      H2             48.9810201268       36.1421292329      -32.7923709161  TIP3      14654           0.0000000000
     93795     15055  TIP3      OH2            46.8003164634       30.7623760330      -31.7777166051  TIP3      14655           0.0000000000
     93796     15055  TIP3      H1             47.1271580199       30.0847441550      -32.3918697348  TIP3      14655           0.0000000000
     93797     15055  TIP3      H2             47.5619261566       30.8727999311      -31.1895332877  TIP3      14655           0.0000000000
     93798     15056  TIP3      OH2            55.4182920074       22.3723060542      -30.9690231204  TIP3      14656           0.0000000000
     93799     15056  TIP3      H1             55.5535411159       22.9791544026      -30.2046528723  TIP3      14656           0.0000000000
     93800     15056  TIP3      H2             55.9305594257       22.8183367327      -31.6590821714  TIP3      14656           0.0000000000
     93801     15057  TIP3      OH2            49.9184322797       25.2387013030      -31.3646852313  TIP3      14657           0.0000000000
     93802     15057  TIP3      H1             50.0594246543       24.2788681963      -31.3092452549  TIP3      14657           0.0000000000
     93803     15057  TIP3      H2             49.8031692469       25.4489674112      -32.3089070633  TIP3      14657           0.0000000000
     93804     15058  TIP3      OH2            43.0952057570       23.2668784930      -34.1884223903  TIP3      14658           0.0000000000
     93805     15058  TIP3      H1             43.1593847195       24.1205230682      -34.6469475652  TIP3      14658           0.0000000000
     93806     15058  TIP3      H2             42.6557506778       22.7038762956      -34.8602774192  TIP3      14658           0.0000000000
     93807     15059  TIP3      OH2            50.8126677415       23.4039913537      -35.7734844638  TIP3      14659           0.0000000000
     93808     15059  TIP3      H1             51.5085312444       23.0319940600      -35.1916277467  TIP3      14659           0.0000000000
     93809     15059  TIP3      H2             51.3624491241       23.9070007519      -36.4132714475  TIP3      14659           0.0000000000
     93810     15060  TIP3      OH2            39.7057433498       25.6774191460      -33.4455856746  TIP3      14660           0.0000000000
     93811     15060  TIP3      H1             40.3804657875       25.1148870280      -33.0096069266  TIP3      14660           0.0000000000
     93812     15060  TIP3      H2             39.7739707649       25.3760586003      -34.3641126251  TIP3      14660           0.0000000000
     93813     15061  TIP3      OH2            44.8705415215       27.2352869813      -34.1905493566  TIP3      14661           0.0000000000
     93814     15061  TIP3      H1             45.5044022907       26.6677527218      -33.7263845680  TIP3      14661           0.0000000000
     93815     15061  TIP3      H2             44.3129725952       26.5660729128      -34.6370154269  TIP3      14661           0.0000000000
     93816     15062  TIP3      OH2            55.8839835748       23.8240143933      -28.7240504956  TIP3      14662           0.0000000000
     93817     15062  TIP3      H1             55.1997321245       24.5227485717      -28.8098803293  TIP3      14662           0.0000000000
     93818     15062  TIP3      H2             55.8764402074       23.6654901997      -27.7638896508  TIP3      14662           0.0000000000
     93819     15063  TIP3      OH2            41.9510230712       22.1698585127      -30.1397230318  TIP3      14663           0.0000000000
     93820     15063  TIP3      H1             41.6928491023       22.7276567335      -30.8988072493  TIP3      14663           0.0000000000
     93821     15063  TIP3      H2             41.2606407803       22.4096102437      -29.4723617480  TIP3      14663           0.0000000000
     93822     15064  TIP3      OH2            49.2899919948       31.6712808943      -36.5808120853  TIP3      14664           0.0000000000
     93823     15064  TIP3      H1             48.9913378943       31.3611383379      -37.4490400236  TIP3      14664           0.0000000000
     93824     15064  TIP3      H2             48.9554524384       32.5906065060      -36.5579272169  TIP3      14664           0.0000000000
     93825     15065  TIP3      OH2            44.4942470999       29.8264381901      -29.8697035271  TIP3      14665           0.0000000000
     93826     15065  TIP3      H1             43.7618087360       30.4630224137      -29.7189396705  TIP3      14665           0.0000000000
     93827     15065  TIP3      H2             45.1989532412       30.4174578260      -30.1728944737  TIP3      14665           0.0000000000
     93828     15066  TIP3      OH2            52.5377273637       22.7328478404      -33.7793933533  TIP3      14666           0.0000000000
     93829     15066  TIP3      H1             52.4174031319       21.9035582843      -33.2927392543  TIP3      14666           0.0000000000
     93830     15066  TIP3      H2             53.2958798864       23.1289099693      -33.3079465402  TIP3      14666           0.0000000000
     93831     15067  TIP3      OH2            41.5132354295       24.0524007961      -32.1538575079  TIP3      14667           0.0000000000
     93832     15067  TIP3      H1             42.1535491822       24.7138397249      -31.8072422878  TIP3      14667           0.0000000000
     93833     15067  TIP3      H2             42.0466796555       23.6024701387      -32.8495230134  TIP3      14667           0.0000000000
     93834     15068  TIP3      OH2            42.9222101947       31.8061538075      -29.0751728518  TIP3      14668           0.0000000000
     93835     15068  TIP3      H1             42.8869130075       32.7149435352      -29.4333152119  TIP3      14668           0.0000000000
     93836     15068  TIP3      H2             42.0371010909       31.7397893998      -28.6331787825  TIP3      14668           0.0000000000
     93837     15069  TIP3      OH2            39.0098580554       31.4576191307      -38.2814013017  TIP3      14669           0.0000000000
     93838     15069  TIP3      H1             38.7612234122       31.7432939611      -39.1790113261  TIP3      14669           0.0000000000
     93839     15069  TIP3      H2             39.0709129036       32.3132000854      -37.8018020364  TIP3      14669           0.0000000000
     93840     15070  TIP3      OH2            52.6206955098       33.1105816886      -31.5684217133  TIP3      14670           0.0000000000
     93841     15070  TIP3      H1             51.6718026730       33.1515627429      -31.3797908553  TIP3      14670           0.0000000000
     93842     15070  TIP3      H2             52.9520714404       34.0165612962      -31.7000453606  TIP3      14670           0.0000000000
     93843     15071  TIP3      OH2            52.9463356799       21.3964331468      -30.1580307377  TIP3      14671           0.0000000000
     93844     15071  TIP3      H1             52.2164998143       22.0168256084      -30.1919354923  TIP3      14671           0.0000000000
     93845     15071  TIP3      H2             53.6560548421       21.8158685359      -30.6712290342  TIP3      14671           0.0000000000
     93846     15072  TIP3      OH2            45.9423902337       19.4985722183      -32.6872804015  TIP3      14672           0.0000000000
     93847     15072  TIP3      H1             45.8133988407       18.5317263497      -32.7421029816  TIP3      14672           0.0000000000
     93848     15072  TIP3      H2             45.0659408655       19.8140468918      -32.3933126068  TIP3      14672           0.0000000000
     93849     15073  TIP3      OH2            50.9158691794       34.8873805642      -34.8849514167  TIP3      14673           0.0000000000
     93850     15073  TIP3      H1             51.3133544726       34.1767156275      -35.4486485448  TIP3      14673           0.0000000000
     93851     15073  TIP3      H2             51.2564676690       35.6855969708      -35.3627654710  TIP3      14673           0.0000000000
     93852     15074  TIP3      OH2            52.0596546021       32.8196707257      -36.4221762994  TIP3      14674           0.0000000000
     93853     15074  TIP3      H1             51.8025972636       32.1096888278      -37.0457164342  TIP3      14674           0.0000000000
     93854     15074  TIP3      H2             52.1276152332       32.3241536809      -35.5864558544  TIP3      14674           0.0000000000
     93855     15075  TIP3      OH2            53.7310693223       31.3743610371      -27.9371999997  TIP3      14675           0.0000000000
     93856     15075  TIP3      H1             53.8672495844       30.7582738897      -28.6865429714  TIP3      14675           0.0000000000
     93857     15075  TIP3      H2             53.9257510202       32.2391472183      -28.3285242781  TIP3      14675           0.0000000000
     93858     15076  TIP3      OH2            48.2093356893       28.3117623115      -38.1670987185  TIP3      14676           0.0000000000
     93859     15076  TIP3      H1             47.5033091970       28.8664191235      -38.5487027186  TIP3      14676           0.0000000000
     93860     15076  TIP3      H2             48.9093489348       28.3855839055      -38.8457728703  TIP3      14676           0.0000000000
     93861     15077  TIP3      OH2            48.2562440026       26.8007751697      -41.1241195942  TIP3      14677           0.0000000000
     93862     15077  TIP3      H1             48.9798503579       26.8114607755      -40.4810225927  TIP3      14677           0.0000000000
     93863     15077  TIP3      H2             48.5773637775       26.1635925038      -41.7729274533  TIP3      14677           0.0000000000
     93864     15078  TIP3      OH2            55.5544247860       27.6774282723      -29.9016334338  TIP3      14678           0.0000000000
     93865     15078  TIP3      H1             54.9281200757       28.4203176251      -29.8099112742  TIP3      14678           0.0000000000
     93866     15078  TIP3      H2             56.0526800677       27.9388934918      -30.7008053668  TIP3      14678           0.0000000000
     93867     15079  TIP3      OH2            51.6258687296       28.5328682642      -37.2449588376  TIP3      14679           0.0000000000
     93868     15079  TIP3      H1             50.8839760683       28.7598098182      -36.6381928421  TIP3      14679           0.0000000000
     93869     15079  TIP3      H2             52.0984184049       27.8320771428      -36.7567721372  TIP3      14679           0.0000000000
     93870     15080  TIP3      OH2            51.5510169921       26.6752884162      -28.1579457051  TIP3      14680           0.0000000000
     93871     15080  TIP3      H1             51.5826861692       27.4745450456      -27.5950501579  TIP3      14680           0.0000000000
     93872     15080  TIP3      H2             50.9206787256       26.9931368571      -28.8354405024  TIP3      14680           0.0000000000
     93873     15081  TIP3      OH2            43.2668259635       29.1796660233      -35.3364315347  TIP3      14681           0.0000000000
     93874     15081  TIP3      H1             42.9384818831       28.7824190610      -36.1770240700  TIP3      14681           0.0000000000
     93875     15081  TIP3      H2             43.8705588265       28.4786359803      -34.9984801174  TIP3      14681           0.0000000000
     93876     15082  TIP3      OH2            44.6066166666       32.5865636596      -32.6570871284  TIP3      14682           0.0000000000
     93877     15082  TIP3      H1             44.5569102449       32.0154520463      -33.4340231991  TIP3      14682           0.0000000000
     93878     15082  TIP3      H2             45.3704742582       32.2081258589      -32.1844636894  TIP3      14682           0.0000000000
     93879     15083  TIP3      OH2            43.6137101819       27.9189507388      -31.6973351349  TIP3      14683           0.0000000000
     93880     15083  TIP3      H1             44.1859446485       28.0432673834      -32.4779053553  TIP3      14683           0.0000000000
     93881     15083  TIP3      H2             43.9657516516       28.5780607101      -31.0664690675  TIP3      14683           0.0000000000
     93882     15084  TIP3      OH2            49.9636527253       33.4664486373      -30.9729382526  TIP3      14684           0.0000000000
     93883     15084  TIP3      H1             49.6811805106       34.0759106667      -30.2822328909  TIP3      14684           0.0000000000
     93884     15084  TIP3      H2             49.7376298425       32.5924381837      -30.5379581542  TIP3      14684           0.0000000000
     93885     15085  TIP3      OH2            44.5418556677       32.3344339041      -26.9815081981  TIP3      14685           0.0000000000
     93886     15085  TIP3      H1             44.1713101204       33.1088874383      -26.5186676616  TIP3      14685           0.0000000000
     93887     15085  TIP3      H2             43.8607565876       32.1627319446      -27.6792742825  TIP3      14685           0.0000000000
     93888     15086  TIP3      OH2            50.4964050553       27.6871711814      -39.5636612819  TIP3      14686           0.0000000000
     93889     15086  TIP3      H1             51.0716818307       27.8657935181      -38.7811099213  TIP3      14686           0.0000000000
     93890     15086  TIP3      H2             50.9194973545       28.1945135705      -40.2770322733  TIP3      14686           0.0000000000
     93891     15087  TIP3      OH2            41.4645219605       28.5122728084      -27.7892996526  TIP3      14687           0.0000000000
     93892     15087  TIP3      H1             41.5059854763       29.1820840970      -27.0729459571  TIP3      14687           0.0000000000
     93893     15087  TIP3      H2             40.5431183918       28.6218340749      -28.0702402971  TIP3      14687           0.0000000000
     93894     15088  TIP3      OH2            48.2310424503       34.4263006839      -36.0978021386  TIP3      14688           0.0000000000
     93895     15088  TIP3      H1             48.6832756302       34.7390515671      -35.3184455671  TIP3      14688           0.0000000000
     93896     15088  TIP3      H2             47.6627645107       35.1693960959      -36.3531561264  TIP3      14688           0.0000000000
     93897     15089  TIP3      OH2            42.7738152620       34.3958185161      -26.2302630095  TIP3      14689           0.0000000000
     93898     15089  TIP3      H1             42.7471751872       34.2691248835      -27.1915547361  TIP3      14689           0.0000000000
     93899     15089  TIP3      H2             41.8379149267       34.2709550661      -25.9769395210  TIP3      14689           0.0000000000
     93900     15090  TIP3      OH2            54.2173296818       19.4360744578      -39.7106168975  TIP3      14690           0.0000000000
     93901     15090  TIP3      H1             53.2777187067       19.5750238021      -39.4363783949  TIP3      14690           0.0000000000
     93902     15090  TIP3      H2             54.4567142765       20.2841024081      -40.1176145236  TIP3      14690           0.0000000000
     93903     15091  TIP3      OH2            42.2546394139       28.2132995409      -37.7348954422  TIP3      14691           0.0000000000
     93904     15091  TIP3      H1             41.9592215082       28.9927267488      -38.2520491852  TIP3      14691           0.0000000000
     93905     15091  TIP3      H2             41.5816261617       27.5573931289      -37.9327725309  TIP3      14691           0.0000000000
     93906     15092  TIP3      OH2            55.3338877715       33.8047365795      -41.3311606836  TIP3      14692           0.0000000000
     93907     15092  TIP3      H1             55.4650290373       34.7571633224      -41.1858703653  TIP3      14692           0.0000000000
     93908     15092  TIP3      H2             56.2699151379       33.5095305565      -41.3945070275  TIP3      14692           0.0000000000
     93909     15093  TIP3      OH2            38.3432223481       30.6151176307      -28.8921405292  TIP3      14693           0.0000000000
     93910     15093  TIP3      H1             37.8588367215       30.5478485090      -29.7338479496  TIP3      14693           0.0000000000
     93911     15093  TIP3      H2             38.3707350979       29.6771004168      -28.6263530342  TIP3      14693           0.0000000000
     93912     15094  TIP3      OH2            38.0934437898       33.3613547663      -32.0518084937  TIP3      14694           0.0000000000
     93913     15094  TIP3      H1             39.0493394653       33.2363705848      -32.0703570194  TIP3      14694           0.0000000000
     93914     15094  TIP3      H2             37.9974367281       34.1658875967      -31.5256320936  TIP3      14694           0.0000000000
     93915     15095  TIP3      OH2            47.2922217992       33.6041358145      -27.5027714468  TIP3      14695           0.0000000000
     93916     15095  TIP3      H1             47.3561346240       34.4519939808      -27.0057078735  TIP3      14695           0.0000000000
     93917     15095  TIP3      H2             46.4101116529       33.2687217823      -27.2519236868  TIP3      14695           0.0000000000
     93918     15096  TIP3      OH2            47.6983081572       37.3588422253      -37.6883717089  TIP3      14696           0.0000000000
     93919     15096  TIP3      H1             47.6236577114       37.2677802081      -38.6552123143  TIP3      14696           0.0000000000
     93920     15096  TIP3      H2             47.7328255113       38.3272993889      -37.5611372870  TIP3      14696           0.0000000000
     93921     15097  TIP3      OH2            41.3582132563       36.2105571923      -35.8950070238  TIP3      14697           0.0000000000
     93922     15097  TIP3      H1             41.4979749841       35.8113951141      -35.0109649850  TIP3      14697           0.0000000000
     93923     15097  TIP3      H2             40.5035425765       35.8163935221      -36.1410259224  TIP3      14697           0.0000000000
     93924     15098  TIP3      OH2            50.7715294872       36.5546604140      -40.7173815174  TIP3      14698           0.0000000000
     93925     15098  TIP3      H1             51.1926740453       35.7841303308      -41.1553960772  TIP3      14698           0.0000000000
     93926     15098  TIP3      H2             50.8070197303       36.2776182562      -39.7792260652  TIP3      14698           0.0000000000
     93927     15099  TIP3      OH2            50.4712022567       36.4848796825      -37.9453863743  TIP3      14699           0.0000000000
     93928     15099  TIP3      H1             49.5143104683       36.5620524179      -37.7606577995  TIP3      14699           0.0000000000
     93929     15099  TIP3      H2             50.7369524267       35.7534491354      -37.3710235625  TIP3      14699           0.0000000000
     93930     15100  TIP3      OH2            53.4661654694       25.5428234597      -25.9086977181  TIP3      14700           0.0000000000
     93931     15100  TIP3      H1             53.0138577575       26.0049606980      -26.6207986877  TIP3      14700           0.0000000000
     93932     15100  TIP3      H2             53.4877093589       24.6162806876      -26.1908894922  TIP3      14700           0.0000000000
     93933     15101  TIP3      OH2            40.6026580918       31.9334812744      -27.9020246245  TIP3      14701           0.0000000000
     93934     15101  TIP3      H1             40.8242296906       31.5605369675      -27.0226327165  TIP3      14701           0.0000000000
     93935     15101  TIP3      H2             39.7358101191       31.5345754067      -28.1100059207  TIP3      14701           0.0000000000
     93936     15102  TIP3      OH2            43.2599185031       20.3899704949      -31.9145865480  TIP3      14702           0.0000000000
     93937     15102  TIP3      H1             42.3603503096       20.2980865721      -32.3051720080  TIP3      14702           0.0000000000
     93938     15102  TIP3      H2             43.1771195527       21.2453153530      -31.4656144250  TIP3      14702           0.0000000000
     93939     15103  TIP3      OH2            47.9096493164       20.1024943758      -28.5481617075  TIP3      14703           0.0000000000
     93940     15103  TIP3      H1             48.3101722415       19.6762018749      -27.7686702526  TIP3      14703           0.0000000000
     93941     15103  TIP3      H2             46.9426594896       19.9397816748      -28.4125165468  TIP3      14703           0.0000000000
     93942     15104  TIP3      OH2            51.1875848675       23.8800966171      -27.7105929686  TIP3      14704           0.0000000000
     93943     15104  TIP3      H1             50.6768784157       23.7209936433      -26.8783591117  TIP3      14704           0.0000000000
     93944     15104  TIP3      H2             51.0507104490       24.8179022555      -27.9019729714  TIP3      14704           0.0000000000
     93945     15105  TIP3      OH2            52.0361376962       28.7751431311      -41.8297310635  TIP3      14705           0.0000000000
     93946     15105  TIP3      H1             52.0403883460       28.5490785830      -42.7859061498  TIP3      14705           0.0000000000
     93947     15105  TIP3      H2             52.8912508739       29.1752754710      -41.6954817273  TIP3      14705           0.0000000000
     93948     15106  TIP3      OH2            47.5637523032       22.6193530423      -41.2580746451  TIP3      14706           0.0000000000
     93949     15106  TIP3      H1             47.2791463824       22.6149287902      -40.3152333263  TIP3      14706           0.0000000000
     93950     15106  TIP3      H2             47.2797100969       21.7410084839      -41.5068618405  TIP3      14706           0.0000000000
     93951     15107  TIP3      OH2            43.3523873259       25.3547132497      -30.7554486584  TIP3      14707           0.0000000000
     93952     15107  TIP3      H1             42.6548681141       25.3337779005      -30.0743790329  TIP3      14707           0.0000000000
     93953     15107  TIP3      H2             43.3434310888       26.2921325366      -31.0509271987  TIP3      14707           0.0000000000
     93954     15108  TIP3      OH2            43.3292257905       25.5532633962      -35.8541490959  TIP3      14708           0.0000000000
     93955     15108  TIP3      H1             42.4077154014       25.2374307086      -35.9588575794  TIP3      14708           0.0000000000
     93956     15108  TIP3      H2             43.7443722112       25.1993432076      -36.6637073909  TIP3      14708           0.0000000000
     93957     15109  TIP3      OH2            48.8609602345       25.9893391595      -37.0567229705  TIP3      14709           0.0000000000
     93958     15109  TIP3      H1             48.4419016392       26.8192402644      -37.3830970672  TIP3      14709           0.0000000000
     93959     15109  TIP3      H2             49.5612910175       25.8521848786      -37.7218446463  TIP3      14709           0.0000000000
     93960     15110  TIP3      OH2            47.9431714200       26.1983057743      -25.5921000873  TIP3      14710           0.0000000000
     93961     15110  TIP3      H1             47.3850984520       25.4498822131      -25.2691666883  TIP3      14710           0.0000000000
     93962     15110  TIP3      H2             48.7777365071       26.0572813522      -25.1105169502  TIP3      14710           0.0000000000
     93963     15111  TIP3      OH2            49.8627389688       25.4762385113      -34.2536214709  TIP3      14711           0.0000000000
     93964     15111  TIP3      H1             49.6301086064       26.0706027657      -34.9947218049  TIP3      14711           0.0000000000
     93965     15111  TIP3      H2             49.9992791126       24.6484498130      -34.7663347042  TIP3      14711           0.0000000000
     93966     15112  TIP3      OH2            41.0383892999       25.6624002196      -28.9703897534  TIP3      14712           0.0000000000
     93967     15112  TIP3      H1             41.0448241598       26.0629287318      -28.0823885802  TIP3      14712           0.0000000000
     93968     15112  TIP3      H2             40.5659431536       24.8315428102      -28.8225039473  TIP3      14712           0.0000000000
     93969     15113  TIP3      OH2            44.5472366301       23.2124515528      -41.9099280055  TIP3      14713           0.0000000000
     93970     15113  TIP3      H1             44.0019193898       22.6143631868      -41.3597308152  TIP3      14713           0.0000000000
     93971     15113  TIP3      H2             43.8576184569       23.5082112476      -42.5287416761  TIP3      14713           0.0000000000
     93972     15114  TIP3      OH2            37.6605376886       22.7789970208      -35.0620557325  TIP3      14714           0.0000000000
     93973     15114  TIP3      H1             38.3232095465       22.7410428853      -34.3453055250  TIP3      14714           0.0000000000
     93974     15114  TIP3      H2             38.1216460009       22.3619260499      -35.8135893990  TIP3      14714           0.0000000000
     93975     15115  TIP3      OH2            38.9440954671       23.4916630572      -39.6681290121  TIP3      14715           0.0000000000
     93976     15115  TIP3      H1             39.4359601311       24.1129218127      -40.2486652930  TIP3      14715           0.0000000000
     93977     15115  TIP3      H2             38.2460582904       24.0845817164      -39.3129318479  TIP3      14715           0.0000000000
     93978     15116  TIP3      OH2            49.1057197900       27.0880888074      -29.6129041077  TIP3      14716           0.0000000000
     93979     15116  TIP3      H1             49.4533621582       26.4219577179      -30.2282750384  TIP3      14716           0.0000000000
     93980     15116  TIP3      H2             48.6568692704       26.5468179450      -28.9370893981  TIP3      14716           0.0000000000
     93981     15117  TIP3      OH2            45.9084137573       23.0278471298      -34.8133858629  TIP3      14717           0.0000000000
     93982     15117  TIP3      H1             44.9682342063       23.0563079196      -34.5213939685  TIP3      14717           0.0000000000
     93983     15117  TIP3      H2             46.3838236065       22.9172338050      -33.9836864876  TIP3      14717           0.0000000000
     93984     15118  TIP3      OH2            40.7209407768       24.6224956374      -35.9601860308  TIP3      14718           0.0000000000
     93985     15118  TIP3      H1             39.8224523506       24.7413289017      -36.3292632329  TIP3      14718           0.0000000000
     93986     15118  TIP3      H2             41.0101033580       23.7776734348      -36.3390107890  TIP3      14718           0.0000000000
     93987     15119  TIP3      OH2            44.3609706103       24.6432057194      -38.3160375313  TIP3      14719           0.0000000000
     93988     15119  TIP3      H1             45.3138801010       24.7613616206      -38.1415155962  TIP3      14719           0.0000000000
     93989     15119  TIP3      H2             44.1387845280       25.3115808235      -38.9865864680  TIP3      14719           0.0000000000
     93990     15120  TIP3      OH2            50.2984183338       22.2917493590      -31.5728535489  TIP3      14720           0.0000000000
     93991     15120  TIP3      H1             49.6152618588       22.3324132518      -30.8544303656  TIP3      14720           0.0000000000
     93992     15120  TIP3      H2             49.7814780858       21.9987537447      -32.3389170616  TIP3      14720           0.0000000000
     93993     15121  TIP3      OH2            43.0462105310       25.8227781813      -40.7337118687  TIP3      14721           0.0000000000
     93994     15121  TIP3      H1             42.4994074884       25.4558751712      -41.4505077694  TIP3      14721           0.0000000000
     93995     15121  TIP3      H2             43.8793030720       26.0252751676      -41.1898769345  TIP3      14721           0.0000000000
     93996     15122  TIP3      OH2            53.5444892959       37.9106904539      -25.2449804508  TIP3      14722           0.0000000000
     93997     15122  TIP3      H1             53.7810276904       38.3134623962      -26.1060917697  TIP3      14722           0.0000000000
     93998     15122  TIP3      H2             54.2318777565       38.2435078975      -24.6658122170  TIP3      14722           0.0000000000
     93999     15123  TIP3      OH2            41.1944202793       30.3871702785      -25.6760996189  TIP3      14723           0.0000000000
     94000     15123  TIP3      H1             41.9081127131       30.6477679111      -25.0702170958  TIP3      14723           0.0000000000
     94001     15123  TIP3      H2             40.4032631265       30.5562840045      -25.1103552049  TIP3      14723           0.0000000000
     94002     15124  TIP3      OH2            47.2146152647       25.7977295691      -32.9103270297  TIP3      14724           0.0000000000
     94003     15124  TIP3      H1             47.7585947344       25.2508519520      -33.4764889849  TIP3      14724           0.0000000000
     94004     15124  TIP3      H2             47.0368396445       25.2637152766      -32.1260742831  TIP3      14724           0.0000000000
     94005     15125  TIP3      OH2            42.2041036165       21.9464302832      -36.4889992478  TIP3      14725           0.0000000000
     94006     15125  TIP3      H1             41.8954432528       21.0217024376      -36.5233155971  TIP3      14725           0.0000000000
     94007     15125  TIP3      H2             42.9915004184       21.9115773518      -37.0471322372  TIP3      14725           0.0000000000
     94008     15126  TIP3      OH2            45.8460581144       24.1572584716      -30.5188002390  TIP3      14726           0.0000000000
     94009     15126  TIP3      H1             45.0008813766       24.6398432270      -30.4031369111  TIP3      14726           0.0000000000
     94010     15126  TIP3      H2             46.3640892645       24.4715203744      -29.7514766498  TIP3      14726           0.0000000000
     94011     15127  TIP3      OH2            46.4090995741       30.3795193638      -38.8130997270  TIP3      14727           0.0000000000
     94012     15127  TIP3      H1             45.6237522649       29.8830894929      -39.1369745355  TIP3      14727           0.0000000000
     94013     15127  TIP3      H2             46.2230648886       30.4467096142      -37.8564714748  TIP3      14727           0.0000000000
     94014     15128  TIP3      OH2            53.5697469377       29.5247469277      -30.0165767996  TIP3      14728           0.0000000000
     94015     15128  TIP3      H1             54.1679440869       30.0101384335      -30.6060148844  TIP3      14728           0.0000000000
     94016     15128  TIP3      H2             52.7166785405       29.6213009809      -30.4908854770  TIP3      14728           0.0000000000
     94017     15129  TIP3      OH2            50.2770854000       23.1675708113      -40.6339747273  TIP3      14729           0.0000000000
     94018     15129  TIP3      H1             49.3307897515       23.3227874951      -40.7733778351  TIP3      14729           0.0000000000
     94019     15129  TIP3      H2             50.5714274960       24.0462711224      -40.3145789309  TIP3      14729           0.0000000000
     94020     15130  TIP3      OH2            47.9078720008       30.5948428150      -27.5747353609  TIP3      14730           0.0000000000
     94021     15130  TIP3      H1             47.5540154170       30.1915972798      -26.7734284492  TIP3      14730           0.0000000000
     94022     15130  TIP3      H2             47.6793509433       31.5241513355      -27.4980768488  TIP3      14730           0.0000000000
     94023     15131  TIP3      OH2            50.9963488166       25.0762059437      -38.9586806704  TIP3      14731           0.0000000000
     94024     15131  TIP3      H1             51.9075191137       24.9425269769      -38.6311090650  TIP3      14731           0.0000000000
     94025     15131  TIP3      H2             51.0571733374       25.8805303289      -39.4958178076  TIP3      14731           0.0000000000
     94026     15132  TIP3      OH2            41.5079138373       29.7174876178      -33.0285976702  TIP3      14732           0.0000000000
     94027     15132  TIP3      H1             42.2379828845       29.6749361179      -33.6750320936  TIP3      14732           0.0000000000
     94028     15132  TIP3      H2             41.5851693927       28.8672344106      -32.5631490636  TIP3      14732           0.0000000000
     94029     15133  TIP3      OH2            48.5224193710       31.8411382609      -39.7821300371  TIP3      14733           0.0000000000
     94030     15133  TIP3      H1             48.1858445209       32.6779342628      -39.4094459973  TIP3      14733           0.0000000000
     94031     15133  TIP3      H2             47.7850797695       31.2214859732      -39.5865744932  TIP3      14733           0.0000000000
     94032     15134  TIP3      OH2            38.5152976554       28.1545932235      -27.7476835181  TIP3      14734           0.0000000000
     94033     15134  TIP3      H1             38.7198561407       27.7237229690      -26.8949423666  TIP3      14734           0.0000000000
     94034     15134  TIP3      H2             37.8980300620       27.5299260892      -28.1650617352  TIP3      14734           0.0000000000
     94035     15135  TIP3      OH2            45.5255554416       27.7024827986      -25.5455634880  TIP3      14735           0.0000000000
     94036     15135  TIP3      H1             45.2294595836       27.4659227301      -26.4309292765  TIP3      14735           0.0000000000
     94037     15135  TIP3      H2             46.4624694622       27.4218639897      -25.5398788295  TIP3      14735           0.0000000000
     94038     15136  TIP3      OH2            50.1778510782       33.0460586454      -27.6481437593  TIP3      14736           0.0000000000
     94039     15136  TIP3      H1             49.2491645789       33.2235683343      -27.8714117852  TIP3      14736           0.0000000000
     94040     15136  TIP3      H2             50.1824124799       33.3157870098      -26.7081915356  TIP3      14736           0.0000000000
     94041     15137  TIP3      OH2            55.8160309770       25.2878069765      -39.2038055506  TIP3      14737           0.0000000000
     94042     15137  TIP3      H1             55.3043287695       24.9155210246      -39.9491638871  TIP3      14737           0.0000000000
     94043     15137  TIP3      H2             55.9743650078       26.1962721594      -39.5458946379  TIP3      14737           0.0000000000
     94044     15138  TIP3      OH2            55.8498609911       31.0700529082      -26.4129488567  TIP3      14738           0.0000000000
     94045     15138  TIP3      H1             54.9797364553       31.3228992627      -26.8016363924  TIP3      14738           0.0000000000
     94046     15138  TIP3      H2             56.4235970257       31.0760643804      -27.2033460528  TIP3      14738           0.0000000000
     94047     15139  TIP3      OH2            54.1815371900       34.0621323493      -38.8124944537  TIP3      14739           0.0000000000
     94048     15139  TIP3      H1             53.7984428873       33.2386551526      -38.4913764287  TIP3      14739           0.0000000000
     94049     15139  TIP3      H2             54.4663887712       33.8698804612      -39.7232285889  TIP3      14739           0.0000000000
     94050     15140  TIP3      OH2            51.3455744787       28.8787544619      -31.7505604693  TIP3      14740           0.0000000000
     94051     15140  TIP3      H1             50.4045689833       28.6527669451      -31.8205082413  TIP3      14740           0.0000000000
     94052     15140  TIP3      H2             51.7940369557       28.1069280382      -32.1306341775  TIP3      14740           0.0000000000
     94053     15141  TIP3      OH2            43.8885495334       33.1984798609      -35.6356655369  TIP3      14741           0.0000000000
     94054     15141  TIP3      H1             44.4020103845       33.9951747513      -35.8423457121  TIP3      14741           0.0000000000
     94055     15141  TIP3      H2             43.0057015851       33.4371341926      -35.9517554959  TIP3      14741           0.0000000000
     94056     15142  TIP3      OH2            39.6317239844       28.0600486231      -41.0739927814  TIP3      14742           0.0000000000
     94057     15142  TIP3      H1             40.2564011568       28.6945460873      -40.6761919373  TIP3      14742           0.0000000000
     94058     15142  TIP3      H2             38.7636138706       28.3715957572      -40.7767344004  TIP3      14742           0.0000000000
     94059     15143  TIP3      OH2            45.3227170274       30.8628704448      -36.0852554540  TIP3      14743           0.0000000000
     94060     15143  TIP3      H1             45.0387885639       31.7949095495      -36.0195419680  TIP3      14743           0.0000000000
     94061     15143  TIP3      H2             44.5694681824       30.3991464143      -35.6672095954  TIP3      14743           0.0000000000
     94062     15144  TIP3      OH2            45.7910956342       35.0269716147      -29.7427720429  TIP3      14744           0.0000000000
     94063     15144  TIP3      H1             46.1921700138       35.8750075662      -29.9830226314  TIP3      14744           0.0000000000
     94064     15144  TIP3      H2             46.3597918901       34.7233412220      -29.0103816454  TIP3      14744           0.0000000000
     94065     15145  TIP3      OH2            44.0001058778       35.8752601289      -36.5462242942  TIP3      14745           0.0000000000
     94066     15145  TIP3      H1             43.0285424517       36.0023347849      -36.4567146464  TIP3      14745           0.0000000000
     94067     15145  TIP3      H2             44.3453633450       36.7144678928      -36.1917866814  TIP3      14745           0.0000000000
     94068     15146  TIP3      OH2            49.3465202880       31.1056217190      -30.0719024184  TIP3      14746           0.0000000000
     94069     15146  TIP3      H1             48.9439366996       30.8756419724      -29.2071605443  TIP3      14746           0.0000000000
     94070     15146  TIP3      H2             49.9403358289       30.3549838639      -30.2384303019  TIP3      14746           0.0000000000
     94071     15147  TIP3      OH2            51.5676485891       32.0662006560      -40.9790329522  TIP3      14747           0.0000000000
     94072     15147  TIP3      H1             51.9064171397       31.6531510070      -40.1563896880  TIP3      14747           0.0000000000
     94073     15147  TIP3      H2             50.6132123191       31.9409711310      -40.8830705198  TIP3      14747           0.0000000000
     94074     15148  TIP3      OH2            52.0559520726       35.6492013311      -27.5803827305  TIP3      14748           0.0000000000
     94075     15148  TIP3      H1             51.4101194741       35.1193525369      -28.0757249975  TIP3      14748           0.0000000000
     94076     15148  TIP3      H2             52.3050717746       36.3467916241      -28.2173903630  TIP3      14748           0.0000000000
     94077     15149  TIP3      OH2            56.0641448278       36.5107347953      -40.7687506724  TIP3      14749           0.0000000000
     94078     15149  TIP3      H1             56.8119546822       37.1226667375      -40.9260558772  TIP3      14749           0.0000000000
     94079     15149  TIP3      H2             55.3650053223       37.1153552701      -40.4475056340  TIP3      14749           0.0000000000
     94080     15150  TIP3      OH2            40.1617150891       22.8994251605      -28.1895733110  TIP3      14750           0.0000000000
     94081     15150  TIP3      H1             39.2508589706       23.2410509836      -28.2351503651  TIP3      14750           0.0000000000
     94082     15150  TIP3      H2             40.0470636826       22.0412103241      -27.7517098170  TIP3      14750           0.0000000000
     94083     15151  TIP3      OH2            52.4168331324       30.7314854123      -38.7584355040  TIP3      14751           0.0000000000
     94084     15151  TIP3      H1             52.1589444473       29.9674731312      -38.2031738063  TIP3      14751           0.0000000000
     94085     15151  TIP3      H2             53.3592871504       30.8229730735      -38.5373418840  TIP3      14751           0.0000000000
     94086     15152  TIP3      OH2            39.8005163616       34.7021571390      -29.7608496425  TIP3      14752           0.0000000000
     94087     15152  TIP3      H1             40.0397750634       33.7611258654      -29.7655439622  TIP3      14752           0.0000000000
     94088     15152  TIP3      H2             40.0452951864       34.9704925879      -28.8668927169  TIP3      14752           0.0000000000
     94089     15153  TIP3      OH2            44.5712255969       32.7378217343      -40.0765104074  TIP3      14753           0.0000000000
     94090     15153  TIP3      H1             44.7602458715       32.2035250217      -39.2955544769  TIP3      14753           0.0000000000
     94091     15153  TIP3      H2             44.5978844343       33.6558952889      -39.7479729330  TIP3      14753           0.0000000000
     94092     15154  TIP3      OH2            41.0351331067       29.9781635923      -39.5857455041  TIP3      14754           0.0000000000
     94093     15154  TIP3      H1             40.3588915362       30.3607427946      -38.9923700870  TIP3      14754           0.0000000000
     94094     15154  TIP3      H2             41.5806995597       30.7491767098      -39.8167487382  TIP3      14754           0.0000000000
     94095     15155  TIP3      OH2            48.9019086980       22.6547558145      -29.3033488297  TIP3      14755           0.0000000000
     94096     15155  TIP3      H1             49.5874067727       22.7157526495      -28.6187633327  TIP3      14755           0.0000000000
     94097     15155  TIP3      H2             48.5003148910       21.7805580920      -29.0903235269  TIP3      14755           0.0000000000
     94098     15156  TIP3      OH2            49.6510767310       22.2719965880      -38.1551651541  TIP3      14756           0.0000000000
     94099     15156  TIP3      H1             49.8845864320       22.7467283858      -38.9837582828  TIP3      14756           0.0000000000
     94100     15156  TIP3      H2             50.2335160420       22.6876717597      -37.5243146983  TIP3      14756           0.0000000000
     94101     15157  TIP3      OH2            47.3334017662       34.4097744513      -39.3272432068  TIP3      14757           0.0000000000
     94102     15157  TIP3      H1             46.5136424804       34.9280872097      -39.2751737607  TIP3      14757           0.0000000000
     94103     15157  TIP3      H2             47.8670065535       34.9115898285      -39.9654424408  TIP3      14757           0.0000000000
     94104     15158  TIP3      OH2            46.8682255081       24.0022252891      -37.3446276111  TIP3      14758           0.0000000000
     94105     15158  TIP3      H1             47.6717322264       24.5504180605      -37.3166411394  TIP3      14758           0.0000000000
     94106     15158  TIP3      H2             46.6060518538       23.8729144566      -36.4225602575  TIP3      14758           0.0000000000
     94107     15159  TIP3      OH2            47.4194382292       25.0084933899      -28.1745395593  TIP3      14759           0.0000000000
     94108     15159  TIP3      H1             47.5089930748       25.5814709602      -27.3881821952  TIP3      14759           0.0000000000
     94109     15159  TIP3      H2             48.0676389969       24.3106175663      -28.0423946584  TIP3      14759           0.0000000000
     94110     15160  TIP3      OH2            47.7465896445       21.0689192938      -36.4168473125  TIP3      14760           0.0000000000
     94111     15160  TIP3      H1             47.3951170308       21.7174406595      -35.7886550016  TIP3      14760           0.0000000000
     94112     15160  TIP3      H2             48.4120137222       21.6085432632      -36.9074307945  TIP3      14760           0.0000000000
     94113     15161  TIP3      OH2            44.6790154298       35.4470447529      -39.3354152487  TIP3      14761           0.0000000000
     94114     15161  TIP3      H1             44.8451135539       36.2733739555      -39.8344883800  TIP3      14761           0.0000000000
     94115     15161  TIP3      H2             44.4663803004       35.7830294596      -38.4397650785  TIP3      14761           0.0000000000
     94116     15162  TIP3      OH2            43.3936884572       22.1451414319      -39.7327095501  TIP3      14762           0.0000000000
     94117     15162  TIP3      H1             43.3257141790       23.0571000190      -39.3743541807  TIP3      14762           0.0000000000
     94118     15162  TIP3      H2             44.3029142073       21.9095915667      -39.4729117704  TIP3      14762           0.0000000000
     94119     15163  TIP3      OH2            53.6111996451       22.8961454438      -27.3051718906  TIP3      14763           0.0000000000
     94120     15163  TIP3      H1             52.6754011846       23.1818223033      -27.4215463176  TIP3      14763           0.0000000000
     94121     15163  TIP3      H2             53.9336080730       22.8959327523      -28.2180407396  TIP3      14763           0.0000000000
     94122     15164  TIP3      OH2            52.1787485651       26.6695293613      -33.2375287822  TIP3      14764           0.0000000000
     94123     15164  TIP3      H1             51.3896759774       26.2552649398      -33.5842074972  TIP3      14764           0.0000000000
     94124     15164  TIP3      H2             52.6901731475       25.9830400645      -32.7515482048  TIP3      14764           0.0000000000
     94125     15165  TIP3      OH2            41.6411036308       32.5927528758      -40.6762475331  TIP3      14765           0.0000000000
     94126     15165  TIP3      H1             42.2657522897       33.2686665197      -40.3909351568  TIP3      14765           0.0000000000
     94127     15165  TIP3      H2             42.1397091424       32.1458149089      -41.3869102990  TIP3      14765           0.0000000000
     94128     15166  TIP3      OH2            39.9880837636       25.2586277894      -41.5387133433  TIP3      14766           0.0000000000
     94129     15166  TIP3      H1             39.9605964479       26.2182753159      -41.3686221743  TIP3      14766           0.0000000000
     94130     15166  TIP3      H2             39.1048091882       25.0420772547      -41.8319491118  TIP3      14766           0.0000000000
     94131     15167  TIP3      OH2            53.2447822307       35.8998854676      -31.6297324066  TIP3      14767           0.0000000000
     94132     15167  TIP3      H1             53.1805256669       36.6232555692      -32.2894019837  TIP3      14767           0.0000000000
     94133     15167  TIP3      H2             54.2222198921       35.9900202791      -31.4271183009  TIP3      14767           0.0000000000
     94134     15168  TIP3      OH2            40.7875708294       20.0503475743      -32.8479840846  TIP3      14768           0.0000000000
     94135     15168  TIP3      H1             40.5610443874       20.0852236703      -33.8034215086  TIP3      14768           0.0000000000
     94136     15168  TIP3      H2             40.3449435789       19.2237827236      -32.5701254317  TIP3      14768           0.0000000000
     94137     15169  TIP3      OH2            39.7278599066       33.9688099452      -36.6964230827  TIP3      14769           0.0000000000
     94138     15169  TIP3      H1             38.8832516511       34.4446915593      -36.7012972130  TIP3      14769           0.0000000000
     94139     15169  TIP3      H2             40.2426071514       34.4729974755      -37.3395647019  TIP3      14769           0.0000000000
     94140     15170  TIP3      OH2            38.9818860700       36.5980511422      -25.3840754276  TIP3      14770           0.0000000000
     94141     15170  TIP3      H1             39.5617181031       36.3827538491      -24.6320500901  TIP3      14770           0.0000000000
     94142     15170  TIP3      H2             38.5227984874       35.7681903962      -25.5783482829  TIP3      14770           0.0000000000
     94143     15171  TIP3      OH2            43.6098825841       35.5385417320      -23.7693279591  TIP3      14771           0.0000000000
     94144     15171  TIP3      H1             44.3553323291       35.0302152620      -23.4264027755  TIP3      14771           0.0000000000
     94145     15171  TIP3      H2             43.5821935886       35.2652702416      -24.7063626683  TIP3      14771           0.0000000000
     94146     15172  TIP3      OH2            48.0251213084       35.1705025717      -41.8978756937  TIP3      14772           0.0000000000
     94147     15172  TIP3      H1             47.2269118518       34.5835407631      -41.9663953590  TIP3      14772           0.0000000000
     94148     15172  TIP3      H2             48.4942501972       34.6073840855      -42.5203401356  TIP3      14772           0.0000000000
     94149     15173  TIP3      OH2            50.1226861219       33.9108087784      -25.0151988609  TIP3      14773           0.0000000000
     94150     15173  TIP3      H1             49.8477744763       33.0174542129      -24.8072638524  TIP3      14773           0.0000000000
     94151     15173  TIP3      H2             50.9180177733       34.0461514012      -24.4582488426  TIP3      14773           0.0000000000
     94152     15174  TIP3      OH2            52.2922835027       34.8378373718      -42.1714526981  TIP3      14774           0.0000000000
     94153     15174  TIP3      H1             52.5776769689       34.0308670434      -41.7020099390  TIP3      14774           0.0000000000
     94154     15174  TIP3      H2             53.0611290124       35.0539326751      -42.7147516303  TIP3      14774           0.0000000000
     94155     15175  TIP3      OH2            38.8948272628       30.4050464906      -24.4170049618  TIP3      14775           0.0000000000
     94156     15175  TIP3      H1             39.0460905305       29.4962022158      -24.7252528305  TIP3      14775           0.0000000000
     94157     15175  TIP3      H2             38.1239952956       30.6848790041      -24.9347519330  TIP3      14775           0.0000000000
     94158     15176  TIP3      OH2            43.2760813736       30.7929375655      -42.2604705318  TIP3      14776           0.0000000000
     94159     15176  TIP3      H1             43.3281294242       29.9601657643      -41.7754839823  TIP3      14776           0.0000000000
     94160     15176  TIP3      H2             43.8869449408       30.5999141997      -42.9978275972  TIP3      14776           0.0000000000
     94161     15177  TIP3      OH2            45.5936458657       30.3892210794      -24.9959194774  TIP3      14777           0.0000000000
     94162     15177  TIP3      H1             45.2293114810       30.6625569735      -25.8605569540  TIP3      14777           0.0000000000
     94163     15177  TIP3      H2             45.6817397771       29.4122087394      -25.0918666196  TIP3      14777           0.0000000000
     94164     15178  TIP3      OH2            51.2808057697       30.2549204897      -27.6167128529  TIP3      14778           0.0000000000
     94165     15178  TIP3      H1             52.0506523965       30.8615539259      -27.7173760478  TIP3      14778           0.0000000000
     94166     15178  TIP3      H2             50.5519292277       30.8868605586      -27.5700839746  TIP3      14778           0.0000000000
     94167     15179  TIP3      OH2            39.7454845139       27.6110090458      -25.0142991545  TIP3      14779           0.0000000000
     94168     15179  TIP3      H1             40.1635875638       26.7512628767      -25.1308586462  TIP3      14779           0.0000000000
     94169     15179  TIP3      H2             39.4966680703       27.6218877484      -24.0829250609  TIP3      14779           0.0000000000
     94170     15180  TIP3      OH2            44.4087464393       28.7552687719      -39.9780395113  TIP3      14780           0.0000000000
     94171     15180  TIP3      H1             43.9295895128       28.2343141159      -39.3130092116  TIP3      14780           0.0000000000
     94172     15180  TIP3      H2             44.6815847565       28.0545507357      -40.6169705092  TIP3      14780           0.0000000000
     94173     15181  TIP3      OH2            43.6842613999       26.5866650911      -27.6389836295  TIP3      14781           0.0000000000
     94174     15181  TIP3      H1             43.0697531605       27.2916221912      -27.3712603519  TIP3      14781           0.0000000000
     94175     15181  TIP3      H2             44.0448657052       26.9379195883      -28.4709872895  TIP3      14781           0.0000000000
     94176     15182  TIP3      OH2            45.4690588058       26.9727695379      -41.7345070073  TIP3      14782           0.0000000000
     94177     15182  TIP3      H1             45.3184782551       26.8007540627      -42.6721456558  TIP3      14782           0.0000000000
     94178     15182  TIP3      H2             46.4473989966       27.0680708734      -41.6687754748  TIP3      14782           0.0000000000
     94179     15183  TIP3      OH2            48.7307980730       29.1304594027      -24.3223920622  TIP3      14783           0.0000000000
     94180     15183  TIP3      H1             49.6915217612       29.1293062262      -24.4048176359  TIP3      14783           0.0000000000
     94181     15183  TIP3      H2             48.5565520525       28.3624974312      -23.7427882170  TIP3      14783           0.0000000000
     94182     15184  TIP3      OH2            54.7375320587       29.3931182830       42.7787905696  TIP3      14784           0.0000000000
     94183     15184  TIP3      H1             54.5852252534       28.9118531875       41.9338940886  TIP3      14784           0.0000000000
     94184     15184  TIP3      H2             54.8888312928       30.3003699079       42.4962325647  TIP3      14784           0.0000000000
     94185     15185  TIP3      OH2            44.0520656846       23.9571635172      -26.5534535468  TIP3      14785           0.0000000000
     94186     15185  TIP3      H1             44.1824374724       23.2327235850      -27.1874294810  TIP3      14785           0.0000000000
     94187     15185  TIP3      H2             44.0313393988       24.7520798393      -27.1268139757  TIP3      14785           0.0000000000
     94188     15186  TIP3      OH2            44.4616102683       22.3309636152      -29.0456715029  TIP3      14786           0.0000000000
     94189     15186  TIP3      H1             44.9860645238       22.7912704400      -29.7393328228  TIP3      14786           0.0000000000
     94190     15186  TIP3      H2             43.5805623596       22.2354090855      -29.4766299462  TIP3      14786           0.0000000000
     94191     15187  TIP3      OH2            46.0244233056       27.7811877088      -28.8101355415  TIP3      14787           0.0000000000
     94192     15187  TIP3      H1             46.7770306814       27.6284176964      -29.3908650715  TIP3      14787           0.0000000000
     94193     15187  TIP3      H2             45.6753934187       28.6358415982      -29.1123736643  TIP3      14787           0.0000000000
     94194     15188  TIP3      OH2            50.4215593396       25.5847071985      -23.8398159764  TIP3      14788           0.0000000000
     94195     15188  TIP3      H1             50.6501475403       24.6503136460      -23.8906649415  TIP3      14788           0.0000000000
     94196     15188  TIP3      H2             51.2975103688       26.0112729712      -23.7975983006  TIP3      14788           0.0000000000
     94197     15189  TIP3      OH2            51.7489451052       28.3697775413      -25.7011625482  TIP3      14789           0.0000000000
     94198     15189  TIP3      H1             51.4919270719       29.0939296212      -26.3103254024  TIP3      14789           0.0000000000
     94199     15189  TIP3      H2             52.7135668157       28.3163067852      -25.8805108121  TIP3      14789           0.0000000000
     94200     15190  TIP3      OH2            42.5104382516       25.1809536963      -24.6442494945  TIP3      14790           0.0000000000
     94201     15190  TIP3      H1             41.7451104293       24.6149705756      -24.8607440635  TIP3      14790           0.0000000000
     94202     15190  TIP3      H2             43.1841441367       24.8398221707      -25.2622568150  TIP3      14790           0.0000000000
     94203     15191  TIP3      OH2            45.2633926529       19.7738670797      -28.6325203420  TIP3      14791           0.0000000000
     94204     15191  TIP3      H1             45.1234125992       20.7416449598      -28.7422886678  TIP3      14791           0.0000000000
     94205     15191  TIP3      H2             44.5039113645       19.4156158095      -29.1273914903  TIP3      14791           0.0000000000
     94206     15192  TIP3      OH2            46.5317753664       24.0849553149      -25.0740129490  TIP3      14792           0.0000000000
     94207     15192  TIP3      H1             46.2593858797       23.8841240411      -24.1516724520  TIP3      14792           0.0000000000
     94208     15192  TIP3      H2             45.7208883640       23.8990003633      -25.5774878472  TIP3      14792           0.0000000000
     94209     15193  TIP3      OH2            49.2413171537       23.2301732077      -25.9885761780  TIP3      14793           0.0000000000
     94210     15193  TIP3      H1             48.2792842070       23.2772877380      -25.8447434093  TIP3      14793           0.0000000000
     94211     15193  TIP3      H2             49.5349779317       22.6041484426      -25.3048293465  TIP3      14793           0.0000000000
     94212     15194  TIP3      OH2            50.8470737694       21.8696106193      -24.0106406228  TIP3      14794           0.0000000000
     94213     15194  TIP3      H1             50.7735152073       20.8996366998      -23.9912233386  TIP3      14794           0.0000000000
     94214     15194  TIP3      H2             50.5600257051       22.1509139147      -23.1102061177  TIP3      14794           0.0000000000
     94215     15195  TIP3      OH2            40.6573837355       23.1049902998      -24.9363459174  TIP3      14795           0.0000000000
     94216     15195  TIP3      H1             40.8922912063       22.3794116586      -25.5433929133  TIP3      14795           0.0000000000
     94217     15195  TIP3      H2             40.5763071040       22.6402907186      -24.0791199112  TIP3      14795           0.0000000000
     94218     15196  TIP3      OH2            45.4607918482       19.1142633161      -25.9419388305  TIP3      14796           0.0000000000
     94219     15196  TIP3      H1             46.1722992850       18.4365110916      -25.9687383982  TIP3      14796           0.0000000000
     94220     15196  TIP3      H2             45.3719859485       19.3287611657      -26.8878029011  TIP3      14796           0.0000000000
     94221     15197  TIP3      OH2            45.8303621661       20.7715471506      -23.8806684421  TIP3      14797           0.0000000000
     94222     15197  TIP3      H1             45.6854772630       20.2735549250      -24.7198668040  TIP3      14797           0.0000000000
     94223     15197  TIP3      H2             45.2331908443       21.5343204186      -23.9599342076  TIP3      14797           0.0000000000
     94224     15198  TIP3      OH2            45.3401545472       37.6584146986      -40.7336452332  TIP3      14798           0.0000000000
     94225     15198  TIP3      H1             46.3042817887       37.7984669656      -40.5917587567  TIP3      14798           0.0000000000
     94226     15198  TIP3      H2             45.1214130914       38.3375935745      -41.3672050206  TIP3      14798           0.0000000000
     94227     15199  TIP3      OH2            38.9078681091       32.2827637864      -41.2260213565  TIP3      14799           0.0000000000
     94228     15199  TIP3      H1             39.8610337441       32.3632477416      -40.9790606022  TIP3      14799           0.0000000000
     94229     15199  TIP3      H2             38.9406913003       31.6270874410      -41.9268609566  TIP3      14799           0.0000000000
     94230     15200  TIP3      OH2            37.6238583216       37.6683376877      -36.2025442825  TIP3      14800           0.0000000000
     94231     15200  TIP3      H1             36.9327771175       37.1870996663      -36.7040405916  TIP3      14800           0.0000000000
     94232     15200  TIP3      H2             37.9352436095       36.9953671553      -35.5758259580  TIP3      14800           0.0000000000
     94233     15201  TIP3      OH2            38.4642219832       35.7694367334      -34.3719863679  TIP3      14801           0.0000000000
     94234     15201  TIP3      H1             38.1207988236       34.8846393486      -34.1788927882  TIP3      14801           0.0000000000
     94235     15201  TIP3      H2             38.6885886721       36.1041732460      -33.4850500022  TIP3      14801           0.0000000000
     94236     15202  TIP3      OH2            55.9526002148       36.5670877984      -31.3891329113  TIP3      14802           0.0000000000
     94237     15202  TIP3      H1             56.0043449061       36.7529605583      -30.4380644168  TIP3      14802           0.0000000000
     94238     15202  TIP3      H2             56.6907406845       37.1173281880      -31.7186308250  TIP3      14802           0.0000000000
     94239     15203  TIP3      OH2            55.5931999084       36.1601889092      -28.4728327055  TIP3      14803           0.0000000000
     94240     15203  TIP3      H1             55.0912747937       35.3938520737      -28.8367166067  TIP3      14803           0.0000000000
     94241     15203  TIP3      H2             56.1099374432       35.7405681033      -27.7759697795  TIP3      14803           0.0000000000
     94242     15204  TIP3      OH2            54.0236369383       31.8957086903      -23.8002726335  TIP3      14804           0.0000000000
     94243     15204  TIP3      H1             53.1315630356       31.8436129489      -23.4334028828  TIP3      14804           0.0000000000
     94244     15204  TIP3      H2             54.4020304509       32.7114625594      -23.4046774462  TIP3      14804           0.0000000000
     94245     15205  TIP3      OH2            55.2934899107       30.1858544540      -38.3456334638  TIP3      14805           0.0000000000
     94246     15205  TIP3      H1             56.1607352730       30.6096208163      -38.1713106630  TIP3      14805           0.0000000000
     94247     15205  TIP3      H2             55.3233648298       29.4570074420      -37.6882617298  TIP3      14805           0.0000000000
     94248     15206  TIP3      OH2            55.6998277861       28.2931397916      -36.4974855251  TIP3      14806           0.0000000000
     94249     15206  TIP3      H1             54.9706789131       27.7688140798      -36.0962969063  TIP3      14806           0.0000000000
     94250     15206  TIP3      H2             56.3053134587       28.4430877760      -35.7349430374  TIP3      14806           0.0000000000
     94251     15207  TIP3      OH2            55.4701480552       30.9960352060      -31.5045520230  TIP3      14807           0.0000000000
     94252     15207  TIP3      H1             56.3101593707       30.6294026689      -31.8373725618  TIP3      14807           0.0000000000
     94253     15207  TIP3      H2             55.5973820302       31.9577743709      -31.6748852908  TIP3      14807           0.0000000000
     94254     15208  TIP3      OH2            53.9725051207       33.8919938813      -29.2360675954  TIP3      14808           0.0000000000
     94255     15208  TIP3      H1             53.3163734923       34.2280503671      -28.6045811683  TIP3      14808           0.0000000000
     94256     15208  TIP3      H2             53.4386528618       33.4541770566      -29.9172359170  TIP3      14808           0.0000000000
     94257     15209  TIP3      OH2            55.9354739465       28.1119300310      -40.0797609604  TIP3      14809           0.0000000000
     94258     15209  TIP3      H1             55.4287213087       28.5011022639      -40.8180604361  TIP3      14809           0.0000000000
     94259     15209  TIP3      H2             55.9366894305       28.8328239174      -39.4215088072  TIP3      14809           0.0000000000
     94260     15210  TIP3      OH2            54.0828493804       25.3890048126      -41.4585933795  TIP3      14810           0.0000000000
     94261     15210  TIP3      H1             54.4284337498       25.9951348769      -42.1550682321  TIP3      14810           0.0000000000
     94262     15210  TIP3      H2             54.1922578382       24.5689676628      -41.9893580674  TIP3      14810           0.0000000000
     94263     15211  TIP3      OH2            53.5046756076       26.7614508293      -35.9258900647  TIP3      14811           0.0000000000
     94264     15211  TIP3      H1             53.3603015622       25.8067980746      -35.9539209947  TIP3      14811           0.0000000000
     94265     15211  TIP3      H2             53.1588768043       27.0301883518      -35.0613008153  TIP3      14811           0.0000000000
     94266     15212  TIP3      OH2            38.5238483037       28.8475500125      -31.8852507533  TIP3      14812           0.0000000000
     94267     15212  TIP3      H1             38.7223689576       28.7615837229      -32.8440402940  TIP3      14812           0.0000000000
     94268     15212  TIP3      H2             39.4086006043       28.6982827778      -31.4995418553  TIP3      14812           0.0000000000
     94269     15213  TIP3      OH2            54.3488140201       28.7299956666      -26.2554220010  TIP3      14813           0.0000000000
     94270     15213  TIP3      H1             54.9637144996       27.9859647426      -26.0836287547  TIP3      14813           0.0000000000
     94271     15213  TIP3      H2             54.9412540262       29.5075346775      -26.2471994998  TIP3      14813           0.0000000000
     94272     15214  TIP3      OH2            55.8619366632       26.6492897131      -25.6412635162  TIP3      14814           0.0000000000
     94273     15214  TIP3      H1             54.9812700560       26.2305218933      -25.7381819566  TIP3      14814           0.0000000000
     94274     15214  TIP3      H2             56.4388427881       25.8625514048      -25.6598427700  TIP3      14814           0.0000000000
     94275     15215  TIP3      OH2            53.5936172195       22.7802842070      -42.4589813962  TIP3      14815           0.0000000000
     94276     15215  TIP3      H1             54.1947965420       22.3904065239      -41.7961472540  TIP3      14815           0.0000000000
     94277     15215  TIP3      H2             52.7419559821       22.3789931099      -42.2375836374  TIP3      14815           0.0000000000
     94278     15216  TIP3      OH2            53.1919477749       24.3516447071      -37.4402603301  TIP3      14816           0.0000000000
     94279     15216  TIP3      H1             53.5017973658       23.4210703478      -37.3471559776  TIP3      14816           0.0000000000
     94280     15216  TIP3      H2             53.9683607598       24.7690861193      -37.8485756722  TIP3      14816           0.0000000000
     94281     15217  TIP3      OH2            53.7579847617       24.8955771468      -32.0370060576  TIP3      14817           0.0000000000
     94282     15217  TIP3      H1             54.7422679183       25.1222684574      -32.0480358532  TIP3      14817           0.0000000000
     94283     15217  TIP3      H2             53.6132113980       25.0357518525      -31.0850749298  TIP3      14817           0.0000000000
     94284     15218  TIP3      OH2            53.8578865569       25.6278203216      -29.2742503697  TIP3      14818           0.0000000000
     94285     15218  TIP3      H1             53.0129933583       25.9337580093      -28.8840986404  TIP3      14818           0.0000000000
     94286     15218  TIP3      H2             54.3163499137       26.4857509547      -29.4546283623  TIP3      14818           0.0000000000
     94287     15219  TIP3      OH2            38.1291811536       24.1429262085      -25.7351360780  TIP3      14819           0.0000000000
     94288     15219  TIP3      H1             39.0713877892       23.9614504896      -25.5414826258  TIP3      14819           0.0000000000
     94289     15219  TIP3      H2             37.6843101544       23.3340744886      -25.4066817444  TIP3      14819           0.0000000000
     94290     15220  TIP3      OH2            53.8249408348       21.6355771981      -37.4166452170  TIP3      14820           0.0000000000
     94291     15220  TIP3      H1             54.0271456124       21.1661308305      -36.5835319407  TIP3      14820           0.0000000000
     94292     15220  TIP3      H2             53.2247751692       21.0085041785      -37.8763258718  TIP3      14820           0.0000000000
     94293     15221  TIP3      OH2            39.3420470986       22.4317737470      -32.8779242461  TIP3      14821           0.0000000000
     94294     15221  TIP3      H1             39.8065602856       21.6215327414      -32.5850029055  TIP3      14821           0.0000000000
     94295     15221  TIP3      H2             39.8479719852       23.1396814619      -32.4564341273  TIP3      14821           0.0000000000
     94296     15222  TIP3      OH2            37.6331133854       25.4197541529      -31.8111474755  TIP3      14822           0.0000000000
     94297     15222  TIP3      H1             38.1752836716       25.2015680601      -32.5983738236  TIP3      14822           0.0000000000
     94298     15222  TIP3      H2             38.0517975572       26.2531877000      -31.5442520711  TIP3      14822           0.0000000000
     94299     15223  TIP3      OH2            55.6792705420       21.7375070475      -25.5315856966  TIP3      14823           0.0000000000
     94300     15223  TIP3      H1             54.7442828506       22.0274934662      -25.5761854399  TIP3      14823           0.0000000000
     94301     15223  TIP3      H2             55.7555188034       21.2024653052      -26.3327060858  TIP3      14823           0.0000000000
     94302     15224  TIP3      OH2            55.6674635199       21.6745922897      -40.8777795628  TIP3      14824           0.0000000000
     94303     15224  TIP3      H1             56.1130275582       20.9595688764      -41.3547801907  TIP3      14824           0.0000000000
     94304     15224  TIP3      H2             56.3842762163       22.3401259354      -40.8316634059  TIP3      14824           0.0000000000
     94305     15225  TIP3      OH2            37.9845688826       21.6835653433      -37.7570467215  TIP3      14825           0.0000000000
     94306     15225  TIP3      H1             37.0466898038       21.8911409546      -37.8887812418  TIP3      14825           0.0000000000
     94307     15225  TIP3      H2             38.4212909044       22.1798076746      -38.4660663928  TIP3      14825           0.0000000000
     94308     15226  TIP3      OH2            52.7270169721       36.6472952157      -35.7853109771  TIP3      14826           0.0000000000
     94309     15226  TIP3      H1             53.3963248798       36.3333204518      -36.4281378948  TIP3      14826           0.0000000000
     94310     15226  TIP3      H2             53.2762427210       37.1556464712      -35.1676487872  TIP3      14826           0.0000000000
     94311     15227  TIP3      OH2            37.9481332870       20.3918438865      -29.4285485477  TIP3      14827           0.0000000000
     94312     15227  TIP3      H1             37.2672484279       20.1705729720      -28.7696288723  TIP3      14827           0.0000000000
     94313     15227  TIP3      H2             37.4843229239       21.0444801048      -29.9956053309  TIP3      14827           0.0000000000
     94314     15228  TIP3      OH2            40.1458212678       33.5828588099      -25.2809703018  TIP3      14828           0.0000000000
     94315     15228  TIP3      H1             39.3088248806       33.7693214225      -25.7306549327  TIP3      14828           0.0000000000
     94316     15228  TIP3      H2             39.8859134452       33.5058192299      -24.3577693606  TIP3      14828           0.0000000000
     94317     15229  TIP3      OH2            43.0743542287       34.5530595566      -29.0066558871  TIP3      14829           0.0000000000
     94318     15229  TIP3      H1             42.6941944508       35.3947498888      -29.2938637415  TIP3      14829           0.0000000000
     94319     15229  TIP3      H2             43.9978646915       34.6575812393      -29.3191120480  TIP3      14829           0.0000000000
     94320     15230  TIP3      OH2            47.3905998306       35.9634899127      -26.0805556261  TIP3      14830           0.0000000000
     94321     15230  TIP3      H1             47.5709150772       35.6428804463      -25.1684914197  TIP3      14830           0.0000000000
     94322     15230  TIP3      H2             48.2704477106       36.2864370488      -26.3607936348  TIP3      14830           0.0000000000
     94323     15231  TIP3      OH2            49.7101577517       37.2436510296      -26.8281137502  TIP3      14831           0.0000000000
     94324     15231  TIP3      H1             50.4310753420       36.6317739546      -27.0321718488  TIP3      14831           0.0000000000
     94325     15231  TIP3      H2             50.0628532793       37.6565680752      -26.0055787308  TIP3      14831           0.0000000000
     94326     15232  TIP3      OH2            54.6560735161       19.8581774339      -27.6844487261  TIP3      14832           0.0000000000
     94327     15232  TIP3      H1             53.8413748518       20.1630829814      -28.1197321875  TIP3      14832           0.0000000000
     94328     15232  TIP3      H2             54.8730029650       19.0684137775      -28.2357410170  TIP3      14832           0.0000000000
     94329     15233  TIP3      OH2            40.5009999461       37.8083505337      -28.9852973851  TIP3      14833           0.0000000000
     94330     15233  TIP3      H1             39.7651425532       38.2789264785      -29.4118433358  TIP3      14833           0.0000000000
     94331     15233  TIP3      H2             40.1452417207       37.5841447745      -28.1130553266  TIP3      14833           0.0000000000
     94332     15234  TIP3      OH2            42.9723989924       37.3946707305      -29.9327615284  TIP3      14834           0.0000000000
     94333     15234  TIP3      H1             42.0769460885       37.5072387383      -29.5344937210  TIP3      14834           0.0000000000
     94334     15234  TIP3      H2             42.8994815613       37.9728090319      -30.7186363507  TIP3      14834           0.0000000000
     94335     15235  TIP3      OH2            47.6926270354       37.2935121364      -30.7747501004  TIP3      14835           0.0000000000
     94336     15235  TIP3      H1             47.2001195731       37.8438692216      -31.4118859253  TIP3      14835           0.0000000000
     94337     15235  TIP3      H2             47.8123219535       37.9260591393      -30.0293528100  TIP3      14835           0.0000000000
     94338     15236  TIP3      OH2            50.0078867518       36.1287416442      -29.8629501124  TIP3      14836           0.0000000000
     94339     15236  TIP3      H1             49.0855419511       36.3785822207      -30.0688474846  TIP3      14836           0.0000000000
     94340     15236  TIP3      H2             50.4181565971       37.0194006008      -29.8454077711  TIP3      14836           0.0000000000
     94341     15237  TIP3      OH2            52.5621176049       37.7099982193      -29.5207512447  TIP3      14837           0.0000000000
     94342     15237  TIP3      H1             52.4442299644       38.6711973014      -29.7380700392  TIP3      14837           0.0000000000
     94343     15237  TIP3      H2             52.7839989109       37.3434625235      -30.3858110306  TIP3      14837           0.0000000000
     94344     15238  TIP3      OH2            39.9151319506       36.4533145531      -32.0659920536  TIP3      14838           0.0000000000
     94345     15238  TIP3      H1             39.8775038885       36.0049144758      -31.1938470221  TIP3      14838           0.0000000000
     94346     15238  TIP3      H2             40.7370631779       36.1035464829      -32.4651796540  TIP3      14838           0.0000000000
     94347     15239  TIP3      OH2            42.0287250967       35.1652917247      -33.4143134203  TIP3      14839           0.0000000000
     94348     15239  TIP3      H1             41.8420414399       34.2303910991      -33.2110873653  TIP3      14839           0.0000000000
     94349     15239  TIP3      H2             42.8813077916       35.2976880025      -32.9414766383  TIP3      14839           0.0000000000
     94350     15240  TIP3      OH2            44.5991803523       35.6430438114      -32.5507076673  TIP3      14840           0.0000000000
     94351     15240  TIP3      H1             44.7974526651       34.7287185472      -32.8231798443  TIP3      14840           0.0000000000
     94352     15240  TIP3      H2             44.6625820480       35.5811756605      -31.5883474252  TIP3      14840           0.0000000000
     94353     15241  TIP3      OH2            48.1124929742       21.3084399524      -33.3923839092  TIP3      14841           0.0000000000
     94354     15241  TIP3      H1             47.4170130640       20.6592416613      -33.1456078430  TIP3      14841           0.0000000000
     94355     15241  TIP3      H2             48.6393883101       20.7753931969      -34.0058260624  TIP3      14841           0.0000000000
     94356     15242  TIP3      OH2            53.2317165984       19.3776455669      -33.2908051827  TIP3      14842           0.0000000000
     94357     15242  TIP3      H1             53.8476825852       19.9432408795      -33.8233247391  TIP3      14842           0.0000000000
     94358     15242  TIP3      H2             52.3530648408       19.7039993923      -33.5491160187  TIP3      14842           0.0000000000
     94359     15243  TIP3      OH2            54.8980253036       20.5725665222      -34.9831624742  TIP3      14843           0.0000000000
     94360     15243  TIP3      H1             55.5667034141       20.0311480573      -35.4794509293  TIP3      14843           0.0000000000
     94361     15243  TIP3      H2             55.3622402492       21.4336086424      -34.9426598263  TIP3      14843           0.0000000000
     94362     15244  TIP3      OH2            40.4403486163       19.9337485648      -35.5706029438  TIP3      14844           0.0000000000
     94363     15244  TIP3      H1             39.6471759852       19.6973537547      -36.0890811411  TIP3      14844           0.0000000000
     94364     15244  TIP3      H2             40.9381619717       19.0952941502      -35.5943741361  TIP3      14844           0.0000000000
     94365     15245  TIP3      OH2            39.2363028241       19.6959291699      -39.7996977439  TIP3      14845           0.0000000000
     94366     15245  TIP3      H1             39.7025546267       20.3313579346      -40.3776231152  TIP3      14845           0.0000000000
     94367     15245  TIP3      H2             38.6346759308       20.2631663200      -39.2932345320  TIP3      14845           0.0000000000
     94368     15246  TIP3      OH2            44.9670034528       19.8464706575      -35.7743125880  TIP3      14846           0.0000000000
     94369     15246  TIP3      H1             45.8629223632       20.2266199481      -35.8110427467  TIP3      14846           0.0000000000
     94370     15246  TIP3      H2             44.8776438503       19.6348296811      -34.8449438114  TIP3      14846           0.0000000000
     94371     15247  TIP3      OH2            50.5906919016       19.8997427635      -34.1230924327  TIP3      14847           0.0000000000
     94372     15247  TIP3      H1             50.6271148925       19.9614976469      -35.0863386904  TIP3      14847           0.0000000000
     94373     15247  TIP3      H2             50.2687312128       18.9648144795      -34.0005530414  TIP3      14847           0.0000000000
     94374     15248  TIP3      OH2            51.9240284289       19.9073429428      -38.4477501304  TIP3      14848           0.0000000000
     94375     15248  TIP3      H1             51.1948070995       20.5118945972      -38.6378044609  TIP3      14848           0.0000000000
     94376     15248  TIP3      H2             51.4624799495       19.0527316818      -38.2851981958  TIP3      14848           0.0000000000
     94377     15249  TIP3      OH2            39.1634340231       35.6425985308      -38.8473020457  TIP3      14849           0.0000000000
     94378     15249  TIP3      H1             38.4707867131       35.6379904776      -39.5418151311  TIP3      14849           0.0000000000
     94379     15249  TIP3      H2             39.1555982970       36.5847980587      -38.6240871162  TIP3      14849           0.0000000000
     94380     15250  TIP3      OH2            41.0851027245       21.6000437470      -41.3251345416  TIP3      14850           0.0000000000
     94381     15250  TIP3      H1             41.6056197620       21.0021081283      -41.8606237905  TIP3      14850           0.0000000000
     94382     15250  TIP3      H2             41.7350205465       21.9443400502      -40.6867761382  TIP3      14850           0.0000000000
     94383     15251  TIP3      OH2            46.1161509290       21.8968276229      -38.9107302763  TIP3      14851           0.0000000000
     94384     15251  TIP3      H1             46.3328879270       21.2891727107      -38.1839869893  TIP3      14851           0.0000000000
     94385     15251  TIP3      H2             46.1143177929       22.7519329301      -38.4177745881  TIP3      14851           0.0000000000
     94386     15252  TIP3      OH2            47.9878781229       37.0585766741      -40.3975831029  TIP3      14852           0.0000000000
     94387     15252  TIP3      H1             48.9126388313       37.2227939012      -40.6478869029  TIP3      14852           0.0000000000
     94388     15252  TIP3      H2             47.7990028468       36.4834977186      -41.1972053665  TIP3      14852           0.0000000000
     94389     15253  TIP3      OH2            54.6977260292       36.4341896526      -37.7928480798  TIP3      14853           0.0000000000
     94390     15253  TIP3      H1             54.5212019334       35.6636973254      -38.3745268976  TIP3      14853           0.0000000000
     94391     15253  TIP3      H2             54.6792166598       37.1907936516      -38.4079096338  TIP3      14853           0.0000000000
     94392     15254  TIP3      OH2            40.3513516447       20.4559342645      -26.1048809120  TIP3      14854           0.0000000000
     94393     15254  TIP3      H1             39.9923707523       19.6709494942      -25.6475487533  TIP3      14854           0.0000000000
     94394     15254  TIP3      H2             41.2763274050       20.4412373122      -25.7527512671  TIP3      14854           0.0000000000
     94395     15255  TIP3      OH2            42.3488396817       19.8201679340      -24.5129996771  TIP3      14855           0.0000000000
     94396     15255  TIP3      H1             43.2505699460       19.4958965299      -24.7094805343  TIP3      14855           0.0000000000
     94397     15255  TIP3      H2             41.9809704710       19.0415434181      -24.0534927092  TIP3      14855           0.0000000000
     94398     15256  TIP3      OH2            40.9750463575       36.5959083172      -41.8640986772  TIP3      14856           0.0000000000
     94399     15256  TIP3      H1             40.6972982746       36.8743619822      -40.9813738525  TIP3      14856           0.0000000000
     94400     15256  TIP3      H2             41.7393818929       36.0448275501      -41.7020732064  TIP3      14856           0.0000000000
     94401     15257  TIP3      OH2            50.7637587010       19.1410827844      -24.3406848722  TIP3      14857           0.0000000000
     94402     15257  TIP3      H1             50.8546355730       18.6794011037      -23.4923438807  TIP3      14857           0.0000000000
     94403     15257  TIP3      H2             51.6754295692       19.1174753036      -24.6861439931  TIP3      14857           0.0000000000
     94404     15258  TIP3      OH2            53.9722485808       35.1847995925      -25.6510351624  TIP3      14858           0.0000000000
     94405     15258  TIP3      H1             53.1679550029       35.0188891360      -26.1866068952  TIP3      14858           0.0000000000
     94406     15258  TIP3      H2             53.8578296252       36.1323734496      -25.4468137633  TIP3      14858           0.0000000000
     94407     15259  TIP3      OH2           -44.8072779518       47.9228956609      -35.6068844521  TIP3      14859           0.0000000000
     94408     15259  TIP3      H1            -44.7066116616       48.8876847623      -35.7561805284  TIP3      14859           0.0000000000
     94409     15259  TIP3      H2            -45.4338385597       47.6671240249      -36.2992172508  TIP3      14859           0.0000000000
     94410     15260  TIP3      OH2           -45.8214657228       47.1896429442      -32.2033340484  TIP3      14860           0.0000000000
     94411     15260  TIP3      H1            -45.9207643097       46.5374540216      -31.4953089699  TIP3      14860           0.0000000000
     94412     15260  TIP3      H2            -46.2077345109       46.7028897424      -32.9556023227  TIP3      14860           0.0000000000
     94413     15261  TIP3      OH2           -53.5350301165       46.8339615137      -30.6171659972  TIP3      14861           0.0000000000
     94414     15261  TIP3      H1            -53.4219781860       46.1666551378      -29.9102986276  TIP3      14861           0.0000000000
     94415     15261  TIP3      H2            -52.7679453092       47.4107008591      -30.4459318374  TIP3      14861           0.0000000000
     94416     15262  TIP3      OH2           -42.1584513087       50.1226747364      -33.9179824404  TIP3      14862           0.0000000000
     94417     15262  TIP3      H1            -42.5943761460       49.4076106700      -33.4419502907  TIP3      14862           0.0000000000
     94418     15262  TIP3      H2            -42.1613518469       50.8393158716      -33.2554706567  TIP3      14862           0.0000000000
     94419     15263  TIP3      OH2           -52.5821021869       51.2832724641      -32.0975807093  TIP3      14863           0.0000000000
     94420     15263  TIP3      H1            -52.9171286663       50.4385030260      -32.4532307562  TIP3      14863           0.0000000000
     94421     15263  TIP3      H2            -51.6306681466       51.0759234095      -32.0527441727  TIP3      14863           0.0000000000
     94422     15264  TIP3      OH2           -55.8631773534       44.8798198713      -36.6299077777  TIP3      14864           0.0000000000
     94423     15264  TIP3      H1            -56.3154345851       45.7654168157      -36.6740776855  TIP3      14864           0.0000000000
     94424     15264  TIP3      H2            -56.3691516938       44.2757454006      -37.1364171981  TIP3      14864           0.0000000000
     94425     15265  TIP3      OH2           -55.2521332467       47.0707500203      -34.5562105159  TIP3      14865           0.0000000000
     94426     15265  TIP3      H1            -54.9981095156       46.2883367866      -34.0319883388  TIP3      14865           0.0000000000
     94427     15265  TIP3      H2            -54.4985418126       47.1759669594      -35.1548504830  TIP3      14865           0.0000000000
     94428     15266  TIP3      OH2           -45.0840197934       55.2307028031      -33.6993017066  TIP3      14866           0.0000000000
     94429     15266  TIP3      H1            -44.4237180695       54.5419589509      -33.9532366175  TIP3      14866           0.0000000000
     94430     15266  TIP3      H2            -45.2525773470       54.9841896897      -32.7890078759  TIP3      14866           0.0000000000
     94431     15267  TIP3      OH2           -47.4771265092       49.6327210230      -31.7854120891  TIP3      14867           0.0000000000
     94432     15267  TIP3      H1            -47.1666633569       48.9270846163      -32.3820850338  TIP3      14867           0.0000000000
     94433     15267  TIP3      H2            -46.7181409046       49.7235818845      -31.1912426220  TIP3      14867           0.0000000000
     94434     15268  TIP3      OH2           -38.8459980342       41.2164068138      -30.9671103322  TIP3      14868           0.0000000000
     94435     15268  TIP3      H1            -38.7332133204       41.8358896485      -30.2142685381  TIP3      14868           0.0000000000
     94436     15268  TIP3      H2            -38.3565617069       41.6803383172      -31.6649722542  TIP3      14868           0.0000000000
     94437     15269  TIP3      OH2           -44.3067119099       44.0381905985      -31.4375310032  TIP3      14869           0.0000000000
     94438     15269  TIP3      H1            -44.1800286229       43.0744142911      -31.4506040750  TIP3      14869           0.0000000000
     94439     15269  TIP3      H2            -44.4419888778       44.2065707791      -32.3936512597  TIP3      14869           0.0000000000
     94440     15270  TIP3      OH2           -51.1808549351       42.1125334881      -34.1907719489  TIP3      14870           0.0000000000
     94441     15270  TIP3      H1            -51.1154257781       42.9766778065      -34.6375235251  TIP3      14870           0.0000000000
     94442     15270  TIP3      H2            -51.6220671664       41.5569259836      -34.8643284612  TIP3      14870           0.0000000000
     94443     15271  TIP3      OH2           -43.4742909090       42.2250358244      -35.8144870598  TIP3      14871           0.0000000000
     94444     15271  TIP3      H1            -42.7956724556       41.9137767179      -35.1687203439  TIP3      14871           0.0000000000
     94445     15271  TIP3      H2            -42.9219485493       42.7801711569      -36.4009654208  TIP3      14871           0.0000000000
     94446     15272  TIP3      OH2           -54.5801511394       44.5295377550      -33.4546567626  TIP3      14872           0.0000000000
     94447     15272  TIP3      H1            -53.8947584793       43.9793100813      -33.0104675428  TIP3      14872           0.0000000000
     94448     15272  TIP3      H2            -54.4929887803       44.2235231393      -34.3657519106  TIP3      14872           0.0000000000
     94449     15273  TIP3      OH2           -49.3923947366       46.0887817619      -34.2537939871  TIP3      14873           0.0000000000
     94450     15273  TIP3      H1            -48.7872548446       45.5461726060      -33.6973516957  TIP3      14873           0.0000000000
     94451     15273  TIP3      H2            -49.9724622384       45.4113138523      -34.6272467124  TIP3      14873           0.0000000000
     94452     15274  TIP3      OH2           -38.4214455737       42.6720719116      -28.7168672628  TIP3      14874           0.0000000000
     94453     15274  TIP3      H1            -39.0897905284       43.3821119739      -28.8070058217  TIP3      14874           0.0000000000
     94454     15274  TIP3      H2            -38.4029947620       42.5189260088      -27.7611706266  TIP3      14874           0.0000000000
     94455     15275  TIP3      OH2           -52.3276558374       41.0211577715      -30.1330728781  TIP3      14875           0.0000000000
     94456     15275  TIP3      H1            -52.5751447109       41.5849796258      -30.8957876775  TIP3      14875           0.0000000000
     94457     15275  TIP3      H2            -53.0197741769       41.2710004991      -29.4730975775  TIP3      14875           0.0000000000
     94458     15276  TIP3      OH2           -44.9926747702       50.5181550844      -36.5870541453  TIP3      14876           0.0000000000
     94459     15276  TIP3      H1            -45.2898441636       50.2157688313      -37.4550296135  TIP3      14876           0.0000000000
     94460     15276  TIP3      H2            -45.3217340639       51.4436629829      -36.5494117640  TIP3      14876           0.0000000000
     94461     15277  TIP3      OH2           -49.7849805301       48.7027070773      -29.8382148244  TIP3      14877           0.0000000000
     94462     15277  TIP3      H1            -50.5254812490       49.3225828110      -29.7262700013  TIP3      14877           0.0000000000
     94463     15277  TIP3      H2            -49.0790649184       49.2621732979      -30.1836201813  TIP3      14877           0.0000000000
     94464     15278  TIP3      OH2           -41.6769925632       41.5326953712      -33.8326184467  TIP3      14878           0.0000000000
     94465     15278  TIP3      H1            -41.8974118537       40.7836952847      -33.2804374768  TIP3      14878           0.0000000000
     94466     15278  TIP3      H2            -41.0186407103       42.0130078153      -33.2971111287  TIP3      14878           0.0000000000
     94467     15279  TIP3      OH2           -52.7826744122       42.8968579745      -32.1619726711  TIP3      14879           0.0000000000
     94468     15279  TIP3      H1            -52.1370301983       43.5626891441      -31.8015966932  TIP3      14879           0.0000000000
     94469     15279  TIP3      H2            -52.2248266851       42.4647032992      -32.8488341544  TIP3      14879           0.0000000000
     94470     15280  TIP3      OH2           -51.3638024198       50.6688405563      -29.0734466985  TIP3      14880           0.0000000000
     94471     15280  TIP3      H1            -51.3927320517       51.5743551174      -29.4301557815  TIP3      14880           0.0000000000
     94472     15280  TIP3      H2            -52.2438067783       50.5970473996      -28.6322143569  TIP3      14880           0.0000000000
     94473     15281  TIP3      OH2           -55.2446456409       50.3186936065      -38.2860130620  TIP3      14881           0.0000000000
     94474     15281  TIP3      H1            -55.5100958099       50.6011988967      -39.1801850053  TIP3      14881           0.0000000000
     94475     15281  TIP3      H2            -55.2023325579       51.1710380539      -37.7989832399  TIP3      14881           0.0000000000
     94476     15282  TIP3      OH2           -41.6368113719       51.9561674063      -31.5512786714  TIP3      14882           0.0000000000
     94477     15282  TIP3      H1            -42.6024840892       52.0471368363      -31.4094965229  TIP3      14882           0.0000000000
     94478     15282  TIP3      H2            -41.3707437751       52.8829198097      -31.7197663330  TIP3      14882           0.0000000000
     94479     15283  TIP3      OH2           -41.3336021801       40.2409961081      -30.1531007937  TIP3      14883           0.0000000000
     94480     15283  TIP3      H1            -42.0668570990       40.8701954540      -30.2032100933  TIP3      14883           0.0000000000
     94481     15283  TIP3      H2            -40.6356987855       40.6781732864      -30.6705828617  TIP3      14883           0.0000000000
     94482     15284  TIP3      OH2           -48.3346788240       38.3429540478      -32.6784237655  TIP3      14884           0.0000000000
     94483     15284  TIP3      H1            -48.4776734589       37.3873819654      -32.7480395274  TIP3      14884           0.0000000000
     94484     15284  TIP3      H2            -49.2118275252       38.6722276583      -32.4025495558  TIP3      14884           0.0000000000
     94485     15285  TIP3      OH2           -43.4045040267       53.7240482123      -34.9382976461  TIP3      14885           0.0000000000
     94486     15285  TIP3      H1            -42.9564255756       53.0131721788      -35.4333524012  TIP3      14885           0.0000000000
     94487     15285  TIP3      H2            -43.0308377308       54.5327103293      -35.3385578042  TIP3      14885           0.0000000000
     94488     15286  TIP3      OH2           -42.2071924385       51.6714397328      -36.4383878482  TIP3      14886           0.0000000000
     94489     15286  TIP3      H1            -42.4805144961       50.9537128018      -37.0436835479  TIP3      14886           0.0000000000
     94490     15286  TIP3      H2            -42.1557112056       51.1815959662      -35.5907822031  TIP3      14886           0.0000000000
     94491     15287  TIP3      OH2           -40.5496049431       50.2351335168      -27.9381789147  TIP3      14887           0.0000000000
     94492     15287  TIP3      H1            -40.4055217865       49.6150164315      -28.6854117566  TIP3      14887           0.0000000000
     94493     15287  TIP3      H2            -40.3690306280       51.0996966871      -28.3367071270  TIP3      14887           0.0000000000
     94494     15288  TIP3      OH2           -46.0734010804       47.1680151307      -38.1637784647  TIP3      14888           0.0000000000
     94495     15288  TIP3      H1            -46.7757309155       47.7235903877      -38.5493967795  TIP3      14888           0.0000000000
     94496     15288  TIP3      H2            -45.3663668534       47.2394873340      -38.8423940474  TIP3      14888           0.0000000000
     94497     15289  TIP3      OH2           -46.0300717326       45.6546214928      -41.1278643260  TIP3      14889           0.0000000000
     94498     15289  TIP3      H1            -45.2998492898       45.6700191424      -40.4820866737  TIP3      14889           0.0000000000
     94499     15289  TIP3      H2            -45.7013138340       45.0180322825      -41.7738607161  TIP3      14889           0.0000000000
     94500     15290  TIP3      OH2           -38.6841208768       46.5566172914      -29.8759351510  TIP3      14890           0.0000000000
     94501     15290  TIP3      H1            -39.3498500829       47.2710362607      -29.8184864615  TIP3      14890           0.0000000000
     94502     15290  TIP3      H2            -38.2172783071       46.7853886206      -30.7017340387  TIP3      14890           0.0000000000
     94503     15291  TIP3      OH2           -42.7639671462       47.6112195493      -37.1409854252  TIP3      14891           0.0000000000
     94504     15291  TIP3      H1            -43.5062450630       47.6179141490      -36.5431591685  TIP3      14891           0.0000000000
     94505     15291  TIP3      H2            -42.2550877813       46.7979758768      -36.8450333454  TIP3      14891           0.0000000000
     94506     15292  TIP3      OH2           -42.7189718023       45.5372138252      -28.1486380055  TIP3      14892           0.0000000000
     94507     15292  TIP3      H1            -42.6886284444       46.3379312774      -27.5937836433  TIP3      14892           0.0000000000
     94508     15292  TIP3      H2            -43.3571099789       45.8402552326      -28.8372702932  TIP3      14892           0.0000000000
     94509     15293  TIP3      OH2           -51.0132962104       48.0414977198      -35.3465883973  TIP3      14893           0.0000000000
     94510     15293  TIP3      H1            -51.3442534767       47.6299292889      -36.1749198872  TIP3      14893           0.0000000000
     94511     15293  TIP3      H2            -50.4119275655       47.3385743794      -34.9881045384  TIP3      14893           0.0000000000
     94512     15294  TIP3      OH2           -49.6725868459       51.4661937922      -32.6618632381  TIP3      14894           0.0000000000
     94513     15294  TIP3      H1            -49.7254042148       50.8670338645      -33.4247146723  TIP3      14894           0.0000000000
     94514     15294  TIP3      H2            -48.9149593506       51.0654341387      -32.1845023107  TIP3      14894           0.0000000000
     94515     15295  TIP3      OH2           -51.0601440035       47.1683614305      -31.8616636973  TIP3      14895           0.0000000000
     94516     15295  TIP3      H1            -50.2613963495       46.8930940996      -32.4043019478  TIP3      14895           0.0000000000
     94517     15295  TIP3      H2            -50.4297900981       47.3803373464      -31.1271529691  TIP3      14895           0.0000000000
     94518     15296  TIP3      OH2           -44.3093699075       52.3217158697      -30.9805487301  TIP3      14896           0.0000000000
     94519     15296  TIP3      H1            -44.5777957746       52.9667255793      -30.3255547521  TIP3      14896           0.0000000000
     94520     15296  TIP3      H2            -44.5380346779       51.4623519281      -30.5447197602  TIP3      14896           0.0000000000
     94521     15297  TIP3      OH2           -49.7464096860       51.1898793106      -26.9723779316  TIP3      14897           0.0000000000
     94522     15297  TIP3      H1            -50.1062757217       51.9800694450      -26.5207386629  TIP3      14897           0.0000000000
     94523     15297  TIP3      H2            -50.4176096450       51.0238588840      -27.6803555408  TIP3      14897           0.0000000000
     94524     15298  TIP3      OH2           -43.8106797229       46.5617294021      -39.5564597571  TIP3      14898           0.0000000000
     94525     15298  TIP3      H1            -43.1834897205       46.6952436815      -38.7913705247  TIP3      14898           0.0000000000
     94526     15298  TIP3      H2            -43.3483752766       47.0410126347      -40.2663308918  TIP3      14898           0.0000000000
     94527     15299  TIP3      OH2           -52.8314598004       47.3654460681      -27.7730181834  TIP3      14899           0.0000000000
     94528     15299  TIP3      H1            -52.7812472917       48.0404748988      -27.0664803037  TIP3      14899           0.0000000000
     94529     15299  TIP3      H2            -53.7414440497       47.4871744697      -28.0824197835  TIP3      14899           0.0000000000
     94530     15300  TIP3      OH2           -46.0434279834       53.2889422738      -36.1032570291  TIP3      14900           0.0000000000
     94531     15300  TIP3      H1            -45.5880829744       53.5922144908      -35.3132873650  TIP3      14900           0.0000000000
     94532     15300  TIP3      H2            -46.6120070233       54.0303373340      -36.3422004035  TIP3      14900           0.0000000000
     94533     15301  TIP3      OH2           -51.5195745031       53.2404476579      -26.2263491710  TIP3      14901           0.0000000000
     94534     15301  TIP3      H1            -51.5282581007       53.1199858899      -27.1877341620  TIP3      14901           0.0000000000
     94535     15301  TIP3      H2            -52.4524194082       53.1340686411      -25.9814984050  TIP3      14901           0.0000000000
     94536     15302  TIP3      OH2           -40.0593459018       38.2893843146      -39.7007293539  TIP3      14902           0.0000000000
     94537     15302  TIP3      H1            -41.0014098318       38.4333531745      -39.4413091187  TIP3      14902           0.0000000000
     94538     15302  TIP3      H2            -39.8287092927       39.1386434870      -40.1172098593  TIP3      14902           0.0000000000
     94539     15303  TIP3      OH2           -51.9998120218       47.0746504037      -37.7478311747  TIP3      14903           0.0000000000
     94540     15303  TIP3      H1            -52.3188573030       47.8513149541      -38.2526400014  TIP3      14903           0.0000000000
     94541     15303  TIP3      H2            -52.6802583422       46.4193221296      -37.9310560807  TIP3      14903           0.0000000000
     94542     15304  TIP3      OH2           -38.9119225981       52.6553686279      -41.3177482715  TIP3      14904           0.0000000000
     94543     15304  TIP3      H1            -38.8371254031       53.6085872889      -41.1934122561  TIP3      14904           0.0000000000
     94544     15304  TIP3      H2            -37.9954917201       52.3358711231      -41.4056212161  TIP3      14904           0.0000000000
     94545     15305  TIP3      OH2           -55.9102199991       49.4850504505      -28.9039365151  TIP3      14905           0.0000000000
     94546     15305  TIP3      H1            -56.4144272011       49.4023077481      -29.7364673096  TIP3      14905           0.0000000000
     94547     15305  TIP3      H2            -55.9049426188       48.5376511944      -28.6336569580  TIP3      14905           0.0000000000
     94548     15306  TIP3      OH2           -56.1975540457       52.2116588792      -32.0350535809  TIP3      14906           0.0000000000
     94549     15306  TIP3      H1            -55.2374237332       52.0803414803      -32.0742858480  TIP3      14906           0.0000000000
     94550     15306  TIP3      H2            -56.2663558517       53.0121107702      -31.5282112871  TIP3      14906           0.0000000000
     94551     15307  TIP3      OH2           -37.9609041167       52.8983082861      -26.3789811397  TIP3      14907           0.0000000000
     94552     15307  TIP3      H1            -38.0555889520       51.9381368652      -26.3964368682  TIP3      14907           0.0000000000
     94553     15307  TIP3      H2            -38.8159657462       53.1650646508      -25.9688650568  TIP3      14907           0.0000000000
     94554     15308  TIP3      OH2           -46.9938246163       52.4629548049      -27.5058494915  TIP3      14908           0.0000000000
     94555     15308  TIP3      H1            -46.9230231061       53.3046998099      -27.0018119706  TIP3      14908           0.0000000000
     94556     15308  TIP3      H2            -47.8746750578       52.1335455410      -27.2476879483  TIP3      14908           0.0000000000
     94557     15309  TIP3      OH2           -46.5746249329      -56.6378872576      -37.6956246230  TIP3      14909           0.0000000000
     94558     15309  TIP3      H1            -46.6591815996      -56.7150988073      -38.6633160451  TIP3      14909           0.0000000000
     94559     15309  TIP3      H2            -46.5607762116      -55.6636326259      -37.5543878373  TIP3      14909           0.0000000000
     94560     15310  TIP3      OH2           -52.9119378008       55.0227017059      -35.9171067833  TIP3      14910           0.0000000000
     94561     15310  TIP3      H1            -52.7831374850       54.6663136245      -35.0109397393  TIP3      14910           0.0000000000
     94562     15310  TIP3      H2            -53.7821574426       54.6549857734      -36.1401846542  TIP3      14910           0.0000000000
     94563     15311  TIP3      OH2           -43.4824957169       55.4154452827      -40.6943587944  TIP3      14911           0.0000000000
     94564     15311  TIP3      H1            -43.0972798843       54.6374761070      -41.1614379005  TIP3      14911           0.0000000000
     94565     15311  TIP3      H2            -43.4834675912       55.1080424945      -39.7765244515  TIP3      14911           0.0000000000
     94566     15312  TIP3      OH2           -43.8001111922       55.3052525419      -37.9286353244  TIP3      14912           0.0000000000
     94567     15312  TIP3      H1            -44.7649834839       55.4196351820      -37.7527076150  TIP3      14912           0.0000000000
     94568     15312  TIP3      H2            -43.5705356341       54.5690752027      -37.3500467924  TIP3      14912           0.0000000000
     94569     15313  TIP3      OH2           -40.8130801503       44.3869490403      -25.8864568125  TIP3      14913           0.0000000000
     94570     15313  TIP3      H1            -41.2486326391       44.8625260465      -26.6109934228  TIP3      14913           0.0000000000
     94571     15313  TIP3      H2            -40.8007378755       43.4728416281      -26.2029685846  TIP3      14913           0.0000000000
     94572     15314  TIP3      OH2           -53.6842611571       50.8043225850      -27.8910129435  TIP3      14914           0.0000000000
     94573     15314  TIP3      H1            -53.4707456603       50.4072726238      -27.0221994867  TIP3      14914           0.0000000000
     94574     15314  TIP3      H2            -54.5404738904       50.3922234431      -28.1130047001  TIP3      14914           0.0000000000
     94575     15315  TIP3      OH2           -51.0237889366       39.2386705097      -31.9005003487  TIP3      14915           0.0000000000
     94576     15315  TIP3      H1            -51.9200901207       39.1606591551      -32.3093083470  TIP3      14915           0.0000000000
     94577     15315  TIP3      H2            -51.1005829158       40.1068605013      -31.4734101887  TIP3      14915           0.0000000000
     94578     15316  TIP3      OH2           -46.3670417488       38.9281554560      -28.5429611383  TIP3      14916           0.0000000000
     94579     15316  TIP3      H1            -45.9503874882       38.5461515551      -27.7593152170  TIP3      14916           0.0000000000
     94580     15316  TIP3      H2            -47.3320518397       38.8308240079      -28.4374579053  TIP3      14916           0.0000000000
     94581     15317  TIP3      OH2           -43.0609459625       42.7442077996      -27.6827960462  TIP3      14917           0.0000000000
     94582     15317  TIP3      H1            -43.6029359167       42.5779571119      -26.8731473267  TIP3      14917           0.0000000000
     94583     15317  TIP3      H2            -43.2327708436       43.6673099168      -27.9164192799  TIP3      14917           0.0000000000
     94584     15318  TIP3      OH2           -42.2557898917       47.6437292227      -41.8375659019  TIP3      14918           0.0000000000
     94585     15318  TIP3      H1            -42.2353949858       47.4006731706      -42.7850780367  TIP3      14918           0.0000000000
     94586     15318  TIP3      H2            -41.3905803933       48.0211158158      -41.6831573709  TIP3      14918           0.0000000000
     94587     15319  TIP3      OH2           -46.7175054298       41.4847109753      -41.2448842126  TIP3      14919           0.0000000000
     94588     15319  TIP3      H1            -47.0047273957       41.4644197445      -40.3112610005  TIP3      14919           0.0000000000
     94589     15319  TIP3      H2            -46.9910225516       40.6026087624      -41.5267188173  TIP3      14919           0.0000000000
     94590     15320  TIP3      OH2           -51.0187148166       44.1603193325      -30.7721660863  TIP3      14920           0.0000000000
     94591     15320  TIP3      H1            -51.6405560532       44.1988059895      -30.0450131250  TIP3      14920           0.0000000000
     94592     15320  TIP3      H2            -50.9001401607       45.1083530816      -31.0378836281  TIP3      14920           0.0000000000
     94593     15321  TIP3      OH2           -50.9545448986       44.4080948264      -35.8620899892  TIP3      14921           0.0000000000
     94594     15321  TIP3      H1            -51.8723416445       44.0921065126      -35.9550303231  TIP3      14921           0.0000000000
     94595     15321  TIP3      H2            -50.5292453491       44.0544794878      -36.6623007255  TIP3      14921           0.0000000000
     94596     15322  TIP3      OH2           -45.4365014820       44.8374636120      -37.0689364341  TIP3      14922           0.0000000000
     94597     15322  TIP3      H1            -45.8293313642       45.6791384746      -37.3823102012  TIP3      14922           0.0000000000
     94598     15322  TIP3      H2            -44.7087724193       44.7104080574      -37.7077098120  TIP3      14922           0.0000000000
     94599     15323  TIP3      OH2           -46.3292702531       45.0489048937      -25.6051705930  TIP3      14923           0.0000000000
     94600     15323  TIP3      H1            -46.8990244270       44.3073612566      -25.2796973837  TIP3      14923           0.0000000000
     94601     15323  TIP3      H2            -45.5087075024       44.9167512400      -25.1086211642  TIP3      14923           0.0000000000
     94602     15324  TIP3      OH2           -44.4032960337       44.3127560565      -34.2285861472  TIP3      14924           0.0000000000
     94603     15324  TIP3      H1            -44.6382996758       44.9002744131      -34.9682813750  TIP3      14924           0.0000000000
     94604     15324  TIP3      H2            -44.2543421610       43.4722953317      -34.7036134980  TIP3      14924           0.0000000000
     94605     15325  TIP3      OH2           -53.2473729331       44.5202373510      -28.9634377199  TIP3      14925           0.0000000000
     94606     15325  TIP3      H1            -53.2318444437       44.9155406494      -28.0772688296  TIP3      14925           0.0000000000
     94607     15325  TIP3      H2            -53.7065924703       43.6825661510      -28.8222505844  TIP3      14925           0.0000000000
     94608     15326  TIP3      OH2           -49.7376367228       42.0806449580      -41.9029022744  TIP3      14926           0.0000000000
     94609     15326  TIP3      H1            -50.2740465308       41.4650371948      -41.3645406165  TIP3      14926           0.0000000000
     94610     15326  TIP3      H2            -50.4187762012       42.3604719005      -42.5341492832  TIP3      14926           0.0000000000
     94611     15327  TIP3      OH2           -56.5986507041       41.6749028663      -35.0878571812  TIP3      14927           0.0000000000
     94612     15327  TIP3      H1            -55.9617382333       41.5913755412      -34.3405224992  TIP3      14927           0.0000000000
     94613     15327  TIP3      H2            -56.1547356199       41.2052062623      -35.8179195212  TIP3      14927           0.0000000000
     94614     15328  TIP3      OH2           -55.2690451879       42.2866407153      -39.6380884026  TIP3      14928           0.0000000000
     94615     15328  TIP3      H1            -54.8376382226       42.9403409910      -40.2512582187  TIP3      14928           0.0000000000
     94616     15328  TIP3      H2            -55.9927710917       42.8786775757      -39.3455360388  TIP3      14928           0.0000000000
     94617     15329  TIP3      OH2           -45.1524867547       45.9430486791      -29.6031028616  TIP3      14929           0.0000000000
     94618     15329  TIP3      H1            -44.8458590737       45.2820453740      -30.2496561608  TIP3      14929           0.0000000000
     94619     15329  TIP3      H2            -45.6287673100       45.3987535704      -28.9506824352  TIP3      14929           0.0000000000
     94620     15330  TIP3      OH2           -48.3773490486       41.8577713941      -34.8187805992  TIP3      14930           0.0000000000
     94621     15330  TIP3      H1            -49.3067807188       41.9162352036      -34.5147705011  TIP3      14930           0.0000000000
     94622     15330  TIP3      H2            -47.8884521625       41.7895190993      -33.9860085421  TIP3      14930           0.0000000000
     94623     15331  TIP3      OH2           -53.5697684412       43.4735990450      -35.9536144581  TIP3      14931           0.0000000000
     94624     15331  TIP3      H1            -54.4520297078       43.5911408638      -36.3294834265  TIP3      14931           0.0000000000
     94625     15331  TIP3      H2            -53.2678074810       42.6317611406      -36.3333555353  TIP3      14931           0.0000000000
     94626     15332  TIP3      OH2           -49.9191330807       43.4990715100      -38.3164352352  TIP3      14932           0.0000000000
     94627     15332  TIP3      H1            -48.9658879829       43.6172408820      -38.1414496628  TIP3      14932           0.0000000000
     94628     15332  TIP3      H2            -50.1412384527       44.1676800603      -38.9866770639  TIP3      14932           0.0000000000
     94629     15333  TIP3      OH2           -43.9704492223       41.1097338705      -31.5558745127  TIP3      14933           0.0000000000
     94630     15333  TIP3      H1            -44.6665572293       41.2130408605      -30.8714089343  TIP3      14933           0.0000000000
     94631     15333  TIP3      H2            -44.4771481385       40.9206700047      -32.3573437218  TIP3      14933           0.0000000000
     94632     15334  TIP3      OH2           -51.2293561717       44.6805164029      -40.7343457639  TIP3      14934           0.0000000000
     94633     15334  TIP3      H1            -51.7832314280       44.3164179628      -41.4483822033  TIP3      14934           0.0000000000
     94634     15334  TIP3      H2            -50.3980915957       44.8802730343      -41.1915801436  TIP3      14934           0.0000000000
     94635     15335  TIP3      OH2           -53.0853282499       49.2368285535      -25.6674095212  TIP3      14935           0.0000000000
     94636     15335  TIP3      H1            -52.3630442807       49.5056999392      -25.0791421781  TIP3      14935           0.0000000000
     94637     15335  TIP3      H2            -53.8859285136       49.4249074183      -25.1220602189  TIP3      14935           0.0000000000
     94638     15336  TIP3      OH2           -47.0123383975       44.6143386166      -32.9853169511  TIP3      14936           0.0000000000
     94639     15336  TIP3      H1            -46.4694871036       44.0613225050      -33.4831382970  TIP3      14936           0.0000000000
     94640     15336  TIP3      H2            -47.2388292345       44.1547075538      -32.1454759919  TIP3      14936           0.0000000000
     94641     15337  TIP3      OH2           -52.0774590371       40.8014201124      -36.4883468369  TIP3      14937           0.0000000000
     94642     15337  TIP3      H1            -52.3905762935       39.8772090234      -36.5219120306  TIP3      14937           0.0000000000
     94643     15337  TIP3      H2            -51.2895447868       40.7669486661      -37.0468659132  TIP3      14937           0.0000000000
     94644     15338  TIP3      OH2           -48.4614790847       42.9514560550      -30.4798837557  TIP3      14938           0.0000000000
     94645     15338  TIP3      H1            -49.2600946308       43.5224665385      -30.4220369645  TIP3      14938           0.0000000000
     94646     15338  TIP3      H2            -47.9115145033       43.3449319001      -29.7734395444  TIP3      14938           0.0000000000
     94647     15339  TIP3      OH2           -47.8715595274       49.2359294362      -38.8134822796  TIP3      14939           0.0000000000
     94648     15339  TIP3      H1            -48.6560971608       48.7379911934      -39.1365709716  TIP3      14939           0.0000000000
     94649     15339  TIP3      H2            -48.0565816424       49.3022989046      -37.8562628553  TIP3      14939           0.0000000000
     94650     15340  TIP3      OH2           -40.7200119201       48.3876241185      -30.0134389622  TIP3      14940           0.0000000000
     94651     15340  TIP3      H1            -40.1152172616       48.8576385747      -30.6113656188  TIP3      14940           0.0000000000
     94652     15340  TIP3      H2            -41.5668805106       48.4821006744      -30.4996988422  TIP3      14940           0.0000000000
     94653     15341  TIP3      OH2           -44.0008739827       42.0238688982      -40.6330216969  TIP3      14941           0.0000000000
     94654     15341  TIP3      H1            -44.9469163090       42.1772221027      -40.7767599349  TIP3      14941           0.0000000000
     94655     15341  TIP3      H2            -43.7027656798       42.9042185382      -40.3105474487  TIP3      14941           0.0000000000
     94656     15342  TIP3      OH2           -46.3643404197       49.4555074983      -27.5692252229  TIP3      14942           0.0000000000
     94657     15342  TIP3      H1            -46.7261426619       49.0483597020      -26.7739851890  TIP3      14942           0.0000000000
     94658     15342  TIP3      H2            -46.6003858970       50.3806812595      -27.4938157956  TIP3      14942           0.0000000000
     94659     15343  TIP3      OH2           -43.3052394688       43.9099292993      -38.9797489535  TIP3      14943           0.0000000000
     94660     15343  TIP3      H1            -42.3894694454       43.8273922595      -38.6187996589  TIP3      14943           0.0000000000
     94661     15343  TIP3      H2            -43.2044005604       44.7399898689      -39.4751613613  TIP3      14943           0.0000000000
     94662     15344  TIP3      OH2           -52.8100194939       48.5990703198      -33.0666082592  TIP3      14944           0.0000000000
     94663     15344  TIP3      H1            -52.0378785516       48.5340493800      -33.6601719696  TIP3      14944           0.0000000000
     94664     15344  TIP3      H2            -52.6772282069       47.7477306499      -32.5702479510  TIP3      14944           0.0000000000
     94665     15345  TIP3      OH2           -45.7576002360       50.6964663140      -39.7838549998  TIP3      14945           0.0000000000
     94666     15345  TIP3      H1            -46.0919244069       51.5322847756      -39.4075657028  TIP3      14945           0.0000000000
     94667     15345  TIP3      H2            -46.4941561241       50.0770981326      -39.5859593021  TIP3      14945           0.0000000000
     94668     15346  TIP3      OH2           -55.7579842362       47.0159124397      -27.7285455828  TIP3      14946           0.0000000000
     94669     15346  TIP3      H1            -55.5613727119       46.5723770548      -26.8900812886  TIP3      14946           0.0000000000
     94670     15346  TIP3      H2            -56.3752924697       46.3977506650      -28.1715243994  TIP3      14946           0.0000000000
     94671     15347  TIP3      OH2           -48.7590961761       46.5491830682      -25.5293333581  TIP3      14947           0.0000000000
     94672     15347  TIP3      H1            -49.0491627750       46.3241550796      -26.4308893781  TIP3      14947           0.0000000000
     94673     15347  TIP3      H2            -47.8183605116       46.2808608437      -25.5552583958  TIP3      14947           0.0000000000
     94674     15348  TIP3      OH2           -44.0955551296       51.9090580463      -27.6344960257  TIP3      14948           0.0000000000
     94675     15348  TIP3      H1            -45.0219436067       52.0828434022      -27.8709221216  TIP3      14948           0.0000000000
     94676     15348  TIP3      H2            -44.1121273232       52.1624395979      -26.6941620958  TIP3      14948           0.0000000000
     94677     15349  TIP3      OH2           -38.3593452562       44.0933354262      -39.2500075714  TIP3      14949           0.0000000000
     94678     15349  TIP3      H1            -38.9678452224       43.7706524922      -39.9394814283  TIP3      14949           0.0000000000
     94679     15349  TIP3      H2            -38.3319224769       45.0430065323      -39.5166524442  TIP3      14949           0.0000000000
     94680     15350  TIP3      OH2           -38.4207008350       49.9440041378      -26.4082959338  TIP3      14950           0.0000000000
     94681     15350  TIP3      H1            -39.2977363177       50.1694813424      -26.8010712483  TIP3      14950           0.0000000000
     94682     15350  TIP3      H2            -37.8486334257       49.9162048003      -27.1983292048  TIP3      14950           0.0000000000
     94683     15351  TIP3      OH2           -40.1144587945       52.9390928287      -38.8100300806  TIP3      14951           0.0000000000
     94684     15351  TIP3      H1            -40.4760436045       52.0922795253      -38.4894982346  TIP3      14951           0.0000000000
     94685     15351  TIP3      H2            -39.8259441364       52.7192043492      -39.7176165548  TIP3      14951           0.0000000000
     94686     15352  TIP3      OH2           -42.9265874433       47.7409354085      -31.7518473003  TIP3      14952           0.0000000000
     94687     15352  TIP3      H1            -43.8718807638       47.5011306902      -31.8192965849  TIP3      14952           0.0000000000
     94688     15352  TIP3      H2            -42.4870291501       46.9553109580      -32.1298978319  TIP3      14952           0.0000000000
     94689     15353  TIP3      OH2           -50.3927080690       52.0550578560      -35.6313571627  TIP3      14953           0.0000000000
     94690     15353  TIP3      H1            -49.8778859835       52.8518634284      -35.8427851521  TIP3      14953           0.0000000000
     94691     15353  TIP3      H2            -51.2732330518       52.2909081674      -35.9526757390  TIP3      14953           0.0000000000
     94692     15354  TIP3      OH2           -54.6162263566       46.9171507878      -41.0879654681  TIP3      14954           0.0000000000
     94693     15354  TIP3      H1            -54.0097276948       47.5565361234      -40.6793437851  TIP3      14954           0.0000000000
     94694     15354  TIP3      H2            -55.4918751808       47.2239412062      -40.7888388751  TIP3      14954           0.0000000000
     94695     15355  TIP3      OH2           -48.9573791100       49.7180208295      -36.0844155528  TIP3      14955           0.0000000000
     94696     15355  TIP3      H1            -49.2422116943       50.6499841081      -36.0189624959  TIP3      14955           0.0000000000
     94697     15355  TIP3      H2            -49.7080743324       49.2506337305      -35.6618579279  TIP3      14955           0.0000000000
     94698     15356  TIP3      OH2           -48.5008638722       53.8880931800      -29.7390920611  TIP3      14956           0.0000000000
     94699     15356  TIP3      H1            -48.0834552714       54.7282287864      -29.9800749955  TIP3      14956           0.0000000000
     94700     15356  TIP3      H2            -47.9153311631       53.5751843633      -29.0209848797  TIP3      14956           0.0000000000
     94701     15357  TIP3      OH2           -50.2779252676       54.7223170457      -36.5412917535  TIP3      14957           0.0000000000
     94702     15357  TIP3      H1            -51.2415740496       54.8627264256      -36.4542427282  TIP3      14957           0.0000000000
     94703     15357  TIP3      H2            -49.9305118366       55.5694825611      -36.1910502090  TIP3      14957           0.0000000000
     94704     15358  TIP3      OH2           -44.9294359248       49.9603486187      -30.0587281107  TIP3      14958           0.0000000000
     94705     15358  TIP3      H1            -45.3410653896       49.7281475328      -29.2038721164  TIP3      14958           0.0000000000
     94706     15358  TIP3      H2            -44.3429581116       49.2114973904      -30.2431978321  TIP3      14958           0.0000000000
     94707     15359  TIP3      OH2           -42.7027003093       50.9181735300      -40.9776221214  TIP3      14959           0.0000000000
     94708     15359  TIP3      H1            -42.3753677337       50.4990714108      -40.1532597571  TIP3      14959           0.0000000000
     94709     15359  TIP3      H2            -43.6618183072       50.8007224154      -40.8862927390  TIP3      14959           0.0000000000
     94710     15360  TIP3      OH2           -42.2245476885       54.5262178504      -27.5708716124  TIP3      14960           0.0000000000
     94711     15360  TIP3      H1            -42.8594766835       53.9740327960      -28.0796536896  TIP3      14960           0.0000000000
     94712     15360  TIP3      H2            -41.9808922805       55.1895461877      -28.2319376217  TIP3      14960           0.0000000000
     94713     15361  TIP3      OH2           -38.4314824774       55.3769913241      -40.7995222092  TIP3      14961           0.0000000000
     94714     15361  TIP3      H1            -37.7093545897       55.9998311258      -40.9470827741  TIP3      14961           0.0000000000
     94715     15361  TIP3      H2            -39.0421430994       56.0199540516      -40.3956272066  TIP3      14961           0.0000000000
     94716     15362  TIP3      OH2           -54.1190143075       41.7584756602      -28.1849444717  TIP3      14962           0.0000000000
     94717     15362  TIP3      H1            -55.0296949487       42.0971852899      -28.2532331198  TIP3      14962           0.0000000000
     94718     15362  TIP3      H2            -54.2253812819       40.8912578026      -27.7710541113  TIP3      14962           0.0000000000
     94719     15363  TIP3      OH2           -41.8631368462       49.6121663980      -38.7581366996  TIP3      14963           0.0000000000
     94720     15363  TIP3      H1            -42.1135110275       48.8197435930      -38.2131014692  TIP3      14963           0.0000000000
     94721     15363  TIP3      H2            -40.9180020134       49.6671256250      -38.5395902108  TIP3      14963           0.0000000000
     94722     15364  TIP3      OH2           -54.4983066978       53.5618670166      -29.7580564038  TIP3      14964           0.0000000000
     94723     15364  TIP3      H1            -54.2286836991       52.6249515103      -29.7752336245  TIP3      14964           0.0000000000
     94724     15364  TIP3      H2            -54.2141057849       53.8297830483      -28.8683729176  TIP3      14964           0.0000000000
     94725     15365  TIP3      OH2           -49.7093404223       51.5936380235      -40.0763661891  TIP3      14965           0.0000000000
     94726     15365  TIP3      H1            -49.5200456502       51.0562467688      -39.2958003759  TIP3      14965           0.0000000000
     94727     15365  TIP3      H2            -49.6888413420       52.5095505481      -39.7500381044  TIP3      14965           0.0000000000
     94728     15366  TIP3      OH2           -53.2236319787       48.8393656949      -39.5713539494  TIP3      14966           0.0000000000
     94729     15366  TIP3      H1            -53.9181596250       49.2105465347      -38.9917783985  TIP3      14966           0.0000000000
     94730     15366  TIP3      H2            -52.6994756179       49.6156474468      -39.8183004723  TIP3      14966           0.0000000000
     94731     15367  TIP3      OH2           -45.3996457581       41.4985725494      -29.2672941554  TIP3      14967           0.0000000000
     94732     15367  TIP3      H1            -44.6885182509       41.5692312924      -28.6194868031  TIP3      14967           0.0000000000
     94733     15367  TIP3      H2            -45.7719998640       40.6226197793      -29.0989656244  TIP3      14967           0.0000000000
     94734     15368  TIP3      OH2           -44.6350399034       41.1191781834      -38.1631351665  TIP3      14968           0.0000000000
     94735     15368  TIP3      H1            -44.3875166124       41.6082509104      -38.9814773518  TIP3      14968           0.0000000000
     94736     15368  TIP3      H2            -44.0512749195       41.5451008447      -37.5219207112  TIP3      14968           0.0000000000
     94737     15369  TIP3      OH2           -46.9451132683       53.2599302500      -39.3328903387  TIP3      14969           0.0000000000
     94738     15369  TIP3      H1            -47.7614233730       53.7760937949      -39.2679523187  TIP3      14969           0.0000000000
     94739     15369  TIP3      H2            -46.4104086858       53.7811799593      -39.9561312691  TIP3      14969           0.0000000000
     94740     15370  TIP3      OH2           -47.4179358171       42.8622965857      -37.3484117707  TIP3      14970           0.0000000000
     94741     15370  TIP3      H1            -46.6068818478       43.4036935817      -37.3111504828  TIP3      14970           0.0000000000
     94742     15370  TIP3      H2            -47.6664284092       42.7280306003      -36.4214681020  TIP3      14970           0.0000000000
     94743     15371  TIP3      OH2           -46.8699685343       43.8611491746      -28.1623335905  TIP3      14971           0.0000000000
     94744     15371  TIP3      H1            -46.7740388481       44.4445208463      -27.3893577824  TIP3      14971           0.0000000000
     94745     15371  TIP3      H2            -46.2090681777       43.1717689830      -28.0590809394  TIP3      14971           0.0000000000
     94746     15372  TIP3      OH2           -46.5473099118       39.9258121598      -36.4302864033  TIP3      14972           0.0000000000
     94747     15372  TIP3      H1            -46.8775013794       40.5771179445      -35.7867202244  TIP3      14972           0.0000000000
     94748     15372  TIP3      H2            -45.8668067103       40.4681628460      -36.9008582542  TIP3      14972           0.0000000000
     94749     15373  TIP3      OH2           -49.6170312162       54.3310668280      -39.3554278473  TIP3      14973           0.0000000000
     94750     15373  TIP3      H1            -49.4431151320       55.1503810735      -39.8280404066  TIP3      14973           0.0000000000
     94751     15373  TIP3      H2            -49.8127925398       54.6289650864      -38.4395020424  TIP3      14973           0.0000000000
     94752     15374  TIP3      OH2           -50.8860192814       41.0003885018      -39.7328085678  TIP3      14974           0.0000000000
     94753     15374  TIP3      H1            -50.9509435812       41.9133723809      -39.3737810591  TIP3      14974           0.0000000000
     94754     15374  TIP3      H2            -49.9773148094       40.7652809115      -39.4728546765  TIP3      14974           0.0000000000
     94755     15375  TIP3      OH2           -40.6658450545       41.7378480200      -27.3058902300  TIP3      14975           0.0000000000
     94756     15375  TIP3      H1            -41.6003348439       42.0412232934      -27.4259055710  TIP3      14975           0.0000000000
     94757     15375  TIP3      H2            -40.3573872534       41.7510365300      -28.2287167008  TIP3      14975           0.0000000000
     94758     15376  TIP3      OH2           -42.0972405661       45.5399643715      -33.2197197017  TIP3      14976           0.0000000000
     94759     15376  TIP3      H1            -42.8786609098       45.0904029261      -33.5767234238  TIP3      14976           0.0000000000
     94760     15376  TIP3      H2            -41.6031730514       44.8256545796      -32.7614616247  TIP3      14976           0.0000000000
     94761     15377  TIP3      OH2           -52.6423969869       51.4530565297      -40.6850567875  TIP3      14977           0.0000000000
     94762     15377  TIP3      H1            -52.0213315201       52.1300722727      -40.3901886633  TIP3      14977           0.0000000000
     94763     15377  TIP3      H2            -52.1337706334       50.9997357397      -41.3846583438  TIP3      14977           0.0000000000
     94764     15378  TIP3      OH2           -54.2877412444       44.1161724921      -41.5017013125  TIP3      14978           0.0000000000
     94765     15378  TIP3      H1            -54.3243975040       45.0798603387      -41.3820705728  TIP3      14978           0.0000000000
     94766     15378  TIP3      H2            -55.1631816997       43.8958465638      -41.8481278021  TIP3      14978           0.0000000000
     94767     15379  TIP3      OH2           -41.0016619851       54.7362939577      -31.5954969100  TIP3      14979           0.0000000000
     94768     15379  TIP3      H1            -41.1250521673       55.4520374331      -32.2637556305  TIP3      14979           0.0000000000
     94769     15379  TIP3      H2            -40.0473635642       54.8547451360      -31.4247684350  TIP3      14979           0.0000000000
     94770     15380  TIP3      OH2           -53.4958855059       38.9097320416      -32.8514475552  TIP3      14980           0.0000000000
     94771     15380  TIP3      H1            -53.7207248238       38.9386451563      -33.8055566191  TIP3      14980           0.0000000000
     94772     15380  TIP3      H2            -53.9329528191       38.0806390538      -32.5761823558  TIP3      14980           0.0000000000
     94773     15381  TIP3      OH2           -54.5542893989       52.8206579453      -36.6966851600  TIP3      14981           0.0000000000
     94774     15381  TIP3      H1            -55.3924472528       53.3115068815      -36.6996296364  TIP3      14981           0.0000000000
     94775     15381  TIP3      H2            -54.0353601447       53.3241299725      -37.3390614735  TIP3      14981           0.0000000000
     94776     15382  TIP3      OH2           -55.2618993854       55.4560574066      -25.4191104939  TIP3      14982           0.0000000000
     94777     15382  TIP3      H1            -54.7354709424       55.2481135451      -24.6269609067  TIP3      14982           0.0000000000
     94778     15382  TIP3      H2            -55.7555927759       54.6452085098      -25.5493768980  TIP3      14982           0.0000000000
     94779     15383  TIP3      OH2           -46.2560911752       54.0225990094      -41.8976290466  TIP3      14983           0.0000000000
     94780     15383  TIP3      H1            -47.0503195686       53.4326572450      -41.9667580225  TIP3      14983           0.0000000000
     94781     15383  TIP3      H2            -45.7854099256       53.4605940619      -42.5219111357  TIP3      14983           0.0000000000
     94782     15384  TIP3      OH2           -44.1266912349       52.7686550787      -25.0426453200  TIP3      14984           0.0000000000
     94783     15384  TIP3      H1            -44.4615013556       51.8832195288      -24.7790159657  TIP3      14984           0.0000000000
     94784     15384  TIP3      H2            -43.3708431371       52.8857596543      -24.4411474115  TIP3      14984           0.0000000000
     94785     15385  TIP3      OH2           -41.9700700616       53.7032937522      -42.1501028643  TIP3      14985           0.0000000000
     94786     15385  TIP3      H1            -41.7056764430       52.8735851372      -41.7084441523  TIP3      14985           0.0000000000
     94787     15385  TIP3      H2            -41.2253680478       53.8953666938      -42.7290289038  TIP3      14985           0.0000000000
     94788     15386  TIP3      OH2           -55.3730791320       49.2421777443      -24.4079356519  TIP3      14986           0.0000000000
     94789     15386  TIP3      H1            -55.2454539805       48.3351195118      -24.7242180175  TIP3      14986           0.0000000000
     94790     15386  TIP3      H2            -56.1413508021       49.5479983126      -24.9458629187  TIP3      14986           0.0000000000
     94791     15387  TIP3      OH2           -51.0017440999       49.6504207934      -42.2583073006  TIP3      14987           0.0000000000
     94792     15387  TIP3      H1            -50.9529178607       48.8158352001      -41.7770924331  TIP3      14987           0.0000000000
     94793     15387  TIP3      H2            -50.3930467906       49.4540507996      -42.9950053980  TIP3      14987           0.0000000000
     94794     15388  TIP3      OH2           -48.7072231532       49.2395219408      -24.9892172448  TIP3      14988           0.0000000000
     94795     15388  TIP3      H1            -49.0437940129       49.5211347596      -25.8637711421  TIP3      14988           0.0000000000
     94796     15388  TIP3      H2            -48.5909990093       48.2654552354      -25.0981199615  TIP3      14988           0.0000000000
     94797     15389  TIP3      OH2           -42.9954589850       49.1168168090      -27.6075946470  TIP3      14989           0.0000000000
     94798     15389  TIP3      H1            -42.2296677661       49.7218073431      -27.7196611416  TIP3      14989           0.0000000000
     94799     15389  TIP3      H2            -43.7294207719       49.7446668130      -27.5696921704  TIP3      14989           0.0000000000
     94800     15390  TIP3      OH2           -54.5166174809       46.4825626759      -25.0015444174  TIP3      14990           0.0000000000
     94801     15390  TIP3      H1            -54.1148415223       45.6154158462      -25.1425171135  TIP3      14990           0.0000000000
     94802     15390  TIP3      H2            -54.7988029603       46.4810680980      -24.0901049185  TIP3      14990           0.0000000000
     94803     15391  TIP3      OH2           -49.8779072093       47.6151304076      -39.9871695862  TIP3      14991           0.0000000000
     94804     15391  TIP3      H1            -50.3497808873       47.0918445559      -39.3141624184  TIP3      14991           0.0000000000
     94805     15391  TIP3      H2            -49.5984155016       46.9105019460      -40.6174583734  TIP3      14991           0.0000000000
     94806     15392  TIP3      OH2           -50.5974845733       45.4394530054      -27.6325967455  TIP3      14992           0.0000000000
     94807     15392  TIP3      H1            -51.2031275874       46.1505617212      -27.3668263184  TIP3      14992           0.0000000000
     94808     15392  TIP3      H2            -50.2303648910       45.7863995134      -28.4731195607  TIP3      14992           0.0000000000
     94809     15393  TIP3      OH2           -48.8113221826       45.8287708975      -41.7349308247  TIP3      14993           0.0000000000
     94810     15393  TIP3      H1            -48.9609180991       45.6556223488      -42.6725050022  TIP3      14993           0.0000000000
     94811     15393  TIP3      H2            -47.8331450353       45.9229223452      -41.6662750996  TIP3      14993           0.0000000000
     94812     15394  TIP3      OH2           -45.5593228008       47.9678023007      -24.3212402912  TIP3      14994           0.0000000000
     94813     15394  TIP3      H1            -44.5990029793       48.0046904248      -24.4025121060  TIP3      14994           0.0000000000
     94814     15394  TIP3      H2            -45.7214599542       47.2169713788      -23.7296088636  TIP3      14994           0.0000000000
     94815     15395  TIP3      OH2           -39.5380353207       48.2426259310       42.7716316564  TIP3      14995           0.0000000000
     94816     15395  TIP3      H1            -39.6983398068       47.7628784679       41.9366594530  TIP3      14995           0.0000000000
     94817     15395  TIP3      H2            -39.3835105402       49.1496508736       42.4998224104  TIP3      14995           0.0000000000
     94818     15396  TIP3      OH2           -50.2223413410       42.7992915107      -26.5570965215  TIP3      14996           0.0000000000
     94819     15396  TIP3      H1            -50.0964044024       42.0991738328      -27.2055379815  TIP3      14996           0.0000000000
     94820     15396  TIP3      H2            -50.2476142182       43.6060418223      -27.1230673889  TIP3      14996           0.0000000000
     94821     15397  TIP3      OH2           -49.8235993986       41.1800173837      -29.0340592397  TIP3      14997           0.0000000000
     94822     15397  TIP3      H1            -49.2947892294       41.6547323034      -29.7306206799  TIP3      14997           0.0000000000
     94823     15397  TIP3      H2            -50.6992952402       41.1087265780      -29.4785419919  TIP3      14997           0.0000000000
     94824     15398  TIP3      OH2           -48.1754476404       46.7154398524      -28.6609239453  TIP3      14998           0.0000000000
     94825     15398  TIP3      H1            -47.5582830879       46.4680230818      -29.3907638152  TIP3      14998           0.0000000000
     94826     15398  TIP3      H2            -48.6126641837       47.4618482643      -29.1229816632  TIP3      14998           0.0000000000
     94827     15399  TIP3      OH2           -43.8610447759       44.4371096022      -23.8004779964  TIP3      14999           0.0000000000
     94828     15399  TIP3      H1            -43.6314158472       43.5003619784      -23.8953621908  TIP3      14999           0.0000000000
     94829     15399  TIP3      H2            -42.9863312895       44.8680025548      -23.8043188959  TIP3      14999           0.0000000000
     94830     15400  TIP3      OH2           -42.5368240164       47.2113632985      -25.7111143762  TIP3      15000           0.0000000000
     94831     15400  TIP3      H1            -42.7872934400       47.9516354988      -26.3047715069  TIP3      15000           0.0000000000
     94832     15400  TIP3      H2            -41.5707047091       47.1764472155      -25.8781275898  TIP3      15000           0.0000000000
     94833     15401  TIP3      OH2           -51.7765707703       44.0604470198      -24.6503844354  TIP3      15001           0.0000000000
     94834     15401  TIP3      H1            -52.5198295911       43.4780078694      -24.8663153481  TIP3      15001           0.0000000000
     94835     15401  TIP3      H2            -51.0856496982       43.7001321311      -25.2464880656  TIP3      15001           0.0000000000
     94836     15402  TIP3      OH2           -48.9678155184       38.7575722991      -28.9221985304  TIP3      15002           0.0000000000
     94837     15402  TIP3      H1            -49.2014668950       39.7127586087      -28.7913931591  TIP3      15002           0.0000000000
     94838     15402  TIP3      H2            -49.8171604662       38.3409132061      -29.1934943155  TIP3      15002           0.0000000000
     94839     15403  TIP3      OH2           -47.7443859365       42.9369549235      -25.0667354499  TIP3      15003           0.0000000000
     94840     15403  TIP3      H1            -48.0261499376       42.7358539459      -24.1498555021  TIP3      15003           0.0000000000
     94841     15403  TIP3      H2            -48.5618845512       42.7717529784      -25.5693834138  TIP3      15003           0.0000000000
     94842     15404  TIP3      OH2           -45.0351442021       42.0869210856      -25.9835965836  TIP3      15004           0.0000000000
     94843     15404  TIP3      H1            -45.9980323007       42.1389803352      -25.8432700533  TIP3      15004           0.0000000000
     94844     15404  TIP3      H2            -44.7398052621       41.4595035053      -25.3045576880  TIP3      15004           0.0000000000
     94845     15405  TIP3      OH2           -43.4222856785       40.7243884478      -24.0079507127  TIP3      15005           0.0000000000
     94846     15405  TIP3      H1            -43.5243932868       39.7548670461      -23.9941398041  TIP3      15005           0.0000000000
     94847     15405  TIP3      H2            -43.7357547121       40.9996030431      -23.1111377678  TIP3      15005           0.0000000000
     94848     15406  TIP3      OH2           -53.6603962874       41.9572307455      -24.9226187286  TIP3      15006           0.0000000000
     94849     15406  TIP3      H1            -53.3797328203       41.2465253625      -25.5468442441  TIP3      15006           0.0000000000
     94850     15406  TIP3      H2            -53.6441433837       41.5012420803      -24.0949061278  TIP3      15006           0.0000000000
     94851     15407  TIP3      OH2           -48.7343442314       38.0393153206      -25.6733369322  TIP3      15007           0.0000000000
     94852     15407  TIP3      H1            -48.0891218584       37.3314800082      -25.8497268954  TIP3      15007           0.0000000000
     94853     15407  TIP3      H2            -48.8941074086       38.4626385664      -26.5095189539  TIP3      15007           0.0000000000
     94854     15408  TIP3      OH2           -55.3341891653       51.1377342025      -41.2346640533  TIP3      15008           0.0000000000
     94855     15408  TIP3      H1            -54.3939292998       51.2229301734      -40.9832893250  TIP3      15008           0.0000000000
     94856     15408  TIP3      H2            -55.3201539633       50.4773866962      -41.9293928176  TIP3      15008           0.0000000000
     94857     15409  TIP3      OH2           -55.8494972188       54.6326723181      -34.3756340935  TIP3      15009           0.0000000000
     94858     15409  TIP3      H1            -56.1565777125       53.7289119867      -34.1972910632  TIP3      15009           0.0000000000
     94859     15409  TIP3      H2            -55.5901283371       54.9517822313      -33.5012639558  TIP3      15009           0.0000000000
     94860     15410  TIP3      OH2           -38.2798808505       55.4256707601      -31.4013427274  TIP3      15010           0.0000000000
     94861     15410  TIP3      H1            -38.2722952405       55.6063157717      -30.4463541338  TIP3      15010           0.0000000000
     94862     15410  TIP3      H2            -37.5744207743       55.9948856532      -31.7226223678  TIP3      15010           0.0000000000
     94863     15411  TIP3      OH2           -38.6975581676       54.9942216093      -28.4784765297  TIP3      15011           0.0000000000
     94864     15411  TIP3      H1            -39.1871905611       54.2376034903      -28.8476956740  TIP3      15011           0.0000000000
     94865     15411  TIP3      H2            -38.1705403565       54.5792902273      -27.7772194083  TIP3      15011           0.0000000000
     94866     15412  TIP3      OH2           -40.2595786914       50.7752237693      -23.8354271711  TIP3      15012           0.0000000000
     94867     15412  TIP3      H1            -41.1256276441       50.6700257995      -23.4290106399  TIP3      15012           0.0000000000
     94868     15412  TIP3      H2            -39.8687250312       51.5399574956      -23.3724093812  TIP3      15012           0.0000000000
     94869     15413  TIP3      OH2           -38.9474079710       49.0720640264      -38.3453199098  TIP3      15013           0.0000000000
     94870     15413  TIP3      H1            -38.0902144609       49.4668369985      -38.1658920155  TIP3      15013           0.0000000000
     94871     15413  TIP3      H2            -38.9650071844       48.3104023389      -37.7069235353  TIP3      15013           0.0000000000
     94872     15414  TIP3      OH2           -38.5604047415       47.1369270582      -36.4880836960  TIP3      15014           0.0000000000
     94873     15414  TIP3      H1            -39.3117888613       46.6120169967      -36.1071400107  TIP3      15014           0.0000000000
     94874     15414  TIP3      H2            -37.9800179964       47.2882217238      -35.7280338342  TIP3      15014           0.0000000000
     94875     15415  TIP3      OH2           -38.8209843253       49.8560356677      -31.5194585317  TIP3      15015           0.0000000000
     94876     15415  TIP3      H1            -37.9807987390       49.4893423055      -31.8521582861  TIP3      15015           0.0000000000
     94877     15415  TIP3      H2            -38.6835799510       50.8175322945      -31.6673628732  TIP3      15015           0.0000000000
     94878     15416  TIP3      OH2           -40.2899988319       52.7434390754      -29.2176204374  TIP3      15016           0.0000000000
     94879     15416  TIP3      H1            -40.9689680781       53.1018272376      -28.6309446453  TIP3      15016           0.0000000000
     94880     15416  TIP3      H2            -40.8337730925       52.3278018867      -29.9245469527  TIP3      15016           0.0000000000
     94881     15417  TIP3      OH2           -38.2578449512       46.9911874048      -40.1222656848  TIP3      15017           0.0000000000
     94882     15417  TIP3      H1            -38.8537932031       47.3430861426      -40.8050633659  TIP3      15017           0.0000000000
     94883     15417  TIP3      H2            -38.3583173892       47.6614976357      -39.4189448181  TIP3      15017           0.0000000000
     94884     15418  TIP3      OH2           -40.1694708888       44.2459182122      -41.4702720731  TIP3      15018           0.0000000000
     94885     15418  TIP3      H1            -39.8467068169       44.8595264711      -42.1529096495  TIP3      15018           0.0000000000
     94886     15418  TIP3      H2            -40.0877124010       43.4204254724      -41.9837605798  TIP3      15018           0.0000000000
     94887     15419  TIP3      OH2           -40.4970019621       45.4529383309      -35.4529444044  TIP3      15019           0.0000000000
     94888     15419  TIP3      H1            -40.9304537066       44.7238920076      -35.9477904096  TIP3      15019           0.0000000000
     94889     15419  TIP3      H2            -41.2176622492       45.9061310162      -34.9993810411  TIP3      15019           0.0000000000
     94890     15420  TIP3      OH2           -55.7453186890       47.6900867122      -31.8820491465  TIP3      15020           0.0000000000
     94891     15420  TIP3      H1            -55.5598789756       47.6172560889      -32.8430835667  TIP3      15020           0.0000000000
     94892     15420  TIP3      H2            -54.8639603789       47.5489219860      -31.4909688773  TIP3      15020           0.0000000000
     94893     15421  TIP3      OH2           -39.9271734873       47.5874913260      -26.2705087176  TIP3      15021           0.0000000000
     94894     15421  TIP3      H1            -39.3158349564       46.8415273216      -26.0864104022  TIP3      15021           0.0000000000
     94895     15421  TIP3      H2            -39.3296963494       48.3612602366      -26.2414295030  TIP3      15021           0.0000000000
     94896     15422  TIP3      OH2           -38.4113743659       45.4962693846      -25.6125710618  TIP3      15022           0.0000000000
     94897     15422  TIP3      H1            -39.2904898965       45.0910885410      -25.7580004043  TIP3      15022           0.0000000000
     94898     15422  TIP3      H2            -37.8240913527       44.7266344853      -25.6727652045  TIP3      15022           0.0000000000
     94899     15423  TIP3      OH2           -40.6833198715       41.6335692896      -42.4567998108  TIP3      15023           0.0000000000
     94900     15423  TIP3      H1            -40.0840337684       41.2503670731      -41.7889902056  TIP3      15023           0.0000000000
     94901     15423  TIP3      H2            -41.5455760474       41.2395227536      -42.2445273931  TIP3      15023           0.0000000000
     94902     15424  TIP3      OH2           -41.0942484554       43.1243420600      -37.4285844349  TIP3      15024           0.0000000000
     94903     15424  TIP3      H1            -40.7530185744       42.2365657634      -37.3337454852  TIP3      15024           0.0000000000
     94904     15424  TIP3      H2            -40.3484039142       43.6369021939      -37.8366135694  TIP3      15024           0.0000000000
     94905     15425  TIP3      OH2           -40.4652700560       43.7525322151      -32.0279227865  TIP3      15025           0.0000000000
     94906     15425  TIP3      H1            -39.5082534489       43.9926304539      -32.0497897082  TIP3      15025           0.0000000000
     94907     15425  TIP3      H2            -40.6685112693       43.8906159599      -31.0901572293  TIP3      15025           0.0000000000
     94908     15426  TIP3      OH2           -40.4040824923       44.4840035536      -29.2510194273  TIP3      15026           0.0000000000
     94909     15426  TIP3      H1            -41.2725744893       44.7789155688      -28.8973958631  TIP3      15026           0.0000000000
     94910     15426  TIP3      H2            -39.9695638990       45.3441682823      -29.4629715376  TIP3      15026           0.0000000000
     94911     15427  TIP3      OH2           -56.1376311561       42.9936921662      -25.7214817365  TIP3      15027           0.0000000000
     94912     15427  TIP3      H1            -55.1922865082       42.8262090969      -25.5603030668  TIP3      15027           0.0000000000
     94913     15427  TIP3      H2            -56.5833632345       42.1819848826      -25.4144735341  TIP3      15027           0.0000000000
     94914     15428  TIP3      OH2           -38.1464447594       38.5077891829      -23.8930641768  TIP3      15028           0.0000000000
     94915     15428  TIP3      H1            -37.7859428778       37.8478833953      -24.5011637496  TIP3      15028           0.0000000000
     94916     15428  TIP3      H2            -37.9990315249       39.3492834739      -24.3525699915  TIP3      15028           0.0000000000
     94917     15429  TIP3      OH2           -40.4308585427       40.4562904669      -37.4159933545  TIP3      15029           0.0000000000
     94918     15429  TIP3      H1            -40.2493233306       40.0224938972      -36.5692033032  TIP3      15029           0.0000000000
     94919     15429  TIP3      H2            -41.0573712421       39.8691206928      -37.8832240762  TIP3      15029           0.0000000000
     94920     15430  TIP3      OH2           -54.9304556064       41.2921027118      -32.8892780216  TIP3      15030           0.0000000000
     94921     15430  TIP3      H1            -54.4824288093       40.4799950244      -32.5775884646  TIP3      15030           0.0000000000
     94922     15430  TIP3      H2            -54.4379099800       42.0011913006      -32.4521470638  TIP3      15030           0.0000000000
     94923     15431  TIP3      OH2           -56.5894215439       44.2701208329      -31.7856340189  TIP3      15031           0.0000000000
     94924     15431  TIP3      H1            -56.0829325631       44.0622508696      -32.5914345909  TIP3      15031           0.0000000000
     94925     15431  TIP3      H2            -56.2227141019       45.1268534698      -31.5507453672  TIP3      15031           0.0000000000
     94926     15432  TIP3      OH2           -38.5957936178       40.6167465642      -25.5478591392  TIP3      15032           0.0000000000
     94927     15432  TIP3      H1            -39.5413815368       40.8813971288      -25.5875314068  TIP3      15032           0.0000000000
     94928     15432  TIP3      H2            -38.5273662080       40.0739970148      -26.3458355738  TIP3      15032           0.0000000000
     94929     15433  TIP3      OH2           -38.6059251433       40.5332216405      -40.8605385319  TIP3      15033           0.0000000000
     94930     15433  TIP3      H1            -38.1686360254       39.8208730844      -41.3589128500  TIP3      15033           0.0000000000
     94931     15433  TIP3      H2            -37.8909341599       41.1973729492      -40.8339365479  TIP3      15033           0.0000000000
     94932     15434  TIP3      OH2            56.5357620553       40.5682421959      -37.7430265756  TIP3      15034           0.0000000000
     94933     15434  TIP3      H1             55.5933926958       40.7279652892      -37.8946450382  TIP3      15034           0.0000000000
     94934     15434  TIP3      H2             56.9884813647       41.0193758008      -38.4736089511  TIP3      15034           0.0000000000
     94935     15435  TIP3      OH2           -41.5511017108       55.4472297166      -35.7237688706  TIP3      15035           0.0000000000
     94936     15435  TIP3      H1            -40.8664206421       55.0875783910      -36.3237266193  TIP3      15035           0.0000000000
     94937     15435  TIP3      H2            -41.0252976012       55.9906445937      -35.1004645553  TIP3      15035           0.0000000000
     94938     15436  TIP3      OH2            56.5277666842       39.2348731661      -29.4473441926  TIP3      15036           0.0000000000
     94939     15436  TIP3      H1             55.8557289623       39.0386550093      -28.7652241644  TIP3      15036           0.0000000000
     94940     15436  TIP3      H2             56.0525589884       39.8966077736      -29.9961171539  TIP3      15036           0.0000000000
     94941     15437  TIP3      OH2           -54.1336694504       52.4556520397      -25.2705367915  TIP3      15037           0.0000000000
     94942     15437  TIP3      H1            -54.9665758330       52.6009768059      -25.7122137312  TIP3      15037           0.0000000000
     94943     15437  TIP3      H2            -54.3995918921       52.3709856160      -24.3439423839  TIP3      15037           0.0000000000
     94944     15438  TIP3      OH2           -51.2189043341       53.4096932789      -29.0093094251  TIP3      15038           0.0000000000
     94945     15438  TIP3      H1            -51.5982697912       54.2535937924      -29.2940726170  TIP3      15038           0.0000000000
     94946     15438  TIP3      H2            -50.2889395509       53.5090544286      -29.3167202798  TIP3      15038           0.0000000000
     94947     15439  TIP3      OH2           -46.8739864173       54.8078744435      -26.0910595085  TIP3      15039           0.0000000000
     94948     15439  TIP3      H1            -46.6990281507       54.4982453991      -25.1721243740  TIP3      15039           0.0000000000
     94949     15439  TIP3      H2            -46.0029150586       55.1426340902      -26.3663444110  TIP3      15039           0.0000000000
     94950     15440  TIP3      OH2           -44.5723024544       56.1035016895      -26.8115695330  TIP3      15040           0.0000000000
     94951     15440  TIP3      H1            -43.8525983194       55.4948484941      -27.0403728356  TIP3      15040           0.0000000000
     94952     15440  TIP3      H2            -44.2159865856       56.5035176786      -25.9866231133  TIP3      15040           0.0000000000
     94953     15441  TIP3      OH2           -39.5979920697       38.7154027898      -27.7112088533  TIP3      15041           0.0000000000
     94954     15441  TIP3      H1            -40.4287595128       39.0175730908      -28.1199284144  TIP3      15041           0.0000000000
     94955     15441  TIP3      H2            -39.4005039707       37.9180105326      -28.2515597979  TIP3      15041           0.0000000000
     94956     15442  TIP3      OH2           -51.3256293472      -56.5973190774      -29.8975838600  TIP3      15042           0.0000000000
     94957     15442  TIP3      H1            -52.2001552074      -56.4660980656      -29.5297566237  TIP3      15042           0.0000000000
     94958     15442  TIP3      H2            -51.3673380915      -56.0270653210      -30.7076463960  TIP3      15042           0.0000000000
     94959     15443  TIP3      OH2           -46.6110582531      -56.7020313026      -30.7708327234  TIP3      15043           0.0000000000
     94960     15443  TIP3      H1            -47.0753883397      -56.1495789219      -31.4222400232  TIP3      15043           0.0000000000
     94961     15443  TIP3      H2            -46.4601833676      -56.0623579361      -30.0339045805  TIP3      15043           0.0000000000
     94962     15444  TIP3      OH2           -44.2972204284       55.0065346088      -29.7847747734  TIP3      15044           0.0000000000
     94963     15444  TIP3      H1            -45.1884673711       55.2250619961      -30.0971856892  TIP3      15044           0.0000000000
     94964     15444  TIP3      H2            -43.8658340637       55.8692360363      -29.8806300114  TIP3      15044           0.0000000000
     94965     15445  TIP3      OH2           -54.3632701186       55.2801990891      -32.0560521269  TIP3      15045           0.0000000000
     94966     15445  TIP3      H1            -54.3737525863       54.8440182076      -31.1851236316  TIP3      15045           0.0000000000
     94967     15445  TIP3      H2            -53.5355070152       54.9474756426      -32.4722419121  TIP3      15045           0.0000000000
     94968     15446  TIP3      OH2           -52.2605485430       54.0295326572      -33.4092379420  TIP3      15046           0.0000000000
     94969     15446  TIP3      H1            -52.4349154189       53.0880326895      -33.2244255667  TIP3      15046           0.0000000000
     94970     15446  TIP3      H2            -51.4051276445       54.1501975747      -32.9430781570  TIP3      15046           0.0000000000
     94971     15447  TIP3      OH2           -49.6811895299       54.4914254942      -32.5412496778  TIP3      15047           0.0000000000
     94972     15447  TIP3      H1            -49.4811484181       53.5781804498      -32.8199883768  TIP3      15047           0.0000000000
     94973     15447  TIP3      H2            -49.6219239766       54.4335395164      -31.5815285364  TIP3      15047           0.0000000000
     94974     15448  TIP3      OH2           -46.1861366154       40.1525647446      -33.4007819394  TIP3      15048           0.0000000000
     94975     15448  TIP3      H1            -46.8659264952       39.5075386070      -33.1420368033  TIP3      15048           0.0000000000
     94976     15448  TIP3      H2            -45.6318282092       39.6411005934      -34.0024938908  TIP3      15048           0.0000000000
     94977     15449  TIP3      OH2           -41.0472833116       38.1737828605      -33.3582657742  TIP3      15049           0.0000000000
     94978     15449  TIP3      H1            -40.4386900122       38.8316766030      -33.8016523293  TIP3      15049           0.0000000000
     94979     15449  TIP3      H2            -41.9302777482       38.5838977608      -33.5326523554  TIP3      15049           0.0000000000
     94980     15450  TIP3      OH2           -39.3629343402       39.3914789543      -34.9870829554  TIP3      15050           0.0000000000
     94981     15450  TIP3      H1            -38.6842165504       38.8856482172      -35.4945745245  TIP3      15050           0.0000000000
     94982     15450  TIP3      H2            -38.9174459182       40.2779061362      -34.9432085299  TIP3      15050           0.0000000000
     94983     15451  TIP3      OH2           -53.8424866607       38.7865771487      -35.5703437714  TIP3      15051           0.0000000000
     94984     15451  TIP3      H1            -54.6348987347       38.5463750651      -36.0910454981  TIP3      15051           0.0000000000
     94985     15451  TIP3      H2            -53.3369269875       37.9511926211      -35.5955498553  TIP3      15051           0.0000000000
     94986     15452  TIP3      OH2           -55.0214300257       38.5462155905      -39.7896269606  TIP3      15052           0.0000000000
     94987     15452  TIP3      H1            -54.5752644592       39.1882464667      -40.3754925598  TIP3      15052           0.0000000000
     94988     15452  TIP3      H2            -55.6452028758       39.1046047069      -39.2963102412  TIP3      15052           0.0000000000
     94989     15453  TIP3      OH2           -49.3131933102       38.7016988076      -35.7721786162  TIP3      15053           0.0000000000
     94990     15453  TIP3      H1            -48.4173085980       39.0829183350      -35.8113271632  TIP3      15053           0.0000000000
     94991     15453  TIP3      H2            -49.4011251643       38.4917998835      -34.8407693037  TIP3      15053           0.0000000000
     94992     15454  TIP3      OH2           -43.6586369439       38.7237765027      -34.1287748019  TIP3      15054           0.0000000000
     94993     15454  TIP3      H1            -43.6739908022       38.8357627950      -35.0869067908  TIP3      15054           0.0000000000
     94994     15454  TIP3      H2            -44.0277826273       37.8234138661      -34.0053245099  TIP3      15054           0.0000000000
     94995     15455  TIP3      OH2           -42.3600745699       38.7597564625      -38.4391795824  TIP3      15055           0.0000000000
     94996     15455  TIP3      H1            -43.0882017453       39.3676822479      -38.6435757964  TIP3      15055           0.0000000000
     94997     15455  TIP3      H2            -42.8246198889       37.9059748423      -38.2921345568  TIP3      15055           0.0000000000
     94998     15456  TIP3      OH2           -55.1114254367       54.4941694035      -38.8421995303  TIP3      15056           0.0000000000
     94999     15456  TIP3      H1            -55.7991059439       54.4883987175      -39.5438854375  TIP3      15056           0.0000000000
     95000     15456  TIP3      H2            -55.1115599671       55.4366745704      -38.6269423943  TIP3      15056           0.0000000000
     95001     15457  TIP3      OH2           -53.2043895680       40.4554017217      -41.3310221416  TIP3      15057           0.0000000000
     95002     15457  TIP3      H1            -52.6783282178       39.8566305069      -41.8618959232  TIP3      15057           0.0000000000
     95003     15457  TIP3      H2            -52.5522494073       40.8035976492      -40.6925476064  TIP3      15057           0.0000000000
     95004     15458  TIP3      OH2           -48.1647009661       40.7524525395      -38.9108361315  TIP3      15058           0.0000000000
     95005     15458  TIP3      H1            -47.9467561425       40.1452530331      -38.1837775015  TIP3      15058           0.0000000000
     95006     15458  TIP3      H2            -48.1655042302       41.6078931982      -38.4179586312  TIP3      15058           0.0000000000
     95007     15459  TIP3      OH2           -46.2795189948       55.9027311890      -40.3924214233  TIP3      15059           0.0000000000
     95008     15459  TIP3      H1            -45.3705353850       56.0901394714      -40.6726798394  TIP3      15059           0.0000000000
     95009     15459  TIP3      H2            -46.4797741782       55.3534899158      -41.2044237275  TIP3      15059           0.0000000000
     95010     15460  TIP3      OH2           -39.4295203260       55.2447149435      -37.8022861764  TIP3      15060           0.0000000000
     95011     15460  TIP3      H1            -39.7331164679       54.4882719645      -38.3722993666  TIP3      15060           0.0000000000
     95012     15460  TIP3      H2            -39.5370459528       56.0122712804      -38.4134094388  TIP3      15060           0.0000000000
     95013     15461  TIP3      OH2           -53.9317859581       39.3266605315      -26.0760139783  TIP3      15061           0.0000000000
     95014     15461  TIP3      H1            -54.2751545385       38.5184558590      -25.6488192693  TIP3      15061           0.0000000000
     95015     15461  TIP3      H2            -52.9970886287       39.2948300732      -25.7659584459  TIP3      15061           0.0000000000
     95016     15462  TIP3      OH2           -51.9430221999       38.6615887602      -24.5592849576  TIP3      15062           0.0000000000
     95017     15462  TIP3      H1            -51.0283534168       38.3600780064      -24.6881509413  TIP3      15062           0.0000000000
     95018     15462  TIP3      H2            -52.3047395206       37.9001792774      -24.0542938933  TIP3      15062           0.0000000000
     95019     15463  TIP3      OH2           -53.2750024571       55.4574269301      -41.8466971979  TIP3      15063           0.0000000000
     95020     15463  TIP3      H1            -53.5834682453       55.7296466804      -40.9726786380  TIP3      15063           0.0000000000
     95021     15463  TIP3      H2            -52.5320930792       54.8891796701      -41.6909037602  TIP3      15063           0.0000000000
     95022     15464  TIP3      OH2           -43.5240118425       37.9466580176      -24.3703249538  TIP3      15064           0.0000000000
     95023     15464  TIP3      H1            -43.4329128608       37.5539474045      -23.4719731946  TIP3      15064           0.0000000000
     95024     15464  TIP3      H2            -42.5974374867       37.9934461607      -24.6724482549  TIP3      15064           0.0000000000
     95025     15465  TIP3      OH2           -40.3262558597       54.0424215073      -25.6319886986  TIP3      15065           0.0000000000
     95026     15465  TIP3      H1            -41.1177945991       53.8809049901      -26.1926981854  TIP3      15065           0.0000000000
     95027     15465  TIP3      H2            -40.4018277047       54.9901476226      -25.4537099118  TIP3      15065           0.0000000000
     95028     15466  TIP3      OH2           -25.9037020524       47.9157071281      -35.6463523542  TIP3      15066           0.0000000000
     95029     15466  TIP3      H1            -25.8586340303       48.8908464825      -35.7500249229  TIP3      15066           0.0000000000
     95030     15466  TIP3      H2            -26.5847358916       47.6698350882      -36.2920847312  TIP3      15066           0.0000000000
     95031     15467  TIP3      OH2           -27.0048617024       47.1876359999      -32.1851717655  TIP3      15067           0.0000000000
     95032     15467  TIP3      H1            -27.0412510474       46.5273888559      -31.4980148388  TIP3      15067           0.0000000000
     95033     15467  TIP3      H2            -27.3318856369       46.7042051783      -32.9655535275  TIP3      15067           0.0000000000
     95034     15468  TIP3      OH2           -34.6499197003       46.8249195795      -30.6344387705  TIP3      15068           0.0000000000
     95035     15468  TIP3      H1            -34.5790486963       46.1685354633      -29.9080556218  TIP3      15068           0.0000000000
     95036     15468  TIP3      H2            -33.9188928755       47.4230132882      -30.4247084187  TIP3      15068           0.0000000000
     95037     15469  TIP3      OH2           -23.3021751089       50.1217691309      -33.9164896925  TIP3      15069           0.0000000000
     95038     15469  TIP3      H1            -23.7395493425       49.4084737444      -33.4404315566  TIP3      15069           0.0000000000
     95039     15469  TIP3      H2            -23.3053742131       50.8398651049      -33.2557449997  TIP3      15069           0.0000000000
     95040     15470  TIP3      OH2           -33.7234492843       51.2788437858      -32.0970996315  TIP3      15070           0.0000000000
     95041     15470  TIP3      H1            -34.0615691564       50.4376138517      -32.4542920840  TIP3      15070           0.0000000000
     95042     15470  TIP3      H2            -32.7697905709       51.0850452859      -32.0553285709  TIP3      15070           0.0000000000
     95043     15471  TIP3      OH2           -37.0738432684       44.8785208363      -36.6738869995  TIP3      15071           0.0000000000
     95044     15471  TIP3      H1            -37.5508722256       45.7415790928      -36.7091023686  TIP3      15071           0.0000000000
     95045     15471  TIP3      H2            -37.6668734719       44.3337434061      -37.2135854053  TIP3      15071           0.0000000000
     95046     15472  TIP3      OH2           -36.3894786215       47.0850404274      -34.5386241628  TIP3      15072           0.0000000000
     95047     15472  TIP3      H1            -36.1475577048       46.2821843787      -34.0418750062  TIP3      15072           0.0000000000
     95048     15472  TIP3      H2            -35.6572840230       47.1684991546      -35.1686914870  TIP3      15072           0.0000000000
     95049     15473  TIP3      OH2           -26.2373457988       55.2255999884      -33.6940986093  TIP3      15073           0.0000000000
     95050     15473  TIP3      H1            -25.5644779254       54.5489194318      -33.9581818738  TIP3      15073           0.0000000000
     95051     15473  TIP3      H2            -26.3967147901       54.9817231859      -32.7839284950  TIP3      15073           0.0000000000
     95052     15474  TIP3      OH2           -28.6324138694       49.6066531703      -31.7719990435  TIP3      15074           0.0000000000
     95053     15474  TIP3      H1            -28.2971141566       48.9395253604      -32.3923053068  TIP3      15074           0.0000000000
     95054     15474  TIP3      H2            -27.8599417630       49.7353635069      -31.1950367390  TIP3      15074           0.0000000000
     95055     15475  TIP3      OH2           -19.9901849607       41.2153351397      -30.9660450740  TIP3      15075           0.0000000000
     95056     15475  TIP3      H1            -19.8776545354       41.8361442711      -30.2141939254  TIP3      15075           0.0000000000
     95057     15475  TIP3      H2            -19.4970630719       41.6762209928      -31.6612856959  TIP3      15075           0.0000000000
     95058     15476  TIP3      OH2           -25.4729805028       44.0422957688      -31.4269285381  TIP3      15076           0.0000000000
     95059     15476  TIP3      H1            -25.3210075365       43.0735266304      -31.4516565370  TIP3      15076           0.0000000000
     95060     15476  TIP3      H2            -25.5739754978       44.2012838824      -32.3949338335  TIP3      15076           0.0000000000
     95061     15477  TIP3      OH2           -32.3294285390       42.1232316626      -34.1881453744  TIP3      15077           0.0000000000
     95062     15477  TIP3      H1            -32.2644443912       42.9765488027      -34.6472158594  TIP3      15077           0.0000000000
     95063     15477  TIP3      H2            -32.7680639911       41.5598926166      -34.8602641434  TIP3      15077           0.0000000000
     95064     15478  TIP3      OH2           -24.6129477561       42.2313543703      -35.8158844155  TIP3      15078           0.0000000000
     95065     15478  TIP3      H1            -23.9432955949       41.9110254988      -35.1653523793  TIP3      15078           0.0000000000
     95066     15478  TIP3      H2            -24.0639719848       42.7751066802      -36.4024975512  TIP3      15078           0.0000000000
     95067     15479  TIP3      OH2           -35.7166243818       44.5338045389      -33.4454519765  TIP3      15079           0.0000000000
     95068     15479  TIP3      H1            -35.0430031350       43.9704167994      -33.0094895706  TIP3      15079           0.0000000000
     95069     15479  TIP3      H2            -35.6509860760       44.2321881774      -34.3640233203  TIP3      15079           0.0000000000
     95070     15480  TIP3      OH2           -30.5512359141       46.0896185970      -34.1899208569  TIP3      15080           0.0000000000
     95071     15480  TIP3      H1            -29.9130000672       45.5207807022      -33.7270899392  TIP3      15080           0.0000000000
     95072     15480  TIP3      H2            -31.1106146247       45.4218609161      -34.6366421018  TIP3      15080           0.0000000000
     95073     15481  TIP3      OH2           -19.5614236640       42.6711094123      -28.7198497215  TIP3      15081           0.0000000000
     95074     15481  TIP3      H1            -20.2284735666       43.3820863225      -28.8097650690  TIP3      15081           0.0000000000
     95075     15481  TIP3      H2            -19.5470701696       42.5213289092      -27.7655960835  TIP3      15081           0.0000000000
     95076     15482  TIP3      OH2           -33.4726879471       41.0258110465      -30.1396893764  TIP3      15082           0.0000000000
     95077     15482  TIP3      H1            -33.7311638483       41.5835968156      -30.8987935375  TIP3      15082           0.0000000000
     95078     15482  TIP3      H2            -34.1635120769       41.2656556227      -29.4725015079  TIP3      15082           0.0000000000
     95079     15483  TIP3      OH2           -26.1374557024       50.5207216833      -36.5884582297  TIP3      15083           0.0000000000
     95080     15483  TIP3      H1            -26.4346080259       50.2173720907      -37.4555540246  TIP3      15083           0.0000000000
     95081     15483  TIP3      H2            -26.4659489229       51.4441757215      -36.5496194092  TIP3      15083           0.0000000000
     95082     15484  TIP3      OH2           -30.9296214521       48.6816607511      -29.8694162097  TIP3      15084           0.0000000000
     95083     15484  TIP3      H1            -31.6619389951       49.3188167843      -29.7188986776  TIP3      15084           0.0000000000
     95084     15484  TIP3      H2            -30.2248535040       49.2731716207      -30.1729156419  TIP3      15084           0.0000000000
     95085     15485  TIP3      OH2           -22.8303708763       41.5501216527      -33.8284018237  TIP3      15085           0.0000000000
     95086     15485  TIP3      H1            -23.0357164986       40.7780390198      -33.2910284328  TIP3      15085           0.0000000000
     95087     15485  TIP3      H2            -22.1578909694       42.0029520602      -33.2915978598  TIP3      15085           0.0000000000
     95088     15486  TIP3      OH2           -33.9149421656       42.9069819634      -32.1531882787  TIP3      15086           0.0000000000
     95089     15486  TIP3      H1            -33.2717661223       43.5690512670      -31.8073503497  TIP3      15086           0.0000000000
     95090     15486  TIP3      H2            -33.3778011204       42.4587369716      -32.8490037627  TIP3      15086           0.0000000000
     95091     15487  TIP3      OH2           -32.5011281997       50.6607005943      -29.0742915497  TIP3      15087           0.0000000000
     95092     15487  TIP3      H1            -32.5352564340       51.5679463053      -29.4327139725  TIP3      15087           0.0000000000
     95093     15487  TIP3      H2            -33.3867879657       50.5959615481      -28.6331489572  TIP3      15087           0.0000000000
     95094     15488  TIP3      OH2           -36.4129934324       50.3242997035      -38.2875257192  TIP3      15088           0.0000000000
     95095     15488  TIP3      H1            -36.6681208968       50.5977969030      -39.1824472850  TIP3      15088           0.0000000000
     95096     15488  TIP3      H2            -36.3546431750       51.1694577178      -37.7939411741  TIP3      15088           0.0000000000
     95097     15489  TIP3      OH2           -22.7814377515       51.9559192504      -31.5522737551  TIP3      15089           0.0000000000
     95098     15489  TIP3      H1            -23.7465699650       52.0473608689      -31.4093492781  TIP3      15089           0.0000000000
     95099     15489  TIP3      H2            -22.5142291474       52.8823869266      -31.7198271718  TIP3      15089           0.0000000000
     95100     15490  TIP3      OH2           -22.4764862896       40.2480239425      -30.1423006346  TIP3      15090           0.0000000000
     95101     15490  TIP3      H1            -23.2133052954       40.8707057206      -30.2056505479  TIP3      15090           0.0000000000
     95102     15490  TIP3      H2            -21.7805105618       40.6705814001      -30.6765806428  TIP3      15090           0.0000000000
     95103     15491  TIP3      OH2           -29.4816356262       38.3543127850      -32.6863015484  TIP3      15091           0.0000000000
     95104     15491  TIP3      H1            -29.6105540614       37.3877109084      -32.7422322455  TIP3      15091           0.0000000000
     95105     15491  TIP3      H2            -30.3581644901       38.6700477129      -32.3934074172  TIP3      15091           0.0000000000
     95106     15492  TIP3      OH2           -24.5449075162       53.7283546024      -34.9351363940  TIP3      15092           0.0000000000
     95107     15492  TIP3      H1            -24.0958616665       53.0227449954      -35.4379575476  TIP3      15092           0.0000000000
     95108     15492  TIP3      H2            -24.1685977114       54.5369993851      -35.3490897771  TIP3      15092           0.0000000000
     95109     15493  TIP3      OH2           -23.3533100469       51.6637727891      -36.4342817166  TIP3      15093           0.0000000000
     95110     15493  TIP3      H1            -23.6271699200       50.9593880131      -37.0451936102  TIP3      15093           0.0000000000
     95111     15493  TIP3      H2            -23.2984665491       51.1832787551      -35.5866523048  TIP3      15093           0.0000000000
     95112     15494  TIP3      OH2           -21.6963993164       50.2343853237      -27.9373821667  TIP3      15094           0.0000000000
     95113     15494  TIP3      H1            -21.5434729124       49.6204803971      -28.6879758568  TIP3      15094           0.0000000000
     95114     15494  TIP3      H2            -21.5127274739       51.1002713185      -28.3324942000  TIP3      15094           0.0000000000
     95115     15495  TIP3      OH2           -27.2144908664       47.1684884943      -38.1670084011  TIP3      15095           0.0000000000
     95116     15495  TIP3      H1            -27.9207916324       47.7224936582      -38.5488268679  TIP3      15095           0.0000000000
     95117     15495  TIP3      H2            -26.5146709511       47.2415040975      -38.8458879818  TIP3      15095           0.0000000000
     95118     15496  TIP3      OH2           -27.1654848496       45.6614855344      -41.1302671742  TIP3      15096           0.0000000000
     95119     15496  TIP3      H1            -26.4444843646       45.6674501315      -40.4810289266  TIP3      15096           0.0000000000
     95120     15496  TIP3      H2            -26.8473885014       45.0123286945      -41.7669287751  TIP3      15096           0.0000000000
     95121     15497  TIP3      OH2           -19.8283506274       46.5552493508      -29.8809412963  TIP3      15097           0.0000000000
     95122     15497  TIP3      H1            -20.4879247758       47.2737420562      -29.8217623956  TIP3      15097           0.0000000000
     95123     15497  TIP3      H2            -19.3604614985       46.7859052581      -30.7022471538  TIP3      15097           0.0000000000
     95124     15498  TIP3      OH2           -23.7888148876       47.3849664152      -37.2425259187  TIP3      15098           0.0000000000
     95125     15498  TIP3      H1            -24.5344932869       47.6151062249      -36.6403864304  TIP3      15098           0.0000000000
     95126     15498  TIP3      H2            -23.3330752594       46.6779216001      -36.7513696005  TIP3      15098           0.0000000000
     95127     15499  TIP3      OH2           -23.7289246082       45.5954202179      -28.2688729150  TIP3      15099           0.0000000000
     95128     15499  TIP3      H1            -23.7431130610       46.3508950869      -27.6505843857  TIP3      15099           0.0000000000
     95129     15499  TIP3      H2            -24.4381549945       45.8470060840      -28.9053764673  TIP3      15099           0.0000000000
     95130     15500  TIP3      OH2           -32.1528319923       48.0383102063      -35.3361842878  TIP3      15100           0.0000000000
     95131     15500  TIP3      H1            -32.4851651802       47.6389463748      -36.1762566623  TIP3      15100           0.0000000000
     95132     15500  TIP3      H2            -31.5531559823       47.3345150364      -34.9982243555  TIP3      15100           0.0000000000
     95133     15501  TIP3      OH2           -30.8153893689       51.4494103120      -32.6589529124  TIP3      15101           0.0000000000
     95134     15501  TIP3      H1            -30.8673821516       50.8722097897      -33.4327435715  TIP3      15101           0.0000000000
     95135     15501  TIP3      H2            -30.0524507667       51.0713163918      -32.1846576302  TIP3      15101           0.0000000000
     95136     15502  TIP3      OH2           -31.8083177629       46.7744772550      -31.6964479173  TIP3      15102           0.0000000000
     95137     15502  TIP3      H1            -31.2380479427       46.8992178987      -32.4779841771  TIP3      15102           0.0000000000
     95138     15502  TIP3      H2            -31.4582624402       47.4343040444      -31.0666187988  TIP3      15102           0.0000000000
     95139     15503  TIP3      OH2           -25.4533646884       52.3194000511      -30.9795255000  TIP3      15103           0.0000000000
     95140     15503  TIP3      H1            -25.7199011856       52.9684893904      -30.3271289700  TIP3      15103           0.0000000000
     95141     15503  TIP3      H2            -25.6828353604       51.4614241575      -30.5436243185  TIP3      15103           0.0000000000
     95142     15504  TIP3      OH2           -30.8867685580       51.1935131432      -26.9845302010  TIP3      15104           0.0000000000
     95143     15504  TIP3      H1            -31.2493869279       51.9740955778      -26.5170705606  TIP3      15104           0.0000000000
     95144     15504  TIP3      H2            -31.5661592035       51.0223782157      -27.6801955212  TIP3      15104           0.0000000000
     95145     15505  TIP3      OH2           -24.9254198740       46.5437518796      -39.5619258986  TIP3      15105           0.0000000000
     95146     15505  TIP3      H1            -24.3463747811       46.7193161576      -38.7802599477  TIP3      15105           0.0000000000
     95147     15505  TIP3      H2            -24.5052161420       47.0509513055      -40.2771223791  TIP3      15105           0.0000000000
     95148     15506  TIP3      OH2           -33.9595802592       47.3683014229      -27.7892482236  TIP3      15106           0.0000000000
     95149     15506  TIP3      H1            -33.9180632976       48.0380583529      -27.0729059249  TIP3      15106           0.0000000000
     95150     15506  TIP3      H2            -34.8814352029       47.4772287304      -28.0703950595  TIP3      15106           0.0000000000
     95151     15507  TIP3      OH2           -27.2044153044       53.2782617405      -36.0926316851  TIP3      15107           0.0000000000
     95152     15507  TIP3      H1            -26.7259872979       53.5955638768      -35.3194652841  TIP3      15107           0.0000000000
     95153     15507  TIP3      H2            -27.7563429629       54.0295477062      -36.3427678651  TIP3      15107           0.0000000000
     95154     15508  TIP3      OH2           -32.6478098820       53.2590659733      -26.2299847687  TIP3      15108           0.0000000000
     95155     15508  TIP3      H1            -32.6791132420       53.1177847662      -27.1892711796  TIP3      15108           0.0000000000
     95156     15508  TIP3      H2            -33.5833508369       53.1323929744      -25.9817476228  TIP3      15108           0.0000000000
     95157     15509  TIP3      OH2           -21.2042881501       38.2923519648      -39.7120755064  TIP3      15109           0.0000000000
     95158     15509  TIP3      H1            -22.1450483553       38.4270676805      -39.4344418540  TIP3      15109           0.0000000000
     95159     15509  TIP3      H2            -20.9741968428       39.1426586058      -40.1216266604  TIP3      15109           0.0000000000
     95160     15510  TIP3      OH2           -33.1674592789       47.0702865904      -37.7387720999  TIP3      15110           0.0000000000
     95161     15510  TIP3      H1            -33.4652689772       47.8495457847      -38.2528103574  TIP3      15110           0.0000000000
     95162     15510  TIP3      H2            -33.8419925317       46.4138705139      -37.9327808204  TIP3      15110           0.0000000000
     95163     15511  TIP3      OH2           -20.0678110804       52.6435969906      -41.3392588294  TIP3      15111           0.0000000000
     95164     15511  TIP3      H1            -19.9584259928       53.6040813715      -41.1852677088  TIP3      15111           0.0000000000
     95165     15511  TIP3      H2            -19.1353250690       52.3554987110      -41.4019842636  TIP3      15111           0.0000000000
     95166     15512  TIP3      OH2           -37.0806283518       49.4712254645      -28.8919819946  TIP3      15112           0.0000000000
     95167     15512  TIP3      H1            -37.5651545980       49.4040069806      -29.7336998962  TIP3      15112           0.0000000000
     95168     15512  TIP3      H2            -37.0542048530       48.5332914594      -28.6261680664  TIP3      15112           0.0000000000
     95169     15513  TIP3      OH2           -37.3338284455       52.2087417369      -32.0443686675  TIP3      15113           0.0000000000
     95170     15513  TIP3      H1            -36.3782443528       52.0886251737      -32.0704301313  TIP3      15113           0.0000000000
     95171     15513  TIP3      H2            -37.4257236896       53.0185236386      -31.5251757884  TIP3      15113           0.0000000000
     95172     15514  TIP3      OH2           -19.1027037019       52.8725233803      -26.3748946229  TIP3      15114           0.0000000000
     95173     15514  TIP3      H1            -19.2026246279       51.9273645354      -26.3898192886  TIP3      15114           0.0000000000
     95174     15514  TIP3      H2            -19.9489840425       53.1792635099      -25.9698230927  TIP3      15114           0.0000000000
     95175     15515  TIP3      OH2           -28.1384760827       52.4604148314      -27.5049711907  TIP3      15115           0.0000000000
     95176     15515  TIP3      H1            -28.0671074299       53.3053595299      -27.0027448738  TIP3      15115           0.0000000000
     95177     15515  TIP3      H2            -29.0186599505       52.1329384420      -27.2478941804  TIP3      15115           0.0000000000
     95178     15516  TIP3      OH2           -27.7379229656      -56.6394950961      -37.6943291837  TIP3      15116           0.0000000000
     95179     15516  TIP3      H1            -27.7935291702      -56.7147397646      -38.6634261669  TIP3      15116           0.0000000000
     95180     15516  TIP3      H2            -27.6951619716      -55.6642033154      -37.5545954091  TIP3      15116           0.0000000000
     95181     15517  TIP3      OH2           -34.0574195118       55.0277109151      -35.9169496954  TIP3      15117           0.0000000000
     95182     15517  TIP3      H1            -33.9264016991       54.6685124328      -35.0115403199  TIP3      15117           0.0000000000
     95183     15517  TIP3      H2            -34.9257807650       54.6565014088      -36.1283766915  TIP3      15117           0.0000000000
     95184     15518  TIP3      OH2           -24.6549557829       55.4031982963      -40.7075046084  TIP3      15118           0.0000000000
     95185     15518  TIP3      H1            -24.2339148674       54.6375766972      -41.1534677889  TIP3      15118           0.0000000000
     95186     15518  TIP3      H2            -24.6116650056       55.1221779537      -39.7736228815  TIP3      15118           0.0000000000
     95187     15519  TIP3      OH2           -24.9753574654       55.2812480871      -37.9553979525  TIP3      15119           0.0000000000
     95188     15519  TIP3      H1            -25.9151146902       55.4202022998      -37.7422636717  TIP3      15119           0.0000000000
     95189     15519  TIP3      H2            -24.6895401600       54.5901034217      -37.3484187721  TIP3      15119           0.0000000000
     95190     15520  TIP3      OH2           -21.9962469574       44.3871946036      -25.8837976582  TIP3      15120           0.0000000000
     95191     15520  TIP3      H1            -22.3681310390       44.8663834897      -26.6256732995  TIP3      15120           0.0000000000
     95192     15520  TIP3      H2            -21.9290567321       43.4747502883      -26.2097231625  TIP3      15120           0.0000000000
     95193     15521  TIP3      OH2           -34.8222300593       50.7941675634      -27.9023946292  TIP3      15121           0.0000000000
     95194     15521  TIP3      H1            -34.5997207418       50.4175156949      -27.0238818782  TIP3      15121           0.0000000000
     95195     15521  TIP3      H2            -35.6884252722       50.3916590800      -28.1107774398  TIP3      15121           0.0000000000
     95196     15522  TIP3      OH2           -32.1640337521       39.2458720114      -31.9143624015  TIP3      15122           0.0000000000
     95197     15522  TIP3      H1            -33.0635708927       39.1542943234      -32.3052356326  TIP3      15122           0.0000000000
     95198     15522  TIP3      H2            -32.2468851444       40.1013672600      -31.4656452575  TIP3      15122           0.0000000000
     95199     15523  TIP3      OH2           -27.5142070151       38.9580604463      -28.5486132127  TIP3      15123           0.0000000000
     95200     15523  TIP3      H1            -27.1142758215       38.5321710818      -27.7686548964  TIP3      15123           0.0000000000
     95201     15523  TIP3      H2            -28.4814658153       38.7948425021      -28.4151511443  TIP3      15123           0.0000000000
     95202     15524  TIP3      OH2           -24.2079601190       42.7580615206      -27.6657432178  TIP3      15124           0.0000000000
     95203     15524  TIP3      H1            -24.7489606503       42.5586124080      -26.8663110977  TIP3      15124           0.0000000000
     95204     15524  TIP3      H2            -24.3639910875       43.6501842962      -27.9425687071  TIP3      15124           0.0000000000
     95205     15525  TIP3      OH2           -23.4007879998       47.6435594508      -41.8386388848  TIP3      15125           0.0000000000
     95206     15525  TIP3      H1            -23.3717451603       47.3943323626      -42.7825324596  TIP3      15125           0.0000000000
     95207     15525  TIP3      H2            -22.5347859186       48.0264904489      -41.6906886015  TIP3      15125           0.0000000000
     95208     15526  TIP3      OH2           -27.8608035552       41.4847419025      -41.2447969925  TIP3      15126           0.0000000000
     95209     15526  TIP3      H1            -28.1488813918       41.4644398500      -40.3113165733  TIP3      15126           0.0000000000
     95210     15526  TIP3      H2            -28.1350773625       40.6027001490      -41.5267299478  TIP3      15126           0.0000000000
     95211     15527  TIP3      OH2           -32.0721743800       44.2109837357      -30.7554347543  TIP3      15127           0.0000000000
     95212     15527  TIP3      H1            -32.7688396642       44.1895096056      -30.0742682479  TIP3      15127           0.0000000000
     95213     15527  TIP3      H2            -32.0876142137       45.1474019344      -31.0531908763  TIP3      15127           0.0000000000
     95214     15528  TIP3      OH2           -32.0948859382       44.4094064726      -35.8541753170  TIP3      15128           0.0000000000
     95215     15528  TIP3      H1            -33.0162964227       44.0933955816      -35.9588758159  TIP3      15128           0.0000000000
     95216     15528  TIP3      H2            -31.6796144381       44.0552009641      -36.6636346253  TIP3      15128           0.0000000000
     95217     15529  TIP3      OH2           -26.5684217822       44.8426671776      -37.0647712723  TIP3      15129           0.0000000000
     95218     15529  TIP3      H1            -26.9801129998       45.6767034930      -37.3800510193  TIP3      15129           0.0000000000
     95219     15529  TIP3      H2            -25.8580666685       44.7052547649      -37.7156925573  TIP3      15129           0.0000000000
     95220     15530  TIP3      OH2           -27.4402681037       45.0318880375      -25.6404133909  TIP3      15130           0.0000000000
     95221     15530  TIP3      H1            -28.0445517620       44.3181911416      -25.2754029300  TIP3      15130           0.0000000000
     95222     15530  TIP3      H2            -26.6691233540       44.9092660050      -25.0698100316  TIP3      15130           0.0000000000
     95223     15531  TIP3      OH2           -25.5524531961       44.3188050834      -34.2258149194  TIP3      15131           0.0000000000
     95224     15531  TIP3      H1            -25.7832586964       44.8985765067      -34.9719359636  TIP3      15131           0.0000000000
     95225     15531  TIP3      H2            -25.4059709215       43.4717632699      -34.6957668008  TIP3      15131           0.0000000000
     95226     15532  TIP3      OH2           -34.3840380794       44.5188572578      -28.9684645762  TIP3      15132           0.0000000000
     95227     15532  TIP3      H1            -34.3771821222       44.9169509630      -28.0798253896  TIP3      15132           0.0000000000
     95228     15532  TIP3      H2            -34.8582092528       43.6875742801      -28.8225695553  TIP3      15132           0.0000000000
     95229     15533  TIP3      OH2           -30.8858373151       42.0823945826      -41.9002426518  TIP3      15133           0.0000000000
     95230     15533  TIP3      H1            -31.4186487319       41.4644297750      -41.3640515902  TIP3      15133           0.0000000000
     95231     15533  TIP3      H2            -31.5651077707       42.3588766419      -42.5337230245  TIP3      15133           0.0000000000
     95232     15534  TIP3      OH2           -37.7722612905       41.6148748939      -35.0605839267  TIP3      15134           0.0000000000
     95233     15534  TIP3      H1            -37.1047858636       41.5950707819      -34.3460220391  TIP3      15134           0.0000000000
     95234     15534  TIP3      H2            -37.2973129527       41.2244612219      -35.8145919619  TIP3      15134           0.0000000000
     95235     15535  TIP3      OH2           -36.4635714106       42.3469519570      -39.6527282256  TIP3      15135           0.0000000000
     95236     15535  TIP3      H1            -35.9939004589       42.9651195514      -40.2547318247  TIP3      15135           0.0000000000
     95237     15535  TIP3      H2            -37.1838373080       42.9456056921      -39.3286057058  TIP3      15135           0.0000000000
     95238     15536  TIP3      OH2           -26.2599604004       45.9267208825      -29.5575450042  TIP3      15136           0.0000000000
     95239     15536  TIP3      H1            -25.9771018911       45.2875870121      -30.2553136295  TIP3      15136           0.0000000000
     95240     15536  TIP3      H2            -26.8103089578       45.3814869618      -28.9806015787  TIP3      15136           0.0000000000
     95241     15537  TIP3      OH2           -29.5247797985       41.8778988166      -34.8164984847  TIP3      15137           0.0000000000
     95242     15537  TIP3      H1            -30.4571446452       41.9139288534      -34.5145623087  TIP3      15137           0.0000000000
     95243     15537  TIP3      H2            -29.0306869302       41.7782839049      -33.9890339382  TIP3      15137           0.0000000000
     95244     15538  TIP3      OH2           -34.7029865668       43.4780870576      -35.9595822581  TIP3      15138           0.0000000000
     95245     15538  TIP3      H1            -35.6016590535       43.5977967418      -36.3288399271  TIP3      15138           0.0000000000
     95246     15538  TIP3      H2            -34.4138574026       42.6337197904      -36.3394098027  TIP3      15138           0.0000000000
     95247     15539  TIP3      OH2           -31.0634334268       43.4995246441      -38.3159139179  TIP3      15139           0.0000000000
     95248     15539  TIP3      H1            -30.1100471245       43.6170630929      -38.1414797156  TIP3      15139           0.0000000000
     95249     15539  TIP3      H2            -31.2852510942       44.1675297095      -38.9867805791  TIP3      15139           0.0000000000
     95250     15540  TIP3      OH2           -25.1148650758       41.1137068078      -31.5583102982  TIP3      15140           0.0000000000
     95251     15540  TIP3      H1            -25.8125993324       41.2061281760      -30.8779636053  TIP3      15140           0.0000000000
     95252     15540  TIP3      H2            -25.6206814027       40.9199875775      -32.3583516164  TIP3      15140           0.0000000000
     95253     15541  TIP3      OH2           -32.3777885952       44.6792595431      -40.7336188034  TIP3      15141           0.0000000000
     95254     15541  TIP3      H1            -32.9247611416       44.3116229027      -41.4500847078  TIP3      15141           0.0000000000
     95255     15541  TIP3      H2            -31.5459238573       44.8804101968      -41.1905385921  TIP3      15141           0.0000000000
     95256     15542  TIP3      OH2           -34.2299153002       49.2417327047      -25.6720671293  TIP3      15142           0.0000000000
     95257     15542  TIP3      H1            -33.5125073507       49.5007048461      -25.0736619296  TIP3      15142           0.0000000000
     95258     15542  TIP3      H2            -35.0238300075       49.4095303849      -25.1101776168  TIP3      15142           0.0000000000
     95259     15543  TIP3      OH2           -28.2282478986       44.6563416221      -32.9195997783  TIP3      15143           0.0000000000
     95260     15543  TIP3      H1            -27.6455351471       44.1090388003      -33.4621491485  TIP3      15143           0.0000000000
     95261     15543  TIP3      H2            -28.3688766019       44.1176738509      -32.1301062360  TIP3      15143           0.0000000000
     95262     15544  TIP3      OH2           -33.2202978638       40.8019867415      -36.4889263664  TIP3      15144           0.0000000000
     95263     15544  TIP3      H1            -33.5282183329       39.8775801021      -36.5235801047  TIP3      15144           0.0000000000
     95264     15544  TIP3      H2            -32.4325514893       40.7676886287      -37.0470238481  TIP3      15144           0.0000000000
     95265     15545  TIP3      OH2           -29.5859744647       43.0122107009      -30.5095202320  TIP3      15145           0.0000000000
     95266     15545  TIP3      H1            -30.4261580958       43.4997807050      -30.4009867971  TIP3      15145           0.0000000000
     95267     15545  TIP3      H2            -29.0569894949       43.3248985929      -29.7577367960  TIP3      15145           0.0000000000
     95268     15546  TIP3      OH2           -29.0151582240       49.2357190329      -38.8131457817  TIP3      15146           0.0000000000
     95269     15546  TIP3      H1            -29.7998381955       48.7381132801      -39.1366422769  TIP3      15146           0.0000000000
     95270     15546  TIP3      H2            -29.2008787873       49.3025391205      -37.8562369244  TIP3      15146           0.0000000000
     95271     15547  TIP3      OH2           -21.8708357904       48.3826028013      -30.0068834745  TIP3      15147           0.0000000000
     95272     15547  TIP3      H1            -21.2617295469       48.8569956813      -30.6008884810  TIP3      15147           0.0000000000
     95273     15547  TIP3      H2            -22.7099543711       48.4905878645      -30.5000883050  TIP3      15147           0.0000000000
     95274     15548  TIP3      OH2           -25.1415770314       42.0286108834      -40.6239941715  TIP3      15148           0.0000000000
     95275     15548  TIP3      H1            -26.0907970387       42.1722342658      -40.7794778760  TIP3      15148           0.0000000000
     95276     15548  TIP3      H2            -24.8498396469       42.9068319901      -40.3105876033  TIP3      15148           0.0000000000
     95277     15549  TIP3      OH2           -27.5105788699       49.4369537960      -27.5745008173  TIP3      15149           0.0000000000
     95278     15549  TIP3      H1            -27.8770082003       49.0611107624      -26.7694501869  TIP3      15149           0.0000000000
     95279     15549  TIP3      H2            -27.7407480068       50.3743583326      -27.4989176678  TIP3      15149           0.0000000000
     95280     15550  TIP3      OH2           -24.4360913543       43.9356803450      -38.9570471521  TIP3      15150           0.0000000000
     95281     15550  TIP3      H1            -23.5293540748       43.7982037873      -38.6227612069  TIP3      15150           0.0000000000
     95282     15550  TIP3      H2            -24.3641412720       44.7371492577      -39.4951013966  TIP3      15150           0.0000000000
     95283     15551  TIP3      OH2           -33.9156182977       48.5741258558      -33.0283972856  TIP3      15151           0.0000000000
     95284     15551  TIP3      H1            -33.1870857275       48.5301637428      -33.6759080009  TIP3      15151           0.0000000000
     95285     15551  TIP3      H2            -33.8389020458       47.7233003124      -32.5632304287  TIP3      15151           0.0000000000
     95286     15552  TIP3      OH2           -26.9011573933       50.6962834823      -39.7830404340  TIP3      15152           0.0000000000
     95287     15552  TIP3      H1            -27.2358368414       51.5325911127      -39.4076271372  TIP3      15152           0.0000000000
     95288     15552  TIP3      H2            -27.6387175961       50.0772218927      -39.5864357563  TIP3      15152           0.0000000000
     95289     15553  TIP3      OH2           -36.9133703590       47.0121027196      -27.7461634042  TIP3      15153           0.0000000000
     95290     15553  TIP3      H1            -36.7035860564       46.5780064862      -26.8955119598  TIP3      15153           0.0000000000
     95291     15553  TIP3      H2            -37.5247785520       46.3859796505      -28.1688930836  TIP3      15153           0.0000000000
     95292     15554  TIP3      OH2           -29.8927153163       46.5464102552      -25.5396953495  TIP3      15154           0.0000000000
     95293     15554  TIP3      H1            -30.2050720293       46.3244221321      -26.4285748355  TIP3      15154           0.0000000000
     95294     15554  TIP3      H2            -28.9620262601       46.2830588499      -25.5443580443  TIP3      15154           0.0000000000
     95295     15555  TIP3      OH2           -25.2411829157       51.9098888022      -27.6390140211  TIP3      15155           0.0000000000
     95296     15555  TIP3      H1            -26.1682781780       52.0818109974      -27.8722125018  TIP3      15155           0.0000000000
     95297     15555  TIP3      H2            -25.2547335404       52.1618569529      -26.6960882677  TIP3      15155           0.0000000000
     95298     15556  TIP3      OH2           -19.5374701340       44.1042799076      -39.2288297211  TIP3      15156           0.0000000000
     95299     15556  TIP3      H1            -20.1018752182       43.7635617451      -39.9481137338  TIP3      15156           0.0000000000
     95300     15556  TIP3      H2            -19.4545377016       45.0392372325      -39.5303116580  TIP3      15156           0.0000000000
     95301     15557  TIP3      OH2           -19.5646129297       49.9391449037      -26.4100536080  TIP3      15157           0.0000000000
     95302     15557  TIP3      H1            -20.4450812615       50.1704494981      -26.7953014575  TIP3      15157           0.0000000000
     95303     15557  TIP3      H2            -18.9912901871       49.9179569262      -27.1984391897  TIP3      15157           0.0000000000
     95304     15558  TIP3      OH2           -21.2604853108       52.9253602973      -38.8139192359  TIP3      15158           0.0000000000
     95305     15558  TIP3      H1            -21.6208018867       52.0929742499      -38.4900375033  TIP3      15158           0.0000000000
     95306     15558  TIP3      H2            -20.9596317262       52.7323183614      -39.7193189966  TIP3      15158           0.0000000000
     95307     15559  TIP3      OH2           -24.0689197462       47.7309129362      -31.7341676297  TIP3      15159           0.0000000000
     95308     15559  TIP3      H1            -25.0111338640       47.5086699303      -31.8292707503  TIP3      15159           0.0000000000
     95309     15559  TIP3      H2            -23.6285908634       46.9596324086      -32.1380819822  TIP3      15159           0.0000000000
     95310     15560  TIP3      OH2           -31.5378668329       52.0541515822      -35.6305087338  TIP3      15160           0.0000000000
     95311     15560  TIP3      H1            -31.0223339243       52.8506957555      -35.8424638922  TIP3      15160           0.0000000000
     95312     15560  TIP3      H2            -32.4176453578       52.2909378913      -35.9527459753  TIP3      15160           0.0000000000
     95313     15561  TIP3      OH2           -35.7940031711       46.9159823490      -41.0754773703  TIP3      15161           0.0000000000
     95314     15561  TIP3      H1            -35.1695707007       47.5486554033      -40.6770896301  TIP3      15161           0.0000000000
     95315     15561  TIP3      H2            -36.6664048140       47.2232622876      -40.7714177243  TIP3      15161           0.0000000000
     95316     15562  TIP3      OH2           -30.1012784663       49.7190524608      -36.0854531698  TIP3      15162           0.0000000000
     95317     15562  TIP3      H1            -30.3851787279       50.6509241049      -36.0193980289  TIP3      15162           0.0000000000
     95318     15562  TIP3      H2            -30.8543645121       49.2552624012      -35.6671509935  TIP3      15162           0.0000000000
     95319     15563  TIP3      OH2           -29.6418339039       53.8902840915      -29.7342004939  TIP3      15163           0.0000000000
     95320     15563  TIP3      H1            -29.2252531823       54.7275931179      -29.9841826293  TIP3      15163           0.0000000000
     95321     15563  TIP3      H2            -29.0547858002       53.5739881562      -29.0229859598  TIP3      15163           0.0000000000
     95322     15564  TIP3      OH2           -31.4219085794       54.7221794245      -36.5409838445  TIP3      15164           0.0000000000
     95323     15564  TIP3      H1            -32.3855538123       54.8628967224      -36.4543362990  TIP3      15164           0.0000000000
     95324     15564  TIP3      H2            -31.0735687869       55.5692528272      -36.1899675273  TIP3      15164           0.0000000000
     95325     15565  TIP3      OH2           -26.0871148401       49.9459031160      -30.0661999242  TIP3      15165           0.0000000000
     95326     15565  TIP3      H1            -26.4814305695       49.7401573248      -29.1996165394  TIP3      15165           0.0000000000
     95327     15565  TIP3      H2            -25.4755609846       49.2203632184      -30.2469810299  TIP3      15165           0.0000000000
     95328     15566  TIP3      OH2           -23.8507379329       50.9192360547      -40.9871768534  TIP3      15166           0.0000000000
     95329     15566  TIP3      H1            -23.5199121019       50.5092571817      -40.1590905593  TIP3      15166           0.0000000000
     95330     15566  TIP3      H2            -24.8056367292       50.8013192191      -40.8791733924  TIP3      15166           0.0000000000
     95331     15567  TIP3      OH2           -23.3820235800       54.5306673203      -27.5701024273  TIP3      15167           0.0000000000
     95332     15567  TIP3      H1            -24.0017436526       53.9738939112      -28.0841869186  TIP3      15167           0.0000000000
     95333     15567  TIP3      H2            -23.1130744823       55.1897824622      -28.2258127599  TIP3      15167           0.0000000000
     95334     15568  TIP3      OH2           -19.3364231029       55.3463361932      -40.7695085931  TIP3      15168           0.0000000000
     95335     15568  TIP3      H1            -18.6063736412       55.9667673683      -40.9460821635  TIP3      15168           0.0000000000
     95336     15568  TIP3      H2            -20.0528525533       55.9416683576      -40.4419761624  TIP3      15168           0.0000000000
     95337     15569  TIP3      OH2           -35.2648751056       41.7534745849      -28.1962566555  TIP3      15169           0.0000000000
     95338     15569  TIP3      H1            -36.1746514380       42.0971140660      -28.2349215482  TIP3      15169           0.0000000000
     95339     15569  TIP3      H2            -35.3747795024       40.9009510492      -27.7460173738  TIP3      15169           0.0000000000
     95340     15570  TIP3      OH2           -23.0043455155       49.5937851158      -38.7610634681  TIP3      15170           0.0000000000
     95341     15570  TIP3      H1            -23.2609495626       48.8259493630      -38.2051745548  TIP3      15170           0.0000000000
     95342     15570  TIP3      H2            -22.0616565357       49.6816713633      -38.5397575051  TIP3      15170           0.0000000000
     95343     15571  TIP3      OH2           -35.6238562481       53.5508064075      -29.7594810025  TIP3      15171           0.0000000000
     95344     15571  TIP3      H1            -35.3813855881       52.6139845665      -29.7683213318  TIP3      15171           0.0000000000
     95345     15571  TIP3      H2            -35.3786564071       53.8263301185      -28.8662698417  TIP3      15171           0.0000000000
     95346     15572  TIP3      OH2           -30.8535376587       51.5941693137      -40.0760160678  TIP3      15172           0.0000000000
     95347     15572  TIP3      H1            -30.6638442475       51.0563142790      -39.2958638644  TIP3      15172           0.0000000000
     95348     15572  TIP3      H2            -30.8263843707       52.5099798076      -39.7480484437  TIP3      15172           0.0000000000
     95349     15573  TIP3      OH2           -34.3887023294       48.8347489838      -39.5861264695  TIP3      15173           0.0000000000
     95350     15573  TIP3      H1            -35.0654905500       49.2165966787      -38.9932228061  TIP3      15173           0.0000000000
     95351     15573  TIP3      H2            -33.8433637093       49.6049831608      -39.8164355074  TIP3      15173           0.0000000000
     95352     15574  TIP3      OH2           -26.5424739402       41.5247446744      -29.2672589472  TIP3      15174           0.0000000000
     95353     15574  TIP3      H1            -25.8292689924       41.5569753072      -28.6229947220  TIP3      15174           0.0000000000
     95354     15574  TIP3      H2            -26.9204418224       40.6313792615      -29.1031401891  TIP3      15174           0.0000000000
     95355     15575  TIP3      OH2           -25.7768754944       41.1251025513      -38.1640196943  TIP3      15175           0.0000000000
     95356     15575  TIP3      H1            -25.5346667023       41.6040458416      -38.9860855643  TIP3      15175           0.0000000000
     95357     15575  TIP3      H2            -25.1967439717       41.5417866801      -37.5185581748  TIP3      15175           0.0000000000
     95358     15576  TIP3      OH2           -28.0894093507       53.2596510237      -39.3330180129  TIP3      15176           0.0000000000
     95359     15576  TIP3      H1            -28.9051602454       53.7763507865      -39.2678602901  TIP3      15176           0.0000000000
     95360     15576  TIP3      H2            -27.5543825678       53.7811812691      -39.9559759458  TIP3      15176           0.0000000000
     95361     15577  TIP3      OH2           -28.5618287352       42.8627782939      -37.3482958568  TIP3      15177           0.0000000000
     95362     15577  TIP3      H1            -27.7506704477       43.4032667864      -37.3112239474  TIP3      15177           0.0000000000
     95363     15577  TIP3      H2            -28.8107013368       42.7280321512      -36.4212602663  TIP3      15177           0.0000000000
     95364     15578  TIP3      OH2           -27.9783028575       43.8837917721      -28.1790490833  TIP3      15178           0.0000000000
     95365     15578  TIP3      H1            -27.9430596928       44.4287383193      -27.3771004297  TIP3      15178           0.0000000000
     95366     15578  TIP3      H2            -27.3692123879       43.1468047382      -28.0558905117  TIP3      15178           0.0000000000
     95367     15579  TIP3      OH2           -27.6877381341       39.9239062359      -36.4273196966  TIP3      15179           0.0000000000
     95368     15579  TIP3      H1            -28.0195089076       40.5718778055      -35.7825731767  TIP3      15179           0.0000000000
     95369     15579  TIP3      H2            -27.0086987708       40.4663505760      -36.8987798107  TIP3      15179           0.0000000000
     95370     15580  TIP3      OH2           -30.7713390379       54.3323544576      -39.3581664683  TIP3      15180           0.0000000000
     95371     15580  TIP3      H1            -30.5810965429       55.1505291292      -39.8267861199  TIP3      15180           0.0000000000
     95372     15580  TIP3      H2            -30.9581674752       54.6291799650      -38.4389249252  TIP3      15180           0.0000000000
     95373     15581  TIP3      OH2           -32.0303558082       40.9998773730      -39.7325890335  TIP3      15181           0.0000000000
     95374     15581  TIP3      H1            -32.0984565808       41.9129753581      -39.3747621245  TIP3      15181           0.0000000000
     95375     15581  TIP3      H2            -31.1216572837       40.7642761681      -39.4720605833  TIP3      15181           0.0000000000
     95376     15582  TIP3      OH2           -21.8072453518       41.7553332388      -27.3128640651  TIP3      15182           0.0000000000
     95377     15582  TIP3      H1            -22.7445224316       42.0328292870      -27.4309369904  TIP3      15182           0.0000000000
     95378     15582  TIP3      H2            -21.4954508091       41.7452320414      -28.2325498854  TIP3      15182           0.0000000000
     95379     15583  TIP3      OH2           -23.2150751786       45.5303237591      -33.2610660987  TIP3      15183           0.0000000000
     95380     15583  TIP3      H1            -24.0274961009       45.0934084350      -33.5673520576  TIP3      15183           0.0000000000
     95381     15583  TIP3      H2            -22.7554215139       44.8279122450      -32.7484125285  TIP3      15183           0.0000000000
     95382     15584  TIP3      OH2           -33.8017106459       51.4755797823      -40.6909839641  TIP3      15184           0.0000000000
     95383     15584  TIP3      H1            -33.1494021519       52.1153672437      -40.3854593946  TIP3      15184           0.0000000000
     95384     15584  TIP3      H2            -33.2865958153       50.9978394126      -41.3790674056  TIP3      15184           0.0000000000
     95385     15585  TIP3      OH2           -35.4239785713       44.1171194851      -41.5267668902  TIP3      15185           0.0000000000
     95386     15585  TIP3      H1            -35.4732280184       45.0754513776      -41.3767428949  TIP3      15185           0.0000000000
     95387     15585  TIP3      H2            -36.3129296292       43.8939724271      -41.8364689121  TIP3      15185           0.0000000000
     95388     15586  TIP3      OH2           -22.1450991884       54.7354020883      -31.5986433357  TIP3      15186           0.0000000000
     95389     15586  TIP3      H1            -22.2663613501       55.4525112426      -32.2711627117  TIP3      15186           0.0000000000
     95390     15586  TIP3      H2            -21.1897644352       54.8538780795      -31.4123836066  TIP3      15186           0.0000000000
     95391     15587  TIP3      OH2           -34.6345821654       38.9076349863      -32.8476881689  TIP3      15187           0.0000000000
     95392     15587  TIP3      H1            -34.8636017363       38.9408415236      -33.8031634859  TIP3      15187           0.0000000000
     95393     15587  TIP3      H2            -35.0720825932       38.0813416518      -32.5669784990  TIP3      15187           0.0000000000
     95394     15588  TIP3      OH2           -35.7012002699       52.8237527883      -36.7096813903  TIP3      15188           0.0000000000
     95395     15588  TIP3      H1            -36.5405118459       53.3077266292      -36.6873263887  TIP3      15188           0.0000000000
     95396     15588  TIP3      H2            -35.1733248368       53.3288275469      -37.3317119588  TIP3      15188           0.0000000000
     95397     15589  TIP3      OH2           -36.4371971205       55.4571648606      -25.3828721299  TIP3      15189           0.0000000000
     95398     15589  TIP3      H1            -35.8669763584       55.2347538365      -24.6326807151  TIP3      15189           0.0000000000
     95399     15589  TIP3      H2            -36.9014342408       54.6288053335      -25.5746895122  TIP3      15189           0.0000000000
     95400     15590  TIP3      OH2           -31.8247338571       54.3882914409      -23.7405125965  TIP3      15190           0.0000000000
     95401     15590  TIP3      H1            -31.0496293899       53.8859766032      -23.4374733885  TIP3      15190           0.0000000000
     95402     15590  TIP3      H2            -31.8438912414       54.1232346915      -24.6908156075  TIP3      15190           0.0000000000
     95403     15591  TIP3      OH2           -27.4046697136       54.0225985343      -41.8982036225  TIP3      15191           0.0000000000
     95404     15591  TIP3      H1            -28.1958235269       53.4309880565      -41.9675084994  TIP3      15191           0.0000000000
     95405     15591  TIP3      H2            -26.9290073691       53.4659727975      -42.5172420914  TIP3      15191           0.0000000000
     95406     15592  TIP3      OH2           -25.2725564423       52.7686658918      -25.0435296645  TIP3      15192           0.0000000000
     95407     15592  TIP3      H1            -25.6023744398       51.8856321813      -24.7842774927  TIP3      15192           0.0000000000
     95408     15592  TIP3      H2            -24.5145699784       52.8883458758      -24.4403470964  TIP3      15192           0.0000000000
     95409     15593  TIP3      OH2           -23.1272057937       53.6884290351      -42.1712283486  TIP3      15193           0.0000000000
     95410     15593  TIP3      H1            -22.8415270718       52.8842590171      -41.6985771660  TIP3      15193           0.0000000000
     95411     15593  TIP3      H2            -22.3617878772       53.9026400151      -42.7155318602  TIP3      15193           0.0000000000
     95412     15594  TIP3      OH2           -36.5278268015       49.2612235511      -24.4152642008  TIP3      15194           0.0000000000
     95413     15594  TIP3      H1            -36.3829833738       48.3451299937      -24.7142960578  TIP3      15194           0.0000000000
     95414     15594  TIP3      H2            -37.2965970616       49.5343553367      -24.9377663412  TIP3      15194           0.0000000000
     95415     15595  TIP3      OH2           -32.1509735798       49.6501857607      -42.2568679781  TIP3      15195           0.0000000000
     95416     15595  TIP3      H1            -32.0967802117       48.8157279967      -41.7768555876  TIP3      15195           0.0000000000
     95417     15595  TIP3      H2            -31.5436738311       49.4543409385      -42.9921807883  TIP3      15195           0.0000000000
     95418     15596  TIP3      OH2           -29.8369044183       49.2414996527      -25.0133818914  TIP3      15196           0.0000000000
     95419     15596  TIP3      H1            -30.1934030901       49.5221357768      -25.8730443651  TIP3      15196           0.0000000000
     95420     15596  TIP3      H2            -29.7485472632       48.2677229420      -25.0870215900  TIP3      15196           0.0000000000
     95421     15597  TIP3      OH2           -24.1472105355       49.1026569533      -27.6101216980  TIP3      15197           0.0000000000
     95422     15597  TIP3      H1            -23.3774046875       49.7187900611      -27.7162199048  TIP3      15197           0.0000000000
     95423     15597  TIP3      H2            -24.8665681365       49.7533784732      -27.5670912638  TIP3      15197           0.0000000000
     95424     15598  TIP3      OH2           -35.6927774909       46.4659482573      -25.0219415426  TIP3      15198           0.0000000000
     95425     15598  TIP3      H1            -35.2612573550       45.6092347342      -25.1217355733  TIP3      15198           0.0000000000
     95426     15598  TIP3      H2            -35.9225419420       46.4714253643      -24.0789856923  TIP3      15198           0.0000000000
     95427     15599  TIP3      OH2           -31.0204017849       47.6134742055      -39.9808491461  TIP3      15199           0.0000000000
     95428     15599  TIP3      H1            -31.4943976758       47.0903625709      -39.3131841197  TIP3      15199           0.0000000000
     95429     15599  TIP3      H2            -30.7426312269       46.9112135089      -40.6167183646  TIP3      15199           0.0000000000
     95430     15600  TIP3      OH2           -31.7373463985       45.4397124819      -27.6342118045  TIP3      15200           0.0000000000
     95431     15600  TIP3      H1            -32.3521713914       46.1438609927      -27.3639703594  TIP3      15200           0.0000000000
     95432     15600  TIP3      H2            -31.3798028596       45.7912001279      -28.4673132632  TIP3      15200           0.0000000000
     95433     15601  TIP3      OH2           -29.9567647493       45.8280654116      -41.7340549703  TIP3      15201           0.0000000000
     95434     15601  TIP3      H1            -30.1061243667       45.6541148845      -42.6711732938  TIP3      15201           0.0000000000
     95435     15601  TIP3      H2            -28.9796253915       45.9203225468      -41.6604595439  TIP3      15201           0.0000000000
     95436     15602  TIP3      OH2           -26.6959415416       47.9467617141      -24.3577958847  TIP3      15202           0.0000000000
     95437     15602  TIP3      H1            -25.7381157007       48.0129546048      -24.3815511245  TIP3      15202           0.0000000000
     95438     15602  TIP3      H2            -26.8763092789       47.2304457021      -23.7249748423  TIP3      15202           0.0000000000
     95439     15603  TIP3      OH2           -20.6814188423       48.2386879344       42.7728927436  TIP3      15203           0.0000000000
     95440     15603  TIP3      H1            -20.8394758543       47.7664670874       41.9314093884  TIP3      15203           0.0000000000
     95441     15603  TIP3      H2            -20.5253932058       49.1485061340       42.4969183904  TIP3      15203           0.0000000000
     95442     15604  TIP3      OH2           -31.3607849721       42.8116634306      -26.5558483927  TIP3      15204           0.0000000000
     95443     15604  TIP3      H1            -31.2441296440       42.0883544014      -27.1919066296  TIP3      15204           0.0000000000
     95444     15604  TIP3      H2            -31.3949997648       43.6081631654      -27.1270438507  TIP3      15204           0.0000000000
     95445     15605  TIP3      OH2           -30.9615166035       41.1871058973      -29.0403909278  TIP3      15205           0.0000000000
     95446     15605  TIP3      H1            -30.4385652382       41.6465486405      -29.7374495094  TIP3      15205           0.0000000000
     95447     15605  TIP3      H2            -31.8428093519       41.0921756462      -29.4716167990  TIP3      15205           0.0000000000
     95448     15606  TIP3      OH2           -29.3833188342       46.6434749786      -28.7949209673  TIP3      15206           0.0000000000
     95449     15606  TIP3      H1            -28.6578396827       46.4882647950      -29.4035784569  TIP3      15206           0.0000000000
     95450     15606  TIP3      H2            -29.7563412103       47.4886563499      -29.1128610411  TIP3      15206           0.0000000000
     95451     15607  TIP3      OH2           -25.0080405744       44.4515153837      -23.8762670145  TIP3      15207           0.0000000000
     95452     15607  TIP3      H1            -24.7826265171       43.5065861237      -23.8746347671  TIP3      15207           0.0000000000
     95453     15607  TIP3      H2            -24.1276012804       44.8612334960      -23.7830296065  TIP3      15207           0.0000000000
     95454     15608  TIP3      OH2           -23.7018186376       47.1831381413      -25.7466457460  TIP3      15208           0.0000000000
     95455     15608  TIP3      H1            -23.9168056769       47.9753699389      -26.2904675514  TIP3      15208           0.0000000000
     95456     15608  TIP3      H2            -22.7157544695       47.1858325593      -25.8651917837  TIP3      15208           0.0000000000
     95457     15609  TIP3      OH2           -32.9051320164       44.0454454104      -24.6432823636  TIP3      15209           0.0000000000
     95458     15609  TIP3      H1            -33.6747662369       43.4787544730      -24.8514549947  TIP3      15209           0.0000000000
     95459     15609  TIP3      H2            -32.2395820515       43.6917264361      -25.2589330288  TIP3      15209           0.0000000000
     95460     15610  TIP3      OH2           -30.1631174518       38.6266416927      -28.6281951023  TIP3      15210           0.0000000000
     95461     15610  TIP3      H1            -30.3000405707       39.5948967095      -28.7452855226  TIP3      15210           0.0000000000
     95462     15610  TIP3      H2            -30.9202775819       38.2708393474      -29.1274745943  TIP3      15210           0.0000000000
     95463     15611  TIP3      OH2           -28.8902313718       42.9444291477      -25.0638940997  TIP3      15211           0.0000000000
     95464     15611  TIP3      H1            -29.1598775220       42.7558856893      -24.1486101894  TIP3      15211           0.0000000000
     95465     15611  TIP3      H2            -29.7013175358       42.7625791721      -25.5822117767  TIP3      15211           0.0000000000
     95466     15612  TIP3      OH2           -26.1789074962       42.1197636446      -25.9771121640  TIP3      15212           0.0000000000
     95467     15612  TIP3      H1            -27.1464550384       42.1202830967      -25.8469112198  TIP3      15212           0.0000000000
     95468     15612  TIP3      H2            -25.8904570169       41.4564264251      -25.3220173027  TIP3      15212           0.0000000000
     95469     15613  TIP3      OH2           -24.5755199088       40.7486762953      -23.9876152068  TIP3      15213           0.0000000000
     95470     15613  TIP3      H1            -24.6515752122       39.7740014603      -24.0151397721  TIP3      15213           0.0000000000
     95471     15613  TIP3      H2            -24.8803601455       41.0009324816      -23.1149558367  TIP3      15213           0.0000000000
     95472     15614  TIP3      OH2           -34.7626412323       41.9641660797      -24.9441403822  TIP3      15214           0.0000000000
     95473     15614  TIP3      H1            -34.5341901450       41.2338761945      -25.5461175791  TIP3      15214           0.0000000000
     95474     15614  TIP3      H2            -34.8560968806       41.5135196705      -24.0847314091  TIP3      15214           0.0000000000
     95475     15615  TIP3      OH2           -29.9548173346       37.9794012574      -25.9448603261  TIP3      15215           0.0000000000
     95476     15615  TIP3      H1            -29.2465547792       37.2986974833      -25.9819260543  TIP3      15215           0.0000000000
     95477     15615  TIP3      H2            -30.0499605173       38.1862050672      -26.8932950397  TIP3      15215           0.0000000000
     95478     15616  TIP3      OH2           -29.5956763342       39.6420435629      -23.8550341066  TIP3      15216           0.0000000000
     95479     15616  TIP3      H1            -29.7262009330       39.1364838409      -24.7109043275  TIP3      15216           0.0000000000
     95480     15616  TIP3      H2            -30.2033988234       40.3672367969      -23.9924605025  TIP3      15216           0.0000000000
     95481     15617  TIP3      OH2           -36.5138537581       51.1667328395      -41.2334711051  TIP3      15217           0.0000000000
     95482     15617  TIP3      H1            -35.5605041753       51.2083035333      -40.9809844375  TIP3      15217           0.0000000000
     95483     15617  TIP3      H2            -36.4871631793       50.4803101969      -41.9190859232  TIP3      15217           0.0000000000
     95484     15618  TIP3      OH2           -36.9656446509       54.6220695875      -34.3831178688  TIP3      15218           0.0000000000
     95485     15618  TIP3      H1            -37.3006006764       53.7365494837      -34.1808267529  TIP3      15218           0.0000000000
     95486     15618  TIP3      H2            -36.7521192848       54.9628746902      -33.4949418977  TIP3      15218           0.0000000000
     95487     15619  TIP3      OH2           -19.4238824473       55.4269315921      -31.4170010835  TIP3      15219           0.0000000000
     95488     15619  TIP3      H1            -19.4214915239       55.5970996672      -30.4442376652  TIP3      15219           0.0000000000
     95489     15619  TIP3      H2            -18.7160470479       55.9986701837      -31.7138350780  TIP3      15219           0.0000000000
     95490     15620  TIP3      OH2           -19.8215071960       54.8907141903      -28.7271018154  TIP3      15220           0.0000000000
     95491     15620  TIP3      H1            -20.3911421723       54.1473158807      -28.8656404369  TIP3      15220           0.0000000000
     95492     15620  TIP3      H2            -19.3770513145       54.6586199353      -27.8442108574  TIP3      15220           0.0000000000
     95493     15621  TIP3      OH2           -21.3979897908       50.7582567070      -23.8241707507  TIP3      15221           0.0000000000
     95494     15621  TIP3      H1            -22.2797495360       50.6968892930      -23.4309828359  TIP3      15221           0.0000000000
     95495     15621  TIP3      H2            -21.0181858493       51.5566594668      -23.3798036338  TIP3      15221           0.0000000000
     95496     15622  TIP3      OH2           -20.0959592108       49.0577663246      -38.3468313683  TIP3      15222           0.0000000000
     95497     15622  TIP3      H1            -19.2373188953       49.4670953843      -38.1708493543  TIP3      15222           0.0000000000
     95498     15622  TIP3      H2            -20.0952250695       48.3175409763      -37.6959503465  TIP3      15222           0.0000000000
     95499     15623  TIP3      OH2           -19.7168996450       47.1229404716      -36.4974491771  TIP3      15223           0.0000000000
     95500     15623  TIP3      H1            -20.4558544167       46.6188205606      -36.0923466033  TIP3      15223           0.0000000000
     95501     15623  TIP3      H2            -19.1216414423       47.2940440679      -35.7393446050  TIP3      15223           0.0000000000
     95502     15624  TIP3      OH2           -19.9649290990       49.8562679511      -31.5193050758  TIP3      15224           0.0000000000
     95503     15624  TIP3      H1            -19.1234419423       49.4913058130      -31.8502108642  TIP3      15224           0.0000000000
     95504     15624  TIP3      H2            -19.8268910476       50.8181947711      -31.6691269167  TIP3      15224           0.0000000000
     95505     15625  TIP3      OH2           -21.4416513930       52.7243162106      -29.2179173623  TIP3      15225           0.0000000000
     95506     15625  TIP3      H1            -22.1055554705       53.1086207187      -28.6289964116  TIP3      15225           0.0000000000
     95507     15625  TIP3      H2            -21.9831028608       52.3304247724      -29.9293094238  TIP3      15225           0.0000000000
     95508     15626  TIP3      OH2           -19.4309676276       46.9745746706      -40.1028527419  TIP3      15226           0.0000000000
     95509     15626  TIP3      H1            -19.9836413958       47.3494516986      -40.8147148777  TIP3      15226           0.0000000000
     95510     15626  TIP3      H2            -19.4859154844       47.6754923467      -39.4260021352  TIP3      15226           0.0000000000
     95511     15627  TIP3      OH2           -21.3166019271       44.2467615640      -41.4711147677  TIP3      15227           0.0000000000
     95512     15627  TIP3      H1            -20.9872389522       44.8538208032      -42.1622284170  TIP3      15227           0.0000000000
     95513     15627  TIP3      H2            -21.2297995758       43.4186143884      -41.9895593249  TIP3      15227           0.0000000000
     95514     15628  TIP3      OH2           -21.9116551286       45.6218642940      -35.9303982729  TIP3      15228           0.0000000000
     95515     15628  TIP3      H1            -22.0661555491       44.6656850316      -35.9471870321  TIP3      15228           0.0000000000
     95516     15628  TIP3      H2            -22.2638582827       45.8749962311      -35.0616907192  TIP3      15228           0.0000000000
     95517     15629  TIP3      OH2           -36.9001653562       47.7042142123      -31.8849903001  TIP3      15229           0.0000000000
     95518     15629  TIP3      H1            -36.7012984317       47.6174990255      -32.8435032125  TIP3      15229           0.0000000000
     95519     15629  TIP3      H2            -36.0152950566       47.5543404182      -31.4995768624  TIP3      15229           0.0000000000
     95520     15630  TIP3      OH2           -21.0773054979       47.5790543753      -26.2720191620  TIP3      15230           0.0000000000
     95521     15630  TIP3      H1            -20.4517581428       46.8434815969      -26.0886636555  TIP3      15230           0.0000000000
     95522     15630  TIP3      H2            -20.4794088765       48.3613930961      -26.2396053032  TIP3      15230           0.0000000000
     95523     15631  TIP3      OH2           -19.5582237031       45.4929565765      -25.6013364351  TIP3      15231           0.0000000000
     95524     15631  TIP3      H1            -20.4295737368       45.0842558337      -25.7548461246  TIP3      15231           0.0000000000
     95525     15631  TIP3      H2            -18.9658532663       44.7279899234      -25.6691817531  TIP3      15231           0.0000000000
     95526     15632  TIP3      OH2           -21.8285818601       41.6385282440      -42.4509052447  TIP3      15232           0.0000000000
     95527     15632  TIP3      H1            -21.2268375221       41.2445710590      -41.7930389953  TIP3      15232           0.0000000000
     95528     15632  TIP3      H2            -22.6894826152       41.2396168376      -42.2443269423  TIP3      15232           0.0000000000
     95529     15633  TIP3      OH2           -22.2294169547       43.2094783361      -37.4550009724  TIP3      15233           0.0000000000
     95530     15633  TIP3      H1            -21.9240813862       42.2801634961      -37.3380198395  TIP3      15233           0.0000000000
     95531     15633  TIP3      H2            -21.4491834943       43.6221053377      -37.8516268708  TIP3      15233           0.0000000000
     95532     15634  TIP3      OH2           -21.6061309061       43.7519289679      -32.0308642624  TIP3      15234           0.0000000000
     95533     15634  TIP3      H1            -20.6504070840       43.9918268150      -32.0478035514  TIP3      15234           0.0000000000
     95534     15634  TIP3      H2            -21.8095174943       43.8871050254      -31.0936166661  TIP3      15234           0.0000000000
     95535     15635  TIP3      OH2           -21.5410310004       44.4813750446      -29.2451492421  TIP3      15235           0.0000000000
     95536     15635  TIP3      H1            -22.4065933059       44.7825833913      -28.9047801311  TIP3      15235           0.0000000000
     95537     15635  TIP3      H2            -21.1055234174       45.3402715823      -29.4680488085  TIP3      15235           0.0000000000
     95538     15636  TIP3      OH2           -37.2981726481       42.9855043349      -25.7551620302  TIP3      15236           0.0000000000
     95539     15636  TIP3      H1            -36.3575415805       42.8260606205      -25.5312130139  TIP3      15236           0.0000000000
     95540     15636  TIP3      H2            -37.7413393963       42.1903625479      -25.3880579875  TIP3      15236           0.0000000000
     95541     15637  TIP3      OH2           -19.2627149602       38.4985178862      -23.8779269011  TIP3      15237           0.0000000000
     95542     15637  TIP3      H1            -18.9288479464       37.8459256910      -24.5094165224  TIP3      15237           0.0000000000
     95543     15637  TIP3      H2            -19.1414079854       39.3344529749      -24.3579205185  TIP3      15237           0.0000000000
     95544     15638  TIP3      OH2           -21.5870659874       40.4824990277      -37.4150700037  TIP3      15238           0.0000000000
     95545     15638  TIP3      H1            -21.3920318595       40.0219419566      -36.5743569094  TIP3      15238           0.0000000000
     95546     15638  TIP3      H2            -22.1938185083       39.8624627049      -37.8760131625  TIP3      15238           0.0000000000
     95547     15639  TIP3      OH2           -36.0818927669       41.2880859153      -32.8781139385  TIP3      15239           0.0000000000
     95548     15639  TIP3      H1            -35.6177783908       40.4774482930      -32.5852087620  TIP3      15239           0.0000000000
     95549     15639  TIP3      H2            -35.5758796735       41.9956550233      -32.4562727570  TIP3      15239           0.0000000000
     95550     15640  TIP3      OH2           -37.7888329601       44.2742892656      -31.8087431167  TIP3      15240           0.0000000000
     95551     15640  TIP3      H1            -37.2502878413       44.0581574565      -32.5991467978  TIP3      15240           0.0000000000
     95552     15640  TIP3      H2            -37.3729570379       45.1096644645      -31.5452417931  TIP3      15240           0.0000000000
     95553     15641  TIP3      OH2           -19.7406419707       40.6111386639      -25.5400007842  TIP3      15241           0.0000000000
     95554     15641  TIP3      H1            -20.6805656614       40.8810173902      -25.5950337383  TIP3      15241           0.0000000000
     95555     15641  TIP3      H2            -19.6678391342       40.0747856011      -26.3436027189  TIP3      15241           0.0000000000
     95556     15642  TIP3      OH2           -19.7514647064       40.5317627046      -40.8603118702  TIP3      15242           0.0000000000
     95557     15642  TIP3      H1            -19.3127977591       39.8207338608      -41.3590662657  TIP3      15242           0.0000000000
     95558     15642  TIP3      H2            -19.0419597436       41.1987187476      -40.8396086489  TIP3      15242           0.0000000000
     95559     15643  TIP3      OH2           -37.4410745335       40.5407035050      -37.7577321367  TIP3      15243           0.0000000000
     95560     15643  TIP3      H1            -38.3772825044       40.7613282592      -37.8929434107  TIP3      15243           0.0000000000
     95561     15643  TIP3      H2            -37.0016764335       41.0357300928      -38.4660509326  TIP3      15243           0.0000000000
     95562     15644  TIP3      OH2           -22.6945634357       55.5108356347      -35.8151344097  TIP3      15244           0.0000000000
     95563     15644  TIP3      H1            -22.0088137758       55.1676782049      -36.4206185581  TIP3      15244           0.0000000000
     95564     15644  TIP3      H2            -22.1680348554       56.0019926055      -35.1619107848  TIP3      15244           0.0000000000
     95565     15645  TIP3      OH2           -37.4755879943       39.2467222433      -29.4283973564  TIP3      15245           0.0000000000
     95566     15645  TIP3      H1            -38.1566036847       39.0267515217      -28.7694778187  TIP3      15245           0.0000000000
     95567     15645  TIP3      H2            -37.9387309393       39.9001811878      -29.9975141537  TIP3      15245           0.0000000000
     95568     15646  TIP3      OH2           -35.2705482543       52.4401142279      -25.2741864421  TIP3      15246           0.0000000000
     95569     15646  TIP3      H1            -36.1126375889       52.6141672887      -25.7262580509  TIP3      15246           0.0000000000
     95570     15646  TIP3      H2            -35.5410411489       52.3668386328      -24.3626728550  TIP3      15246           0.0000000000
     95571     15647  TIP3      OH2           -32.3553791138       53.4072906344      -29.0069202201  TIP3      15247           0.0000000000
     95572     15647  TIP3      H1            -32.7293699252       54.2523072566      -29.2899840726  TIP3      15247           0.0000000000
     95573     15647  TIP3      H2            -31.4290992611       53.5083042051      -29.3188299334  TIP3      15247           0.0000000000
     95574     15648  TIP3      OH2           -28.0210657359       54.8137796162      -26.0873935869  TIP3      15248           0.0000000000
     95575     15648  TIP3      H1            -27.8508309225       54.4945399448      -25.1656039944  TIP3      15248           0.0000000000
     95576     15648  TIP3      H2            -27.1475545962       55.1401131471      -26.3672571470  TIP3      15248           0.0000000000
     95577     15649  TIP3      OH2           -25.7155437777       56.1044256117      -26.8073492937  TIP3      15249           0.0000000000
     95578     15649  TIP3      H1            -24.9907628542       55.4984058155      -27.0389726114  TIP3      15249           0.0000000000
     95579     15649  TIP3      H2            -25.3584147315       56.5043141283      -25.9856963921  TIP3      15249           0.0000000000
     95580     15650  TIP3      OH2           -20.7378807021       38.7203838138      -27.7097016215  TIP3      15250           0.0000000000
     95581     15650  TIP3      H1            -21.5729879450       39.0150833128      -28.1165706517  TIP3      15250           0.0000000000
     95582     15650  TIP3      H2            -20.5457230715       37.9177227232      -28.2465146188  TIP3      15250           0.0000000000
     95583     15651  TIP3      OH2           -32.4789577493      -56.6002193294      -29.8961416844  TIP3      15251           0.0000000000
     95584     15651  TIP3      H1            -33.3547229253      -56.4657172801      -29.5321551052  TIP3      15251           0.0000000000
     95585     15651  TIP3      H2            -32.5153415302      -56.0279381981      -30.7054023037  TIP3      15251           0.0000000000
     95586     15652  TIP3      OH2           -27.7555004022      -56.7024476820      -30.7710098078  TIP3      15252           0.0000000000
     95587     15652  TIP3      H1            -28.2192015951      -56.1495258870      -31.4223902811  TIP3      15252           0.0000000000
     95588     15652  TIP3      H2            -27.6024452225      -56.0632533760      -30.0342248839  TIP3      15252           0.0000000000
     95589     15653  TIP3      OH2           -25.4415038433       55.0064717345      -29.7841548003  TIP3      15253           0.0000000000
     95590     15653  TIP3      H1            -26.3326130049       55.2250375772      -30.0972482718  TIP3      15253           0.0000000000
     95591     15653  TIP3      H2            -25.0095493940       55.8690333300      -29.8814338105  TIP3      15253           0.0000000000
     95592     15654  TIP3      OH2           -35.5184725130       55.2675871459      -32.0564269924  TIP3      15254           0.0000000000
     95593     15654  TIP3      H1            -35.5497251522       54.8511857057      -31.1738305535  TIP3      15254           0.0000000000
     95594     15654  TIP3      H2            -34.6865106115       54.9457962117      -32.4605255037  TIP3      15254           0.0000000000
     95595     15655  TIP3      OH2           -33.4021164914       54.0292454791      -33.4094386359  TIP3      15255           0.0000000000
     95596     15655  TIP3      H1            -33.5824531241       53.0895485285      -33.2218019460  TIP3      15255           0.0000000000
     95597     15655  TIP3      H2            -32.5438113026       54.1482521549      -32.9459333175  TIP3      15255           0.0000000000
     95598     15656  TIP3      OH2           -30.8228375373       54.4920531975      -32.5425261480  TIP3      15256           0.0000000000
     95599     15656  TIP3      H1            -30.6249427676       53.5781444970      -32.8194328371  TIP3      15256           0.0000000000
     95600     15656  TIP3      H2            -30.7656356226       54.4405279343      -31.5829150262  TIP3      15256           0.0000000000
     95601     15657  TIP3      OH2           -27.3327016409       40.1525709854      -33.4009509445  TIP3      15257           0.0000000000
     95602     15657  TIP3      H1            -28.0100516247       39.5065547062      -33.1426308899  TIP3      15257           0.0000000000
     95603     15657  TIP3      H2            -26.7753980011       39.6409136505      -34.0013724139  TIP3      15257           0.0000000000
     95604     15658  TIP3      OH2           -22.1977031377       38.2251752387      -33.3014175785  TIP3      15258           0.0000000000
     95605     15658  TIP3      H1            -21.5790356783       38.8020077434      -33.8181556391  TIP3      15258           0.0000000000
     95606     15658  TIP3      H2            -23.0743098631       38.5698372810      -33.5507592315  TIP3      15258           0.0000000000
     95607     15659  TIP3      OH2           -20.5022700349       39.4134590884      -34.9985461569  TIP3      15259           0.0000000000
     95608     15659  TIP3      H1            -19.8392775436       38.8667257559      -35.4853528117  TIP3      15259           0.0000000000
     95609     15659  TIP3      H2            -20.0505655482       40.2814963490      -34.9434654945  TIP3      15259           0.0000000000
     95610     15660  TIP3      OH2           -34.9888646284       38.7821640771      -35.5604777089  TIP3      15260           0.0000000000
     95611     15660  TIP3      H1            -35.7711350513       38.5566231808      -36.0955197912  TIP3      15260           0.0000000000
     95612     15660  TIP3      H2            -34.4857069187       37.9495422417      -35.5944710130  TIP3      15260           0.0000000000
     95613     15661  TIP3      OH2           -36.1853178743       38.5467273210      -39.7992507811  TIP3      15261           0.0000000000
     95614     15661  TIP3      H1            -35.7218546409       39.1855989972      -40.3769509477  TIP3      15261           0.0000000000
     95615     15661  TIP3      H2            -36.7884481296       39.1170834445      -39.2945598074  TIP3      15261           0.0000000000
     95616     15662  TIP3      OH2           -30.4571474371       38.7022762106      -35.7742633364  TIP3      15262           0.0000000000
     95617     15662  TIP3      H1            -29.5611050508       39.0827300299      -35.8112125129  TIP3      15262           0.0000000000
     95618     15662  TIP3      H2            -30.5458083313       38.4911537448      -34.8447004481  TIP3      15262           0.0000000000
     95619     15663  TIP3      OH2           -24.8316157133       38.7364173693      -34.1264505145  TIP3      15263           0.0000000000
     95620     15663  TIP3      H1            -24.8065075909       38.8281729614      -35.0842406419  TIP3      15263           0.0000000000
     95621     15663  TIP3      H2            -25.1587172480       37.8151026571      -34.0007878878  TIP3      15263           0.0000000000
     95622     15664  TIP3      OH2           -23.5057432902       38.7617080315      -38.4520674056  TIP3      15264           0.0000000000
     95623     15664  TIP3      H1            -24.2356939567       39.3683113355      -38.6405484012  TIP3      15264           0.0000000000
     95624     15664  TIP3      H2            -23.9625305994       37.9055237086      -38.2847940759  TIP3      15264           0.0000000000
     95625     15665  TIP3      OH2           -36.2500365595       54.5096456515      -38.8611807959  TIP3      15265           0.0000000000
     95626     15665  TIP3      H1            -37.0014327927       54.4426259796      -39.4568122694  TIP3      15265           0.0000000000
     95627     15665  TIP3      H2            -36.2557180444       55.4418001237      -38.5875097587  TIP3      15265           0.0000000000
     95628     15666  TIP3      OH2           -34.3390351523       40.4562317707      -41.3254052953  TIP3      15266           0.0000000000
     95629     15666  TIP3      H1            -33.8184673421       39.8582620864      -41.8606152059  TIP3      15266           0.0000000000
     95630     15666  TIP3      H2            -33.6891496406       40.8006494836      -40.6868794692  TIP3      15266           0.0000000000
     95631     15667  TIP3      OH2           -29.3084352027       40.7525008017      -38.9107960602  TIP3      15267           0.0000000000
     95632     15667  TIP3      H1            -29.0908104294       40.1451715432      -38.1838613687  TIP3      15267           0.0000000000
     95633     15667  TIP3      H2            -29.3096046254       41.6079374287      -38.4179267636  TIP3      15267           0.0000000000
     95634     15668  TIP3      OH2           -27.4320415630       55.9059102365      -40.3981135059  TIP3      15268           0.0000000000
     95635     15668  TIP3      H1            -26.5124958107       56.0871747679      -40.6647455220  TIP3      15268           0.0000000000
     95636     15668  TIP3      H2            -27.6237206039       55.3522257876      -41.2081284618  TIP3      15268           0.0000000000
     95637     15669  TIP3      OH2           -20.6860448423       55.2897768191      -37.7599904872  TIP3      15269           0.0000000000
     95638     15669  TIP3      H1            -20.8962156434       54.5312193839      -38.3601870083  TIP3      15269           0.0000000000
     95639     15669  TIP3      H2            -20.7519225279       56.0441434389      -38.3851320914  TIP3      15269           0.0000000000
     95640     15670  TIP3      OH2           -35.0725190177       39.3105955319      -26.0948335112  TIP3      15270           0.0000000000
     95641     15670  TIP3      H1            -35.4251934625       38.5246123051      -25.6380095314  TIP3      15270           0.0000000000
     95642     15670  TIP3      H2            -34.1460838225       39.3011627313      -25.7669254063  TIP3      15270           0.0000000000
     95643     15671  TIP3      OH2           -33.0582672054       38.6843338246      -24.4738721585  TIP3      15271           0.0000000000
     95644     15671  TIP3      H1            -32.1775962856       38.3478197578      -24.7269361527  TIP3      15271           0.0000000000
     95645     15671  TIP3      H2            -33.4689419685       37.8891895552      -24.0748909985  TIP3      15271           0.0000000000
     95646     15672  TIP3      OH2           -34.4554875853       55.4272308029      -41.8417650806  TIP3      15272           0.0000000000
     95647     15672  TIP3      H1            -34.6603792725       55.7681608440      -40.9650528295  TIP3      15272           0.0000000000
     95648     15672  TIP3      H2            -33.6664406777       54.8993206657      -41.7135161844  TIP3      15272           0.0000000000
     95649     15673  TIP3      OH2           -24.6628302128       37.9866435639      -24.3235999892  TIP3      15273           0.0000000000
     95650     15673  TIP3      H1            -24.5462490095       37.5513972974      -23.4954627491  TIP3      15273           0.0000000000
     95651     15673  TIP3      H2            -23.7513156118       37.9847269773      -24.7016404639  TIP3      15273           0.0000000000
     95652     15674  TIP3      OH2           -21.5072839403       54.0091897838      -25.6094479574  TIP3      15274           0.0000000000
     95653     15674  TIP3      H1            -22.2669366375       53.8858456740      -26.2001994089  TIP3      15274           0.0000000000
     95654     15674  TIP3      H2            -21.5128603696       54.9773670313      -25.4680680666  TIP3      15274           0.0000000000
     95655     15675  TIP3      OH2            -7.0465526651       47.9172460481      -35.6509667433  TIP3      15275           0.0000000000
     95656     15675  TIP3      H1             -7.0029740888       48.8920033191      -35.7506577565  TIP3      15275           0.0000000000
     95657     15675  TIP3      H2             -7.7295699108       47.6700791866      -36.2930455464  TIP3      15275           0.0000000000
     95658     15676  TIP3      OH2            -8.1531977930       47.1902138395      -32.1934432046  TIP3      15276           0.0000000000
     95659     15676  TIP3      H1             -8.1799644003       46.5319101882      -31.4924398109  TIP3      15276           0.0000000000
     95660     15676  TIP3      H2             -8.4775907957       46.7011742229      -32.9685163191  TIP3      15276           0.0000000000
     95661     15677  TIP3      OH2           -15.7939991537       46.8248803619      -30.6344931671  TIP3      15277           0.0000000000
     95662     15677  TIP3      H1            -15.7229324734       46.1686097770      -29.9079956391  TIP3      15277           0.0000000000
     95663     15677  TIP3      H2            -15.0628814118       47.4229431059      -30.4246762774  TIP3      15277           0.0000000000
     95664     15678  TIP3      OH2            -4.4352589049       50.1236120811      -33.9124402373  TIP3      15278           0.0000000000
     95665     15678  TIP3      H1             -4.8813425811       49.4102358373      -33.4428688996  TIP3      15278           0.0000000000
     95666     15678  TIP3      H2             -4.4571443134       50.8387982170      -33.2518499844  TIP3      15278           0.0000000000
     95667     15679  TIP3      OH2           -14.8673206601       51.2786861941      -32.0970173152  TIP3      15279           0.0000000000
     95668     15679  TIP3      H1            -15.2057757082       50.4375157948      -32.4544798387  TIP3      15279           0.0000000000
     95669     15679  TIP3      H2            -13.9137555086       51.0850854055      -32.0553364904  TIP3      15279           0.0000000000
     95670     15680  TIP3      OH2           -18.2174017705       44.8731715275      -36.6792624432  TIP3      15280           0.0000000000
     95671     15680  TIP3      H1            -18.6800316782       45.7428542291      -36.7089276651  TIP3      15280           0.0000000000
     95672     15680  TIP3      H2            -18.8152474660       44.3332269011      -37.2149167825  TIP3      15280           0.0000000000
     95673     15681  TIP3      OH2           -17.5371660444       47.0822082083      -34.5412306176  TIP3      15281           0.0000000000
     95674     15681  TIP3      H1            -17.2903563814       46.2829775492      -34.0416528291  TIP3      15281           0.0000000000
     95675     15681  TIP3      H2            -16.8019226397       47.1694367538      -35.1683720513  TIP3      15281           0.0000000000
     95676     15682  TIP3      OH2            -7.3814452473       55.2258483648      -33.6939989311  TIP3      15282           0.0000000000
     95677     15682  TIP3      H1             -6.7085271093       54.5489331404      -33.9580364595  TIP3      15282           0.0000000000
     95678     15682  TIP3      H2             -7.5407429413       54.9816956822      -32.7839127221  TIP3      15282           0.0000000000
     95679     15683  TIP3      OH2            -9.7762236609       49.6067007194      -31.7721939368  TIP3      15283           0.0000000000
     95680     15683  TIP3      H1             -9.4409140136       48.9390731300      -32.3923696899  TIP3      15283           0.0000000000
     95681     15683  TIP3      H2             -9.0038652703       49.7353133436      -31.1952149087  TIP3      15283           0.0000000000
     95682     15684  TIP3      OH2            -1.1343531198       41.2153704588      -30.9660778250  TIP3      15284           0.0000000000
     95683     15684  TIP3      H1             -1.0214158728       41.8358727253      -30.2141000224  TIP3      15284           0.0000000000
     95684     15684  TIP3      H2             -0.6408174353       41.6761414698      -31.6612985134  TIP3      15284           0.0000000000
     95685     15685  TIP3      OH2            -6.6147830940       44.0395638491      -31.4373818331  TIP3      15285           0.0000000000
     95686     15685  TIP3      H1             -6.4651032715       43.0736123318      -31.4446866045  TIP3      15285           0.0000000000
     95687     15685  TIP3      H2             -6.7190488227       44.2021341588      -32.3977132806  TIP3      15285           0.0000000000
     95688     15686  TIP3      OH2           -13.4473820704       42.1537991926      -34.1739248681  TIP3      15286           0.0000000000
     95689     15686  TIP3      H1            -13.4056063314       43.0001756687      -34.6355792034  TIP3      15286           0.0000000000
     95690     15686  TIP3      H2            -13.9106126461       41.5561907136      -34.8055145081  TIP3      15286           0.0000000000
     95691     15687  TIP3      OH2            -5.7556878746       42.2312458925      -35.8163856069  TIP3      15287           0.0000000000
     95692     15687  TIP3      H1             -5.0872032169       41.9110293162      -35.1652988256  TIP3      15287           0.0000000000
     95693     15687  TIP3      H2             -5.2077858174       42.7753310084      -36.4023994519  TIP3      15287           0.0000000000
     95694     15688  TIP3      OH2           -16.8613898189       44.5345648907      -33.4451487012  TIP3      15288           0.0000000000
     95695     15688  TIP3      H1            -16.1898639915       43.9732969014      -33.0024038764  TIP3      15288           0.0000000000
     95696     15688  TIP3      H2            -16.7968117231       44.2358486925      -34.3608238310  TIP3      15288           0.0000000000
     95697     15689  TIP3      OH2           -11.6933800281       46.0919902688      -34.1888018331  TIP3      15289           0.0000000000
     95698     15689  TIP3      H1            -11.0566361841       45.5208995994      -33.7267202749  TIP3      15289           0.0000000000
     95699     15689  TIP3      H2            -12.2532716634       45.4260709046      -34.6321135055  TIP3      15289           0.0000000000
     95700     15690  TIP3      OH2            -0.7084030233       42.6733383517      -28.7198361202  TIP3      15290           0.0000000000
     95701     15690  TIP3      H1             -1.3781125769       43.3822941627      -28.8073820603  TIP3      15290           0.0000000000
     95702     15690  TIP3      H2             -0.6912234495       42.5209721931      -27.7658640912  TIP3      15290           0.0000000000
     95703     15691  TIP3      OH2           -14.6160367052       41.0283947268      -30.1299577042  TIP3      15291           0.0000000000
     95704     15691  TIP3      H1            -14.8745106390       41.5810343820      -30.8942372769  TIP3      15291           0.0000000000
     95705     15691  TIP3      H2            -15.3100719313       41.2667992520      -29.4690097033  TIP3      15291           0.0000000000
     95706     15692  TIP3      OH2            -7.2809184199       50.5206049655      -36.5886760511  TIP3      15292           0.0000000000
     95707     15692  TIP3      H1             -7.5796264345       50.2168203724      -37.4553158109  TIP3      15292           0.0000000000
     95708     15692  TIP3      H2             -7.6102879450       51.4442292724      -36.5496060913  TIP3      15292           0.0000000000
     95709     15693  TIP3      OH2           -12.0738955250       48.6825126566      -29.8695423928  TIP3      15293           0.0000000000
     95710     15693  TIP3      H1            -12.8062319598       49.3190885016      -29.7189190696  TIP3      15293           0.0000000000
     95711     15693  TIP3      H2            -11.3688035820       49.2731776597      -30.1731513710  TIP3      15293           0.0000000000
     95712     15694  TIP3      OH2            -3.9744463752       41.5498517169      -33.8279899190  TIP3      15294           0.0000000000
     95713     15694  TIP3      H1             -4.1795583670       40.7788500048      -33.2885099488  TIP3      15294           0.0000000000
     95714     15694  TIP3      H2             -3.3018439244       42.0029998316      -33.2917300650  TIP3      15294           0.0000000000
     95715     15695  TIP3      OH2           -15.0610419287       42.9107297964      -32.1583350146  TIP3      15295           0.0000000000
     95716     15695  TIP3      H1            -14.4173588143       43.5683371715      -31.8046514245  TIP3      15295           0.0000000000
     95717     15695  TIP3      H2            -14.5180886671       42.4566128883      -32.8427265848  TIP3      15295           0.0000000000
     95718     15696  TIP3      OH2           -13.6452317854       50.6605802289      -29.0743196531  TIP3      15296           0.0000000000
     95719     15696  TIP3      H1            -13.6794478061       51.5678903181      -29.4326789404  TIP3      15296           0.0000000000
     95720     15696  TIP3      H2            -14.5307843836       50.5959411095      -28.6328247646  TIP3      15296           0.0000000000
     95721     15697  TIP3      OH2           -17.5582269751       50.3139453585      -38.2811441708  TIP3      15297           0.0000000000
     95722     15697  TIP3      H1            -17.8068190458       50.5991724450      -39.1789486862  TIP3      15297           0.0000000000
     95723     15697  TIP3      H2            -17.4978591400       51.1698075795      -37.8012651254  TIP3      15297           0.0000000000
     95724     15698  TIP3      OH2            -3.9181826796       51.9576616551      -31.5614177740  TIP3      15298           0.0000000000
     95725     15698  TIP3      H1             -4.8851166976       52.0451085506      -31.4105522151  TIP3      15298           0.0000000000
     95726     15698  TIP3      H2             -3.6647080201       52.8872628071      -31.7139175055  TIP3      15298           0.0000000000
     95727     15699  TIP3      OH2            -3.6209046440       40.2486304408      -30.1425719075  TIP3      15299           0.0000000000
     95728     15699  TIP3      H1             -4.3558705433       40.8717583451      -30.2043185318  TIP3      15299           0.0000000000
     95729     15699  TIP3      H2             -2.9247583690       40.6706262010      -30.6766032396  TIP3      15299           0.0000000000
     95730     15700  TIP3      OH2           -10.6259270296       38.3541404901      -32.6867801104  TIP3      15300           0.0000000000
     95731     15700  TIP3      H1            -10.7569836729       37.3886491982      -32.7434962428  TIP3      15300           0.0000000000
     95732     15700  TIP3      H2            -11.5025563172       38.6706173346      -32.3942482971  TIP3      15300           0.0000000000
     95733     15701  TIP3      OH2            -5.6933149423       53.7271771486      -34.9342496105  TIP3      15301           0.0000000000
     95734     15701  TIP3      H1             -5.2487929014       53.0219200348      -35.4394052033  TIP3      15301           0.0000000000
     95735     15701  TIP3      H2             -5.3213119018       54.5379503218      -35.3494321683  TIP3      15301           0.0000000000
     95736     15702  TIP3      OH2            -4.4791100497       51.6628784360      -36.4333403253  TIP3      15302           0.0000000000
     95737     15702  TIP3      H1             -4.7766977667       50.9623864686      -37.0445242669  TIP3      15302           0.0000000000
     95738     15702  TIP3      H2             -4.4525099641       51.1797040636      -35.5860887322  TIP3      15302           0.0000000000
     95739     15703  TIP3      OH2            -2.8364508403       50.2348790372      -27.9372187918  TIP3      15303           0.0000000000
     95740     15703  TIP3      H1             -2.6936859629       49.6150656579      -28.6851696970  TIP3      15303           0.0000000000
     95741     15703  TIP3      H2             -2.6567725996       51.0992099273      -28.3364224425  TIP3      15303           0.0000000000
     95742     15704  TIP3      OH2            -8.3586477607       47.1683552475      -38.1670826508  TIP3      15304           0.0000000000
     95743     15704  TIP3      H1             -9.0647022707       47.7225867716      -38.5488521725  TIP3      15304           0.0000000000
     95744     15704  TIP3      H2             -7.6586146912       47.2414885756      -38.8458195544  TIP3      15304           0.0000000000
     95745     15705  TIP3      OH2            -8.3116020244       45.6569885555      -41.1241718577  TIP3      15305           0.0000000000
     95746     15705  TIP3      H1             -7.5874903886       45.6669531992      -40.4806546873  TIP3      15305           0.0000000000
     95747     15705  TIP3      H2             -7.9905648587       45.0196286420      -41.7728135545  TIP3      15305           0.0000000000
     95748     15706  TIP3      OH2            -0.9741946140       46.5551575606      -29.8803808330  TIP3      15306           0.0000000000
     95749     15706  TIP3      H1             -1.6380184913       47.2709198583      -29.8190078316  TIP3      15306           0.0000000000
     95750     15706  TIP3      H2             -0.5044681395       46.7861061365      -30.7017856909  TIP3      15306           0.0000000000
     95751     15707  TIP3      OH2            -4.9327347002       47.3848958970      -37.2426618713  TIP3      15307           0.0000000000
     95752     15707  TIP3      H1             -5.6784766559       47.6151104972      -36.6404108791  TIP3      15307           0.0000000000
     95753     15707  TIP3      H2             -4.4769905181       46.6779801130      -36.7513588380  TIP3      15307           0.0000000000
     95754     15708  TIP3      OH2            -5.0113893848       45.5366142639      -28.1430960778  TIP3      15308           0.0000000000
     95755     15708  TIP3      H1             -4.9760453249       46.3384180601      -27.5930411315  TIP3      15308           0.0000000000
     95756     15708  TIP3      H2             -5.6400035974       45.8407821817      -28.8361865697  TIP3      15308           0.0000000000
     95757     15709  TIP3      OH2           -13.2994210124       48.0373355914      -35.3367756436  TIP3      15309           0.0000000000
     95758     15709  TIP3      H1            -13.6292545278       47.6385713022      -36.1765752733  TIP3      15309           0.0000000000
     95759     15709  TIP3      H2            -12.6971738603       47.3347307219      -34.9982828390  TIP3      15309           0.0000000000
     95760     15710  TIP3      OH2           -11.9579259497       51.4493410451      -32.6597519552  TIP3      15310           0.0000000000
     95761     15710  TIP3      H1            -12.0111716005       50.8717405465      -33.4331221969  TIP3      15310           0.0000000000
     95762     15710  TIP3      H2            -11.1956250781       51.0705742501      -32.1848831849  TIP3      15310           0.0000000000
     95763     15711  TIP3      OH2           -12.9542875538       46.7753440667      -31.6973665043  TIP3      15311           0.0000000000
     95764     15711  TIP3      H1            -12.3792888662       46.9015561168      -32.4753749317  TIP3      15311           0.0000000000
     95765     15711  TIP3      H2            -12.6022765668       47.4340209556      -31.0662607448  TIP3      15311           0.0000000000
     95766     15712  TIP3      OH2            -6.5965461254       52.3195672024      -30.9798592471  TIP3      15312           0.0000000000
     95767     15712  TIP3      H1             -6.8640753687       52.9680698170      -30.3273145157  TIP3      15312           0.0000000000
     95768     15712  TIP3      H2             -6.8269018577       51.4614799508      -30.5440412686  TIP3      15312           0.0000000000
     95769     15713  TIP3      OH2           -12.0338912270       51.1909485968      -26.9716574639  TIP3      15313           0.0000000000
     95770     15713  TIP3      H1            -12.3977691268       51.9805506523      -26.5222248327  TIP3      15313           0.0000000000
     95771     15713  TIP3      H2            -12.7047845913       51.0226050342      -27.6804928561  TIP3      15313           0.0000000000
     95772     15714  TIP3      OH2            -6.0694692918       46.5435111837      -39.5612753068  TIP3      15314           0.0000000000
     95773     15714  TIP3      H1             -5.4902906533       46.7192400385      -38.7802988899  TIP3      15314           0.0000000000
     95774     15714  TIP3      H2             -5.6487696243       47.0505276848      -40.2770636194  TIP3      15314           0.0000000000
     95775     15715  TIP3      OH2           -15.1035757122       47.3672286253      -27.7904009469  TIP3      15315           0.0000000000
     95776     15715  TIP3      H1            -15.0620831356       48.0341872696      -27.0728419283  TIP3      15315           0.0000000000
     95777     15715  TIP3      H2            -16.0262332450       47.4765059104      -28.0716275081  TIP3      15315           0.0000000000
     95778     15716  TIP3      OH2            -8.3483043618       53.2782339266      -36.0926590950  TIP3      15316           0.0000000000
     95779     15716  TIP3      H1             -7.8700423815       53.5955985319      -35.3194030822  TIP3      15316           0.0000000000
     95780     15716  TIP3      H2             -8.9003827879       54.0295080747      -36.3427855022  TIP3      15316           0.0000000000
     95781     15717  TIP3      OH2           -13.7897180791       53.2463139642      -26.2323524997  TIP3      15317           0.0000000000
     95782     15717  TIP3      H1            -13.8250177116       53.1171217414      -27.1924987347  TIP3      15317           0.0000000000
     95783     15717  TIP3      H2            -14.7315728323       53.1404817307      -25.9797718686  TIP3      15317           0.0000000000
     95784     15718  TIP3      OH2            -2.3475409595       38.2927678066      -39.7130141475  TIP3      15318           0.0000000000
     95785     15718  TIP3      H1             -3.2860269709       38.4306572747      -39.4341014027  TIP3      15318           0.0000000000
     95786     15718  TIP3      H2             -2.1176597818       39.1429479604      -40.1217765036  TIP3      15318           0.0000000000
     95787     15719  TIP3      OH2           -14.3101735802       47.0599801652      -37.7371804237  TIP3      15319           0.0000000000
     95788     15719  TIP3      H1            -14.6056029825       47.8456825605      -38.2490116429  TIP3      15319           0.0000000000
     95789     15719  TIP3      H2            -14.9941838979       46.4230208646      -37.9352851426  TIP3      15319           0.0000000000
     95790     15720  TIP3      OH2            -1.2103403721       52.6441510776      -41.3370516633  TIP3      15320           0.0000000000
     95791     15720  TIP3      H1             -1.1019098729       53.6047279806      -41.1851164963  TIP3      15320           0.0000000000
     95792     15720  TIP3      H2             -0.2785824792       52.3555008457      -41.4020075973  TIP3      15320           0.0000000000
     95793     15721  TIP3      OH2           -18.2247026809       49.4712329369      -28.8920177411  TIP3      15321           0.0000000000
     95794     15721  TIP3      H1            -18.7088332885       49.4043731269      -29.7338789474  TIP3      15321           0.0000000000
     95795     15721  TIP3      H2            -18.1979100049       48.5332884072      -28.6261373292  TIP3      15321           0.0000000000
     95796     15722  TIP3      OH2           -18.4780564163       52.2089365557      -32.0440203592  TIP3      15322           0.0000000000
     95797     15722  TIP3      H1            -17.5223735240       52.0892786594      -32.0701763781  TIP3      15322           0.0000000000
     95798     15722  TIP3      H2            -18.5702491457       53.0189778230      -31.5236826721  TIP3      15322           0.0000000000
     95799     15723  TIP3      OH2            -0.2497030915       52.8965862879      -26.3790986751  TIP3      15323           0.0000000000
     95800     15723  TIP3      H1             -0.3433685032       51.9369237428      -26.3977704313  TIP3      15323           0.0000000000
     95801     15723  TIP3      H2             -1.1047100535       53.1600925439      -25.9649922622  TIP3      15323           0.0000000000
     95802     15724  TIP3      OH2            -9.2826972952       52.4604459551      -27.5044812448  TIP3      15324           0.0000000000
     95803     15724  TIP3      H1             -9.2107244304       53.3053333751      -27.0003883142  TIP3      15324           0.0000000000
     95804     15724  TIP3      H2            -10.1626795829       52.1327647588      -27.2478506630  TIP3      15324           0.0000000000
     95805     15725  TIP3      OH2            -8.8823775305      -56.6389986942      -37.6942304266  TIP3      15325           0.0000000000
     95806     15725  TIP3      H1             -8.9373355378      -56.7150130340      -38.6634130425  TIP3      15325           0.0000000000
     95807     15725  TIP3      H2             -8.8375091285      -55.6651466935      -37.5529948217  TIP3      15325           0.0000000000
     95808     15726  TIP3      OH2           -15.1974739493       55.0289737299      -35.9073914440  TIP3      15326           0.0000000000
     95809     15726  TIP3      H1            -15.0714793210       54.6658142548      -35.0059687494  TIP3      15326           0.0000000000
     95810     15726  TIP3      H2            -16.0664460280       54.6586606770      -36.1360685988  TIP3      15326           0.0000000000
     95811     15727  TIP3      OH2            -5.7978992131       55.4034610617      -40.7074843758  TIP3      15327           0.0000000000
     95812     15727  TIP3      H1             -5.3780456294       54.6374687652      -41.1536466569  TIP3      15327           0.0000000000
     95813     15727  TIP3      H2             -5.7559091163       55.1221819100      -39.7736908770  TIP3      15327           0.0000000000
     95814     15728  TIP3      OH2            -6.1208670245       55.2841082624      -37.9547868852  TIP3      15328           0.0000000000
     95815     15728  TIP3      H1             -7.0604172448       55.4203563215      -37.7421564133  TIP3      15328           0.0000000000
     95816     15728  TIP3      H2             -5.8338782720       54.5906048060      -37.3494729454  TIP3      15328           0.0000000000
     95817     15729  TIP3      OH2            -3.0912156227       44.3927381299      -25.9028257665  TIP3      15329           0.0000000000
     95818     15729  TIP3      H1             -3.5462919540       44.8596089684      -26.6155164041  TIP3      15329           0.0000000000
     95819     15729  TIP3      H2             -3.0888567823       43.4719009928      -26.2013112907  TIP3      15329           0.0000000000
     95820     15730  TIP3      OH2           -15.9636113746       50.7938206308      -27.8966104348  TIP3      15330           0.0000000000
     95821     15730  TIP3      H1            -15.7444703670       50.4171147605      -27.0199755508  TIP3      15330           0.0000000000
     95822     15730  TIP3      H2            -16.8298394020       50.3936414433      -28.1080429538  TIP3      15330           0.0000000000
     95823     15731  TIP3      OH2           -13.3078273424       39.2444866842      -31.9105476565  TIP3      15331           0.0000000000
     95824     15731  TIP3      H1            -14.2074214531       39.1517333651      -32.2999175507  TIP3      15331           0.0000000000
     95825     15731  TIP3      H2            -13.3907682088       40.1019775652      -31.4671027371  TIP3      15331           0.0000000000
     95826     15732  TIP3      OH2            -8.6589503010       38.9585554960      -28.5478169432  TIP3      15332           0.0000000000
     95827     15732  TIP3      H1             -8.2576621995       38.5320257525      -27.7687014135  TIP3      15332           0.0000000000
     95828     15732  TIP3      H2             -9.6255572388       38.7955552755      -28.4122518305  TIP3      15332           0.0000000000
     95829     15733  TIP3      OH2            -5.3506056038       42.7416204089      -27.6871855261  TIP3      15333           0.0000000000
     95830     15733  TIP3      H1             -5.8882909178       42.5757703746      -26.8733387870  TIP3      15333           0.0000000000
     95831     15733  TIP3      H2             -5.5201253830       43.6660686688      -27.9152523409  TIP3      15333           0.0000000000
     95832     15734  TIP3      OH2            -4.5375266135       47.6336795375      -41.8301887517  TIP3      15334           0.0000000000
     95833     15734  TIP3      H1             -4.5282467205       47.4050204938      -42.7855221580  TIP3      15334           0.0000000000
     95834     15734  TIP3      H2             -3.6794052850       48.0307701122      -41.6961372420  TIP3      15334           0.0000000000
     95835     15735  TIP3      OH2            -9.0039938228       41.4844706623      -41.2470697787  TIP3      15335           0.0000000000
     95836     15735  TIP3      H1             -9.2840167808       41.4648453835      -40.3140641110  TIP3      15335           0.0000000000
     95837     15735  TIP3      H2             -9.2792746563       40.6023234128      -41.5268711773  TIP3      15335           0.0000000000
     95838     15736  TIP3      OH2           -13.2169936392       44.2104654638      -30.7561085765  TIP3      15336           0.0000000000
     95839     15736  TIP3      H1            -13.9137093111       44.1897470661      -30.0738392012  TIP3      15336           0.0000000000
     95840     15736  TIP3      H2            -13.2244846239       45.1481211269      -31.0509428514  TIP3      15336           0.0000000000
     95841     15737  TIP3      OH2           -13.2393446381       44.3908614586      -35.8568800947  TIP3      15337           0.0000000000
     95842     15737  TIP3      H1            -14.1670326805       44.1082195949      -35.9513692352  TIP3      15337           0.0000000000
     95843     15737  TIP3      H2            -12.8118631866       44.0720750023      -36.6662267239  TIP3      15337           0.0000000000
     95844     15738  TIP3      OH2            -7.7127774571       44.8422791462      -37.0652493603  TIP3      15338           0.0000000000
     95845     15738  TIP3      H1             -8.1244518644       45.6766768663      -37.3803717131  TIP3      15338           0.0000000000
     95846     15738  TIP3      H2             -7.0019670626       44.7053935792      -37.7156968656  TIP3      15338           0.0000000000
     95847     15739  TIP3      OH2            -8.6230169708       45.0618760234      -25.5829007576  TIP3      15339           0.0000000000
     95848     15739  TIP3      H1             -9.1862274327       44.2988523411      -25.2900514976  TIP3      15339           0.0000000000
     95849     15739  TIP3      H2             -7.7974644713       44.9017137292      -25.1302300244  TIP3      15339           0.0000000000
     95850     15740  TIP3      OH2            -6.6963985295       44.3187964909      -34.2264786544  TIP3      15340           0.0000000000
     95851     15740  TIP3      H1             -6.9273246116       44.8987899856      -34.9721015120  TIP3      15340           0.0000000000
     95852     15740  TIP3      H2             -6.5499247399       43.4717232284      -34.6958271693  TIP3      15340           0.0000000000
     95853     15741  TIP3      OH2           -15.5251860328       44.5194966687      -28.9663820930  TIP3      15341           0.0000000000
     95854     15741  TIP3      H1            -15.5219942344       44.9187814827      -28.0784887854  TIP3      15341           0.0000000000
     95855     15741  TIP3      H2            -16.0015826407       43.6884673058      -28.8222588808  TIP3      15341           0.0000000000
     95856     15742  TIP3      OH2           -12.0350092699       42.0883171418      -41.8870688613  TIP3      15342           0.0000000000
     95857     15742  TIP3      H1            -12.5636543737       41.4577739113      -41.3760487899  TIP3      15342           0.0000000000
     95858     15742  TIP3      H2            -12.7025381881       42.3599769952      -42.5393531415  TIP3      15342           0.0000000000
     95859     15743  TIP3      OH2           -18.8994557801       41.6410585369      -35.0668491132  TIP3      15343           0.0000000000
     95860     15743  TIP3      H1            -18.2497629343       41.5952943383      -34.3387791660  TIP3      15343           0.0000000000
     95861     15743  TIP3      H2            -18.4518782982       41.2121713197      -35.8127787806  TIP3      15343           0.0000000000
     95862     15744  TIP3      OH2           -17.5874883889       42.3578476411      -39.6306303798  TIP3      15344           0.0000000000
     95863     15744  TIP3      H1            -17.1491854597       42.9698358046      -40.2630554560  TIP3      15344           0.0000000000
     95864     15744  TIP3      H2            -18.3305988317       42.9396168826      -39.3329623716  TIP3      15344           0.0000000000
     95865     15745  TIP3      OH2            -7.4593114951       45.9419386469      -29.6137875258  TIP3      15345           0.0000000000
     95866     15745  TIP3      H1             -7.1132734729       45.2749036445      -30.2358434253  TIP3      15345           0.0000000000
     95867     15745  TIP3      H2             -7.9083587934       45.3959823359      -28.9446866156  TIP3      15345           0.0000000000
     95868     15746  TIP3      OH2           -10.6787347153       41.8738916629      -34.8232889058  TIP3      15346           0.0000000000
     95869     15746  TIP3      H1            -11.6024444240       41.9165442591      -34.4971883196  TIP3      15346           0.0000000000
     95870     15746  TIP3      H2            -10.1726928586       41.7797409698      -33.9945135032  TIP3      15346           0.0000000000
     95871     15747  TIP3      OH2           -15.8361969848       43.4770719137      -35.9866217575  TIP3      15347           0.0000000000
     95872     15747  TIP3      H1            -16.7533691102       43.6072314608      -36.3186079484  TIP3      15347           0.0000000000
     95873     15747  TIP3      H2            -15.5862501092       42.6294645147      -36.3184550753  TIP3      15347           0.0000000000
     95874     15748  TIP3      OH2           -12.2256566098       43.4727187084      -38.3194156688  TIP3      15348           0.0000000000
     95875     15748  TIP3      H1            -11.2619564368       43.6192359045      -38.1411105099  TIP3      15348           0.0000000000
     95876     15748  TIP3      H2            -12.4220544634       44.1712246591      -38.9819265008  TIP3      15348           0.0000000000
     95877     15749  TIP3      OH2            -6.2597306922       41.1147831547      -31.5565242802  TIP3      15349           0.0000000000
     95878     15749  TIP3      H1             -6.9535178031       41.2137007990      -30.8696051826  TIP3      15349           0.0000000000
     95879     15749  TIP3      H2             -6.7653445147       40.9202254468      -32.3572079820  TIP3      15349           0.0000000000
     95880     15750  TIP3      OH2           -13.5181289725       44.6460667526      -40.7163587536  TIP3      15350           0.0000000000
     95881     15750  TIP3      H1            -14.0687424368       44.3195176741      -41.4528681799  TIP3      15350           0.0000000000
     95882     15750  TIP3      H2            -12.6952059683       44.8838994959      -41.1868437160  TIP3      15350           0.0000000000
     95883     15751  TIP3      OH2           -15.3765334084       49.2439175735      -25.6791054607  TIP3      15351           0.0000000000
     95884     15751  TIP3      H1            -14.6627981264       49.4976728979      -25.0753067221  TIP3      15351           0.0000000000
     95885     15751  TIP3      H2            -16.1695969621       49.4156442457      -25.1092988280  TIP3      15351           0.0000000000
     95886     15752  TIP3      OH2            -9.3732807792       44.6557630039      -32.9199132537  TIP3      15352           0.0000000000
     95887     15752  TIP3      H1             -8.7895730059       44.1090758050      -33.4619515113  TIP3      15352           0.0000000000
     95888     15752  TIP3      H2             -9.5128812082       44.1179149516      -32.1299871545  TIP3      15352           0.0000000000
     95889     15753  TIP3      OH2           -14.3398027857       40.5490859791      -35.9491088841  TIP3      15353           0.0000000000
     95890     15753  TIP3      H1            -14.7699605623       39.7906923969      -36.3768631007  TIP3      15353           0.0000000000
     95891     15753  TIP3      H2            -13.6417090687       40.6679289114      -36.5613842680  TIP3      15353           0.0000000000
     95892     15754  TIP3      OH2           -10.7343203760       43.0082937782      -30.5110559953  TIP3      15354           0.0000000000
     95893     15754  TIP3      H1            -11.5712264059       43.5001994571      -30.4010363677  TIP3      15354           0.0000000000
     95894     15754  TIP3      H2            -10.1971808732       43.3271278074      -29.7583222330  TIP3      15354           0.0000000000
     95895     15755  TIP3      OH2           -10.1591546088       49.2355948772      -38.8130993400  TIP3      15355           0.0000000000
     95896     15755  TIP3      H1            -10.9437822187       48.7380795985      -39.1366313035  TIP3      15355           0.0000000000
     95897     15755  TIP3      H2            -10.3449062577       49.3025623905      -37.8562546647  TIP3      15355           0.0000000000
     95898     15756  TIP3      OH2            -3.0074046131       48.3875395699      -30.0120268057  TIP3      15356           0.0000000000
     95899     15756  TIP3      H1             -2.4032916009       48.8613109482      -30.6069187260  TIP3      15356           0.0000000000
     95900     15756  TIP3      H2             -3.8562278363       48.4863218309      -30.4937603728  TIP3      15356           0.0000000000
     95901     15757  TIP3      OH2            -6.2859761895       42.0273938375      -40.6231458696  TIP3      15357           0.0000000000
     95902     15757  TIP3      H1             -7.2346309131       42.1723785856      -40.7797668248  TIP3      15357           0.0000000000
     95903     15757  TIP3      H2             -5.9937745082       42.9066548616      -40.3108295503  TIP3      15357           0.0000000000
     95904     15758  TIP3      OH2            -8.6645517889       49.4480195035      -27.5819406654  TIP3      15358           0.0000000000
     95905     15758  TIP3      H1             -9.0150171264       49.0557102069      -26.7776168170  TIP3      15358           0.0000000000
     95906     15758  TIP3      H2             -8.8843058616       50.3788157616      -27.4947371200  TIP3      15358           0.0000000000
     95907     15759  TIP3      OH2            -5.5801948324       43.9356219214      -38.9569173083  TIP3      15359           0.0000000000
     95908     15759  TIP3      H1             -4.6733581935       43.7982254114      -38.6228300960  TIP3      15359           0.0000000000
     95909     15759  TIP3      H2             -5.5081086714       44.7370891002      -39.4951995977  TIP3      15359           0.0000000000
     95910     15760  TIP3      OH2           -15.0597383502       48.5739144950      -33.0285809020  TIP3      15360           0.0000000000
     95911     15760  TIP3      H1            -14.3299683566       48.5309864571      -33.6749888301  TIP3      15360           0.0000000000
     95912     15760  TIP3      H2            -14.9825436862       47.7223666449      -32.5634082601  TIP3      15360           0.0000000000
     95913     15761  TIP3      OH2            -8.0450517287       50.6959771599      -39.7824397496  TIP3      15361           0.0000000000
     95914     15761  TIP3      H1             -8.3798348662       51.5326491214      -39.4079252266  TIP3      15361           0.0000000000
     95915     15761  TIP3      H2             -8.7831048065       50.0773302383      -39.5867509149  TIP3      15361           0.0000000000
     95916     15762  TIP3      OH2           -18.0494151125       47.0147093016      -27.7494408283  TIP3      15362           0.0000000000
     95917     15762  TIP3      H1            -17.8388695893       46.5793466980      -26.8981300830  TIP3      15362           0.0000000000
     95918     15762  TIP3      H2            -18.6665588615       46.3890750804      -28.1684559823  TIP3      15362           0.0000000000
     95919     15763  TIP3      OH2           -11.0320109049       46.5455610244      -25.5261246462  TIP3      15363           0.0000000000
     95920     15763  TIP3      H1            -11.3431488491       46.3217294401      -26.4207801851  TIP3      15363           0.0000000000
     95921     15763  TIP3      H2            -10.0994231548       46.2763766489      -25.5637112898  TIP3      15363           0.0000000000
     95922     15764  TIP3      OH2            -6.3863274317       51.9100308547      -27.6378108665  TIP3      15364           0.0000000000
     95923     15764  TIP3      H1             -7.3130113928       52.0820534649      -27.8722874499  TIP3      15364           0.0000000000
     95924     15764  TIP3      H2             -6.3993995848       52.1621324423      -26.6958892325  TIP3      15364           0.0000000000
     95925     15765  TIP3      OH2            -0.6810926048       44.1037182840      -39.2281670247  TIP3      15365           0.0000000000
     95926     15765  TIP3      H1             -1.2455561661       43.7632026544      -39.9480649458  TIP3      15365           0.0000000000
     95927     15765  TIP3      H2             -0.5990339881       45.0387872857      -39.5303979908  TIP3      15365           0.0000000000
     95928     15766  TIP3      OH2            -0.7033888977       49.9371084934      -26.4004596753  TIP3      15366           0.0000000000
     95929     15766  TIP3      H1             -1.5859315375       50.1691896741      -26.7840482848  TIP3      15366           0.0000000000
     95930     15766  TIP3      H2             -0.1383726844       49.9165361641      -27.1972919634  TIP3      15366           0.0000000000
     95931     15767  TIP3      OH2            -2.3809783956       52.9234418321      -38.8049360869  TIP3      15367           0.0000000000
     95932     15767  TIP3      H1             -2.7778007293       52.0922576954      -38.5048981083  TIP3      15367           0.0000000000
     95933     15767  TIP3      H2             -2.1113484365       52.7353947344      -39.7238505198  TIP3      15367           0.0000000000
     95934     15768  TIP3      OH2            -5.2103344836       47.7401285647      -31.7520083317  TIP3      15368           0.0000000000
     95935     15768  TIP3      H1             -6.1532129762       47.5048918047      -31.8195838582  TIP3      15368           0.0000000000
     95936     15768  TIP3      H2             -4.7745860273       46.9555228220      -32.1304124127  TIP3      15368           0.0000000000
     95937     15769  TIP3      OH2           -12.6818689835       52.0541438300      -35.6305703392  TIP3      15369           0.0000000000
     95938     15769  TIP3      H1            -12.1663465198       52.8507012323      -35.8424472028  TIP3      15369           0.0000000000
     95939     15769  TIP3      H2            -13.5617434493       52.2909642757      -35.9526317385  TIP3      15369           0.0000000000
     95940     15770  TIP3      OH2           -16.9373273868       46.9151101963      -41.0755369456  TIP3      15370           0.0000000000
     95941     15770  TIP3      H1            -16.3128389982       47.5484360153      -40.6773439641  TIP3      15370           0.0000000000
     95942     15770  TIP3      H2            -17.8043114023       47.2279059965      -40.7761969418  TIP3      15370           0.0000000000
     95943     15771  TIP3      OH2           -11.2453823188       49.7189830043      -36.0854676143  TIP3      15371           0.0000000000
     95944     15771  TIP3      H1            -11.5291732163       50.6509223586      -36.0194240442  TIP3      15371           0.0000000000
     95945     15771  TIP3      H2            -11.9983441463       49.2553146675      -35.6671063937  TIP3      15371           0.0000000000
     95946     15772  TIP3      OH2           -10.7850554772       53.8900153016      -29.7343815669  TIP3      15372           0.0000000000
     95947     15772  TIP3      H1            -10.3691361454       54.7279088334      -29.9839755660  TIP3      15372           0.0000000000
     95948     15772  TIP3      H2            -10.1990323630       53.5742966903      -29.0219600672  TIP3      15372           0.0000000000
     95949     15773  TIP3      OH2           -12.5659976764       54.7222676283      -36.5414596315  TIP3      15373           0.0000000000
     95950     15773  TIP3      H1            -13.5295814127       54.8627813040      -36.4538869202  TIP3      15373           0.0000000000
     95951     15773  TIP3      H2            -12.2184902057       55.5693626274      -36.1909987135  TIP3      15373           0.0000000000
     95952     15774  TIP3      OH2            -7.2301993378       49.9506656720      -30.0664989201  TIP3      15374           0.0000000000
     95953     15774  TIP3      H1             -7.6225218290       49.7352430071      -29.1996368215  TIP3      15374           0.0000000000
     95954     15774  TIP3      H2             -6.6228221394       49.2165775021      -30.2402879763  TIP3      15374           0.0000000000
     95955     15775  TIP3      OH2            -4.9922111878       50.9230815442      -40.9809532258  TIP3      15375           0.0000000000
     95956     15775  TIP3      H1             -4.6639840307       50.5083409983      -40.1571971325  TIP3      15375           0.0000000000
     95957     15775  TIP3      H2             -5.9495464605       50.7985694617      -40.8850578739  TIP3      15375           0.0000000000
     95958     15776  TIP3      OH2            -4.5132720271       54.5304045340      -27.5708190039  TIP3      15376           0.0000000000
     95959     15776  TIP3      H1             -5.1469777475       53.9741516698      -28.0798196351  TIP3      15376           0.0000000000
     95960     15776  TIP3      H2             -4.2685804332       55.1900102222      -28.2324873700  TIP3      15376           0.0000000000
     95961     15777  TIP3      OH2            -0.4801041468       55.3461961835      -40.7694100611  TIP3      15377           0.0000000000
     95962     15777  TIP3      H1              0.2494704642       55.9671441680      -40.9461905772  TIP3      15377           0.0000000000
     95963     15777  TIP3      H2             -1.1969226965       55.9416155783      -40.4424597737  TIP3      15377           0.0000000000
     95964     15778  TIP3      OH2           -16.4061754323       41.7553873875      -28.1899458779  TIP3      15378           0.0000000000
     95965     15778  TIP3      H1            -17.3158655988       42.0962987790      -28.2355248487  TIP3      15378           0.0000000000
     95966     15778  TIP3      H2            -16.5211312080       40.8993006149      -27.7486171912  TIP3      15378           0.0000000000
     95967     15779  TIP3      OH2            -4.1500540840       49.5935465193      -38.7617109236  TIP3      15379           0.0000000000
     95968     15779  TIP3      H1             -4.4051533969       48.8263726968      -38.2051066008  TIP3      15379           0.0000000000
     95969     15779  TIP3      H2             -3.2079225282       49.6782645446      -38.5430456441  TIP3      15379           0.0000000000
     95970     15780  TIP3      OH2           -16.7555406312       53.5490646865      -29.7678803392  TIP3      15380           0.0000000000
     95971     15780  TIP3      H1            -16.5291594645       52.6130348110      -29.7612081726  TIP3      15380           0.0000000000
     95972     15780  TIP3      H2            -16.5351055005       53.8326566526      -28.8638243064  TIP3      15380           0.0000000000
     95973     15781  TIP3      OH2           -11.9970198855       51.5944609833      -40.0757989573  TIP3      15381           0.0000000000
     95974     15781  TIP3      H1            -11.8079709648       51.0561948196      -39.2959184337  TIP3      15381           0.0000000000
     95975     15781  TIP3      H2            -11.9695456741       52.5097443046      -39.7472667705  TIP3      15381           0.0000000000
     95976     15782  TIP3      OH2           -15.5328549026       48.8339752389      -39.5852179852  TIP3      15382           0.0000000000
     95977     15782  TIP3      H1            -16.2092764299       49.2156573715      -38.9901023956  TIP3      15382           0.0000000000
     95978     15782  TIP3      H2            -14.9875545825       49.6051914276      -39.8165792566  TIP3      15382           0.0000000000
     95979     15783  TIP3      OH2            -7.6841665286       41.5126005212      -29.2793706497  TIP3      15383           0.0000000000
     95980     15783  TIP3      H1             -6.9771285245       41.5694194322      -28.6237383482  TIP3      15383           0.0000000000
     95981     15783  TIP3      H2             -8.0647621811       40.6304327592      -29.0962053413  TIP3      15383           0.0000000000
     95982     15784  TIP3      OH2            -6.9186328266       41.1242710496      -38.1656126021  TIP3      15384           0.0000000000
     95983     15784  TIP3      H1             -6.6781585888       41.6043542207      -38.9865811536  TIP3      15384           0.0000000000
     95984     15784  TIP3      H2             -6.3405502341       41.5418024909      -37.5187172195  TIP3      15384           0.0000000000
     95985     15785  TIP3      OH2            -9.2333007190       53.2594332713      -39.3328847615  TIP3      15385           0.0000000000
     95986     15785  TIP3      H1            -10.0492196282       53.7763035333      -39.2679163923  TIP3      15385           0.0000000000
     95987     15785  TIP3      H2             -8.6983616407       53.7811971587      -39.9559317293  TIP3      15385           0.0000000000
     95988     15786  TIP3      OH2            -9.7188254363       42.8634054464      -37.3492102218  TIP3      15386           0.0000000000
     95989     15786  TIP3      H1             -8.8969954454       43.4000295669      -37.3145631850  TIP3      15386           0.0000000000
     95990     15786  TIP3      H2             -9.9442506810       42.7302311037      -36.4162626571  TIP3      15386           0.0000000000
     95991     15787  TIP3      OH2            -9.1591662366       43.8605623934      -28.1703347424  TIP3      15387           0.0000000000
     95992     15787  TIP3      H1             -9.0610192261       44.4373509347      -27.3937399775  TIP3      15387           0.0000000000
     95993     15787  TIP3      H2             -8.4977400429       43.1692994277      -28.0497122813  TIP3      15387           0.0000000000
     95994     15788  TIP3      OH2            -8.8409139360       39.9245220102      -36.4366159620  TIP3      15388           0.0000000000
     95995     15788  TIP3      H1             -9.1545870204       40.5695068735      -35.7777939878  TIP3      15388           0.0000000000
     95996     15788  TIP3      H2             -8.1540226135       40.4649293570      -36.8989620353  TIP3      15388           0.0000000000
     95997     15789  TIP3      OH2           -11.9051987460       54.3312581507      -39.3552797792  TIP3      15389           0.0000000000
     95998     15789  TIP3      H1            -11.7306660850       55.1504819860      -39.8280831617  TIP3      15389           0.0000000000
     95999     15789  TIP3      H2            -12.1013731144       54.6292110859      -38.4390600333  TIP3      15389           0.0000000000
     96000     15790  TIP3      OH2           -13.1700162166       40.9969158768      -39.7228369369  TIP3      15390           0.0000000000
     96001     15790  TIP3      H1            -13.1981072650       41.9425682815      -39.4430769979  TIP3      15390           0.0000000000
     96002     15790  TIP3      H2            -12.2413097214       40.7580610009      -39.5056925992  TIP3      15390           0.0000000000
     96003     15791  TIP3      OH2            -2.9498478720       41.7514232380      -27.3117323232  TIP3      15391           0.0000000000
     96004     15791  TIP3      H1             -3.8891721894       42.0414814962      -27.4280886111  TIP3      15391           0.0000000000
     96005     15791  TIP3      H2             -2.6470068442       41.7528480149      -28.2313909801  TIP3      15391           0.0000000000
     96006     15792  TIP3      OH2            -4.3590123135       45.5301607297      -33.2602915209  TIP3      15392           0.0000000000
     96007     15792  TIP3      H1             -5.1715813720       45.0933752976      -33.5673433824  TIP3      15392           0.0000000000
     96008     15792  TIP3      H2             -3.8970592383       44.8271653854      -32.7510834147  TIP3      15392           0.0000000000
     96009     15793  TIP3      OH2           -14.9282975687       51.4479518760      -40.6765817705  TIP3      15393           0.0000000000
     96010     15793  TIP3      H1            -14.3123891209       52.1317100191      -40.3876534444  TIP3      15393           0.0000000000
     96011     15793  TIP3      H2            -14.4264198075       51.0017815756      -41.3843155927  TIP3      15393           0.0000000000
     96012     15794  TIP3      OH2           -16.5697188046       44.1099641051      -41.5108569674  TIP3      15394           0.0000000000
     96013     15794  TIP3      H1            -16.6186047071       45.0753597607      -41.3826638895  TIP3      15394           0.0000000000
     96014     15794  TIP3      H2            -17.4566681614       43.8973951352      -41.8418414462  TIP3      15394           0.0000000000
     96015     15795  TIP3      OH2            -3.2822431918       54.7275532653      -31.6120410339  TIP3      15395           0.0000000000
     96016     15795  TIP3      H1             -3.4179105512       55.4573857343      -32.2667915170  TIP3      15395           0.0000000000
     96017     15795  TIP3      H2             -2.3377119321       54.8619117353      -31.4155069698  TIP3      15395           0.0000000000
     96018     15796  TIP3      OH2           -15.7777361674       38.9077798894      -32.8527887079  TIP3      15396           0.0000000000
     96019     15796  TIP3      H1            -16.0092449198       38.9392267097      -33.8022417351  TIP3      15396           0.0000000000
     96020     15796  TIP3      H2            -16.2214976876       38.0823334693      -32.5720256088  TIP3      15396           0.0000000000
     96021     15797  TIP3      OH2           -16.8436960315       52.8265646184      -36.6964711293  TIP3      15397           0.0000000000
     96022     15797  TIP3      H1            -17.6886425505       53.3112572577      -36.6974449072  TIP3      15397           0.0000000000
     96023     15797  TIP3      H2            -16.3267678383       53.3280663207      -37.3399404251  TIP3      15397           0.0000000000
     96024     15798  TIP3      OH2           -17.1391309616       55.2270326343      -25.3228340318  TIP3      15398           0.0000000000
     96025     15798  TIP3      H1            -16.9658475876       55.1624940516      -24.4184233320  TIP3      15398           0.0000000000
     96026     15798  TIP3      H2            -17.9871476678       54.7209395580      -25.5325960459  TIP3      15398           0.0000000000
     96027     15799  TIP3      OH2           -12.9694397983       54.3650167484      -23.7413572322  TIP3      15399           0.0000000000
     96028     15799  TIP3      H1            -12.1836394650       53.9023022104      -23.4460916640  TIP3      15399           0.0000000000
     96029     15799  TIP3      H2            -12.9890321968       54.1267079497      -24.6931431783  TIP3      15399           0.0000000000
     96030     15800  TIP3      OH2            -8.5448862682       54.0212788008      -41.8992696035  TIP3      15400           0.0000000000
     96031     15800  TIP3      H1             -9.3387677574       53.4317597436      -41.9669004263  TIP3      15400           0.0000000000
     96032     15800  TIP3      H2             -8.0722146483       53.4604486867      -42.5211594445  TIP3      15400           0.0000000000
     96033     15801  TIP3      OH2            -6.4171700460       52.7712764189      -25.0355967994  TIP3      15401           0.0000000000
     96034     15801  TIP3      H1             -6.7455687626       51.8846496886      -24.7891790077  TIP3      15401           0.0000000000
     96035     15801  TIP3      H2             -5.6521452225       52.8905984465      -24.4407602183  TIP3      15401           0.0000000000
     96036     15802  TIP3      OH2            -4.2718525206       53.6888551158      -42.1714736833  TIP3      15402           0.0000000000
     96037     15802  TIP3      H1             -3.9857260608       52.8841750980      -41.6991521572  TIP3      15402           0.0000000000
     96038     15802  TIP3      H2             -3.5059212487       53.9025385348      -42.7158709088  TIP3      15402           0.0000000000
     96039     15803  TIP3      OH2           -17.6722211446       49.2575664606      -24.4231381380  TIP3      15403           0.0000000000
     96040     15803  TIP3      H1            -17.5222992114       48.3431683867      -24.7152678311  TIP3      15403           0.0000000000
     96041     15803  TIP3      H2            -18.4401846462       49.5406733585      -24.9360560479  TIP3      15403           0.0000000000
     96042     15804  TIP3      OH2           -13.2913223904       49.6484803354      -42.2638976487  TIP3      15404           0.0000000000
     96043     15804  TIP3      H1            -13.2400458880       48.8164081653      -41.7768295454  TIP3      15404           0.0000000000
     96044     15804  TIP3      H2            -12.6800254542       49.4554389350      -42.9992796110  TIP3      15404           0.0000000000
     96045     15805  TIP3      OH2           -10.9889542537       49.2374392241      -24.9865125680  TIP3      15405           0.0000000000
     96046     15805  TIP3      H1            -11.3337739877       49.5196571391      -25.8584681607  TIP3      15405           0.0000000000
     96047     15805  TIP3      H2            -10.8825418529       48.2659467803      -25.1061267471  TIP3      15405           0.0000000000
     96048     15806  TIP3      OH2            -5.2847660090       49.1181740464      -27.6206277947  TIP3      15406           0.0000000000
     96049     15806  TIP3      H1             -4.5170767683       49.7234449098      -27.7156980376  TIP3      15406           0.0000000000
     96050     15806  TIP3      H2             -6.0163250356       49.7465205937      -27.5658339367  TIP3      15406           0.0000000000
     96051     15807  TIP3      OH2           -16.8308110160       46.4656558044      -25.0201776134  TIP3      15407           0.0000000000
     96052     15807  TIP3      H1            -16.3992702629       45.6062075147      -25.1082814377  TIP3      15407           0.0000000000
     96053     15807  TIP3      H2            -17.0646287023       46.4713570245      -24.0767401192  TIP3      15407           0.0000000000
     96054     15808  TIP3      OH2           -12.1646767740       47.6130944490      -39.9809266143  TIP3      15408           0.0000000000
     96055     15808  TIP3      H1            -12.6384611484       47.0897044121      -39.3133263294  TIP3      15408           0.0000000000
     96056     15808  TIP3      H2            -11.8863475675       46.9112795926      -40.6167445381  TIP3      15408           0.0000000000
     96057     15809  TIP3      OH2           -12.8836726342       45.4438439735      -27.6394762540  TIP3      15409           0.0000000000
     96058     15809  TIP3      H1            -13.4951167289       46.1489754198      -27.3637819841  TIP3      15409           0.0000000000
     96059     15809  TIP3      H2            -12.5235457688       45.7948156059      -28.4716274236  TIP3      15409           0.0000000000
     96060     15810  TIP3      OH2           -11.0994432982       45.8288509939      -41.7346579633  TIP3      15410           0.0000000000
     96061     15810  TIP3      H1            -11.2489355369       45.6556617791      -42.6722963502  TIP3      15410           0.0000000000
     96062     15810  TIP3      H2            -10.1211163973       45.9254350844      -41.6669917640  TIP3      15410           0.0000000000
     96063     15811  TIP3      OH2            -7.8453402188       47.9791429057      -24.2959528445  TIP3      15411           0.0000000000
     96064     15811  TIP3      H1             -6.8860879780       48.0111548672      -24.4280225493  TIP3      15411           0.0000000000
     96065     15811  TIP3      H2             -8.0160551974       47.2150683161      -23.7673384434  TIP3      15411           0.0000000000
     96066     15812  TIP3      OH2            -1.8253661852       48.2389824064       42.7729626591  TIP3      15412           0.0000000000
     96067     15812  TIP3      H1             -1.9833781813       47.7664323550       41.9315303255  TIP3      15412           0.0000000000
     96068     15812  TIP3      H2             -1.6691656354       49.1486099645       42.4967462633  TIP3      15412           0.0000000000
     96069     15813  TIP3      OH2           -12.5134211019       42.8114916122      -26.5594568275  TIP3      15413           0.0000000000
     96070     15813  TIP3      H1            -12.3851689925       42.0874875043      -27.1907646430  TIP3      15413           0.0000000000
     96071     15813  TIP3      H2            -12.5385468575       43.6095654759      -27.1258490061  TIP3      15413           0.0000000000
     96072     15814  TIP3      OH2           -12.1062454077       41.1854109558      -29.0456279073  TIP3      15414           0.0000000000
     96073     15814  TIP3      H1            -11.5820869970       41.6476683402      -29.7391092878  TIP3      15414           0.0000000000
     96074     15814  TIP3      H2            -12.9876312285       41.0918000376      -29.4763881638  TIP3      15414           0.0000000000
     96075     15815  TIP3      OH2           -10.5457719127       46.6397552313      -28.8067858647  TIP3      15415           0.0000000000
     96076     15815  TIP3      H1             -9.7929024193       46.4850185677      -29.3896392255  TIP3      15415           0.0000000000
     96077     15815  TIP3      H2            -10.8933909862       47.4931781132      -29.1128234914  TIP3      15415           0.0000000000
     96078     15816  TIP3      OH2            -4.8385091994       47.2149025897      -25.6956971602  TIP3      15416           0.0000000000
     96079     15816  TIP3      H1             -5.0724720905       47.9500999401      -26.3048023134  TIP3      15416           0.0000000000
     96080     15816  TIP3      H2             -3.8689814525       47.1745411983      -25.8771817841  TIP3      15416           0.0000000000
     96081     15817  TIP3      OH2           -14.0484220910       44.0465699112      -24.6502774046  TIP3      15417           0.0000000000
     96082     15817  TIP3      H1            -14.8199365258       43.4774868380      -24.8466062732  TIP3      15417           0.0000000000
     96083     15817  TIP3      H2            -13.3813301495       43.6922551177      -25.2585508655  TIP3      15417           0.0000000000
     96084     15818  TIP3      OH2           -11.3080636147       38.6229004323      -28.6228384836  TIP3      15418           0.0000000000
     96085     15818  TIP3      H1            -11.4430792650       39.5937890791      -28.7408630840  TIP3      15418           0.0000000000
     96086     15818  TIP3      H2            -12.0640450488       38.2708503597      -29.1272320527  TIP3      15418           0.0000000000
     96087     15819  TIP3      OH2           -10.0353397697       42.9602970415      -25.0590022287  TIP3      15419           0.0000000000
     96088     15819  TIP3      H1            -10.3154680834       42.7284368730      -24.1564259840  TIP3      15419           0.0000000000
     96089     15819  TIP3      H2            -10.8416037390       42.7532855508      -25.5750148110  TIP3      15419           0.0000000000
     96090     15820  TIP3      OH2            -7.3272163543       42.1023159817      -25.9762875153  TIP3      15420           0.0000000000
     96091     15820  TIP3      H1             -8.2906690126       42.1236045970      -25.8472143669  TIP3      15420           0.0000000000
     96092     15820  TIP3      H2             -7.0316079095       41.4566962064      -25.3094264478  TIP3      15420           0.0000000000
     96093     15821  TIP3      OH2            -5.7217548171       40.7274353237      -24.0179064307  TIP3      15421           0.0000000000
     96094     15821  TIP3      H1             -5.7944376757       39.7536741735      -23.9919068536  TIP3      15421           0.0000000000
     96095     15821  TIP3      H2             -6.0080823086       40.9962969070      -23.1174194976  TIP3      15421           0.0000000000
     96096     15822  TIP3      OH2           -15.9124343513       41.9625102841      -24.9472522742  TIP3      15422           0.0000000000
     96097     15822  TIP3      H1            -15.6717479178       41.2313107458      -25.5378020682  TIP3      15422           0.0000000000
     96098     15822  TIP3      H2            -15.9958622447       41.5186862249      -24.0788946833  TIP3      15422           0.0000000000
     96099     15823  TIP3      OH2           -11.1009737338       37.9706073453      -25.9454240555  TIP3      15423           0.0000000000
     96100     15823  TIP3      H1            -10.3856554362       37.2994852452      -25.9818064522  TIP3      15423           0.0000000000
     96101     15823  TIP3      H2            -11.1932550276       38.1881022152      -26.8903868665  TIP3      15423           0.0000000000
     96102     15824  TIP3      OH2           -10.7263215303       39.6226710134      -23.8843996669  TIP3      15424           0.0000000000
     96103     15824  TIP3      H1            -10.8814324252       39.1295608758      -24.7246100890  TIP3      15424           0.0000000000
     96104     15824  TIP3      H2            -11.3352687546       40.3783421535      -23.9667721376  TIP3      15424           0.0000000000
     96105     15825  TIP3      OH2           -17.6615249585       51.1397211469      -41.2238185028  TIP3      15425           0.0000000000
     96106     15825  TIP3      H1            -16.7087045454       51.2237194760      -40.9821632929  TIP3      15425           0.0000000000
     96107     15825  TIP3      H2            -17.6274088333       50.4830531085      -41.9262393761  TIP3      15425           0.0000000000
     96108     15826  TIP3      OH2           -18.0903518939       54.6152343597      -34.3831718060  TIP3      15426           0.0000000000
     96109     15826  TIP3      H1            -18.4535287503       53.7419449517      -34.1782824365  TIP3      15426           0.0000000000
     96110     15826  TIP3      H2            -17.8957959293       54.9629744472      -33.4931820423  TIP3      15426           0.0000000000
     96111     15827  TIP3      OH2            -0.5585523541       55.4133244434      -31.4093346419  TIP3      15427           0.0000000000
     96112     15827  TIP3      H1             -0.5646565477       55.6067640098      -30.4497341462  TIP3      15427           0.0000000000
     96113     15827  TIP3      H2              0.1352485031       56.0057327466      -31.7143799182  TIP3      15427           0.0000000000
     96114     15828  TIP3      OH2            -0.9825843244       54.9938719785      -28.4859768619  TIP3      15428           0.0000000000
     96115     15828  TIP3      H1             -1.4761890196       54.2376005791      -28.8489881496  TIP3      15428           0.0000000000
     96116     15828  TIP3      H2             -0.4584002309       54.5797250486      -27.7814811909  TIP3      15428           0.0000000000
     96117     15829  TIP3      OH2            -2.5372130260       50.7563706934      -23.8170843125  TIP3      15429           0.0000000000
     96118     15829  TIP3      H1             -3.4226814356       50.6950681157      -23.4394606481  TIP3      15429           0.0000000000
     96119     15829  TIP3      H2             -2.1621525910       51.5562216734      -23.3772056918  TIP3      15429           0.0000000000
     96120     15830  TIP3      OH2            -1.2414584980       49.0692264686      -38.3349061865  TIP3      15430           0.0000000000
     96121     15830  TIP3      H1             -0.3762381070       49.4617565295      -38.1747895190  TIP3      15430           0.0000000000
     96122     15830  TIP3      H2             -1.2412343311       48.3120706547      -37.7011472226  TIP3      15430           0.0000000000
     96123     15831  TIP3      OH2            -0.8615891410       47.1233332565      -36.4974647158  TIP3      15431           0.0000000000
     96124     15831  TIP3      H1             -1.6001130499       46.6187659928      -36.0924831391  TIP3      15431           0.0000000000
     96125     15831  TIP3      H2             -0.2646365586       47.2863570062      -35.7389459191  TIP3      15431           0.0000000000
     96126     15832  TIP3      OH2            -1.1080388922       49.8613221240      -31.5326298815  TIP3      15432           0.0000000000
     96127     15832  TIP3      H1             -0.2659027128       49.4833621562      -31.8431133151  TIP3      15432           0.0000000000
     96128     15832  TIP3      H2             -0.9724755472       50.8191761030      -31.6594882913  TIP3      15432           0.0000000000
     96129     15833  TIP3      OH2            -2.5779178120       52.7434455582      -29.2176014265  TIP3      15433           0.0000000000
     96130     15833  TIP3      H1             -3.2568282949       53.1019509322      -28.6308763199  TIP3      15433           0.0000000000
     96131     15833  TIP3      H2             -3.1211635146       52.3281151667      -29.9249779426  TIP3      15433           0.0000000000
     96132     15834  TIP3      OH2            -0.5750350352       46.9750127078      -40.1026478009  TIP3      15434           0.0000000000
     96133     15834  TIP3      H1             -1.1278388032       47.3492699225      -40.8149186981  TIP3      15434           0.0000000000
     96134     15834  TIP3      H2             -0.6298436564       47.6753659497      -39.4261006542  TIP3      15434           0.0000000000
     96135     15835  TIP3      OH2            -2.4601068422       44.2466708373      -41.4708551111  TIP3      15435           0.0000000000
     96136     15835  TIP3      H1             -2.1314303592       44.8538180610      -42.1623399932  TIP3      15435           0.0000000000
     96137     15835  TIP3      H2             -2.3737396350       43.4186454674      -41.9895671332  TIP3      15435           0.0000000000
     96138     15836  TIP3      OH2            -3.0557763554       45.6217614063      -35.9304747361  TIP3      15436           0.0000000000
     96139     15836  TIP3      H1             -3.2102238396       44.6655456856      -35.9470673221  TIP3      15436           0.0000000000
     96140     15836  TIP3      H2             -3.4078135099       45.8750927285      -35.0617039221  TIP3      15436           0.0000000000
     96141     15837  TIP3      OH2           -18.0444119538       47.7032485426      -31.8853735550  TIP3      15437           0.0000000000
     96142     15837  TIP3      H1            -17.8456161990       47.6176561092      -32.8440816302  TIP3      15437           0.0000000000
     96143     15837  TIP3      H2            -17.1595201496       47.5543213697      -31.4995895979  TIP3      15437           0.0000000000
     96144     15838  TIP3      OH2            -2.2147820531       47.5842400023      -26.2562897463  TIP3      15438           0.0000000000
     96145     15838  TIP3      H1             -1.6036704318       46.8363183668      -26.0926305683  TIP3      15438           0.0000000000
     96146     15838  TIP3      H2             -1.6257722875       48.3646582441      -26.2362534129  TIP3      15438           0.0000000000
     96147     15839  TIP3      OH2            -0.6937668724       45.4969205378      -25.5987651614  TIP3      15439           0.0000000000
     96148     15839  TIP3      H1             -1.5752813848       45.0902233051      -25.7565439442  TIP3      15439           0.0000000000
     96149     15839  TIP3      H2             -0.1142195046       44.7235257602      -25.6719152934  TIP3      15439           0.0000000000
     96150     15840  TIP3      OH2            -2.9727021648       41.6382520603      -42.4509250854  TIP3      15440           0.0000000000
     96151     15840  TIP3      H1             -2.3704500275       41.2448561580      -41.7930214486  TIP3      15440           0.0000000000
     96152     15840  TIP3      H2             -3.8334108405       41.2396369405      -42.2442939815  TIP3      15440           0.0000000000
     96153     15841  TIP3      OH2            -3.3734282615       43.2094698490      -37.4549862449  TIP3      15441           0.0000000000
     96154     15841  TIP3      H1             -3.0680163315       42.2801708992      -37.3380505585  TIP3      15441           0.0000000000
     96155     15841  TIP3      H2             -2.5933101942       43.6221985007      -37.8517798710  TIP3      15441           0.0000000000
     96156     15842  TIP3      OH2            -2.7520518245       43.7545584810      -32.0291359094  TIP3      15442           0.0000000000
     96157     15842  TIP3      H1             -1.7946094770       43.9915051293      -32.0470995412  TIP3      15442           0.0000000000
     96158     15842  TIP3      H2             -2.9565421822       43.8893833014      -31.0903529902  TIP3      15442           0.0000000000
     96159     15843  TIP3      OH2            -2.6911833579       44.4834689380      -29.2461726187  TIP3      15443           0.0000000000
     96160     15843  TIP3      H1             -3.5599899505       44.7781680763      -28.8950874900  TIP3      15443           0.0000000000
     96161     15843  TIP3      H2             -2.2576336864       45.3435586551      -29.4627838727  TIP3      15443           0.0000000000
     96162     15844  TIP3      OH2           -18.4386837618       42.9855472752      -25.7662431986  TIP3      15444           0.0000000000
     96163     15844  TIP3      H1            -17.5018223494       42.8253659039      -25.5234978361  TIP3      15444           0.0000000000
     96164     15844  TIP3      H2            -18.8793190014       42.1938242459      -25.3948933383  TIP3      15444           0.0000000000
     96165     15845  TIP3      OH2            -0.4285914961       38.4994151303      -23.8914098015  TIP3      15445           0.0000000000
     96166     15845  TIP3      H1             -0.0683798499       37.8468464918      -24.5043109236  TIP3      15445           0.0000000000
     96167     15845  TIP3      H2             -0.2862161644       39.3386181665      -24.3638449605  TIP3      15445           0.0000000000
     96168     15846  TIP3      OH2            -2.7261789374       40.4807521352      -37.4142431955  TIP3      15446           0.0000000000
     96169     15846  TIP3      H1             -2.5356524885       40.0214034407      -36.5735532044  TIP3      15446           0.0000000000
     96170     15846  TIP3      H2             -3.3370824166       39.8628615801      -37.8755837266  TIP3      15446           0.0000000000
     96171     15847  TIP3      OH2           -17.2178283829       41.2881437576      -32.8913866215  TIP3      15447           0.0000000000
     96172     15847  TIP3      H1            -16.7648888958       40.4772295003      -32.5798256745  TIP3      15447           0.0000000000
     96173     15847  TIP3      H2            -16.7189707156       41.9942380633      -32.4576434238  TIP3      15447           0.0000000000
     96174     15848  TIP3      OH2           -18.9347536731       44.2756342186      -31.8112324468  TIP3      15448           0.0000000000
     96175     15848  TIP3      H1            -18.3925257710       44.0574749318      -32.5983828079  TIP3      15448           0.0000000000
     96176     15848  TIP3      H2            -18.5161651835       45.1091947103      -31.5442644035  TIP3      15448           0.0000000000
     96177     15849  TIP3      OH2            -0.8875526093       40.6132107320      -25.5385093467  TIP3      15449           0.0000000000
     96178     15849  TIP3      H1             -1.8290995462       40.8834900521      -25.5883961282  TIP3      15449           0.0000000000
     96179     15849  TIP3      H2             -0.8142705348       40.0750027142      -26.3401973359  TIP3      15449           0.0000000000
     96180     15850  TIP3      OH2            -0.8938065297       40.5332917455      -40.8605442083  TIP3      15450           0.0000000000
     96181     15850  TIP3      H1             -0.4566884138       39.8208018418      -41.3588524019  TIP3      15450           0.0000000000
     96182     15850  TIP3      H2             -0.1789315281       41.1973783284      -40.8339881273  TIP3      15450           0.0000000000
     96183     15851  TIP3      OH2           -18.5716118197       40.5457805758      -37.7553614308  TIP3      15451           0.0000000000
     96184     15851  TIP3      H1            -19.5207490709       40.7409692939      -37.8848898898  TIP3      15451           0.0000000000
     96185     15851  TIP3      H2            -18.1596383897       41.0386750464      -38.4756611168  TIP3      15451           0.0000000000
     96186     15852  TIP3      OH2            -3.8299944174       55.4982638065      -35.8086144764  TIP3      15452           0.0000000000
     96187     15852  TIP3      H1             -3.1567096507       55.1745452426      -36.4297512006  TIP3      15452           0.0000000000
     96188     15852  TIP3      H2             -3.3180932617       56.0118170083      -35.1618808330  TIP3      15452           0.0000000000
     96189     15853  TIP3      OH2           -18.6190428761       39.2442754314      -29.4302201982  TIP3      15453           0.0000000000
     96190     15853  TIP3      H1            -19.3000845217       39.0263606564      -28.7695880699  TIP3      15453           0.0000000000
     96191     15853  TIP3      H2            -19.0828562648       39.8994944465      -29.9945340451  TIP3      15453           0.0000000000
     96192     15854  TIP3      OH2           -16.4094671032       52.4140801299      -25.2800893773  TIP3      15454           0.0000000000
     96193     15854  TIP3      H1            -17.2508741939       52.6351491918      -25.7256948045  TIP3      15454           0.0000000000
     96194     15854  TIP3      H2            -16.6884920215       52.3774489025      -24.3614221360  TIP3      15454           0.0000000000
     96195     15855  TIP3      OH2           -13.4988817569       53.4075922665      -29.0080871340  TIP3      15455           0.0000000000
     96196     15855  TIP3      H1            -13.8736073622       54.2525046586      -29.2894352372  TIP3      15455           0.0000000000
     96197     15855  TIP3      H2            -12.5729621822       53.5084302286      -29.3190109725  TIP3      15455           0.0000000000
     96198     15856  TIP3      OH2            -9.1614789090       54.8046213739      -26.0975467810  TIP3      15456           0.0000000000
     96199     15856  TIP3      H1             -8.9926602974       54.5043893965      -25.1724217359  TIP3      15456           0.0000000000
     96200     15856  TIP3      H2             -8.2904182627       55.1436283908      -26.3636605335  TIP3      15456           0.0000000000
     96201     15857  TIP3      OH2            -6.8599268179       56.1030385571      -26.8112407389  TIP3      15457           0.0000000000
     96202     15857  TIP3      H1             -6.1405870848       55.4944339860      -27.0407791030  TIP3      15457           0.0000000000
     96203     15857  TIP3      H2             -6.5043965208       56.5019859088      -25.9880290077  TIP3      15457           0.0000000000
     96204     15858  TIP3      OH2            -1.8848847301       38.7162137481      -27.7056818012  TIP3      15458           0.0000000000
     96205     15858  TIP3      H1             -2.7154704018       39.0173815574      -28.1185474626  TIP3      15458           0.0000000000
     96206     15858  TIP3      H2             -1.6884767829       37.9193572681      -28.2495635926  TIP3      15458           0.0000000000
     96207     15859  TIP3      OH2           -13.6221723811      -56.5996924748      -29.9005619352  TIP3      15459           0.0000000000
     96208     15859  TIP3      H1            -14.5003645264      -56.4663155594      -29.5301905036  TIP3      15459           0.0000000000
     96209     15859  TIP3      H2            -13.6586640281      -56.0264531328      -30.7068348262  TIP3      15459           0.0000000000
     96210     15860  TIP3      OH2            -8.8991337144      -56.7022690374      -30.7709649105  TIP3      15460           0.0000000000
     96211     15860  TIP3      H1             -9.3632785108      -56.1495163181      -31.4222539570  TIP3      15460           0.0000000000
     96212     15860  TIP3      H2             -8.7472987057      -56.0626669444      -30.0336336991  TIP3      15460           0.0000000000
     96213     15861  TIP3      OH2            -6.5850132375       55.0063716223      -29.7848753467  TIP3      15461           0.0000000000
     96214     15861  TIP3      H1             -7.4764798676       55.2250913980      -30.0971122381  TIP3      15461           0.0000000000
     96215     15861  TIP3      H2             -6.1539552824       55.8692368360      -29.8807467374  TIP3      15461           0.0000000000
     96216     15862  TIP3      OH2           -16.6615258715       55.2682034305      -32.0540023290  TIP3      15462           0.0000000000
     96217     15862  TIP3      H1            -16.6981151126       54.8539596073      -31.1681384141  TIP3      15462           0.0000000000
     96218     15862  TIP3      H2            -15.8308151159       54.9450807206      -32.4596307415  TIP3      15462           0.0000000000
     96219     15863  TIP3      OH2           -14.5458647538       54.0290815382      -33.4089641463  TIP3      15463           0.0000000000
     96220     15863  TIP3      H1            -14.7266129624       53.0895218817      -33.2217807953  TIP3      15463           0.0000000000
     96221     15863  TIP3      H2            -13.6877242526       54.1482225383      -32.9457850842  TIP3      15463           0.0000000000
     96222     15864  TIP3      OH2           -11.9666378796       54.4920849743      -32.5425554389  TIP3      15464           0.0000000000
     96223     15864  TIP3      H1            -11.7689499433       53.5781001054      -32.8194152416  TIP3      15464           0.0000000000
     96224     15864  TIP3      H2            -11.9096940112       54.4406585276      -31.5828574272  TIP3      15464           0.0000000000
     96225     15865  TIP3      OH2            -8.4773777397       40.1520865208      -33.4011895850  TIP3      15465           0.0000000000
     96226     15865  TIP3      H1             -9.1566525043       39.5073053952      -33.1435226571  TIP3      15465           0.0000000000
     96227     15865  TIP3      H2             -7.9193370693       39.6406309808      -34.0009475536  TIP3      15465           0.0000000000
     96228     15866  TIP3      OH2            -3.3416772733       38.2249981221      -33.3014077502  TIP3      15466           0.0000000000
     96229     15866  TIP3      H1             -2.7231090230       38.8021061908      -33.8181871170  TIP3      15466           0.0000000000
     96230     15866  TIP3      H2             -4.2182407503       38.5698801504      -33.5507614822  TIP3      15466           0.0000000000
     96231     15867  TIP3      OH2            -1.6498728917       39.4146707604      -35.0006878310  TIP3      15467           0.0000000000
     96232     15867  TIP3      H1             -0.9840774752       38.8693702023      -35.4845448908  TIP3      15467           0.0000000000
     96233     15867  TIP3      H2             -1.1954944506       40.2821247412      -34.9440359750  TIP3      15467           0.0000000000
     96234     15868  TIP3      OH2           -16.1507661901       38.7661607274      -35.5814596915  TIP3      15468           0.0000000000
     96235     15868  TIP3      H1            -16.9453242673       38.5295342753      -36.0930514107  TIP3      15468           0.0000000000
     96236     15868  TIP3      H2            -15.6377300077       37.9356928232      -35.5876775931  TIP3      15468           0.0000000000
     96237     15869  TIP3      OH2           -17.3157771534       38.5583430262      -39.7777815865  TIP3      15469           0.0000000000
     96238     15869  TIP3      H1            -16.8770795501       39.1829414680      -40.3878289317  TIP3      15469           0.0000000000
     96239     15869  TIP3      H2            -17.9476428027       39.1141658688      -39.2985270279  TIP3      15469           0.0000000000
     96240     15870  TIP3      OH2           -11.6124691413       38.7251060955      -35.7793769481  TIP3      15470           0.0000000000
     96241     15870  TIP3      H1            -10.6998651139       39.0740119791      -35.8070735303  TIP3      15470           0.0000000000
     96242     15870  TIP3      H2            -11.6872189927       38.4857209278      -34.8487180248  TIP3      15470           0.0000000000
     96243     15871  TIP3      OH2            -5.9761885107       38.7364386536      -34.1264780700  TIP3      15471           0.0000000000
     96244     15871  TIP3      H1             -5.9500433828       38.8279024953      -35.0842608213  TIP3      15471           0.0000000000
     96245     15871  TIP3      H2             -6.3022964139       37.8142493577      -34.0010080077  TIP3      15471           0.0000000000
     96246     15872  TIP3      OH2            -4.6497133727       38.7619329876      -38.4520292108  TIP3      15472           0.0000000000
     96247     15872  TIP3      H1             -5.3796707127       39.3682883806      -38.6405833549  TIP3      15472           0.0000000000
     96248     15872  TIP3      H2             -5.1062606252       37.9054903149      -38.2847770401  TIP3      15472           0.0000000000
     96249     15873  TIP3      OH2           -17.4014600558       54.4962046016      -38.8447446252  TIP3      15473           0.0000000000
     96250     15873  TIP3      H1            -18.0940036432       54.4860346579      -39.5389669377  TIP3      15473           0.0000000000
     96251     15873  TIP3      H2            -17.4119093210       55.4391746178      -38.6294134072  TIP3      15473           0.0000000000
     96252     15874  TIP3      OH2           -15.4808905948       40.4476112070      -41.3068937824  TIP3      15474           0.0000000000
     96253     15874  TIP3      H1            -14.9703357052       39.8600466450      -41.8757368967  TIP3      15474           0.0000000000
     96254     15874  TIP3      H2            -14.8223792242       40.8026586761      -40.7056947188  TIP3      15474           0.0000000000
     96255     15875  TIP3      OH2           -10.4913574120       40.7533740314      -38.9000750389  TIP3      15475           0.0000000000
     96256     15875  TIP3      H1            -10.2218382497       40.1449793998      -38.1873492717  TIP3      15475           0.0000000000
     96257     15875  TIP3      H2            -10.4319301341       41.6121722255      -38.4178761319  TIP3      15475           0.0000000000
     96258     15876  TIP3      OH2            -8.5696509988       55.8958038746      -40.3932076344  TIP3      15476           0.0000000000
     96259     15876  TIP3      H1             -7.6549498121       56.0870246854      -40.6649374176  TIP3      15476           0.0000000000
     96260     15876  TIP3      H2             -8.7649146402       55.3494430713      -41.2066372317  TIP3      15476           0.0000000000
     96261     15877  TIP3      OH2            -1.8142150080       55.2809724172      -37.7548617911  TIP3      15477           0.0000000000
     96262     15877  TIP3      H1             -2.0473831140       54.5367681638      -38.3676553386  TIP3      15477           0.0000000000
     96263     15877  TIP3      H2             -1.8989263391       56.0429189402      -38.3810815921  TIP3      15477           0.0000000000
     96264     15878  TIP3      OH2           -16.2183880810       39.3112475297      -26.0947263598  TIP3      15478           0.0000000000
     96265     15878  TIP3      H1            -16.5726784904       38.5226735293      -25.6437347383  TIP3      15478           0.0000000000
     96266     15878  TIP3      H2            -15.2891268435       39.3003927284      -25.7637622638  TIP3      15478           0.0000000000
     96267     15879  TIP3      OH2           -14.2146549209       38.6709241325      -24.5061857783  TIP3      15479           0.0000000000
     96268     15879  TIP3      H1            -13.3139963289       38.3608397335      -24.7171948488  TIP3      15479           0.0000000000
     96269     15879  TIP3      H2            -14.5967482251       37.8945666331      -24.0625924975  TIP3      15479           0.0000000000
     96270     15880  TIP3      OH2           -15.5821400607       55.4516922794      -41.8551478684  TIP3      15480           0.0000000000
     96271     15880  TIP3      H1            -15.8817218707       55.7295491677      -40.9781813365  TIP3      15480           0.0000000000
     96272     15880  TIP3      H2            -14.8293985258       54.8932313678      -41.6944244404  TIP3      15480           0.0000000000
     96273     15881  TIP3      OH2            -5.8055336066       37.9840831691      -24.3606567023  TIP3      15481           0.0000000000
     96274     15881  TIP3      H1             -5.7207178665       37.5454375752      -23.4820316876  TIP3      15481           0.0000000000
     96275     15881  TIP3      H2             -4.8859790452       37.9799677782      -24.6731779058  TIP3      15481           0.0000000000
     96276     15882  TIP3      OH2            -2.6086721113       54.0445304947      -25.6587521692  TIP3      15482           0.0000000000
     96277     15882  TIP3      H1             -3.4133026264       53.8788797448      -26.1923090701  TIP3      15482           0.0000000000
     96278     15882  TIP3      H2             -2.6938076387       54.9826311788      -25.4433730355  TIP3      15482           0.0000000000
     96279     15883  TIP3      OH2            11.8083483277       47.9121785643      -35.6519061411  TIP3      15483           0.0000000000
     96280     15883  TIP3      H1             11.8531116951       48.8899060904      -35.7502344643  TIP3      15483           0.0000000000
     96281     15883  TIP3      H2             11.1256700843       47.6695281819      -36.2937582810  TIP3      15483           0.0000000000
     96282     15884  TIP3      OH2            10.7031990480       47.1902198875      -32.1935194942  TIP3      15484           0.0000000000
     96283     15884  TIP3      H1             10.6759050761       46.5327121537      -31.4921287619  TIP3      15484           0.0000000000
     96284     15884  TIP3      H2             10.3782813894       46.7012595344      -32.9685209610  TIP3      15484           0.0000000000
     96285     15885  TIP3      OH2             3.0618834315       46.8251464131      -30.6340223443  TIP3      15485           0.0000000000
     96286     15885  TIP3      H1              3.1331301449       46.1683398601      -29.9080421283  TIP3      15485           0.0000000000
     96287     15885  TIP3      H2              3.7932936238       47.4228937722      -30.4248936377  TIP3      15485           0.0000000000
     96288     15886  TIP3      OH2            14.4101583125       50.1191388731      -33.9164575655  TIP3      15486           0.0000000000
     96289     15886  TIP3      H1             13.9776387287       49.4050316590      -33.4361248504  TIP3      15486           0.0000000000
     96290     15886  TIP3      H2             14.4074332598       50.8366417398      -33.2573214599  TIP3      15486           0.0000000000
     96291     15887  TIP3      OH2             3.9843144085       51.2825115359      -32.1111737577  TIP3      15487           0.0000000000
     96292     15887  TIP3      H1              3.6555327060       50.4297179816      -32.4495324790  TIP3      15487           0.0000000000
     96293     15887  TIP3      H2              4.9428517272       51.0817608954      -32.0479126037  TIP3      15487           0.0000000000
     96294     15888  TIP3      OH2             0.6280345167       44.8804970379      -36.6702086189  TIP3      15488           0.0000000000
     96295     15888  TIP3      H1              0.1707161503       45.7479051751      -36.7096400417  TIP3      15488           0.0000000000
     96296     15888  TIP3      H2              0.0489422445       44.3298644121      -37.2164174389  TIP3      15488           0.0000000000
     96297     15889  TIP3      OH2             1.3187261371       47.0830282622      -34.5410670363  TIP3      15489           0.0000000000
     96298     15889  TIP3      H1              1.5656142263       46.2827575583      -34.0417889943  TIP3      15489           0.0000000000
     96299     15889  TIP3      H2              2.0539955693       47.1694922020      -35.1682734203  TIP3      15489           0.0000000000
     96300     15890  TIP3      OH2            11.5291488575       54.8871511991      -33.8567530388  TIP3      15490           0.0000000000
     96301     15890  TIP3      H1             12.3207420313       54.3971947721      -33.9535566398  TIP3      15490           0.0000000000
     96302     15890  TIP3      H2             11.3485353316       55.0093945654      -32.8864311764  TIP3      15490           0.0000000000
     96303     15891  TIP3      OH2             9.0795219676       49.6069116014      -31.7721570387  TIP3      15491           0.0000000000
     96304     15891  TIP3      H1              9.4148775964       48.9392933476      -32.3922593991  TIP3      15491           0.0000000000
     96305     15891  TIP3      H2              9.8510299038       49.7332672460      -31.1937758474  TIP3      15491           0.0000000000
     96306     15892  TIP3      OH2            17.7267522091       41.2374637740      -31.0019085819  TIP3      15492           0.0000000000
     96307     15892  TIP3      H1             17.8328886963       41.8731403794      -30.2308951153  TIP3      15492           0.0000000000
     96308     15892  TIP3      H2             18.2319009514       41.7143012296      -31.6728247227  TIP3      15492           0.0000000000
     96309     15893  TIP3      OH2            12.2330979064       44.0329770022      -31.4300095343  TIP3      15493           0.0000000000
     96310     15893  TIP3      H1             12.3966304349       43.0731500197      -31.4524010897  TIP3      15493           0.0000000000
     96311     15893  TIP3      H2             12.1370832997       44.2025570042      -32.3921802378  TIP3      15493           0.0000000000
     96312     15894  TIP3      OH2             5.3825928136       42.1232817787      -34.1881197396  TIP3      15494           0.0000000000
     96313     15894  TIP3      H1              5.4473929651       42.9764735423      -34.6474130304  TIP3      15494           0.0000000000
     96314     15894  TIP3      H2              4.9439472438       41.5598795045      -34.8602479980  TIP3      15494           0.0000000000
     96315     15895  TIP3      OH2            13.1073018940       42.2352880417      -35.8157629325  TIP3      15495           0.0000000000
     96316     15895  TIP3      H1             13.7633403983       41.9040214585      -35.1605639968  TIP3      15495           0.0000000000
     96317     15895  TIP3      H2             13.6412489552       42.7750723239      -36.4071582786  TIP3      15495           0.0000000000
     96318     15896  TIP3      OH2             1.9937243197       44.5334662921      -33.4455994954  TIP3      15496           0.0000000000
     96319     15896  TIP3      H1              2.6684274883       43.9708412055      -33.0095936718  TIP3      15496           0.0000000000
     96320     15896  TIP3      H2              2.0619541330       44.2320410175      -34.3641406320  TIP3      15496           0.0000000000
     96321     15897  TIP3      OH2             7.1611038999       46.0895231974      -34.1901800871  TIP3      15497           0.0000000000
     96322     15897  TIP3      H1              7.7991037203       45.5208170138      -33.7269613273  TIP3      15497           0.0000000000
     96323     15897  TIP3      H2              6.6013717522       45.4218707614      -34.6366846135  TIP3      15497           0.0000000000
     96324     15898  TIP3      OH2            17.9525413134       42.4345016931      -28.7660971938  TIP3      15498           0.0000000000
     96325     15898  TIP3      H1             17.5444609779       43.3623633442      -28.8122564557  TIP3      15498           0.0000000000
     96326     15898  TIP3      H2             18.1978946460       42.5539584399      -27.8101900640  TIP3      15498           0.0000000000
     96327     15899  TIP3      OH2             4.2404751392       41.0262379673      -30.1390908229  TIP3      15499           0.0000000000
     96328     15899  TIP3      H1              3.9810072719       41.5833643627      -30.8986792355  TIP3      15499           0.0000000000
     96329     15899  TIP3      H2              3.5484964188       41.2654683462      -29.4725533138  TIP3      15499           0.0000000000
     96330     15900  TIP3      OH2            11.5748526323       50.5196620632      -36.5879794850  TIP3      15500           0.0000000000
     96331     15900  TIP3      H1             11.2761934157       50.2197636278      -37.4540883045  TIP3      15500           0.0000000000
     96332     15900  TIP3      H2             11.2464930790       51.4445663558      -36.5488827021  TIP3      15500           0.0000000000
     96333     15901  TIP3      OH2             6.7819862423       48.6824563225      -29.8697671839  TIP3      15501           0.0000000000
     96334     15901  TIP3      H1              6.0499200002       49.3191089833      -29.7188195736  TIP3      15501           0.0000000000
     96335     15901  TIP3      H2              7.4872133767       49.2731683079      -30.1730452316  TIP3      15501           0.0000000000
     96336     15902  TIP3      OH2            14.8913265655       41.5490036101      -33.8301322499  TIP3      15502           0.0000000000
     96337     15902  TIP3      H1             14.6688040152       40.7817391764      -33.2893129465  TIP3      15502           0.0000000000
     96338     15902  TIP3      H2             15.5471602322       42.0105094685      -33.2867925947  TIP3      15502           0.0000000000
     96339     15903  TIP3      OH2             3.7971915236       42.9067780829      -32.1529550106  TIP3      15503           0.0000000000
     96340     15903  TIP3      H1              4.4402756910       43.5691240370      -31.8073647289  TIP3      15503           0.0000000000
     96341     15903  TIP3      H2              4.3341955609       42.4587328582      -32.8490352246  TIP3      15503           0.0000000000
     96342     15904  TIP3      OH2             5.2106724778       50.6607632571      -29.0743233832  TIP3      15504           0.0000000000
     96343     15904  TIP3      H1              5.1768701039       51.5680351561      -29.4325474260  TIP3      15504           0.0000000000
     96344     15904  TIP3      H2              4.3253373452       50.5960127795      -28.6325912143  TIP3      15504           0.0000000000
     96345     15905  TIP3      OH2             1.2862139965       50.3264090882      -38.2654658835  TIP3      15505           0.0000000000
     96346     15905  TIP3      H1              1.0528604107       50.5930122955      -39.1784449051  TIP3      15505           0.0000000000
     96347     15905  TIP3      H2              1.3657806982       51.1769208524      -37.8112419319  TIP3      15505           0.0000000000
     96348     15906  TIP3      OH2            14.9316899506       51.9563317721      -31.5509106458  TIP3      15506           0.0000000000
     96349     15906  TIP3      H1             13.9654028067       52.0463799515      -31.4093983458  TIP3      15506           0.0000000000
     96350     15906  TIP3      H2             15.1973165224       52.8825513683      -31.7201947850  TIP3      15506           0.0000000000
     96351     15907  TIP3      OH2            15.2579770573       40.2527611096      -30.1289699534  TIP3      15507           0.0000000000
     96352     15907  TIP3      H1             14.4984948309       40.8611461863      -30.2039269084  TIP3      15507           0.0000000000
     96353     15907  TIP3      H2             15.8956278783       40.7141159267      -30.6992386385  TIP3      15507           0.0000000000
     96354     15908  TIP3      OH2             8.2287114175       38.3532806582      -32.6880837541  TIP3      15508           0.0000000000
     96355     15908  TIP3      H1              8.1009308525       37.3870976101      -32.7424775546  TIP3      15508           0.0000000000
     96356     15908  TIP3      H2              7.3534242711       38.6701273077      -32.3933148855  TIP3      15508           0.0000000000
     96357     15909  TIP3      OH2            13.2517690146       53.6902230082      -34.9642150190  TIP3      15509           0.0000000000
     96358     15909  TIP3      H1             13.6422981228       52.9987719687      -35.4735303628  TIP3      15509           0.0000000000
     96359     15909  TIP3      H2             13.5422831919       54.5381437700      -35.3528348323  TIP3      15509           0.0000000000
     96360     15910  TIP3      OH2            14.3630766736       51.6620649048      -36.4358448593  TIP3      15510           0.0000000000
     96361     15910  TIP3      H1             14.0802969028       50.9623003214      -37.0431138825  TIP3      15510           0.0000000000
     96362     15910  TIP3      H2             14.4128714491       51.1840108289      -35.5865701255  TIP3      15510           0.0000000000
     96363     15911  TIP3      OH2            16.0189038902       50.2331620394      -27.9381143660  TIP3      15511           0.0000000000
     96364     15911  TIP3      H1             16.1673470558       49.6091404008      -28.6830986559  TIP3      15511           0.0000000000
     96365     15911  TIP3      H2             16.1994667664       51.0985572736      -28.3369000939  TIP3      15511           0.0000000000
     96366     15912  TIP3      OH2            10.4976692526       47.1683991284      -38.1674488386  TIP3      15512           0.0000000000
     96367     15912  TIP3      H1              9.7912144479       47.7225403067      -38.5488472864  TIP3      15512           0.0000000000
     96368     15912  TIP3      H2             11.1973787167       47.2414012603      -38.8459139071  TIP3      15512           0.0000000000
     96369     15913  TIP3      OH2            10.5433712965       45.6570159778      -41.1246628890  TIP3      15513           0.0000000000
     96370     15913  TIP3      H1             11.2664231897       45.6681596952      -40.4815314248  TIP3      15513           0.0000000000
     96371     15913  TIP3      H2             10.8654552473       45.0197228291      -41.7728906735  TIP3      15513           0.0000000000
     96372     15914  TIP3      OH2            17.8521713087       46.5741667204      -29.9153794031  TIP3      15514           0.0000000000
     96373     15914  TIP3      H1             17.2112391716       47.2859134532      -29.8170335682  TIP3      15514           0.0000000000
     96374     15914  TIP3      H2             18.3585101694       46.7903828897      -30.7056560214  TIP3      15514           0.0000000000
     96375     15915  TIP3      OH2            13.9284236288       47.3815690714      -37.2411135432  TIP3      15515           0.0000000000
     96376     15915  TIP3      H1             13.1746613242       47.6198504887      -36.6450799720  TIP3      15515           0.0000000000
     96377     15915  TIP3      H2             14.3717173714       46.6808547476      -36.7455106450  TIP3      15515           0.0000000000
     96378     15916  TIP3      OH2            13.8228018065       45.5254917735      -28.1409495461  TIP3      15516           0.0000000000
     96379     15916  TIP3      H1             13.8872653792       46.3324193061      -27.5950768779  TIP3      15516           0.0000000000
     96380     15916  TIP3      H2             13.2132750575       45.8461921521      -28.8400071558  TIP3      15516           0.0000000000
     96381     15917  TIP3      OH2             5.5549150395       48.0355704331      -35.3364190664  TIP3      15517           0.0000000000
     96382     15917  TIP3      H1              5.2264706310       47.6384504076      -36.1770127847  TIP3      15517           0.0000000000
     96383     15917  TIP3      H2              6.1586030165       47.3345880541      -34.9984583549  TIP3      15517           0.0000000000
     96384     15918  TIP3      OH2             6.8905005733       51.4423075304      -32.6562330737  TIP3      15518           0.0000000000
     96385     15918  TIP3      H1              6.8444324238       50.8711547364      -33.4337060088  TIP3      15518           0.0000000000
     96386     15918  TIP3      H2              7.6592031813       51.0708875749      -32.1846694495  TIP3      15518           0.0000000000
     96387     15919  TIP3      OH2             5.9015931128       46.7750004849      -31.6973184998  TIP3      15519           0.0000000000
     96388     15919  TIP3      H1              6.4740668517       46.8991865899      -32.4778715177  TIP3      15519           0.0000000000
     96389     15919  TIP3      H2              6.2539043935       47.4340479843      -31.0665326848  TIP3      15519           0.0000000000
     96390     15920  TIP3      OH2            12.2690013003       52.3127174074      -30.9764545095  TIP3      15520           0.0000000000
     96391     15920  TIP3      H1             11.9928105045       52.9688877116      -30.3327074132  TIP3      15520           0.0000000000
     96392     15920  TIP3      H2             12.0278276787       51.4572797217      -30.5409150984  TIP3      15520           0.0000000000
     96393     15921  TIP3      OH2             6.8221251326       51.1903225112      -26.9721060163  TIP3      15521           0.0000000000
     96394     15921  TIP3      H1              6.4607983560       51.9789378661      -26.5217007435  TIP3      15521           0.0000000000
     96395     15921  TIP3      H2              6.1511055545       51.0227884783      -27.6805452819  TIP3      15521           0.0000000000
     96396     15922  TIP3      OH2            12.7956542900       46.5370831474      -39.5618049487  TIP3      15522           0.0000000000
     96397     15922  TIP3      H1             13.3624717476       46.7264314771      -38.7797994334  TIP3      15522           0.0000000000
     96398     15922  TIP3      H2             13.2131067941       47.0470867896      -40.2809230108  TIP3      15522           0.0000000000
     96399     15923  TIP3      OH2             3.7482248219       47.3611771866      -27.7804702439  TIP3      15523           0.0000000000
     96400     15923  TIP3      H1              3.7958481297       48.0360215351      -27.0738990748  TIP3      15523           0.0000000000
     96401     15923  TIP3      H2              2.8326271707       47.4790111978      -28.0765641110  TIP3      15523           0.0000000000
     96402     15924  TIP3      OH2            10.5174026064       53.2748946326      -36.1088852316  TIP3      15524           0.0000000000
     96403     15924  TIP3      H1             10.9786188011       53.6026289232      -35.3145947928  TIP3      15524           0.0000000000
     96404     15924  TIP3      H2              9.9593061045       54.0299136003      -36.3404513338  TIP3      15524           0.0000000000
     96405     15925  TIP3      OH2             5.0639721799       53.2435323509      -26.2284728836  TIP3      15525           0.0000000000
     96406     15925  TIP3      H1              5.0319100936       53.1179393435      -27.1899848607  TIP3      15525           0.0000000000
     96407     15925  TIP3      H2              4.1246564666       53.1354189681      -25.9828321850  TIP3      15525           0.0000000000
     96408     15926  TIP3      OH2            16.5075906586       38.2925614603      -39.7140710076  TIP3      15526           0.0000000000
     96409     15926  TIP3      H1             15.5696468116       38.4305235039      -39.4343629901  TIP3      15526           0.0000000000
     96410     15926  TIP3      H2             16.7382968728       39.1429772051      -40.1219198420  TIP3      15526           0.0000000000
     96411     15927  TIP3      OH2             4.5429376004       47.0695487348      -37.7350196108  TIP3      15527           0.0000000000
     96412     15927  TIP3      H1              4.2473029518       47.8488038541      -38.2521283883  TIP3      15527           0.0000000000
     96413     15927  TIP3      H2              3.8699078464       46.4135124920      -37.9326752689  TIP3      15527           0.0000000000
     96414     15928  TIP3      OH2            17.6383042995       52.6572393399      -41.3536927604  TIP3      15528           0.0000000000
     96415     15928  TIP3      H1             17.7636383659       53.6073597247      -41.1728443431  TIP3      15528           0.0000000000
     96416     15928  TIP3      H2             18.5733483696       52.3518194291      -41.3965115195  TIP3      15528           0.0000000000
     96417     15929  TIP3      OH2             0.6304874209       49.4715471375      -28.8878838054  TIP3      15529           0.0000000000
     96418     15929  TIP3      H1              0.1480333686       49.4045704960      -29.7317046206  TIP3      15529           0.0000000000
     96419     15929  TIP3      H2              0.6577834276       48.5315968151      -28.6287650902  TIP3      15529           0.0000000000
     96420     15930  TIP3      OH2             0.3874765104       52.2423541045      -32.1084437767  TIP3      15530           0.0000000000
     96421     15930  TIP3      H1              1.3381690905       52.0792255915      -32.0461902512  TIP3      15530           0.0000000000
     96422     15930  TIP3      H2              0.2846794319       53.0059475030      -31.5083298181  TIP3      15530           0.0000000000
     96423     15931  TIP3      OH2            18.6065793275       52.9050457594      -26.3714969409  TIP3      15531           0.0000000000
     96424     15931  TIP3      H1             18.5133548034       51.9414901105      -26.3995740393  TIP3      15531           0.0000000000
     96425     15931  TIP3      H2             17.7463981343       53.1586979588      -25.9673642571  TIP3      15531           0.0000000000
     96426     15932  TIP3      OH2             9.5730677254       52.4581369146      -27.5091662891  TIP3      15532           0.0000000000
     96427     15932  TIP3      H1              9.6450540522       53.3032281996      -27.0044162840  TIP3      15532           0.0000000000
     96428     15932  TIP3      H2              8.6939435450       52.1344871732      -27.2453547521  TIP3      15532           0.0000000000
     96429     15933  TIP3      OH2             9.9844045021      -56.6422854219      -37.7081943977  TIP3      15533           0.0000000000
     96430     15933  TIP3      H1              9.9093673329      -56.7165493989      -38.6697354445  TIP3      15533           0.0000000000
     96431     15933  TIP3      H2             10.0087971818      -55.6689248930      -37.5408802322  TIP3      15533           0.0000000000
     96432     15934  TIP3      OH2             3.6526452836       55.0229276195      -35.9051180398  TIP3      15534           0.0000000000
     96433     15934  TIP3      H1              3.7979748303       54.6720975391      -35.0024161145  TIP3      15534           0.0000000000
     96434     15934  TIP3      H2              2.7951061280       54.6629987933      -36.1460963305  TIP3      15534           0.0000000000
     96435     15935  TIP3      OH2            13.0904303492       55.4311639536      -40.7117024429  TIP3      15535           0.0000000000
     96436     15935  TIP3      H1             13.4607672924       54.6266990288      -41.1354962524  TIP3      15535           0.0000000000
     96437     15935  TIP3      H2             13.0891276700       55.1178213974      -39.7754300746  TIP3      15535           0.0000000000
     96438     15936  TIP3      OH2            12.7422641412       55.2861580788      -37.9692005216  TIP3      15536           0.0000000000
     96439     15936  TIP3      H1             11.7991857287       55.4171610829      -37.7322091550  TIP3      15536           0.0000000000
     96440     15936  TIP3      H2             13.0178799108       54.5972635916      -37.3445248671  TIP3      15536           0.0000000000
     96441     15937  TIP3      OH2            15.7312156705       44.3871861148      -25.8921392300  TIP3      15537           0.0000000000
     96442     15937  TIP3      H1             15.3218456966       44.8630524036      -26.6235869754  TIP3      15537           0.0000000000
     96443     15937  TIP3      H2             15.7802472778       43.4772530128      -26.2061376830  TIP3      15537           0.0000000000
     96444     15938  TIP3      OH2             2.8916001334       50.7936368760      -27.8934866811  TIP3      15538           0.0000000000
     96445     15938  TIP3      H1              3.1137732943       50.4135755860      -27.0155686602  TIP3      15538           0.0000000000
     96446     15938  TIP3      H2              2.0247807380       50.3930124537      -28.1066709533  TIP3      15538           0.0000000000
     96447     15939  TIP3      OH2             5.5478716003       39.2457766809      -31.9143815385  TIP3      15539           0.0000000000
     96448     15939  TIP3      H1              4.6483896273       39.1541743292      -32.3051847130  TIP3      15539           0.0000000000
     96449     15939  TIP3      H2              5.4651636399       40.1013989272      -31.4657063169  TIP3      15539           0.0000000000
     96450     15940  TIP3      OH2            10.1912924732       39.0227981993      -28.4905844208  TIP3      15540           0.0000000000
     96451     15940  TIP3      H1             10.6019876827       38.4938385002      -27.7788541938  TIP3      15540           0.0000000000
     96452     15940  TIP3      H2              9.2263230593       38.7714061903      -28.4299635591  TIP3      15540           0.0000000000
     96453     15941  TIP3      OH2            13.4865211685       42.7257647883      -27.7034822975  TIP3      15541           0.0000000000
     96454     15941  TIP3      H1             12.9919099391       42.5954179034      -26.8642145648  TIP3      15541           0.0000000000
     96455     15941  TIP3      H2             13.3610468273       43.6685582480      -27.9177243908  TIP3      15541           0.0000000000
     96456     15942  TIP3      OH2            14.3074747172       47.6422235232      -41.8214630662  TIP3      15542           0.0000000000
     96457     15942  TIP3      H1             14.3408037199       47.3993474866      -42.7819860951  TIP3      15542           0.0000000000
     96458     15942  TIP3      H2             15.1805990892       48.0218723376      -41.7078690971  TIP3      15542           0.0000000000
     96459     15943  TIP3      OH2             9.8511640805       41.4846644936      -41.2444914005  TIP3      15543           0.0000000000
     96460     15943  TIP3      H1              9.5630619284       41.4652940312      -40.3108654070  TIP3      15543           0.0000000000
     96461     15943  TIP3      H2              9.5769245716       40.6027626821      -41.5266696769  TIP3      15543           0.0000000000
     96462     15944  TIP3      OH2             5.6402346966       44.2107999808      -30.7557959032  TIP3      15544           0.0000000000
     96463     15944  TIP3      H1              4.9430410021       44.1897360452      -30.0743106723  TIP3      15544           0.0000000000
     96464     15944  TIP3      H2              5.6313969268       45.1482342938      -31.0509605179  TIP3      15544           0.0000000000
     96465     15945  TIP3      OH2             5.6171084126       44.4093808131      -35.8542116875  TIP3      15545           0.0000000000
     96466     15945  TIP3      H1              4.6957113692       44.0933704139      -35.9588856913  TIP3      15545           0.0000000000
     96467     15945  TIP3      H2              6.0324218941       44.0552698631      -36.6636924111  TIP3      15545           0.0000000000
     96468     15946  TIP3      OH2            11.1414729290       44.8430808458      -37.0640910306  TIP3      15546           0.0000000000
     96469     15946  TIP3      H1             10.7313533706       45.6772254530      -37.3795691269  TIP3      15546           0.0000000000
     96470     15946  TIP3      H2             11.8457005386       44.7055220116      -37.7191400306  TIP3      15546           0.0000000000
     96471     15947  TIP3      OH2            10.2404656040       45.0319908136      -25.6210712583  TIP3      15547           0.0000000000
     96472     15947  TIP3      H1              9.6643823016       44.3179487441      -25.2663198932  TIP3      15547           0.0000000000
     96473     15947  TIP3      H2             11.0636126598       44.9311197534      -25.1157008599  TIP3      15547           0.0000000000
     96474     15948  TIP3      OH2            12.1773354709       44.3218214459      -34.2303648025  TIP3      15548           0.0000000000
     96475     15948  TIP3      H1             11.9191956902       44.8989818151      -34.9700737850  TIP3      15548           0.0000000000
     96476     15948  TIP3      H2             12.2963695133       43.4687061622      -34.6945006373  TIP3      15548           0.0000000000
     96477     15949  TIP3      OH2             3.3266749261       44.5187834146      -28.9679940143  TIP3      15549           0.0000000000
     96478     15949  TIP3      H1              3.3362603647       44.9168412526      -28.0771340593  TIP3      15549           0.0000000000
     96479     15949  TIP3      H2              2.8537164050       43.6875014923      -28.8222239481  TIP3      15549           0.0000000000
     96480     15950  TIP3      OH2             6.8267121273       42.0814554272      -41.9004015794  TIP3      15550           0.0000000000
     96481     15950  TIP3      H1              6.2929875198       41.4643839763      -41.3641408588  TIP3      15550           0.0000000000
     96482     15950  TIP3      H2              6.1485172061       42.3599265534      -42.5345695183  TIP3      15550           0.0000000000
     96483     15951  TIP3      OH2            -0.0515182806       41.6349332383      -35.0619289521  TIP3      15551           0.0000000000
     96484     15951  TIP3      H1              0.6112609969       41.5970715025      -34.3453217929  TIP3      15551           0.0000000000
     96485     15951  TIP3      H2              0.4095897930       41.2180388109      -35.8137003122  TIP3      15551           0.0000000000
     96486     15952  TIP3      OH2             1.2426185772       42.3507541079      -39.6524132496  TIP3      15552           0.0000000000
     96487     15952  TIP3      H1              1.7172120954       42.9661404535      -40.2543643795  TIP3      15552           0.0000000000
     96488     15952  TIP3      H2              0.5282195512       42.9400652768      -39.3233851478  TIP3      15552           0.0000000000
     96489     15953  TIP3      OH2            11.3963980010       45.9375509296      -29.6125618122  TIP3      15553           0.0000000000
     96490     15953  TIP3      H1             11.7450894034       45.2790624607      -30.2409341526  TIP3      15553           0.0000000000
     96491     15953  TIP3      H2             10.9468036339       45.4013261734      -28.9438790019  TIP3      15553           0.0000000000
     96492     15954  TIP3      OH2             8.1870983880       41.8780900522      -34.8164090047  TIP3      15554           0.0000000000
     96493     15954  TIP3      H1              7.2534341835       41.9137446935      -34.5143383285  TIP3      15554           0.0000000000
     96494     15954  TIP3      H2              8.6811648907       41.7781668904      -33.9890007733  TIP3      15554           0.0000000000
     96495     15955  TIP3      OH2             3.0089330903       43.4784539116      -35.9600266712  TIP3      15555           0.0000000000
     96496     15955  TIP3      H1              2.1104831894       43.5973110611      -36.3294213539  TIP3      15555           0.0000000000
     96497     15955  TIP3      H2              3.2981011786       42.6337441431      -36.3392114234  TIP3      15555           0.0000000000
     96498     15956  TIP3      OH2             6.6485525799       43.4995140570      -38.3159417647  TIP3      15556           0.0000000000
     96499     15956  TIP3      H1              7.6019415049       43.6170692870      -38.1414824831  TIP3      15556           0.0000000000
     96500     15956  TIP3      H2              6.4267500865       44.1675411525      -38.9867728495  TIP3      15556           0.0000000000
     96501     15957  TIP3      OH2            12.6015340714       41.1037517396      -31.5409735893  TIP3      15557           0.0000000000
     96502     15957  TIP3      H1             11.8949908697       41.2174871023      -30.8833310628  TIP3      15557           0.0000000000
     96503     15957  TIP3      H2             12.1015128934       40.9224140241      -32.3579790992  TIP3      15557           0.0000000000
     96504     15958  TIP3      OH2             5.3343209956       44.6792964787      -40.7336688525  TIP3      15558           0.0000000000
     96505     15958  TIP3      H1              4.7873378461       44.3116422297      -41.4501267180  TIP3      15558           0.0000000000
     96506     15958  TIP3      H2              6.1665355422       44.8797379222      -41.1908746378  TIP3      15558           0.0000000000
     96507     15959  TIP3      OH2             3.4772793863       49.2395320014      -25.6790128564  TIP3      15559           0.0000000000
     96508     15959  TIP3      H1              4.1967446922       49.5008355105      -25.0798599143  TIP3      15559           0.0000000000
     96509     15959  TIP3      H2              2.6896403658       49.4134097107      -25.1166063398  TIP3      15559           0.0000000000
     96510     15960  TIP3      OH2             9.4837287002       44.6560697412      -32.9194523282  TIP3      15560           0.0000000000
     96511     15960  TIP3      H1             10.0640379903       44.1071247189      -33.4608179041  TIP3      15560           0.0000000000
     96512     15960  TIP3      H2              9.3430418883       44.1180726950      -32.1298585470  TIP3      15560           0.0000000000
     96513     15961  TIP3      OH2             4.4920207681       40.8022265519      -36.4888848308  TIP3      15561           0.0000000000
     96514     15961  TIP3      H1              4.1835175181       39.8776810702      -36.5235641626  TIP3      15561           0.0000000000
     96515     15961  TIP3      H2              5.2794901292       40.7677196389      -37.0471245580  TIP3      15561           0.0000000000
     96516     15962  TIP3      OH2             8.1211594000       43.0015930328      -30.4984427928  TIP3      15562           0.0000000000
     96517     15962  TIP3      H1              7.2841256518       43.5020896112      -30.4088900046  TIP3      15562           0.0000000000
     96518     15962  TIP3      H2              8.6563664396       43.3417715763      -29.7621967929  TIP3      15562           0.0000000000
     96519     15963  TIP3      OH2             8.6969385459       49.2355031309      -38.8130394771  TIP3      15563           0.0000000000
     96520     15963  TIP3      H1              7.9120976838       48.7382214180      -39.1366808955  TIP3      15563           0.0000000000
     96521     15963  TIP3      H2              8.5108901709       49.3023834277      -37.8558392763  TIP3      15563           0.0000000000
     96522     15964  TIP3      OH2            15.8377353608       48.3996208421      -30.0120564184  TIP3      15564           0.0000000000
     96523     15964  TIP3      H1             16.4573317011       48.8554756298      -30.6042760334  TIP3      15564           0.0000000000
     96524     15964  TIP3      H2             14.9951182042       48.4892395112      -30.4991151470  TIP3      15564           0.0000000000
     96525     15965  TIP3      OH2            12.5703865982       42.0279777804      -40.6221079674  TIP3      15565           0.0000000000
     96526     15965  TIP3      H1             11.6213250115       42.1722300238      -40.7796965551  TIP3      15565           0.0000000000
     96527     15965  TIP3      H2             12.8620554382       42.9071032697      -40.3111243769  TIP3      15565           0.0000000000
     96528     15966  TIP3      OH2            10.1905578409       49.4465494817      -27.5799356239  TIP3      15566           0.0000000000
     96529     15966  TIP3      H1              9.8451561038       49.0518721692      -26.7712215793  TIP3      15566           0.0000000000
     96530     15966  TIP3      H2              9.9713575945       50.3780437329      -27.4938950327  TIP3      15566           0.0000000000
     96531     15967  TIP3      OH2            13.2823636190       43.9383059934      -38.9485450536  TIP3      15567           0.0000000000
     96532     15967  TIP3      H1             14.1821616671       43.7968172013      -38.6318513663  TIP3      15567           0.0000000000
     96533     15967  TIP3      H2             13.3396559482       44.7358311701      -39.5001009823  TIP3      15567           0.0000000000
     96534     15968  TIP3      OH2             3.7960680215       48.5732547191      -33.0277163513  TIP3      15568           0.0000000000
     96535     15968  TIP3      H1              4.5256280120       48.5309573264      -33.6751258411  TIP3      15568           0.0000000000
     96536     15968  TIP3      H2              3.8732226880       47.7229573901      -32.5632451365  TIP3      15568           0.0000000000
     96537     15969  TIP3      OH2            10.8109064507       50.6961671684      -39.7823355186  TIP3      15569           0.0000000000
     96538     15969  TIP3      H1             10.4756946549       51.5327883249      -39.4075242800  TIP3      15569           0.0000000000
     96539     15969  TIP3      H2             10.0730316817       50.0774006804      -39.5866445287  TIP3      15569           0.0000000000
     96540     15970  TIP3      OH2             0.7965552111       47.0179303155      -27.7408853482  TIP3      15570           0.0000000000
     96541     15970  TIP3      H1              1.0131946663       46.5746826894      -26.8994488799  TIP3      15570           0.0000000000
     96542     15970  TIP3      H2              0.1892730007       46.3885376821      -28.1681041035  TIP3      15570           0.0000000000
     96543     15971  TIP3      OH2             7.8135920990       46.5597054173      -25.5438284991  TIP3      15571           0.0000000000
     96544     15971  TIP3      H1              7.5141988880       46.3226801195      -26.4304451589  TIP3      15571           0.0000000000
     96545     15971  TIP3      H2              8.7499769869       46.2946326032      -25.5456238300  TIP3      15571           0.0000000000
     96546     15972  TIP3      OH2            12.4707734497       51.9103608386      -27.6382258522  TIP3      15572           0.0000000000
     96547     15972  TIP3      H1             11.5434428249       52.0810106792      -27.8725501511  TIP3      15572           0.0000000000
     96548     15972  TIP3      H2             12.4556857762       52.1616936460      -26.6960774712  TIP3      15572           0.0000000000
     96549     15973  TIP3      OH2            18.1420814871       44.1112703320      -39.1824306223  TIP3      15573           0.0000000000
     96550     15973  TIP3      H1             17.6252313125       43.7670049311      -39.9566843921  TIP3      15573           0.0000000000
     96551     15973  TIP3      H2             18.2660281921       45.0342100464      -39.5441097718  TIP3      15573           0.0000000000
     96552     15974  TIP3      OH2            18.1527898882       49.9579420420      -26.4008287483  TIP3      15574           0.0000000000
     96553     15974  TIP3      H1             17.2704803392       50.1641890225      -26.7922569545  TIP3      15574           0.0000000000
     96554     15974  TIP3      H2             18.7179438796       49.9006541168      -27.1982413788  TIP3      15574           0.0000000000
     96555     15975  TIP3      OH2            16.4540257354       52.9293756951      -38.8143877351  TIP3      15575           0.0000000000
     96556     15975  TIP3      H1             16.0910100377       52.0947633459      -38.4892516848  TIP3      15575           0.0000000000
     96557     15975  TIP3      H2             16.7538795606       52.7273799755      -39.7125560066  TIP3      15575           0.0000000000
     96558     15976  TIP3      OH2            13.6448497731       47.7403561416      -31.7519685618  TIP3      15576           0.0000000000
     96559     15976  TIP3      H1             12.7020291984       47.5054562322      -31.8192364213  TIP3      15576           0.0000000000
     96560     15976  TIP3      H2             14.0804261780       46.9556692799      -32.1280290550  TIP3      15576           0.0000000000
     96561     15977  TIP3      OH2             6.1689244244       52.0511082020      -35.6369358823  TIP3      15577           0.0000000000
     96562     15977  TIP3      H1              6.6880231958       52.8485875688      -35.8417670742  TIP3      15577           0.0000000000
     96563     15977  TIP3      H2              5.2966986338       52.2917796162      -35.9582713134  TIP3      15577           0.0000000000
     96564     15978  TIP3      OH2             1.9186174162       46.9151628307      -41.0750181627  TIP3      15578           0.0000000000
     96565     15978  TIP3      H1              2.5433529666       47.5484852312      -40.6774888943  TIP3      15578           0.0000000000
     96566     15978  TIP3      H2              1.0515673710       47.2279213673      -40.7763822250  TIP3      15578           0.0000000000
     96567     15979  TIP3      OH2             7.6108501075       49.7190649886      -36.0852969785  TIP3      15579           0.0000000000
     96568     15979  TIP3      H1              7.3266569519       50.6508239092      -36.0195664995  TIP3      15579           0.0000000000
     96569     15979  TIP3      H2              6.8580000037       49.2557521598      -35.6671252104  TIP3      15579           0.0000000000
     96570     15980  TIP3      OH2             8.0563331490       53.8808765179      -29.7206743376  TIP3      15580           0.0000000000
     96571     15980  TIP3      H1              8.4914875583       54.7234620259      -29.9851741093  TIP3      15580           0.0000000000
     96572     15980  TIP3      H2              8.6627312327       53.5786138641      -29.0250207091  TIP3      15580           0.0000000000
     96573     15981  TIP3      OH2             6.2935442046       54.7221407684      -36.5434628331  TIP3      15581           0.0000000000
     96574     15981  TIP3      H1              5.3335105467       54.8670631270      -36.4560033097  TIP3      15581           0.0000000000
     96575     15981  TIP3      H2              6.6440389212       55.5689856560      -36.1852078183  TIP3      15581           0.0000000000
     96576     15982  TIP3      OH2            11.6244439639       49.9523306977      -30.0719214189  TIP3      15582           0.0000000000
     96577     15982  TIP3      H1             11.2341382953       49.7364133681      -29.2018284276  TIP3      15582           0.0000000000
     96578     15982  TIP3      H2             12.2331509405       49.2174813573      -30.2408406986  TIP3      15582           0.0000000000
     96579     15983  TIP3      OH2            13.8642178997       50.9370870203      -40.9851808335  TIP3      15583           0.0000000000
     96580     15983  TIP3      H1             14.1927680933       50.5116248776      -40.1636354456  TIP3      15583           0.0000000000
     96581     15983  TIP3      H2             12.9071328919       50.7928593257      -40.8834078868  TIP3      15583           0.0000000000
     96582     15984  TIP3      OH2            14.3423022784       54.5324388331      -27.5658540656  TIP3      15584           0.0000000000
     96583     15984  TIP3      H1             13.7105728650       53.9732458404      -28.0731698450  TIP3      15584           0.0000000000
     96584     15984  TIP3      H2             14.5870279897       55.1894224946      -28.2315575765  TIP3      15584           0.0000000000
     96585     15985  TIP3      OH2            18.3550974443       55.3559250939      -40.7934475546  TIP3      15585           0.0000000000
     96586     15985  TIP3      H1             19.1109163236       55.9617858780      -40.9384011129  TIP3      15585           0.0000000000
     96587     15985  TIP3      H2             17.6649655776       55.9462205016      -40.4276788146  TIP3      15585           0.0000000000
     96588     15986  TIP3      OH2             2.4494034426       41.7517096546      -28.1972977325  TIP3      15586           0.0000000000
     96589     15986  TIP3      H1              1.5390038861       42.0969344490      -28.2344959495  TIP3      15586           0.0000000000
     96590     15986  TIP3      H2              2.3373397879       40.9003980455      -27.7455290387  TIP3      15586           0.0000000000
     96591     15987  TIP3      OH2            14.7066350841       49.5968888206      -38.7633230099  TIP3      15587           0.0000000000
     96592     15987  TIP3      H1             14.4453676423       48.8350959325      -38.2038439544  TIP3      15587           0.0000000000
     96593     15987  TIP3      H2             15.6490721749       49.6846020358      -38.5404977267  TIP3      15587           0.0000000000
     96594     15988  TIP3      OH2             2.0829883335       53.5476053164      -29.7688786206  TIP3      15588           0.0000000000
     96595     15988  TIP3      H1              2.3339687512       52.6133895723      -29.7610485108  TIP3      15588           0.0000000000
     96596     15988  TIP3      H2              2.3307784889       53.8275269647      -28.8733873105  TIP3      15588           0.0000000000
     96597     15989  TIP3      OH2             6.8590355014       51.5942206071      -40.0760236942  TIP3      15589           0.0000000000
     96598     15989  TIP3      H1              7.0480487243       51.0562418426      -39.2958950313  TIP3      15589           0.0000000000
     96599     15989  TIP3      H2              6.8857931453       52.5098164271      -39.7486686906  TIP3      15589           0.0000000000
     96600     15990  TIP3      OH2             3.3240196723       48.8335414591      -39.5871659470  TIP3      15590           0.0000000000
     96601     15990  TIP3      H1              2.6480222313       49.2128284600      -38.9956034266  TIP3      15590           0.0000000000
     96602     15990  TIP3      H2              3.8689463339       49.6052231208      -39.8168395538  TIP3      15590           0.0000000000
     96603     15991  TIP3      OH2            11.1351411206       41.5233230165      -29.2110997972  TIP3      15591           0.0000000000
     96604     15991  TIP3      H1             11.9246157742       41.5745272683      -28.6591281695  TIP3      15591           0.0000000000
     96605     15991  TIP3      H2             10.8095805374       40.6071976486      -29.1451390461  TIP3      15591           0.0000000000
     96606     15992  TIP3      OH2            11.9329060633       41.1235111762      -38.1658354540  TIP3      15592           0.0000000000
     96607     15992  TIP3      H1             12.1772976996       41.6040037258      -38.9862293489  TIP3      15592           0.0000000000
     96608     15992  TIP3      H2             12.5082682141       41.5382962072      -37.5184088576  TIP3      15592           0.0000000000
     96609     15993  TIP3      OH2             9.6221033431       53.2575656772      -39.3356255028  TIP3      15593           0.0000000000
     96610     15993  TIP3      H1              8.8070310402       53.7758396307      -39.2677739531  TIP3      15593           0.0000000000
     96611     15993  TIP3      H2             10.1579014871       53.7808327247      -39.9559044582  TIP3      15593           0.0000000000
     96612     15994  TIP3      OH2             9.1501994832       42.8626864969      -37.3482606359  TIP3      15594           0.0000000000
     96613     15994  TIP3      H1              9.9612088454       43.4033315800      -37.3112194820  TIP3      15594           0.0000000000
     96614     15994  TIP3      H2              8.9012107214       42.7280207204      -36.4212898733  TIP3      15594           0.0000000000
     96615     15995  TIP3      OH2             9.6892137948       43.8407249185      -28.1525080962  TIP3      15595           0.0000000000
     96616     15995  TIP3      H1              9.7992048185       44.4598446139      -27.4001292127  TIP3      15595           0.0000000000
     96617     15995  TIP3      H2             10.3845236566       43.1989923715      -28.0787711982  TIP3      15595           0.0000000000
     96618     15996  TIP3      OH2            10.0242773909       39.9239091450      -36.4272462462  TIP3      15596           0.0000000000
     96619     15996  TIP3      H1              9.6923092060       40.5724387940      -35.7834904710  TIP3      15596           0.0000000000
     96620     15996  TIP3      H2             10.7031449994       40.4662394910      -36.8988486188  TIP3      15596           0.0000000000
     96621     15997  TIP3      OH2             6.9512065752       54.3311352520      -39.3557003344  TIP3      15597           0.0000000000
     96622     15997  TIP3      H1              7.1251037869       55.1505474885      -39.8281400697  TIP3      15597           0.0000000000
     96623     15997  TIP3      H2              6.7565948690       54.6296914580      -38.4394084702  TIP3      15597           0.0000000000
     96624     15998  TIP3      OH2             5.6817380891       40.9997362064      -39.7324308728  TIP3      15598           0.0000000000
     96625     15998  TIP3      H1              5.6134347393       41.9129035804      -39.3747821551  TIP3      15598           0.0000000000
     96626     15998  TIP3      H2              6.5909750959       40.7658674774      -39.4726596585  TIP3      15598           0.0000000000
     96627     15999  TIP3      OH2            15.8766417687       41.7112629851      -27.3133961316  TIP3      15599           0.0000000000
     96628     15999  TIP3      H1             14.9689520780       42.0604521810      -27.4241358759  TIP3      15599           0.0000000000
     96629     15999  TIP3      H2             16.2181162533       41.7889856935      -28.2209516574  TIP3      15599           0.0000000000
     96630     16000  TIP3      OH2            14.5105236593       45.5199826436      -33.2844641061  TIP3      15600           0.0000000000
     96631     16000  TIP3      H1             13.6767755430       45.0982444466      -33.5588025112  TIP3      15600           0.0000000000
     96632     16000  TIP3      H2             14.9556149553       44.8287300279      -32.7452012338  TIP3      15600           0.0000000000
     96633     16001  TIP3      OH2             3.9276049947       51.4479874792      -40.6764538580  TIP3      15601           0.0000000000
     96634     16001  TIP3      H1              4.5438353311       52.1316463402      -40.3876955602  TIP3      15601           0.0000000000
     96635     16001  TIP3      H2              4.4283785269       51.0026046370      -41.3865698906  TIP3      15601           0.0000000000
     96636     16002  TIP3      OH2             2.2848998206       44.1148389107      -41.5239688441  TIP3      15602           0.0000000000
     96637     16002  TIP3      H1              2.2387875441       45.0743521275      -41.3771920121  TIP3      15602           0.0000000000
     96638     16002  TIP3      H2              1.3976842768       43.8938473167      -41.8368754043  TIP3      15602           0.0000000000
     96639     16003  TIP3      OH2            15.5693519782       54.7344803424      -31.5960810473  TIP3      15603           0.0000000000
     96640     16003  TIP3      H1             15.4361007389       55.4514380048      -32.2698619342  TIP3      15603           0.0000000000
     96641     16003  TIP3      H2             16.5238882307       54.8563057614      -31.4254067547  TIP3      15603           0.0000000000
     96642     16004  TIP3      OH2             3.0764300609       38.9063293160      -32.8473471241  TIP3      15604           0.0000000000
     96643     16004  TIP3      H1              2.8490440116       38.9414222992      -33.8032813517  TIP3      15604           0.0000000000
     96644     16004  TIP3      H2              2.6329238450       38.0798954962      -32.5699531603  TIP3      15604           0.0000000000
     96645     16005  TIP3      OH2             1.9942579957       52.8471519163      -36.6656310939  TIP3      15605           0.0000000000
     96646     16005  TIP3      H1              1.1783224285       53.3335257416      -36.7868639595  TIP3      15605           0.0000000000
     96647     16005  TIP3      H2              2.5406898037       53.3096216546      -37.3390097499  TIP3      15605           0.0000000000
     96648     16006  TIP3      OH2             1.2785563538       55.4581143996      -25.3969713499  TIP3      15606           0.0000000000
     96649     16006  TIP3      H1              1.8332117778       55.2403696644      -24.6231168654  TIP3      15606           0.0000000000
     96650     16006  TIP3      H2              0.8130054767       54.6280664927      -25.5682163846  TIP3      15606           0.0000000000
     96651     16007  TIP3      OH2             5.8937969296       54.3805724724      -23.7492907345  TIP3      15607           0.0000000000
     96652     16007  TIP3      H1              6.6724807363       53.8954534825      -23.4348781689  TIP3      15607           0.0000000000
     96653     16007  TIP3      H2              5.8710476065       54.1312204587      -24.6985368450  TIP3      15607           0.0000000000
     96654     16008  TIP3      OH2            10.3218973120       54.0246863097      -41.9025579938  TIP3      15608           0.0000000000
     96655     16008  TIP3      H1              9.5221424908       53.4368130514      -41.9660140717  TIP3      15608           0.0000000000
     96656     16008  TIP3      H2             10.7788721912       53.4538158291      -42.5222486316  TIP3      15608           0.0000000000
     96657     16009  TIP3      OH2            12.4420178531       52.7761113104      -25.0311762895  TIP3      15609           0.0000000000
     96658     16009  TIP3      H1             12.1162220379       51.8841171969      -24.7849744230  TIP3      15609           0.0000000000
     96659     16009  TIP3      H2             13.2056929637       52.8840205644      -24.4345039468  TIP3      15609           0.0000000000
     96660     16010  TIP3      OH2            14.5950740071       53.7127216937      -42.1984769836  TIP3      15610           0.0000000000
     96661     16010  TIP3      H1             14.8500623315       52.8963036048      -41.6910072875  TIP3      15610           0.0000000000
     96662     16010  TIP3      H2             15.3962957455       53.8574467867      -42.6750392707  TIP3      15610           0.0000000000
     96663     16011  TIP3      OH2             1.1757030616       49.2462279620      -24.3921649361  TIP3      15611           0.0000000000
     96664     16011  TIP3      H1              1.3325431428       48.3460067026      -24.7319933060  TIP3      15611           0.0000000000
     96665     16011  TIP3      H2              0.4213560803       49.5393551022      -24.9425501901  TIP3      15611           0.0000000000
     96666     16012  TIP3      OH2             5.5640933153       49.6491462183      -42.2606253875  TIP3      15612           0.0000000000
     96667     16012  TIP3      H1              5.6154084825       48.8159401033      -41.7774287978  TIP3      15612           0.0000000000
     96668     16012  TIP3      H2              6.1745852256       49.4556875664      -42.9979283481  TIP3      15612           0.0000000000
     96669     16013  TIP3      OH2             7.8716641587       49.2367384211      -25.0070627441  TIP3      15613           0.0000000000
     96670     16013  TIP3      H1              7.5174566681       49.5168358624      -25.8687307895  TIP3      15613           0.0000000000
     96671     16013  TIP3      H2              7.9774127080       48.2631834856      -25.0962877258  TIP3      15613           0.0000000000
     96672     16014  TIP3      OH2            13.5706594924       49.1149196379      -27.6160689918  TIP3      15614           0.0000000000
     96673     16014  TIP3      H1             14.3383270037       49.7220364822      -27.7154205636  TIP3      15614           0.0000000000
     96674     16014  TIP3      H2             12.8401170435       49.7453611116      -27.5654523922  TIP3      15614           0.0000000000
     96675     16015  TIP3      OH2             2.0504314587       46.4833182791      -25.0007680439  TIP3      15615           0.0000000000
     96676     16015  TIP3      H1              2.4480791196       45.6055396469      -25.1267319374  TIP3      15615           0.0000000000
     96677     16015  TIP3      H2              1.7802153541       46.4559072661      -24.0850929492  TIP3      15615           0.0000000000
     96678     16016  TIP3      OH2             6.6916054694       47.6134561984      -39.9808787992  TIP3      15616           0.0000000000
     96679     16016  TIP3      H1              6.2176106362       47.0903918746      -39.3132046702  TIP3      15616           0.0000000000
     96680     16016  TIP3      H2              6.9693286366       46.9111639796      -40.6167215598  TIP3      15616           0.0000000000
     96681     16017  TIP3      OH2             5.9740599694       45.4396476486      -27.6363845474  TIP3      15617           0.0000000000
     96682     16017  TIP3      H1              5.3585219297       46.1427520441      -27.3661323139  TIP3      15617           0.0000000000
     96683     16017  TIP3      H2              6.3329101263       45.7916200997      -28.4681868731  TIP3      15617           0.0000000000
     96684     16018  TIP3      OH2             7.7570362061       45.8296313946      -41.7349677889  TIP3      15618           0.0000000000
     96685     16018  TIP3      H1              7.6071120867       45.6556643052      -42.6724344638  TIP3      15618           0.0000000000
     96686     16018  TIP3      H2              8.7353870513       45.9236183368      -41.6676831944  TIP3      15618           0.0000000000
     96687     16019  TIP3      OH2            11.0069111508       47.9702079600      -24.3432349163  TIP3      15619           0.0000000000
     96688     16019  TIP3      H1             11.9738768712       48.0047011905      -24.3931986125  TIP3      15619           0.0000000000
     96689     16019  TIP3      H2             10.8473452562       47.2302116131      -23.7357597171  TIP3      15619           0.0000000000
     96690     16020  TIP3      OH2            16.9436021957       48.2440934208       42.7900753087  TIP3      15620           0.0000000000
     96691     16020  TIP3      H1             16.8592145333       47.7500822989       41.9253058755  TIP3      15620           0.0000000000
     96692     16020  TIP3      H2             17.1921540917       49.1299463371       42.4905870736  TIP3      15620           0.0000000000
     96693     16021  TIP3      OH2             6.3806436938       42.8080990470      -26.5598912983  TIP3      15621           0.0000000000
     96694     16021  TIP3      H1              6.4470721252       42.0866927856      -27.2013175301  TIP3      15621           0.0000000000
     96695     16021  TIP3      H2              6.3036660891       43.6109053747      -27.1162501637  TIP3      15621           0.0000000000
     96696     16022  TIP3      OH2             6.7636506173       41.1842810044      -29.0332211224  TIP3      15622           0.0000000000
     96697     16022  TIP3      H1              7.2658528090       41.6485942942      -29.7410843792  TIP3      15622           0.0000000000
     96698     16022  TIP3      H2              5.8731451949       41.0901221343      -29.4613241765  TIP3      15622           0.0000000000
     96699     16023  TIP3      OH2             8.3119150542       46.6408711306      -28.8091306910  TIP3      15623           0.0000000000
     96700     16023  TIP3      H1              9.0634189132       46.4850716934      -29.3899027563  TIP3      15623           0.0000000000
     96701     16023  TIP3      H2              7.9626179723       47.4933744666      -29.1127244510  TIP3      15623           0.0000000000
     96702     16024  TIP3      OH2            12.6928753222       44.4325300892      -23.8333634417  TIP3      15624           0.0000000000
     96703     16024  TIP3      H1             12.9479828645       43.5073052165      -23.8990745443  TIP3      15624           0.0000000000
     96704     16024  TIP3      H2             13.5721905579       44.8706985657      -23.8001699991  TIP3      15624           0.0000000000
     96705     16025  TIP3      OH2            14.0264496027       47.2055001704      -25.7262252217  TIP3      15625           0.0000000000
     96706     16025  TIP3      H1             13.7808050812       47.9547991308      -26.3063056011  TIP3      15625           0.0000000000
     96707     16025  TIP3      H2             14.9949414188       47.1774732619      -25.8732814867  TIP3      15625           0.0000000000
     96708     16026  TIP3      OH2             4.7859867691       44.0830301251      -24.6917128152  TIP3      15626           0.0000000000
     96709     16026  TIP3      H1              4.0450574306       43.4649571148      -24.8304451105  TIP3      15626           0.0000000000
     96710     16026  TIP3      H2              5.4747982795       43.6796107961      -25.2419945562  TIP3      15626           0.0000000000
     96711     16027  TIP3      OH2             7.5621040259       38.6405764948      -28.6200220122  TIP3      15627           0.0000000000
     96712     16027  TIP3      H1              7.3962265587       39.5973477869      -28.7536233905  TIP3      15627           0.0000000000
     96713     16027  TIP3      H2              6.7991205335       38.2690173852      -29.1203336714  TIP3      15627           0.0000000000
     96714     16028  TIP3      OH2             8.8435663016       42.8980632807      -25.0773620812  TIP3      15628           0.0000000000
     96715     16028  TIP3      H1              8.5284881938       42.7570489545      -24.1538362683  TIP3      15628           0.0000000000
     96716     16028  TIP3      H2              7.9922630940       42.7669963776      -25.5535439261  TIP3      15628           0.0000000000
     96717     16029  TIP3      OH2            11.5995011473       42.1892895185      -25.8770321749  TIP3      15629           0.0000000000
     96718     16029  TIP3      H1             10.6354943457       42.2329183923      -25.7723520430  TIP3      15629           0.0000000000
     96719     16029  TIP3      H2             11.8723683757       41.4750185362      -25.2620369400  TIP3      15629           0.0000000000
     96720     16030  TIP3      OH2            13.1108967274       40.7292916858      -24.0341572876  TIP3      15630           0.0000000000
     96721     16030  TIP3      H1             13.0675124448       39.7541717846      -23.9866425111  TIP3      15630           0.0000000000
     96722     16030  TIP3      H2             12.8621269826       41.0022500651      -23.1155245019  TIP3      15630           0.0000000000
     96723     16031  TIP3      OH2             2.9222625808       41.9639215855      -24.9548132558  TIP3      15631           0.0000000000
     96724     16031  TIP3      H1              3.1926179619       41.2341759404      -25.5373505689  TIP3      15631           0.0000000000
     96725     16031  TIP3      H2              2.8710066553       41.5183025337      -24.0780411537  TIP3      15631           0.0000000000
     96726     16032  TIP3      OH2             7.7787952621       37.9929735094      -25.9470303499  TIP3      15632           0.0000000000
     96727     16032  TIP3      H1              8.4589648962       37.2934432644      -25.9728145513  TIP3      15632           0.0000000000
     96728     16032  TIP3      H2              7.6479134967       38.1822599969      -26.8847059148  TIP3      15632           0.0000000000
     96729     16033  TIP3      OH2             1.1946436259       51.1393063876      -41.2231772844  TIP3      15633           0.0000000000
     96730     16033  TIP3      H1              2.1474061216       51.2239230389      -40.9827286513  TIP3      15633           0.0000000000
     96731     16033  TIP3      H2              1.2285241299       50.4833266181      -41.9266980861  TIP3      15633           0.0000000000
     96732     16034  TIP3      OH2             0.7787783052       54.8180487041      -34.2785233108  TIP3      15634           0.0000000000
     96733     16034  TIP3      H1              0.4341050647       53.9801420902      -33.9982781105  TIP3      15634           0.0000000000
     96734     16034  TIP3      H2              1.0257780805       55.0694733339      -33.3703244901  TIP3      15634           0.0000000000
     96735     16035  TIP3      OH2            18.2885494008       55.4252089765      -31.4012997413  TIP3      15635           0.0000000000
     96736     16035  TIP3      H1             18.2955694432       55.6065321725      -30.4464160394  TIP3      15635           0.0000000000
     96737     16035  TIP3      H2             18.9935374530       55.9951390609      -31.7226338930  TIP3      15635           0.0000000000
     96738     16036  TIP3      OH2            17.8700917349       54.9945703793      -28.4792388200  TIP3      15636           0.0000000000
     96739     16036  TIP3      H1             17.3804654929       54.2380941490      -28.8484921233  TIP3      15636           0.0000000000
     96740     16036  TIP3      H2             18.3984815193       54.5788087480      -27.7802023922  TIP3      15636           0.0000000000
     96741     16037  TIP3      OH2            16.3070550433       50.7712742871      -23.8369319763  TIP3      15637           0.0000000000
     96742     16037  TIP3      H1             15.4317479236       50.6790208804      -23.4198334396  TIP3      15637           0.0000000000
     96743     16037  TIP3      H2             16.6873670447       51.5498785744      -23.3709615726  TIP3      15637           0.0000000000
     96744     16038  TIP3      OH2            17.6156816301       49.0483979709      -38.3455477562  TIP3      15638           0.0000000000
     96745     16038  TIP3      H1             18.4728528848       49.4690126092      -38.1805590753  TIP3      15638           0.0000000000
     96746     16038  TIP3      H2             17.6192777204       48.3218553278      -37.6940141180  TIP3      15638           0.0000000000
     96747     16039  TIP3      OH2            18.0029089414       47.0730847186      -36.4975867340  TIP3      15639           0.0000000000
     96748     16039  TIP3      H1             17.2360252057       46.6658211049      -36.0691607469  TIP3      15639           0.0000000000
     96749     16039  TIP3      H2             18.5910421636       47.3127814950      -35.7436256725  TIP3      15639           0.0000000000
     96750     16040  TIP3      OH2            17.7478586655       49.8553292303      -31.5181296802  TIP3      15640           0.0000000000
     96751     16040  TIP3      H1             18.5888381870       49.4914220656      -31.8500178060  TIP3      15640           0.0000000000
     96752     16040  TIP3      H2             17.8851290544       50.8177418299      -31.6688573350  TIP3      15640           0.0000000000
     96753     16041  TIP3      OH2            16.2780018644       52.7432990411      -29.2174846589  TIP3      15641           0.0000000000
     96754     16041  TIP3      H1             15.5991876925       53.1017978840      -28.6309791521  TIP3      15641           0.0000000000
     96755     16041  TIP3      H2             15.7344273583       52.3280786395      -29.9247865632  TIP3      15641           0.0000000000
     96756     16042  TIP3      OH2            18.2657020001       46.9609578485      -40.0828383667  TIP3      15642           0.0000000000
     96757     16042  TIP3      H1             17.7392338211       47.3433101994      -40.8229551649  TIP3      15642           0.0000000000
     96758     16042  TIP3      H2             18.2266172182       47.6897905734      -39.4360588932  TIP3      15642           0.0000000000
     96759     16043  TIP3      OH2            16.4105000629       44.2485117391      -41.4584134438  TIP3      15643           0.0000000000
     96760     16043  TIP3      H1             16.7167180297       44.8597756631      -42.1762020220  TIP3      15643           0.0000000000
     96761     16043  TIP3      H2             16.4817882630       43.4318431414      -42.0030930935  TIP3      15643           0.0000000000
     96762     16044  TIP3      OH2            15.7555433997       45.6459929755      -35.9140972736  TIP3      15644           0.0000000000
     96763     16044  TIP3      H1             15.5525563389       44.6990340097      -35.9223358397  TIP3      15644           0.0000000000
     96764     16044  TIP3      H2             15.4182000198       45.9022532675      -35.0317635844  TIP3      15644           0.0000000000
     96765     16045  TIP3      OH2             0.8113031771       47.7030388946      -31.8845654614  TIP3      15645           0.0000000000
     96766     16045  TIP3      H1              1.0110568758       47.6099911546      -32.8418363220  TIP3      15645           0.0000000000
     96767     16045  TIP3      H2              1.6964652461       47.5542419505      -31.4994388899  TIP3      15645           0.0000000000
     96768     16046  TIP3      OH2            16.6388747950       47.5861427958      -26.2580773253  TIP3      15646           0.0000000000
     96769     16046  TIP3      H1             17.2543338253       46.8331206504      -26.1000500222  TIP3      15646           0.0000000000
     96770     16046  TIP3      H2             17.2407082009       48.3577757395      -26.2411015032  TIP3      15646           0.0000000000
     96771     16047  TIP3      OH2            18.1173287471       45.5017111427      -25.4388230722  TIP3      15647           0.0000000000
     96772     16047  TIP3      H1             17.2845987521       45.0963591546      -25.7592312244  TIP3      15647           0.0000000000
     96773     16047  TIP3      H2             18.7298667074       44.7737829473      -25.7125374522  TIP3      15647           0.0000000000
     96774     16048  TIP3      OH2            15.8841845669       41.6340904736      -42.4493155632  TIP3      15648           0.0000000000
     96775     16048  TIP3      H1             16.4879314973       41.2497571353      -41.7932181730  TIP3      15648           0.0000000000
     96776     16048  TIP3      H2             15.0221285529       41.2442460938      -42.2459556720  TIP3      15648           0.0000000000
     96777     16049  TIP3      OH2            15.5240156921       43.2261665527      -37.4074787637  TIP3      15649           0.0000000000
     96778     16049  TIP3      H1             15.7651085354       42.2631923367      -37.3533196801  TIP3      15649           0.0000000000
     96779     16049  TIP3      H2             16.2380690907       43.5932915829      -37.9286794796  TIP3      15649           0.0000000000
     96780     16050  TIP3      OH2            16.1073514158       43.7372726370      -32.0408454727  TIP3      15650           0.0000000000
     96781     16050  TIP3      H1             17.0600355184       43.9993910588      -32.0375354034  TIP3      15650           0.0000000000
     96782     16050  TIP3      H2             15.8942679616       43.8974212880      -31.0973418615  TIP3      15650           0.0000000000
     96783     16051  TIP3      OH2            16.1368731318       44.4830404729      -29.2827961325  TIP3      15651           0.0000000000
     96784     16051  TIP3      H1             15.2990628183       44.7894807315      -28.8881597104  TIP3      15651           0.0000000000
     96785     16051  TIP3      H2             16.6151545288       45.3359948165      -29.4468991459  TIP3      15651           0.0000000000
     96786     16052  TIP3      OH2             0.4179366444       42.9896646831      -25.7621481404  TIP3      15652           0.0000000000
     96787     16052  TIP3      H1              1.3529753887       42.8209225696      -25.5259995021  TIP3      15652           0.0000000000
     96788     16052  TIP3      H2             -0.0257544148       42.1957907208      -25.3918302801  TIP3      15652           0.0000000000
     96789     16053  TIP3      OH2            18.4408032260       38.4889400139      -23.8847819621  TIP3      15653           0.0000000000
     96790     16053  TIP3      H1             18.7874631588       37.8494781372      -24.5170966439  TIP3      15653           0.0000000000
     96791     16053  TIP3      H2             18.5649311692       39.3458173540      -24.3514929242  TIP3      15653           0.0000000000
     96792     16054  TIP3      OH2            16.1285924765       40.4956135871      -37.4071139293  TIP3      15654           0.0000000000
     96793     16054  TIP3      H1             16.3182953965       40.0123362779      -36.5768251190  TIP3      15654           0.0000000000
     96794     16054  TIP3      H2             15.5234370892       39.8641999611      -37.8751288701  TIP3      15654           0.0000000000
     96795     16055  TIP3      OH2             1.6299145200       41.2877218298      -32.8779563190  TIP3      15655           0.0000000000
     96796     16055  TIP3      H1              2.0945470574       40.4776009383      -32.5849585177  TIP3      15655           0.0000000000
     96797     16055  TIP3      H2              2.1359908083       41.9956690454      -32.4564444198  TIP3      15655           0.0000000000
     96798     16056  TIP3      OH2            -0.0788765082       44.2763278033      -31.8108454487  TIP3      15656           0.0000000000
     96799     16056  TIP3      H1              0.4631720519       44.0576443852      -32.5981476944  TIP3      15656           0.0000000000
     96800     16056  TIP3      H2              0.3400235177       45.1095500942      -31.5441600675  TIP3      15656           0.0000000000
     96801     16057  TIP3      OH2            17.9609313940       40.5907342486      -25.5318690794  TIP3      15657           0.0000000000
     96802     16057  TIP3      H1             17.0304465988       40.8948552124      -25.5845176136  TIP3      15657           0.0000000000
     96803     16057  TIP3      H2             18.0462714898       40.0815790757      -26.3391890528  TIP3      15657           0.0000000000
     96804     16058  TIP3      OH2            17.9626603393       40.5387653005      -40.8493046526  TIP3      15658           0.0000000000
     96805     16058  TIP3      H1             18.3935714918       39.8269984355      -41.3598766087  TIP3      15658           0.0000000000
     96806     16058  TIP3      H2             18.6812467314       41.1952392480      -40.8415867690  TIP3      15658           0.0000000000
     96807     16059  TIP3      OH2             0.2726295452       40.5393934408      -37.7563490075  TIP3      15659           0.0000000000
     96808     16059  TIP3      H1             -0.6651711871       40.7469954739      -37.8891081524  TIP3      15659           0.0000000000
     96809     16059  TIP3      H2              0.7092488475       41.0357142956      -38.4659503695  TIP3      15659           0.0000000000
     96810     16060  TIP3      OH2            15.0273272105       55.5232491958      -35.8389984354  TIP3      15660           0.0000000000
     96811     16060  TIP3      H1             15.7154197817       55.1581641708      -36.4188366889  TIP3      15660           0.0000000000
     96812     16060  TIP3      H2             15.5350370319       56.0018628929      -35.1603181638  TIP3      15660           0.0000000000
     96813     16061  TIP3      OH2             0.2357488161       39.2475665983      -29.4286430519  TIP3      15661           0.0000000000
     96814     16061  TIP3      H1             -0.4444736749       39.0265922020      -28.7693523871  TIP3      15661           0.0000000000
     96815     16061  TIP3      H2             -0.2276798934       39.9005221439      -29.9955409199  TIP3      15661           0.0000000000
     96816     16062  TIP3      OH2             2.4401052919       52.4442658296      -25.2711317737  TIP3      15662           0.0000000000
     96817     16062  TIP3      H1              1.6011244433       52.6202601242      -25.7265490517  TIP3      15662           0.0000000000
     96818     16062  TIP3      H2              2.1636702841       52.3834171010      -24.3491029400  TIP3      15662           0.0000000000
     96819     16063  TIP3      OH2             5.3546643481       53.4094110525      -29.0043974651  TIP3      15663           0.0000000000
     96820     16063  TIP3      H1              4.9830320171       54.2532419135      -29.2904412065  TIP3      15663           0.0000000000
     96821     16063  TIP3      H2              6.2825344689       53.5087265205      -29.3183672081  TIP3      15663           0.0000000000
     96822     16064  TIP3      OH2             9.6961643962       54.8080608740      -26.0880041545  TIP3      15664           0.0000000000
     96823     16064  TIP3      H1              9.8590570294       54.4950744981      -25.1643142806  TIP3      15664           0.0000000000
     96824     16064  TIP3      H2             10.5641853666       55.1416242055      -26.3693258208  TIP3      15664           0.0000000000
     96825     16065  TIP3      OH2            11.9928710122       56.0952384627      -26.8055731674  TIP3      15665           0.0000000000
     96826     16065  TIP3      H1             12.7149372205       55.4942532407      -27.0502628923  TIP3      15665           0.0000000000
     96827     16065  TIP3      H2             12.3522151635       56.5014324934      -25.9923241987  TIP3      15665           0.0000000000
     96828     16066  TIP3      OH2            17.0003392027       38.7556080789      -27.7764601907  TIP3      15666           0.0000000000
     96829     16066  TIP3      H1             16.1030502430       38.9991448624      -28.0760255421  TIP3      15666           0.0000000000
     96830     16066  TIP3      H2             17.1516767564       37.8804047936      -28.2085740293  TIP3      15666           0.0000000000
     96831     16067  TIP3      OH2             5.2300608456      -56.6020874205      -29.8948637397  TIP3      15667           0.0000000000
     96832     16067  TIP3      H1              4.3556007285      -56.4644259437      -29.5325606511  TIP3      15667           0.0000000000
     96833     16067  TIP3      H2              5.2040823031      -56.0300712059      -30.7072183234  TIP3      15667           0.0000000000
     96834     16068  TIP3      OH2             9.7353403793      -56.8325069770      -30.4483458510  TIP3      15668           0.0000000000
     96835     16068  TIP3      H1              9.5473856302      -56.2779565361      -31.2988230159  TIP3      15668           0.0000000000
     96836     16068  TIP3      H2             10.1282402614      -56.0520615542      -29.9975755164  TIP3      15668           0.0000000000
     96837     16069  TIP3      OH2            12.2734655629       55.0082434274      -29.7765361369  TIP3      15669           0.0000000000
     96838     16069  TIP3      H1             11.3803808731       55.2263688671      -30.1037248941  TIP3      15669           0.0000000000
     96839     16069  TIP3      H2             12.6955777089       55.8718036246      -29.8921526966  TIP3      15669           0.0000000000
     96840     16070  TIP3      OH2             2.1900097859       55.2497465348      -32.0630129954  TIP3      15670           0.0000000000
     96841     16070  TIP3      H1              2.1686991856       54.8581829908      -31.1649486786  TIP3      15670           0.0000000000
     96842     16070  TIP3      H2              3.0379575143       54.9535113523      -32.4516348956  TIP3      15670           0.0000000000
     96843     16071  TIP3      OH2             4.2989288065       54.0246583951      -33.4120708759  TIP3      15671           0.0000000000
     96844     16071  TIP3      H1              4.1427717754       53.0853230700      -33.2140502237  TIP3      15671           0.0000000000
     96845     16071  TIP3      H2              5.1677963111       54.1546970789      -32.9504852270  TIP3      15671           0.0000000000
     96846     16072  TIP3      OH2             6.8578984448       54.4733082509      -32.5399637520  TIP3      15672           0.0000000000
     96847     16072  TIP3      H1              7.0986776618       53.5778509081      -32.8198975580  TIP3      15672           0.0000000000
     96848     16072  TIP3      H2              6.9554877749       54.4437536302      -31.5839096416  TIP3      15672           0.0000000000
     96849     16073  TIP3      OH2            10.3798269070       40.1522181508      -33.4004615762  TIP3      15673           0.0000000000
     96850     16073  TIP3      H1              9.7018701794       39.5067350206      -33.1426756075  TIP3      15673           0.0000000000
     96851     16073  TIP3      H2             10.9365633002       39.6408339355      -34.0016518391  TIP3      15673           0.0000000000
     96852     16074  TIP3      OH2            15.5208395279       38.2429156768      -33.2774704584  TIP3      15674           0.0000000000
     96853     16074  TIP3      H1             16.1288736914       38.7986107657      -33.8320307532  TIP3      15674           0.0000000000
     96854     16074  TIP3      H2             14.6382479099       38.5635716881      -33.5565046427  TIP3      15674           0.0000000000
     96855     16075  TIP3      OH2            17.2137029835       39.4099098738      -34.9790928054  TIP3      15675           0.0000000000
     96856     16075  TIP3      H1             17.8660875500       38.8604151320      -35.4876278838  TIP3      15675           0.0000000000
     96857     16075  TIP3      H2             17.6631436173       40.2768375517      -34.9534827990  TIP3      15675           0.0000000000
     96858     16076  TIP3      OH2             2.7281003114       38.7874604078      -35.5692709639  TIP3      15676           0.0000000000
     96859     16076  TIP3      H1              1.9351749248       38.5534932403      -36.0892474991  TIP3      15676           0.0000000000
     96860     16076  TIP3      H2              3.2266846691       37.9509795474      -35.5945850449  TIP3      15676           0.0000000000
     96861     16077  TIP3      OH2             1.5241510004       38.5519697723      -39.7992506459  TIP3      15677           0.0000000000
     96862     16077  TIP3      H1              1.9902371843       39.1874037271      -40.3772716647  TIP3      15677           0.0000000000
     96863     16077  TIP3      H2              0.9220482583       39.1196585162      -39.2934524395  TIP3      15677           0.0000000000
     96864     16078  TIP3      OH2             7.2549095070       38.7017766296      -35.7743894560  TIP3      15678           0.0000000000
     96865     16078  TIP3      H1              8.1508091542       39.0827768845      -35.8111576523  TIP3      15678           0.0000000000
     96866     16078  TIP3      H2              7.1661989191       38.4912856383      -34.8446462394  TIP3      15678           0.0000000000
     96867     16079  TIP3      OH2            12.8807790885       38.7361626134      -34.1265974863  TIP3      15679           0.0000000000
     96868     16079  TIP3      H1             12.9054577471       38.8280293557      -35.0844059849  TIP3      15679           0.0000000000
     96869     16079  TIP3      H2             12.5535174902       37.8143175092      -34.0010445523  TIP3      15679           0.0000000000
     96870     16080  TIP3      OH2            14.2068369932       38.7624531771      -38.4513955304  TIP3      15680           0.0000000000
     96871     16080  TIP3      H1             13.4763094104       39.3681503823      -38.6406268293  TIP3      15680           0.0000000000
     96872     16080  TIP3      H2             13.7498648673       37.9056754238      -38.2849467508  TIP3      15680           0.0000000000
     96873     16081  TIP3      OH2             1.4381314681       54.4869145626      -38.8171464712  TIP3      15681           0.0000000000
     96874     16081  TIP3      H1              0.7698657393       54.4883027001      -39.5442453867  TIP3      15681           0.0000000000
     96875     16081  TIP3      H2              1.4500013893       55.4439050678      -38.6421462432  TIP3      15681           0.0000000000
     96876     16082  TIP3      OH2             3.3712107485       40.4588804677      -41.3237189005  TIP3      15682           0.0000000000
     96877     16082  TIP3      H1              3.8925640303       39.8650378354      -41.8589408408  TIP3      15682           0.0000000000
     96878     16082  TIP3      H2              4.0227653450       40.8011396048      -40.6863364254  TIP3      15682           0.0000000000
     96879     16083  TIP3      OH2             8.4035271448       40.7523016931      -38.9108252229  TIP3      15683           0.0000000000
     96880     16083  TIP3      H1              8.6212374437       40.1452789218      -38.1837460514  TIP3      15683           0.0000000000
     96881     16083  TIP3      H2              8.4023714739       41.6078989052      -38.4179877522  TIP3      15683           0.0000000000
     96882     16084  TIP3      OH2            10.2820572639       55.9126207529      -40.3994906605  TIP3      15684           0.0000000000
     96883     16084  TIP3      H1             11.1939095776       56.0795198846      -40.6649265074  TIP3      15684           0.0000000000
     96884     16084  TIP3      H2             10.0765303483       55.3490972484      -41.2015274554  TIP3      15684           0.0000000000
     96885     16085  TIP3      OH2            17.0163720919       55.2958405994      -37.7644957995  TIP3      15685           0.0000000000
     96886     16085  TIP3      H1             16.8201458086       54.5260966208      -38.3574634959  TIP3      15685           0.0000000000
     96887     16085  TIP3      H2             16.9643962726       56.0436237455      -38.3851699827  TIP3      15685           0.0000000000
     96888     16086  TIP3      OH2             2.6304638310       39.3073855767      -26.1001947670  TIP3      15686           0.0000000000
     96889     16086  TIP3      H1              2.2945439550       38.5272688635      -25.6245752646  TIP3      15686           0.0000000000
     96890     16086  TIP3      H2              3.5610612843       39.3022497670      -25.7626649550  TIP3      15686           0.0000000000
     96891     16087  TIP3      OH2             4.6150368913       38.6496865922      -24.5316700018  TIP3      15687           0.0000000000
     96892     16087  TIP3      H1              5.5369025617       38.3635185289      -24.6977698476  TIP3      15687           0.0000000000
     96893     16087  TIP3      H2              4.2597183398       37.8800020347      -24.0532479893  TIP3      15687           0.0000000000
     96894     16088  TIP3      OH2             3.2749869003       55.4520401989      -41.8551208807  TIP3      15688           0.0000000000
     96895     16088  TIP3      H1              2.9749107595       55.7302213417      -40.9783132642  TIP3      15688           0.0000000000
     96896     16088  TIP3      H2              4.0261074746       54.8922286447      -41.6979066767  TIP3      15688           0.0000000000
     96897     16089  TIP3      OH2            13.0480768165       37.9954071511      -24.3439397369  TIP3      15689           0.0000000000
     96898     16089  TIP3      H1             13.1387432799       37.5441516015      -23.4782266487  TIP3      15689           0.0000000000
     96899     16089  TIP3      H2             13.9673115261       37.9701698877      -24.6816489953  TIP3      15689           0.0000000000
     96900     16090  TIP3      OH2            16.2450454028       54.0413922216      -25.6417202166  TIP3      15690           0.0000000000
     96901     16090  TIP3      H1             15.4469864333       53.8765892507      -26.1887674702  TIP3      15690           0.0000000000
     96902     16090  TIP3      H2             16.1623019030       54.9835487920      -25.4577947210  TIP3      15690           0.0000000000
     96903     16091  TIP3      OH2            30.6655540348       47.9171200592      -35.6510692139  TIP3      15691           0.0000000000
     96904     16091  TIP3      H1             30.7090647358       48.8920658980      -35.7505877320  TIP3      15691           0.0000000000
     96905     16091  TIP3      H2             29.9824058076       47.6701386674      -36.2930430645  TIP3      15691           0.0000000000
     96906     16092  TIP3      OH2            29.5587959177       47.1902411506      -32.1934291246  TIP3      15692           0.0000000000
     96907     16092  TIP3      H1             29.5320318394       46.5319128239      -31.4924627884  TIP3      15692           0.0000000000
     96908     16092  TIP3      H2             29.2344407594       46.7011086227      -32.9684981042  TIP3      15692           0.0000000000
     96909     16093  TIP3      OH2            21.9261700757       46.8194019528      -30.6474613183  TIP3      15693           0.0000000000
     96910     16093  TIP3      H1             21.9764020983       46.1699423353      -29.9066923108  TIP3      15693           0.0000000000
     96911     16093  TIP3      H2             22.6455845890       47.4210060629      -30.4175556454  TIP3      15693           0.0000000000
     96912     16094  TIP3      OH2            33.2657490583       50.1216814823      -33.9164876717  TIP3      15694           0.0000000000
     96913     16094  TIP3      H1             32.8284005210       49.4082184853      -33.4398991942  TIP3      15694           0.0000000000
     96914     16094  TIP3      H2             33.2621628483       50.8399961723      -33.2554040475  TIP3      15694           0.0000000000
     96915     16095  TIP3      OH2            22.8447669065       51.2789237069      -32.0968803127  TIP3      15695           0.0000000000
     96916     16095  TIP3      H1             22.5066744341       50.4378130629      -32.4540209983  TIP3      15695           0.0000000000
     96917     16095  TIP3      H2             23.7983188590       51.0851431050      -32.0552998892  TIP3      15695           0.0000000000
     96918     16096  TIP3      OH2            19.4521510867       44.8710435243      -36.6400926573  TIP3      15696           0.0000000000
     96919     16096  TIP3      H1             19.0698996672       45.7800809465      -36.7236635676  TIP3      15696           0.0000000000
     96920     16096  TIP3      H2             18.9722545671       44.3307309344      -37.2736581430  TIP3      15696           0.0000000000
     96921     16097  TIP3      OH2            20.1629788516       47.0649184947      -34.5594699939  TIP3      15697           0.0000000000
     96922     16097  TIP3      H1             20.4320175871       46.2897027708      -34.0332519745  TIP3      15697           0.0000000000
     96923     16097  TIP3      H2             20.9166064751       47.1775683453      -35.1612299292  TIP3      15697           0.0000000000
     96924     16098  TIP3      OH2            30.3306704103       55.2256038434      -33.6941067171  TIP3      15698           0.0000000000
     96925     16098  TIP3      H1             31.0035116026       54.5489097647      -33.9581726504  TIP3      15698           0.0000000000
     96926     16098  TIP3      H2             30.1712838739       54.9817170899      -32.7839182643  TIP3      15698           0.0000000000
     96927     16099  TIP3      OH2            27.9355526881       49.6069194745      -31.7721015995  TIP3      15699           0.0000000000
     96928     16099  TIP3      H1             28.2709243682       48.9392976615      -32.3921930875  TIP3      15699           0.0000000000
     96929     16099  TIP3      H2             28.7080475682       49.7353868835      -31.1951708204  TIP3      15699           0.0000000000
     96930     16100  TIP3      OH2            36.5761055550       41.2131481625      -30.9632413752  TIP3      15700           0.0000000000
     96931     16100  TIP3      H1             36.6904373447       41.8361189750      -30.2138576647  TIP3      15700           0.0000000000
     96932     16100  TIP3      H2             37.0676045146       41.6719031917      -31.6576257218  TIP3      15700           0.0000000000
     96933     16101  TIP3      OH2            31.0973382196       44.0396634048      -31.4374063483  TIP3      15701           0.0000000000
     96934     16101  TIP3      H1             31.2468555093       43.0736953550      -31.4446963026  TIP3      15701           0.0000000000
     96935     16101  TIP3      H2             30.9929052713       44.2021453049      -32.3977649446  TIP3      15701           0.0000000000
     96936     16102  TIP3      OH2            24.2390985598       42.1227972870      -34.1885718799  TIP3      15702           0.0000000000
     96937     16102  TIP3      H1             24.3035906761       42.9764771041      -34.6469612299  TIP3      15702           0.0000000000
     96938     16102  TIP3      H2             23.7999165283       41.5597849686      -34.8604293063  TIP3      15702           0.0000000000
     96939     16103  TIP3      OH2            31.9550740307       42.2313508459      -35.8159283879  TIP3      15703           0.0000000000
     96940     16103  TIP3      H1             32.6246800556       41.9110437395      -35.1653011742  TIP3      15703           0.0000000000
     96941     16103  TIP3      H2             32.5040942005       42.7751726833      -36.4023554909  TIP3      15703           0.0000000000
     96942     16104  TIP3      OH2            20.8419407514       44.5295729090      -33.4603540149  TIP3      15704           0.0000000000
     96943     16104  TIP3      H1             21.5198456529       43.9779698263      -33.0008700909  TIP3      15704           0.0000000000
     96944     16104  TIP3      H2             20.9343013669       44.2264534553      -34.3688430590  TIP3      15704           0.0000000000
     96945     16105  TIP3      OH2            26.0168886150       46.0897237953      -34.1900749346  TIP3      15705           0.0000000000
     96946     16105  TIP3      H1             26.6550214935       45.5209034172      -33.7269615428  TIP3      15705           0.0000000000
     96947     16105  TIP3      H2             25.4573524624       45.4219050677      -34.6366031356  TIP3      15705           0.0000000000
     96948     16106  TIP3      OH2            37.0030394614       42.6735676552      -28.7165658273  TIP3      15706           0.0000000000
     96949     16106  TIP3      H1             36.3340402201       43.3826711848      -28.8069623445  TIP3      15706           0.0000000000
     96950     16106  TIP3      H2             37.0207387648       42.5195807648      -27.7610132279  TIP3      15706           0.0000000000
     96951     16107  TIP3      OH2            23.0868964652       41.0135001880      -30.1458478183  TIP3      15707           0.0000000000
     96952     16107  TIP3      H1             22.8417906103       41.5905900935      -30.8951457655  TIP3      15707           0.0000000000
     96953     16107  TIP3      H2             22.4095013061       41.2748777310      -29.4686756723  TIP3      15707           0.0000000000
     96954     16108  TIP3      OH2            30.4303066076       50.5203867042      -36.5885806379  TIP3      15708           0.0000000000
     96955     16108  TIP3      H1             30.1333714252       50.2173660364      -37.4556679367  TIP3      15708           0.0000000000
     96956     16108  TIP3      H2             30.1019638945       51.4442461560      -36.5496150144  TIP3      15708           0.0000000000
     96957     16109  TIP3      OH2            25.6369914160       48.6826093172      -29.8695095255  TIP3      15709           0.0000000000
     96958     16109  TIP3      H1             24.9009203598       49.3159549773      -29.7169405262  TIP3      15709           0.0000000000
     96959     16109  TIP3      H2             26.3424486426       49.2735638028      -30.1728496218  TIP3      15709           0.0000000000
     96960     16110  TIP3      OH2            33.7377231810       41.5496576173      -33.8279793874  TIP3      15710           0.0000000000
     96961     16110  TIP3      H1             33.5323463901       40.7788679661      -33.2884247483  TIP3      15710           0.0000000000
     96962     16110  TIP3      H2             34.4101995606       42.0032375698      -33.2916576619  TIP3      15710           0.0000000000
     96963     16111  TIP3      OH2            22.6562830385       42.9050436988      -32.1620784354  TIP3      15711           0.0000000000
     96964     16111  TIP3      H1             23.2924428390       43.5690272059      -31.8038344624  TIP3      15711           0.0000000000
     96965     16111  TIP3      H2             23.1966051304       42.4578827229      -32.8533426786  TIP3      15711           0.0000000000
     96966     16112  TIP3      OH2            24.0681840743       50.6617746696      -29.0726861678  TIP3      15712           0.0000000000
     96967     16112  TIP3      H1             24.0320773284       51.5680351463      -29.4325125422  TIP3      15712           0.0000000000
     96968     16112  TIP3      H2             23.1816327104       50.5960088898      -28.6329334712  TIP3      15712           0.0000000000
     96969     16113  TIP3      OH2            20.1522238071       50.3135392683      -38.2834236929  TIP3      15713           0.0000000000
     96970     16113  TIP3      H1             19.9044070867       50.5943734678      -39.1840941488  TIP3      15713           0.0000000000
     96971     16113  TIP3      H2             20.2141530415       51.1695052359      -37.8023647259  TIP3      15713           0.0000000000
     96972     16114  TIP3      OH2            33.7871816867       51.9562113269      -31.5513155272  TIP3      15714           0.0000000000
     96973     16114  TIP3      H1             32.8214947781       52.0471270947      -31.4094372934  TIP3      15714           0.0000000000
     96974     16114  TIP3      H2             34.0533461535       52.8828351249      -31.7194254118  TIP3      15714           0.0000000000
     96975     16115  TIP3      OH2            34.0908645105       40.2486197936      -30.1425691273  TIP3      15715           0.0000000000
     96976     16115  TIP3      H1             33.3558752967       40.8718408074      -30.2040645985  TIP3      15715           0.0000000000
     96977     16115  TIP3      H2             34.7872017141       40.6705510098      -30.6764820314  TIP3      15715           0.0000000000
     96978     16116  TIP3      OH2            27.0858635124       38.3541969428      -32.6868005681  TIP3      15716           0.0000000000
     96979     16116  TIP3      H1             26.9574059492       37.3875513041      -32.7422168875  TIP3      15716           0.0000000000
     96980     16116  TIP3      H2             26.2097484657       38.6700289496      -32.3933294002  TIP3      15716           0.0000000000
     96981     16117  TIP3      OH2            32.0231287177       53.7283586012      -34.9351232126  TIP3      15717           0.0000000000
     96982     16117  TIP3      H1             32.4721266955       53.0227355524      -35.4379736683  TIP3      15717           0.0000000000
     96983     16117  TIP3      H2             32.3993848103       54.5369971831      -35.3491059216  TIP3      15717           0.0000000000
     96984     16118  TIP3      OH2            33.2147736118       51.6637183523      -36.4342621565  TIP3      15718           0.0000000000
     96985     16118  TIP3      H1             32.9407740255       50.9594330359      -37.0452190259  TIP3      15718           0.0000000000
     96986     16118  TIP3      H2             33.2694736332       51.1832859551      -35.5866039514  TIP3      15718           0.0000000000
     96987     16119  TIP3      OH2            34.8914983214       50.2299865050      -27.9320704802  TIP3      15719           0.0000000000
     96988     16119  TIP3      H1             35.0108903688       49.6167071859      -28.6892106650  TIP3      15719           0.0000000000
     96989     16119  TIP3      H2             35.0561452079       51.0964849989      -28.3347106391  TIP3      15719           0.0000000000
     96990     16120  TIP3      OH2            29.3534474482       47.1684933663      -38.1670345717  TIP3      15720           0.0000000000
     96991     16120  TIP3      H1             28.6472288116       47.7225301116      -38.5488530459  TIP3      15720           0.0000000000
     96992     16120  TIP3      H2             30.0533476339       47.2414847893      -38.8458579723  TIP3      15720           0.0000000000
     96993     16121  TIP3      OH2            29.4000041391       45.6570794061      -41.1245778017  TIP3      15721           0.0000000000
     96994     16121  TIP3      H1             30.1231898539       45.6675594920      -40.4811424892  TIP3      15721           0.0000000000
     96995     16121  TIP3      H2             29.7214482544       45.0195777556      -41.7727965951  TIP3      15721           0.0000000000
     96996     16122  TIP3      OH2            36.7506142793       46.5672022677      -29.8641946938  TIP3      15722           0.0000000000
     96997     16122  TIP3      H1             36.0686559374       47.2681216913      -29.8222508783  TIP3      15722           0.0000000000
     96998     16122  TIP3      H2             37.1985410520       46.7846896505      -30.7010219391  TIP3      15722           0.0000000000
     96999     16123  TIP3      OH2            32.7797667020       47.3847436743      -37.2423363480  TIP3      15723           0.0000000000
     97000     16123  TIP3      H1             32.0334363786       47.6152017170      -36.6405283574  TIP3      15723           0.0000000000
     97001     16123  TIP3      H2             33.2347000315       46.6780184676      -36.7514384968  TIP3      15723           0.0000000000
     97002     16124  TIP3      OH2            32.7049215399       45.5372073144      -28.1476194594  TIP3      15724           0.0000000000
     97003     16124  TIP3      H1             32.7326512912       46.3366222339      -27.5904273630  TIP3      15724           0.0000000000
     97004     16124  TIP3      H2             32.0710150928       45.8408956938      -28.8360093627  TIP3      15724           0.0000000000
     97005     16125  TIP3      OH2            24.4015217290       48.0309748404      -35.3342428973  TIP3      15725           0.0000000000
     97006     16125  TIP3      H1             24.0780271766       47.6349546429      -36.1747757144  TIP3      15725           0.0000000000
     97007     16125  TIP3      H2             25.0134086056       47.3351241469      -34.9991606610  TIP3      15725           0.0000000000
     97008     16126  TIP3      OH2            25.7527294823       51.4493213703      -32.6588933685  TIP3      15726           0.0000000000
     97009     16126  TIP3      H1             25.7006318698       50.8722354028      -33.4327191642  TIP3      15726           0.0000000000
     97010     16126  TIP3      H2             26.5157114689       51.0710919652      -32.1845901050  TIP3      15726           0.0000000000
     97011     16127  TIP3      OH2            24.7578943283       46.7753005433      -31.6974962045  TIP3      15727           0.0000000000
     97012     16127  TIP3      H1             25.3315539028       46.9003658715      -32.4766511977  TIP3      15727           0.0000000000
     97013     16127  TIP3      H2             25.1097725661       47.4339556644      -31.0662808423  TIP3      15727           0.0000000000
     97014     16128  TIP3      OH2            31.1152024305       52.3203396701      -30.9798800129  TIP3      15728           0.0000000000
     97015     16128  TIP3      H1             30.8480192172       52.9684895418      -30.3270970049  TIP3      15728           0.0000000000
     97016     16128  TIP3      H2             30.8851744390       51.4618729434      -30.5442661498  TIP3      15728           0.0000000000
     97017     16129  TIP3      OH2            25.6823359311       51.1941847237      -26.9802626086  TIP3      15729           0.0000000000
     97018     16129  TIP3      H1             25.3168966939       51.9753205176      -26.5197554287  TIP3      15729           0.0000000000
     97019     16129  TIP3      H2             25.0067012612       51.0237718687      -27.6807861839  TIP3      15729           0.0000000000
     97020     16130  TIP3      OH2            31.6422926237       46.5439881119      -39.5616378843  TIP3      15730           0.0000000000
     97021     16130  TIP3      H1             32.2216784837       46.7192466949      -38.7803803856  TIP3      15730           0.0000000000
     97022     16130  TIP3      H2             32.0632705314       47.0505244465      -40.2770965252  TIP3      15730           0.0000000000
     97023     16131  TIP3      OH2            22.6170272627       47.3751383150      -27.7896747060  TIP3      15731           0.0000000000
     97024     16131  TIP3      H1             22.6433418505       48.0355366501      -27.0740268630  TIP3      15731           0.0000000000
     97025     16131  TIP3      H2             21.6877549381       47.4707108016      -28.0706388106  TIP3      15731           0.0000000000
     97026     16132  TIP3      OH2            29.3635767190       53.2782593167      -36.0926039782  TIP3      15732           0.0000000000
     97027     16132  TIP3      H1             29.8420088428       53.5955708068      -35.3194697063  TIP3      15732           0.0000000000
     97028     16132  TIP3      H2             28.8116518842       54.0295493778      -36.3427841514  TIP3      15732           0.0000000000
     97029     16133  TIP3      OH2            23.9279208851       53.2531056148      -26.2304689195  TIP3      15733           0.0000000000
     97030     16133  TIP3      H1             23.8911944784       53.1180965711      -27.1893171823  TIP3      15733           0.0000000000
     97031     16133  TIP3      H2             22.9898048510       53.1346092161      -25.9780421163  TIP3      15733           0.0000000000
     97032     16134  TIP3      OH2            35.3640547796       38.2928354099      -39.7126120141  TIP3      15734           0.0000000000
     97033     16134  TIP3      H1             34.4238184382       38.4282285101      -39.4342440115  TIP3      15734           0.0000000000
     97034     16134  TIP3      H2             35.5940894520       39.1429048122      -40.1218362148  TIP3      15734           0.0000000000
     97035     16135  TIP3      OH2            23.3998568248       47.0699194121      -37.7345210634  TIP3      15735           0.0000000000
     97036     16135  TIP3      H1             23.1032381763       47.8490059817      -38.2522713833  TIP3      15735           0.0000000000
     97037     16135  TIP3      H2             22.7294304536       46.4144884183      -37.9342735523  TIP3      15735           0.0000000000
     97038     16136  TIP3      OH2            36.5019680642       52.6440092492      -41.3367100956  TIP3      15736           0.0000000000
     97039     16136  TIP3      H1             36.6099944322       53.6047594504      -41.1853497853  TIP3      15736           0.0000000000
     97040     16136  TIP3      H2             37.4336828991       52.3555444189      -41.4022258335  TIP3      15736           0.0000000000
     97041     16137  TIP3      OH2            19.4858153883       49.4999034677      -28.9062319338  TIP3      15737           0.0000000000
     97042     16137  TIP3      H1             18.9991329069       49.3962520798      -29.7371110099  TIP3      15737           0.0000000000
     97043     16137  TIP3      H2             19.5171990919       48.5483105951      -28.6228990720  TIP3      15737           0.0000000000
     97044     16138  TIP3      OH2            19.2340368016       52.2086575048      -32.0443263870  TIP3      15738           0.0000000000
     97045     16138  TIP3      H1             20.1897130328       52.0887190657      -32.0705112539  TIP3      15738           0.0000000000
     97046     16138  TIP3      H2             19.1423064457       53.0185126446      -31.5252048559  TIP3      15738           0.0000000000
     97047     16139  TIP3      OH2            37.4691319343       52.8901658473      -26.3722222616  TIP3      15739           0.0000000000
     97048     16139  TIP3      H1             37.3617133349       51.9386005637      -26.3995890268  TIP3      15739           0.0000000000
     97049     16139  TIP3      H2             36.6109852764       53.1575977505      -25.9675647109  TIP3      15739           0.0000000000
     97050     16140  TIP3      OH2            28.4291590285       52.4590746270      -27.5032569072  TIP3      15740           0.0000000000
     97051     16140  TIP3      H1             28.5013692209       53.3038368620      -27.0074374904  TIP3      15740           0.0000000000
     97052     16140  TIP3      H2             27.5487511285       52.1324079819      -27.2473573036  TIP3      15740           0.0000000000
     97053     16141  TIP3      OH2            28.8299247097      -56.6389008414      -37.6944052203  TIP3      15741           0.0000000000
     97054     16141  TIP3      H1             28.7744497459      -56.7147636015      -38.6634319930  TIP3      15741           0.0000000000
     97055     16141  TIP3      H2             28.8728341271      -55.6641948108      -37.5546025939  TIP3      15741           0.0000000000
     97056     16142  TIP3      OH2            22.5146300635       55.0290138817      -35.9073708551  TIP3      15742           0.0000000000
     97057     16142  TIP3      H1             22.6406807413       54.6656232990      -35.0064306414  TIP3      15742           0.0000000000
     97058     16142  TIP3      H2             21.6463119095       54.6583058361      -36.1352208347  TIP3      15742           0.0000000000
     97059     16143  TIP3      OH2            31.9135426272       55.4033757688      -40.7075276705  TIP3      15743           0.0000000000
     97060     16143  TIP3      H1             32.3340412061       54.6375049673      -41.1535183352  TIP3      15743           0.0000000000
     97061     16143  TIP3      H2             31.9563024156       55.1221501708      -39.7736429622  TIP3      15743           0.0000000000
     97062     16144  TIP3      OH2            31.5926462197       55.2812723557      -37.9553681395  TIP3      15744           0.0000000000
     97063     16144  TIP3      H1             30.6528772058       55.4201938057      -37.7422774679  TIP3      15744           0.0000000000
     97064     16144  TIP3      H2             31.8784575842       54.5900873361      -37.3484347447  TIP3      15744           0.0000000000
     97065     16145  TIP3      OH2            34.6294582753       44.3842022462      -25.8924822656  TIP3      15745           0.0000000000
     97066     16145  TIP3      H1             34.1743855453       44.8606203876      -26.6055815953  TIP3      15745           0.0000000000
     97067     16145  TIP3      H2             34.6319937465       43.4728540029      -26.2087665370  TIP3      15745           0.0000000000
     97068     16146  TIP3      OH2            21.7458069006       50.7930121722      -27.8950750178  TIP3      15746           0.0000000000
     97069     16146  TIP3      H1             21.9673506510       50.4147585765      -27.0192532047  TIP3      15746           0.0000000000
     97070     16146  TIP3      H2             20.8809737780       50.3841767530      -28.1061848594  TIP3      15746           0.0000000000
     97071     16147  TIP3      OH2            24.4006677066       39.2458721824      -31.9131021524  TIP3      15747           0.0000000000
     97072     16147  TIP3      H1             23.5035917171       39.1545387463      -32.3013054327  TIP3      15747           0.0000000000
     97073     16147  TIP3      H2             24.3200347646       40.1015596907      -31.4648083807  TIP3      15747           0.0000000000
     97074     16148  TIP3      OH2            29.0541992942       38.9566874016      -28.5455666299  TIP3      15748           0.0000000000
     97075     16148  TIP3      H1             29.4520703717       38.5345207472      -27.7605660458  TIP3      15748           0.0000000000
     97076     16148  TIP3      H2             28.0866927950       38.7957158868      -28.4124877558  TIP3      15748           0.0000000000
     97077     16149  TIP3      OH2            32.3646097969       42.7429835772      -27.6811122181  TIP3      15749           0.0000000000
     97078     16149  TIP3      H1             31.8211724816       42.5806987474      -26.8737311174  TIP3      15749           0.0000000000
     97079     16149  TIP3      H2             32.1903712912       43.6668199060      -27.9133574859  TIP3      15749           0.0000000000
     97080     16150  TIP3      OH2            33.1759521851       47.6323593716      -41.8277855258  TIP3      15750           0.0000000000
     97081     16150  TIP3      H1             33.1835902706       47.4051872421      -42.7844530806  TIP3      15750           0.0000000000
     97082     16150  TIP3      H2             34.0321089380       48.0317401828      -41.6983433811  TIP3      15750           0.0000000000
     97083     16151  TIP3      OH2            28.7072227347       41.4846380057      -41.2447403259  TIP3      15751           0.0000000000
     97084     16151  TIP3      H1             28.4191158378       41.4644517093      -40.3112895516  TIP3      15751           0.0000000000
     97085     16151  TIP3      H2             28.4329082577       40.6026744901      -41.5267161909  TIP3      15751           0.0000000000
     97086     16152  TIP3      OH2            24.4999263320       44.2102303696      -30.7574943149  TIP3      15752           0.0000000000
     97087     16152  TIP3      H1             23.7967948430       44.1924921381      -30.0728691504  TIP3      15752           0.0000000000
     97088     16152  TIP3      H2             24.4880718743       45.1480278731      -31.0512541020  TIP3      15752           0.0000000000
     97089     16153  TIP3      OH2            24.4728772711       44.4092077779      -35.8544142782  TIP3      15753           0.0000000000
     97090     16153  TIP3      H1             23.5517677907       44.0934009437      -35.9590540807  TIP3      15753           0.0000000000
     97091     16153  TIP3      H2             24.8908832334       44.0552166837      -36.6631180236  TIP3      15753           0.0000000000
     97092     16154  TIP3      OH2            29.9997306927       44.8426923880      -37.0647091391  TIP3      15754           0.0000000000
     97093     16154  TIP3      H1             29.5878499160       45.6766895729      -37.3800853481  TIP3      15754           0.0000000000
     97094     16154  TIP3      H2             30.7098860632       44.7052174470      -37.7158086905  TIP3      15754           0.0000000000
     97095     16155  TIP3      OH2            29.0824295488       45.0458108311      -25.6123294494  TIP3      15755           0.0000000000
     97096     16155  TIP3      H1             28.5330263250       44.3026637725      -25.2670205420  TIP3      15755           0.0000000000
     97097     16155  TIP3      H2             29.9144857590       44.9212359848      -25.1183977147  TIP3      15755           0.0000000000
     97098     16156  TIP3      OH2            31.0158534577       44.3189172964      -34.2265540392  TIP3      15756           0.0000000000
     97099     16156  TIP3      H1             30.7845194528       44.8987140935      -34.9721135081  TIP3      15756           0.0000000000
     97100     16156  TIP3      H2             31.1619405856       43.4716439609      -34.6958031350  TIP3      15756           0.0000000000
     97101     16157  TIP3      OH2            22.2386777002       44.5010799842      -28.9741010813  TIP3      15757           0.0000000000
     97102     16157  TIP3      H1             22.1614491899       44.9182361389      -28.0919653288  TIP3      15757           0.0000000000
     97103     16157  TIP3      H2             21.6890705121       43.7101258858      -28.8225900523  TIP3      15757           0.0000000000
     97104     16158  TIP3      OH2            25.6824779252       42.0823982463      -41.9001078819  TIP3      15758           0.0000000000
     97105     16158  TIP3      H1             25.1491813165       41.4645014931      -41.3642125474  TIP3      15758           0.0000000000
     97106     16158  TIP3      H2             25.0044364397       42.3599895347      -42.5346385340  TIP3      15758           0.0000000000
     97107     16159  TIP3      OH2            18.7974897736       41.6625437205      -35.0691525811  TIP3      15759           0.0000000000
     97108     16159  TIP3      H1             19.4674972165       41.5935058266      -34.3507711912  TIP3      15759           0.0000000000
     97109     16159  TIP3      H2             19.2652638126       41.2063440837      -35.8022906681  TIP3      15759           0.0000000000
     97110     16160  TIP3      OH2            20.0956934188       42.3575872631      -39.6425623393  TIP3      15760           0.0000000000
     97111     16160  TIP3      H1             20.5795934999       42.9570088448      -40.2555142274  TIP3      15760           0.0000000000
     97112     16160  TIP3      H2             19.3855955732       42.9460561015      -39.3381649100  TIP3      15760           0.0000000000
     97113     16161  TIP3      OH2            30.2526737702       45.9417437426      -29.6134079622  TIP3      15761           0.0000000000
     97114     16161  TIP3      H1             30.5986092426       45.2748278678      -30.2356958191  TIP3      15761           0.0000000000
     97115     16161  TIP3      H2             29.8032484021       45.3962313174      -28.9436451821  TIP3      15761           0.0000000000
     97116     16162  TIP3      OH2            27.0432325009       41.8779417623      -34.8165146759  TIP3      15762           0.0000000000
     97117     16162  TIP3      H1             26.1108725484       41.9139127281      -34.5145645007  TIP3      15762           0.0000000000
     97118     16162  TIP3      H2             27.5373254163       41.7782612805      -33.9890365244  TIP3      15762           0.0000000000
     97119     16163  TIP3      OH2            21.8559293975       43.4773228655      -35.9593521083  TIP3      15763           0.0000000000
     97120     16163  TIP3      H1             20.9712905990       43.5922174529      -36.3352761937  TIP3      15763           0.0000000000
     97121     16163  TIP3      H2             22.1624362614       42.6343829984      -36.3373078760  TIP3      15763           0.0000000000
     97122     16164  TIP3      OH2            25.5045468114       43.4995416266      -38.3158717291  TIP3      15764           0.0000000000
     97123     16164  TIP3      H1             26.4579790372       43.6170588491      -38.1415302205  TIP3      15764           0.0000000000
     97124     16164  TIP3      H2             25.2827057887       44.1675492652      -38.9867703881  TIP3      15764           0.0000000000
     97125     16165  TIP3      OH2            31.4521589709       41.1148511785      -31.5567565361  TIP3      15765           0.0000000000
     97126     16165  TIP3      H1             30.7572454280       41.2131195876      -30.8718087471  TIP3      15765           0.0000000000
     97127     16165  TIP3      H2             30.9467597897       40.9201963233      -32.3574179218  TIP3      15765           0.0000000000
     97128     16166  TIP3      OH2            24.1902938278       44.6792991948      -40.7336756308  TIP3      15766           0.0000000000
     97129     16166  TIP3      H1             23.6434422436       44.3115223621      -41.4500394238  TIP3      15766           0.0000000000
     97130     16166  TIP3      H2             25.0222701681       44.8801265248      -41.1906838615  TIP3      15766           0.0000000000
     97131     16167  TIP3      OH2            22.3438271930       49.2405651226      -25.6688575604  TIP3      15767           0.0000000000
     97132     16167  TIP3      H1             23.0564387046       49.5064898476      -25.0729891867  TIP3      15767           0.0000000000
     97133     16167  TIP3      H2             21.5399629422       49.4092579885      -25.1243150661  TIP3      15767           0.0000000000
     97134     16168  TIP3      OH2            28.3414536297       44.6568534720      -32.9196288407  TIP3      15768           0.0000000000
     97135     16168  TIP3      H1             28.9228553114       44.1087303379      -33.4622668652  TIP3      15768           0.0000000000
     97136     16168  TIP3      H2             28.1992580889       44.1181597893      -32.1304138531  TIP3      15768           0.0000000000
     97137     16169  TIP3      OH2            23.3480861951       40.8026117021      -36.4888938912  TIP3      15769           0.0000000000
     97138     16169  TIP3      H1             23.0395057009       39.8780443890      -36.5230161390  TIP3      15769           0.0000000000
     97139     16169  TIP3      H2             24.1355265552       40.7676578895      -37.0471527511  TIP3      15769           0.0000000000
     97140     16170  TIP3      OH2            26.9777692478       43.0082530491      -30.5111595298  TIP3      15770           0.0000000000
     97141     16170  TIP3      H1             26.1407218758       43.5002592345      -30.4009703400  TIP3      15770           0.0000000000
     97142     16170  TIP3      H2             27.5147576208       43.3271556616      -29.7582050189  TIP3      15770           0.0000000000
     97143     16171  TIP3      OH2            27.5529020975       49.2355672586      -38.8130695235  TIP3      15771           0.0000000000
     97144     16171  TIP3      H1             26.7680823530       48.7382126691      -39.1366820503  TIP3      15771           0.0000000000
     97145     16171  TIP3      H2             27.3670580186       49.3025578118      -37.8562721199  TIP3      15771           0.0000000000
     97146     16172  TIP3      OH2            34.7041785573       48.3870443693      -30.0122429206  TIP3      15772           0.0000000000
     97147     16172  TIP3      H1             35.3089349402       48.8615316289      -30.6064870283  TIP3      15772           0.0000000000
     97148     16172  TIP3      H2             33.8556315939       48.4862835555      -30.4938378394  TIP3      15772           0.0000000000
     97149     16173  TIP3      OH2            31.4261393580       42.0274362256      -40.6232897034  TIP3      15773           0.0000000000
     97150     16173  TIP3      H1             30.4772377787       42.1722217730      -40.7795449936  TIP3      15773           0.0000000000
     97151     16173  TIP3      H2             31.7181176362       42.9066216457      -40.3107552429  TIP3      15773           0.0000000000
     97152     16174  TIP3      OH2            29.0440399956       49.4400591250      -27.5888083717  TIP3      15774           0.0000000000
     97153     16174  TIP3      H1             28.7015707144       49.0529497142      -26.7751633491  TIP3      15774           0.0000000000
     97154     16174  TIP3      H2             28.8295420752       50.3740860499      -27.4949331921  TIP3      15774           0.0000000000
     97155     16175  TIP3      OH2            32.1318723088       43.9357783730      -38.9569107134  TIP3      15775           0.0000000000
     97156     16175  TIP3      H1             33.0385990634       43.7981129715      -38.6228283481  TIP3      15775           0.0000000000
     97157     16175  TIP3      H2             32.2038645307       44.7371127490      -39.4952752322  TIP3      15775           0.0000000000
     97158     16176  TIP3      OH2            22.6519907287       48.5740443238      -33.0287273297  TIP3      15776           0.0000000000
     97159     16176  TIP3      H1             23.3830703477       48.5316003014      -33.6739967239  TIP3      15776           0.0000000000
     97160     16176  TIP3      H2             22.7294641933       47.7235575314      -32.5628021600  TIP3      15776           0.0000000000
     97161     16177  TIP3      OH2            29.6667836125       50.6958720736      -39.7824775575  TIP3      15777           0.0000000000
     97162     16177  TIP3      H1             29.3316527450       51.5324710391      -39.4082214497  TIP3      15777           0.0000000000
     97163     16177  TIP3      H2             28.9284575510       50.0775179942      -39.5868528332  TIP3      15777           0.0000000000
     97164     16178  TIP3      OH2            19.6699554816       47.2867933188      -27.6697914507  TIP3      15778           0.0000000000
     97165     16178  TIP3      H1             19.8686723755       46.6284915998      -26.9579424702  TIP3      15778           0.0000000000
     97166     16178  TIP3      H2             19.1350024339       46.5518549281      -28.1401598731  TIP3      15778           0.0000000000
     97167     16179  TIP3      OH2            26.6700567021       46.5564348312      -25.5379644917  TIP3      15779           0.0000000000
     97168     16179  TIP3      H1             26.3694712719       46.3201443152      -26.4296417447  TIP3      15779           0.0000000000
     97169     16179  TIP3      H2             27.6070337955       46.2836087140      -25.5531576438  TIP3      15779           0.0000000000
     97170     16180  TIP3      OH2            31.3272438883       51.9117136142      -27.6403930013  TIP3      15780           0.0000000000
     97171     16180  TIP3      H1             30.3993575152       52.0807904339      -27.8714778416  TIP3      15780           0.0000000000
     97172     16180  TIP3      H2             31.3136045489       52.1613410929      -26.6970721813  TIP3      15780           0.0000000000
     97173     16181  TIP3      OH2            37.0376517454       44.1067548220      -39.2181800332  TIP3      15781           0.0000000000
     97174     16181  TIP3      H1             36.4712410953       43.7638663230      -39.9404304784  TIP3      15781           0.0000000000
     97175     16181  TIP3      H2             37.1103934040       45.0386948594      -39.5348202610  TIP3      15781           0.0000000000
     97176     16182  TIP3      OH2            37.0229174185       49.9187584001      -26.4055120135  TIP3      15782           0.0000000000
     97177     16182  TIP3      H1             36.1304582109       50.1726999554      -26.7808378989  TIP3      15782           0.0000000000
     97178     16182  TIP3      H2             37.5630251920       49.9332315126      -27.2144397087  TIP3      15782           0.0000000000
     97179     16183  TIP3      OH2            35.3077758008       52.9261910538      -38.8147211416  TIP3      15783           0.0000000000
     97180     16183  TIP3      H1             34.9473005567       52.0934459994      -38.4900766862  TIP3      15783           0.0000000000
     97181     16183  TIP3      H2             35.6073379239       52.7319301047      -39.7208794186  TIP3      15783           0.0000000000
     97182     16184  TIP3      OH2            32.5017083200       47.7401536814      -31.7520329755  TIP3      15784           0.0000000000
     97183     16184  TIP3      H1             31.5588647351       47.5048659682      -31.8198203790  TIP3      15784           0.0000000000
     97184     16184  TIP3      H2             32.9377762815       46.9556687347      -32.1301713422  TIP3      15784           0.0000000000
     97185     16185  TIP3      OH2            25.0301790111       52.0541503910      -35.6305241352  TIP3      15785           0.0000000000
     97186     16185  TIP3      H1             25.5456441703       52.8507297176      -35.8424533080  TIP3      15785           0.0000000000
     97187     16185  TIP3      H2             24.1502643973       52.2909174940      -35.9526443580  TIP3      15785           0.0000000000
     97188     16186  TIP3      OH2            20.7853828228       46.9015155283      -41.0507094898  TIP3      15786           0.0000000000
     97189     16186  TIP3      H1             21.3972855115       47.5556335294      -40.6814144651  TIP3      15786           0.0000000000
     97190     16186  TIP3      H2             19.9092257714       47.2336115936      -40.8016841586  TIP3      15786           0.0000000000
     97191     16187  TIP3      OH2            26.4662456959       49.7186538348      -36.0851985447  TIP3      15787           0.0000000000
     97192     16187  TIP3      H1             26.1828085008       50.6508606117      -36.0194759988  TIP3      15787           0.0000000000
     97193     16187  TIP3      H2             25.7135240730       49.2554411685      -35.6669026098  TIP3      15787           0.0000000000
     97194     16188  TIP3      OH2            26.9263513694       53.8901076528      -29.7339514883  TIP3      15788           0.0000000000
     97195     16188  TIP3      H1             27.3426683051       54.7276966064      -29.9840321368  TIP3      15788           0.0000000000
     97196     16188  TIP3      H2             27.5113193749       53.5742904601      -29.0202208966  TIP3      15788           0.0000000000
     97197     16189  TIP3      OH2            25.1460273271       54.7221435296      -36.5413808915  TIP3      15789           0.0000000000
     97198     16189  TIP3      H1             24.1824514526       54.8628646516      -36.4539099510  TIP3      15789           0.0000000000
     97199     16189  TIP3      H2             25.4934666528       55.5694430403      -36.1910745380  TIP3      15789           0.0000000000
     97200     16190  TIP3      OH2            30.4809794677       49.9512816802      -30.0697710673  TIP3      15790           0.0000000000
     97201     16190  TIP3      H1             30.0896261962       49.7349148593      -29.2007550355  TIP3      15790           0.0000000000
     97202     16190  TIP3      H2             31.0891374780       49.2169335382      -30.2407361762  TIP3      15790           0.0000000000
     97203     16191  TIP3      OH2            32.7197691261       50.9228024862      -40.9811277427  TIP3      15791           0.0000000000
     97204     16191  TIP3      H1             33.0480506403       50.5085232888      -40.1571661413  TIP3      15791           0.0000000000
     97205     16191  TIP3      H2             31.7623779177       50.7985948386      -40.8851798873  TIP3      15791           0.0000000000
     97206     16192  TIP3      OH2            33.1942367992       54.5288186977      -27.5683719456  TIP3      15792           0.0000000000
     97207     16192  TIP3      H1             32.5665285722       53.9727159965      -28.0822355635  TIP3      15792           0.0000000000
     97208     16192  TIP3      H2             33.4431957211       55.1888824026      -28.2308156281  TIP3      15792           0.0000000000
     97209     16193  TIP3      OH2            37.2314108324       55.3461724886      -40.7694254199  TIP3      15793           0.0000000000
     97210     16193  TIP3      H1             37.9616493154       55.9667988153      -40.9460193839  TIP3      15793           0.0000000000
     97211     16193  TIP3      H2             36.5152530573       55.9416935716      -40.4420271677  TIP3      15793           0.0000000000
     97212     16194  TIP3      OH2            21.3024402172       41.7331069645      -28.2096986086  TIP3      15794           0.0000000000
     97213     16194  TIP3      H1             20.4059490946       42.1269988281      -28.2222826765  TIP3      15794           0.0000000000
     97214     16194  TIP3      H2             21.1892007361       40.9032267007      -27.7349882556  TIP3      15794           0.0000000000
     97215     16195  TIP3      OH2            33.5636440493       49.5937447448      -38.7608658526  TIP3      15795           0.0000000000
     97216     16195  TIP3      H1             33.3069592745       48.8259266552      -38.2052397089  TIP3      15795           0.0000000000
     97217     16195  TIP3      H2             34.5063245794       49.6817760262      -38.5398702090  TIP3      15795           0.0000000000
     97218     16196  TIP3      OH2            20.9448149062       53.5487652307      -29.7592022042  TIP3      15796           0.0000000000
     97219     16196  TIP3      H1             21.1840828625       52.6094588382      -29.7656142885  TIP3      15796           0.0000000000
     97220     16196  TIP3      H2             21.1898600167       53.8271052275      -28.8653800292  TIP3      15796           0.0000000000
     97221     16197  TIP3      OH2            25.7151247626       51.5947606857      -40.0756657719  TIP3      15797           0.0000000000
     97222     16197  TIP3      H1             25.9039494692       51.0561025940      -39.2959876549  TIP3      15797           0.0000000000
     97223     16197  TIP3      H2             25.7427687156       52.5098483048      -39.7466809678  TIP3      15797           0.0000000000
     97224     16198  TIP3      OH2            22.1893361166       48.8336710506      -39.5719501116  TIP3      15798           0.0000000000
     97225     16198  TIP3      H1             21.4984698569       49.2141561412      -38.9960410188  TIP3      15798           0.0000000000
     97226     16198  TIP3      H2             22.7208194365       49.6061221294      -39.8223083711  TIP3      15798           0.0000000000
     97227     16199  TIP3      OH2            30.0284636699       41.5127425159      -29.2790254462  TIP3      15799           0.0000000000
     97228     16199  TIP3      H1             30.7342644561       41.5717792705      -28.6213549403  TIP3      15799           0.0000000000
     97229     16199  TIP3      H2             29.6474394467       40.6306423491      -29.0960321150  TIP3      15799           0.0000000000
     97230     16200  TIP3      OH2            30.7911194460       41.1250819320      -38.1639631788  TIP3      15800           0.0000000000
     97231     16200  TIP3      H1             31.0333113682       41.6040228735      -38.9860790428  TIP3      15800           0.0000000000
     97232     16200  TIP3      H2             31.3712548045       41.5417656581      -37.5185455434  TIP3      15800           0.0000000000
     97233     16201  TIP3      OH2            28.4787712838       53.2597239278      -39.3328203941  TIP3      15801           0.0000000000
     97234     16201  TIP3      H1             27.6627092661       53.7763252208      -39.2679547005  TIP3      15801           0.0000000000
     97235     16201  TIP3      H2             29.0136290173       53.7810236904      -39.9561099406  TIP3      15801           0.0000000000
     97236     16202  TIP3      OH2            28.0061503150       42.8627820050      -37.3482679044  TIP3      15802           0.0000000000
     97237     16202  TIP3      H1             28.8173304707       43.4032618378      -37.3112534215  TIP3      15802           0.0000000000
     97238     16202  TIP3      H2             27.7573259161       42.7280149516      -36.4212555357  TIP3      15802           0.0000000000
     97239     16203  TIP3      OH2            28.5522014092       43.8617551203      -28.1720747890  TIP3      15803           0.0000000000
     97240     16203  TIP3      H1             28.6535269060       44.4420020488      -27.3944257009  TIP3      15803           0.0000000000
     97241     16203  TIP3      H2             29.2149754647       43.1716484357      -28.0544822812  TIP3      15803           0.0000000000
     97242     16204  TIP3      OH2            28.8798912138       39.9237212603      -36.4282878657  TIP3      15804           0.0000000000
     97243     16204  TIP3      H1             28.5485179807       40.5718334945      -35.7826042465  TIP3      15804           0.0000000000
     97244     16204  TIP3      H2             29.5593113985       40.4663486163      -36.8987931759  TIP3      15804           0.0000000000
     97245     16205  TIP3      OH2            25.8069077529       54.3310698189      -39.3552129027  TIP3      15805           0.0000000000
     97246     16205  TIP3      H1             25.9810735251       55.1503891788      -39.8278812123  TIP3      15805           0.0000000000
     97247     16205  TIP3      H2             25.6105714181       54.6292683225      -38.4390641237  TIP3      15805           0.0000000000
     97248     16206  TIP3      OH2            24.5376961834       40.9999124658      -39.7325713781  TIP3      15806           0.0000000000
     97249     16206  TIP3      H1             24.4694798186       41.9129900284      -39.3747793692  TIP3      15806           0.0000000000
     97250     16206  TIP3      H2             25.4469676236       40.7657383412      -39.4727164620  TIP3      15806           0.0000000000
     97251     16207  TIP3      OH2            34.7644318230       41.7447742498      -27.3087226470  TIP3      15807           0.0000000000
     97252     16207  TIP3      H1             33.8251782033       42.0401512093      -27.4283762867  TIP3      15807           0.0000000000
     97253     16207  TIP3      H2             35.0671488184       41.7508727094      -28.2305300680  TIP3      15807           0.0000000000
     97254     16208  TIP3      OH2            33.3527043973       45.5304581479      -33.2604340234  TIP3      15808           0.0000000000
     97255     16208  TIP3      H1             32.5404493229       45.0932402436      -33.5673195918  TIP3      15808           0.0000000000
     97256     16208  TIP3      H2             33.8167078390       44.8274505552      -32.7522459522  TIP3      15808           0.0000000000
     97257     16209  TIP3      OH2            22.7839619359       51.4475794538      -40.6774562752  TIP3      15809           0.0000000000
     97258     16209  TIP3      H1             23.4081718369       52.1238757511      -40.3890499507  TIP3      15809           0.0000000000
     97259     16209  TIP3      H2             23.2812341705       50.9993914769      -41.3880776035  TIP3      15809           0.0000000000
     97260     16210  TIP3      OH2            21.1393282190       44.1115375395      -41.5200168565  TIP3      15810           0.0000000000
     97261     16210  TIP3      H1             21.0958054432       45.0754380481      -41.3787073771  TIP3      15810           0.0000000000
     97262     16210  TIP3      H2             20.2519566555       43.8991254930      -41.8419853240  TIP3      15810           0.0000000000
     97263     16211  TIP3      OH2            34.4219948816       54.7370549453      -31.5984666743  TIP3      15811           0.0000000000
     97264     16211  TIP3      H1             34.2999767972       55.4522718808      -32.2717590697  TIP3      15811           0.0000000000
     97265     16211  TIP3      H2             35.3766938099       54.8531877056      -31.4238560611  TIP3      15811           0.0000000000
     97266     16212  TIP3      OH2            21.9143438841       38.9140545800      -32.8427961807  TIP3      15812           0.0000000000
     97267     16212  TIP3      H1             21.7149543698       38.9395717594      -33.8078929513  TIP3      15812           0.0000000000
     97268     16212  TIP3      H2             21.4972487131       38.0731791725      -32.5750643956  TIP3      15812           0.0000000000
     97269     16213  TIP3      OH2            20.8681638888       52.8266459851      -36.6965279061  TIP3      15813           0.0000000000
     97270     16213  TIP3      H1             20.0233877297       53.3112168534      -36.6974393844  TIP3      15813           0.0000000000
     97271     16213  TIP3      H2             21.3853709649       53.3280060880      -37.3398891601  TIP3      15813           0.0000000000
     97272     16214  TIP3      OH2            20.1269314496       55.4627095970      -25.3856989379  TIP3      15814           0.0000000000
     97273     16214  TIP3      H1             20.7013826439       55.2398798666      -24.6308501579  TIP3      15814           0.0000000000
     97274     16214  TIP3      H2             19.6729055348       54.6261325756      -25.5765358067  TIP3      15814           0.0000000000
     97275     16215  TIP3      OH2            24.7665333850       54.3862335232      -23.7692484727  TIP3      15815           0.0000000000
     97276     16215  TIP3      H1             25.5181562856       53.8918282082      -23.4377365709  TIP3      15815           0.0000000000
     97277     16215  TIP3      H2             24.7200803665       54.1245715305      -24.7097798870  TIP3      15815           0.0000000000
     97278     16216  TIP3      OH2            29.1682166465       54.0226642271      -41.8971548191  TIP3      15816           0.0000000000
     97279     16216  TIP3      H1             28.3736761808       53.4323541490      -41.9670482863  TIP3      15816           0.0000000000
     97280     16216  TIP3      H2             29.6395049955       53.4610503406      -42.5211870244  TIP3      15816           0.0000000000
     97281     16217  TIP3      OH2            31.2935766762       52.7742275470      -25.0392825869  TIP3      15817           0.0000000000
     97282     16217  TIP3      H1             30.9657330241       51.8873438092      -24.7881117782  TIP3      15817           0.0000000000
     97283     16217  TIP3      H2             32.0598630584       52.8846344736      -24.4477189816  TIP3      15817           0.0000000000
     97284     16218  TIP3      OH2            33.4414749717       53.6891698675      -42.1701596944  TIP3      15818           0.0000000000
     97285     16218  TIP3      H1             33.7266029747       52.8838868283      -41.6987107596  TIP3      15818           0.0000000000
     97286     16218  TIP3      H2             34.2063471994       53.9024836402      -42.7158405107  TIP3      15818           0.0000000000
     97287     16219  TIP3      OH2            20.0415649644       49.2532426831      -24.3917540084  TIP3      15819           0.0000000000
     97288     16219  TIP3      H1             20.1799719328       48.3486627731      -24.7360630276  TIP3      15819           0.0000000000
     97289     16219  TIP3      H2             19.2780528078       49.5284704273      -24.9393251990  TIP3      15819           0.0000000000
     97290     16220  TIP3      OH2            24.4245971925       49.6513714258      -42.2585574366  TIP3      15820           0.0000000000
     97291     16220  TIP3      H1             24.4667348941       48.8145382556      -41.7789346918  TIP3      15820           0.0000000000
     97292     16220  TIP3      H2             25.0308986708       49.4554687551      -42.9978872799  TIP3      15820           0.0000000000
     97293     16221  TIP3      OH2            26.7190911142       49.2373883690      -24.9920197913  TIP3      15821           0.0000000000
     97294     16221  TIP3      H1             26.3786555879       49.5202245065      -25.8637919018  TIP3      15821           0.0000000000
     97295     16221  TIP3      H2             26.8333918527       48.2680169510      -25.0981379219  TIP3      15821           0.0000000000
     97296     16222  TIP3      OH2            32.4266527374       49.1169864651      -27.6161714462  TIP3      15822           0.0000000000
     97297     16222  TIP3      H1             33.1942358491       49.7219006945      -27.7151345233  TIP3      15822           0.0000000000
     97298     16222  TIP3      H2             31.6955109149       49.7475226847      -27.5631451660  TIP3      15822           0.0000000000
     97299     16223  TIP3      OH2            20.9333197405       46.4864340472      -24.9818459669  TIP3      15823           0.0000000000
     97300     16223  TIP3      H1             21.2909503212       45.5998729220      -25.1447349646  TIP3      15823           0.0000000000
     97301     16223  TIP3      H2             20.6074642828       46.4543211439      -24.0920315782  TIP3      15823           0.0000000000
     97302     16224  TIP3      OH2            25.5479071420       47.6133204858      -39.9808223793  TIP3      15824           0.0000000000
     97303     16224  TIP3      H1             25.0734571164       47.0905039751      -39.3132327424  TIP3      15824           0.0000000000
     97304     16224  TIP3      H2             25.8252857852       46.9111179387      -40.6166946449  TIP3      15824           0.0000000000
     97305     16225  TIP3      OH2            24.8435263105       45.4486304090      -27.6335398744  TIP3      15825           0.0000000000
     97306     16225  TIP3      H1             24.2078729274       46.1410318914      -27.3704805454  TIP3      15825           0.0000000000
     97307     16225  TIP3      H2             25.1897603755       45.7951977861      -28.4725381129  TIP3      15825           0.0000000000
     97308     16226  TIP3      OH2            26.6130838924       45.8288781375      -41.7349612124  TIP3      15826           0.0000000000
     97309     16226  TIP3      H1             26.4629283549       45.6555882954      -42.6724233273  TIP3      15826           0.0000000000
     97310     16226  TIP3      H2             27.5913378776       45.9238777596      -41.6683578701  TIP3      15826           0.0000000000
     97311     16227  TIP3      OH2            29.8578753187       47.9717418585      -24.3235273479  TIP3      15827           0.0000000000
     97312     16227  TIP3      H1             30.8224927504       47.9992358415      -24.3966666069  TIP3      15827           0.0000000000
     97313     16227  TIP3      H2             29.7104269690       47.2186203780      -23.7409749261  TIP3      15827           0.0000000000
     97314     16228  TIP3      OH2            35.8867568618       48.2388734314       42.7730211435  TIP3      15828           0.0000000000
     97315     16228  TIP3      H1             35.7286500195       47.7662841312       41.9314993190  TIP3      15828           0.0000000000
     97316     16228  TIP3      H2             36.0428314680       49.1485643638       42.4967936337  TIP3      15828           0.0000000000
     97317     16229  TIP3      OH2            25.2033016365       42.8141529177      -26.5615569148  TIP3      15829           0.0000000000
     97318     16229  TIP3      H1             25.3254939524       42.0871795094      -27.1958118295  TIP3      15829           0.0000000000
     97319     16229  TIP3      H2             25.1763970538       43.6107027915      -27.1310329152  TIP3      15829           0.0000000000
     97320     16230  TIP3      OH2            25.6055210378       41.1854853675      -29.0454248270  TIP3      15830           0.0000000000
     97321     16230  TIP3      H1             26.1299104533       41.6475541223      -29.7388932755  TIP3      15830           0.0000000000
     97322     16230  TIP3      H2             24.7259728395       41.0914977263      -29.4765590694  TIP3      15830           0.0000000000
     97323     16231  TIP3      OH2            27.1665372053       46.6399411478      -28.8072841060  TIP3      15831           0.0000000000
     97324     16231  TIP3      H1             27.9193184322       46.4850625598      -29.3896760982  TIP3      15831           0.0000000000
     97325     16231  TIP3      H2             26.8186056754       47.4932243007      -29.1126813110  TIP3      15831           0.0000000000
     97326     16232  TIP3      OH2            31.5646061926       44.4340572011      -23.8585113283  TIP3      15832           0.0000000000
     97327     16232  TIP3      H1             31.7917193531       43.5073349492      -23.8927801049  TIP3      15832           0.0000000000
     97328     16232  TIP3      H2             32.4295459953       44.8762738152      -23.7853192069  TIP3      15832           0.0000000000
     97329     16233  TIP3      OH2            32.8863366705       47.2164579825      -25.7176004914  TIP3      15833           0.0000000000
     97330     16233  TIP3      H1             32.6366308258       47.9560230649      -26.3033932738  TIP3      15833           0.0000000000
     97331     16233  TIP3      H2             33.8528125767       47.1759477953      -25.8712945314  TIP3      15833           0.0000000000
     97332     16234  TIP3      OH2            23.6665552474       44.0351902047      -24.6359781024  TIP3      15834           0.0000000000
     97333     16234  TIP3      H1             22.8894148550       43.4783892579      -24.8630135820  TIP3      15834           0.0000000000
     97334     16234  TIP3      H2             24.3236454854       43.6968087755      -25.2705899618  TIP3      15834           0.0000000000
     97335     16235  TIP3      OH2            26.4058753948       38.6230045807      -28.6249621703  TIP3      15835           0.0000000000
     97336     16235  TIP3      H1             26.2689414203       39.5933863899      -28.7409871269  TIP3      15835           0.0000000000
     97337     16235  TIP3      H2             25.6484443580       38.2707156671      -29.1268207687  TIP3      15835           0.0000000000
     97338     16236  TIP3      OH2            27.6779865995       42.9455607868      -25.0590170916  TIP3      15836           0.0000000000
     97339     16236  TIP3      H1             27.3934147784       42.7332725955      -24.1512883051  TIP3      15836           0.0000000000
     97340     16236  TIP3      H2             26.8677876813       42.7542884832      -25.5709635835  TIP3      15836           0.0000000000
     97341     16237  TIP3      OH2            30.3894136959       42.0932846448      -25.9864017185  TIP3      15837           0.0000000000
     97342     16237  TIP3      H1             29.4247988057       42.1278993235      -25.8436942464  TIP3      15837           0.0000000000
     97343     16237  TIP3      H2             30.6746840318       41.4570413251      -25.3110374671  TIP3      15837           0.0000000000
     97344     16238  TIP3      OH2            32.0040383730       40.7360764816      -23.9847123454  TIP3      15838           0.0000000000
     97345     16238  TIP3      H1             31.9029732989       39.7619400272      -24.0100585109  TIP3      15838           0.0000000000
     97346     16238  TIP3      H2             31.6813872625       40.9992827625      -23.1183799795  TIP3      15838           0.0000000000
     97347     16239  TIP3      OH2            21.8246410067       41.9681135500      -24.9392103093  TIP3      15839           0.0000000000
     97348     16239  TIP3      H1             22.0352314843       41.2374440392      -25.5449831702  TIP3      15839           0.0000000000
     97349     16239  TIP3      H2             21.7144385776       41.5103183598      -24.0828998218  TIP3      15839           0.0000000000
     97350     16240  TIP3      OH2            26.6051209381       37.9655669433      -25.9508553188  TIP3      15840           0.0000000000
     97351     16240  TIP3      H1             27.3244201575       37.2993866788      -25.9771350950  TIP3      15840           0.0000000000
     97352     16240  TIP3      H2             26.5195761570       38.1866665699      -26.8933993729  TIP3      15840           0.0000000000
     97353     16241  TIP3      OH2            26.9823608617       39.6365979141      -23.8912714105  TIP3      15841           0.0000000000
     97354     16241  TIP3      H1             26.8284799236       39.1286879475      -24.7139982430  TIP3      15841           0.0000000000
     97355     16241  TIP3      H2             26.3716129345       40.3821662028      -23.9567486979  TIP3      15841           0.0000000000
     97356     16242  TIP3      OH2            20.0500330460       51.1382652775      -41.2281017106  TIP3      15842           0.0000000000
     97357     16242  TIP3      H1             21.0036438203       51.2237391730      -40.9824133906  TIP3      15842           0.0000000000
     97358     16242  TIP3      H2             20.0795232962       50.4762918909      -41.9289103584  TIP3      15842           0.0000000000
     97359     16243  TIP3      OH2            19.6185647070       54.6166673353      -34.3779750966  TIP3      15843           0.0000000000
     97360     16243  TIP3      H1             19.2603389196       53.7396471608      -34.1844945640  TIP3      15843           0.0000000000
     97361     16243  TIP3      H2             19.8166942897       54.9626723677      -33.4907925212  TIP3      15843           0.0000000000
     97362     16244  TIP3      OH2            37.1442593242       55.4253143782      -31.4013714726  TIP3      15844           0.0000000000
     97363     16244  TIP3      H1             37.1515963579       55.6064212302      -30.4464398362  TIP3      15844           0.0000000000
     97364     16244  TIP3      H2             37.8495088831       55.9950328021      -31.7225866316  TIP3      15844           0.0000000000
     97365     16245  TIP3      OH2            36.7261800899       54.9943800447      -28.4793544867  TIP3      15845           0.0000000000
     97366     16245  TIP3      H1             36.2365018032       54.2378076085      -28.8479745469  TIP3      15845           0.0000000000
     97367     16245  TIP3      H2             37.2545224933       54.5791579919      -27.7803446035  TIP3      15845           0.0000000000
     97368     16246  TIP3      OH2            35.1728130654       50.7591676003      -23.8369236275  TIP3      15846           0.0000000000
     97369     16246  TIP3      H1             34.2964166801       50.6829084351      -23.4230711336  TIP3      15846           0.0000000000
     97370     16246  TIP3      H2             35.5508768004       51.5449640509      -23.3779703776  TIP3      15846           0.0000000000
     97371     16247  TIP3      OH2            36.4698090219       49.0596732761      -38.3488900227  TIP3      15847           0.0000000000
     97372     16247  TIP3      H1             37.3268851495       49.4710961766      -38.1738002503  TIP3      15847           0.0000000000
     97373     16247  TIP3      H2             36.4666405528       48.3218629302      -37.6999202702  TIP3      15847           0.0000000000
     97374     16248  TIP3      OH2            36.8698458972       47.1008260061      -36.4945176246  TIP3      15848           0.0000000000
     97375     16248  TIP3      H1             36.1022747001       46.6266034436      -36.0957089620  TIP3      15848           0.0000000000
     97376     16248  TIP3      H2             37.4322371996       47.3141829039      -35.7330367595  TIP3      15848           0.0000000000
     97377     16249  TIP3      OH2            36.6018960895       49.8578917167      -31.5181528711  TIP3      15849           0.0000000000
     97378     16249  TIP3      H1             37.4430357197       49.4969692502      -31.8458333441  TIP3      15849           0.0000000000
     97379     16249  TIP3      H2             36.7402942193       50.8188416893      -31.6693571775  TIP3      15849           0.0000000000
     97380     16250  TIP3      OH2            35.1337661698       52.7429639332      -29.2172994368  TIP3      15850           0.0000000000
     97381     16250  TIP3      H1             34.4549889609       53.1022215970      -28.6310465506  TIP3      15850           0.0000000000
     97382     16250  TIP3      H2             34.5902014166       52.3279202504      -29.9246742873  TIP3      15850           0.0000000000
     97383     16251  TIP3      OH2            37.1386652073       46.9715176211      -40.0989331057  TIP3      15851           0.0000000000
     97384     16251  TIP3      H1             36.5861331071       47.3469965652      -40.8135198605  TIP3      15851           0.0000000000
     97385     16251  TIP3      H2             37.0788828990       47.6797548726      -39.4301395691  TIP3      15851           0.0000000000
     97386     16252  TIP3      OH2            35.2531760704       44.2469609440      -41.4702070044  TIP3      15852           0.0000000000
     97387     16252  TIP3      H1             35.5800752591       44.8536406356      -42.1630345092  TIP3      15852           0.0000000000
     97388     16252  TIP3      H2             35.3381677118       43.4187776662      -41.9894297393  TIP3      15852           0.0000000000
     97389     16253  TIP3      OH2            34.6768949054       45.6193655228      -35.9226516683  TIP3      15853           0.0000000000
     97390     16253  TIP3      H1             34.4929632695       44.6679320518      -35.9506130340  TIP3      15853           0.0000000000
     97391     16253  TIP3      H2             34.2954984330       45.8759222195      -35.0649044182  TIP3      15853           0.0000000000
     97392     16254  TIP3      OH2            19.6695227814       47.7163921595      -31.8923856575  TIP3      15854           0.0000000000
     97393     16254  TIP3      H1             19.8730129770       47.6188568954      -32.8421511962  TIP3      15854           0.0000000000
     97394     16254  TIP3      H2             20.5459471973       47.5474433785      -31.4921209483  TIP3      15854           0.0000000000
     97395     16255  TIP3      OH2            35.5176342786       47.5921843101      -26.2682261187  TIP3      15855           0.0000000000
     97396     16255  TIP3      H1             36.1036676844       46.8338983112      -26.0946091700  TIP3      15855           0.0000000000
     97397     16255  TIP3      H2             36.0851475878       48.3781337332      -26.2345256871  TIP3      15855           0.0000000000
     97398     16256  TIP3      OH2            37.0243571805       45.5079912418      -25.6190656106  TIP3      15856           0.0000000000
     97399     16256  TIP3      H1             36.1362259057       45.0942862099      -25.7569909001  TIP3      15856           0.0000000000
     97400     16256  TIP3      H2             37.5915882224       44.7176953420      -25.6689885951  TIP3      15856           0.0000000000
     97401     16257  TIP3      OH2            34.7393207679       41.6382678301      -42.4508330188  TIP3      15857           0.0000000000
     97402     16257  TIP3      H1             35.3414888932       41.2448058168      -41.7930500733  TIP3      15857           0.0000000000
     97403     16257  TIP3      H2             33.8785651891       41.2396392492      -42.2443220430  TIP3      15857           0.0000000000
     97404     16258  TIP3      OH2            34.3363675663       43.2087525200      -37.4546260198  TIP3      15858           0.0000000000
     97405     16258  TIP3      H1             34.6440982891       42.2802618798      -37.3377485736  TIP3      15858           0.0000000000
     97406     16258  TIP3      H2             35.1135310949       43.6197641722      -37.8566312548  TIP3      15858           0.0000000000
     97407     16259  TIP3      OH2            34.9633574200       43.7563094772      -32.0335959036  TIP3      15859           0.0000000000
     97408     16259  TIP3      H1             35.9181694791       43.9910811629      -32.0410540278  TIP3      15859           0.0000000000
     97409     16259  TIP3      H2             34.7539329017       43.8884943024      -31.0935070759  TIP3      15859           0.0000000000
     97410     16260  TIP3      OH2            35.0204497895       44.4845005493      -29.2463554108  TIP3      15860           0.0000000000
     97411     16260  TIP3      H1             34.1512449977       44.7788288705      -28.8969087703  TIP3      15860           0.0000000000
     97412     16260  TIP3      H2             35.4536336642       45.3433741024      -29.4610746789  TIP3      15860           0.0000000000
     97413     16261  TIP3      OH2            19.2712883964       42.9426397997      -25.6755706541  TIP3      15861           0.0000000000
     97414     16261  TIP3      H1             20.2210932782       42.8154423763      -25.5372072611  TIP3      15861           0.0000000000
     97415     16261  TIP3      H2             18.8234797445       42.1617921574      -25.3628484682  TIP3      15861           0.0000000000
     97416     16262  TIP3      OH2            37.2761773110       38.4802823312      -23.8761398744  TIP3      15862           0.0000000000
     97417     16262  TIP3      H1             37.6490658082       37.8588653587      -24.5176072418  TIP3      15862           0.0000000000
     97418     16262  TIP3      H2             37.4242598735       39.3353596749      -24.3378324672  TIP3      15862           0.0000000000
     97419     16263  TIP3      OH2            34.9859294849       40.4804542277      -37.4143568849  TIP3      15863           0.0000000000
     97420     16263  TIP3      H1             35.1760755400       40.0215034124      -36.5736314727  TIP3      15863           0.0000000000
     97421     16263  TIP3      H2             34.3747380631       39.8628598630      -37.8756251379  TIP3      15863           0.0000000000
     97422     16264  TIP3      OH2            20.4732437676       41.2920963111      -32.8666708416  TIP3      15864           0.0000000000
     97423     16264  TIP3      H1             20.9598582146       40.4827872718      -32.5977587083  TIP3      15864           0.0000000000
     97424     16264  TIP3      H2             20.9979141491       41.9981005575      -32.4540393253  TIP3      15864           0.0000000000
     97425     16265  TIP3      OH2            18.7613647265       44.2808892329      -31.8363895462  TIP3      15865           0.0000000000
     97426     16265  TIP3      H1             19.3380576275       44.0643344834      -32.5893411078  TIP3      15865           0.0000000000
     97427     16265  TIP3      H2             19.1925509790       45.0979538591      -31.5176551885  TIP3      15865           0.0000000000
     97428     16266  TIP3      OH2            36.8255152434       40.6158932392      -25.5306545740  TIP3      15866           0.0000000000
     97429     16266  TIP3      H1             35.8861854786       40.8823376923      -25.6018333748  TIP3      15866           0.0000000000
     97430     16266  TIP3      H2             36.9015056899       40.0787532282      -26.3362843574  TIP3      15866           0.0000000000
     97431     16267  TIP3      OH2            36.8184868695       40.5333291223      -40.8601454669  TIP3      15867           0.0000000000
     97432     16267  TIP3      H1             37.2552240498       39.8207171622      -41.3589435473  TIP3      15867           0.0000000000
     97433     16267  TIP3      H2             37.5329210461       41.1972760492      -40.8343856611  TIP3      15867           0.0000000000
     97434     16268  TIP3      OH2            19.1254013809       40.5636883779      -37.7427538182  TIP3      15868           0.0000000000
     97435     16268  TIP3      H1             18.1879483911       40.7324335047      -37.8996617192  TIP3      15868           0.0000000000
     97436     16268  TIP3      H2             19.5697525529       41.0251494956      -38.4722981773  TIP3      15868           0.0000000000
     97437     16269  TIP3      OH2            33.8734665264       55.5108417925      -35.8150817373  TIP3      15869           0.0000000000
     97438     16269  TIP3      H1             34.5591629459       55.1676681911      -36.4206505799  TIP3      15869           0.0000000000
     97439     16269  TIP3      H2             34.3999861272       56.0019264211      -35.1619499587  TIP3      15869           0.0000000000
     97440     16270  TIP3      OH2            19.3678241857       39.2206491079      -29.3113486313  TIP3      15870           0.0000000000
     97441     16270  TIP3      H1             18.6260979523       38.9984023092      -28.7127247748  TIP3      15870           0.0000000000
     97442     16270  TIP3      H2             19.0029593785       39.8943366317      -29.9177636329  TIP3      15870           0.0000000000
     97443     16271  TIP3      OH2            21.2978703204       52.4555206461      -25.2730678145  TIP3      15871           0.0000000000
     97444     16271  TIP3      H1             20.4527077967       52.6055258966      -25.7293487841  TIP3      15871           0.0000000000
     97445     16271  TIP3      H2             21.0282911461       52.3763511926      -24.3512251315  TIP3      15871           0.0000000000
     97446     16272  TIP3      OH2            24.2130864618       53.4063959296      -29.0077804906  TIP3      15872           0.0000000000
     97447     16272  TIP3      H1             23.8387157183       54.2523609439      -29.2899339318  TIP3      15872           0.0000000000
     97448     16272  TIP3      H2             25.1389881147       53.5083386997      -29.3188143350  TIP3      15872           0.0000000000
     97449     16273  TIP3      OH2            28.5493486715       54.8132127822      -26.0723750439  TIP3      15873           0.0000000000
     97450     16273  TIP3      H1             28.7330742684       54.4886668453      -25.1819785872  TIP3      15873           0.0000000000
     97451     16273  TIP3      H2             29.4199384630       55.1384129849      -26.3721293051  TIP3      15873           0.0000000000
     97452     16274  TIP3      OH2            30.8462464295       56.1019830904      -26.8029354171  TIP3      15874           0.0000000000
     97453     16274  TIP3      H1             31.5698767274       55.4975806089      -27.0417690222  TIP3      15874           0.0000000000
     97454     16274  TIP3      H2             31.2102225869       56.5065295849      -25.9869365655  TIP3      15874           0.0000000000
     97455     16275  TIP3      OH2            35.8297528982       38.7202036968      -27.7156386207  TIP3      15875           0.0000000000
     97456     16275  TIP3      H1             34.9935288847       39.0150337004      -28.1178968928  TIP3      15875           0.0000000000
     97457     16275  TIP3      H2             36.0216326976       37.9159283198      -28.2482992345  TIP3      15875           0.0000000000
     97458     16276  TIP3      OH2            24.0886899344      -56.6006969967      -29.8965008373  TIP3      15876           0.0000000000
     97459     16276  TIP3      H1             23.2132796532      -56.4654412962      -29.5321793021  TIP3      15876           0.0000000000
     97460     16276  TIP3      H2             24.0527039087      -56.0275956697      -30.7049628600  TIP3      15876           0.0000000000
     97461     16277  TIP3      OH2            28.8127482786      -56.7023770538      -30.7708953516  TIP3      15877           0.0000000000
     97462     16277  TIP3      H1             28.3487462148      -56.1495275763      -31.4222883993  TIP3      15877           0.0000000000
     97463     16277  TIP3      H2             28.9647280640      -56.0625565273      -30.0337495924  TIP3      15877           0.0000000000
     97464     16278  TIP3      OH2            31.1267275077       55.0065247271      -29.7844471705  TIP3      15878           0.0000000000
     97465     16278  TIP3      H1             30.2355808602       55.2251518018      -30.0973160864  TIP3      15878           0.0000000000
     97466     16278  TIP3      H2             31.5583148370       55.8692005119      -29.8810718068  TIP3      15878           0.0000000000
     97467     16279  TIP3      OH2            21.0501713380       55.2671685476      -32.0565501685  TIP3      15879           0.0000000000
     97468     16279  TIP3      H1             21.0183954147       54.8510972443      -31.1737723371  TIP3      15879           0.0000000000
     97469     16279  TIP3      H2             21.8815264475       54.9457167340      -32.4607332297  TIP3      15879           0.0000000000
     97470     16280  TIP3      OH2            23.1660672387       54.0290958495      -33.4088769068  TIP3      15880           0.0000000000
     97471     16280  TIP3      H1             22.9854322190       53.0894872503      -33.2218323961  TIP3      15880           0.0000000000
     97472     16280  TIP3      H2             24.0243097771       54.1482152016      -32.9458344433  TIP3      15880           0.0000000000
     97473     16281  TIP3      OH2            25.7452161307       54.4920821459      -32.5425254012  TIP3      15881           0.0000000000
     97474     16281  TIP3      H1             25.9430390961       53.5781482329      -32.8194143402  TIP3      15881           0.0000000000
     97475     16281  TIP3      H2             25.8023371014       54.4406475124      -31.5828646188  TIP3      15881           0.0000000000
     97476     16282  TIP3      OH2            29.2351812120       40.1525923805      -33.4010998817  TIP3      15882           0.0000000000
     97477     16282  TIP3      H1             28.5579941501       39.5065552671      -33.1425805310  TIP3      15882           0.0000000000
     97478     16282  TIP3      H2             29.7926575873       39.6409206904      -34.0013222793  TIP3      15882           0.0000000000
     97479     16283  TIP3      OH2            34.3701319188       38.2250440157      -33.3012804297  TIP3      15883           0.0000000000
     97480     16283  TIP3      H1             34.9888426415       38.8019324011      -33.8181158457  TIP3      15883           0.0000000000
     97481     16283  TIP3      H2             33.4936592138       38.5698581636      -33.5507330853  TIP3      15883           0.0000000000
     97482     16284  TIP3      OH2            36.0631696682       39.4123882174      -34.9964738497  TIP3      15884           0.0000000000
     97483     16284  TIP3      H1             36.7275560217       38.8686494654      -35.4844263821  TIP3      15884           0.0000000000
     97484     16284  TIP3      H2             36.5119849586       40.2777930878      -34.9432998379  TIP3      15884           0.0000000000
     97485     16285  TIP3      OH2            21.5837124056       38.7886653336      -35.5689161400  TIP3      15885           0.0000000000
     97486     16285  TIP3      H1             20.7911402090       38.5533291661      -36.0889533785  TIP3      15885           0.0000000000
     97487     16285  TIP3      H2             22.0822261383       37.9507974098      -35.5946361282  TIP3      15885           0.0000000000
     97488     16286  TIP3      OH2            20.3794968631       38.5536350123      -39.7987377757  TIP3      15886           0.0000000000
     97489     16286  TIP3      H1             20.8463262945       39.1871950413      -40.3774038742  TIP3      15886           0.0000000000
     97490     16286  TIP3      H2             19.7778414147       39.1195971061      -39.2936334865  TIP3      15886           0.0000000000
     97491     16287  TIP3      OH2            26.1108258632       38.7022796371      -35.7742150135  TIP3      15887           0.0000000000
     97492     16287  TIP3      H1             27.0068966282       39.0827304537      -35.8112415356  TIP3      15887           0.0000000000
     97493     16287  TIP3      H2             26.0222523099       38.4911401877      -34.8447061048  TIP3      15887           0.0000000000
     97494     16288  TIP3      OH2            31.7360434985       38.7363536461      -34.1264632621  TIP3      15888           0.0000000000
     97495     16288  TIP3      H1             31.7617585470       38.8280047985      -35.0842481628  TIP3      15888           0.0000000000
     97496     16288  TIP3      H2             31.4096179882       37.8142742417      -34.0010256237  TIP3      15888           0.0000000000
     97497     16289  TIP3      OH2            33.0622483384       38.7618520533      -38.4520623938  TIP3      15889           0.0000000000
     97498     16289  TIP3      H1             32.3322655163       39.3683146858      -38.6405452213  TIP3      15889           0.0000000000
     97499     16289  TIP3      H2             32.6055701824       37.9054803745      -38.2848103339  TIP3      15889           0.0000000000
     97500     16290  TIP3      OH2            20.3090100244       54.4964207637      -38.8449981473  TIP3      15890           0.0000000000
     97501     16290  TIP3      H1             19.6129999477       54.4866548205      -39.5345354041  TIP3      15890           0.0000000000
     97502     16290  TIP3      H2             20.3006086666       55.4393835674      -38.6294677199  TIP3      15890           0.0000000000
     97503     16291  TIP3      OH2            22.2288310870       40.4562602276      -41.3251213604  TIP3      15891           0.0000000000
     97504     16291  TIP3      H1             22.7494619876       39.8583720062      -41.8606388373  TIP3      15891           0.0000000000
     97505     16291  TIP3      H2             22.8790343638       40.8006184360      -40.6868918926  TIP3      15891           0.0000000000
     97506     16292  TIP3      OH2            27.2595513713       40.7524974648      -38.9107969913  TIP3      15892           0.0000000000
     97507     16292  TIP3      H1             27.4771893991       40.1451658415      -38.1838594526  TIP3      15892           0.0000000000
     97508     16292  TIP3      H2             27.2584080046       41.6079405765      -38.4179346881  TIP3      15892           0.0000000000
     97509     16293  TIP3      OH2            29.1356847464       55.9067921998      -40.3980930973  TIP3      15893           0.0000000000
     97510     16293  TIP3      H1             30.0554618465       56.0871965587      -40.6646599223  TIP3      15893           0.0000000000
     97511     16293  TIP3      H2             28.9443608168       55.3523123493      -41.2076619227  TIP3      15893           0.0000000000
     97512     16294  TIP3      OH2            35.8819181230       55.2898375965      -37.7599339984  TIP3      15894           0.0000000000
     97513     16294  TIP3      H1             35.6718178555       54.5312266029      -38.3601796065  TIP3      15894           0.0000000000
     97514     16294  TIP3      H2             35.8161192008       56.0441483833      -38.3851596522  TIP3      15894           0.0000000000
     97515     16295  TIP3      OH2            21.4885788770       39.3136040018      -26.0997887046  TIP3      15895           0.0000000000
     97516     16295  TIP3      H1             21.1466868071       38.5246934564      -25.6429326722  TIP3      15895           0.0000000000
     97517     16295  TIP3      H2             22.4196715504       39.3054685605      -25.7612872964  TIP3      15895           0.0000000000
     97518     16296  TIP3      OH2            23.4904638622       38.6792740407      -24.5067850465  TIP3      15896           0.0000000000
     97519     16296  TIP3      H1             24.3928849274       38.3586920242      -24.7153174975  TIP3      15896           0.0000000000
     97520     16296  TIP3      H2             23.1210866874       37.8922208463      -24.0695708613  TIP3      15896           0.0000000000
     97521     16297  TIP3      OH2            22.1281902645       55.4523826672      -41.8559317833  TIP3      15897           0.0000000000
     97522     16297  TIP3      H1             21.8307017241       55.7300156169      -40.9780964662  TIP3      15897           0.0000000000
     97523     16297  TIP3      H2             22.8809107659       54.8924762412      -41.6975243147  TIP3      15897           0.0000000000
     97524     16298  TIP3      OH2            31.9095044798       37.9956629920      -24.3400550369  TIP3      15898           0.0000000000
     97525     16298  TIP3      H1             31.9813601653       37.5381837149      -23.4961903823  TIP3      15898           0.0000000000
     97526     16298  TIP3      H2             32.8170072420       37.9725044857      -24.6987138711  TIP3      15898           0.0000000000
     97527     16299  TIP3      OH2            35.1058958052       54.0454974130      -25.6492534666  TIP3      15899           0.0000000000
     97528     16299  TIP3      H1             34.2999592245       53.8777087817      -26.1859683977  TIP3      15899           0.0000000000
     97529     16299  TIP3      H2             35.0144110879       54.9853993060      -25.4508077706  TIP3      15899           0.0000000000
     97530     16300  TIP3      OH2            49.5218749266       47.9170187428      -35.6514702538  TIP3      15900           0.0000000000
     97531     16300  TIP3      H1             49.5647324309       48.8914880279      -35.7503777911  TIP3      15900           0.0000000000
     97532     16300  TIP3      H2             48.8384063686       47.6691433171      -36.2930501538  TIP3      15900           0.0000000000
     97533     16301  TIP3      OH2            48.4144908457       47.1900967309      -32.1932841022  TIP3      15901           0.0000000000
     97534     16301  TIP3      H1             48.3881042309       46.5314548888      -31.4927205900  TIP3      15901           0.0000000000
     97535     16301  TIP3      H2             48.0904184411       46.7003456987      -32.9679925555  TIP3      15901           0.0000000000
     97536     16302  TIP3      OH2            40.7691764264       46.8276360297      -30.6291412627  TIP3      15902           0.0000000000
     97537     16302  TIP3      H1             40.8492521204       46.1640931063      -29.9084431842  TIP3      15902           0.0000000000
     97538     16302  TIP3      H2             41.5095712484       47.4220290668      -30.4308391512  TIP3      15902           0.0000000000
     97539     16303  TIP3      OH2            52.1242411177       50.1246870426      -33.9171461811  TIP3      15903           0.0000000000
     97540     16303  TIP3      H1             51.6958621100       49.4084958536      -33.4365276265  TIP3      15903           0.0000000000
     97541     16303  TIP3      H2             52.1110966634       50.8378870693      -33.2593783362  TIP3      15903           0.0000000000
     97542     16304  TIP3      OH2            41.7006745994       51.2778879728      -32.0968204170  TIP3      15904           0.0000000000
     97543     16304  TIP3      H1             41.3621179659       50.4380182752      -32.4545361828  TIP3      15904           0.0000000000
     97544     16304  TIP3      H2             42.6544085333       51.0853199140      -32.0554525824  TIP3      15904           0.0000000000
     97545     16305  TIP3      OH2            38.3298609933       44.8807198170      -36.6625871570  TIP3      15905           0.0000000000
     97546     16305  TIP3      H1             37.8603472220       45.7502113479      -36.7320684369  TIP3      15905           0.0000000000
     97547     16305  TIP3      H2             37.7558810265       44.3294224661      -37.2264305144  TIP3      15905           0.0000000000
     97548     16306  TIP3      OH2            39.0214778119       47.0767828685      -34.5597932987  TIP3      15906           0.0000000000
     97549     16306  TIP3      H1             39.2609016671       46.3525702785      -33.9701442010  TIP3      15906           0.0000000000
     97550     16306  TIP3      H2             39.7709296473       47.2346172631      -35.1632305554  TIP3      15906           0.0000000000
     97551     16307  TIP3      OH2            49.2004254306       55.2372213249      -33.7034052290  TIP3      15907           0.0000000000
     97552     16307  TIP3      H1             49.8550168168       54.5383359491      -33.9472042077  TIP3      15907           0.0000000000
     97553     16307  TIP3      H2             49.0195069191       54.9848731949      -32.7919428586  TIP3      15907           0.0000000000
     97554     16308  TIP3      OH2            46.7915202954       49.6070252706      -31.7722017807  TIP3      15908           0.0000000000
     97555     16308  TIP3      H1             47.1269209169       48.9392542182      -32.3921774419  TIP3      15908           0.0000000000
     97556     16308  TIP3      H2             47.5634107781       49.7338578669      -31.1944505834  TIP3      15908           0.0000000000
     97557     16309  TIP3      OH2            55.4375558997       41.2190944784      -30.9636332903  TIP3      15909           0.0000000000
     97558     16309  TIP3      H1             55.5469835548       41.8380232174      -30.2076319190  TIP3      15909           0.0000000000
     97559     16309  TIP3      H2             55.9260596764       41.6759513715      -31.6625160427  TIP3      15909           0.0000000000
     97560     16310  TIP3      OH2            49.9530505280       44.0395742845      -31.4373610517  TIP3      15910           0.0000000000
     97561     16310  TIP3      H1             50.1029969559       43.0736841083      -31.4446478409  TIP3      15910           0.0000000000
     97562     16310  TIP3      H2             49.8489188572       44.2021005987      -32.3976719972  TIP3      15910           0.0000000000
     97563     16311  TIP3      OH2            43.0748556486       42.1326188396      -34.1866386094  TIP3      15911           0.0000000000
     97564     16311  TIP3      H1             43.1754274713       42.9733426318      -34.6517409486  TIP3      15911           0.0000000000
     97565     16311  TIP3      H2             42.6648272249       41.5504370199      -34.8615536594  TIP3      15911           0.0000000000
     97566     16312  TIP3      OH2            50.8243268412       42.2326295535      -35.8195036127  TIP3      15912           0.0000000000
     97567     16312  TIP3      H1             51.4810330138       41.9031234229      -35.1622681600  TIP3      15912           0.0000000000
     97568     16312  TIP3      H2             51.3652428352       42.7727693086      -36.4051321620  TIP3      15912           0.0000000000
     97569     16313  TIP3      OH2            39.6820756686       44.3958088835      -33.2280863837  TIP3      15913           0.0000000000
     97570     16313  TIP3      H1             40.4600947214       43.9052070569      -32.8864797494  TIP3      15913           0.0000000000
     97571     16313  TIP3      H2             39.7195366052       44.0224844465      -34.0991608219  TIP3      15913           0.0000000000
     97572     16314  TIP3      OH2            44.8623709889       46.0880533917      -34.1866997407  TIP3      15914           0.0000000000
     97573     16314  TIP3      H1             45.5153227688       45.5259768707      -33.7281914397  TIP3      15914           0.0000000000
     97574     16314  TIP3      H2             44.3222708547       45.4164943330      -34.6393293840  TIP3      15914           0.0000000000
     97575     16315  TIP3      OH2            55.8783249264       42.6786878553      -28.7129834852  TIP3      15915           0.0000000000
     97576     16315  TIP3      H1             55.2014938217       43.3814646481      -28.8215894625  TIP3      15915           0.0000000000
     97577     16315  TIP3      H2             55.8717177790       42.5235325797      -27.7602530909  TIP3      15915           0.0000000000
     97578     16316  TIP3      OH2            41.9520219726       41.0241052948      -30.1371201863  TIP3      15916           0.0000000000
     97579     16316  TIP3      H1             41.6949946581       41.5794536540      -30.8946568278  TIP3      15916           0.0000000000
     97580     16316  TIP3      H2             41.2604106685       41.2655238399      -29.4719548456  TIP3      15916           0.0000000000
     97581     16317  TIP3      OH2            49.2870998470       50.5171280767      -36.5879982898  TIP3      15917           0.0000000000
     97582     16317  TIP3      H1             48.9906368349       50.2175850375      -37.4561870976  TIP3      15917           0.0000000000
     97583     16317  TIP3      H2             48.9517445524       51.4387787594      -36.5479140596  TIP3      15917           0.0000000000
     97584     16318  TIP3      OH2            44.4936910145       48.6811912248      -29.8701515859  TIP3      15918           0.0000000000
     97585     16318  TIP3      H1             43.7664079057       49.3223191900      -29.7240742975  TIP3      15918           0.0000000000
     97586     16318  TIP3      H2             45.1972925804       49.2734513581      -30.1686487519  TIP3      15918           0.0000000000
     97587     16319  TIP3      OH2            52.6165684203       41.5487367212      -33.8387120326  TIP3      15919           0.0000000000
     97588     16319  TIP3      H1             52.3918251846       40.7850434869      -33.2909433178  TIP3      15919           0.0000000000
     97589     16319  TIP3      H2             53.2719782418       42.0000153337      -33.2908313883  TIP3      15919           0.0000000000
     97590     16320  TIP3      OH2            41.5151090986       42.9087019846      -32.1634740186  TIP3      15920           0.0000000000
     97591     16320  TIP3      H1             42.1601884136       43.5597957087      -31.7963828700  TIP3      15920           0.0000000000
     97592     16320  TIP3      H2             42.0604790387       42.4446848290      -32.8414872702  TIP3      15920           0.0000000000
     97593     16321  TIP3      OH2            42.9147577971       50.6547118967      -29.0783552138  TIP3      15921           0.0000000000
     97594     16321  TIP3      H1             42.8928903590       51.5668139654      -29.4353898535  TIP3      15921           0.0000000000
     97595     16321  TIP3      H2             42.0378680549       50.6098505524      -28.6368299322  TIP3      15921           0.0000000000
     97596     16322  TIP3      OH2            39.0096089395       50.3142359234      -38.2812685370  TIP3      15922           0.0000000000
     97597     16322  TIP3      H1             38.7612803249       50.5992904765      -39.1790215387  TIP3      15922           0.0000000000
     97598     16322  TIP3      H2             39.0702009905       51.1698312344      -37.8012180963  TIP3      15922           0.0000000000
     97599     16323  TIP3      OH2            52.6448473971       51.9657779528      -31.5179179493  TIP3      15923           0.0000000000
     97600     16323  TIP3      H1             51.6664670278       52.0358830925      -31.4163982263  TIP3      15923           0.0000000000
     97601     16323  TIP3      H2             52.9023726334       52.8685188146      -31.7414425572  TIP3      15923           0.0000000000
     97602     16324  TIP3      OH2            52.9524128595       40.2423783263      -30.1462014841  TIP3      15924           0.0000000000
     97603     16324  TIP3      H1             52.2152146226       40.8685123702      -30.2044044933  TIP3      15924           0.0000000000
     97604     16324  TIP3      H2             53.6450318124       40.6731809137      -30.6761531441  TIP3      15924           0.0000000000
     97605     16325  TIP3      OH2            45.9496366321       38.3481067559      -32.6831032376  TIP3      15925           0.0000000000
     97606     16325  TIP3      H1             45.8050593220       37.3868542469      -32.7437545948  TIP3      15925           0.0000000000
     97607     16325  TIP3      H2             45.0710731512       38.6697039691      -32.3948000182  TIP3      15925           0.0000000000
     97608     16326  TIP3      OH2            50.8755408826       53.7292273626      -34.9435120681  TIP3      15926           0.0000000000
     97609     16326  TIP3      H1             51.3310367044       53.0135899304      -35.4258294736  TIP3      15926           0.0000000000
     97610     16326  TIP3      H2             51.2655248346       54.5310161405      -35.3213643169  TIP3      15926           0.0000000000
     97611     16327  TIP3      OH2            52.0649795193       51.6783308204      -36.4342349796  TIP3      15927           0.0000000000
     97612     16327  TIP3      H1             51.7983879011       50.9580477778      -37.0391953194  TIP3      15927           0.0000000000
     97613     16327  TIP3      H2             52.1231484608       51.1848304483      -35.5853074301  TIP3      15927           0.0000000000
     97614     16328  TIP3      OH2            53.7290051700       50.2309565088      -27.9374615113  TIP3      15928           0.0000000000
     97615     16328  TIP3      H1             53.8663988357       49.6065740420      -28.6819904442  TIP3      15928           0.0000000000
     97616     16328  TIP3      H2             53.9221597007       51.0885855122      -28.3367021512  TIP3      15928           0.0000000000
     97617     16329  TIP3      OH2            48.2101551265       47.1681959871      -38.1674870008  TIP3      15929           0.0000000000
     97618     16329  TIP3      H1             47.5033421430       47.7224270391      -38.5487262400  TIP3      15929           0.0000000000
     97619     16329  TIP3      H2             48.9091976339       47.2415526633      -38.8459901120  TIP3      15929           0.0000000000
     97620     16330  TIP3      OH2            48.2556350882       45.6572218494      -41.1246828300  TIP3      15930           0.0000000000
     97621     16330  TIP3      H1             48.9786024167       45.6678839656      -40.4815014701  TIP3      15930           0.0000000000
     97622     16330  TIP3      H2             48.5774436719       45.0196837893      -41.7728736803  TIP3      15930           0.0000000000
     97623     16331  TIP3      OH2            55.5567923543       46.5345132463      -29.9014261752  TIP3      15931           0.0000000000
     97624     16331  TIP3      H1             54.9287027996       47.2763684341      -29.8103140984  TIP3      15931           0.0000000000
     97625     16331  TIP3      H2             56.0592700969       46.7945550176      -30.7003345070  TIP3      15931           0.0000000000
     97626     16332  TIP3      OH2            51.6347661435       47.3797845150      -37.2429799998  TIP3      15932           0.0000000000
     97627     16332  TIP3      H1             50.8830291087       47.6205331037      -36.6436998667  TIP3      15932           0.0000000000
     97628     16332  TIP3      H2             52.0863021964       46.6855763273      -36.7417115619  TIP3      15932           0.0000000000
     97629     16333  TIP3      OH2            51.5539222175       45.5348412956      -28.1452804067  TIP3      15933           0.0000000000
     97630     16333  TIP3      H1             51.5811159909       46.3348013195      -27.5902931612  TIP3      15933           0.0000000000
     97631     16333  TIP3      H2             50.9256663473       45.8408507900      -28.8373579989  TIP3      15933           0.0000000000
     97632     16334  TIP3      OH2            43.2517248921       48.0241858880      -35.3277677215  TIP3      15934           0.0000000000
     97633     16334  TIP3      H1             42.9506090385       47.6452835644      -36.1856245392  TIP3      15934           0.0000000000
     97634     16334  TIP3      H2             43.8817902031       47.3407454014      -34.9995527830  TIP3      15934           0.0000000000
     97635     16335  TIP3      OH2            44.6086997267       51.4492249587      -32.6588618160  TIP3      15935           0.0000000000
     97636     16335  TIP3      H1             44.5566783115       50.8722553152      -33.4327173472  TIP3      15935           0.0000000000
     97637     16335  TIP3      H2             45.3716002455       51.0711377198      -32.1843902370  TIP3      15935           0.0000000000
     97638     16336  TIP3      OH2            43.6028436851       46.7765323106      -31.7069659456  TIP3      15936           0.0000000000
     97639     16336  TIP3      H1             44.1960103565       46.9030288270      -32.4715090316  TIP3      15936           0.0000000000
     97640     16336  TIP3      H2             43.9616280015       47.4288035070      -31.0689472941  TIP3      15936           0.0000000000
     97641     16337  TIP3      OH2            49.9848016198       52.3266968358      -30.9750635480  TIP3      15937           0.0000000000
     97642     16337  TIP3      H1             49.6863789526       52.9639659206      -30.3257712571  TIP3      15937           0.0000000000
     97643     16337  TIP3      H2             49.7371862999       51.4611170252      -30.5498322844  TIP3      15937           0.0000000000
     97644     16338  TIP3      OH2            44.5310607653       51.1907820293      -26.9747249677  TIP3      15938           0.0000000000
     97645     16338  TIP3      H1             44.1731353891       51.9783344602      -26.5241241458  TIP3      15938           0.0000000000
     97646     16338  TIP3      H2             43.8679294454       51.0279429671      -27.6849875988  TIP3      15938           0.0000000000
     97647     16339  TIP3      OH2            50.5125313773       46.5302931694      -39.5637032947  TIP3      15939           0.0000000000
     97648     16339  TIP3      H1             51.0698845019       46.7292585681      -38.7781985756  TIP3      15939           0.0000000000
     97649     16339  TIP3      H2             50.9127158771       47.0551151664      -40.2797245948  TIP3      15939           0.0000000000
     97650     16340  TIP3      OH2            41.4246458685       47.3441308869      -27.7318581680  TIP3      15940           0.0000000000
     97651     16340  TIP3      H1             41.5617171061       48.0704516441      -27.1131031538  TIP3      15940           0.0000000000
     97652     16340  TIP3      H2             40.5522177883       47.4814172914      -28.1263967149  TIP3      15940           0.0000000000
     97653     16341  TIP3      OH2            48.2473390241       53.2960498904      -36.1122361661  TIP3      15941           0.0000000000
     97654     16341  TIP3      H1             48.6865118436       53.5856174465      -35.3075506504  TIP3      15941           0.0000000000
     97655     16341  TIP3      H2             47.6534669776       54.0196327445      -36.3390114858  TIP3      15941           0.0000000000
     97656     16342  TIP3      OH2            42.7899797585       53.2577049422      -26.2274364706  TIP3      15942           0.0000000000
     97657     16342  TIP3      H1             42.7477937766       53.1171121071      -27.1867369369  TIP3      15942           0.0000000000
     97658     16342  TIP3      H2             41.8491352726       53.1430777625      -25.9795423441  TIP3      15942           0.0000000000
     97659     16343  TIP3      OH2            54.2178962378       38.2923127354      -39.7093053178  TIP3      15943           0.0000000000
     97660     16343  TIP3      H1             53.2777202983       38.4309544771      -39.4364810054  TIP3      15943           0.0000000000
     97661     16343  TIP3      H2             54.4567335914       39.1391201883      -40.1189320711  TIP3      15943           0.0000000000
     97662     16344  TIP3      OH2            42.2376614058       47.0690302501      -37.7163905143  TIP3      15944           0.0000000000
     97663     16344  TIP3      H1             41.9670487922       47.8486168586      -38.2547641325  TIP3      15944           0.0000000000
     97664     16344  TIP3      H2             41.5860898680       46.4141020602      -37.9554961999  TIP3      15944           0.0000000000
     97665     16345  TIP3      OH2            55.3348033964       52.6695490890      -41.3192305703  TIP3      15945           0.0000000000
     97666     16345  TIP3      H1             55.4694955323       53.6197998687      -41.1922249683  TIP3      15945           0.0000000000
     97667     16345  TIP3      H2             56.2675101953       52.3541682896      -41.3967751974  TIP3      15945           0.0000000000
     97668     16346  TIP3      OH2            38.3489213212       49.4650500180      -28.8746221213  TIP3      15946           0.0000000000
     97669     16346  TIP3      H1             37.8604429799       49.4172795502      -29.7312736035  TIP3      15946           0.0000000000
     97670     16346  TIP3      H2             38.3552992308       48.5234478499      -28.6491128476  TIP3      15946           0.0000000000
     97671     16347  TIP3      OH2            38.0892019214       52.2091446595      -32.0458174766  TIP3      15947           0.0000000000
     97672     16347  TIP3      H1             39.0455034585       52.0889133920      -32.0707772030  TIP3      15947           0.0000000000
     97673     16347  TIP3      H2             37.9982501416       53.0185893370      -31.5254434322  TIP3      15947           0.0000000000
     97674     16348  TIP3      OH2            47.2870228283       52.4603178082      -27.5009014304  TIP3      15948           0.0000000000
     97675     16348  TIP3      H1             47.3574753786       53.3060083682      -27.0107710971  TIP3      15948           0.0000000000
     97676     16348  TIP3      H2             46.4082776878       52.1290188227      -27.2510513659  TIP3      15948           0.0000000000
     97677     16349  TIP3      OH2            47.7401283583      -56.6320143719      -37.6987056029  TIP3      15949           0.0000000000
     97678     16349  TIP3      H1             47.6012714991      -56.7231674373      -38.6645107940  TIP3      15949           0.0000000000
     97679     16349  TIP3      H2             47.6874434058      -55.6649934760      -37.5578407757  TIP3      15949           0.0000000000
     97680     16350  TIP3      OH2            41.3705329952       55.0289541129      -35.9074133461  TIP3      15950           0.0000000000
     97681     16350  TIP3      H1             41.4965519589       54.6658352415      -35.0059859276  TIP3      15950           0.0000000000
     97682     16350  TIP3      H2             40.5016000350       54.6586635829      -36.1361144752  TIP3      15950           0.0000000000
     97683     16351  TIP3      OH2            50.8012958973       55.4275137645      -40.6843599158  TIP3      15951           0.0000000000
     97684     16351  TIP3      H1             51.1745696181       54.6428166754      -41.1650201735  TIP3      15951           0.0000000000
     97685     16351  TIP3      H2             50.7906951991       55.0900515310      -39.7857235961  TIP3      15951           0.0000000000
     97686     16352  TIP3      OH2            50.4318069640       55.3089231147      -37.9279045945  TIP3      15952           0.0000000000
     97687     16352  TIP3      H1             49.4657781934       55.3931644024      -37.7537545283  TIP3      15952           0.0000000000
     97688     16352  TIP3      H2             50.6674249975       54.5526525189      -37.3604953221  TIP3      15952           0.0000000000
     97689     16353  TIP3      OH2            53.4609657465       44.3844079471      -25.8834559872  TIP3      15953           0.0000000000
     97690     16353  TIP3      H1             53.0197265318       44.8615579336      -26.6117159135  TIP3      15953           0.0000000000
     97691     16353  TIP3      H2             53.4801042435       43.4777500164      -26.2190432982  TIP3      15953           0.0000000000
     97692     16354  TIP3      OH2            40.5989139879       50.7713400719      -27.8970680940  TIP3      15954           0.0000000000
     97693     16354  TIP3      H1             40.8347650601       50.4362488344      -27.0098353295  TIP3      15954           0.0000000000
     97694     16354  TIP3      H2             39.7262236002       50.4050487184      -28.1184256160  TIP3      15954           0.0000000000
     97695     16355  TIP3      OH2            43.2593101011       39.2463414127      -31.9157919000  TIP3      15955           0.0000000000
     97696     16355  TIP3      H1             42.3590010735       39.1574933301      -32.3050682289  TIP3      15955           0.0000000000
     97697     16355  TIP3      H2             43.1791195110       40.0993395287      -31.4633568525  TIP3      15955           0.0000000000
     97698     16356  TIP3      OH2            47.9088767143       38.9572039848      -28.5491434527  TIP3      15956           0.0000000000
     97699     16356  TIP3      H1             48.3100549450       38.5356980186      -27.7680743757  TIP3      15956           0.0000000000
     97700     16356  TIP3      H2             46.9422414904       38.7960989319      -28.4122247118  TIP3      15956           0.0000000000
     97701     16357  TIP3      OH2            51.2105281122       42.7429748051      -27.6854801462  TIP3      15957           0.0000000000
     97702     16357  TIP3      H1             50.6674634985       42.5808511060      -26.8785631071  TIP3      15957           0.0000000000
     97703     16357  TIP3      H2             51.0398220914       43.6679502658      -27.9185078104  TIP3      15957           0.0000000000
     97704     16358  TIP3      OH2            52.0377483951       47.6265133301      -41.8277867295  TIP3      15958           0.0000000000
     97705     16358  TIP3      H1             52.0397419692       47.4046554590      -42.7852067336  TIP3      15958           0.0000000000
     97706     16358  TIP3      H2             52.8885003971       48.0369837018      -41.7015710469  TIP3      15958           0.0000000000
     97707     16359  TIP3      OH2            47.5631857567       41.4847150391      -41.2446602046  TIP3      15959           0.0000000000
     97708     16359  TIP3      H1             47.2750754330       41.4643613426      -40.3113177582  TIP3      15959           0.0000000000
     97709     16359  TIP3      H2             47.2889422589       40.6026865327      -41.5267619436  TIP3      15959           0.0000000000
     97710     16360  TIP3      OH2            43.3396704294       44.2104083972      -30.7685074799  TIP3      15960           0.0000000000
     97711     16360  TIP3      H1             42.6616675452       44.1894646433      -30.0677243913  TIP3      15960           0.0000000000
     97712     16360  TIP3      H2             43.3496987929       45.1515158759      -31.0435818897  TIP3      15960           0.0000000000
     97713     16361  TIP3      OH2            43.3123939051       44.4191982810      -35.8554641979  TIP3      15961           0.0000000000
     97714     16361  TIP3      H1             42.4178253358       44.0728152588      -35.9712962865  TIP3      15961           0.0000000000
     97715     16361  TIP3      H2             43.7535218696       44.0578977934      -36.6575588424  TIP3      15961           0.0000000000
     97716     16362  TIP3      OH2            48.8529871401       44.8400993851      -37.0617508644  TIP3      15962           0.0000000000
     97717     16362  TIP3      H1             48.4435325609       45.6758382880      -37.3790783999  TIP3      15962           0.0000000000
     97718     16362  TIP3      H2             49.5590670887       44.7034059000      -37.7166353699  TIP3      15962           0.0000000000
     97719     16363  TIP3      OH2            47.9402405291       45.0604401333      -25.5799085871  TIP3      15963           0.0000000000
     97720     16363  TIP3      H1             47.3846354305       44.2985563490      -25.2863247468  TIP3      15963           0.0000000000
     97721     16363  TIP3      H2             48.7785300866       44.9038615145      -25.1206496355  TIP3      15963           0.0000000000
     97722     16364  TIP3      OH2            49.8711170492       44.3184940828      -34.2265796061  TIP3      15964           0.0000000000
     97723     16364  TIP3      H1             49.6407532191       44.8987212629      -34.9721458884  TIP3      15964           0.0000000000
     97724     16364  TIP3      H2             50.0183802659       43.4718642181      -34.6959140769  TIP3      15964           0.0000000000
     97725     16365  TIP3      OH2            41.0294653862       44.5277217607      -28.9662721963  TIP3      15965           0.0000000000
     97726     16365  TIP3      H1             41.0493874933       44.9066162423      -28.0779620214  TIP3      15965           0.0000000000
     97727     16365  TIP3      H2             40.5698516151       43.6834540819      -28.8291213586  TIP3      15965           0.0000000000
     97728     16366  TIP3      OH2            44.5384521110       42.0824296405      -41.9000946932  TIP3      15966           0.0000000000
     97729     16366  TIP3      H1             44.0052039108       41.4643998881      -41.3643524398  TIP3      15966           0.0000000000
     97730     16366  TIP3      H2             43.8604281574       42.3600184670      -42.5346624296  TIP3      15966           0.0000000000
     97731     16367  TIP3      OH2            37.6786767932       41.6664020274      -35.0687808121  TIP3      15967           0.0000000000
     97732     16367  TIP3      H1             38.3188225007       41.5766089026      -34.3382983710  TIP3      15967           0.0000000000
     97733     16367  TIP3      H2             38.1136460208       41.2045925845      -35.8136537157  TIP3      15967           0.0000000000
     97734     16368  TIP3      OH2            38.9653642228       42.3610832849      -39.6373232986  TIP3      15968           0.0000000000
     97735     16368  TIP3      H1             39.4282778149       42.9617909172      -40.2623815610  TIP3      15968           0.0000000000
     97736     16368  TIP3      H2             38.2359041609       42.9425531233      -39.3363499762  TIP3      15968           0.0000000000
     97737     16369  TIP3      OH2            49.1084115859       45.9416929662      -29.6132365083  TIP3      15969           0.0000000000
     97738     16369  TIP3      H1             49.4544735345       45.2749500234      -30.2357897378  TIP3      15969           0.0000000000
     97739     16369  TIP3      H2             48.6592021660       45.3961011903      -28.9437449700  TIP3      15969           0.0000000000
     97740     16370  TIP3      OH2            45.8976935331       41.8777674651      -34.8159073934  TIP3      15970           0.0000000000
     97741     16370  TIP3      H1             44.9644939235       41.9141297172      -34.5126263924  TIP3      15970           0.0000000000
     97742     16370  TIP3      H2             46.3933055045       41.7785272721      -33.9890412793  TIP3      15970           0.0000000000
     97743     16371  TIP3      OH2            40.7168516805       43.4527563827      -35.9737090291  TIP3      15971           0.0000000000
     97744     16371  TIP3      H1             39.8287772887       43.5359073062      -36.3790218288  TIP3      15971           0.0000000000
     97745     16371  TIP3      H2             41.0289154108       42.6096865744      -36.3487197284  TIP3      15971           0.0000000000
     97746     16372  TIP3      OH2            44.3512600098       43.5077957847      -38.3049976473  TIP3      15972           0.0000000000
     97747     16372  TIP3      H1             45.3097731195       43.6154860210      -38.1411771423  TIP3      15972           0.0000000000
     97748     16372  TIP3      H2             44.1431377462       44.1650471886      -38.9914546823  TIP3      15972           0.0000000000
     97749     16373  TIP3      OH2            50.3077452119       41.1158596588      -31.5563544455  TIP3      15973           0.0000000000
     97750     16373  TIP3      H1             49.6124965527       41.2129186414      -30.8720614954  TIP3      15973           0.0000000000
     97751     16373  TIP3      H2             49.8020528776       40.9227944402      -32.3571554911  TIP3      15973           0.0000000000
     97752     16374  TIP3      OH2            43.0463362162       44.6792776710      -40.7335653214  TIP3      15974           0.0000000000
     97753     16374  TIP3      H1             42.4993114444       44.3116581815      -41.4500686155  TIP3      15974           0.0000000000
     97754     16374  TIP3      H2             43.8779860273       44.8808595874      -41.1904300440  TIP3      15974           0.0000000000
     97755     16375  TIP3      OH2            41.2622969204       49.4029517466      -25.6783985456  TIP3      15975           0.0000000000
     97756     16375  TIP3      H1             41.9739292485       49.5337915771      -25.0244206522  TIP3      15975           0.0000000000
     97757     16375  TIP3      H2             40.4759315780       49.5055192196      -25.0847745215  TIP3      15975           0.0000000000
     97758     16376  TIP3      OH2            47.1990411761       44.6577882746      -32.9191154355  TIP3      15976           0.0000000000
     97759     16376  TIP3      H1             47.7774478645       44.1069296581      -33.4612068115  TIP3      15976           0.0000000000
     97760     16376  TIP3      H2             47.0552306310       44.1186139540      -32.1306388842  TIP3      15976           0.0000000000
     97761     16377  TIP3      OH2            42.1983240410       40.8088595240      -36.4897525345  TIP3      15977           0.0000000000
     97762     16377  TIP3      H1             41.9015031464       39.8749358865      -36.5265500337  TIP3      15977           0.0000000000
     97763     16377  TIP3      H2             42.9912818004       40.7643201841      -37.0459811733  TIP3      15977           0.0000000000
     97764     16378  TIP3      OH2            45.8301891930       43.0091341019      -30.5124449889  TIP3      15978           0.0000000000
     97765     16378  TIP3      H1             44.9955714902       43.5008588412      -30.4008862918  TIP3      15978           0.0000000000
     97766     16378  TIP3      H2             46.3700533030       43.3266053581      -29.7595350232  TIP3      15978           0.0000000000
     97767     16379  TIP3      OH2            46.4088662530       49.2354974250      -38.8129987588  TIP3      15979           0.0000000000
     97768     16379  TIP3      H1             45.6241159291       48.7382369232      -39.1367354646  TIP3      15979           0.0000000000
     97769     16379  TIP3      H2             46.2231037093       49.3025786995      -37.8562774011  TIP3      15979           0.0000000000
     97770     16380  TIP3      OH2            53.5641028827       48.3790827880      -30.0164196299  TIP3      15980           0.0000000000
     97771     16380  TIP3      H1             54.1680012210       48.8574932056      -30.6064829052  TIP3      15980           0.0000000000
     97772     16380  TIP3      H2             52.7137972610       48.4866980747      -30.4931411952  TIP3      15980           0.0000000000
     97773     16381  TIP3      OH2            50.2803775134       42.0267699665      -40.6234577605  TIP3      15981           0.0000000000
     97774     16381  TIP3      H1             49.3323337792       42.1710019444      -40.7802624909  TIP3      15981           0.0000000000
     97775     16381  TIP3      H2             50.5645813499       42.9075640160      -40.3170374201  TIP3      15981           0.0000000000
     97776     16382  TIP3      OH2            47.9036745038       49.4420603763      -27.5882672293  TIP3      15982           0.0000000000
     97777     16382  TIP3      H1             47.5537796267       49.0501796441      -26.7806088593  TIP3      15982           0.0000000000
     97778     16382  TIP3      H2             47.6839106185       50.3733851690      -27.4965311191  TIP3      15982           0.0000000000
     97779     16383  TIP3      OH2            51.0036462055       43.9359511153      -38.9531083169  TIP3      15983           0.0000000000
     97780     16383  TIP3      H1             51.9009188562       43.7930041722      -38.6276989879  TIP3      15983           0.0000000000
     97781     16383  TIP3      H2             51.0470443668       44.7367810205      -39.5008086852  TIP3      15983           0.0000000000
     97782     16384  TIP3      OH2            41.4911013060       48.5536403349      -33.0467012942  TIP3      15984           0.0000000000
     97783     16384  TIP3      H1             42.2449673657       48.5403814296      -33.6686788744  TIP3      15984           0.0000000000
     97784     16384  TIP3      H2             41.5974121971       47.7292498430      -32.5480436910  TIP3      15984           0.0000000000
     97785     16385  TIP3      OH2            48.5226047979       50.6960214552      -39.7826772876  TIP3      15985           0.0000000000
     97786     16385  TIP3      H1             48.1885986623       51.5327119725      -39.4076364357  TIP3      15985           0.0000000000
     97787     16385  TIP3      H2             47.7849079740       50.0773534274      -39.5865990835  TIP3      15985           0.0000000000
     97788     16386  TIP3      OH2            38.5243058893       47.0301411160      -27.7081675959  TIP3      15986           0.0000000000
     97789     16386  TIP3      H1             38.6841899700       46.5146925568      -26.9102424176  TIP3      15986           0.0000000000
     97790     16386  TIP3      H2             37.9079499403       46.4069848991      -28.1738175879  TIP3      15986           0.0000000000
     97791     16387  TIP3      OH2            45.5162152621       46.5524905402      -25.5329506144  TIP3      15987           0.0000000000
     97792     16387  TIP3      H1             45.2325138552       46.3232941708      -26.4280994829  TIP3      15987           0.0000000000
     97793     16387  TIP3      H2             46.4572065248       46.2909587240      -25.5550156755  TIP3      15987           0.0000000000
     97794     16388  TIP3      OH2            50.1855379267       51.9257667055      -27.6414015295  TIP3      15988           0.0000000000
     97795     16388  TIP3      H1             49.2539168363       52.0754349642      -27.8753728183  TIP3      15988           0.0000000000
     97796     16388  TIP3      H2             50.1697192765       52.1565931653      -26.6943649977  TIP3      15988           0.0000000000
     97797     16389  TIP3      OH2            55.9568721220       44.1110572099      -39.4884483263  TIP3      15989           0.0000000000
     97798     16389  TIP3      H1             55.2479633283       43.7576568504      -40.0622093714  TIP3      15989           0.0000000000
     97799     16389  TIP3      H2             55.9822670420       45.0781444575      -39.6502004518  TIP3      15989           0.0000000000
     97800     16390  TIP3      OH2            55.8520001239       49.9329457113      -26.4152191101  TIP3      15990           0.0000000000
     97801     16390  TIP3      H1             54.9776371933       50.1728453371      -26.7971189741  TIP3      15990           0.0000000000
     97802     16390  TIP3      H2             56.4274180334       49.9215618973      -27.2025349272  TIP3      15990           0.0000000000
     97803     16391  TIP3      OH2            54.1491034472       52.9450232540      -38.8107986281  TIP3      15991           0.0000000000
     97804     16391  TIP3      H1             53.8099995889       52.0919124730      -38.4928981394  TIP3      15991           0.0000000000
     97805     16391  TIP3      H2             54.4716665403       52.7260186230      -39.7151857629  TIP3      15991           0.0000000000
     97806     16392  TIP3      OH2            51.3491799897       47.7395187347      -31.7520538796  TIP3      15992           0.0000000000
     97807     16392  TIP3      H1             50.4089203566       47.5004997338      -31.8216291626  TIP3      15992           0.0000000000
     97808     16392  TIP3      H2             51.7884169569       46.9561680309      -32.1303504706  TIP3      15992           0.0000000000
     97809     16393  TIP3      OH2            43.8905670504       52.0579511554      -35.6334886475  TIP3      15993           0.0000000000
     97810     16393  TIP3      H1             44.4016493111       52.8534210258      -35.8429391518  TIP3      15993           0.0000000000
     97811     16393  TIP3      H2             43.0074310080       52.2911353453      -35.9524312351  TIP3      15993           0.0000000000
     97812     16394  TIP3      OH2            39.6306109761       46.9152309385      -41.0754852164  TIP3      15994           0.0000000000
     97813     16394  TIP3      H1             40.2550139441       47.5483149967      -40.6771862700  TIP3      15994           0.0000000000
     97814     16394  TIP3      H2             38.7636986597       47.2278683970      -40.7760530410  TIP3      15994           0.0000000000
     97815     16395  TIP3      OH2            45.3219035002       49.7183748371      -36.0852050223  TIP3      15995           0.0000000000
     97816     16395  TIP3      H1             45.0388007166       50.6508248455      -36.0195260401  TIP3      15995           0.0000000000
     97817     16395  TIP3      H2             44.5693008264       49.2553909953      -35.6679886328  TIP3      15995           0.0000000000
     97818     16396  TIP3      OH2            45.7819861815       53.8901549563      -29.7346442481  TIP3      15996           0.0000000000
     97819     16396  TIP3      H1             46.1975700744       54.7284596916      -29.9827017844  TIP3      15996           0.0000000000
     97820     16396  TIP3      H2             46.3682416283       53.5740744896      -29.0233091662  TIP3      15996           0.0000000000
     97821     16397  TIP3      OH2            44.0022201575       54.7225620736      -36.5416922130  TIP3      15997           0.0000000000
     97822     16397  TIP3      H1             43.0384293959       54.8627044335      -36.4538715969  TIP3      15997           0.0000000000
     97823     16397  TIP3      H2             44.3494041454       55.5693739891      -36.1908183755  TIP3      15997           0.0000000000
     97824     16398  TIP3      OH2            49.3375575182       49.9515016084      -30.0669867829  TIP3      15998           0.0000000000
     97825     16398  TIP3      H1             48.9456689316       49.7355711867      -29.2002309752  TIP3      15998           0.0000000000
     97826     16398  TIP3      H2             49.9451450450       49.2169080463      -30.2403177359  TIP3      15998           0.0000000000
     97827     16399  TIP3      OH2            51.5686273236       50.9340536472      -40.9717089318  TIP3      15999           0.0000000000
     97828     16399  TIP3      H1             51.9060409538       50.5003748555      -40.1600700133  TIP3      15999           0.0000000000
     97829     16399  TIP3      H2             50.6141777026       50.7976219346      -40.8831206479  TIP3      15999           0.0000000000
     97830     16400  TIP3      OH2            52.0810813679       54.5075761957      -27.6069562734  TIP3      16000           0.0000000000
     97831     16400  TIP3      H1             51.3952708420       53.9666085031      -28.0666790707  TIP3      16000           0.0000000000
     97832     16400  TIP3      H2             52.2507779466       55.2195481236      -28.2091088621  TIP3      16000           0.0000000000
     97833     16401  TIP3      OH2            56.0540588484       55.3474897039      -40.7686069007  TIP3      16001           0.0000000000
     97834     16401  TIP3      H1             56.8154362240       55.9548365737      -40.9237061043  TIP3      16001           0.0000000000
     97835     16401  TIP3      H2             55.3632332234       55.9577712803      -40.4533599281  TIP3      16001           0.0000000000
     97836     16402  TIP3      OH2            40.1620968074       41.7546598430      -28.1897221179  TIP3      16002           0.0000000000
     97837     16402  TIP3      H1             39.2510382142       42.0976973513      -28.2348291006  TIP3      16002           0.0000000000
     97838     16402  TIP3      H2             40.0468143680       40.8980808049      -27.7473893782  TIP3      16002           0.0000000000
     97839     16403  TIP3      OH2            52.4212267265       49.5764240214      -38.7621172499  TIP3      16003           0.0000000000
     97840     16403  TIP3      H1             52.1546348366       48.8237716416      -38.1999003490  TIP3      16003           0.0000000000
     97841     16403  TIP3      H2             53.3583098013       49.6871495138      -38.5363856403  TIP3      16003           0.0000000000
     97842     16404  TIP3      OH2            39.7999535208       53.5511177472      -29.7590232734  TIP3      16004           0.0000000000
     97843     16404  TIP3      H1             40.0428799040       52.6157184341      -29.7698792560  TIP3      16004           0.0000000000
     97844     16404  TIP3      H2             40.0460930547       53.8272685083      -28.8651605581  TIP3      16004           0.0000000000
     97845     16405  TIP3      OH2            44.5713140976       51.5942652941      -40.0760157174  TIP3      16005           0.0000000000
     97846     16405  TIP3      H1             44.7599268203       51.0562479839      -39.2958831486  TIP3      16005           0.0000000000
     97847     16405  TIP3      H2             44.5972607093       52.5097569155      -39.7485597589  TIP3      16005           0.0000000000
     97848     16406  TIP3      OH2            41.0361297447       48.8291462217      -39.5776755959  TIP3      16006           0.0000000000
     97849     16406  TIP3      H1             40.3583073088       49.2220700346      -38.9959025916  TIP3      16006           0.0000000000
     97850     16406  TIP3      H2             41.5796361569       49.6023146781      -39.8166553828  TIP3      16006           0.0000000000
     97851     16407  TIP3      OH2            48.8844284615       41.5141503251      -29.2759069822  TIP3      16007           0.0000000000
     97852     16407  TIP3      H1             49.5911637635       41.5716321754      -28.6208472727  TIP3      16007           0.0000000000
     97853     16407  TIP3      H2             48.5037815459       40.6308416387      -29.0960352442  TIP3      16007           0.0000000000
     97854     16408  TIP3      OH2            49.6529477758       41.1206192271      -38.1664915128  TIP3      16008           0.0000000000
     97855     16408  TIP3      H1             49.8867594330       41.6054904242      -38.9870340642  TIP3      16008           0.0000000000
     97856     16408  TIP3      H2             50.2219458625       41.5396075515      -37.5163588282  TIP3      16008           0.0000000000
     97857     16409  TIP3      OH2            47.3450355346       53.2667557733      -39.3249177248  TIP3      16009           0.0000000000
     97858     16409  TIP3      H1             46.5212403695       53.7741308565      -39.2676094001  TIP3      16009           0.0000000000
     97859     16409  TIP3      H2             47.8640810069       53.7795135793      -39.9637096451  TIP3      16009           0.0000000000
     97860     16410  TIP3      OH2            46.8617475798       42.8627324624      -37.3484162738  TIP3      16010           0.0000000000
     97861     16410  TIP3      H1             47.6731537576       43.4032999786      -37.3112382051  TIP3      16010           0.0000000000
     97862     16410  TIP3      H2             46.6133696858       42.7280802284      -36.4213142164  TIP3      16010           0.0000000000
     97863     16411  TIP3      OH2            47.4083889821       43.8619251311      -28.1702964376  TIP3      16011           0.0000000000
     97864     16411  TIP3      H1             47.5120634034       44.4394527017      -27.3923979169  TIP3      16011           0.0000000000
     97865     16411  TIP3      H2             48.0710278957       43.1712639813      -28.0551454241  TIP3      16011           0.0000000000
     97866     16412  TIP3      OH2            47.7400049461       39.9222023849      -36.4262839528  TIP3      16012           0.0000000000
     97867     16412  TIP3      H1             47.4046486767       40.5716116592      -35.7833672320  TIP3      16012           0.0000000000
     97868     16412  TIP3      H2             48.4150928762       40.4674690972      -36.9002653007  TIP3      16012           0.0000000000
     97869     16413  TIP3      OH2            44.6637324234       54.3307644736      -39.3557187659  TIP3      16013           0.0000000000
     97870     16413  TIP3      H1             44.8367671759       55.1504222143      -39.8279964008  TIP3      16013           0.0000000000
     97871     16413  TIP3      H2             44.4649127558       54.6270472813      -38.4400656531  TIP3      16013           0.0000000000
     97872     16414  TIP3      OH2            43.3938662342       40.9999862219      -39.7324834605  TIP3      16014           0.0000000000
     97873     16414  TIP3      H1             43.3251305206       41.9129785449      -39.3747207694  TIP3      16014           0.0000000000
     97874     16414  TIP3      H2             44.3029851448       40.7656779376      -39.4727686007  TIP3      16014           0.0000000000
     97875     16415  TIP3      OH2            53.6189699086       41.7528178091      -27.2910690511  TIP3      16015           0.0000000000
     97876     16415  TIP3      H1             52.6780059848       42.0355078612      -27.4292449504  TIP3      16015           0.0000000000
     97877     16415  TIP3      H2             53.9280835007       41.7474939481      -28.2184456692  TIP3      16015           0.0000000000
     97878     16416  TIP3      OH2            52.1993518745       45.5331507206      -33.2663878636  TIP3      16016           0.0000000000
     97879     16416  TIP3      H1             51.3855875305       45.0930903004      -33.5598603596  TIP3      16016           0.0000000000
     97880     16416  TIP3      H2             52.6643290076       44.8323673128      -32.7470585236  TIP3      16016           0.0000000000
     97881     16417  TIP3      OH2            41.6397655847       51.4476050568      -40.6765650503  TIP3      16017           0.0000000000
     97882     16417  TIP3      H1             42.2555777495       52.1316272022      -40.3877715537  TIP3      16017           0.0000000000
     97883     16417  TIP3      H2             42.1404423367       51.0026388503      -41.3866503965  TIP3      16017           0.0000000000
     97884     16418  TIP3      OH2            39.9966644854       44.1147909691      -41.5240975389  TIP3      16018           0.0000000000
     97885     16418  TIP3      H1             39.9505174827       45.0743898021      -41.3767259659  TIP3      16018           0.0000000000
     97886     16418  TIP3      H2             39.1097409275       43.8939825035      -41.8372360475  TIP3      16018           0.0000000000
     97887     16419  TIP3      OH2            53.2878484291       54.7801749062      -31.5754335985  TIP3      16019           0.0000000000
     97888     16419  TIP3      H1             53.1290747977       55.4320631527      -32.2974330410  TIP3      16019           0.0000000000
     97889     16419  TIP3      H2             54.2588614804       54.8426097654      -31.5158720551  TIP3      16019           0.0000000000
     97890     16420  TIP3      OH2            40.7872162892       38.9065404107      -32.8477673169  TIP3      16020           0.0000000000
     97891     16420  TIP3      H1             40.5610606274       38.9413575711      -33.8034631247  TIP3      16020           0.0000000000
     97892     16420  TIP3      H2             40.3450362086       38.0796465790      -32.5702355323  TIP3      16020           0.0000000000
     97893     16421  TIP3      OH2            39.7242488894       52.8266439697      -36.6962977054  TIP3      16021           0.0000000000
     97894     16421  TIP3      H1             38.8791276063       53.3110966824      -36.6974834175  TIP3      16021           0.0000000000
     97895     16421  TIP3      H2             40.2411852913       53.3280471825      -37.3399375171  TIP3      16021           0.0000000000
     97896     16422  TIP3      OH2            38.9844305570       55.4567071682      -25.3916253506  TIP3      16022           0.0000000000
     97897     16422  TIP3      H1             39.5533107277       55.2405498962      -24.6339484410  TIP3      16022           0.0000000000
     97898     16422  TIP3      H2             38.5285314002       54.6216381913      -25.5729694736  TIP3      16022           0.0000000000
     97899     16423  TIP3      OH2            43.6090977967       54.3783255858      -23.7598868568  TIP3      16023           0.0000000000
     97900     16423  TIP3      H1             44.3644135904       53.8932554584      -23.4475558794  TIP3      16023           0.0000000000
     97901     16423  TIP3      H2             43.5619998043       54.1270210952      -24.7075900426  TIP3      16023           0.0000000000
     97902     16424  TIP3      OH2            48.0229997571       54.0240820437      -41.8964753930  TIP3      16024           0.0000000000
     97903     16424  TIP3      H1             47.2298664164       53.4330694573      -41.9664142565  TIP3      16024           0.0000000000
     97904     16424  TIP3      H2             48.4934420472       53.4612026146      -42.5205126744  TIP3      16024           0.0000000000
     97905     16425  TIP3      OH2            50.1469468816       52.7792210384      -25.0220075626  TIP3      16025           0.0000000000
     97906     16425  TIP3      H1             49.8319709194       51.8836107440      -24.7926701881  TIP3      16025           0.0000000000
     97907     16425  TIP3      H2             50.9231254065       52.8842855627      -24.4467751439  TIP3      16025           0.0000000000
     97908     16426  TIP3      OH2            52.2927168167       53.7027603115      -42.1566556988  TIP3      16026           0.0000000000
     97909     16426  TIP3      H1             52.5761402564       52.8801369891      -41.7105629979  TIP3      16026           0.0000000000
     97910     16426  TIP3      H2             53.0575577989       53.8963948052      -42.7196810319  TIP3      16026           0.0000000000
     97911     16427  TIP3      OH2            38.9180393221       49.2695664369      -24.4430247480  TIP3      16027           0.0000000000
     97912     16427  TIP3      H1             38.9594345216       48.3424906123      -24.6244506901  TIP3      16027           0.0000000000
     97913     16427  TIP3      H2             38.1058153747       49.5611400427      -24.9081725090  TIP3      16027           0.0000000000
     97914     16428  TIP3      OH2            43.2764122962       49.6491979784      -42.2610605650  TIP3      16028           0.0000000000
     97915     16428  TIP3      H1             43.3276059429       48.8159979019      -41.7777986178  TIP3      16028           0.0000000000
     97916     16428  TIP3      H2             43.8866237151       49.4564202904      -42.9989822673  TIP3      16028           0.0000000000
     97917     16429  TIP3      OH2            45.5725028949       49.2312182513      -24.9950241687  TIP3      16029           0.0000000000
     97918     16429  TIP3      H1             45.2406662897       49.5233359848      -25.8626988687  TIP3      16029           0.0000000000
     97919     16429  TIP3      H2             45.6934207649       48.2676116348      -25.0976756629  TIP3      16029           0.0000000000
     97920     16430  TIP3      OH2            51.2755897590       49.1086800141      -27.6154168309  TIP3      16030           0.0000000000
     97921     16430  TIP3      H1             52.0468685578       49.7122266291      -27.7114106876  TIP3      16030           0.0000000000
     97922     16430  TIP3      H2             50.5494893338       49.7465563787      -27.5613602219  TIP3      16030           0.0000000000
     97923     16431  TIP3      OH2            39.6547696066       46.2549054589      -24.9198049678  TIP3      16031           0.0000000000
     97924     16431  TIP3      H1             40.2087049813       45.4728570757      -25.0530183395  TIP3      16031           0.0000000000
     97925     16431  TIP3      H2             39.4975755369       46.4001014987      -23.9828203247  TIP3      16031           0.0000000000
     97926     16432  TIP3      OH2            44.4037335699       47.6131902590      -39.9801043020  TIP3      16032           0.0000000000
     97927     16432  TIP3      H1             43.9297668065       47.0898871049      -39.3132026355  TIP3      16032           0.0000000000
     97928     16432  TIP3      H2             44.6812912859       46.9113108007      -40.6166207123  TIP3      16032           0.0000000000
     97929     16433  TIP3      OH2            43.6761137989       45.4452570546      -27.6390180036  TIP3      16033           0.0000000000
     97930     16433  TIP3      H1             43.0761236166       46.1504269679      -27.3744121680  TIP3      16033           0.0000000000
     97931     16433  TIP3      H2             44.0520065174       45.7883022800      -28.4708598215  TIP3      16033           0.0000000000
     97932     16434  TIP3      OH2            45.4691219732       45.8289210935      -41.7348417978  TIP3      16034           0.0000000000
     97933     16434  TIP3      H1             45.3190982610       45.6555589667      -42.6727211760  TIP3      16034           0.0000000000
     97934     16434  TIP3      H2             46.4474158089       45.9240431918      -41.6687886539  TIP3      16034           0.0000000000
     97935     16435  TIP3      OH2            48.7317010641       47.9678862071      -24.3175596929  TIP3      16035           0.0000000000
     97936     16435  TIP3      H1             49.6876698983       48.0089341007      -24.4219212377  TIP3      16035           0.0000000000
     97937     16435  TIP3      H2             48.5544550711       47.2098348615      -23.7706074271  TIP3      16035           0.0000000000
     97938     16436  TIP3      OH2            54.7395319946       48.2406778611       42.7887592169  TIP3      16036           0.0000000000
     97939     16436  TIP3      H1             54.5857652886       47.7666988133       41.9382702924  TIP3      16036           0.0000000000
     97940     16436  TIP3      H2             54.8901338105       49.1481023420       42.5030850902  TIP3      16036           0.0000000000
     97941     16437  TIP3      OH2            44.0613008285       42.8087670316      -26.5529437948  TIP3      16037           0.0000000000
     97942     16437  TIP3      H1             44.1808364443       42.0886037081      -27.1967452833  TIP3      16037           0.0000000000
     97943     16437  TIP3      H2             44.0287040466       43.6069208985      -27.1218699958  TIP3      16037           0.0000000000
     97944     16438  TIP3      OH2            44.4612517398       41.1861090787      -29.0451410456  TIP3      16038           0.0000000000
     97945     16438  TIP3      H1             44.9876008663       41.6465894331      -29.7380259633  TIP3      16038           0.0000000000
     97946     16438  TIP3      H2             43.5805798619       41.0915139626      -29.4766519743  TIP3      16038           0.0000000000
     97947     16439  TIP3      OH2            46.0215243078       46.6392731093      -28.8071543989  TIP3      16039           0.0000000000
     97948     16439  TIP3      H1             46.7752134210       46.4851032221      -29.3894728335  TIP3      16039           0.0000000000
     97949     16439  TIP3      H2             45.6748954215       47.4933703810      -29.1125577699  TIP3      16039           0.0000000000
     97950     16440  TIP3      OH2            50.4272211413       44.4549287679      -23.7851043146  TIP3      16040           0.0000000000
     97951     16440  TIP3      H1             50.6274959339       43.5132681256      -23.9105969314  TIP3      16040           0.0000000000
     97952     16440  TIP3      H2             51.3022509793       44.8639381927      -23.8191067641  TIP3      16040           0.0000000000
     97953     16441  TIP3      OH2            51.7438591533       47.2213719419      -25.6831074328  TIP3      16041           0.0000000000
     97954     16441  TIP3      H1             51.4920119369       47.9440973160      -26.3039176233  TIP3      16041           0.0000000000
     97955     16441  TIP3      H2             52.7096689246       47.1763681289      -25.8740262551  TIP3      16041           0.0000000000
     97956     16442  TIP3      OH2            42.5166656236       44.0368285945      -24.6454457787  TIP3      16042           0.0000000000
     97957     16442  TIP3      H1             41.7464762727       43.4654918760      -24.8564130069  TIP3      16042           0.0000000000
     97958     16442  TIP3      H2             43.1879945649       43.6904881608      -25.2693882437  TIP3      16042           0.0000000000
     97959     16443  TIP3      OH2            45.2634154826       38.6291434184      -28.6319436762  TIP3      16043           0.0000000000
     97960     16443  TIP3      H1             45.1231964613       39.5974910223      -28.7419291347  TIP3      16043           0.0000000000
     97961     16443  TIP3      H2             44.5038862730       38.2717335216      -29.1273569666  TIP3      16043           0.0000000000
     97962     16444  TIP3      OH2            46.5383085361       42.9526877896      -25.0528471761  TIP3      16044           0.0000000000
     97963     16444  TIP3      H1             46.2438316946       42.7412846691      -24.1565674506  TIP3      16044           0.0000000000
     97964     16444  TIP3      H2             45.7348929749       42.7607710640      -25.5816746968  TIP3      16044           0.0000000000
     97965     16445  TIP3      OH2            49.2481829830       42.0985294022      -25.9718431541  TIP3      16045           0.0000000000
     97966     16445  TIP3      H1             48.2805260938       42.1314525727      -25.8497590233  TIP3      16045           0.0000000000
     97967     16445  TIP3      H2             49.5367056998       41.4560011507      -25.3056189982  TIP3      16045           0.0000000000
     97968     16446  TIP3      OH2            50.8056076399       40.7428444611      -24.0823837449  TIP3      16046           0.0000000000
     97969     16446  TIP3      H1             50.7744527543       39.7649220291      -24.0164741039  TIP3      16046           0.0000000000
     97970     16446  TIP3      H2             50.5610694895       40.9922573954      -23.1730512453  TIP3      16046           0.0000000000
     97971     16447  TIP3      OH2            40.6622329023       41.9685181567      -24.9314608742  TIP3      16047           0.0000000000
     97972     16447  TIP3      H1             40.8875544895       41.2385887413      -25.5408377386  TIP3      16047           0.0000000000
     97973     16447  TIP3      H2             40.5548233211       41.5060230747      -24.0762024633  TIP3      16047           0.0000000000
     97974     16448  TIP3      OH2            45.4672073243       37.9728692062      -25.9399006867  TIP3      16048           0.0000000000
     97975     16448  TIP3      H1             46.1777900349       37.2952439694      -25.9801389614  TIP3      16048           0.0000000000
     97976     16448  TIP3      H2             45.3715906239       38.1862703439      -26.8893811137  TIP3      16048           0.0000000000
     97977     16449  TIP3      OH2            45.8284718741       39.6433801092      -23.9064139185  TIP3      16049           0.0000000000
     97978     16449  TIP3      H1             45.6882367734       39.1252936154      -24.7292018950  TIP3      16049           0.0000000000
     97979     16449  TIP3      H2             45.2247823421       40.3892974153      -23.9801388133  TIP3      16049           0.0000000000
     97980     16450  TIP3      OH2            38.9064438922       51.1394952639      -41.2234514040  TIP3      16050           0.0000000000
     97981     16450  TIP3      H1             39.8592666370       51.2239781272      -40.9825211344  TIP3      16050           0.0000000000
     97982     16450  TIP3      H2             38.9405928714       50.4832798128      -41.9266400967  TIP3      16050           0.0000000000
     97983     16451  TIP3      OH2            38.4745245696       54.6167134590      -34.3779262495  TIP3      16051           0.0000000000
     97984     16451  TIP3      H1             38.1163344327       53.7396257787      -34.1845519430  TIP3      16051           0.0000000000
     97985     16451  TIP3      H2             38.6727283432       54.9626487343      -33.4907785364  TIP3      16051           0.0000000000
     97986     16452  TIP3      OH2            55.9162488463       55.4890915540      -31.3592357316  TIP3      16052           0.0000000000
     97987     16452  TIP3      H1             56.0823207999       55.6199889228      -30.4217125559  TIP3      16052           0.0000000000
     97988     16452  TIP3      H2             56.7202168420       55.9423984008      -31.7273952213  TIP3      16052           0.0000000000
     97989     16453  TIP3      OH2            55.7464055280       55.0163084807      -28.4063101377  TIP3      16053           0.0000000000
     97990     16453  TIP3      H1             55.2779975715       54.2394826135      -28.7073685160  TIP3      16053           0.0000000000
     97991     16453  TIP3      H2             56.2077600678       54.5791366172      -27.6812910822  TIP3      16053           0.0000000000
     97992     16454  TIP3      OH2            54.0338227484       50.7670373304      -23.8091775962  TIP3      16054           0.0000000000
     97993     16454  TIP3      H1             53.1459413954       50.6836320341      -23.4277604102  TIP3      16054           0.0000000000
     97994     16454  TIP3      H2             54.4091773939       51.5430656936      -23.3723407767  TIP3      16054           0.0000000000
     97995     16455  TIP3      OH2            55.2985325837       49.0280751550      -38.3491175980  TIP3      16055           0.0000000000
     97996     16455  TIP3      H1             56.1579134800       49.4726697390      -38.1720144940  TIP3      16055           0.0000000000
     97997     16455  TIP3      H2             55.3254021668       48.3241334888      -37.6792711250  TIP3      16055           0.0000000000
     97998     16456  TIP3      OH2            55.7022739370       47.0987963083      -36.5146385545  TIP3      16056           0.0000000000
     97999     16456  TIP3      H1             54.9568575455       46.6539232311      -36.0650608057  TIP3      16056           0.0000000000
     98000     16456  TIP3      H2             56.3008661789       47.3136503952      -35.7423530063  TIP3      16056           0.0000000000
     98001     16457  TIP3      OH2            55.4716017185       49.8654435715      -31.4911957326  TIP3      16057           0.0000000000
     98002     16457  TIP3      H1             56.3079116586       49.4831163297      -31.8341192863  TIP3      16057           0.0000000000
     98003     16457  TIP3      H2             55.5965355541       50.8179047905      -31.6817009684  TIP3      16057           0.0000000000
     98004     16458  TIP3      OH2            53.9598582541       52.6351801688      -29.1873693681  TIP3      16058           0.0000000000
     98005     16458  TIP3      H1             53.2880812088       53.0192624502      -28.5950253985  TIP3      16058           0.0000000000
     98006     16458  TIP3      H2             53.4158189938       52.2622660936      -29.9282122270  TIP3      16058           0.0000000000
     98007     16459  TIP3      OH2            55.9081380920       46.9458480660      -40.0552731626  TIP3      16059           0.0000000000
     98008     16459  TIP3      H1             55.4399721907       47.3563363921      -40.8202734245  TIP3      16059           0.0000000000
     98009     16459  TIP3      H2             55.9443455134       47.7037943072      -39.4335912918  TIP3      16059           0.0000000000
     98010     16460  TIP3      OH2            54.0790639417       44.2467946586      -41.4482655151  TIP3      16060           0.0000000000
     98011     16460  TIP3      H1             54.4245842483       44.8478487150      -42.1591102230  TIP3      16060           0.0000000000
     98012     16460  TIP3      H2             54.1891343329       43.4285145316      -41.9944963495  TIP3      16060           0.0000000000
     98013     16461  TIP3      OH2            53.5470394805       45.5987081004      -35.9453418812  TIP3      16061           0.0000000000
     98014     16461  TIP3      H1             53.3229620749       44.6594195686      -35.9221370213  TIP3      16061           0.0000000000
     98015     16461  TIP3      H2             53.1574215870       45.8842577147      -35.0775958698  TIP3      16061           0.0000000000
     98016     16462  TIP3      OH2            38.5260955805       47.6865843438      -31.8931143855  TIP3      16062           0.0000000000
     98017     16462  TIP3      H1             38.7210312669       47.6352377745      -32.8435444058  TIP3      16062           0.0000000000
     98018     16462  TIP3      H2             39.4085915654       47.5615436539      -31.4974878794  TIP3      16062           0.0000000000
     98019     16463  TIP3      OH2            54.3551491513       47.5874035817      -26.2604984175  TIP3      16063           0.0000000000
     98020     16463  TIP3      H1             54.9670538244       46.8477151736      -26.0933171132  TIP3      16063           0.0000000000
     98021     16463  TIP3      H2             54.9427848551       48.3671726497      -26.2441059359  TIP3      16063           0.0000000000
     98022     16464  TIP3      OH2            55.8564674916       45.4886578579      -25.5803075986  TIP3      16064           0.0000000000
     98023     16464  TIP3      H1             54.9774066644       45.1057497544      -25.7755003991  TIP3      16064           0.0000000000
     98024     16464  TIP3      H2             56.4481735137       44.7238192287      -25.6852784088  TIP3      16064           0.0000000000
     98025     16465  TIP3      OH2            53.5914609349       41.6468169695      -42.4460510500  TIP3      16065           0.0000000000
     98026     16465  TIP3      H1             54.1960041190       41.2384935393      -41.8001765635  TIP3      16065           0.0000000000
     98027     16465  TIP3      H2             52.7381554434       41.2335531704      -42.2420425515  TIP3      16065           0.0000000000
     98028     16466  TIP3      OH2            53.2128915536       43.2160691753      -37.4334348353  TIP3      16066           0.0000000000
     98029     16466  TIP3      H1             53.4758221167       42.2624603490      -37.3339924776  TIP3      16066           0.0000000000
     98030     16466  TIP3      H2             53.9336387957       43.5687368126      -37.8938851831  TIP3      16066           0.0000000000
     98031     16467  TIP3      OH2            53.7754088187       43.7584438861      -32.0431158291  TIP3      16067           0.0000000000
     98032     16467  TIP3      H1             54.7493993017       43.9796625833      -32.0410131655  TIP3      16067           0.0000000000
     98033     16467  TIP3      H2             53.5988929192       43.8874491559      -31.0959205301  TIP3      16067           0.0000000000
     98034     16468  TIP3      OH2            53.8697062513       44.4866444280      -29.2490155389  TIP3      16068           0.0000000000
     98035     16468  TIP3      H1             53.0044744554       44.7903178508      -28.9017415574  TIP3      16068           0.0000000000
     98036     16468  TIP3      H2             54.3123079141       45.3425071584      -29.4607056223  TIP3      16068           0.0000000000
     98037     16469  TIP3      OH2            38.1344534974       43.0030628566      -25.7518331791  TIP3      16069           0.0000000000
     98038     16469  TIP3      H1             39.0681088112       42.8133995063      -25.5294095059  TIP3      16069           0.0000000000
     98039     16469  TIP3      H2             37.6890250297       42.2018459135      -25.3900274760  TIP3      16069           0.0000000000
     98040     16470  TIP3      OH2            53.8247790699       40.5058228397      -37.4161556900  TIP3      16070           0.0000000000
     98041     16470  TIP3      H1             54.0191232573       40.0223223451      -36.5811280869  TIP3      16070           0.0000000000
     98042     16470  TIP3      H2             53.2286720264       39.8641760837      -37.8751108029  TIP3      16070           0.0000000000
     98043     16471  TIP3      OH2            39.3509742220       41.2975311542      -32.8926619145  TIP3      16071           0.0000000000
     98044     16471  TIP3      H1             39.7996945288       40.4766899625      -32.5842810653  TIP3      16071           0.0000000000
     98045     16471  TIP3      H2             39.8480982349       41.9889547245      -32.4410969851  TIP3      16071           0.0000000000
     98046     16472  TIP3      OH2            37.5980178142       44.2860777928      -31.8099637011  TIP3      16072           0.0000000000
     98047     16472  TIP3      H1             38.1674236206       44.0445415830      -32.5681164870  TIP3      16072           0.0000000000
     98048     16472  TIP3      H2             38.0427027237       45.1033103530      -31.5273194281  TIP3      16072           0.0000000000
     98049     16473  TIP3      OH2            55.6769408183       40.6019755139      -25.4924851066  TIP3      16073           0.0000000000
     98050     16473  TIP3      H1             54.7400358704       40.8707226981      -25.6205549321  TIP3      16073           0.0000000000
     98051     16473  TIP3      H2             55.7610698704       40.0681995616      -26.3210639235  TIP3      16073           0.0000000000
     98052     16474  TIP3      OH2            55.6669714597       40.5383707160      -40.8679004937  TIP3      16074           0.0000000000
     98053     16474  TIP3      H1             56.1081755297       39.8200849976      -41.3512386760  TIP3      16074           0.0000000000
     98054     16474  TIP3      H2             56.3908260465       41.1927237414      -40.8399030553  TIP3      16074           0.0000000000
     98055     16475  TIP3      OH2            37.9875219596       40.5559618203      -37.7450484390  TIP3      16075           0.0000000000
     98056     16475  TIP3      H1             37.0453575109       40.7396736530      -37.8932834253  TIP3      16075           0.0000000000
     98057     16475  TIP3      H2             38.4192808117       41.0287939507      -38.4729981499  TIP3      16075           0.0000000000
     98058     16476  TIP3      OH2            52.7832535217       55.4580081936      -35.6359761495  TIP3      16076           0.0000000000
     98059     16476  TIP3      H1             53.4562851979       55.1464473208      -36.2892958719  TIP3      16076           0.0000000000
     98060     16476  TIP3      H2             53.3260017856       56.0261819378      -35.0782244651  TIP3      16076           0.0000000000
     98061     16477  TIP3      OH2            37.9484002787       39.2484656932      -29.4299081175  TIP3      16077           0.0000000000
     98062     16477  TIP3      H1             37.2671109080       39.0269920865      -28.7702745031  TIP3      16077           0.0000000000
     98063     16477  TIP3      H2             37.4873310259       39.9047707215      -29.9976672554  TIP3      16077           0.0000000000
     98064     16478  TIP3      OH2            40.1445983224       52.4067957332      -25.2732591744  TIP3      16078           0.0000000000
     98065     16478  TIP3      H1             39.3099636952       52.6197687323      -25.7259393962  TIP3      16078           0.0000000000
     98066     16478  TIP3      H2             39.8806520181       52.3894058515      -24.3446150209  TIP3      16078           0.0000000000
     98067     16479  TIP3      OH2            43.0656882512       53.4076197881      -29.0123576147  TIP3      16079           0.0000000000
     98068     16479  TIP3      H1             42.6944962679       54.2544409429      -29.2909520275  TIP3      16079           0.0000000000
     98069     16479  TIP3      H2             43.9954509013       53.5075338344      -29.3155390442  TIP3      16079           0.0000000000
     98070     16480  TIP3      OH2            47.4052392971       54.8095118403      -26.0665483755  TIP3      16080           0.0000000000
     98071     16480  TIP3      H1             47.5989795728       54.4926876009      -25.1839340086  TIP3      16080           0.0000000000
     98072     16480  TIP3      H2             48.2732830747       55.1400363685      -26.3760159104  TIP3      16080           0.0000000000
     98073     16481  TIP3      OH2            49.7113788277       56.1023220059      -26.8078121971  TIP3      16081           0.0000000000
     98074     16481  TIP3      H1             50.4268446305       55.4946691475      -27.0352771805  TIP3      16081           0.0000000000
     98075     16481  TIP3      H2             50.0600009544       56.5102957086      -25.9821428154  TIP3      16081           0.0000000000
     98076     16482  TIP3      OH2            54.6603660019       38.7197071692      -27.6759369055  TIP3      16082           0.0000000000
     98077     16482  TIP3      H1             53.8440736825       39.0182895824      -28.1158762703  TIP3      16082           0.0000000000
     98078     16482  TIP3      H2             54.8740510620       37.9283672823      -28.2311303712  TIP3      16082           0.0000000000
     98079     16483  TIP3      OH2            42.9446531725      -56.6003140230      -29.8969781169  TIP3      16083           0.0000000000
     98080     16483  TIP3      H1             42.0704756571      -56.4586881692      -29.5334730266  TIP3      16083           0.0000000000
     98081     16483  TIP3      H2             42.9091863511      -56.0275696239      -30.7052227232  TIP3      16083           0.0000000000
     98082     16484  TIP3      OH2            47.6698099578      -56.7025059133      -30.7703998393  TIP3      16084           0.0000000000
     98083     16484  TIP3      H1             47.2048159018      -56.1499600653      -31.4219383174  TIP3      16084           0.0000000000
     98084     16484  TIP3      H2             47.8204769527      -56.0621364605      -30.0337887785  TIP3      16084           0.0000000000
     98085     16485  TIP3      OH2            50.0066547122       55.0093476065      -29.7937452030  TIP3      16085           0.0000000000
     98086     16485  TIP3      H1             49.0974100070       55.2181430427      -30.0921478716  TIP3      16085           0.0000000000
     98087     16485  TIP3      H2             50.3900162247       55.8838685040      -29.8799884338  TIP3      16085           0.0000000000
     98088     16486  TIP3      OH2            39.9061752649       55.2676584445      -32.0561586034  TIP3      16086           0.0000000000
     98089     16486  TIP3      H1             39.8743798069       54.8511409022      -31.1737822953  TIP3      16086           0.0000000000
     98090     16486  TIP3      H2             40.7374643458       54.9457317391      -32.4607081802  TIP3      16086           0.0000000000
     98091     16487  TIP3      OH2            42.0221333624       54.0290692346      -33.4088655724  TIP3      16087           0.0000000000
     98092     16487  TIP3      H1             41.8413678475       53.0895222922      -33.2218803880  TIP3      16087           0.0000000000
     98093     16487  TIP3      H2             42.8802588868       54.1482039692      -32.9458010118  TIP3      16087           0.0000000000
     98094     16488  TIP3      OH2            44.6039465089       54.4914979901      -32.5418782076  TIP3      16088           0.0000000000
     98095     16488  TIP3      H1             44.7995685839       53.5787286795      -32.8194780384  TIP3      16088           0.0000000000
     98096     16488  TIP3      H2             44.6574498748       54.4400365252      -31.5824315033  TIP3      16088           0.0000000000
     98097     16489  TIP3      OH2            48.0978036853       40.1484118211      -33.3966262117  TIP3      16089           0.0000000000
     98098     16489  TIP3      H1             47.4084668759       39.5121227682      -33.1449952526  TIP3      16089           0.0000000000
     98099     16489  TIP3      H2             48.6450576593       39.6456165234      -34.0077588996  TIP3      16089           0.0000000000
     98100     16490  TIP3      OH2            53.2266480757       38.2108239264      -33.3016782431  TIP3      16090           0.0000000000
     98101     16490  TIP3      H1             53.8422389386       38.8046051483      -33.8155897943  TIP3      16090           0.0000000000
     98102     16490  TIP3      H2             52.3574784348       38.5800868100      -33.5487808223  TIP3      16090           0.0000000000
     98103     16491  TIP3      OH2            54.9005904173       39.4326666971      -34.9925565166  TIP3      16091           0.0000000000
     98104     16491  TIP3      H1             55.5686732385       38.8881446683      -35.4807821846  TIP3      16091           0.0000000000
     98105     16491  TIP3      H2             55.3594402245       40.2900247387      -34.9340690092  TIP3      16091           0.0000000000
     98106     16492  TIP3      OH2            40.4399560935       38.7882725522      -35.5686708619  TIP3      16092           0.0000000000
     98107     16492  TIP3      H1             39.6476196273       38.5534753621      -36.0890930828  TIP3      16092           0.0000000000
     98108     16492  TIP3      H2             40.9384749945       37.9505304380      -35.5943346445  TIP3      16092           0.0000000000
     98109     16493  TIP3      OH2            39.2355354809       38.5535983669      -39.7990513995  TIP3      16093           0.0000000000
     98110     16493  TIP3      H1             39.7024109925       39.1873294277      -40.3774343215  TIP3      16093           0.0000000000
     98111     16493  TIP3      H2             38.6340656611       39.1195985691      -39.2934669357  TIP3      16093           0.0000000000
     98112     16494  TIP3      OH2            44.9670969877       38.7025214306      -35.7740128774  TIP3      16094           0.0000000000
     98113     16494  TIP3      H1             45.8629681896       39.0825878220      -35.8113127526  TIP3      16094           0.0000000000
     98114     16494  TIP3      H2             44.8781356576       38.4909322472      -34.8448047818  TIP3      16094           0.0000000000
     98115     16495  TIP3      OH2            50.6067846786       38.7225482928      -34.1231482743  TIP3      16095           0.0000000000
     98116     16495  TIP3      H1             50.6290264040       38.8329927618      -35.0825625613  TIP3      16095           0.0000000000
     98117     16495  TIP3      H2             50.2541649789       37.8185767441      -34.0104547515  TIP3      16095           0.0000000000
     98118     16496  TIP3      OH2            51.9244974944       38.7635084977      -38.4472895998  TIP3      16096           0.0000000000
     98119     16496  TIP3      H1             51.1949976662       39.3681211437      -38.6377206993  TIP3      16096           0.0000000000
     98120     16496  TIP3      H2             51.4624918153       37.9089447287      -38.2853421516  TIP3      16096           0.0000000000
     98121     16497  TIP3      OH2            39.1664536636       54.4958625335      -38.8444487082  TIP3      16097           0.0000000000
     98122     16497  TIP3      H1             38.4740907374       54.4861673526      -39.5390091914  TIP3      16097           0.0000000000
     98123     16497  TIP3      H2             39.1561036791       55.4391815441      -38.6296891818  TIP3      16097           0.0000000000
     98124     16498  TIP3      OH2            41.0841298579       40.4575362491      -41.3230098120  TIP3      16098           0.0000000000
     98125     16498  TIP3      H1             41.6048626207       39.8589631913      -41.8600276167  TIP3      16098           0.0000000000
     98126     16498  TIP3      H2             41.7352504283       40.8009400629      -40.6863763624  TIP3      16098           0.0000000000
     98127     16499  TIP3      OH2            46.1140952302       40.7530474953      -38.9100084841  TIP3      16099           0.0000000000
     98128     16499  TIP3      H1             46.3331940811       40.1450667788      -38.1839903359  TIP3      16099           0.0000000000
     98129     16499  TIP3      H2             46.1145107186       41.6080056364      -38.4178267218  TIP3      16099           0.0000000000
     98130     16500  TIP3      OH2            48.0085242002       55.9035269243      -40.3878873483  TIP3      16100           0.0000000000
     98131     16500  TIP3      H1             48.9090698689       56.0851451399      -40.6858723368  TIP3      16100           0.0000000000
     98132     16500  TIP3      H2             47.7919101914       55.3548437120      -41.2040452614  TIP3      16100           0.0000000000
     98133     16501  TIP3      OH2            54.6566766603       55.3046528197      -37.7506136601  TIP3      16101           0.0000000000
     98134     16501  TIP3      H1             54.5778970420       54.5199873573      -38.3614547208  TIP3      16101           0.0000000000
     98135     16501  TIP3      H2             54.7402361336       56.0390011145      -38.4038550961  TIP3      16101           0.0000000000
     98136     16502  TIP3      OH2            40.3497483283       39.3108185740      -26.0902704614  TIP3      16102           0.0000000000
     98137     16502  TIP3      H1             39.9948540781       38.5215954766      -25.6449350419  TIP3      16102           0.0000000000
     98138     16502  TIP3      H2             41.2769923380       39.2991652891      -25.7624699322  TIP3      16102           0.0000000000
     98139     16503  TIP3      OH2            42.3663126604       38.6842277700      -24.4814557713  TIP3      16103           0.0000000000
     98140     16503  TIP3      H1             43.2490769142       38.3456608173      -24.7313616250  TIP3      16103           0.0000000000
     98141     16503  TIP3      H2             41.9648868642       37.8908258885      -24.0689204135  TIP3      16103           0.0000000000
     98142     16504  TIP3      OH2            40.9865404867       55.4526113308      -41.8559405637  TIP3      16104           0.0000000000
     98143     16504  TIP3      H1             40.6866261869       55.7298798777      -40.9781945686  TIP3      16104           0.0000000000
     98144     16504  TIP3      H2             41.7374477049       54.8917069481      -41.6972251179  TIP3      16104           0.0000000000
     98145     16505  TIP3      OH2            50.7575849562       37.9893524181      -24.3474892600  TIP3      16105           0.0000000000
     98146     16505  TIP3      H1             50.8549597544       37.5427154183      -23.4823142309  TIP3      16105           0.0000000000
     98147     16505  TIP3      H2             51.6700153448       37.9729426654      -24.6927309358  TIP3      16105           0.0000000000
     98148     16506  TIP3      OH2            53.9644633278       54.0503802437      -25.6582406400  TIP3      16106           0.0000000000
     98149     16506  TIP3      H1             53.1515984956       53.8683460801      -26.1704796545  TIP3      16106           0.0000000000
     98150     16506  TIP3      H2             53.8756878402       54.9861369688      -25.4412064961  TIP3      16106           0.0000000000
     98151     16507  TIP3      OH2           -45.9956252419      -48.5942756186      -22.3445560331  TIP3      16107           0.0000000000
     98152     16507  TIP3      H1            -45.3081832563      -48.6322754952      -21.6466433737  TIP3      16107           0.0000000000
     98153     16507  TIP3      H2            -45.6755024869      -49.2840207214      -22.9332849204  TIP3      16107           0.0000000000
     98154     16508  TIP3      OH2           -38.9185598198      -41.5985885989      -22.5674831149  TIP3      16108           0.0000000000
     98155     16508  TIP3      H1            -38.7957010803      -40.6744325073      -22.2855219865  TIP3      16108           0.0000000000
     98156     16508  TIP3      H2            -38.0004117173      -41.9168190477      -22.5073980151  TIP3      16108           0.0000000000
     98157     16509  TIP3      OH2           -42.3218818292      -46.6765139546      -23.0412436647  TIP3      16109           0.0000000000
     98158     16509  TIP3      H1            -42.2695301840      -46.9306132356      -23.9813802628  TIP3      16109           0.0000000000
     98159     16509  TIP3      H2            -41.4495110760      -46.2947380666      -22.8651159821  TIP3      16109           0.0000000000
     98160     16510  TIP3      OH2           -49.8638795124      -52.3728132945      -23.2703894623  TIP3      16110           0.0000000000
     98161     16510  TIP3      H1            -50.2944736923      -52.8232526828      -22.5369539451  TIP3      16110           0.0000000000
     98162     16510  TIP3      H2            -50.5821160366      -51.9851649376      -23.7881728571  TIP3      16110           0.0000000000
     98163     16511  TIP3      OH2           -44.0160047327      -52.2139705718      -21.8292287911  TIP3      16111           0.0000000000
     98164     16511  TIP3      H1            -44.9662431695      -52.0956557046      -21.8683616320  TIP3      16111           0.0000000000
     98165     16511  TIP3      H2            -43.6936127506      -51.3840565895      -21.4196209762  TIP3      16111           0.0000000000
     98166     16512  TIP3      OH2           -54.5710366799      -47.3728403982      -22.2172764332  TIP3      16112           0.0000000000
     98167     16512  TIP3      H1            -54.0232460805      -46.6948771554      -21.8046440949  TIP3      16112           0.0000000000
     98168     16512  TIP3      H2            -55.4832559791      -47.0806981020      -21.9459350334  TIP3      16112           0.0000000000
     98169     16513  TIP3      OH2           -42.6871844951      -43.4017179682      -22.1628951875  TIP3      16113           0.0000000000
     98170     16513  TIP3      H1            -42.3408488192      -43.7294713464      -21.3187459636  TIP3      16113           0.0000000000
     98171     16513  TIP3      H2            -43.6396228826      -43.4771679932      -22.0357397885  TIP3      16113           0.0000000000
     98172     16514  TIP3      OH2           -38.2308442857      -38.9249207041      -21.9395386932  TIP3      16114           0.0000000000
     98173     16514  TIP3      H1            -37.4783870657      -38.3150051711      -22.0436531593  TIP3      16114           0.0000000000
     98174     16514  TIP3      H2            -38.8925161706      -38.3209260937      -21.5866698136  TIP3      16114           0.0000000000
     98175     16515  TIP3      OH2           -48.5947056526      -42.2509791189      -23.6726716681  TIP3      16115           0.0000000000
     98176     16515  TIP3      H1            -48.4055094265      -43.0207549708      -24.2291293744  TIP3      16115           0.0000000000
     98177     16515  TIP3      H2            -48.9071705074      -42.6667666953      -22.8460012070  TIP3      16115           0.0000000000
     98178     16516  TIP3      OH2           -53.2176718908      -45.4644778080      -20.6843246969  TIP3      16116           0.0000000000
     98179     16516  TIP3      H1            -53.9233861755      -45.0747830822      -20.1420881417  TIP3      16116           0.0000000000
     98180     16516  TIP3      H2            -52.7148220844      -44.6794965404      -20.9676673854  TIP3      16116           0.0000000000
     98181     16517  TIP3      OH2           -54.2813726838      -50.1476904742      -22.7189137151  TIP3      16117           0.0000000000
     98182     16517  TIP3      H1            -54.3519280714      -49.2099776945      -22.5037036861  TIP3      16117           0.0000000000
     98183     16517  TIP3      H2            -55.1843604543      -50.3895971644      -22.9394987212  TIP3      16117           0.0000000000
     98184     16518  TIP3      OH2           -46.5641136074      -40.3904335497      -23.5628970300  TIP3      16118           0.0000000000
     98185     16518  TIP3      H1            -47.2234495603      -41.0290267291      -23.2252655697  TIP3      16118           0.0000000000
     98186     16518  TIP3      H2            -45.8113293579      -40.9507187415      -23.7539903600  TIP3      16118           0.0000000000
     98187     16519  TIP3      OH2           -41.9915082051      -40.6080557025      -23.3302293638  TIP3      16119           0.0000000000
     98188     16519  TIP3      H1            -41.6802859363      -41.3792518533      -22.8346168980  TIP3      16119           0.0000000000
     98189     16519  TIP3      H2            -41.2265665045      -40.3700307011      -23.8706030481  TIP3      16119           0.0000000000
     98190     16520  TIP3      OH2           -51.0630162311      -44.6818517578      -23.4653593018  TIP3      16120           0.0000000000
     98191     16520  TIP3      H1            -50.9429134059      -45.4643593969      -22.9199683551  TIP3      16120           0.0000000000
     98192     16520  TIP3      H2            -50.3479856140      -44.7994359691      -24.1185021261  TIP3      16120           0.0000000000
     98193     16521  TIP3      OH2           -45.6396810744      -43.6103639794      -23.7149792883  TIP3      16121           0.0000000000
     98194     16521  TIP3      H1            -45.9584291049      -43.4582168674      -22.8225241141  TIP3      16121           0.0000000000
     98195     16521  TIP3      H2            -45.8793195795      -44.5554021129      -23.8508611848  TIP3      16121           0.0000000000
     98196     16522  TIP3      OH2           -49.9213551362      -46.7033378955      -21.1559112736  TIP3      16122           0.0000000000
     98197     16522  TIP3      H1            -50.3134697603      -47.1712018109      -20.4538492267  TIP3      16122           0.0000000000
     98198     16522  TIP3      H2            -49.5995580089      -47.3673346594      -21.8109011081  TIP3      16122           0.0000000000
     98199     16523  TIP3      OH2           -48.8128667878      -48.4668634958      -22.8518289946  TIP3      16123           0.0000000000
     98200     16523  TIP3      H1            -48.9805055077      -48.5924047150      -23.8100052207  TIP3      16123           0.0000000000
     98201     16523  TIP3      H2            -47.8403521984      -48.3652847786      -22.8409474032  TIP3      16123           0.0000000000
     98202     16524  TIP3      OH2           -39.3946542268      -46.1135633000      -23.4487105125  TIP3      16124           0.0000000000
     98203     16524  TIP3      H1            -39.6894096046      -46.5199700363      -24.2654599636  TIP3      16124           0.0000000000
     98204     16524  TIP3      H2            -39.3827353403      -45.1581980057      -23.6546281608  TIP3      16124           0.0000000000
     98205     16525  TIP3      OH2           -48.9147623878      -37.7838610405      -21.8830752816  TIP3      16125           0.0000000000
     98206     16525  TIP3      H1            -47.9758274131      -37.6179184227      -21.7161816470  TIP3      16125           0.0000000000
     98207     16525  TIP3      H2            -49.1402475564      -37.1123357618      -22.5205017158  TIP3      16125           0.0000000000
     98208     16526  TIP3      OH2           -55.3355721135      -43.1347703375      -22.3994534025  TIP3      16126           0.0000000000
     98209     16526  TIP3      H1            -54.4222774733      -43.0670197376      -22.1128962245  TIP3      16126           0.0000000000
     98210     16526  TIP3      H2            -55.3224042801      -43.8390968083      -23.0840796406  TIP3      16126           0.0000000000
     98211     16527  TIP3      OH2           -39.8999342581      -50.0401861330      -22.7301601126  TIP3      16127           0.0000000000
     98212     16527  TIP3      H1            -39.8550517407      -49.3754524807      -23.4043997694  TIP3      16127           0.0000000000
     98213     16527  TIP3      H2            -40.1009201252      -50.8813157689      -23.1750734115  TIP3      16127           0.0000000000
     98214     16528  TIP3      OH2           -40.6817343636      -52.6298337866      -23.6048501965  TIP3      16128           0.0000000000
     98215     16528  TIP3      H1            -40.0893546440      -53.0221013317      -22.9324945466  TIP3      16128           0.0000000000
     98216     16528  TIP3      H2            -41.5289730088      -53.0449576417      -23.3718398357  TIP3      16128           0.0000000000
     98217     16529  TIP3      OH2           -38.6048735255      -53.7499839316      -22.0590988086  TIP3      16129           0.0000000000
     98218     16529  TIP3      H1            -38.1745689035      -54.4885281162      -22.5138336415  TIP3      16129           0.0000000000
     98219     16529  TIP3      H2            -37.9055053570      -53.0958358110      -21.9428237369  TIP3      16129           0.0000000000
     98220     16530  TIP3      OH2           -55.0032409036      -55.7340591744      -20.9406520799  TIP3      16130           0.0000000000
     98221     16530  TIP3      H1            -54.5830704769      -55.0705286500      -21.5047090305  TIP3      16130           0.0000000000
     98222     16530  TIP3      H2            -55.6398238204      -55.1656156968      -20.4647469738  TIP3      16130           0.0000000000
     98223     16531  TIP3      OH2           -53.1805387893      -53.8087401686      -22.4946080893  TIP3      16131           0.0000000000
     98224     16531  TIP3      H1            -52.6650943383      -54.4249434320      -23.0254561183  TIP3      16131           0.0000000000
     98225     16531  TIP3      H2            -52.5724100773      -53.4895177012      -21.8093470881  TIP3      16131           0.0000000000
     98226     16532  TIP3      OH2           -53.3388692281      -38.8417051102      -23.0174857223  TIP3      16132           0.0000000000
     98227     16532  TIP3      H1            -53.5716969696      -38.5423478202      -22.1255998745  TIP3      16132           0.0000000000
     98228     16532  TIP3      H2            -52.5329544861      -39.3805443220      -22.8504492405  TIP3      16132           0.0000000000
     98229     16533  TIP3      OH2           -24.8779421914      -47.7404873846      -20.7033977930  TIP3      16133           0.0000000000
     98230     16533  TIP3      H1            -24.3604562990      -47.5860321593      -19.9121842935  TIP3      16133           0.0000000000
     98231     16533  TIP3      H2            -24.5172257319      -47.2468133395      -21.4274545629  TIP3      16133           0.0000000000
     98232     16534  TIP3      OH2           -21.2241677167      -55.9755009080      -20.8475853264  TIP3      16134           0.0000000000
     98233     16534  TIP3      H1            -22.1448376300      -55.8579860595      -20.5752824193  TIP3      16134           0.0000000000
     98234     16534  TIP3      H2            -20.9856185211      -55.1436358342      -21.2772632036  TIP3      16134           0.0000000000
     98235     16535  TIP3      OH2           -20.0596778722      -41.6224799483      -22.5109682941  TIP3      16135           0.0000000000
     98236     16535  TIP3      H1            -19.9664030048      -40.6820316561      -22.3090887014  TIP3      16135           0.0000000000
     98237     16535  TIP3      H2            -19.1346490268      -41.9177306178      -22.5274346860  TIP3      16135           0.0000000000
     98238     16536  TIP3      OH2           -24.6216614242      -38.8420681057      -21.8497490582  TIP3      16136           0.0000000000
     98239     16536  TIP3      H1            -24.2348647730      -39.6202998482      -22.3003297926  TIP3      16136           0.0000000000
     98240     16536  TIP3      H2            -24.6098597343      -39.1427182893      -20.9224204366  TIP3      16136           0.0000000000
     98241     16537  TIP3      OH2           -27.8865730695      -52.8146186338      -22.4092162577  TIP3      16137           0.0000000000
     98242     16537  TIP3      H1            -28.1192168701      -52.7928670670      -21.4742687969  TIP3      16137           0.0000000000
     98243     16537  TIP3      H2            -28.1493161052      -53.6979166353      -22.6914264814  TIP3      16137           0.0000000000
     98244     16538  TIP3      OH2           -31.0088401918      -52.4133792289      -23.3005274334  TIP3      16138           0.0000000000
     98245     16538  TIP3      H1            -31.4445062050      -52.7768848095      -22.5418734802  TIP3      16138           0.0000000000
     98246     16538  TIP3      H2            -31.7247502266      -51.9870824902      -23.7929882557  TIP3      16138           0.0000000000
     98247     16539  TIP3      OH2           -36.4756348838      -51.9161117113      -20.8417180429  TIP3      16139           0.0000000000
     98248     16539  TIP3      H1            -36.0004485405      -51.2849852149      -21.3897274090  TIP3      16139           0.0000000000
     98249     16539  TIP3      H2            -37.1915404885      -51.3794382006      -20.4397398601  TIP3      16139           0.0000000000
     98250     16540  TIP3      OH2           -32.4075414784      -49.5761605120      -21.8969972221  TIP3      16140           0.0000000000
     98251     16540  TIP3      H1            -32.9105564860      -49.9876518658      -22.6034282134  TIP3      16140           0.0000000000
     98252     16540  TIP3      H2            -31.5413314279      -49.4261797122      -22.3100683932  TIP3      16140           0.0000000000
     98253     16541  TIP3      OH2           -24.4118145586      -50.3905238170      -20.1140243944  TIP3      16141           0.0000000000
     98254     16541  TIP3      H1            -23.5245345663      -50.4475308374      -19.7890050666  TIP3      16141           0.0000000000
     98255     16541  TIP3      H2            -24.4090156121      -49.5679793581      -20.6371122464  TIP3      16141           0.0000000000
     98256     16542  TIP3      OH2           -26.9558527623      -43.5869227376      -20.9541746721  TIP3      16142           0.0000000000
     98257     16542  TIP3      H1            -27.1807627553      -42.7369180138      -20.5731014932  TIP3      16142           0.0000000000
     98258     16542  TIP3      H2            -27.6208951933      -44.2337071726      -20.7326181453  TIP3      16142           0.0000000000
     98259     16543  TIP3      OH2           -23.8306198607      -43.4018822107      -22.1445998281  TIP3      16143           0.0000000000
     98260     16543  TIP3      H1            -23.5155918840      -43.7211464603      -21.3039429179  TIP3      16143           0.0000000000
     98261     16543  TIP3      H2            -24.7995159507      -43.4614991227      -22.0347696791  TIP3      16143           0.0000000000
     98262     16544  TIP3      OH2           -29.5835104969      -42.1556922387      -23.6880828871  TIP3      16144           0.0000000000
     98263     16544  TIP3      H1            -29.4698226182      -42.9477235851      -24.2620864742  TIP3      16144           0.0000000000
     98264     16544  TIP3      H2            -29.9348839638      -42.5251252664      -22.8506681621  TIP3      16144           0.0000000000
     98265     16545  TIP3      OH2           -30.8285998108      -42.7146333730      -21.2243437915  TIP3      16145           0.0000000000
     98266     16545  TIP3      H1            -30.6481210471      -43.1879597220      -20.4129677372  TIP3      16145           0.0000000000
     98267     16545  TIP3      H2            -30.8344146870      -41.7611021070      -20.9136298418  TIP3      16145           0.0000000000
     98268     16546  TIP3      OH2           -30.7293032517      -40.0115589895      -20.4873216931  TIP3      16146           0.0000000000
     98269     16546  TIP3      H1            -30.6123552166      -39.1646210414      -21.0009494113  TIP3      16146           0.0000000000
     98270     16546  TIP3      H2            -30.9707762080      -39.6261070187      -19.6207634475  TIP3      16146           0.0000000000
     98271     16547  TIP3      OH2           -35.4254743239      -50.1705697623      -22.7197638765  TIP3      16147           0.0000000000
     98272     16547  TIP3      H1            -35.4703241732      -49.2348817270      -22.5294914507  TIP3      16147           0.0000000000
     98273     16547  TIP3      H2            -36.3300887567      -50.3994901082      -22.9818549356  TIP3      16147           0.0000000000
     98274     16548  TIP3      OH2           -27.6951626979      -40.3802993557      -23.5166484346  TIP3      16148           0.0000000000
     98275     16548  TIP3      H1            -28.3679108617      -41.0319230113      -23.2561221517  TIP3      16148           0.0000000000
     98276     16548  TIP3      H2            -26.9511608877      -40.9371484255      -23.7720154080  TIP3      16148           0.0000000000
     98277     16549  TIP3      OH2           -23.1353185087      -40.6051863369      -23.3442292779  TIP3      16149           0.0000000000
     98278     16549  TIP3      H1            -22.8303950192      -41.3646724454      -22.8267511849  TIP3      16149           0.0000000000
     98279     16549  TIP3      H2            -22.3664388070      -40.3688971037      -23.8735186773  TIP3      16149           0.0000000000
     98280     16550  TIP3      OH2           -32.4328349236      -44.9542170907      -23.5580738261  TIP3      16150           0.0000000000
     98281     16550  TIP3      H1            -32.1119674150      -45.5713831146      -22.8965458327  TIP3      16150           0.0000000000
     98282     16550  TIP3      H2            -31.6209648672      -44.9090184693      -24.1446088511  TIP3      16150           0.0000000000
     98283     16551  TIP3      OH2           -26.8297084921      -43.5985380243      -23.7302796810  TIP3      16151           0.0000000000
     98284     16551  TIP3      H1            -27.0618871640      -43.4723952734      -22.8059948370  TIP3      16151           0.0000000000
     98285     16551  TIP3      H2            -27.0028085066      -44.5626904476      -23.8471797425  TIP3      16151           0.0000000000
     98286     16552  TIP3      OH2           -30.0667406189      -37.7536525378      -21.8367305655  TIP3      16152           0.0000000000
     98287     16552  TIP3      H1            -29.1120978443      -37.6310153321      -21.7374879272  TIP3      16152           0.0000000000
     98288     16552  TIP3      H2            -30.2868363023      -37.1337930573      -22.5291300956  TIP3      16152           0.0000000000
     98289     16553  TIP3      OH2           -36.5084028537      -43.1522037191      -22.3763045332  TIP3      16153           0.0000000000
     98290     16553  TIP3      H1            -35.5893356945      -43.0371439972      -22.1345603733  TIP3      16153           0.0000000000
     98291     16553  TIP3      H2            -36.4991196599      -43.8248866991      -23.0871235427  TIP3      16153           0.0000000000
     98292     16554  TIP3      OH2           -21.0621876532      -50.0427000306      -22.6918141151  TIP3      16154           0.0000000000
     98293     16554  TIP3      H1            -20.9902857726      -49.3926729796      -23.3938824246  TIP3      16154           0.0000000000
     98294     16554  TIP3      H2            -21.2308719690      -50.8753984975      -23.1714528846  TIP3      16154           0.0000000000
     98295     16555  TIP3      OH2           -21.8408991262      -52.5961401882      -23.5724854596  TIP3      16155           0.0000000000
     98296     16555  TIP3      H1            -21.2233863657      -53.0309755173      -22.9539504632  TIP3      16155           0.0000000000
     98297     16555  TIP3      H2            -22.6758674559      -53.0589530688      -23.4112552443  TIP3      16155           0.0000000000
     98298     16556  TIP3      OH2           -19.7621477472      -53.7566063657      -22.0166067970  TIP3      16156           0.0000000000
     98299     16556  TIP3      H1            -19.3356731526      -54.4732755472      -22.5472667178  TIP3      16156           0.0000000000
     98300     16556  TIP3      H2            -19.0436411740      -53.0981693609      -21.9606894875  TIP3      16156           0.0000000000
     98301     16557  TIP3      OH2           -34.4452112638      -38.8103551381      -23.0282202581  TIP3      16157           0.0000000000
     98302     16557  TIP3      H1            -34.7352610588      -38.5787293261      -22.1205486057  TIP3      16157           0.0000000000
     98303     16557  TIP3      H2            -33.6897893947      -39.3929991753      -22.8410162060  TIP3      16157           0.0000000000
     98304     16558  TIP3      OH2            -8.3064529910      -48.6174579493      -22.3204566177  TIP3      16158           0.0000000000
     98305     16558  TIP3      H1             -7.6126258341      -48.6290829543      -21.6225746296  TIP3      16158           0.0000000000
     98306     16558  TIP3      H2             -7.9692509001      -49.2849003000      -22.9241121844  TIP3      16158           0.0000000000
     98307     16559  TIP3      OH2            -6.0770374119      -47.7421202498      -20.6987017941  TIP3      16159           0.0000000000
     98308     16559  TIP3      H1             -5.4887448205      -47.5991766443      -19.9357458783  TIP3      16159           0.0000000000
     98309     16559  TIP3      H2             -5.6194224415      -47.2791940668      -21.4206895113  TIP3      16159           0.0000000000
     98310     16560  TIP3      OH2            -2.3813629249      -55.9268208045      -20.9116586610  TIP3      16160           0.0000000000
     98311     16560  TIP3      H1             -3.2679167999      -55.8474965625      -20.5715182653  TIP3      16160           0.0000000000
     98312     16560  TIP3      H2             -2.1135152582      -55.0953066176      -21.2667748842  TIP3      16160           0.0000000000
     98313     16561  TIP3      OH2            -5.7719753943      -38.8617080304      -21.8261120783  TIP3      16161           0.0000000000
     98314     16561  TIP3      H1             -5.3873171812      -39.6247977604      -22.2956723280  TIP3      16161           0.0000000000
     98315     16561  TIP3      H2             -5.7712791535      -39.1473371325      -20.9034736285  TIP3      16161           0.0000000000
     98316     16562  TIP3      OH2            -4.6251184027      -46.6670045166      -23.0252272597  TIP3      16162           0.0000000000
     98317     16562  TIP3      H1             -4.5647637074      -46.9225560654      -23.9755087267  TIP3      16162           0.0000000000
     98318     16562  TIP3      H2             -3.7367605788      -46.3058891250      -22.8622468553  TIP3      16162           0.0000000000
     98319     16563  TIP3      OH2           -12.1463136354      -52.3859249831      -23.2882116128  TIP3      16163           0.0000000000
     98320     16563  TIP3      H1            -12.5751328254      -52.8285924545      -22.5373821057  TIP3      16163           0.0000000000
     98321     16563  TIP3      H2            -12.8751245355      -51.9926745758      -23.7852057854  TIP3      16163           0.0000000000
     98322     16564  TIP3      OH2           -17.6301654931      -51.8846611526      -20.8184669586  TIP3      16164           0.0000000000
     98323     16564  TIP3      H1            -17.1423396590      -51.2905903411      -21.4060619547  TIP3      16164           0.0000000000
     98324     16564  TIP3      H2            -18.3384551972      -51.3442539348      -20.4468569831  TIP3      16164           0.0000000000
     98325     16565  TIP3      OH2           -16.9564296274      -47.3594561092      -22.2236910588  TIP3      16165           0.0000000000
     98326     16565  TIP3      H1            -16.3261312466      -46.7330286890      -21.8343460207  TIP3      16165           0.0000000000
     98327     16565  TIP3      H2            -17.8037261883      -47.0283009460      -21.9349121553  TIP3      16165           0.0000000000
     98328     16566  TIP3      OH2           -10.8880240122      -42.2479498044      -23.6827491412  TIP3      16166           0.0000000000
     98329     16566  TIP3      H1            -10.6930790083      -43.0217978815      -24.2278542317  TIP3      16166           0.0000000000
     98330     16566  TIP3      H2            -11.1841238132      -42.6527141011      -22.8550064154  TIP3      16166           0.0000000000
     98331     16567  TIP3      OH2           -14.9375772635      -42.7950847564      -21.8317942073  TIP3      16167           0.0000000000
     98332     16567  TIP3      H1            -14.2645834674      -42.1742051601      -21.5469338192  TIP3      16167           0.0000000000
     98333     16567  TIP3      H2            -14.4349440979      -43.2854351783      -22.5203378604  TIP3      16167           0.0000000000
     98334     16568  TIP3      OH2           -16.5853562914      -50.1519668542      -22.6957354720  TIP3      16168           0.0000000000
     98335     16568  TIP3      H1            -16.6291730521      -49.2036163387      -22.5249366321  TIP3      16168           0.0000000000
     98336     16568  TIP3      H2            -17.4766291217      -50.3955724413      -22.9790869210  TIP3      16168           0.0000000000
     98337     16569  TIP3      OH2            -8.8450899060      -40.3857951734      -23.5617433689  TIP3      16169           0.0000000000
     98338     16569  TIP3      H1             -9.5200848624      -41.0178543194      -23.2145445210  TIP3      16169           0.0000000000
     98339     16569  TIP3      H2             -8.1026702817      -40.9522743000      -23.7707258991  TIP3      16169           0.0000000000
     98340     16570  TIP3      OH2            -4.2772628715      -40.6197955062      -23.3176368947  TIP3      16170           0.0000000000
     98341     16570  TIP3      H1             -3.9550171372      -41.3803844881      -22.8452803398  TIP3      16170           0.0000000000
     98342     16570  TIP3      H2             -3.5211724262      -40.3576241191      -23.8740649584  TIP3      16170           0.0000000000
     98343     16571  TIP3      OH2           -13.3401480178      -44.6686779448      -23.4545418785  TIP3      16171           0.0000000000
     98344     16571  TIP3      H1            -13.2258148067      -45.4664885308      -22.9147558637  TIP3      16171           0.0000000000
     98345     16571  TIP3      H2            -12.6425665359      -44.7973608885      -24.1297898912  TIP3      16171           0.0000000000
     98346     16572  TIP3      OH2            -7.9005447516      -43.6213003519      -23.7013615562  TIP3      16172           0.0000000000
     98347     16572  TIP3      H1             -8.2536366287      -43.4525152704      -22.8278397516  TIP3      16172           0.0000000000
     98348     16572  TIP3      H2             -8.1737231877      -44.5573603126      -23.8616441218  TIP3      16172           0.0000000000
     98349     16573  TIP3      OH2           -11.1110635565      -48.4595148378      -22.8848750396  TIP3      16173           0.0000000000
     98350     16573  TIP3      H1            -11.2695700449      -48.6018734167      -23.8313317850  TIP3      16173           0.0000000000
     98351     16573  TIP3      H2            -10.1415885950      -48.3727499011      -22.8223133892  TIP3      16173           0.0000000000
     98352     16574  TIP3      OH2            -1.6993273312      -46.1216105812      -23.4341867090  TIP3      16174           0.0000000000
     98353     16574  TIP3      H1             -1.9732511435      -46.5249767272      -24.2613427836  TIP3      16174           0.0000000000
     98354     16574  TIP3      H2             -1.6585857122      -45.1684452351      -23.6532879222  TIP3      16174           0.0000000000
     98355     16575  TIP3      OH2           -11.2430063344      -37.7412094326      -21.8532538656  TIP3      16175           0.0000000000
     98356     16575  TIP3      H1            -10.2742475969      -37.6586712056      -21.7313726498  TIP3      16175           0.0000000000
     98357     16575  TIP3      H2            -11.4230124605      -37.0997980977      -22.5302798164  TIP3      16175           0.0000000000
     98358     16576  TIP3      OH2           -17.6555960633      -43.1350530201      -22.3823334357  TIP3      16176           0.0000000000
     98359     16576  TIP3      H1            -16.7069283336      -43.0728133294      -22.1303794179  TIP3      16176           0.0000000000
     98360     16576  TIP3      H2            -17.6205309994      -43.8256958460      -23.0812634472  TIP3      16176           0.0000000000
     98361     16577  TIP3      OH2            -0.4927780933      -47.2695538927      -21.2529460250  TIP3      16177           0.0000000000
     98362     16577  TIP3      H1             -1.1122218722      -46.9342845698      -21.9486726960  TIP3      16177           0.0000000000
     98363     16577  TIP3      H2             -0.6923285319      -46.6238644813      -20.5617618756  TIP3      16177           0.0000000000
     98364     16578  TIP3      OH2            -2.1542100251      -50.0597924303      -22.7184814920  TIP3      16178           0.0000000000
     98365     16578  TIP3      H1             -2.1436187022      -49.3729938675      -23.3767562115  TIP3      16178           0.0000000000
     98366     16578  TIP3      H2             -2.3972970139      -50.8798009993      -23.1712463148  TIP3      16178           0.0000000000
     98367     16579  TIP3      OH2            -2.9464829927      -52.6164845196      -23.5881899645  TIP3      16179           0.0000000000
     98368     16579  TIP3      H1             -2.3746909389      -53.0314835524      -22.9161502570  TIP3      16179           0.0000000000
     98369     16579  TIP3      H2             -3.8033258485      -53.0442613692      -23.3956130888  TIP3      16179           0.0000000000
     98370     16580  TIP3      OH2            -0.8780948293      -53.7486336936      -22.0566283523  TIP3      16180           0.0000000000
     98371     16580  TIP3      H1             -0.4705479818      -54.5068634032      -22.5233551415  TIP3      16180           0.0000000000
     98372     16580  TIP3      H2             -0.2108176407      -53.0982166231      -21.9733038163  TIP3      16180           0.0000000000
     98373     16581  TIP3      OH2            -8.5621892424      -38.4844465885      -21.6571620566  TIP3      16181           0.0000000000
     98374     16581  TIP3      H1             -7.6628784136      -38.2070923084      -21.8259338980  TIP3      16181           0.0000000000
     98375     16581  TIP3      H2             -8.7984882681      -39.0170496735      -22.4374073799  TIP3      16181           0.0000000000
     98376     16582  TIP3      OH2            12.7654950110      -47.6892035677      -20.6939860992  TIP3      16182           0.0000000000
     98377     16582  TIP3      H1             13.3671218084      -47.6096931417      -19.9301091438  TIP3      16182           0.0000000000
     98378     16582  TIP3      H2             13.2329595452      -47.2914409555      -21.4289766555  TIP3      16182           0.0000000000
     98379     16583  TIP3      OH2            16.4934153441      -55.9703256228      -20.8785778393  TIP3      16183           0.0000000000
     98380     16583  TIP3      H1             15.5840293598      -55.8553834527      -20.5693043220  TIP3      16183           0.0000000000
     98381     16583  TIP3      H2             16.7140223519      -55.1497045253      -21.2963756483  TIP3      16183           0.0000000000
     98382     16584  TIP3      OH2            17.6497348682      -41.6282220944      -22.5279580785  TIP3      16184           0.0000000000
     98383     16584  TIP3      H1             17.7482085462      -40.6744659675      -22.3024139358  TIP3      16184           0.0000000000
     98384     16584  TIP3      H2             18.5707577522      -41.8914110111      -22.5203205781  TIP3      16184           0.0000000000
     98385     16585  TIP3      OH2            13.0232064013      -38.9030614758      -21.8495010355  TIP3      16185           0.0000000000
     98386     16585  TIP3      H1             13.4908538937      -39.6176600409      -22.3073275734  TIP3      16185           0.0000000000
     98387     16585  TIP3      H2             13.1104238245      -39.1350535221      -20.9149401241  TIP3      16185           0.0000000000
     98388     16586  TIP3      OH2            14.2351378903      -46.6402176074      -23.0189782322  TIP3      16186           0.0000000000
     98389     16586  TIP3      H1             14.2944549481      -46.9275176551      -23.9712044623  TIP3      16186           0.0000000000
     98390     16586  TIP3      H2             15.1347679143      -46.3130155749      -22.8660085835  TIP3      16186           0.0000000000
     98391     16587  TIP3      OH2             6.7107761552      -52.3683727153      -23.2803485379  TIP3      16187           0.0000000000
     98392     16587  TIP3      H1              6.2762860820      -52.8266551506      -22.5368873831  TIP3      16187           0.0000000000
     98393     16587  TIP3      H2              5.9912841602      -51.9923614182      -23.7963225456  TIP3      16187           0.0000000000
     98394     16588  TIP3      OH2             5.3168751757      -49.5915103673      -21.8821995304  TIP3      16188           0.0000000000
     98395     16588  TIP3      H1              4.8223901454      -49.9818097037      -22.6080713839  TIP3      16188           0.0000000000
     98396     16588  TIP3      H2              6.1674248621      -49.4083397505      -22.3205127343  TIP3      16188           0.0000000000
     98397     16589  TIP3      OH2            18.3569726974      -38.9236032261      -21.9569666197  TIP3      16189           0.0000000000
     98398     16589  TIP3      H1             19.1020296417      -38.3046381780      -22.0356086205  TIP3      16189           0.0000000000
     98399     16589  TIP3      H2             17.6550108944      -38.3537653738      -21.5821026056  TIP3      16189           0.0000000000
     98400     16590  TIP3      OH2             7.9907434802      -42.2445872664      -23.6578950711  TIP3      16190           0.0000000000
     98401     16590  TIP3      H1              8.1578693551      -43.0148479078      -24.2266791139  TIP3      16190           0.0000000000
     98402     16590  TIP3      H2              7.6604373100      -42.6695092827      -22.8545281172  TIP3      16190           0.0000000000
     98403     16591  TIP3      OH2             5.6603082667      -53.2702305478      -20.8851647138  TIP3      16191           0.0000000000
     98404     16591  TIP3      H1              5.6263870358      -52.3741061409      -20.4927889990  TIP3      16191           0.0000000000
     98405     16591  TIP3      H2              6.5708935441      -53.5215188316      -20.6318619194  TIP3      16191           0.0000000000
     98406     16592  TIP3      OH2            10.0002128499      -40.3849920145      -23.5259325629  TIP3      16192           0.0000000000
     98407     16592  TIP3      H1              9.3305181064      -41.0347389642      -23.2326842393  TIP3      16192           0.0000000000
     98408     16592  TIP3      H2             10.7448148602      -40.9362691534      -23.7701172429  TIP3      16192           0.0000000000
     98409     16593  TIP3      OH2            14.5625010378      -40.6395403164      -23.3325819021  TIP3      16193           0.0000000000
     98410     16593  TIP3      H1             14.9112980831      -41.3703761992      -22.8348238850  TIP3      16193           0.0000000000
     98411     16593  TIP3      H2             15.3298263963      -40.3602870266      -23.8701092332  TIP3      16193           0.0000000000
     98412     16594  TIP3      OH2             5.5201678171      -44.6649709235      -23.4587610403  TIP3      16194           0.0000000000
     98413     16594  TIP3      H1              5.6242000761      -45.4614590217      -22.9188838098  TIP3      16194           0.0000000000
     98414     16594  TIP3      H2              6.2178747212      -44.7988582224      -24.1229147689  TIP3      16194           0.0000000000
     98415     16595  TIP3      OH2            10.9577791342      -43.6159029932      -23.6907435323  TIP3      16195           0.0000000000
     98416     16595  TIP3      H1             10.5861831603      -43.4543425313      -22.8259758635  TIP3      16195           0.0000000000
     98417     16595  TIP3      H2             10.6767682534      -44.5517405087      -23.8629699238  TIP3      16195           0.0000000000
     98418     16596  TIP3      OH2             6.6605793799      -46.6831256763      -21.1583651545  TIP3      16196           0.0000000000
     98419     16596  TIP3      H1              6.2501023183      -47.1971430836      -20.4590561927  TIP3      16196           0.0000000000
     98420     16596  TIP3      H2              6.9672487689      -47.3784908774      -21.7698899248  TIP3      16196           0.0000000000
     98421     16597  TIP3      OH2             7.7307555012      -48.4339739879      -22.8988086321  TIP3      16197           0.0000000000
     98422     16597  TIP3      H1              7.5864768974      -48.5956196083      -23.8463578062  TIP3      16197           0.0000000000
     98423     16597  TIP3      H2              8.6986323036      -48.3668946300      -22.8370822601  TIP3      16197           0.0000000000
     98424     16598  TIP3      OH2            17.1253951864      -46.1112965169      -23.4374646794  TIP3      16198           0.0000000000
     98425     16598  TIP3      H1             16.8958716789      -46.5245667652      -24.2817080912  TIP3      16198           0.0000000000
     98426     16598  TIP3      H2             17.2060300257      -45.1633540446      -23.6574347496  TIP3      16198           0.0000000000
     98427     16599  TIP3      OH2             1.2034275263      -43.1509328719      -22.3823181066  TIP3      16199           0.0000000000
     98428     16599  TIP3      H1              2.1353296345      -43.0598603974      -22.1246699192  TIP3      16199           0.0000000000
     98429     16599  TIP3      H2              1.2368379444      -43.8291766018      -23.0856990695  TIP3      16199           0.0000000000
     98430     16600  TIP3      OH2            18.2878149386      -47.2890403463      -21.2353089920  TIP3      16200           0.0000000000
     98431     16600  TIP3      H1             17.7489439843      -46.9290606622      -21.9680324100  TIP3      16200           0.0000000000
     98432     16600  TIP3      H2             18.2310398730      -46.6060099523      -20.5503838343  TIP3      16200           0.0000000000
     98433     16601  TIP3      OH2             1.5745630908      -55.6927463953      -20.9185712201  TIP3      16201           0.0000000000
     98434     16601  TIP3      H1              1.9771446500      -55.0828592023      -21.5356257829  TIP3      16201           0.0000000000
     98435     16601  TIP3      H2              0.8840156996      -55.1846474403      -20.4586721084  TIP3      16201           0.0000000000
     98436     16602  TIP3      OH2             3.3645945079      -53.7761800164      -22.4761996678  TIP3      16202           0.0000000000
     98437     16602  TIP3      H1              3.8812509339      -54.4143546913      -23.0201805685  TIP3      16202           0.0000000000
     98438     16602  TIP3      H2              4.0475632313      -53.5107074041      -21.8272453773  TIP3      16202           0.0000000000
     98439     16603  TIP3      OH2            10.3019806488      -38.5313218995      -21.5957412639  TIP3      16203           0.0000000000
     98440     16603  TIP3      H1             11.1850244120      -38.2015518420      -21.8279747242  TIP3      16203           0.0000000000
     98441     16603  TIP3      H2             10.0535883194      -38.9873791509      -22.4311629520  TIP3      16203           0.0000000000
     98442     16604  TIP3      OH2             3.2443187347      -38.8413616091      -23.0102921153  TIP3      16204           0.0000000000
     98443     16604  TIP3      H1              3.0068483890      -38.5629367871      -22.1158820541  TIP3      16204           0.0000000000
     98444     16604  TIP3      H2              4.0362859213      -39.3890385307      -22.8317436363  TIP3      16204           0.0000000000
     98445     16605  TIP3      OH2            29.4270630309      -48.5991689637      -22.3026263892  TIP3      16205           0.0000000000
     98446     16605  TIP3      H1             30.1132885908      -48.6320714207      -21.6346681003  TIP3      16205           0.0000000000
     98447     16605  TIP3      H2             29.7198993265      -49.2715199100      -22.9276172080  TIP3      16205           0.0000000000
     98448     16606  TIP3      OH2            35.3503732072      -55.9788558323      -20.8569483102  TIP3      16206           0.0000000000
     98449     16606  TIP3      H1             34.4416434149      -55.8553597028      -20.5842498113  TIP3      16206           0.0000000000
     98450     16606  TIP3      H2             35.5870629757      -55.1450763298      -21.2835538326  TIP3      16206           0.0000000000
     98451     16607  TIP3      OH2            36.5059971554      -41.6370212978      -22.6172055998  TIP3      16207           0.0000000000
     98452     16607  TIP3      H1             36.6267212159      -40.6943472362      -22.3367678510  TIP3      16207           0.0000000000
     98453     16607  TIP3      H2             37.4423821333      -41.9108475297      -22.5316290056  TIP3      16207           0.0000000000
     98454     16608  TIP3      OH2            33.1166330644      -46.6605300451      -23.0214961226  TIP3      16208           0.0000000000
     98455     16608  TIP3      H1             33.1411217856      -46.9298544880      -23.9722691431  TIP3      16208           0.0000000000
     98456     16608  TIP3      H2             33.9893660295      -46.3036124084      -22.8745624797  TIP3      16208           0.0000000000
     98457     16609  TIP3      OH2            28.7154073084      -52.8326608079      -22.3841587811  TIP3      16209           0.0000000000
     98458     16609  TIP3      H1             28.4235559349      -52.8073515401      -21.4688282305  TIP3      16209           0.0000000000
     98459     16609  TIP3      H2             28.4012329381      -53.6967525449      -22.6933908194  TIP3      16209           0.0000000000
     98460     16610  TIP3      OH2            25.5595688945      -52.4171161410      -23.2957969427  TIP3      16210           0.0000000000
     98461     16610  TIP3      H1             25.1296336154      -52.8110002218      -22.5347410273  TIP3      16210           0.0000000000
     98462     16610  TIP3      H2             24.8520509582      -51.9740783687      -23.7876069653  TIP3      16210           0.0000000000
     98463     16611  TIP3      OH2            20.7914148710      -47.3479996659      -22.2151142676  TIP3      16211           0.0000000000
     98464     16611  TIP3      H1             21.3947864252      -46.7329570220      -21.8041982974  TIP3      16211           0.0000000000
     98465     16611  TIP3      H2             19.8987740369      -47.0624956178      -21.9189445962  TIP3      16211           0.0000000000
     98466     16612  TIP3      OH2            37.1984930274      -38.9458437277      -21.9181839658  TIP3      16212           0.0000000000
     98467     16612  TIP3      H1             37.9388701339      -38.3090927310      -22.0373917264  TIP3      16212           0.0000000000
     98468     16612  TIP3      H2             36.5434166826      -38.3087812912      -21.5692069789  TIP3      16212           0.0000000000
     98469     16613  TIP3      OH2            26.8307633125      -42.2482100190      -23.6566009262  TIP3      16213           0.0000000000
     98470     16613  TIP3      H1             27.0317784506      -43.0119832072      -24.2245347552  TIP3      16213           0.0000000000
     98471     16613  TIP3      H2             26.5268739049      -42.6703162682      -22.8575048083  TIP3      16213           0.0000000000
     98472     16614  TIP3      OH2            21.1072583722      -50.1718626473      -22.7009400422  TIP3      16214           0.0000000000
     98473     16614  TIP3      H1             21.0920166638      -49.2140734495      -22.5056801414  TIP3      16214           0.0000000000
     98474     16614  TIP3      H2             20.2240723704      -50.3816153122      -22.9671272624  TIP3      16214           0.0000000000
     98475     16615  TIP3      OH2            28.8617634363      -40.3805194012      -23.5457367162  TIP3      16215           0.0000000000
     98476     16615  TIP3      H1             28.2017437936      -41.0198253748      -23.2174232857  TIP3      16215           0.0000000000
     98477     16615  TIP3      H2             29.6074036009      -40.9458382499      -23.7664528571  TIP3      16215           0.0000000000
     98478     16616  TIP3      OH2            33.4213727757      -40.6418438660      -23.3293683921  TIP3      16216           0.0000000000
     98479     16616  TIP3      H1             33.7568449888      -41.3829618644      -22.8448377680  TIP3      16216           0.0000000000
     98480     16616  TIP3      H2             34.1849904665      -40.3594541982      -23.8677680507  TIP3      16216           0.0000000000
     98481     16617  TIP3      OH2            24.3854664574      -44.6460739945      -23.4319913506  TIP3      16217           0.0000000000
     98482     16617  TIP3      H1             24.4651970076      -45.4776207085      -22.9414730396  TIP3      16217           0.0000000000
     98483     16617  TIP3      H2             25.0623557061      -44.8087157991      -24.1308929759  TIP3      16217           0.0000000000
     98484     16618  TIP3      OH2            29.7696750009      -43.6089141523      -23.7128151972  TIP3      16218           0.0000000000
     98485     16618  TIP3      H1             29.4795447812      -43.4516192718      -22.8136403366  TIP3      16218           0.0000000000
     98486     16618  TIP3      H2             29.5503293182      -44.5591391895      -23.8575088966  TIP3      16218           0.0000000000
     98487     16619  TIP3      OH2            35.9814287783      -46.0744855715      -23.4317024016  TIP3      16219           0.0000000000
     98488     16619  TIP3      H1             35.7463842571      -46.5399895349      -24.2562388306  TIP3      16219           0.0000000000
     98489     16619  TIP3      H2             36.0777196895      -45.1604359628      -23.6778123798  TIP3      16219           0.0000000000
     98490     16620  TIP3      OH2            37.1441351699      -47.2801882720      -21.2341334211  TIP3      16220           0.0000000000
     98491     16620  TIP3      H1             36.6016881991      -46.9437061861      -21.9723702798  TIP3      16220           0.0000000000
     98492     16620  TIP3      H2             37.0925629262      -46.6140580250      -20.5489015225  TIP3      16220           0.0000000000
     98493     16621  TIP3      OH2            34.7251097916      -52.6279409568      -23.5930823516  TIP3      16221           0.0000000000
     98494     16621  TIP3      H1             35.3386855129      -53.0015869695      -22.9343720784  TIP3      16221           0.0000000000
     98495     16621  TIP3      H2             33.8925296743      -53.0572646736      -23.3912302637  TIP3      16221           0.0000000000
     98496     16622  TIP3      OH2            36.8127254652      -53.7519149120      -22.0121680125  TIP3      16222           0.0000000000
     98497     16622  TIP3      H1             37.2449536638      -54.4861225092      -22.5239854613  TIP3      16222           0.0000000000
     98498     16622  TIP3      H2             37.5040391855      -53.0770851010      -21.9816487894  TIP3      16222           0.0000000000
     98499     16623  TIP3      OH2            20.5214487912      -55.5862827130      -20.9288089563  TIP3      16223           0.0000000000
     98500     16623  TIP3      H1             20.8943857631      -55.0041403535      -21.5790956903  TIP3      16223           0.0000000000
     98501     16623  TIP3      H2             19.8120646538      -55.1167772428      -20.4763077617  TIP3      16223           0.0000000000
     98502     16624  TIP3      OH2            22.2292382797      -53.7953026240      -22.4882405587  TIP3      16224           0.0000000000
     98503     16624  TIP3      H1             22.7476632931      -54.4274877152      -23.0152656478  TIP3      16224           0.0000000000
     98504     16624  TIP3      H2             22.8714993011      -53.5103267789      -21.8286990929  TIP3      16224           0.0000000000
     98505     16625  TIP3      OH2            22.0795354589      -38.8702417926      -23.0110533722  TIP3      16225           0.0000000000
     98506     16625  TIP3      H1             21.8563632442      -38.5303594989      -22.1289044902  TIP3      16225           0.0000000000
     98507     16625  TIP3      H2             22.9057507879      -39.3602590902      -22.8550800944  TIP3      16225           0.0000000000
     98508     16626  TIP3      OH2            50.4563933457      -47.6607634401      -20.6729268854  TIP3      16226           0.0000000000
     98509     16626  TIP3      H1             51.0910918276      -47.6234874669      -19.9405520898  TIP3      16226           0.0000000000
     98510     16626  TIP3      H2             50.9326825235      -47.2884527268      -21.4317651962  TIP3      16226           0.0000000000
     98511     16627  TIP3      OH2            54.1943725441      -55.9755251902      -20.8956584150  TIP3      16227           0.0000000000
     98512     16627  TIP3      H1             53.2966375262      -55.8445162441      -20.5573985000  TIP3      16227           0.0000000000
     98513     16627  TIP3      H2             54.4433665358      -55.1285737117      -21.2678898985  TIP3      16227           0.0000000000
     98514     16628  TIP3      OH2            55.3439381982      -41.6119703011      -22.5476337797  TIP3      16228           0.0000000000
     98515     16628  TIP3      H1             55.4601674543      -40.6930386639      -22.3070576330  TIP3      16228           0.0000000000
     98516     16628  TIP3      H2             56.2777759144      -41.9318075828      -22.5198502228  TIP3      16228           0.0000000000
     98517     16629  TIP3      OH2            50.7858592965      -38.8548620414      -21.8217517510  TIP3      16229           0.0000000000
     98518     16629  TIP3      H1             51.1783296324      -39.6108710859      -22.3043668106  TIP3      16229           0.0000000000
     98519     16629  TIP3      H2             50.8127490745      -39.1523928338      -20.9029278016  TIP3      16229           0.0000000000
     98520     16630  TIP3      OH2            51.9597703921      -46.6441420800      -23.0215957960  TIP3      16230           0.0000000000
     98521     16630  TIP3      H1             51.9900329838      -46.9290487984      -23.9637268655  TIP3      16230           0.0000000000
     98522     16630  TIP3      H2             52.8498999349      -46.3066471723      -22.8699092597  TIP3      16230           0.0000000000
     98523     16631  TIP3      OH2            47.5524228925      -52.7976224039      -22.3898666869  TIP3      16231           0.0000000000
     98524     16631  TIP3      H1             47.2802308261      -52.8281622367      -21.4728432874  TIP3      16231           0.0000000000
     98525     16631  TIP3      H2             47.2611964312      -53.6806955609      -22.6981652984  TIP3      16231           0.0000000000
     98526     16632  TIP3      OH2            44.4347009902      -52.3955004386      -23.2917933982  TIP3      16232           0.0000000000
     98527     16632  TIP3      H1             43.9818626490      -52.8200196429      -22.5325600024  TIP3      16232           0.0000000000
     98528     16632  TIP3      H2             43.7020851366      -51.9913680201      -23.7779551294  TIP3      16232           0.0000000000
     98529     16633  TIP3      OH2            43.0366689848      -49.5786878023      -21.9004098830  TIP3      16233           0.0000000000
     98530     16633  TIP3      H1             42.5116701666      -49.9905616473      -22.5968947076  TIP3      16233           0.0000000000
     98531     16633  TIP3      H2             43.8798333847      -49.4106703165      -22.3326834120  TIP3      16233           0.0000000000
     98532     16634  TIP3      OH2            50.2693495180      -52.2027783176      -21.8235886199  TIP3      16234           0.0000000000
     98533     16634  TIP3      H1             49.3149579540      -52.1014947575      -21.9117776921  TIP3      16234           0.0000000000
     98534     16634  TIP3      H2             50.5989783281      -51.3704579648      -21.4414818131  TIP3      16234           0.0000000000
     98535     16635  TIP3      OH2            48.4939845913      -43.5786231800      -20.9776609902  TIP3      16235           0.0000000000
     98536     16635  TIP3      H1             48.2080127739      -42.7457366453      -20.5428060998  TIP3      16235           0.0000000000
     98537     16635  TIP3      H2             47.8059434213      -44.1910671249      -20.7061904143  TIP3      16235           0.0000000000
     98538     16636  TIP3      OH2            55.8765649073      -50.1459873835      -20.3927211492  TIP3      16236           0.0000000000
     98539     16636  TIP3      H1             55.3211040205      -50.5316072250      -21.0839737486  TIP3      16236           0.0000000000
     98540     16636  TIP3      H2             55.9796258120      -49.2317163188      -20.6885052264  TIP3      16236           0.0000000000
     98541     16637  TIP3      OH2            39.6451352342      -47.3470261926      -22.2496338778  TIP3      16237           0.0000000000
     98542     16637  TIP3      H1             40.2616200722      -46.7421465484      -21.7926502497  TIP3      16237           0.0000000000
     98543     16637  TIP3      H2             38.7649232368      -47.0713675234      -21.9214331552  TIP3      16237           0.0000000000
     98544     16638  TIP3      OH2            41.0358032078      -45.4343609106      -20.7448745580  TIP3      16238           0.0000000000
     98545     16638  TIP3      H1             40.3598843462      -45.0950036025      -20.1155912081  TIP3      16238           0.0000000000
     98546     16638  TIP3      H2             41.5787679911      -44.6788842152      -20.9241465608  TIP3      16238           0.0000000000
     98547     16639  TIP3      OH2            47.3694784633      -41.0152289693      -20.4725860069  TIP3      16239           0.0000000000
     98548     16639  TIP3      H1             46.5148886854      -40.5339938660      -20.4346498399  TIP3      16239           0.0000000000
     98549     16639  TIP3      H2             47.8754746657      -40.4877524657      -21.1080507098  TIP3      16239           0.0000000000
     98550     16640  TIP3      OH2            44.7035704590      -39.9939529384      -20.4910101074  TIP3      16240           0.0000000000
     98551     16640  TIP3      H1             44.8079485167      -39.1516933145      -21.0118918359  TIP3      16240           0.0000000000
     98552     16640  TIP3      H2             44.4458117260      -39.6597262295      -19.6190101313  TIP3      16240           0.0000000000
     98553     16641  TIP3      OH2            39.9777124728      -50.1724354788      -22.7278248359  TIP3      16241           0.0000000000
     98554     16641  TIP3      H1             39.9449674376      -49.2219610404      -22.4962341590  TIP3      16241           0.0000000000
     98555     16641  TIP3      H2             39.0719820873      -50.3778165419      -22.9532725178  TIP3      16241           0.0000000000
     98556     16642  TIP3      OH2            47.7059172862      -40.4023450274      -23.5210814839  TIP3      16242           0.0000000000
     98557     16642  TIP3      H1             47.0662897914      -41.0499363544      -23.2182345408  TIP3      16242           0.0000000000
     98558     16642  TIP3      H2             48.4624042087      -40.9481826771      -23.7824294043  TIP3      16242           0.0000000000
     98559     16643  TIP3      OH2            52.2861090818      -40.6118530661      -23.3095903522  TIP3      16243           0.0000000000
     98560     16643  TIP3      H1             52.6174378118      -41.3717424749      -22.8382568103  TIP3      16243           0.0000000000
     98561     16643  TIP3      H2             53.0421836639      -40.3632446686      -23.8810594977  TIP3      16243           0.0000000000
     98562     16644  TIP3      OH2            48.6205037412      -43.5935062176      -23.7147618672  TIP3      16244           0.0000000000
     98563     16644  TIP3      H1             48.3432207456      -43.4702880852      -22.7970940647  TIP3      16244           0.0000000000
     98564     16644  TIP3      H2             48.4116086923      -44.5526388788      -23.8635086959  TIP3      16244           0.0000000000
     98565     16645  TIP3      OH2            45.4919760757      -48.4806349164      -22.8621944241  TIP3      16245           0.0000000000
     98566     16645  TIP3      H1             45.2880152420      -48.5951236689      -23.8182157961  TIP3      16245           0.0000000000
     98567     16645  TIP3      H2             46.4318533683      -48.3528277455      -22.8573278295  TIP3      16245           0.0000000000
     98568     16646  TIP3      OH2            54.8161296748      -46.0967046966      -23.4112399664  TIP3      16246           0.0000000000
     98569     16646  TIP3      H1             54.6094405760      -46.5179317279      -24.2600618187  TIP3      16246           0.0000000000
     98570     16646  TIP3      H2             54.9148802441      -45.1496106301      -23.6556178896  TIP3      16246           0.0000000000
     98571     16647  TIP3      OH2            45.3457459272      -37.7915692681      -21.8491439030  TIP3      16247           0.0000000000
     98572     16647  TIP3      H1             46.3030834838      -37.6032404325      -21.7413483209  TIP3      16247           0.0000000000
     98573     16647  TIP3      H2             45.1414982181      -37.1051580261      -22.5093727873  TIP3      16247           0.0000000000
     98574     16648  TIP3      OH2            38.9196879927      -43.1224423070      -22.4024780862  TIP3      16248           0.0000000000
     98575     16648  TIP3      H1             39.8417304220      -43.0637263249      -22.1183874272  TIP3      16248           0.0000000000
     98576     16648  TIP3      H2             38.9514496669      -43.8337369778      -23.0761807880  TIP3      16248           0.0000000000
     98577     16649  TIP3      OH2            55.9480130757      -47.3006533302      -21.2061018796  TIP3      16249           0.0000000000
     98578     16649  TIP3      H1             55.4600213234      -46.9277138864      -21.9689084946  TIP3      16249           0.0000000000
     98579     16649  TIP3      H2             55.9391199561      -46.6051631647      -20.5469563278  TIP3      16249           0.0000000000
     98580     16650  TIP3      OH2            54.3368752568      -50.0337259618      -22.7025485175  TIP3      16250           0.0000000000
     98581     16650  TIP3      H1             54.4448619249      -49.3931359245      -23.3879556268  TIP3      16250           0.0000000000
     98582     16650  TIP3      H2             54.1893381822      -50.8748548485      -23.1694724128  TIP3      16250           0.0000000000
     98583     16651  TIP3      OH2            53.5743539004      -52.6123593618      -23.5839378986  TIP3      16251           0.0000000000
     98584     16651  TIP3      H1             54.1961390471      -53.0149285387      -22.9374227986  TIP3      16251           0.0000000000
     98585     16651  TIP3      H2             52.7325195455      -53.0534194066      -23.3901252439  TIP3      16251           0.0000000000
     98586     16652  TIP3      OH2            55.6875574226      -53.7703697882      -22.0640498291  TIP3      16252           0.0000000000
     98587     16652  TIP3      H1             56.1310724940      -54.4866158296      -22.5209944814  TIP3      16252           0.0000000000
     98588     16652  TIP3      H2             56.3793909049      -53.0942529678      -21.9466830124  TIP3      16252           0.0000000000
     98589     16653  TIP3      OH2            38.9667112945      -55.1505326761      -21.7613788231  TIP3      16253           0.0000000000
     98590     16653  TIP3      H1             39.8849931252      -54.9949844721      -21.5889368197  TIP3      16253           0.0000000000
     98591     16653  TIP3      H2             38.5671687641      -55.1956990506      -20.8502227959  TIP3      16253           0.0000000000
     98592     16654  TIP3      OH2            48.0109519504      -38.5528581666      -21.6037292168  TIP3      16254           0.0000000000
     98593     16654  TIP3      H1             48.8901989145      -38.1828936594      -21.8167414180  TIP3      16254           0.0000000000
     98594     16654  TIP3      H2             47.7827175806      -38.9807405787      -22.4535410348  TIP3      16254           0.0000000000
     98595     16655  TIP3      OH2            40.9585989179      -38.8309926871      -23.0170194043  TIP3      16255           0.0000000000
     98596     16655  TIP3      H1             40.6889913297      -38.5484775709      -22.1256755200  TIP3      16255           0.0000000000
     98597     16655  TIP3      H2             41.7402801661      -39.3774960444      -22.8535814921  TIP3      16255           0.0000000000
     98598     16656  TIP3      OH2           -46.0239288974      -29.7758602110      -22.2974319253  TIP3      16256           0.0000000000
     98599     16656  TIP3      H1            -45.3129900125      -29.7730363522      -21.6323750621  TIP3      16256           0.0000000000
     98600     16656  TIP3      H2            -45.6820650296      -30.4117654270      -22.9377209836  TIP3      16256           0.0000000000
     98601     16657  TIP3      OH2           -42.3314059142      -27.7957784714      -23.0346796977  TIP3      16257           0.0000000000
     98602     16657  TIP3      H1            -42.2704653330      -28.0680681064      -23.9755672598  TIP3      16257           0.0000000000
     98603     16657  TIP3      H2            -41.4358872310      -27.4560430830      -22.8599980910  TIP3      16257           0.0000000000
     98604     16658  TIP3      OH2           -55.1901239008      -33.1288833388      -21.0024344452  TIP3      16258           0.0000000000
     98605     16658  TIP3      H1            -54.8246614945      -32.4034551584      -21.4426269112  TIP3      16258           0.0000000000
     98606     16658  TIP3      H2            -55.9372038624      -32.6079202727      -20.5567656977  TIP3      16258           0.0000000000
     98607     16659  TIP3      OH2           -51.2496570223      -30.7652185144      -21.8706435386  TIP3      16259           0.0000000000
     98608     16659  TIP3      H1            -51.7625821841      -31.1143302712      -22.6131880073  TIP3      16259           0.0000000000
     98609     16659  TIP3      H2            -50.4138873660      -30.5305630986      -22.3287715180  TIP3      16259           0.0000000000
     98610     16660  TIP3      OH2           -44.0072847712      -33.3801013529      -21.7757989986  TIP3      16260           0.0000000000
     98611     16660  TIP3      H1            -44.9465509481      -33.2421153567      -21.8873681834  TIP3      16260           0.0000000000
     98612     16660  TIP3      H2            -43.7120383807      -32.5190975877      -21.4605245487  TIP3      16260           0.0000000000
     98613     16661  TIP3      OH2           -48.5540687986      -23.3897699799      -23.6342693688  TIP3      16261           0.0000000000
     98614     16661  TIP3      H1            -48.4132860417      -24.1548718139      -24.2363012586  TIP3      16261           0.0000000000
     98615     16661  TIP3      H2            -48.9223789179      -23.8284381407      -22.8634444701  TIP3      16261           0.0000000000
     98616     16662  TIP3      OH2           -52.6515652463      -23.9648211988      -21.8361235247  TIP3      16262           0.0000000000
     98617     16662  TIP3      H1            -52.0234042993      -23.2966848490      -21.5283932438  TIP3      16262           0.0000000000
     98618     16662  TIP3      H2            -52.1332755173      -24.4244725085      -22.5191711199  TIP3      16262           0.0000000000
     98619     16663  TIP3      OH2           -46.5555369187      -21.5358709127      -23.4984687441  TIP3      16263           0.0000000000
     98620     16663  TIP3      H1            -47.2330807443      -22.1929245129      -23.2601235201  TIP3      16263           0.0000000000
     98621     16663  TIP3      H2            -45.8138018359      -22.0830021016      -23.7889973687  TIP3      16263           0.0000000000
     98622     16664  TIP3      OH2           -41.9887365194      -21.7674385674      -23.3189492628  TIP3      16264           0.0000000000
     98623     16664  TIP3      H1            -41.6816146682      -22.5326281360      -22.8603868505  TIP3      16264           0.0000000000
     98624     16664  TIP3      H2            -41.2445444975      -21.5053654420      -23.8872732183  TIP3      16264           0.0000000000
     98625     16665  TIP3      OH2           -51.0393933643      -25.7958208226      -23.4634677959  TIP3      16265           0.0000000000
     98626     16665  TIP3      H1            -50.9450151480      -26.6008849768      -22.9156414447  TIP3      16265           0.0000000000
     98627     16665  TIP3      H2            -50.3487631568      -25.9489242273      -24.1362184161  TIP3      16265           0.0000000000
     98628     16666  TIP3      OH2           -45.6550830976      -24.7080300857      -23.7386177176  TIP3      16266           0.0000000000
     98629     16666  TIP3      H1            -45.9597727635      -24.6023193784      -22.8426610200  TIP3      16266           0.0000000000
     98630     16666  TIP3      H2            -45.8677099499      -25.6766541801      -23.8761597282  TIP3      16266           0.0000000000
     98631     16667  TIP3      OH2           -49.9013217226      -27.8393713695      -21.1582957164  TIP3      16267           0.0000000000
     98632     16667  TIP3      H1            -50.3304524812      -28.3238919058      -20.4401852730  TIP3      16267           0.0000000000
     98633     16667  TIP3      H2            -49.5979985323      -28.5257018844      -21.7771081438  TIP3      16267           0.0000000000
     98634     16668  TIP3      OH2           -48.8196489261      -29.6542290440      -22.8783316074  TIP3      16268           0.0000000000
     98635     16668  TIP3      H1            -48.9771843702      -29.7304252766      -23.8382390158  TIP3      16268           0.0000000000
     98636     16668  TIP3      H2            -47.8485466925      -29.5012290850      -22.8275082033  TIP3      16268           0.0000000000
     98637     16669  TIP3      OH2           -39.4393012318      -27.2547226218      -23.4362526099  TIP3      16269           0.0000000000
     98638     16669  TIP3      H1            -39.6786025599      -27.6731035740      -24.2681553705  TIP3      16269           0.0000000000
     98639     16669  TIP3      H2            -39.3631129712      -26.3131040726      -23.6531315236  TIP3      16269           0.0000000000
     98640     16670  TIP3      OH2           -55.3532428839      -24.3106325357      -22.3665751935  TIP3      16270           0.0000000000
     98641     16670  TIP3      H1            -54.4058211195      -24.2048022367      -22.1270555128  TIP3      16270           0.0000000000
     98642     16670  TIP3      H2            -55.3165738496      -24.9686310543      -23.0875297980  TIP3      16270           0.0000000000
     98643     16671  TIP3      OH2           -39.9519796486      -31.1836859266      -22.6984267688  TIP3      16271           0.0000000000
     98644     16671  TIP3      H1            -39.8347260864      -30.5262421577      -23.3819352830  TIP3      16271           0.0000000000
     98645     16671  TIP3      H2            -40.0744523454      -32.0182004123      -23.1759194660  TIP3      16271           0.0000000000
     98646     16672  TIP3      OH2           -40.6882180905      -33.7721039046      -23.5807908405  TIP3      16272           0.0000000000
     98647     16672  TIP3      H1            -40.0785562994      -34.1556174877      -22.9334519113  TIP3      16272           0.0000000000
     98648     16672  TIP3      H2            -41.5324150539      -34.2040056255      -23.3838981461  TIP3      16272           0.0000000000
     98649     16673  TIP3      OH2           -54.6444086576      -36.7956294422      -20.8474378177  TIP3      16273           0.0000000000
     98650     16673  TIP3      H1            -54.5216190143      -36.1879693113      -21.5776041266  TIP3      16273           0.0000000000
     98651     16673  TIP3      H2            -55.4732219014      -36.3697400032      -20.5029542784  TIP3      16273           0.0000000000
     98652     16674  TIP3      OH2           -53.1769406882      -34.9147936754      -22.4865807991  TIP3      16274           0.0000000000
     98653     16674  TIP3      H1            -52.6838426059      -35.5664436657      -23.0158802945  TIP3      16274           0.0000000000
     98654     16674  TIP3      H2            -52.5526558995      -34.6490111359      -21.8182000843  TIP3      16274           0.0000000000
     98655     16675  TIP3      OH2           -53.3301987183      -19.9742528418      -23.0244619888  TIP3      16275           0.0000000000
     98656     16675  TIP3      H1            -53.5874652582      -19.6973277054      -22.1306184380  TIP3      16275           0.0000000000
     98657     16675  TIP3      H2            -52.5439086018      -20.5284141210      -22.8518052367  TIP3      16275           0.0000000000
     98658     16676  TIP3      OH2           -27.1735271479      -29.7914740652      -22.3031278933  TIP3      16276           0.0000000000
     98659     16676  TIP3      H1            -26.4619893320      -29.7557322955      -21.6356642290  TIP3      16276           0.0000000000
     98660     16676  TIP3      H2            -26.8182901288      -30.4195045367      -22.9307738715  TIP3      16276           0.0000000000
     98661     16677  TIP3      OH2           -21.2451511362      -37.1341245088      -20.9173051796  TIP3      16277           0.0000000000
     98662     16677  TIP3      H1            -22.1238694761      -37.0147281891      -20.5640429123  TIP3      16277           0.0000000000
     98663     16677  TIP3      H2            -20.9488785052      -36.2912992017      -21.2699320925  TIP3      16277           0.0000000000
     98664     16678  TIP3      OH2           -24.6236893547      -19.9947454161      -21.8333236854  TIP3      16278           0.0000000000
     98665     16678  TIP3      H1            -24.2378896127      -20.7681448502      -22.2961515483  TIP3      16278           0.0000000000
     98666     16678  TIP3      H2            -24.6143024278      -20.2997486796      -20.9041872715  TIP3      16278           0.0000000000
     98667     16679  TIP3      OH2           -23.4617542201      -27.8372938273      -23.0489814967  TIP3      16279           0.0000000000
     98668     16679  TIP3      H1            -23.4128092552      -28.0637140349      -23.9966562387  TIP3      16279           0.0000000000
     98669     16679  TIP3      H2            -22.5928701850      -27.4499150547      -22.8638948079  TIP3      16279           0.0000000000
     98670     16680  TIP3      OH2           -27.9116437909      -33.9510467241      -22.4171650207  TIP3      16280           0.0000000000
     98671     16680  TIP3      H1            -28.1008729649      -33.9424884915      -21.4701842546  TIP3      16280           0.0000000000
     98672     16680  TIP3      H2            -28.1196695429      -34.8547711952      -22.6933685052  TIP3      16280           0.0000000000
     98673     16681  TIP3      OH2           -32.4030608704      -30.6992292572      -21.9147164204  TIP3      16281           0.0000000000
     98674     16681  TIP3      H1            -32.9349375694      -31.1157772110      -22.6079377797  TIP3      16281           0.0000000000
     98675     16681  TIP3      H2            -31.5524964482      -30.5170846830      -22.3386330691  TIP3      16281           0.0000000000
     98676     16682  TIP3      OH2           -23.8352601554      -24.4854573689      -22.1441454587  TIP3      16282           0.0000000000
     98677     16682  TIP3      H1            -23.5245701201      -24.9049589318      -21.3254607728  TIP3      16282           0.0000000000
     98678     16682  TIP3      H2            -24.7896488141      -24.6411025293      -22.0269146932  TIP3      16282           0.0000000000
     98679     16683  TIP3      OH2           -19.3443336227      -20.0581401220      -21.8997303444  TIP3      16283           0.0000000000
     98680     16683  TIP3      H1            -18.6300020977      -19.4436598667      -22.0768432424  TIP3      16283           0.0000000000
     98681     16683  TIP3      H2            -20.0464410877      -19.4687280791      -21.5953684886  TIP3      16283           0.0000000000
     98682     16684  TIP3      OH2           -29.7299518363      -23.3785183994      -23.6761772301  TIP3      16284           0.0000000000
     98683     16684  TIP3      H1            -29.5469438018      -24.1583075043      -24.2256218077  TIP3      16284           0.0000000000
     98684     16684  TIP3      H2            -30.0598075547      -23.8108984001      -22.8639051114  TIP3      16284           0.0000000000
     98685     16685  TIP3      OH2           -30.8608597691      -23.8411344968      -21.1980015967  TIP3      16285           0.0000000000
     98686     16685  TIP3      H1            -30.6629584292      -24.3593164239      -20.4353036738  TIP3      16285           0.0000000000
     98687     16685  TIP3      H2            -30.8198941708      -22.9206710261      -20.9228151296  TIP3      16285           0.0000000000
     98688     16686  TIP3      OH2           -35.4302233931      -31.3027238748      -22.7520671630  TIP3      16286           0.0000000000
     98689     16686  TIP3      H1            -35.4803882546      -30.3734277321      -22.4735368070  TIP3      16286           0.0000000000
     98690     16686  TIP3      H2            -36.3446208005      -31.5418939824      -22.9348421038  TIP3      16286           0.0000000000
     98691     16687  TIP3      OH2           -27.7089779389      -21.5255902846      -23.5382753128  TIP3      16287           0.0000000000
     98692     16687  TIP3      H1            -28.3660340903      -22.1871036658      -23.2355041336  TIP3      16287           0.0000000000
     98693     16687  TIP3      H2            -26.9617345842      -22.0928824577      -23.7681288606  TIP3      16287           0.0000000000
     98694     16688  TIP3      OH2           -23.1314312523      -21.7454084962      -23.3061094052  TIP3      16288           0.0000000000
     98695     16688  TIP3      H1            -22.8421952659      -22.5406972850      -22.8463782457  TIP3      16288           0.0000000000
     98696     16688  TIP3      H2            -22.3810135906      -21.5092442439      -23.8733576708  TIP3      16288           0.0000000000
     98697     16689  TIP3      OH2           -32.1902649303      -25.8157145962      -23.4483943365  TIP3      16289           0.0000000000
     98698     16689  TIP3      H1            -32.0926729214      -26.6224695302      -22.9149525490  TIP3      16289           0.0000000000
     98699     16689  TIP3      H2            -31.4968316418      -25.9456210873      -24.1281543467  TIP3      16289           0.0000000000
     98700     16690  TIP3      OH2           -26.7943834267      -24.7464776136      -23.7134621729  TIP3      16290           0.0000000000
     98701     16690  TIP3      H1            -27.0875423317      -24.6216260264      -22.8108029816  TIP3      16290           0.0000000000
     98702     16690  TIP3      H2            -27.0135553856      -25.7036773969      -23.8388692868  TIP3      16290           0.0000000000
     98703     16691  TIP3      OH2           -31.0298044410      -27.8084643803      -21.1226574856  TIP3      16291           0.0000000000
     98704     16691  TIP3      H1            -31.4800866611      -28.3561423595      -20.4683511400  TIP3      16291           0.0000000000
     98705     16691  TIP3      H2            -30.7635297277      -28.5108667417      -21.7614652909  TIP3      16291           0.0000000000
     98706     16692  TIP3      OH2           -29.9604719466      -29.6283528851      -22.8744529507  TIP3      16292           0.0000000000
     98707     16692  TIP3      H1            -30.1171211081      -29.7168496888      -23.8294659477  TIP3      16292           0.0000000000
     98708     16692  TIP3      H2            -28.9878299003      -29.5062409041      -22.8292325105  TIP3      16292           0.0000000000
     98709     16693  TIP3      OH2           -20.5668262810      -27.2484048595      -23.4390359753  TIP3      16293           0.0000000000
     98710     16693  TIP3      H1            -20.8215021721      -27.6707318016      -24.2589285019  TIP3      16293           0.0000000000
     98711     16693  TIP3      H2            -20.5115734693      -26.3050140998      -23.6539789870  TIP3      16293           0.0000000000
     98712     16694  TIP3      OH2           -30.0562569589      -18.9048790412      -21.8465211334  TIP3      16294           0.0000000000
     98713     16694  TIP3      H1            -29.1028021213      -18.7763123836      -21.7459536581  TIP3      16294           0.0000000000
     98714     16694  TIP3      H2            -30.2996461416      -18.2597910206      -22.5173460233  TIP3      16294           0.0000000000
     98715     16695  TIP3      OH2           -36.5110590513      -24.2726702584      -22.3773827868  TIP3      16295           0.0000000000
     98716     16695  TIP3      H1            -35.5772966702      -24.2193857500      -22.1587696628  TIP3      16295           0.0000000000
     98717     16695  TIP3      H2            -36.4873996661      -24.9761793074      -23.0724926669  TIP3      16295           0.0000000000
     98718     16696  TIP3      OH2           -21.0754950117      -31.1962566816      -22.7129927299  TIP3      16296           0.0000000000
     98719     16696  TIP3      H1            -20.9778573109      -30.5199896591      -23.3816758457  TIP3      16296           0.0000000000
     98720     16696  TIP3      H2            -21.2306725693      -32.0244668309      -23.1803144017  TIP3      16296           0.0000000000
     98721     16697  TIP3      OH2           -21.8360333599      -33.7750312682      -23.5838977602  TIP3      16297           0.0000000000
     98722     16697  TIP3      H1            -21.2202255035      -34.1654415610      -22.9303045393  TIP3      16297           0.0000000000
     98723     16697  TIP3      H2            -22.6792772743      -34.2092372292      -23.3902725593  TIP3      16297           0.0000000000
     98724     16698  TIP3      OH2           -19.7590237057      -34.9064793500      -22.0338086973  TIP3      16298           0.0000000000
     98725     16698  TIP3      H1            -19.3099595875      -35.6221253992      -22.5113157926  TIP3      16298           0.0000000000
     98726     16698  TIP3      H2            -19.0597553528      -34.2411363485      -21.9550838432  TIP3      16298           0.0000000000
     98727     16699  TIP3      OH2           -34.2728381533      -34.8818875077      -22.5239956644  TIP3      16299           0.0000000000
     98728     16699  TIP3      H1            -33.8324916677      -35.5922723868      -23.0031625181  TIP3      16299           0.0000000000
     98729     16699  TIP3      H2            -33.7243699618      -34.6425576398      -21.7864746990  TIP3      16299           0.0000000000
     98730     16700  TIP3      OH2           -27.4203105874      -19.6489423218      -21.6117409131  TIP3      16300           0.0000000000
     98731     16700  TIP3      H1            -26.5218773361      -19.3631774027      -21.8183944874  TIP3      16300           0.0000000000
     98732     16700  TIP3      H2            -27.6418838797      -20.1467466294      -22.4324985999  TIP3      16300           0.0000000000
     98733     16701  TIP3      OH2           -34.4905270116      -20.0056728482      -23.0211020623  TIP3      16301           0.0000000000
     98734     16701  TIP3      H1            -34.7069489145      -19.6802506224      -22.1276077437  TIP3      16301           0.0000000000
     98735     16701  TIP3      H2            -33.6748225157      -20.5152068675      -22.8500214398  TIP3      16301           0.0000000000
     98736     16702  TIP3      OH2            -5.7726729359      -20.0027652735      -21.8273062370  TIP3      16302           0.0000000000
     98737     16702  TIP3      H1             -5.3842277528      -20.7638251893      -22.3032605882  TIP3      16302           0.0000000000
     98738     16702  TIP3      H2             -5.7698470374      -20.2956095388      -20.9036551143  TIP3      16302           0.0000000000
     98739     16703  TIP3      OH2            -4.6055095656      -27.8069993782      -23.0379343582  TIP3      16303           0.0000000000
     98740     16703  TIP3      H1             -4.5605252379      -28.0704673412      -23.9808184522  TIP3      16303           0.0000000000
     98741     16703  TIP3      H2             -3.7338367036      -27.4425322302      -22.8728998245  TIP3      16303           0.0000000000
     98742     16704  TIP3      OH2            -9.0481404051      -33.9687273069      -22.4138472516  TIP3      16304           0.0000000000
     98743     16704  TIP3      H1             -9.2488786312      -33.9404899236      -21.4684704479  TIP3      16304           0.0000000000
     98744     16704  TIP3      H2             -9.2915939327      -34.8609356772      -22.6884958033  TIP3      16304           0.0000000000
     98745     16705  TIP3      OH2           -12.1380166760      -33.5357475817      -23.2925917504  TIP3      16305           0.0000000000
     98746     16705  TIP3      H1            -12.5867903592      -33.9589333765      -22.5385919460  TIP3      16305           0.0000000000
     98747     16705  TIP3      H2            -12.8690055161      -33.1316930543      -23.7856716055  TIP3      16305           0.0000000000
     98748     16706  TIP3      OH2           -16.9297854555      -28.5159519048      -22.2146961204  TIP3      16306           0.0000000000
     98749     16706  TIP3      H1            -16.3346659124      -27.8628521515      -21.7957811808  TIP3      16306           0.0000000000
     98750     16706  TIP3      H2            -17.7938339677      -28.1855222918      -21.9100463216  TIP3      16306           0.0000000000
     98751     16707  TIP3      OH2            -4.9749912481      -24.4850172948      -22.1320011711  TIP3      16307           0.0000000000
     98752     16707  TIP3      H1             -4.6481423222      -24.9003398030      -21.3176691294  TIP3      16307           0.0000000000
     98753     16707  TIP3      H2             -5.9257149048      -24.6236961864      -22.0461457993  TIP3      16307           0.0000000000
     98754     16708  TIP3      OH2            -0.5038778335      -20.0318653940      -22.0123031578  TIP3      16308           0.0000000000
     98755     16708  TIP3      H1              0.2530037112      -19.4305048015      -22.0626014217  TIP3      16308           0.0000000000
     98756     16708  TIP3      H2             -1.1921942636      -19.4570867440      -21.5972894102  TIP3      16308           0.0000000000
     98757     16709  TIP3      OH2           -10.8562280016      -23.3949365553      -23.6336240544  TIP3      16309           0.0000000000
     98758     16709  TIP3      H1            -10.7022867243      -24.1486685196      -24.2289279807  TIP3      16309           0.0000000000
     98759     16709  TIP3      H2            -11.2189010808      -23.8186244017      -22.8576236225  TIP3      16309           0.0000000000
     98760     16710  TIP3      OH2           -15.4823582750      -26.5961362140      -20.7020252573  TIP3      16310           0.0000000000
     98761     16710  TIP3      H1            -16.2178875234      -26.2526112858      -20.1547000273  TIP3      16310           0.0000000000
     98762     16710  TIP3      H2            -15.0153750088      -25.7930081873      -20.9712747665  TIP3      16310           0.0000000000
     98763     16711  TIP3      OH2           -13.1598171821      -34.5070128637      -20.9330798112  TIP3      16311           0.0000000000
     98764     16711  TIP3      H1            -13.3004881902      -33.6285596687      -20.5291943039  TIP3      16311           0.0000000000
     98765     16711  TIP3      H2            -12.2690588963      -34.6726251245      -20.6298630581  TIP3      16311           0.0000000000
     98766     16712  TIP3      OH2           -14.9283154790      -23.9707899066      -21.8130169005  TIP3      16312           0.0000000000
     98767     16712  TIP3      H1            -14.2991000489      -23.3000908944      -21.5194760395  TIP3      16312           0.0000000000
     98768     16712  TIP3      H2            -14.4463258692      -24.4261552233      -22.5251169572  TIP3      16312           0.0000000000
     98769     16713  TIP3      OH2           -16.5681871864      -31.2968569425      -22.7608562029  TIP3      16313           0.0000000000
     98770     16713  TIP3      H1            -16.6357658647      -30.3665938389      -22.4793062896  TIP3      16313           0.0000000000
     98771     16713  TIP3      H2            -17.4828727654      -31.5316490560      -22.9224083430  TIP3      16313           0.0000000000
     98772     16714  TIP3      OH2            -8.8396238068      -21.5264242593      -23.5402392360  TIP3      16314           0.0000000000
     98773     16714  TIP3      H1             -9.5248584037      -22.1677403371      -23.2512125810  TIP3      16314           0.0000000000
     98774     16714  TIP3      H2             -8.1017791591      -22.0901609873      -23.7826984205  TIP3      16314           0.0000000000
     98775     16715  TIP3      OH2            -4.2650392596      -21.7512089320      -23.2972160811  TIP3      16315           0.0000000000
     98776     16715  TIP3      H1             -3.9874264160      -22.5438828399      -22.8406640668  TIP3      16315           0.0000000000
     98777     16715  TIP3      H2             -3.5284513809      -21.5051579737      -23.8793342151  TIP3      16315           0.0000000000
     98778     16716  TIP3      OH2           -13.3105578578      -25.8067723610      -23.4112323643  TIP3      16316           0.0000000000
     98779     16716  TIP3      H1            -13.2564828862      -26.6341399154      -22.9291993408  TIP3      16316           0.0000000000
     98780     16716  TIP3      H2            -12.6535970734      -25.9354084558      -24.1317077786  TIP3      16316           0.0000000000
     98781     16717  TIP3      OH2            -7.9300024978      -24.7592383607      -23.7009179016  TIP3      16317           0.0000000000
     98782     16717  TIP3      H1             -8.2423308765      -24.6096054649      -22.8240297364  TIP3      16317           0.0000000000
     98783     16717  TIP3      H2             -8.1565378523      -25.7096816857      -23.8590417640  TIP3      16317           0.0000000000
     98784     16718  TIP3      OH2           -11.0714235397      -29.5689638199      -22.8882539264  TIP3      16318           0.0000000000
     98785     16718  TIP3      H1            -11.2540775935      -29.7484513547      -23.8297274530  TIP3      16318           0.0000000000
     98786     16718  TIP3      H2            -10.1192337435      -29.5191499682      -22.8562263758  TIP3      16318           0.0000000000
     98787     16719  TIP3      OH2            -1.7290188958      -27.2476705197      -23.4289364614  TIP3      16319           0.0000000000
     98788     16719  TIP3      H1             -1.9661048118      -27.6734573911      -24.2675805843  TIP3      16319           0.0000000000
     98789     16719  TIP3      H2             -1.6593673103      -26.3100761203      -23.6654362202  TIP3      16319           0.0000000000
     98790     16720  TIP3      OH2           -11.2271761050      -18.9060653942      -21.8500490362  TIP3      16320           0.0000000000
     98791     16720  TIP3      H1            -10.2657352859      -18.7815306518      -21.7134295009  TIP3      16320           0.0000000000
     98792     16720  TIP3      H2            -11.4175013611      -18.2472750384      -22.5195735515  TIP3      16320           0.0000000000
     98793     16721  TIP3      OH2            -0.5700342180      -28.4281016137      -21.2341630709  TIP3      16321           0.0000000000
     98794     16721  TIP3      H1             -1.1048891787      -28.0816153077      -21.9690088583  TIP3      16321           0.0000000000
     98795     16721  TIP3      H2             -0.6124052770      -27.7560765140      -20.5683569346  TIP3      16321           0.0000000000
     98796     16722  TIP3      OH2            -2.2023682564      -31.1876834460      -22.6960565407  TIP3      16322           0.0000000000
     98797     16722  TIP3      H1             -2.1313678683      -30.5258305262      -23.3825848540  TIP3      16322           0.0000000000
     98798     16722  TIP3      H2             -2.3730608501      -32.0132049113      -23.1719408729  TIP3      16322           0.0000000000
     98799     16723  TIP3      OH2            -2.9670714050      -33.7768439927      -23.5791009521  TIP3      16323           0.0000000000
     98800     16723  TIP3      H1             -2.3759167211      -34.1543448930      -22.9172794013  TIP3      16323           0.0000000000
     98801     16723  TIP3      H2             -3.8214598388      -34.1913269095      -23.3863268778  TIP3      16323           0.0000000000
     98802     16724  TIP3      OH2           -15.4608903268      -34.9109092795      -22.5047378851  TIP3      16324           0.0000000000
     98803     16724  TIP3      H1            -14.9605542763      -35.5612203923      -23.0129129561  TIP3      16324           0.0000000000
     98804     16724  TIP3      H2            -14.8360738356      -34.6415437551      -21.8048173295  TIP3      16324           0.0000000000
     98805     16725  TIP3      OH2            -8.5447065525      -19.6601493521      -21.6161596914  TIP3      16325           0.0000000000
     98806     16725  TIP3      H1             -7.6641026824      -19.3470168507      -21.8220488594  TIP3      16325           0.0000000000
     98807     16725  TIP3      H2             -8.7922266640      -20.1475058932      -22.4266636540  TIP3      16325           0.0000000000
     98808     16726  TIP3      OH2            17.6776471114      -22.7500029852      -22.5356038993  TIP3      16326           0.0000000000
     98809     16726  TIP3      H1             17.7209372315      -21.8229412255      -22.3162819603  TIP3      16326           0.0000000000
     98810     16726  TIP3      H2             18.5846063034      -23.0806354157      -22.5414339576  TIP3      16326           0.0000000000
     98811     16727  TIP3      OH2            14.2573079505      -27.8263829790      -23.0289029186  TIP3      16327           0.0000000000
     98812     16727  TIP3      H1             14.2979350409      -28.0589777650      -23.9810273517  TIP3      16327           0.0000000000
     98813     16727  TIP3      H2             15.1261846438      -27.4297156150      -22.8640786307  TIP3      16327           0.0000000000
     98814     16728  TIP3      OH2             9.8384481680      -33.9543786004      -22.3941696527  TIP3      16328           0.0000000000
     98815     16728  TIP3      H1              9.5803141604      -33.9395516542      -21.4727030506  TIP3      16328           0.0000000000
     98816     16728  TIP3      H2              9.5663166201      -34.8445516590      -22.6936295035  TIP3      16328           0.0000000000
     98817     16729  TIP3      OH2             6.7202678859      -33.5314988792      -23.2774559781  TIP3      16329           0.0000000000
     98818     16729  TIP3      H1              6.2610720692      -33.9647196327      -22.5342726363  TIP3      16329           0.0000000000
     98819     16729  TIP3      H2              5.9901546215      -33.1344167159      -23.7787074990  TIP3      16329           0.0000000000
     98820     16730  TIP3      OH2            12.5562438689      -33.3762006036      -21.7956835763  TIP3      16330           0.0000000000
     98821     16730  TIP3      H1             11.6060745403      -33.2568900626      -21.9130348958  TIP3      16330           0.0000000000
     98822     16730  TIP3      H2             12.8658550872      -32.5215169287      -21.4189847561  TIP3      16330           0.0000000000
     98823     16731  TIP3      OH2            13.2735813202      -31.4862469952      -20.1577335494  TIP3      16331           0.0000000000
     98824     16731  TIP3      H1             14.1499633313      -31.6208478778      -19.7784258116  TIP3      16331           0.0000000000
     98825     16731  TIP3      H2             13.3613319542      -30.6691976421      -20.6350368313  TIP3      16331           0.0000000000
     98826     16732  TIP3      OH2            13.8697167396      -24.5117430100      -22.1392725962  TIP3      16332           0.0000000000
     98827     16732  TIP3      H1             14.2210362584      -24.8909562988      -21.3199251657  TIP3      16332           0.0000000000
     98828     16732  TIP3      H2             12.9255053471      -24.6378986656      -22.0384274641  TIP3      16332           0.0000000000
     98829     16733  TIP3      OH2             3.3616419313      -26.5802139910      -20.6524248094  TIP3      16333           0.0000000000
     98830     16733  TIP3      H1              2.6368244280      -26.2336767733      -20.1465751885  TIP3      16333           0.0000000000
     98831     16733  TIP3      H2              3.8426178604      -25.8161349270      -20.9845559392  TIP3      16333           0.0000000000
     98832     16734  TIP3      OH2             5.6884837207      -34.4018291612      -20.8753366048  TIP3      16334           0.0000000000
     98833     16734  TIP3      H1              5.6057853262      -33.5048187298      -20.5142163379  TIP3      16334           0.0000000000
     98834     16734  TIP3      H2              6.5808479037      -34.6823215899      -20.6419287142  TIP3      16334           0.0000000000
     98835     16735  TIP3      OH2             3.8235843883      -23.9819254612      -21.8935039282  TIP3      16335           0.0000000000
     98836     16735  TIP3      H1              4.4535337456      -23.3092893515      -21.5482437298  TIP3      16335           0.0000000000
     98837     16735  TIP3      H2              4.3848657722      -24.4454766049      -22.5462613733  TIP3      16335           0.0000000000
     98838     16736  TIP3      OH2             9.9972731042      -21.5461615902      -23.5137072613  TIP3      16336           0.0000000000
     98839     16736  TIP3      H1              9.3552510940      -22.1878693069      -23.2377742868  TIP3      16336           0.0000000000
     98840     16736  TIP3      H2             10.7608896721      -22.0804690290      -23.7849997095  TIP3      16336           0.0000000000
     98841     16737  TIP3      OH2            14.5721221831      -21.7515754330      -23.3383339570  TIP3      16337           0.0000000000
     98842     16737  TIP3      H1             14.8856188009      -22.5191464920      -22.8334844489  TIP3      16337           0.0000000000
     98843     16737  TIP3      H2             15.3403441478      -21.5154179358      -23.8694688108  TIP3      16337           0.0000000000
     98844     16738  TIP3      OH2             5.5535878407      -25.7702178413      -23.4329025008  TIP3      16338           0.0000000000
     98845     16738  TIP3      H1              5.6002165952      -26.6129975676      -22.9329166656  TIP3      16338           0.0000000000
     98846     16738  TIP3      H2              6.2101911674      -25.9612023360      -24.1362724052  TIP3      16338           0.0000000000
     98847     16739  TIP3      OH2            10.9072139605      -24.7400139127      -23.7040400818  TIP3      16339           0.0000000000
     98848     16739  TIP3      H1             10.6269614424      -24.6255999743      -22.8107463838  TIP3      16339           0.0000000000
     98849     16739  TIP3      H2             10.7005072025      -25.6986722696      -23.8569821791  TIP3      16339           0.0000000000
     98850     16740  TIP3      OH2             6.6769250321      -27.8195773951      -21.1328812993  TIP3      16340           0.0000000000
     98851     16740  TIP3      H1              6.2257902153      -28.3533476687      -20.4758824112  TIP3      16340           0.0000000000
     98852     16740  TIP3      H2              6.9508311555      -28.5178667330      -21.7747554803  TIP3      16340           0.0000000000
     98853     16741  TIP3      OH2             7.7524969133      -29.6201780741      -22.8800269954  TIP3      16341           0.0000000000
     98854     16741  TIP3      H1              7.5720010507      -29.7447616017      -23.8257451842  TIP3      16341           0.0000000000
     98855     16741  TIP3      H2              8.7111014581      -29.5164466509      -22.8392395169  TIP3      16341           0.0000000000
     98856     16742  TIP3      OH2            17.1470081557      -27.2637798069      -23.4228089038  TIP3      16342           0.0000000000
     98857     16742  TIP3      H1             16.8940360828      -27.6679873471      -24.2585078558  TIP3      16342           0.0000000000
     98858     16742  TIP3      H2             17.1945653063      -26.3120584243      -23.6372424792  TIP3      16342           0.0000000000
     98859     16743  TIP3      OH2             7.6703468209      -18.9662033188      -21.8902013018  TIP3      16343           0.0000000000
     98860     16743  TIP3      H1              8.5806786773      -18.7295544600      -21.7312596027  TIP3      16343           0.0000000000
     98861     16743  TIP3      H2              7.4178730595      -18.2393991505      -22.4883064736  TIP3      16343           0.0000000000
     98862     16744  TIP3      OH2            16.6128019345      -31.1857377824      -22.7116383088  TIP3      16344           0.0000000000
     98863     16744  TIP3      H1             16.7347346052      -30.5217606108      -23.3856572864  TIP3      16344           0.0000000000
     98864     16744  TIP3      H2             16.4853142755      -32.0236633813      -23.1782797458  TIP3      16344           0.0000000000
     98865     16745  TIP3      OH2            15.8831003213      -33.7716806918      -23.5852531085  TIP3      16345           0.0000000000
     98866     16745  TIP3      H1             16.4870727832      -34.1660740860      -22.9273759263  TIP3      16345           0.0000000000
     98867     16745  TIP3      H2             15.0331854202      -34.1980648649      -23.3793977643  TIP3      16345           0.0000000000
     98868     16746  TIP3      OH2            17.9862050446      -34.8960415240      -21.9995983329  TIP3      16346           0.0000000000
     98869     16746  TIP3      H1             18.3795713232      -35.6244532588      -22.5170670397  TIP3      16346           0.0000000000
     98870     16746  TIP3      H2             18.6613758590      -34.2186734886      -21.9847707950  TIP3      16346           0.0000000000
     98871     16747  TIP3      OH2             3.3916977887      -34.9155433361      -22.4900391016  TIP3      16347           0.0000000000
     98872     16747  TIP3      H1              3.8944019163      -35.5612864387      -23.0070121260  TIP3      16347           0.0000000000
     98873     16747  TIP3      H2              4.0329485921      -34.6373375706      -21.8095069171  TIP3      16347           0.0000000000
     98874     16748  TIP3      OH2             3.2394071139      -19.9919557992      -23.0207518019  TIP3      16348           0.0000000000
     98875     16748  TIP3      H1              2.9980573400      -19.6992974780      -22.1307221311  TIP3      16348           0.0000000000
     98876     16748  TIP3      H2              4.0322841033      -20.5237217268      -22.8496953779  TIP3      16348           0.0000000000
     98877     16749  TIP3      OH2            29.4184644398      -29.7854643335      -22.3210057016  TIP3      16349           0.0000000000
     98878     16749  TIP3      H1             30.1070514266      -29.7468274248      -21.6327350000  TIP3      16349           0.0000000000
     98879     16749  TIP3      H2             29.7404811988      -30.4302451284      -22.9338679932  TIP3      16349           0.0000000000
     98880     16750  TIP3      OH2            31.6859507373      -28.8997847658      -20.7206498372  TIP3      16350           0.0000000000
     98881     16750  TIP3      H1             32.2231978317      -28.7255113312      -19.9473078187  TIP3      16350           0.0000000000
     98882     16750  TIP3      H2             32.0710887184      -28.3905421069      -21.4410446500  TIP3      16350           0.0000000000
     98883     16751  TIP3      OH2            36.5197259747      -22.7835547227      -22.4959001835  TIP3      16351           0.0000000000
     98884     16751  TIP3      H1             36.6063391016      -21.8211598603      -22.3109961075  TIP3      16351           0.0000000000
     98885     16751  TIP3      H2             37.4275393720      -23.0360571993      -22.5525622754  TIP3      16351           0.0000000000
     98886     16752  TIP3      OH2            33.1178744456      -27.8302058273      -23.0161753580  TIP3      16352           0.0000000000
     98887     16752  TIP3      H1             33.1325192014      -28.0534349480      -23.9782911324  TIP3      16352           0.0000000000
     98888     16752  TIP3      H2             33.9826999871      -27.4356172236      -22.8783949067  TIP3      16352           0.0000000000
     98889     16753  TIP3      OH2            28.7100603981      -33.9771255633      -22.4020932269  TIP3      16353           0.0000000000
     98890     16753  TIP3      H1             28.4356737368      -33.9567035507      -21.4805450523  TIP3      16353           0.0000000000
     98891     16753  TIP3      H2             28.4102310863      -34.8501422780      -22.6945759929  TIP3      16353           0.0000000000
     98892     16754  TIP3      OH2            25.5592636275      -33.5487260634      -23.2920765479  TIP3      16354           0.0000000000
     98893     16754  TIP3      H1             25.1280763357      -33.9540856954      -22.5327985397  TIP3      16354           0.0000000000
     98894     16754  TIP3      H2             24.8497377950      -33.1227399752      -23.7911294912  TIP3      16354           0.0000000000
     98895     16755  TIP3      OH2            24.1828872951      -30.7753899934      -21.8916805031  TIP3      16355           0.0000000000
     98896     16755  TIP3      H1             23.6563592986      -31.1241763338      -22.6121251335  TIP3      16355           0.0000000000
     98897     16755  TIP3      H2             25.0125453698      -30.5350585381      -22.3214032720  TIP3      16355           0.0000000000
     98898     16756  TIP3      OH2            37.1265799110      -31.2711014091      -20.4368130835  TIP3      16356           0.0000000000
     98899     16756  TIP3      H1             36.4805311412      -31.6741637581      -21.0650142827  TIP3      16356           0.0000000000
     98900     16756  TIP3      H2             37.1264357208      -30.3415513737      -20.6991529528  TIP3      16356           0.0000000000
     98901     16757  TIP3      OH2            32.7347551035      -24.4936783561      -22.1183188147  TIP3      16357           0.0000000000
     98902     16757  TIP3      H1             33.0699946449      -24.9137554138      -21.3230387437  TIP3      16357           0.0000000000
     98903     16757  TIP3      H2             31.7851395204      -24.6401167581      -22.0697034078  TIP3      16357           0.0000000000
     98904     16758  TIP3      OH2            37.2065469944      -20.0697893429      -21.9407169080  TIP3      16358           0.0000000000
     98905     16758  TIP3      H1             37.9439776503      -19.4576771362      -22.0626246513  TIP3      16358           0.0000000000
     98906     16758  TIP3      H2             36.5254399383      -19.4908906732      -21.5822330903  TIP3      16358           0.0000000000
     98907     16759  TIP3      OH2            26.8545896382      -23.3800321672      -23.6767506216  TIP3      16359           0.0000000000
     98908     16759  TIP3      H1             27.0152987940      -24.1690453669      -24.2230603650  TIP3      16359           0.0000000000
     98909     16759  TIP3      H2             26.5038849202      -23.8048980678      -22.8584756946  TIP3      16359           0.0000000000
     98910     16760  TIP3      OH2            25.7574275774      -23.8495951559      -21.2189737122  TIP3      16360           0.0000000000
     98911     16760  TIP3      H1             25.8907050632      -24.3540636970      -20.4084818584  TIP3      16360           0.0000000000
     98912     16760  TIP3      H2             25.7335535539      -22.9375003229      -20.8785350765  TIP3      16360           0.0000000000
     98913     16761  TIP3      OH2            22.7640076129      -23.9560438300      -21.8338803236  TIP3      16361           0.0000000000
     98914     16761  TIP3      H1             23.4179916964      -23.2986346783      -21.5337505279  TIP3      16361           0.0000000000
     98915     16761  TIP3      H2             23.2881193408      -24.4296836409      -22.5183768093  TIP3      16361           0.0000000000
     98916     16762  TIP3      OH2            28.8578325490      -21.5307065515      -23.5265888497  TIP3      16362           0.0000000000
     98917     16762  TIP3      H1             28.1954270222      -22.1860261585      -23.2313777533  TIP3      16362           0.0000000000
     98918     16762  TIP3      H2             29.6064257951      -22.0839099254      -23.7838917874  TIP3      16362           0.0000000000
     98919     16763  TIP3      OH2            33.4315196123      -21.7513057915      -23.3173427995  TIP3      16363           0.0000000000
     98920     16763  TIP3      H1             33.7422124785      -22.5247328943      -22.8436378818  TIP3      16363           0.0000000000
     98921     16763  TIP3      H2             34.1878344819      -21.5067013763      -23.8677288945  TIP3      16363           0.0000000000
     98922     16764  TIP3      OH2            24.3728036062      -25.8008939741      -23.4534057548  TIP3      16364           0.0000000000
     98923     16764  TIP3      H1             24.4761707892      -26.6092252557      -22.9214619786  TIP3      16364           0.0000000000
     98924     16764  TIP3      H2             25.0713092816      -25.9448612415      -24.1269891731  TIP3      16364           0.0000000000
     98925     16765  TIP3      OH2            29.7893302937      -24.7563091803      -23.6946517331  TIP3      16365           0.0000000000
     98926     16765  TIP3      H1             29.4511934956      -24.6161742211      -22.8194711453  TIP3      16365           0.0000000000
     98927     16765  TIP3      H2             29.5481853874      -25.7037116371      -23.8536496546  TIP3      16365           0.0000000000
     98928     16766  TIP3      OH2            36.0075839654      -27.2536043936      -23.4221536684  TIP3      16366           0.0000000000
     98929     16766  TIP3      H1             35.7472707866      -27.6657014257      -24.2625294817  TIP3      16366           0.0000000000
     98930     16766  TIP3      H2             36.0394853218      -26.3051642566      -23.6641873391  TIP3      16366           0.0000000000
     98931     16767  TIP3      OH2            26.5130396352      -18.9315406484      -21.8926971022  TIP3      16367           0.0000000000
     98932     16767  TIP3      H1             27.4549190891      -18.7814139970      -21.6920954803  TIP3      16367           0.0000000000
     98933     16767  TIP3      H2             26.3035587267      -18.2300441687      -22.4309550809  TIP3      16367           0.0000000000
     98934     16768  TIP3      OH2            20.0522818364      -24.2449875766      -22.4098999693  TIP3      16368           0.0000000000
     98935     16768  TIP3      H1             20.9973613323      -24.2291885187      -22.1318636511  TIP3      16368           0.0000000000
     98936     16768  TIP3      H2             20.0841622215      -24.9831254914      -23.0638018995  TIP3      16368           0.0000000000
     98937     16769  TIP3      OH2            37.1469878179      -28.4277663063      -21.2360974020  TIP3      16369           0.0000000000
     98938     16769  TIP3      H1             36.6041207297      -28.0683074292      -21.9714300100  TIP3      16369           0.0000000000
     98939     16769  TIP3      H2             37.0724658641      -27.7553320249      -20.5581372343  TIP3      16369           0.0000000000
     98940     16770  TIP3      OH2            35.4921375702      -31.1688081481      -22.7286241361  TIP3      16370           0.0000000000
     98941     16770  TIP3      H1             35.5880266988      -30.5136850921      -23.4113063197  TIP3      16370           0.0000000000
     98942     16770  TIP3      H2             35.3541424600      -32.0177120854      -23.1715304398  TIP3      16370           0.0000000000
     98943     16771  TIP3      OH2            20.3814969766      -36.8508720422      -20.9343091270  TIP3      16371           0.0000000000
     98944     16771  TIP3      H1             20.8469179188      -36.2351940863      -21.5165307010  TIP3      16371           0.0000000000
     98945     16771  TIP3      H2             19.7604478918      -36.2971063267      -20.4715418860  TIP3      16371           0.0000000000
     98946     16772  TIP3      OH2            22.2409464966      -34.9155609383      -22.4876651109  TIP3      16372           0.0000000000
     98947     16772  TIP3      H1             22.7472118995      -35.5744841587      -23.0037584868  TIP3      16372           0.0000000000
     98948     16772  TIP3      H2             22.8847212314      -34.6482272797      -21.8198682774  TIP3      16372           0.0000000000
     98949     16773  TIP3      OH2            22.1315944426      -19.9370519245      -23.0355622338  TIP3      16373           0.0000000000
     98950     16773  TIP3      H1             21.8672420544      -19.7046851463      -22.1326767962  TIP3      16373           0.0000000000
     98951     16773  TIP3      H2             22.8841546655      -20.5424896303      -22.8561543362  TIP3      16373           0.0000000000
     98952     16774  TIP3      OH2            50.7908796221      -20.0096010593      -21.8249519999  TIP3      16374           0.0000000000
     98953     16774  TIP3      H1             51.1883365389      -20.7631308733      -22.3080398125  TIP3      16374           0.0000000000
     98954     16774  TIP3      H2             50.8262076148      -20.2949541104      -20.9078933988  TIP3      16374           0.0000000000
     98955     16775  TIP3      OH2            51.9754672118      -27.8303533498      -23.0343714664  TIP3      16375           0.0000000000
     98956     16775  TIP3      H1             52.0203343559      -28.0650687900      -23.9837512436  TIP3      16375           0.0000000000
     98957     16775  TIP3      H2             52.8386756142      -27.4375975913      -22.8737291353  TIP3      16375           0.0000000000
     98958     16776  TIP3      OH2            44.4269304094      -33.5499975741      -23.3010994552  TIP3      16376           0.0000000000
     98959     16776  TIP3      H1             43.9804191675      -33.9448267374      -22.5221814546  TIP3      16376           0.0000000000
     98960     16776  TIP3      H2             43.7004830285      -33.1278705089      -23.7788695939  TIP3      16376           0.0000000000
     98961     16777  TIP3      OH2            38.9822904790      -33.0557610587      -20.8332944768  TIP3      16377           0.0000000000
     98962     16777  TIP3      H1             39.4343333129      -32.4279025408      -21.3997482755  TIP3      16377           0.0000000000
     98963     16777  TIP3      H2             38.2290478321      -32.5203823907      -20.4687835711  TIP3      16377           0.0000000000
     98964     16778  TIP3      OH2            50.9838963847      -31.4870703201      -20.1451394362  TIP3      16378           0.0000000000
     98965     16778  TIP3      H1             51.8746590719      -31.6375334090      -19.7778548658  TIP3      16378           0.0000000000
     98966     16778  TIP3      H2             51.0836696902      -30.6982802443      -20.6583305360  TIP3      16378           0.0000000000
     98967     16779  TIP3      OH2            39.6386023857      -28.4875531692      -22.2269008344  TIP3      16379           0.0000000000
     98968     16779  TIP3      H1             40.2557394446      -27.8900153585      -21.7978248754  TIP3      16379           0.0000000000
     98969     16779  TIP3      H2             38.7599871811      -28.2046268512      -21.9198257838  TIP3      16379           0.0000000000
     98970     16780  TIP3      OH2            51.5809198975      -24.5191450168      -22.1303070987  TIP3      16380           0.0000000000
     98971     16780  TIP3      H1             51.9303553702      -24.9039410999      -21.3131378906  TIP3      16380           0.0000000000
     98972     16780  TIP3      H2             50.6301878766      -24.6083731184      -22.0465622208  TIP3      16380           0.0000000000
     98973     16781  TIP3      OH2            45.7185272123      -23.3905483496      -23.6611635198  TIP3      16381           0.0000000000
     98974     16781  TIP3      H1             45.8663784567      -24.1613085301      -24.2314437573  TIP3      16381           0.0000000000
     98975     16781  TIP3      H2             45.3518862578      -23.8080219131      -22.8558292636  TIP3      16381           0.0000000000
     98976     16782  TIP3      OH2            44.6131130310      -23.8459331552      -21.2280990223  TIP3      16382           0.0000000000
     98977     16782  TIP3      H1             44.7431194039      -24.3440583400      -20.4132210303  TIP3      16382           0.0000000000
     98978     16782  TIP3      H2             44.5952883029      -22.9380483076      -20.8904459940  TIP3      16382           0.0000000000
     98979     16783  TIP3      OH2            43.3903568964      -34.4202764928      -20.8812236288  TIP3      16383           0.0000000000
     98980     16783  TIP3      H1             43.3368736140      -33.5034341570      -20.5139849746  TIP3      16383           0.0000000000
     98981     16783  TIP3      H2             44.3012564540      -34.6406358654      -20.6252991907  TIP3      16383           0.0000000000
     98982     16784  TIP3      OH2            39.9720494446      -31.3076857668      -22.7026000803  TIP3      16384           0.0000000000
     98983     16784  TIP3      H1             39.9493832446      -30.3540767227      -22.5036850358  TIP3      16384           0.0000000000
     98984     16784  TIP3      H2             39.0821944026      -31.5328106259      -22.9679072424  TIP3      16384           0.0000000000
     98985     16785  TIP3      OH2            47.7197565103      -21.5347398000      -23.5302542921  TIP3      16385           0.0000000000
     98986     16785  TIP3      H1             47.0501113590      -22.1854277514      -23.2464594242  TIP3      16385           0.0000000000
     98987     16785  TIP3      H2             48.4656217714      -22.0880246862      -23.7778145524  TIP3      16385           0.0000000000
     98988     16786  TIP3      OH2            52.2759745140      -21.7571464386      -23.3139395912  TIP3      16386           0.0000000000
     98989     16786  TIP3      H1             52.5920069884      -22.5344468917      -22.8468882491  TIP3      16386           0.0000000000
     98990     16786  TIP3      H2             53.0345793085      -21.5073362450      -23.8750671160  TIP3      16386           0.0000000000
     98991     16787  TIP3      OH2            43.2315954132      -25.8071193426      -23.4525135962  TIP3      16387           0.0000000000
     98992     16787  TIP3      H1             43.3226035456      -26.6163025506      -22.9357396351  TIP3      16387           0.0000000000
     98993     16787  TIP3      H2             43.9204397882      -25.9483470711      -24.1306305952  TIP3      16387           0.0000000000
     98994     16788  TIP3      OH2            48.6560344844      -24.7672325166      -23.6927227101  TIP3      16388           0.0000000000
     98995     16788  TIP3      H1             48.3088819307      -24.5879518128      -22.8327898166  TIP3      16388           0.0000000000
     98996     16788  TIP3      H2             48.3993266270      -25.7018472074      -23.8739172200  TIP3      16388           0.0000000000
     98997     16789  TIP3      OH2            45.4939422149      -29.5640661836      -22.8837082339  TIP3      16389           0.0000000000
     98998     16789  TIP3      H1             45.2918841732      -29.7499196631      -23.8206123192  TIP3      16389           0.0000000000
     98999     16789  TIP3      H2             46.4372516135      -29.5261409274      -22.8519105467  TIP3      16389           0.0000000000
     99000     16790  TIP3      OH2            54.8886468594      -27.2602545566      -23.4363494897  TIP3      16390           0.0000000000
     99001     16790  TIP3      H1             54.5812988823      -27.6598091262      -24.2648310031  TIP3      16390           0.0000000000
     99002     16790  TIP3      H2             54.8893939445      -26.3061261450      -23.6551669092  TIP3      16390           0.0000000000
     99003     16791  TIP3      OH2            55.5540476488      -28.4092890552      -21.1059488809  TIP3      16391           0.0000000000
     99004     16791  TIP3      H1             55.4018336944      -28.0244295470      -21.9954279367  TIP3      16391           0.0000000000
     99005     16791  TIP3      H2             55.9133572262      -27.7063434197      -20.5455067984  TIP3      16391           0.0000000000
     99006     16792  TIP3      OH2            54.3534041730      -31.1708195311      -22.7013761888  TIP3      16392           0.0000000000
     99007     16792  TIP3      H1             54.4276065542      -30.5294093474      -23.3988260723  TIP3      16392           0.0000000000
     99008     16792  TIP3      H2             54.1833265235      -32.0078586414      -23.1719039798  TIP3      16392           0.0000000000
     99009     16793  TIP3      OH2            53.5967024194      -33.7793049547      -23.5783240929  TIP3      16393           0.0000000000
     99010     16793  TIP3      H1             54.1842642917      -34.1599412758      -22.9264977535  TIP3      16393           0.0000000000
     99011     16793  TIP3      H2             52.7389051168      -34.1917280207      -23.3847028659  TIP3      16393           0.0000000000
     99012     16794  TIP3      OH2            39.2797649482      -36.8551624443      -20.9237751452  TIP3      16394           0.0000000000
     99013     16794  TIP3      H1             39.6925957078      -36.2108555600      -21.5126289929  TIP3      16394           0.0000000000
     99014     16794  TIP3      H2             38.6081237743      -36.3104081532      -20.4660422891  TIP3      16394           0.0000000000
     99015     16795  TIP3      OH2            41.1117393280      -34.9304134346      -22.4974063253  TIP3      16395           0.0000000000
     99016     16795  TIP3      H1             41.6260827079      -35.5668280660      -23.0037999827  TIP3      16395           0.0000000000
     99017     16795  TIP3      H2             41.7464786312      -34.6307253346      -21.8117095591  TIP3      16395           0.0000000000
     99018     16796  TIP3      OH2            40.9527162119      -19.9809545051      -23.0059223855  TIP3      16396           0.0000000000
     99019     16796  TIP3      H1             40.7109491364      -19.7051937935      -22.1230426428  TIP3      16396           0.0000000000
     99020     16796  TIP3      H2             41.7519424796      -20.5309562902      -22.8640994317  TIP3      16396           0.0000000000
     99021     16797  TIP3      OH2           -46.0174071524      -10.9121725694      -22.3334853075  TIP3      16397           0.0000000000
     99022     16797  TIP3      H1            -45.3721152805      -10.8925353199      -21.6345714914  TIP3      16397           0.0000000000
     99023     16797  TIP3      H2            -45.7015030159      -11.5795560727      -22.9510593346  TIP3      16397           0.0000000000
     99024     16798  TIP3      OH2           -38.9199541160       -3.8991031014      -22.5294618889  TIP3      16398           0.0000000000
     99025     16798  TIP3      H1            -38.7875690364       -2.9563962728      -22.3121692049  TIP3      16398           0.0000000000
     99026     16798  TIP3      H2            -37.9907875116       -4.2030232543      -22.5286250973  TIP3      16398           0.0000000000
     99027     16799  TIP3      OH2           -43.4721646626       -1.1331223979      -21.8094334176  TIP3      16399           0.0000000000
     99028     16799  TIP3      H1            -43.1132023657       -1.9122455302      -22.2988816252  TIP3      16399           0.0000000000
     99029     16799  TIP3      H2            -43.4762632649       -1.4703093943      -20.9156100528  TIP3      16399           0.0000000000
     99030     16800  TIP3      OH2           -42.3164638535       -9.0025047432      -23.0246180336  TIP3      16400           0.0000000000
     99031     16800  TIP3      H1            -42.2713064904       -9.1939562480      -23.9888285017  TIP3      16400           0.0000000000
     99032     16800  TIP3      H2            -41.4587247195       -8.5663918117      -22.8638448854  TIP3      16400           0.0000000000
     99033     16801  TIP3      OH2           -46.7152716194      -15.0987292622      -22.4020797611  TIP3      16401           0.0000000000
     99034     16801  TIP3      H1            -46.9823094744      -15.0970403951      -21.4629685107  TIP3      16401           0.0000000000
     99035     16801  TIP3      H2            -47.0114184864      -15.9783224010      -22.6901628062  TIP3      16401           0.0000000000
     99036     16802  TIP3      OH2           -49.8583607420      -14.7081009627      -23.3032177821  TIP3      16402           0.0000000000
     99037     16802  TIP3      H1            -50.3028581928      -15.0856115233      -22.5413371895  TIP3      16402           0.0000000000
     99038     16802  TIP3      H2            -50.5753099968      -14.2642936280      -23.7865550610  TIP3      16402           0.0000000000
     99039     16803  TIP3      OH2           -43.9950331943      -14.5076064843      -21.7914552372  TIP3      16403           0.0000000000
     99040     16803  TIP3      H1            -44.9631804369      -14.4142505741      -21.8938996042  TIP3      16403           0.0000000000
     99041     16803  TIP3      H2            -43.7184230678      -13.6812687784      -21.4326605615  TIP3      16403           0.0000000000
     99042     16804  TIP3      OH2           -45.8161278455       -5.8605296451      -20.9787500721  TIP3      16404           0.0000000000
     99043     16804  TIP3      H1            -46.0421290746       -5.0477317851      -20.5344078689  TIP3      16404           0.0000000000
     99044     16804  TIP3      H2            -46.4806515328       -6.4989064163      -20.7116119541  TIP3      16404           0.0000000000
     99045     16805  TIP3      OH2           -38.2175590325       -1.2164394432      -21.9465250573  TIP3      16405           0.0000000000
     99046     16805  TIP3      H1            -37.4789778407       -0.5945903799      -22.0541206591  TIP3      16405           0.0000000000
     99047     16805  TIP3      H2            -38.8977579994       -0.6281607656      -21.5704795457  TIP3      16405           0.0000000000
     99048     16806  TIP3      OH2           -48.5967729507       -4.5311069054      -23.6435216110  TIP3      16406           0.0000000000
     99049     16806  TIP3      H1            -48.4006105281       -5.3013132644      -24.2196830000  TIP3      16406           0.0000000000
     99050     16806  TIP3      H2            -48.9001632237       -4.9845612490      -22.8558671970  TIP3      16406           0.0000000000
     99051     16807  TIP3      OH2           -52.6433201359       -5.1047477366      -21.8394647135  TIP3      16407           0.0000000000
     99052     16807  TIP3      H1            -52.0284350227       -4.4472084508      -21.5260696656  TIP3      16407           0.0000000000
     99053     16807  TIP3      H2            -52.1411001774       -5.5885652911      -22.5209826337  TIP3      16407           0.0000000000
     99054     16808  TIP3      OH2           -46.5791172241       -2.6742656276      -23.5471089106  TIP3      16408           0.0000000000
     99055     16808  TIP3      H1            -47.2122996453       -3.3331299393      -23.2332712325  TIP3      16408           0.0000000000
     99056     16808  TIP3      H2            -45.8153732465       -3.2187536234      -23.7716533069  TIP3      16408           0.0000000000
     99057     16809  TIP3      OH2           -41.9834105640       -2.8890833196      -23.3281918425  TIP3      16409           0.0000000000
     99058     16809  TIP3      H1            -41.6835797453       -3.6656405114      -22.8330447357  TIP3      16409           0.0000000000
     99059     16809  TIP3      H2            -41.2211884896       -2.6526885941      -23.8763008397  TIP3      16409           0.0000000000
     99060     16810  TIP3      OH2           -51.0411332984       -6.9413143318      -23.4514107109  TIP3      16410           0.0000000000
     99061     16810  TIP3      H1            -50.9501759181       -7.7511635646      -22.9116040677  TIP3      16410           0.0000000000
     99062     16810  TIP3      H2            -50.3543618485       -7.0947177512      -24.1326351274  TIP3      16410           0.0000000000
     99063     16811  TIP3      OH2           -45.6686763942       -5.8883712594      -23.7278737436  TIP3      16411           0.0000000000
     99064     16811  TIP3      H1            -45.9169797313       -5.7632656102      -22.7952048332  TIP3      16411           0.0000000000
     99065     16811  TIP3      H2            -45.8685783301       -6.8431030463      -23.8478385062  TIP3      16411           0.0000000000
     99066     16812  TIP3      OH2           -48.8116357733      -10.7487531376      -22.8801766896  TIP3      16412           0.0000000000
     99067     16812  TIP3      H1            -48.9905369620      -10.8805903091      -23.8217142757  TIP3      16412           0.0000000000
     99068     16812  TIP3      H2            -47.8526696588      -10.6525295241      -22.8216210926  TIP3      16412           0.0000000000
     99069     16813  TIP3      OH2           -39.4303267970       -8.4041057295      -23.4402452273  TIP3      16413           0.0000000000
     99070     16813  TIP3      H1            -39.6793255751       -8.8107322377      -24.2760953232  TIP3      16413           0.0000000000
     99071     16813  TIP3      H2            -39.3765172082       -7.4506636964      -23.6469042041  TIP3      16413           0.0000000000
     99072     16814  TIP3      OH2           -55.3390049593       -5.4204212032      -22.3939010279  TIP3      16414           0.0000000000
     99073     16814  TIP3      H1            -54.4044496217       -5.3593053561      -22.1230066694  TIP3      16414           0.0000000000
     99074     16814  TIP3      H2            -55.3191893811       -6.1259988118      -23.0704425383  TIP3      16414           0.0000000000
     99075     16815  TIP3      OH2           -38.2517450846       -9.5831996837      -21.2685349662  TIP3      16415           0.0000000000
     99076     16815  TIP3      H1            -38.8128993519       -9.2154342544      -21.9634170988  TIP3      16415           0.0000000000
     99077     16815  TIP3      H2            -38.3317400436       -8.9332683989      -20.5591423458  TIP3      16415           0.0000000000
     99078     16816  TIP3      OH2           -39.9904238956      -12.3260635485      -22.7048467698  TIP3      16416           0.0000000000
     99079     16816  TIP3      H1            -39.8182566457      -11.6721691120      -23.3824879973  TIP3      16416           0.0000000000
     99080     16816  TIP3      H2            -40.0726273297      -13.1682179895      -23.1818284731  TIP3      16416           0.0000000000
     99081     16817  TIP3      OH2           -40.6956268418      -14.9015773313      -23.5741406701  TIP3      16417           0.0000000000
     99082     16817  TIP3      H1            -40.0779738129      -15.3011898495      -22.9308609569  TIP3      16417           0.0000000000
     99083     16817  TIP3      H2            -41.5354218388      -15.3493312043      -23.3882808520  TIP3      16417           0.0000000000
     99084     16818  TIP3      OH2           -38.6050158212      -16.0310142181      -22.0271959709  TIP3      16418           0.0000000000
     99085     16818  TIP3      H1            -38.1847150976      -16.7643727462      -22.5157528924  TIP3      16418           0.0000000000
     99086     16818  TIP3      H2            -37.9039154812      -15.3748061422      -21.9713826368  TIP3      16418           0.0000000000
     99087     16819  TIP3      OH2           -54.9932998451      -17.9841345343      -20.9305420172  TIP3      16419           0.0000000000
     99088     16819  TIP3      H1            -54.5730486731      -17.3616867367      -21.5209219503  TIP3      16419           0.0000000000
     99089     16819  TIP3      H2            -55.6519431694      -17.4663168147      -20.4533636655  TIP3      16419           0.0000000000
     99090     16820  TIP3      OH2           -53.1772980550      -16.0694262831      -22.4814564973  TIP3      16420           0.0000000000
     99091     16820  TIP3      H1            -52.6782835843      -16.7077835177      -23.0142844273  TIP3      16420           0.0000000000
     99092     16820  TIP3      H2            -52.5497615721      -15.7739576157      -21.8194193095  TIP3      16420           0.0000000000
     99093     16821  TIP3      OH2           -53.3328321232       -1.1425799896      -23.0220695739  TIP3      16421           0.0000000000
     99094     16821  TIP3      H1            -53.5713065722       -0.8095577418      -22.1307735029  TIP3      16421           0.0000000000
     99095     16821  TIP3      H2            -52.5387455545       -1.6696281029      -22.8511229975  TIP3      16421           0.0000000000
     99096     16822  TIP3      OH2           -27.1812769323      -10.8969472516      -22.3104919768  TIP3      16422           0.0000000000
     99097     16822  TIP3      H1            -26.4683196337      -10.9012673014      -21.6287713502  TIP3      16422           0.0000000000
     99098     16822  TIP3      H2            -26.8352039715      -11.5567619543      -22.9264003273  TIP3      16422           0.0000000000
     99099     16823  TIP3      OH2           -24.9159676501      -10.0187319958      -20.7023452711  TIP3      16423           0.0000000000
     99100     16823  TIP3      H1            -24.3558033483       -9.8660896857      -19.9255401363  TIP3      16423           0.0000000000
     99101     16823  TIP3      H2            -24.4943044074       -9.5296247833      -21.4205332116  TIP3      16423           0.0000000000
     99102     16824  TIP3      OH2           -20.0612664259       -3.9136359198      -22.5507160327  TIP3      16424           0.0000000000
     99103     16824  TIP3      H1            -19.9502285699       -2.9721763755      -22.2868461326  TIP3      16424           0.0000000000
     99104     16824  TIP3      H2            -19.1346602994       -4.1948650756      -22.4957365252  TIP3      16424           0.0000000000
     99105     16825  TIP3      OH2           -24.5985233282       -1.1108023978      -21.9309876447  TIP3      16425           0.0000000000
     99106     16825  TIP3      H1            -24.2180024625       -1.9146527520      -22.3259597964  TIP3      16425           0.0000000000
     99107     16825  TIP3      H2            -24.5549200783       -1.3941180797      -20.9929009767  TIP3      16425           0.0000000000
     99108     16826  TIP3      OH2           -23.4351724667       -9.0024978731      -23.0057392483  TIP3      16426           0.0000000000
     99109     16826  TIP3      H1            -23.4280179817       -9.2024476197      -23.9751691427  TIP3      16426           0.0000000000
     99110     16826  TIP3      H2            -22.5914943033       -8.5535614244      -22.8753042128  TIP3      16426           0.0000000000
     99111     16827  TIP3      OH2           -27.8500631910      -15.1089336679      -22.3956916270  TIP3      16427           0.0000000000
     99112     16827  TIP3      H1            -28.1410899311      -15.0837953620      -21.4779510820  TIP3      16427           0.0000000000
     99113     16827  TIP3      H2            -28.1652874083      -15.9814817876      -22.6930334004  TIP3      16427           0.0000000000
     99114     16828  TIP3      OH2           -30.9841091982      -14.6597100402      -23.2933641180  TIP3      16428           0.0000000000
     99115     16828  TIP3      H1            -31.4363329942      -15.1095742601      -22.5466303450  TIP3      16428           0.0000000000
     99116     16828  TIP3      H2            -31.7250117933      -14.2889764251      -23.7924486177  TIP3      16428           0.0000000000
     99117     16829  TIP3      OH2           -23.8403532585       -5.6622146370      -22.1481962401  TIP3      16429           0.0000000000
     99118     16829  TIP3      H1            -23.4872633564       -6.0170439847      -21.3139482083  TIP3      16429           0.0000000000
     99119     16829  TIP3      H2            -24.7855383117       -5.7749174442      -22.0299441383  TIP3      16429           0.0000000000
     99120     16830  TIP3      OH2           -19.3629492305       -1.2191149700      -21.9762769571  TIP3      16430           0.0000000000
     99121     16830  TIP3      H1            -18.6133726097       -0.5970094029      -22.0121087614  TIP3      16430           0.0000000000
     99122     16830  TIP3      H2            -20.0341246128       -0.6302879728      -21.5567613232  TIP3      16430           0.0000000000
     99123     16831  TIP3      OH2           -29.7207624579       -4.5421536231      -23.6394916364  TIP3      16431           0.0000000000
     99124     16831  TIP3      H1            -29.5441383931       -5.2954347278      -24.2457478979  TIP3      16431           0.0000000000
     99125     16831  TIP3      H2            -30.0469188214       -4.9621823237      -22.8634584425  TIP3      16431           0.0000000000
     99126     16832  TIP3      OH2           -30.6906718516       -2.2727523716      -20.4924349022  TIP3      16432           0.0000000000
     99127     16832  TIP3      H1            -30.6121280451       -1.4407129368      -20.9953165030  TIP3      16432           0.0000000000
     99128     16832  TIP3      H2            -30.9765941713       -1.9300786020      -19.6133881162  TIP3      16432           0.0000000000
     99129     16833  TIP3      OH2           -32.0191957568      -15.5415247012      -20.8957797481  TIP3      16433           0.0000000000
     99130     16833  TIP3      H1            -32.1114626056      -14.6622651408      -20.5269185045  TIP3      16433           0.0000000000
     99131     16833  TIP3      H2            -31.1434233878      -15.8253211789      -20.6325800666  TIP3      16433           0.0000000000
     99132     16834  TIP3      OH2           -27.7090296217       -2.6845720162      -23.5242237852  TIP3      16434           0.0000000000
     99133     16834  TIP3      H1            -28.3721160445       -3.3260939777      -23.2487430886  TIP3      16434           0.0000000000
     99134     16834  TIP3      H2            -26.9548683732       -3.2263142864      -23.7821931043  TIP3      16434           0.0000000000
     99135     16835  TIP3      OH2           -23.1470113991       -2.9098557501      -23.3379089103  TIP3      16435           0.0000000000
     99136     16835  TIP3      H1            -22.8178482985       -3.6665817034      -22.8283067211  TIP3      16435           0.0000000000
     99137     16835  TIP3      H2            -22.3682292695       -2.6566443192      -23.8593004988  TIP3      16435           0.0000000000
     99138     16836  TIP3      OH2           -32.1354516471       -6.9386486917      -23.4163910464  TIP3      16436           0.0000000000
     99139     16836  TIP3      H1            -32.1232180101       -7.7746072557      -22.9532240703  TIP3      16436           0.0000000000
     99140     16836  TIP3      H2            -31.5052148868       -7.0921372264      -24.1601831967  TIP3      16436           0.0000000000
     99141     16837  TIP3      OH2           -26.8124708642       -5.8871020092      -23.7051442587  TIP3      16437           0.0000000000
     99142     16837  TIP3      H1            -27.0851963417       -5.7535087391      -22.8115416205  TIP3      16437           0.0000000000
     99143     16837  TIP3      H2            -27.0045052739       -6.8441229833      -23.8597832352  TIP3      16437           0.0000000000
     99144     16838  TIP3      OH2           -20.5614729443       -8.4279553990      -23.4180835716  TIP3      16438           0.0000000000
     99145     16838  TIP3      H1            -20.8265998637       -8.8011528176      -24.2706877142  TIP3      16438           0.0000000000
     99146     16838  TIP3      H2            -20.5182478445       -7.4627635699      -23.6319273943  TIP3      16438           0.0000000000
     99147     16839  TIP3      OH2           -36.4919234265       -5.4013981467      -22.3978480174  TIP3      16439           0.0000000000
     99148     16839  TIP3      H1            -35.5739090567       -5.3498322337      -22.1203045237  TIP3      16439           0.0000000000
     99149     16839  TIP3      H2            -36.4747744203       -6.1214111650      -23.0640506100  TIP3      16439           0.0000000000
     99150     16840  TIP3      OH2           -21.8447661596      -14.8888243268      -23.5439076420  TIP3      16440           0.0000000000
     99151     16840  TIP3      H1            -21.2120532508      -15.3210948951      -22.9468772387  TIP3      16440           0.0000000000
     99152     16840  TIP3      H2            -22.6709057367      -15.3536783769      -23.4208294081  TIP3      16440           0.0000000000
     99153     16841  TIP3      OH2           -19.7412002389      -16.0292383991      -22.0183900701  TIP3      16441           0.0000000000
     99154     16841  TIP3      H1            -19.3313168408      -16.7639605240      -22.5239511543  TIP3      16441           0.0000000000
     99155     16841  TIP3      H2            -19.0321380214      -15.3801636079      -21.9626545636  TIP3      16441           0.0000000000
     99156     16842  TIP3      OH2           -34.4547254614       -1.1080340609      -23.0182642939  TIP3      16442           0.0000000000
     99157     16842  TIP3      H1            -34.7227081121       -0.8491739002      -22.1210197179  TIP3      16442           0.0000000000
     99158     16842  TIP3      H2            -33.6835295134       -1.6724412867      -22.8434279119  TIP3      16442           0.0000000000
     99159     16843  TIP3      OH2            -6.0265597757      -10.0184517712      -20.6817443344  TIP3      16443           0.0000000000
     99160     16843  TIP3      H1             -5.4897025070       -9.8497299106      -19.9136434499  TIP3      16443           0.0000000000
     99161     16843  TIP3      H2             -5.6481414357       -9.5397197136      -21.4287366359  TIP3      16443           0.0000000000
     99162     16844  TIP3      OH2            -2.3557846270      -18.2609702132      -20.8840875769  TIP3      16444           0.0000000000
     99163     16844  TIP3      H1             -3.2659240083      -18.1250014896      -20.5709638389  TIP3      16444           0.0000000000
     99164     16844  TIP3      H2             -2.1184320759      -17.4208264585      -21.2754096140  TIP3      16444           0.0000000000
     99165     16845  TIP3      OH2            -1.1886992894       -3.9079310318      -22.5117572460  TIP3      16445           0.0000000000
     99166     16845  TIP3      H1             -1.1062300645       -2.9690013637      -22.3047140943  TIP3      16445           0.0000000000
     99167     16845  TIP3      H2             -0.2806527835       -4.1955346822      -22.5384158057  TIP3      16445           0.0000000000
     99168     16846  TIP3      OH2            -5.7722162247       -1.1575895496      -21.8325185673  TIP3      16446           0.0000000000
     99169     16846  TIP3      H1             -5.3739210798       -1.9189424361      -22.3004387837  TIP3      16446           0.0000000000
     99170     16846  TIP3      H2             -5.7784380241       -1.4195797609      -20.9073898575  TIP3      16446           0.0000000000
     99171     16847  TIP3      OH2            -4.5985506630       -8.9896921703      -23.0265517833  TIP3      16447           0.0000000000
     99172     16847  TIP3      H1             -4.5558869452       -9.2005907025      -23.9782248216  TIP3      16447           0.0000000000
     99173     16847  TIP3      H2             -3.7425503243       -8.5703328040      -22.8770267739  TIP3      16447           0.0000000000
     99174     16848  TIP3      OH2           -12.1610329291      -14.7065246059      -23.3126989822  TIP3      16448           0.0000000000
     99175     16848  TIP3      H1            -12.5725572574      -15.0789361545      -22.5312971084  TIP3      16448           0.0000000000
     99176     16848  TIP3      H2            -12.8766948093      -14.2672105205      -23.7855940253  TIP3      16448           0.0000000000
     99177     16849  TIP3      OH2           -17.6616130180      -14.1991442060      -20.8560514462  TIP3      16449           0.0000000000
     99178     16849  TIP3      H1            -17.1260222035      -13.5821130650      -21.3848179747  TIP3      16449           0.0000000000
     99179     16849  TIP3      H2            -18.3162570733      -13.6592098752      -20.4260507488  TIP3      16449           0.0000000000
     99180     16850  TIP3      OH2           -16.9672664018       -9.6656665638      -22.1891161349  TIP3      16450           0.0000000000
     99181     16850  TIP3      H1            -16.3105016243       -9.0316043110      -21.8034065525  TIP3      16450           0.0000000000
     99182     16850  TIP3      H2            -17.8003659573       -9.2885946680      -21.9269591322  TIP3      16450           0.0000000000
     99183     16851  TIP3      OH2            -4.9904588334       -5.6449091625      -22.1262985361  TIP3      16451           0.0000000000
     99184     16851  TIP3      H1             -4.6259244675       -6.0429714573      -21.3160766595  TIP3      16451           0.0000000000
     99185     16851  TIP3      H2             -5.9365954032       -5.7855877033      -22.0375099467  TIP3      16451           0.0000000000
     99186     16852  TIP3      OH2           -10.8517511270       -4.5322538326      -23.6528921441  TIP3      16452           0.0000000000
     99187     16852  TIP3      H1            -10.7014983304       -5.3000144029      -24.2319389416  TIP3      16452           0.0000000000
     99188     16852  TIP3      H2            -11.2159157453       -4.9616090741      -22.8504372684  TIP3      16452           0.0000000000
     99189     16853  TIP3      OH2           -11.9401880348       -4.9986993416      -21.2048755368  TIP3      16453           0.0000000000
     99190     16853  TIP3      H1            -11.8238468604       -5.5216738593      -20.4138571684  TIP3      16453           0.0000000000
     99191     16853  TIP3      H2            -11.9943387575       -4.0838026990      -20.9056504650  TIP3      16453           0.0000000000
     99192     16854  TIP3      OH2           -15.5401462258       -7.7167650079      -20.7276605686  TIP3      16454           0.0000000000
     99193     16854  TIP3      H1            -16.2128201487       -7.3648229920      -20.1425922900  TIP3      16454           0.0000000000
     99194     16854  TIP3      H2            -14.9745028201       -6.9729616574      -20.9652616513  TIP3      16454           0.0000000000
     99195     16855  TIP3      OH2           -16.6091473572      -12.4518893963      -22.6822400103  TIP3      16455           0.0000000000
     99196     16855  TIP3      H1            -16.6006973280      -11.4924112600      -22.5084015980  TIP3      16455           0.0000000000
     99197     16855  TIP3      H2            -17.4807654683      -12.6746099942      -22.9827403862  TIP3      16455           0.0000000000
     99198     16856  TIP3      OH2            -8.8480097337       -2.6732136137      -23.4994875402  TIP3      16456           0.0000000000
     99199     16856  TIP3      H1             -9.5240354365       -3.3268418339      -23.2520022558  TIP3      16456           0.0000000000
     99200     16856  TIP3      H2             -8.1061527153       -3.2205023824      -23.7751145794  TIP3      16456           0.0000000000
     99201     16857  TIP3      OH2            -4.2824602239       -2.8870195096      -23.3307179044  TIP3      16457           0.0000000000
     99202     16857  TIP3      H1             -3.9698464273       -3.6735650380      -22.8561876542  TIP3      16457           0.0000000000
     99203     16857  TIP3      H2             -3.5144837897       -2.6639462146      -23.8780128139  TIP3      16457           0.0000000000
     99204     16858  TIP3      OH2           -13.3461445585       -6.9587996289      -23.4652092244  TIP3      16458           0.0000000000
     99205     16858  TIP3      H1            -13.2449781963       -7.7579250699      -22.9287197934  TIP3      16458           0.0000000000
     99206     16858  TIP3      H2            -12.6412377827       -7.0918624726      -24.1240594507  TIP3      16458           0.0000000000
     99207     16859  TIP3      OH2            -7.9254712524       -5.8858555357      -23.7100916839  TIP3      16459           0.0000000000
     99208     16859  TIP3      H1             -8.2494116543       -5.7528378193      -22.8246612962  TIP3      16459           0.0000000000
     99209     16859  TIP3      H2             -8.1590327938       -6.8372686070      -23.8591818599  TIP3      16459           0.0000000000
     99210     16860  TIP3      OH2           -11.1027381583      -10.7270420148      -22.8948349755  TIP3      16460           0.0000000000
     99211     16860  TIP3      H1            -11.2751942843      -10.8950554491      -23.8257007831  TIP3      16460           0.0000000000
     99212     16860  TIP3      H2            -10.1454514618      -10.6585166489      -22.8226753911  TIP3      16460           0.0000000000
     99213     16861  TIP3      OH2           -11.2262856942       -0.0421059483      -21.8281127143  TIP3      16461           0.0000000000
     99214     16861  TIP3      H1            -10.2669345084        0.0958025848      -21.7380646646  TIP3      16461           0.0000000000
     99215     16861  TIP3      H2            -11.4246617178        0.5860628071      -22.5304575542  TIP3      16461           0.0000000000
     99216     16862  TIP3      OH2           -17.6524472795       -5.4141773011      -22.3812164704  TIP3      16462           0.0000000000
     99217     16862  TIP3      H1            -16.7220840741       -5.3528394804      -22.1406562902  TIP3      16462           0.0000000000
     99218     16862  TIP3      H2            -17.6264868010       -6.1085772079      -23.0704764959  TIP3      16462           0.0000000000
     99219     16863  TIP3      OH2            -2.2334845891      -12.3728919059      -22.7463322376  TIP3      16463           0.0000000000
     99220     16863  TIP3      H1             -2.1240083014      -11.6788262729      -23.3962884559  TIP3      16463           0.0000000000
     99221     16863  TIP3      H2             -2.3737258535      -13.1952509288      -23.2044419320  TIP3      16463           0.0000000000
     99222     16864  TIP3      OH2            -2.9873943429      -14.9127882962      -23.5851800132  TIP3      16464           0.0000000000
     99223     16864  TIP3      H1             -2.3759020713      -15.2940113587      -22.9432753652  TIP3      16464           0.0000000000
     99224     16864  TIP3      H2             -3.8212282943      -15.3476006380      -23.3772919803  TIP3      16464           0.0000000000
     99225     16865  TIP3      OH2            10.5453183781      -10.9422925455      -22.2774553611  TIP3      16465           0.0000000000
     99226     16865  TIP3      H1             11.2658113674      -10.8691423125      -21.6528820163  TIP3      16465           0.0000000000
     99227     16865  TIP3      H2             10.8800342031      -11.5545939166      -22.9421912026  TIP3      16465           0.0000000000
     99228     16866  TIP3      OH2            16.4958346707      -18.2557855826      -20.8441225840  TIP3      16466           0.0000000000
     99229     16866  TIP3      H1             15.5847700140      -18.1652285364      -20.5920119041  TIP3      16466           0.0000000000
     99230     16866  TIP3      H2             16.7565133153      -17.4354926348      -21.2856123320  TIP3      16466           0.0000000000
     99231     16867  TIP3      OH2            17.6404781171       -3.9112389255      -22.5187395716  TIP3      16467           0.0000000000
     99232     16867  TIP3      H1             17.7654430206       -2.9711808102      -22.2955961814  TIP3      16467           0.0000000000
     99233     16867  TIP3      H2             18.5798244580       -4.2101061791      -22.5276016434  TIP3      16467           0.0000000000
     99234     16868  TIP3      OH2            13.0970778739       -1.1329446904      -21.8244266339  TIP3      16468           0.0000000000
     99235     16868  TIP3      H1             13.4633014075       -1.9020928955      -22.3052715977  TIP3      16468           0.0000000000
     99236     16868  TIP3      H2             13.0896404483       -1.4380402076      -20.9066996531  TIP3      16468           0.0000000000
     99237     16869  TIP3      OH2            14.2445653045       -8.9396560332      -23.0272935952  TIP3      16469           0.0000000000
     99238     16869  TIP3      H1             14.2893132384       -9.2138897221      -23.9734172947  TIP3      16469           0.0000000000
     99239     16869  TIP3      H2             15.1390744419       -8.6043510170      -22.8737415248  TIP3      16469           0.0000000000
     99240     16870  TIP3      OH2             9.8959349225      -15.1112189453      -22.3882325773  TIP3      16470           0.0000000000
     99241     16870  TIP3      H1              9.5473285367      -15.0976654440      -21.4828821964  TIP3      16470           0.0000000000
     99242     16870  TIP3      H2              9.5374070701      -15.9712886412      -22.6930754297  TIP3      16470           0.0000000000
     99243     16871  TIP3      OH2             6.7140223384      -14.6929418947      -23.3121192233  TIP3      16471           0.0000000000
     99244     16871  TIP3      H1              6.2876641575      -15.0903209913      -22.5325015690  TIP3      16471           0.0000000000
     99245     16871  TIP3      H2              5.9858953207      -14.2744335547      -23.7848150124  TIP3      16471           0.0000000000
     99246     16872  TIP3      OH2             5.3186787400      -11.8863843121      -21.8989161963  TIP3      16472           0.0000000000
     99247     16872  TIP3      H1              4.8075253587      -12.2725316824      -22.6059696470  TIP3      16472           0.0000000000
     99248     16872  TIP3      H2              6.1723014426      -11.6865928436      -22.3211522373  TIP3      16472           0.0000000000
     99249     16873  TIP3      OH2            10.7780316392       -5.8329721921      -21.0210935187  TIP3      16473           0.0000000000
     99250     16873  TIP3      H1             10.4940190451       -5.0423838255      -20.5282829150  TIP3      16473           0.0000000000
     99251     16873  TIP3      H2             10.1142210770       -6.4825458703      -20.7158042734  TIP3      16473           0.0000000000
     99252     16874  TIP3      OH2             7.9791151785       -4.5297954462      -23.6579759907  TIP3      16474           0.0000000000
     99253     16874  TIP3      H1              8.1720292524       -5.3006285912      -24.2262092087  TIP3      16474           0.0000000000
     99254     16874  TIP3      H2              7.6547807277       -4.9734034927      -22.8468381716  TIP3      16474           0.0000000000
     99255     16875  TIP3      OH2             6.8369955389       -4.9872881853      -21.2014929244  TIP3      16475           0.0000000000
     99256     16875  TIP3      H1              7.0481912238       -5.5301876785      -20.4261951823  TIP3      16475           0.0000000000
     99257     16875  TIP3      H2              6.9151194505       -4.0868709514      -20.9161887949  TIP3      16475           0.0000000000
     99258     16876  TIP3      OH2             9.5985295900       -3.3183382289      -20.4799882458  TIP3      16476           0.0000000000
     99259     16876  TIP3      H1              8.8366342650       -2.7545145524      -20.4349840284  TIP3      16476           0.0000000000
     99260     16876  TIP3      H2             10.1555220497       -2.7898763018      -21.0893659908  TIP3      16476           0.0000000000
     99261     16877  TIP3      OH2            10.0049369449       -2.6862235852      -23.5350503545  TIP3      16477           0.0000000000
     99262     16877  TIP3      H1              9.3382117723       -3.3384073918      -23.2467646832  TIP3      16477           0.0000000000
     99263     16877  TIP3      H2             10.7498248417       -3.2427431634      -23.7816978534  TIP3      16477           0.0000000000
     99264     16878  TIP3      OH2            14.5823960157       -2.9084126927      -23.3230942426  TIP3      16478           0.0000000000
     99265     16878  TIP3      H1             14.9064772410       -3.6600780916      -22.8492425641  TIP3      16478           0.0000000000
     99266     16878  TIP3      H2             15.3389972955       -2.6464356430      -23.8798524607  TIP3      16478           0.0000000000
     99267     16879  TIP3      OH2             5.5194718073       -6.9543662495      -23.4418405213  TIP3      16479           0.0000000000
     99268     16879  TIP3      H1              5.6330638242       -7.7638544995      -22.9270460034  TIP3      16479           0.0000000000
     99269     16879  TIP3      H2              6.2166153527       -7.0859926080      -24.1195446166  TIP3      16479           0.0000000000
     99270     16880  TIP3      OH2            10.9274430134       -5.8889346936      -23.7282264006  TIP3      16480           0.0000000000
     99271     16880  TIP3      H1             10.6378957408       -5.7634473326      -22.8049527763  TIP3      16480           0.0000000000
     99272     16880  TIP3      H2             10.6936684821       -6.8428679984      -23.8477924611  TIP3      16480           0.0000000000
     99273     16881  TIP3      OH2             7.7483593689      -10.7680283472      -22.8786203901  TIP3      16481           0.0000000000
     99274     16881  TIP3      H1              7.5845813438      -10.8867220179      -23.8231427342  TIP3      16481           0.0000000000
     99275     16881  TIP3      H2              8.7130354682      -10.6388358473      -22.8226059404  TIP3      16481           0.0000000000
     99276     16882  TIP3      OH2            17.1163198481       -8.3864403372      -23.4250611389  TIP3      16482           0.0000000000
     99277     16882  TIP3      H1             16.9039092198       -8.8192861936      -24.2584593532  TIP3      16482           0.0000000000
     99278     16882  TIP3      H2             17.2113876026       -7.4530930379      -23.6601167953  TIP3      16482           0.0000000000
     99279     16883  TIP3      OH2            16.5817402197      -12.3400193454      -22.7107131490  TIP3      16483           0.0000000000
     99280     16883  TIP3      H1             16.7435487218      -11.6681656487      -23.3748785061  TIP3      16483           0.0000000000
     99281     16883  TIP3      H2             16.4902204602      -13.1665990210      -23.1849857084  TIP3      16483           0.0000000000
     99282     16884  TIP3      OH2            15.8731534803      -14.9176486232      -23.5787059894  TIP3      16484           0.0000000000
     99283     16884  TIP3      H1             16.4998923190      -15.2975343196      -22.9366533379  TIP3      16484           0.0000000000
     99284     16884  TIP3      H2             15.0315988002      -15.3500971530      -23.3961929290  TIP3      16484           0.0000000000
     99285     16885  TIP3      OH2            17.9524126331      -16.0473523063      -22.0408204892  TIP3      16485           0.0000000000
     99286     16885  TIP3      H1             18.4051571386      -16.7706097142      -22.5058732708  TIP3      16485           0.0000000000
     99287     16885  TIP3      H2             18.6592302547      -15.3733040902      -21.9341777222  TIP3      16485           0.0000000000
     99288     16886  TIP3      OH2            10.3214624106       -0.8501059078      -21.6293645415  TIP3      16486           0.0000000000
     99289     16886  TIP3      H1             11.1851858099       -0.4738696466      -21.8209371801  TIP3      16486           0.0000000000
     99290     16886  TIP3      H2             10.0748767290       -1.2651124053      -22.4702935133  TIP3      16486           0.0000000000
     99291     16887  TIP3      OH2             3.2632528639       -1.1401686693      -23.0325948628  TIP3      16487           0.0000000000
     99292     16887  TIP3      H1              3.0039083385       -0.8298382152      -22.1564200529  TIP3      16487           0.0000000000
     99293     16887  TIP3      H2              4.0449974340       -1.6762826038      -22.8649627646  TIP3      16487           0.0000000000
     99294     16888  TIP3      OH2            29.4212296133      -10.8833051153      -22.3314716004  TIP3      16488           0.0000000000
     99295     16888  TIP3      H1             30.0945448065      -10.9211966601      -21.6288558787  TIP3      16488           0.0000000000
     99296     16888  TIP3      H2             29.7373804515      -11.5756196150      -22.9267927068  TIP3      16488           0.0000000000
     99297     16889  TIP3      OH2            31.9408533324       -1.1537182583      -21.8477584876  TIP3      16489           0.0000000000
     99298     16889  TIP3      H1             32.3290187467       -1.9179794775      -22.2938359121  TIP3      16489           0.0000000000
     99299     16889  TIP3      H2             31.9559206621       -1.4094279209      -20.8973325015  TIP3      16489           0.0000000000
     99300     16890  TIP3      OH2            33.0909152997       -8.9439044212      -23.0324989213  TIP3      16490           0.0000000000
     99301     16890  TIP3      H1             33.1553235425       -9.2206988306      -23.9767080038  TIP3      16490           0.0000000000
     99302     16890  TIP3      H2             33.9776101215       -8.6059376663      -22.8654365632  TIP3      16490           0.0000000000
     99303     16891  TIP3      OH2            28.7539906854      -15.1307088562      -22.4232311486  TIP3      16491           0.0000000000
     99304     16891  TIP3      H1             28.4555064114      -15.0938950680      -21.4980010709  TIP3      16491           0.0000000000
     99305     16891  TIP3      H2             28.4255704824      -15.9924937852      -22.7070852631  TIP3      16491           0.0000000000
     99306     16892  TIP3      OH2            25.5624522704      -14.7379255744      -23.3065921282  TIP3      16492           0.0000000000
     99307     16892  TIP3      H1             25.1150417875      -15.0701553529      -22.5257825308  TIP3      16492           0.0000000000
     99308     16892  TIP3      H2             24.8531198196      -14.2553053423      -23.7836906991  TIP3      16492           0.0000000000
     99309     16893  TIP3      OH2            31.4264273100      -14.5241607233      -21.7620325143  TIP3      16493           0.0000000000
     99310     16893  TIP3      H1             30.4776053985      -14.3963849949      -21.9213473732  TIP3      16493           0.0000000000
     99311     16893  TIP3      H2             31.7160484727      -13.6567699287      -21.4477897239  TIP3      16493           0.0000000000
     99312     16894  TIP3      OH2            37.2078554255       -1.2121821713      -21.9473932871  TIP3      16494           0.0000000000
     99313     16894  TIP3      H1             37.9619582487       -0.5972540379      -22.0494221833  TIP3      16494           0.0000000000
     99314     16894  TIP3      H2             36.5301139107       -0.6304129391      -21.5938157932  TIP3      16494           0.0000000000
     99315     16895  TIP3      OH2            26.8700001140       -4.5401879568      -23.6777795075  TIP3      16495           0.0000000000
     99316     16895  TIP3      H1             27.0086791158       -5.3176415130      -24.2276824232  TIP3      16495           0.0000000000
     99317     16895  TIP3      H2             26.4926092381       -4.9372210210      -22.8554581261  TIP3      16495           0.0000000000
     99318     16896  TIP3      OH2            25.7573539671       -5.0115245786      -21.2191758159  TIP3      16496           0.0000000000
     99319     16896  TIP3      H1             25.9084060533       -5.4989325542      -20.4116596452  TIP3      16496           0.0000000000
     99320     16896  TIP3      H2             25.7508343616       -4.0724121597      -20.9145033510  TIP3      16496           0.0000000000
     99321     16897  TIP3      OH2            25.8096664007       -2.2916273575      -20.4756928243  TIP3      16497           0.0000000000
     99322     16897  TIP3      H1             25.9675074469       -1.4749508010      -20.9935600755  TIP3      16497           0.0000000000
     99323     16897  TIP3      H2             25.6332559440       -1.9038747268      -19.6160515103  TIP3      16497           0.0000000000
     99324     16898  TIP3      OH2            21.1458576574      -12.4554673574      -22.7590492937  TIP3      16498           0.0000000000
     99325     16898  TIP3      H1             21.0811565262      -11.5307159836      -22.4883443052  TIP3      16498           0.0000000000
     99326     16898  TIP3      H2             20.2256057918      -12.6770973198      -22.9136137762  TIP3      16498           0.0000000000
     99327     16899  TIP3      OH2            28.8590422830       -2.6749696960      -23.5521313942  TIP3      16499           0.0000000000
     99328     16899  TIP3      H1             28.1832797955       -3.3106305636      -23.2344145998  TIP3      16499           0.0000000000
     99329     16899  TIP3      H2             29.6098688319       -3.2247947966      -23.7657520290  TIP3      16499           0.0000000000
     99330     16900  TIP3      OH2            33.4235141235       -2.9277084544      -23.3344375577  TIP3      16500           0.0000000000
     99331     16900  TIP3      H1             33.7518213988       -3.6599064789      -22.8287675775  TIP3      16500           0.0000000000
     99332     16900  TIP3      H2             34.1886765946       -2.6377377212      -23.8692709379  TIP3      16500           0.0000000000
     99333     16901  TIP3      OH2            24.3713562419       -6.9751482673      -23.4600106028  TIP3      16501           0.0000000000
     99334     16901  TIP3      H1             24.4744710722       -7.7642370561      -22.9094327987  TIP3      16501           0.0000000000
     99335     16901  TIP3      H2             25.0684110176       -7.0913164801      -24.1309568650  TIP3      16501           0.0000000000
     99336     16902  TIP3      OH2            25.5286381480       -8.9822235003      -21.1416499123  TIP3      16502           0.0000000000
     99337     16902  TIP3      H1             25.0906087205       -9.4962520339      -20.4545427078  TIP3      16502           0.0000000000
     99338     16902  TIP3      H2             25.8079356465       -9.6699763261      -21.7762046287  TIP3      16502           0.0000000000
     99339     16903  TIP3      OH2            26.6131683955      -10.7507493390      -22.8741969493  TIP3      16503           0.0000000000
     99340     16903  TIP3      H1             26.4348908766      -10.8926393293      -23.8216963461  TIP3      16503           0.0000000000
     99341     16903  TIP3      H2             27.5814736786      -10.6633409589      -22.8329585962  TIP3      16503           0.0000000000
     99342     16904  TIP3      OH2            36.0036217947       -8.3895887142      -23.4234634010  TIP3      16504           0.0000000000
     99343     16904  TIP3      H1             35.7480768920       -8.8197462388      -24.2635099718  TIP3      16504           0.0000000000
     99344     16904  TIP3      H2             36.0382583345       -7.4562858488      -23.6790320343  TIP3      16504           0.0000000000
     99345     16905  TIP3      OH2            20.0641003432       -5.3861769698      -22.4091778356  TIP3      16505           0.0000000000
     99346     16905  TIP3      H1             20.9880458911       -5.3722441275      -22.1236746782  TIP3      16505           0.0000000000
     99347     16905  TIP3      H2             20.0876478998       -6.1272327939      -23.0530297480  TIP3      16505           0.0000000000
     99348     16906  TIP3      OH2            37.1640264142       -9.5499014936      -21.2416374670  TIP3      16506           0.0000000000
     99349     16906  TIP3      H1             36.5880565790       -9.2303954477      -21.9641429250  TIP3      16506           0.0000000000
     99350     16906  TIP3      H2             37.0727651872       -8.9105602758      -20.5310599000  TIP3      16506           0.0000000000
     99351     16907  TIP3      OH2            35.4991938756      -12.3275322246      -22.7210673696  TIP3      16507           0.0000000000
     99352     16907  TIP3      H1             35.5843435789      -11.6620402005      -23.3992149115  TIP3      16507           0.0000000000
     99353     16907  TIP3      H2             35.3342748997      -13.1511224060      -23.2011157389  TIP3      16507           0.0000000000
     99354     16908  TIP3      OH2            34.7303110253      -14.8990760194      -23.5513367839  TIP3      16508           0.0000000000
     99355     16908  TIP3      H1             35.3398985573      -15.3152305915      -22.9586698152  TIP3      16508           0.0000000000
     99356     16908  TIP3      H2             33.8816074183      -15.3482572320      -23.4036797425  TIP3      16508           0.0000000000
     99357     16909  TIP3      OH2            22.2566161931      -16.0490342669      -22.5082878893  TIP3      16509           0.0000000000
     99358     16909  TIP3      H1             22.7406324460      -16.7103072792      -22.9918066970  TIP3      16509           0.0000000000
     99359     16909  TIP3      H2             22.8553744403      -15.7771413345      -21.8035716512  TIP3      16509           0.0000000000
     99360     16910  TIP3      OH2            29.1550603088       -0.8449650924      -21.6089710920  TIP3      16510           0.0000000000
     99361     16910  TIP3      H1             30.0338053912       -0.4866331045      -21.8031001394  TIP3      16510           0.0000000000
     99362     16910  TIP3      H2             28.9123514973       -1.2884590556      -22.4363268011  TIP3      16510           0.0000000000
     99363     16911  TIP3      OH2            22.0766479105       -1.1436390767      -23.0212172512  TIP3      16511           0.0000000000
     99364     16911  TIP3      H1             21.8645260588       -0.8313700234      -22.1303386908  TIP3      16511           0.0000000000
     99365     16911  TIP3      H2             22.8898454086       -1.6614832441      -22.8456417591  TIP3      16511           0.0000000000
     99366     16912  TIP3      OH2            55.3578257550       -3.8759453131      -22.5529321502  TIP3      16512           0.0000000000
     99367     16912  TIP3      H1             55.4815478312       -2.9526915618      -22.3071211062  TIP3      16512           0.0000000000
     99368     16912  TIP3      H2             56.2696023473       -4.2221060730      -22.5154950364  TIP3      16512           0.0000000000
     99369     16913  TIP3      OH2            51.9518269748       -8.9779074873      -23.0498151127  TIP3      16513           0.0000000000
     99370     16913  TIP3      H1             52.0135434080       -9.2166307655      -23.9819569685  TIP3      16513           0.0000000000
     99371     16913  TIP3      H2             52.8147833369       -8.5748581425      -22.8358289193  TIP3      16513           0.0000000000
     99372     16914  TIP3      OH2            47.5656633836      -15.1218656770      -22.3988267889  TIP3      16514           0.0000000000
     99373     16914  TIP3      H1             47.2960602992      -15.0611396390      -21.4726261605  TIP3      16514           0.0000000000
     99374     16914  TIP3      H2             47.2635848488      -15.9844870843      -22.6988868149  TIP3      16514           0.0000000000
     99375     16915  TIP3      OH2            44.4260573026      -14.6828609573      -23.2846760264  TIP3      16515           0.0000000000
     99376     16915  TIP3      H1             43.9861288401      -15.0955834726      -22.5463293592  TIP3      16515           0.0000000000
     99377     16915  TIP3      H2             43.7099371868      -14.2669077065      -23.7907637073  TIP3      16515           0.0000000000
     99378     16916  TIP3      OH2            55.8226122957      -12.4456965725      -20.3656780689  TIP3      16516           0.0000000000
     99379     16916  TIP3      H1             55.3288525381      -12.8052695041      -21.1108675813  TIP3      16516           0.0000000000
     99380     16916  TIP3      H2             55.9843197604      -11.5320611693      -20.6835569730  TIP3      16516           0.0000000000
     99381     16917  TIP3      OH2            39.6288570579       -9.6247671320      -22.2379902777  TIP3      16517           0.0000000000
     99382     16917  TIP3      H1             40.2642615267       -9.0272805568      -21.7968986911  TIP3      16517           0.0000000000
     99383     16917  TIP3      H2             38.7601841597       -9.3585636237      -21.9049418403  TIP3      16517           0.0000000000
     99384     16918  TIP3      OH2            56.0622829205       -1.1829241611      -21.9418728329  TIP3      16518           0.0000000000
     99385     16918  TIP3      H1             56.8204968915       -0.5957886650      -22.0458641049  TIP3      16518           0.0000000000
     99386     16918  TIP3      H2             55.3605012146       -0.6170805883      -21.5592060875  TIP3      16518           0.0000000000
     99387     16919  TIP3      OH2            45.6920705799       -4.5387502144      -23.6512599661  TIP3      16519           0.0000000000
     99388     16919  TIP3      H1             45.8791663237       -5.3059759587      -24.2188103151  TIP3      16519           0.0000000000
     99389     16919  TIP3      H2             45.3599312122       -4.9657045070      -22.8521216288  TIP3      16519           0.0000000000
     99390     16920  TIP3      OH2            41.0069093044       -7.7204879743      -20.7589608860  TIP3      16520           0.0000000000
     99391     16920  TIP3      H1             40.3850455909       -7.3841863163      -20.1025479062  TIP3      16520           0.0000000000
     99392     16920  TIP3      H2             41.5945926518       -6.9686161686      -20.9404078077  TIP3      16520           0.0000000000
     99393     16921  TIP3      OH2            44.6812768764       -2.2745954036      -20.4913946153  TIP3      16521           0.0000000000
     99394     16921  TIP3      H1             44.8352652786       -1.4525864937      -20.9981347191  TIP3      16521           0.0000000000
     99395     16921  TIP3      H2             44.4784624371       -1.9372895241      -19.6127167423  TIP3      16521           0.0000000000
     99396     16922  TIP3      OH2            41.6402670735       -5.1284185657      -21.8279864720  TIP3      16522           0.0000000000
     99397     16922  TIP3      H1             42.2603818955       -4.4369418870      -21.5315389238  TIP3      16522           0.0000000000
     99398     16922  TIP3      H2             42.1485196314       -5.5682283574      -22.5324878334  TIP3      16522           0.0000000000
     99399     16923  TIP3      OH2            39.9716028403      -12.4553221329      -22.6943138073  TIP3      16523           0.0000000000
     99400     16923  TIP3      H1             39.9482984626      -11.4945438301      -22.5156918755  TIP3      16523           0.0000000000
     99401     16923  TIP3      H2             39.0852016431      -12.6595267287      -22.9652413547  TIP3      16523           0.0000000000
     99402     16924  TIP3      OH2            47.7235863768       -2.6784988360      -23.5230177836  TIP3      16524           0.0000000000
     99403     16924  TIP3      H1             47.0479371641       -3.3218701605      -23.2343091219  TIP3      16524           0.0000000000
     99404     16924  TIP3      H2             48.4652263483       -3.2335304000      -23.7764711314  TIP3      16524           0.0000000000
     99405     16925  TIP3      OH2            52.2670426182       -2.8961144729      -23.3158218366  TIP3      16525           0.0000000000
     99406     16925  TIP3      H1             52.6130092703       -3.6644061636      -22.8329907220  TIP3      16525           0.0000000000
     99407     16925  TIP3      H2             53.0368741658       -2.6586483892      -23.8629666563  TIP3      16525           0.0000000000
     99408     16926  TIP3      OH2            43.2206717748       -6.9581047863      -23.4504633903  TIP3      16526           0.0000000000
     99409     16926  TIP3      H1             43.3324127004       -7.7649702621      -22.9068361449  TIP3      16526           0.0000000000
     99410     16926  TIP3      H2             43.9283706581       -7.0963477616      -24.1148888947  TIP3      16526           0.0000000000
     99411     16927  TIP3      OH2            48.6271663207       -5.8934056713      -23.7081850810  TIP3      16527           0.0000000000
     99412     16927  TIP3      H1             48.3223092637       -5.7528992280      -22.8159866991  TIP3      16527           0.0000000000
     99413     16927  TIP3      H2             48.4090707299       -6.8439400331      -23.8564150101  TIP3      16527           0.0000000000
     99414     16928  TIP3      OH2            44.3532853974       -8.9766712698      -21.1668082460  TIP3      16528           0.0000000000
     99415     16928  TIP3      H1             43.9648507586       -9.5027725783      -20.4503901142  TIP3      16528           0.0000000000
     99416     16928  TIP3      H2             44.6719529421       -9.6821118577      -21.7612408640  TIP3      16528           0.0000000000
     99417     16929  TIP3      OH2            45.4814187567      -10.7444460927      -22.8741507465  TIP3      16529           0.0000000000
     99418     16929  TIP3      H1             45.2983754130      -10.8935574304      -23.8136430440  TIP3      16529           0.0000000000
     99419     16929  TIP3      H2             46.4337270292      -10.6587163362      -22.8366447250  TIP3      16529           0.0000000000
     99420     16930  TIP3      OH2            54.8585639755       -8.3851161605      -23.4319781946  TIP3      16530           0.0000000000
     99421     16930  TIP3      H1             54.5932946120       -8.8072784635      -24.2545027940  TIP3      16530           0.0000000000
     99422     16930  TIP3      H2             54.9061978915       -7.4440055506      -23.6374315409  TIP3      16530           0.0000000000
     99423     16931  TIP3      OH2            45.3394720091       -0.0256717287      -21.8297855868  TIP3      16531           0.0000000000
     99424     16931  TIP3      H1             46.3074311449        0.0848520398      -21.7399487403  TIP3      16531           0.0000000000
     99425     16931  TIP3      H2             45.1386733067        0.5880481393      -22.5369960792  TIP3      16531           0.0000000000
     99426     16932  TIP3      OH2            56.0101346317       -9.6006765958      -21.2270283900  TIP3      16532           0.0000000000
     99427     16932  TIP3      H1             55.4748957051       -9.2154284227      -21.9547983604  TIP3      16532           0.0000000000
     99428     16932  TIP3      H2             55.9409574515       -8.8912980721      -20.5768019491  TIP3      16532           0.0000000000
     99429     16933  TIP3      OH2            54.3308896403      -12.3335255807      -22.6923546069  TIP3      16533           0.0000000000
     99430     16933  TIP3      H1             54.4340198393      -11.6732634240      -23.3787509441  TIP3      16533           0.0000000000
     99431     16933  TIP3      H2             54.1710027126      -13.1519070656      -23.1868146590  TIP3      16533           0.0000000000
     99432     16934  TIP3      OH2            53.5810347496      -14.9035487165      -23.5790946591  TIP3      16534           0.0000000000
     99433     16934  TIP3      H1             54.2002957750      -15.3101138012      -22.9414045288  TIP3      16534           0.0000000000
     99434     16934  TIP3      H2             52.7435877072      -15.3493951076      -23.3909894340  TIP3      16534           0.0000000000
     99435     16935  TIP3      OH2            55.6797768598      -16.0307736877      -22.0311821334  TIP3      16535           0.0000000000
     99436     16935  TIP3      H1             56.1073676531      -16.7658097223      -22.4989010803  TIP3      16535           0.0000000000
     99437     16935  TIP3      H2             56.3857833507      -15.3743439947      -21.9705057893  TIP3      16535           0.0000000000
     99438     16936  TIP3      OH2            40.9589357229       -1.1113040641      -23.0127422058  TIP3      16536           0.0000000000
     99439     16936  TIP3      H1             40.7003759451       -0.8389862331      -22.1160269997  TIP3      16536           0.0000000000
     99440     16936  TIP3      H2             41.7439604916       -1.6710300288      -22.8551046510  TIP3      16536           0.0000000000
     99441     16937  TIP3      OH2           -40.0854133242        0.5965865579      -20.8720180017  TIP3      16537           0.0000000000
     99442     16937  TIP3      H1            -40.9843577804        0.7048227136      -20.5912331257  TIP3      16537           0.0000000000
     99443     16937  TIP3      H2            -39.8061143176        1.4081083664      -21.2794042760  TIP3      16537           0.0000000000
     99444     16938  TIP3      OH2           -43.4566432031       17.7229837140      -21.8254204083  TIP3      16538           0.0000000000
     99445     16938  TIP3      H1            -43.1096197909       16.9489527156      -22.3021781493  TIP3      16538           0.0000000000
     99446     16938  TIP3      H2            -43.5035667435       17.4121352248      -20.9144094629  TIP3      16538           0.0000000000
     99447     16939  TIP3      OH2           -42.2186410133        9.8659841781      -23.1109268976  TIP3      16539           0.0000000000
     99448     16939  TIP3      H1            -42.2343183862        9.6423829278      -24.0515041963  TIP3      16539           0.0000000000
     99449     16939  TIP3      H2            -41.3857893012       10.2923737531      -22.9079815004  TIP3      16539           0.0000000000
     99450     16940  TIP3      OH2           -46.7188763784        3.7775397794      -22.4062084646  TIP3      16540           0.0000000000
     99451     16940  TIP3      H1            -47.0132300904        3.7487743819      -21.4770783228  TIP3      16540           0.0000000000
     99452     16940  TIP3      H2            -47.0135003305        2.8792498668      -22.6827408224  TIP3      16540           0.0000000000
     99453     16941  TIP3      OH2           -49.8595587886        4.1875003009      -23.2852039099  TIP3      16541           0.0000000000
     99454     16941  TIP3      H1            -50.2941345259        3.7563313277      -22.5236312680  TIP3      16541           0.0000000000
     99455     16941  TIP3      H2            -50.5886027374        4.5647098118      -23.7857953660  TIP3      16541           0.0000000000
     99456     16942  TIP3      OH2           -55.3598602714        4.6634660706      -20.8060460474  TIP3      16542           0.0000000000
     99457     16942  TIP3      H1            -54.8349915981        5.2658484300      -21.3733232600  TIP3      16542           0.0000000000
     99458     16942  TIP3      H2            -56.0532606411        5.2234391823      -20.4655812906  TIP3      16542           0.0000000000
     99459     16943  TIP3      OH2           -51.2393150701        7.0114131449      -21.9243375293  TIP3      16543           0.0000000000
     99460     16943  TIP3      H1            -51.7674344078        6.5671356177      -22.5891880183  TIP3      16543           0.0000000000
     99461     16943  TIP3      H2            -50.3886934056        7.1414004959      -22.3287067502  TIP3      16543           0.0000000000
     99462     16944  TIP3      OH2           -43.9784664953        4.3414441591      -21.7326396836  TIP3      16544           0.0000000000
     99463     16944  TIP3      H1            -44.9452881426        4.4439438124      -21.9108435280  TIP3      16544           0.0000000000
     99464     16944  TIP3      H2            -43.7174161412        5.2195274599      -21.4597969657  TIP3      16544           0.0000000000
     99465     16945  TIP3      OH2           -54.6513515483        9.1920861270      -22.2242169468  TIP3      16545           0.0000000000
     99466     16945  TIP3      H1            -54.0373321646        9.8129052357      -21.7924356169  TIP3      16545           0.0000000000
     99467     16945  TIP3      H2            -55.5115028170        9.5256332811      -21.9293246649  TIP3      16545           0.0000000000
     99468     16946  TIP3      OH2           -42.6925588007       13.1879695962      -22.1364396495  TIP3      16546           0.0000000000
     99469     16946  TIP3      H1            -42.3444211720       12.8283173428      -21.3134967649  TIP3      16546           0.0000000000
     99470     16946  TIP3      H2            -43.6435803981       13.1193995260      -22.0279128209  TIP3      16546           0.0000000000
     99471     16947  TIP3      OH2           -48.5815610782       14.3224730577      -23.6696591464  TIP3      16547           0.0000000000
     99472     16947  TIP3      H1            -48.4063920436       13.5530075848      -24.2356730461  TIP3      16547           0.0000000000
     99473     16947  TIP3      H2            -48.9203161256       13.9062988428      -22.8537234072  TIP3      16547           0.0000000000
     99474     16948  TIP3      OH2           -49.6633309380       13.8574509803      -21.2272017419  TIP3      16548           0.0000000000
     99475     16948  TIP3      H1            -49.5364257850       13.3676934744      -20.4140933781  TIP3      16548           0.0000000000
     99476     16948  TIP3      H2            -49.6828737986       14.7604989893      -20.8990187443  TIP3      16548           0.0000000000
     99477     16949  TIP3      OH2           -52.6297661089       13.7558701026      -21.8355737760  TIP3      16549           0.0000000000
     99478     16949  TIP3      H1            -52.0163837502       14.4131950244      -21.5327590332  TIP3      16549           0.0000000000
     99479     16949  TIP3      H2            -52.1452921522       13.2851919602      -22.5312199087  TIP3      16549           0.0000000000
     99480     16950  TIP3      OH2           -54.2865442736        6.4072214879      -22.7262275924  TIP3      16550           0.0000000000
     99481     16950  TIP3      H1            -54.3358129113        7.3499416118      -22.4611544309  TIP3      16550           0.0000000000
     99482     16950  TIP3      H2            -55.1931904102        6.1897415263      -22.9561728730  TIP3      16550           0.0000000000
     99483     16951  TIP3      OH2           -46.5745353661       16.1807833410      -23.5562829845  TIP3      16551           0.0000000000
     99484     16951  TIP3      H1            -47.2166449948       15.5304176035      -23.2284080508  TIP3      16551           0.0000000000
     99485     16951  TIP3      H2            -45.8148162283       15.6286916419      -23.7568063572  TIP3      16551           0.0000000000
     99486     16952  TIP3      OH2           -41.9798475960       15.9608293030      -23.3243828270  TIP3      16552           0.0000000000
     99487     16952  TIP3      H1            -41.6858974237       15.1865724579      -22.8314469539  TIP3      16552           0.0000000000
     99488     16952  TIP3      H2            -41.2241298431       16.2035877614      -23.8794725541  TIP3      16552           0.0000000000
     99489     16953  TIP3      OH2           -51.0371734971       11.8993308479      -23.4682651960  TIP3      16553           0.0000000000
     99490     16953  TIP3      H1            -50.9764468667       11.1051269422      -22.9275728144  TIP3      16553           0.0000000000
     99491     16953  TIP3      H2            -50.3452133188       11.7703748728      -24.1384299808  TIP3      16553           0.0000000000
     99492     16954  TIP3      OH2           -45.6391280483       12.9474110769      -23.6873760427  TIP3      16554           0.0000000000
     99493     16954  TIP3      H1            -45.9597118682       13.1317587144      -22.8109437452  TIP3      16554           0.0000000000
     99494     16954  TIP3      H2            -45.8779271129       12.0156642596      -23.8620161935  TIP3      16554           0.0000000000
     99495     16955  TIP3      OH2           -48.7930931441        8.1338547883      -22.8546337845  TIP3      16555           0.0000000000
     99496     16955  TIP3      H1            -48.9877058612        7.9710843395      -23.8055141110  TIP3      16555           0.0000000000
     99497     16955  TIP3      H2            -47.8491657051        8.1777316437      -22.8757116548  TIP3      16555           0.0000000000
     99498     16956  TIP3      OH2           -39.4170515246       10.4501398342      -23.4566593338  TIP3      16556           0.0000000000
     99499     16956  TIP3      H1            -39.6861923190       10.0390453487      -24.2793476290  TIP3      16556           0.0000000000
     99500     16956  TIP3      H2            -39.3728024255       11.4053198536      -23.6549551556  TIP3      16556           0.0000000000
     99501     16957  TIP3      OH2           -38.2674885649        9.2838205327      -21.2638022758  TIP3      16557           0.0000000000
     99502     16957  TIP3      H1            -38.8314182016        9.6620991497      -21.9604748452  TIP3      16557           0.0000000000
     99503     16957  TIP3      H2            -38.3356824165        9.9351599130      -20.5383706597  TIP3      16557           0.0000000000
     99504     16958  TIP3      OH2           -39.9422731135        6.5063361569      -22.6999961307  TIP3      16558           0.0000000000
     99505     16958  TIP3      H1            -39.8419333482        7.1912492327      -23.3758696699  TIP3      16558           0.0000000000
     99506     16958  TIP3      H2            -40.0888055812        5.7041490241      -23.2096702816  TIP3      16558           0.0000000000
     99507     16959  TIP3      OH2           -40.7023729321        3.9596617924      -23.5570677111  TIP3      16559           0.0000000000
     99508     16959  TIP3      H1            -40.0799073905        3.5314073550      -22.9802398549  TIP3      16559           0.0000000000
     99509     16959  TIP3      H2            -41.5502440386        3.5034998037      -23.4155877950  TIP3      16559           0.0000000000
     99510     16960  TIP3      OH2           -53.3165279849       17.7543771390      -23.0016716292  TIP3      16560           0.0000000000
     99511     16960  TIP3      H1            -53.5771878638       18.0071879796      -22.1245869253  TIP3      16560           0.0000000000
     99512     16960  TIP3      H2            -52.5453245424       17.1643166259      -22.8692247562  TIP3      16560           0.0000000000
     99513     16961  TIP3      OH2           -21.2381267367        0.5763179168      -20.9067498474  TIP3      16561           0.0000000000
     99514     16961  TIP3      H1            -22.1218151960        0.7077681652      -20.5605232649  TIP3      16561           0.0000000000
     99515     16961  TIP3      H2            -20.9550452478        1.4273184715      -21.2561691553  TIP3      16561           0.0000000000
     99516     16962  TIP3      OH2           -20.0550467988       14.9765628473      -22.5155813213  TIP3      16562           0.0000000000
     99517     16962  TIP3      H1            -19.9325851062       15.8941322157      -22.3252765038  TIP3      16562           0.0000000000
     99518     16962  TIP3      H2            -19.1394382418       14.6255649498      -22.5322403215  TIP3      16562           0.0000000000
     99519     16963  TIP3      OH2           -23.4621909166        9.8792184649      -23.0245467329  TIP3      16563           0.0000000000
     99520     16963  TIP3      H1            -23.4035448206        9.6569547919      -23.9755380450  TIP3      16563           0.0000000000
     99521     16963  TIP3      H2            -22.5927999751       10.2807785857      -22.8523658268  TIP3      16563           0.0000000000
     99522     16964  TIP3      OH2           -27.8368934493        3.7739994806      -22.3983303791  TIP3      16564           0.0000000000
     99523     16964  TIP3      H1            -28.1548299178        3.7507179842      -21.4846000114  TIP3      16564           0.0000000000
     99524     16964  TIP3      H2            -28.1566960112        2.8867892819      -22.6878310283  TIP3      16564           0.0000000000
     99525     16965  TIP3      OH2           -31.0017494836        4.2056609750      -23.2976092824  TIP3      16565           0.0000000000
     99526     16965  TIP3      H1            -31.4035176094        3.7421973007      -22.5396664919  TIP3      16565           0.0000000000
     99527     16965  TIP3      H2            -31.7351476444        4.5783813545      -23.7924604074  TIP3      16565           0.0000000000
     99528     16966  TIP3      OH2           -35.7621749386        9.2118787091      -22.2323271198  TIP3      16566           0.0000000000
     99529     16966  TIP3      H1            -35.1904972407        9.8438656078      -21.7880747796  TIP3      16566           0.0000000000
     99530     16966  TIP3      H2            -36.6556157971        9.5064993590      -21.9120288070  TIP3      16566           0.0000000000
     99531     16967  TIP3      OH2           -23.8300652356       13.2055842842      -22.1437913269  TIP3      16567           0.0000000000
     99532     16967  TIP3      H1            -23.5018882945       12.8119950038      -21.3163012561  TIP3      16567           0.0000000000
     99533     16967  TIP3      H2            -24.7848777006       13.0865743833      -22.0241621221  TIP3      16567           0.0000000000
     99534     16968  TIP3      OH2           -29.7216297417       14.3177988966      -23.6722034838  TIP3      16568           0.0000000000
     99535     16968  TIP3      H1            -29.5430479130       13.5457483319      -24.2284715233  TIP3      16568           0.0000000000
     99536     16968  TIP3      H2            -30.0591006015       13.9045121085      -22.8514877634  TIP3      16568           0.0000000000
     99537     16969  TIP3      OH2           -30.8217388970       13.8574542694      -21.2176020250  TIP3      16569           0.0000000000
     99538     16969  TIP3      H1            -30.6681308077       13.3672037416      -20.4124241571  TIP3      16569           0.0000000000
     99539     16969  TIP3      H2            -30.8320581813       14.7719694439      -20.9131314891  TIP3      16569           0.0000000000
     99540     16970  TIP3      OH2           -28.0984299343       15.6046554821      -20.4382168425  TIP3      16570           0.0000000000
     99541     16970  TIP3      H1            -28.9248799798       16.0726260932      -20.4548168479  TIP3      16570           0.0000000000
     99542     16970  TIP3      H2            -27.5630707762       16.0266036672      -21.1260540771  TIP3      16570           0.0000000000
     99543     16971  TIP3      OH2           -33.7732984836       13.7350954101      -21.8118172512  TIP3      16571           0.0000000000
     99544     16971  TIP3      H1            -33.1604758983       14.4281080197      -21.5491056656  TIP3      16571           0.0000000000
     99545     16971  TIP3      H2            -33.2927126298       13.3072722617      -22.5381484013  TIP3      16571           0.0000000000
     99546     16972  TIP3      OH2           -35.4378476303        6.4055260379      -22.6942904720  TIP3      16572           0.0000000000
     99547     16972  TIP3      H1            -35.4896525420        7.3572940279      -22.5100095759  TIP3      16572           0.0000000000
     99548     16972  TIP3      H2            -36.3316888465        6.1833781073      -22.9523596379  TIP3      16572           0.0000000000
     99549     16973  TIP3      OH2           -27.7047223243       16.1921911718      -23.5064605615  TIP3      16573           0.0000000000
     99550     16973  TIP3      H1            -28.3725712865       15.5277888216      -23.2380871390  TIP3      16573           0.0000000000
     99551     16973  TIP3      H2            -26.9665765052       15.6224883758      -23.7705914863  TIP3      16573           0.0000000000
     99552     16974  TIP3      OH2           -23.1113145276       15.9892050244      -23.3121878001  TIP3      16574           0.0000000000
     99553     16974  TIP3      H1            -22.8440298507       15.1737774142      -22.8485128652  TIP3      16574           0.0000000000
     99554     16974  TIP3      H2            -22.3653853076       16.1804735115      -23.8906007759  TIP3      16574           0.0000000000
     99555     16975  TIP3      OH2           -32.1757367000       11.9099947278      -23.4408015629  TIP3      16575           0.0000000000
     99556     16975  TIP3      H1            -32.1127649430       11.0991698348      -22.9548431932  TIP3      16575           0.0000000000
     99557     16975  TIP3      H2            -31.5047121843       11.7730597892      -24.1410201743  TIP3      16575           0.0000000000
     99558     16976  TIP3      OH2           -26.7892509074       12.9638805718      -23.6994388263  TIP3      16576           0.0000000000
     99559     16976  TIP3      H1            -27.0901200709       13.1121189862      -22.8042852541  TIP3      16576           0.0000000000
     99560     16976  TIP3      H2            -27.0112663243       12.0196672740      -23.8603762883  TIP3      16576           0.0000000000
     99561     16977  TIP3      OH2           -29.9432206291        8.1617062960      -22.8629544485  TIP3      16577           0.0000000000
     99562     16977  TIP3      H1            -30.1330308171        7.9539290005      -23.8135213103  TIP3      16577           0.0000000000
     99563     16977  TIP3      H2            -28.9876317315        8.1777719329      -22.8790616107  TIP3      16577           0.0000000000
     99564     16978  TIP3      OH2           -20.5686743677       10.4452875226      -23.4469161279  TIP3      16578           0.0000000000
     99565     16978  TIP3      H1            -20.8275607371       10.0458220748      -24.2755838522  TIP3      16578           0.0000000000
     99566     16978  TIP3      H2            -20.5166314218       11.4030080131      -23.6342042650  TIP3      16578           0.0000000000
     99567     16979  TIP3      OH2           -36.5121030527       13.4308023864      -22.4139638562  TIP3      16579           0.0000000000
     99568     16979  TIP3      H1            -35.5824069478       13.5169854252      -22.1185692940  TIP3      16579           0.0000000000
     99569     16979  TIP3      H2            -36.4736017921       12.7301863878      -23.0794801093  TIP3      16579           0.0000000000
     99570     16980  TIP3      OH2           -21.0258751193        6.5361884480      -22.7543757396  TIP3      16580           0.0000000000
     99571     16980  TIP3      H1            -20.9826259273        7.2114846945      -23.4177948943  TIP3      16580           0.0000000000
     99572     16980  TIP3      H2            -21.2224145926        5.6964270551      -23.1932599047  TIP3      16580           0.0000000000
     99573     16981  TIP3      OH2           -21.8364685303        3.9596748580      -23.5561622286  TIP3      16581           0.0000000000
     99574     16981  TIP3      H1            -21.2094317112        3.5394295131      -22.9356866962  TIP3      16581           0.0000000000
     99575     16981  TIP3      H2            -22.6754627102        3.5002248026      -23.4042822274  TIP3      16581           0.0000000000
     99576     16982  TIP3      OH2           -19.7498377941        2.8133086385      -22.0709288565  TIP3      16582           0.0000000000
     99577     16982  TIP3      H1            -19.3052327046        2.0774223534      -22.5244853094  TIP3      16582           0.0000000000
     99578     16982  TIP3      H2            -19.0472909073        3.4720237826      -21.9407925931  TIP3      16582           0.0000000000
     99579     16983  TIP3      OH2           -34.3098845615        2.7997668364      -22.4799831979  TIP3      16583           0.0000000000
     99580     16983  TIP3      H1            -33.8310446949        2.1416199361      -23.0021363027  TIP3      16583           0.0000000000
     99581     16983  TIP3      H2            -33.6760366128        3.0712856847      -21.8145430084  TIP3      16583           0.0000000000
     99582     16984  TIP3      OH2           -34.4695036910       17.7445299013      -23.0424056465  TIP3      16584           0.0000000000
     99583     16984  TIP3      H1            -34.7089088129       18.0189575379      -22.1307074798  TIP3      16584           0.0000000000
     99584     16984  TIP3      H2            -33.6924672262       17.1918542542      -22.8331338793  TIP3      16584           0.0000000000
     99585     16985  TIP3      OH2            -1.1948476239       14.9465182942      -22.5232427803  TIP3      16585           0.0000000000
     99586     16985  TIP3      H1             -1.0925897438       15.8919795328      -22.3028044576  TIP3      16585           0.0000000000
     99587     16985  TIP3      H2             -0.2696405865       14.6531755320      -22.5226052622  TIP3      16585           0.0000000000
     99588     16986  TIP3      OH2            -5.7366608088       17.7264206099      -21.8450753885  TIP3      16586           0.0000000000
     99589     16986  TIP3      H1             -5.3864884485       16.9224249073      -22.2942686522  TIP3      16586           0.0000000000
     99590     16986  TIP3      H2             -5.7650801218       17.3977197382      -20.9222053792  TIP3      16586           0.0000000000
     99591     16987  TIP3      OH2            -4.6244864395        9.8825380691      -23.0261665499  TIP3      16587           0.0000000000
     99592     16987  TIP3      H1             -4.5389477010        9.6283838863      -23.9646041635  TIP3      16587           0.0000000000
     99593     16987  TIP3      H2             -3.7443594894       10.2785225554      -22.8652128574  TIP3      16587           0.0000000000
     99594     16988  TIP3      OH2            -9.0151346723        3.7734922649      -22.3919180232  TIP3      16588           0.0000000000
     99595     16988  TIP3      H1             -9.2640385131        3.7375911369      -21.4647356204  TIP3      16588           0.0000000000
     99596     16988  TIP3      H2             -9.2711233297        2.8707362037      -22.6868233499  TIP3      16588           0.0000000000
     99597     16989  TIP3      OH2           -12.1461079564        4.1582622436      -23.2738578551  TIP3      16589           0.0000000000
     99598     16989  TIP3      H1            -12.5946909364        3.7552773954      -22.5382086787  TIP3      16589           0.0000000000
     99599     16989  TIP3      H2            -12.8616769631        4.5867776573      -23.7839849449  TIP3      16589           0.0000000000
     99600     16990  TIP3      OH2           -17.6316687976        4.6564139726      -20.8391889345  TIP3      16590           0.0000000000
     99601     16990  TIP3      H1            -17.1418920367        5.2879441125      -21.3893384932  TIP3      16590           0.0000000000
     99602     16990  TIP3      H2            -18.3424363274        5.2026520149      -20.4565919675  TIP3      16590           0.0000000000
     99603     16991  TIP3      OH2            -6.3052557094        4.3525607704      -21.7658946500  TIP3      16591           0.0000000000
     99604     16991  TIP3      H1             -7.2512140122        4.4419884898      -21.9258672434  TIP3      16591           0.0000000000
     99605     16991  TIP3      H2             -5.9560390031        5.1779634557      -21.4528242644  TIP3      16591           0.0000000000
     99606     16992  TIP3      OH2           -16.9450172962        9.2000034665      -22.2183444351  TIP3      16592           0.0000000000
     99607     16992  TIP3      H1            -16.3165118191        9.8182992939      -21.7885177154  TIP3      16592           0.0000000000
     99608     16992  TIP3      H2            -17.8087890052        9.5347521751      -21.9139606059  TIP3      16592           0.0000000000
     99609     16993  TIP3      OH2            -4.9829332104       13.1856002670      -22.1517358111  TIP3      16593           0.0000000000
     99610     16993  TIP3      H1             -4.6341456617       12.8434215721      -21.3140988680  TIP3      16593           0.0000000000
     99611     16993  TIP3      H2             -5.9284265057       13.1089411622      -22.0284180462  TIP3      16593           0.0000000000
     99612     16994  TIP3      OH2            -0.5012380648       17.6464999595      -21.9420350595  TIP3      16594           0.0000000000
     99613     16994  TIP3      H1              0.2524646949       18.2458378118      -22.0457443477  TIP3      16594           0.0000000000
     99614     16994  TIP3      H2             -1.1788984255       18.2200349552      -21.5749939025  TIP3      16594           0.0000000000
     99615     16995  TIP3      OH2           -10.8648062085       14.3117404942      -23.6411813270  TIP3      16595           0.0000000000
     99616     16995  TIP3      H1            -10.6979499939       13.5624019236      -24.2314180839  TIP3      16595           0.0000000000
     99617     16995  TIP3      H2            -11.2044108148       13.9011962078      -22.8492805336  TIP3      16595           0.0000000000
     99618     16996  TIP3      OH2           -15.4217325055       11.0644976939      -20.7475957648  TIP3      16596           0.0000000000
     99619     16996  TIP3      H1            -16.1470820193       11.3688132403      -20.1772021521  TIP3      16596           0.0000000000
     99620     16996  TIP3      H2            -14.9778683230       11.8829762566      -20.9806984352  TIP3      16596           0.0000000000
     99621     16997  TIP3      OH2           -14.9227513929       13.7268015618      -21.8089144431  TIP3      16597           0.0000000000
     99622     16997  TIP3      H1            -14.3039220021       14.4246863516      -21.5500867840  TIP3      16597           0.0000000000
     99623     16997  TIP3      H2            -14.4345459117       13.2957010559      -22.5355222793  TIP3      16597           0.0000000000
     99624     16998  TIP3      OH2           -16.5814619654        6.3953957283      -22.7121033840  TIP3      16598           0.0000000000
     99625     16998  TIP3      H1            -16.6208972877        7.3535566368      -22.4934982245  TIP3      16598           0.0000000000
     99626     16998  TIP3      H2            -17.4836301892        6.1946359998      -22.9544038760  TIP3      16598           0.0000000000
     99627     16999  TIP3      OH2            -8.8462668059       16.1870800391      -23.5423815232  TIP3      16599           0.0000000000
     99628     16999  TIP3      H1             -9.5132236490       15.5427939064      -23.2289949861  TIP3      16599           0.0000000000
     99629     16999  TIP3      H2             -8.1054912333       15.6190194441      -23.7692549313  TIP3      16599           0.0000000000
     99630     17000  TIP3      OH2            -4.2816931768       15.9677754730      -23.3256710255  TIP3      16600           0.0000000000
     99631     17000  TIP3      H1             -3.9686211811       15.1858698274      -22.8372092018  TIP3      16600           0.0000000000
     99632     17000  TIP3      H2             -3.5139205154       16.1872565307      -23.8740989930  TIP3      16600           0.0000000000
     99633     17001  TIP3      OH2           -13.3126463073       11.9245485671      -23.4331122286  TIP3      16601           0.0000000000
     99634     17001  TIP3      H1            -13.2645515025       11.0911150051      -22.9360503193  TIP3      16601           0.0000000000
     99635     17001  TIP3      H2            -12.6521809008       11.7578353930      -24.1344499601  TIP3      16601           0.0000000000
     99636     17002  TIP3      OH2            -7.9310598230       12.9415410819      -23.7152042492  TIP3      16602           0.0000000000
     99637     17002  TIP3      H1             -8.2299326609       13.1314774006      -22.8224996240  TIP3      16602           0.0000000000
     99638     17002  TIP3      H2             -8.1657502373       12.0044558989      -23.8500656579  TIP3      16602           0.0000000000
     99639     17003  TIP3      OH2           -11.0656323757        8.1326050909      -22.8694372571  TIP3      16603           0.0000000000
     99640     17003  TIP3      H1            -11.2944167484        7.9582290214      -23.8075421678  TIP3      16603           0.0000000000
     99641     17003  TIP3      H2            -10.1328271944        8.1817697502      -22.8641418010  TIP3      16603           0.0000000000
     99642     17004  TIP3      OH2            -1.7050272460       10.4638023200      -23.4383723045  TIP3      16604           0.0000000000
     99643     17004  TIP3      H1             -1.9646056911       10.0395950139      -24.2591470119  TIP3      16604           0.0000000000
     99644     17004  TIP3      H2             -1.6623206843       11.4126837172      -23.6494274450  TIP3      16604           0.0000000000
     99645     17005  TIP3      OH2           -11.2305426047       18.8042923186      -21.8511945262  TIP3      16605           0.0000000000
     99646     17005  TIP3      H1            -10.2729750795       18.9284380082      -21.7123664518  TIP3      16605           0.0000000000
     99647     17005  TIP3      H2            -11.4244864040       19.4592399395      -22.5184972147  TIP3      16605           0.0000000000
     99648     17006  TIP3      OH2           -17.6360594866       13.4784933449      -22.4440539930  TIP3      16606           0.0000000000
     99649     17006  TIP3      H1            -16.7089334542       13.5042022885      -22.1412773681  TIP3      16606           0.0000000000
     99650     17006  TIP3      H2            -17.6232120063       12.7274283548      -23.0750781522  TIP3      16606           0.0000000000
     99651     17007  TIP3      OH2            -2.2151440176        6.5268293330      -22.7230647370  TIP3      16607           0.0000000000
     99652     17007  TIP3      H1             -2.1273491336        7.1927107351      -23.3926647274  TIP3      16607           0.0000000000
     99653     17007  TIP3      H2             -2.3758027522        5.6942589052      -23.1786571482  TIP3      16607           0.0000000000
     99654     17008  TIP3      OH2            -2.9795283065        3.9468112208      -23.5853654502  TIP3      16608           0.0000000000
     99655     17008  TIP3      H1             -2.3618745365        3.5520618093      -22.9304361929  TIP3      16608           0.0000000000
     99656     17008  TIP3      H2             -3.8175128056        3.5080023866      -23.3764699686  TIP3      16608           0.0000000000
     99657     17009  TIP3      OH2            -0.8994303420        2.8335507352      -22.0497874783  TIP3      16609           0.0000000000
     99658     17009  TIP3      H1             -0.4523325243        2.0965474975      -22.4921802462  TIP3      16609           0.0000000000
     99659     17009  TIP3      H2             -0.1905679612        3.4746611108      -21.9612175952  TIP3      16609           0.0000000000
     99660     17010  TIP3      OH2           -17.3231170040        0.8705448817      -20.9566667032  TIP3      16610           0.0000000000
     99661     17010  TIP3      H1            -16.8610330169        1.4883585266      -21.5190746410  TIP3      16610           0.0000000000
     99662     17010  TIP3      H2            -17.9452726955        1.4022085412      -20.4378467915  TIP3      16610           0.0000000000
     99663     17011  TIP3      OH2           -15.4654667408        2.7761515959      -22.4881713238  TIP3      16611           0.0000000000
     99664     17011  TIP3      H1            -14.9674832794        2.1424037889      -23.0244135557  TIP3      16611           0.0000000000
     99665     17011  TIP3      H2            -14.8411941940        3.0703890491      -21.8291158429  TIP3      16611           0.0000000000
     99666     17012  TIP3      OH2            -8.5615623885       18.0645188128      -21.6334521936  TIP3      16612           0.0000000000
     99667     17012  TIP3      H1             -7.6722512775       18.3514108921      -21.8232446071  TIP3      16612           0.0000000000
     99668     17012  TIP3      H2             -8.7919324449       17.5585258568      -22.4337988411  TIP3      16612           0.0000000000
     99669     17013  TIP3      OH2           -15.6248782169       17.7220761052      -23.0148352082  TIP3      16613           0.0000000000
     99670     17013  TIP3      H1            -15.8518925014       18.0258364729      -22.1216510186  TIP3      16613           0.0000000000
     99671     17013  TIP3      H2            -14.8219690510       17.1923398160      -22.8469279268  TIP3      16613           0.0000000000
     99672     17014  TIP3      OH2            17.6526281204       14.9466660216      -22.5451048654  TIP3      16614           0.0000000000
     99673     17014  TIP3      H1             17.7718131726       15.8848068981      -22.2938261682  TIP3      16614           0.0000000000
     99674     17014  TIP3      H2             18.5777928787       14.6513635322      -22.4984016832  TIP3      16614           0.0000000000
     99675     17015  TIP3      OH2             6.7161005552        4.2058821207      -23.2999995459  TIP3      16615           0.0000000000
     99676     17015  TIP3      H1              6.2831909989        3.7529482097      -22.5448163545  TIP3      16615           0.0000000000
     99677     17015  TIP3      H2              5.9836288104        4.5807006714      -23.7943345104  TIP3      16615           0.0000000000
     99678     17016  TIP3      OH2             5.3557050685        6.9243791497      -21.9098284951  TIP3      16616           0.0000000000
     99679     17016  TIP3      H1              4.7924181706        6.5990552089      -22.6170450209  TIP3      16616           0.0000000000
     99680     17016  TIP3      H2              6.1763330723        7.1697151430      -22.3481372085  TIP3      16616           0.0000000000
     99681     17017  TIP3      OH2            10.7616371879       12.9926713069      -20.9953186977  TIP3      16617           0.0000000000
     99682     17017  TIP3      H1             10.5220143679       13.7999427426      -20.5246900073  TIP3      16617           0.0000000000
     99683     17017  TIP3      H2             10.1048611221       12.3540293119      -20.7014800193  TIP3      16617           0.0000000000
     99684     17018  TIP3      OH2            13.8802675183       13.1619826535      -22.1614959265  TIP3      16618           0.0000000000
     99685     17018  TIP3      H1             14.2056804730       12.8359983244      -21.3109421582  TIP3      16618           0.0000000000
     99686     17018  TIP3      H2             12.9255425936       13.0972152813      -22.0165118404  TIP3      16618           0.0000000000
     99687     17019  TIP3      OH2            18.3291226857       17.6587419077      -21.9713171555  TIP3      16619           0.0000000000
     99688     17019  TIP3      H1             19.1001142545       18.2444429694      -22.0341491723  TIP3      16619           0.0000000000
     99689     17019  TIP3      H2             17.6735500348       18.2232219515      -21.5718864227  TIP3      16619           0.0000000000
     99690     17020  TIP3      OH2             7.9823744403       14.3253022027      -23.6477324746  TIP3      16620           0.0000000000
     99691     17020  TIP3      H1              8.1673765659       13.5587686976      -24.2373898521  TIP3      16620           0.0000000000
     99692     17020  TIP3      H2              7.6573003764       13.8688100917      -22.8711776604  TIP3      16620           0.0000000000
     99693     17021  TIP3      OH2             3.3237752998       11.1368986656      -20.7099572027  TIP3      16621           0.0000000000
     99694     17021  TIP3      H1              2.6469040912       11.4759188021      -20.1471444687  TIP3      16621           0.0000000000
     99695     17021  TIP3      H2              3.8825584490       11.8713409291      -20.9687141280  TIP3      16621           0.0000000000
     99696     17022  TIP3      OH2             5.6716362938        3.2905234793      -20.8808721811  TIP3      16622           0.0000000000
     99697     17022  TIP3      H1              5.6165404709        4.1988709162      -20.5240492355  TIP3      16622           0.0000000000
     99698     17022  TIP3      H2              6.5870946603        3.0486867581      -20.6288137357  TIP3      16622           0.0000000000
     99699     17023  TIP3      OH2             9.9837563950       16.1807635830      -23.5185729788  TIP3      16623           0.0000000000
     99700     17023  TIP3      H1              9.3470357813       15.5096366520      -23.2527640666  TIP3      16623           0.0000000000
     99701     17023  TIP3      H2             10.7577230797       15.6404246944      -23.7638568944  TIP3      16623           0.0000000000
     99702     17024  TIP3      OH2             5.5376511724       11.9152406185      -23.4459988900  TIP3      16624           0.0000000000
     99703     17024  TIP3      H1              5.6114634936       11.1029112365      -22.9046598499  TIP3      16624           0.0000000000
     99704     17024  TIP3      H2              6.2148847832       11.7568005473      -24.1321306138  TIP3      16624           0.0000000000
     99705     17025  TIP3      OH2            10.8934889205       12.9688289196      -23.7286767939  TIP3      16625           0.0000000000
     99706     17025  TIP3      H1             10.6515775083       13.0886990752      -22.7994605981  TIP3      16625           0.0000000000
     99707     17025  TIP3      H2             10.7007645922       12.0134612592      -23.8490841204  TIP3      16625           0.0000000000
     99708     17026  TIP3      OH2             6.6465700210        9.8928385367      -21.1601450034  TIP3      16626           0.0000000000
     99709     17026  TIP3      H1              6.2536005119        9.3695083223      -20.4392120769  TIP3      16626           0.0000000000
     99710     17026  TIP3      H2              6.9549074063        9.1894045562      -21.7610308819  TIP3      16626           0.0000000000
     99711     17027  TIP3      OH2             7.7601605106        8.0973205638      -22.8865987756  TIP3      16627           0.0000000000
     99712     17027  TIP3      H1              7.5887319639        7.9718817012      -23.8317041665  TIP3      16627           0.0000000000
     99713     17027  TIP3      H2              8.7146970096        8.2101871087      -22.8267007726  TIP3      16627           0.0000000000
     99714     17028  TIP3      OH2            17.1693647731       10.4483558294      -23.4368328965  TIP3      16628           0.0000000000
     99715     17028  TIP3      H1             16.8712439176       10.0478481364      -24.2549695790  TIP3      16628           0.0000000000
     99716     17028  TIP3      H2             17.1871543594       11.3978816790      -23.6491745807  TIP3      16628           0.0000000000
     99717     17029  TIP3      OH2             1.1935824591       13.4250298639      -22.3791886365  TIP3      16629           0.0000000000
     99718     17029  TIP3      H1              2.1256123718       13.4972074722      -22.1436852885  TIP3      16629           0.0000000000
     99719     17029  TIP3      H2              1.2285637821       12.7293287474      -23.0712958990  TIP3      16629           0.0000000000
     99720     17030  TIP3      OH2            16.6008194617        6.5070708924      -22.7350393303  TIP3      16630           0.0000000000
     99721     17030  TIP3      H1             16.7248637494        7.1925333055      -23.3958887367  TIP3      16630           0.0000000000
     99722     17030  TIP3      H2             16.4758596000        5.6859318141      -23.2129100844  TIP3      16630           0.0000000000
     99723     17031  TIP3      OH2            15.8781505936        3.9538980437      -23.5639931026  TIP3      16631           0.0000000000
     99724     17031  TIP3      H1             16.5054811365        3.5466596041      -22.9387556454  TIP3      16631           0.0000000000
     99725     17031  TIP3      H2             15.0376207402        3.5074389282      -23.3972704210  TIP3      16631           0.0000000000
     99726     17032  TIP3      OH2            17.9504696551        2.8370167304      -22.0298289578  TIP3      16632           0.0000000000
     99727     17032  TIP3      H1             18.3906044703        2.0892151724      -22.4981191720  TIP3      16632           0.0000000000
     99728     17032  TIP3      H2             18.6704587036        3.4760363235      -21.9664350480  TIP3      16632           0.0000000000
     99729     17033  TIP3      OH2             3.4150401679        2.8234032119      -22.5015355558  TIP3      16633           0.0000000000
     99730     17033  TIP3      H1              3.8915999125        2.1473289225      -23.0089553796  TIP3      16633           0.0000000000
     99731     17033  TIP3      H2              4.0498716750        3.0529171666      -21.8008320383  TIP3      16633           0.0000000000
     99732     17034  TIP3      OH2             3.2448789370       17.7340261766      -23.0160288012  TIP3      16634           0.0000000000
     99733     17034  TIP3      H1              2.9906019651       18.0105834799      -22.1256056805  TIP3      16634           0.0000000000
     99734     17034  TIP3      H2              4.0266732520       17.1849944499      -22.8488101900  TIP3      16634           0.0000000000
     99735     17035  TIP3      OH2            36.5248957384       14.9465261642      -22.5453864851  TIP3      16635           0.0000000000
     99736     17035  TIP3      H1             36.6161145157       15.8871176495      -22.3044242320  TIP3      16635           0.0000000000
     99737     17035  TIP3      H2             37.4452096349       14.6537858369      -22.5093032392  TIP3      16635           0.0000000000
     99738     17036  TIP3      OH2            33.1150630747        9.8508459560      -23.0045710433  TIP3      16636           0.0000000000
     99739     17036  TIP3      H1             33.1524607393        9.6655170962      -23.9807383107  TIP3      16636           0.0000000000
     99740     17036  TIP3      H2             33.9645996057       10.3057036469      -22.8794792045  TIP3      16636           0.0000000000
     99741     17037  TIP3      OH2            28.6880663019        3.7850426420      -22.4048023101  TIP3      16637           0.0000000000
     99742     17037  TIP3      H1             28.4278777005        3.7386718819      -21.4742820071  TIP3      16637           0.0000000000
     99743     17037  TIP3      H2             28.4173803351        2.8776536116      -22.6818526582  TIP3      16637           0.0000000000
     99744     17038  TIP3      OH2            25.5731986021        4.2072448944      -23.2858624802  TIP3      16638           0.0000000000
     99745     17038  TIP3      H1             25.1422585095        3.7460757268      -22.5429483651  TIP3      16638           0.0000000000
     99746     17038  TIP3      H2             24.8347282878        4.5753223308      -23.7852292860  TIP3      16638           0.0000000000
     99747     17039  TIP3      OH2            24.1965292246        6.9787581424      -21.8944043794  TIP3      16639           0.0000000000
     99748     17039  TIP3      H1             23.6533297288        6.5837384569      -22.5902529884  TIP3      16639           0.0000000000
     99749     17039  TIP3      H2             25.0263927277        7.1590598878      -22.3415987069  TIP3      16639           0.0000000000
     99750     17040  TIP3      OH2            31.4314956543        4.3449625103      -21.8057083739  TIP3      16640           0.0000000000
     99751     17040  TIP3      H1             30.4676279638        4.4324922622      -21.9061240420  TIP3      16640           0.0000000000
     99752     17040  TIP3      H2             31.7087376311        5.1889699461      -21.4211942824  TIP3      16640           0.0000000000
     99753     17041  TIP3      OH2            32.1542429679        6.2078313203      -20.1680763488  TIP3      16641           0.0000000000
     99754     17041  TIP3      H1             33.0122775516        6.0857336590      -19.7632993373  TIP3      16641           0.0000000000
     99755     17041  TIP3      H2             32.2190753129        7.0308239228      -20.6227018795  TIP3      16641           0.0000000000
     99756     17042  TIP3      OH2            29.6392628234       12.9891353742      -20.9855564517  TIP3      16642           0.0000000000
     99757     17042  TIP3      H1             29.3671112791       13.8065450303      -20.5445184871  TIP3      16642           0.0000000000
     99758     17042  TIP3      H2             28.9485348811       12.3650254496      -20.7130583773  TIP3      16642           0.0000000000
     99759     17043  TIP3      OH2            32.7383716207       13.1854152481      -22.1449824053  TIP3      16643           0.0000000000
     99760     17043  TIP3      H1             33.0737863747       12.8333056711      -21.3120642858  TIP3      16643           0.0000000000
     99761     17043  TIP3      H2             31.7745597525       13.1021540471      -22.0338044354  TIP3      16643           0.0000000000
     99762     17044  TIP3      OH2            37.1910386775       17.6441027867      -21.9497227736  TIP3      16644           0.0000000000
     99763     17044  TIP3      H1             37.9546177225       18.2412438490      -22.0371203234  TIP3      16644           0.0000000000
     99764     17044  TIP3      H2             36.5120365197       18.2342871575      -21.5699154642  TIP3      16644           0.0000000000
     99765     17045  TIP3      OH2            26.8531678800       14.3207660242      -23.6714468720  TIP3      16645           0.0000000000
     99766     17045  TIP3      H1             27.0192757178       13.5496815581      -24.2364677493  TIP3      16645           0.0000000000
     99767     17045  TIP3      H2             26.5026926652       13.8932831146      -22.8546654633  TIP3      16645           0.0000000000
     99768     17046  TIP3      OH2            25.7212284543       13.8557502136      -21.2688522967  TIP3      16646           0.0000000000
     99769     17046  TIP3      H1             25.8650306498       13.3490994369      -20.4511261711  TIP3      16646           0.0000000000
     99770     17046  TIP3      H2             25.6907267869       14.7542392123      -20.9098136220  TIP3      16646           0.0000000000
     99771     17047  TIP3      OH2            22.2272061331       11.1242489006      -20.6688819735  TIP3      16647           0.0000000000
     99772     17047  TIP3      H1             21.4892431409       11.4749100135      -20.1768127974  TIP3      16647           0.0000000000
     99773     17047  TIP3      H2             22.7098462825       11.9097507021      -20.9700933926  TIP3      16647           0.0000000000
     99774     17048  TIP3      OH2            22.7915683251       13.7219453469      -21.8287999860  TIP3      16648           0.0000000000
     99775     17048  TIP3      H1             23.3902627450       14.4272612940      -21.5299575815  TIP3      16648           0.0000000000
     99776     17048  TIP3      H2             23.2876410427       13.2893697625      -22.5369555901  TIP3      16648           0.0000000000
     99777     17049  TIP3      OH2            28.8605261764       16.1770427319      -23.5106647706  TIP3      16649           0.0000000000
     99778     17049  TIP3      H1             28.1886769106       15.5245216675      -23.2445702116  TIP3      16649           0.0000000000
     99779     17049  TIP3      H2             29.6093788943       15.6246008069      -23.7714071022  TIP3      16649           0.0000000000
     99780     17050  TIP3      OH2            24.3809768563       11.9062575815      -23.4717835606  TIP3      16650           0.0000000000
     99781     17050  TIP3      H1             24.4600776001       11.1106358191      -22.9087662476  TIP3      16650           0.0000000000
     99782     17050  TIP3      H2             25.0802765665       11.7605428072      -24.1324746044  TIP3      16650           0.0000000000
     99783     17051  TIP3      OH2            29.7657692834       12.9483772357      -23.7406682896  TIP3      16651           0.0000000000
     99784     17051  TIP3      H1             29.4953525017       13.1023986036      -22.8206773710  TIP3      16651           0.0000000000
     99785     17051  TIP3      H2             29.5394541070       12.0048092210      -23.8501382119  TIP3      16651           0.0000000000
     99786     17052  TIP3      OH2            25.5486403371        9.8744593195      -21.1379663609  TIP3      16652           0.0000000000
     99787     17052  TIP3      H1             25.0856202568        9.3660964757      -20.4644833612  TIP3      16652           0.0000000000
     99788     17052  TIP3      H2             25.7833718487        9.1814580571      -21.7745274739  TIP3      16652           0.0000000000
     99789     17053  TIP3      OH2            26.6179455144        8.0860019495      -22.8862470347  TIP3      16653           0.0000000000
     99790     17053  TIP3      H1             26.4268578229        7.9775556083      -23.8377461203  TIP3      16653           0.0000000000
     99791     17053  TIP3      H2             27.5605627503        8.2064194447      -22.8604220330  TIP3      16653           0.0000000000
     99792     17054  TIP3      OH2            35.9670113668       10.4295301970      -23.4193088267  TIP3      16654           0.0000000000
     99793     17054  TIP3      H1             35.7501972377       10.0569504906      -24.2822286228  TIP3      16654           0.0000000000
     99794     17054  TIP3      H2             36.0509459411       11.3940742147      -23.6365868057  TIP3      16654           0.0000000000
     99795     17055  TIP3      OH2            26.5271949632       18.7754324057      -21.8562027350  TIP3      16655           0.0000000000
     99796     17055  TIP3      H1             27.4552668525       18.9692721310      -21.7509648351  TIP3      16655           0.0000000000
     99797     17055  TIP3      H2             26.2784975176       19.4555338248      -22.5019880594  TIP3      16655           0.0000000000
     99798     17056  TIP3      OH2            20.0807318972       13.4667088693      -22.4081986171  TIP3      16656           0.0000000000
     99799     17056  TIP3      H1             21.0145745410       13.5011429965      -22.1201099272  TIP3      16656           0.0000000000
     99800     17056  TIP3      H2             20.0887397633       12.7385410214      -23.0655179506  TIP3      16656           0.0000000000
     99801     17057  TIP3      OH2            34.7406697045        3.9586120704      -23.5623735266  TIP3      16657           0.0000000000
     99802     17057  TIP3      H1             35.3376853500        3.5359070155      -22.9615660412  TIP3      16657           0.0000000000
     99803     17057  TIP3      H2             33.8835885962        3.5211131389      -23.4169781563  TIP3      16657           0.0000000000
     99804     17058  TIP3      OH2            22.2661433129        2.8324300646      -22.5128178979  TIP3      16658           0.0000000000
     99805     17058  TIP3      H1             22.7432590181        2.1375793180      -22.9913701325  TIP3      16658           0.0000000000
     99806     17058  TIP3      H2             22.8764823365        3.0575623008      -21.8031009914  TIP3      16658           0.0000000000
     99807     17059  TIP3      OH2            22.1110780488       17.7645009463      -23.0254769835  TIP3      16659           0.0000000000
     99808     17059  TIP3      H1             21.8485058473       17.9917803219      -22.1157407220  TIP3      16659           0.0000000000
     99809     17059  TIP3      H2             22.8785130483       17.1793597444      -22.8460652917  TIP3      16659           0.0000000000
     99810     17060  TIP3      OH2            48.2454799810        7.8997056074      -22.2727128257  TIP3      16660           0.0000000000
     99811     17060  TIP3      H1             48.9709152923        7.9760789637      -21.6287610055  TIP3      16660           0.0000000000
     99812     17060  TIP3      H2             48.6002761287        7.3325077369      -22.9418252540  TIP3      16660           0.0000000000
     99813     17061  TIP3      OH2            54.2087136058        0.5900181338      -20.8456244875  TIP3      16661           0.0000000000
     99814     17061  TIP3      H1             53.2904496064        0.7210873217      -20.5838340686  TIP3      16661           0.0000000000
     99815     17061  TIP3      H2             54.4438606956        1.4191303349      -21.2871893101  TIP3      16661           0.0000000000
     99816     17062  TIP3      OH2            55.3522119699       14.9632519088      -22.5971146226  TIP3      16662           0.0000000000
     99817     17062  TIP3      H1             55.4682719477       15.8853419459      -22.3000602495  TIP3      16662           0.0000000000
     99818     17062  TIP3      H2             56.2702843436       14.6612166020      -22.5020001958  TIP3      16662           0.0000000000
     99819     17063  TIP3      OH2            51.9620533310        9.8823222671      -23.0359545497  TIP3      16663           0.0000000000
     99820     17063  TIP3      H1             52.0088407405        9.6580888687      -23.9858953039  TIP3      16663           0.0000000000
     99821     17063  TIP3      H2             52.8295149787       10.2715768871      -22.8663079437  TIP3      16663           0.0000000000
     99822     17064  TIP3      OH2            47.5361660534        3.7983019033      -22.4194213272  TIP3      16664           0.0000000000
     99823     17064  TIP3      H1             47.3170139868        3.7415444526      -21.4729484659  TIP3      16664           0.0000000000
     99824     17064  TIP3      H2             47.3062077078        2.8682602262      -22.6827680216  TIP3      16664           0.0000000000
     99825     17065  TIP3      OH2            38.8923115562        4.6619883447      -20.8113539459  TIP3      16665           0.0000000000
     99826     17065  TIP3      H1             39.4270788636        5.2488139577      -21.3916632382  TIP3      16665           0.0000000000
     99827     17065  TIP3      H2             38.2351459484        5.2372646575      -20.4494162456  TIP3      16665           0.0000000000
     99828     17066  TIP3      OH2            50.2724025961        4.3351322539      -21.6947139705  TIP3      16666           0.0000000000
     99829     17066  TIP3      H1             49.3141021876        4.4324683038      -21.8209321710  TIP3      16666           0.0000000000
     99830     17066  TIP3      H2             50.5924043912        5.1986298613      -21.3923380145  TIP3      16666           0.0000000000
     99831     17067  TIP3      OH2            48.4754598138       12.9600773010      -21.0182656463  TIP3      16667           0.0000000000
     99832     17067  TIP3      H1             48.2146375072       13.7884097069      -20.5979978602  TIP3      16667           0.0000000000
     99833     17067  TIP3      H2             47.8050210426       12.3369619024      -20.7246618712  TIP3      16667           0.0000000000
     99834     17068  TIP3      OH2            51.5863801052       13.1842881466      -22.1306094209  TIP3      16668           0.0000000000
     99835     17068  TIP3      H1             51.9147308296       12.8060333844      -21.3168640531  TIP3      16668           0.0000000000
     99836     17068  TIP3      H2             50.6252285051       13.0775254998      -22.0300237007  TIP3      16668           0.0000000000
     99837     17069  TIP3      OH2            56.0419848755       17.6963205625      -22.0224369408  TIP3      16669           0.0000000000
     99838     17069  TIP3      H1             56.8175613090       18.2519128914      -22.0647145271  TIP3      16669           0.0000000000
     99839     17069  TIP3      H2             55.3607397727       18.2490767348      -21.5776040883  TIP3      16669           0.0000000000
     99840     17070  TIP3      OH2            45.7100561773       14.3167766965      -23.6597672441  TIP3      16670           0.0000000000
     99841     17070  TIP3      H1             45.8758900895       13.5524349770      -24.2310987794  TIP3      16670           0.0000000000
     99842     17070  TIP3      H2             45.3544057083       13.9063813380      -22.8457320538  TIP3      16670           0.0000000000
     99843     17071  TIP3      OH2            44.6007012997       13.8557687714      -21.2084188947  TIP3      16671           0.0000000000
     99844     17071  TIP3      H1             44.7404664270       13.3573686865      -20.4103391044  TIP3      16671           0.0000000000
     99845     17071  TIP3      H2             44.5983924159       14.7946899259      -20.9156516099  TIP3      16671           0.0000000000
     99846     17072  TIP3      OH2            41.0683107646       11.1170757828      -20.7095891004  TIP3      16672           0.0000000000
     99847     17072  TIP3      H1             40.3623955084       11.4751152223      -20.1511265334  TIP3      16672           0.0000000000
     99848     17072  TIP3      H2             41.5610278658       11.9174999633      -20.9587864848  TIP3      16672           0.0000000000
     99849     17073  TIP3      OH2            44.7407107347       16.5689629154      -20.4608992451  TIP3      16673           0.0000000000
     99850     17073  TIP3      H1             44.7967219443       17.3995811651      -21.0110932237  TIP3      16673           0.0000000000
     99851     17073  TIP3      H2             44.4503088979       16.9507793070      -19.6265352531  TIP3      16673           0.0000000000
     99852     17074  TIP3      OH2            41.6502583925       13.7010732043      -21.8172931474  TIP3      16674           0.0000000000
     99853     17074  TIP3      H1             42.2476119744       14.4323278916      -21.5579653315  TIP3      16674           0.0000000000
     99854     17074  TIP3      H2             42.1452317602       13.2952781786      -22.5470488531  TIP3      16674           0.0000000000
     99855     17075  TIP3      OH2            39.9650424093        6.4168645682      -22.6819892182  TIP3      16675           0.0000000000
     99856     17075  TIP3      H1             39.9488496730        7.3571962815      -22.5257698062  TIP3      16675           0.0000000000
     99857     17075  TIP3      H2             39.0868675484        6.1801464143      -22.9851442551  TIP3      16675           0.0000000000
     99858     17076  TIP3      OH2            47.7209499393       16.1847352236      -23.5198737924  TIP3      16676           0.0000000000
     99859     17076  TIP3      H1             47.0448599765       15.5302639206      -23.2498270456  TIP3      16676           0.0000000000
     99860     17076  TIP3      H2             48.4621261113       15.6221085683      -23.7739656485  TIP3      16676           0.0000000000
     99861     17077  TIP3      OH2            52.2781704927       15.9716345860      -23.3215283380  TIP3      16677           0.0000000000
     99862     17077  TIP3      H1             52.5911761480       15.1897347255      -22.8479113648  TIP3      16677           0.0000000000
     99863     17077  TIP3      H2             53.0462924863       16.1999378504      -23.8630370688  TIP3      16677           0.0000000000
     99864     17078  TIP3      OH2            43.2242609801       11.8833989017      -23.4603613445  TIP3      16678           0.0000000000
     99865     17078  TIP3      H1             43.3266639648       11.0967656526      -22.9238292978  TIP3      16678           0.0000000000
     99866     17078  TIP3      H2             43.9272701340       11.7742654308      -24.1345635239  TIP3      16678           0.0000000000
     99867     17079  TIP3      OH2            48.6168951431       12.9651252164      -23.7178319419  TIP3      16679           0.0000000000
     99868     17079  TIP3      H1             48.3416048153       13.0969725946      -22.7986247682  TIP3      16679           0.0000000000
     99869     17079  TIP3      H2             48.4128758114       12.0111385457      -23.8434659930  TIP3      16679           0.0000000000
     99870     17080  TIP3      OH2            54.8638940769       10.4673199353      -23.4228570117  TIP3      16680           0.0000000000
     99871     17080  TIP3      H1             54.5875682654       10.0424901186      -24.2486770468  TIP3      16680           0.0000000000
     99872     17080  TIP3      H2             54.8948496649       11.4089166266      -23.6637375669  TIP3      16680           0.0000000000
     99873     17081  TIP3      OH2            45.3871454242       18.7819874949      -21.8530681139  TIP3      16681           0.0000000000
     99874     17081  TIP3      H1             46.3214646685       18.9641621429      -21.7417202087  TIP3      16681           0.0000000000
     99875     17081  TIP3      H2             45.1352552772       19.4541352427      -22.5006953531  TIP3      16681           0.0000000000
     99876     17082  TIP3      OH2            38.9184979912       13.4453556278      -22.3941910574  TIP3      16682           0.0000000000
     99877     17082  TIP3      H1             39.8586731289       13.5084613087      -22.1265669947  TIP3      16682           0.0000000000
     99878     17082  TIP3      H2             38.9466428971       12.7429304995      -23.0663830130  TIP3      16682           0.0000000000
     99879     17083  TIP3      OH2            53.5583425906        3.9383120078      -23.5808838821  TIP3      16683           0.0000000000
     99880     17083  TIP3      H1             54.2004075474        3.5647122857      -22.9437662001  TIP3      16683           0.0000000000
     99881     17083  TIP3      H2             52.7455652793        3.4917798432      -23.3771189157  TIP3      16683           0.0000000000
     99882     17084  TIP3      OH2            55.6721843434        2.7951211936      -22.0357032361  TIP3      16684           0.0000000000
     99883     17084  TIP3      H1             56.1311183437        2.0991470806      -22.5184137595  TIP3      16684           0.0000000000
     99884     17084  TIP3      H2             56.3787870327        3.4659101109      -21.9537129551  TIP3      16684           0.0000000000
     99885     17085  TIP3      OH2            39.2026791174        0.8466025254      -21.0025830625  TIP3      16685           0.0000000000
     99886     17085  TIP3      H1             39.7062625540        1.4782471715      -21.5065758670  TIP3      16685           0.0000000000
     99887     17085  TIP3      H2             38.6550258815        1.3987601459      -20.4496505240  TIP3      16685           0.0000000000
     99888     17086  TIP3      OH2           -46.0137073032       26.8068524216      -22.3453861769  TIP3      16686           0.0000000000
     99889     17086  TIP3      H1            -45.3424538848       26.8086595887      -21.6244841882  TIP3      16686           0.0000000000
     99890     17086  TIP3      H2            -45.6829433121       26.1190759981      -22.9132355679  TIP3      16686           0.0000000000
     99891     17087  TIP3      OH2           -43.7514838333       27.6823190515      -20.6885943607  TIP3      16687           0.0000000000
     99892     17087  TIP3      H1            -43.1990373563       27.8434146786      -19.9253457870  TIP3      16687           0.0000000000
     99893     17087  TIP3      H2            -43.3685063900       28.1613787105      -21.4349612056  TIP3      16687           0.0000000000
     99894     17088  TIP3      OH2           -38.9245587401       33.7838535595      -22.5671057640  TIP3      16688           0.0000000000
     99895     17088  TIP3      H1            -38.8169776135       34.7258536496      -22.2918504955  TIP3      16688           0.0000000000
     99896     17088  TIP3      H2            -37.9825120490       33.5185929165      -22.5066272756  TIP3      16688           0.0000000000
     99897     17089  TIP3      OH2           -43.4844879776       36.5558066803      -21.8283168293  TIP3      16689           0.0000000000
     99898     17089  TIP3      H1            -43.0861206568       35.8065896531      -22.2957250471  TIP3      16689           0.0000000000
     99899     17089  TIP3      H2            -43.4738166808       36.2820947012      -20.9066431171  TIP3      16689           0.0000000000
     99900     17090  TIP3      OH2           -42.3045208889       28.7466077510      -23.0076390329  TIP3      16690           0.0000000000
     99901     17090  TIP3      H1            -42.2893243837       28.5013805514      -23.9705886796  TIP3      16690           0.0000000000
     99902     17090  TIP3      H2            -41.4391724130       29.1344998220      -22.8993766457  TIP3      16690           0.0000000000
     99903     17091  TIP3      OH2           -49.8594935606       23.0065637874      -23.3193497374  TIP3      16691           0.0000000000
     99904     17091  TIP3      H1            -50.2857643363       22.6496398144      -22.5135496826  TIP3      16691           0.0000000000
     99905     17091  TIP3      H2            -50.5849509861       23.4410748855      -23.7758434891  TIP3      16691           0.0000000000
     99906     17092  TIP3      OH2           -51.2434653831       25.8492295892      -21.8985158331  TIP3      16692           0.0000000000
     99907     17092  TIP3      H1            -51.7725212346       25.4399988991      -22.5877748978  TIP3      16692           0.0000000000
     99908     17092  TIP3      H2            -50.3887217866       26.0175571720      -22.3181883629  TIP3      16692           0.0000000000
     99909     17093  TIP3      OH2           -45.7406545892       31.8635105776      -20.9430041060  TIP3      16693           0.0000000000
     99910     17093  TIP3      H1            -46.0831524859       32.6873424714      -20.5586985289  TIP3      16693           0.0000000000
     99911     17093  TIP3      H2            -46.4796076750       31.2354722735      -20.7615620177  TIP3      16693           0.0000000000
     99912     17094  TIP3      OH2           -54.5861856299       28.0697455523      -22.2566921850  TIP3      16694           0.0000000000
     99913     17094  TIP3      H1            -53.9947750514       28.6940189962      -21.7970694887  TIP3      16694           0.0000000000
     99914     17094  TIP3      H2            -55.4776620580       28.3468420683      -21.9424830663  TIP3      16694           0.0000000000
     99915     17095  TIP3      OH2           -38.2102061975       36.5025283691      -21.9546467876  TIP3      16695           0.0000000000
     99916     17095  TIP3      H1            -37.4699541369       37.1219166327      -22.0480235639  TIP3      16695           0.0000000000
     99917     17095  TIP3      H2            -38.8918126436       37.0707254106      -21.5748278423  TIP3      16695           0.0000000000
     99918     17096  TIP3      OH2           -48.5784215459       33.1782901072      -23.6865429938  TIP3      16696           0.0000000000
     99919     17096  TIP3      H1            -48.4053402293       32.3867222106      -24.2107058221  TIP3      16696           0.0000000000
     99920     17096  TIP3      H2            -48.9001588842       32.7598971762      -22.8630977469  TIP3      16696           0.0000000000
     99921     17097  TIP3      OH2           -53.2268777733       29.9589387763      -20.7105114148  TIP3      16697           0.0000000000
     99922     17097  TIP3      H1            -53.9004102724       30.3387233158      -20.1403182667  TIP3      16697           0.0000000000
     99923     17097  TIP3      H2            -52.7175724558       30.7458876161      -20.9636366720  TIP3      16697           0.0000000000
     99924     17098  TIP3      OH2           -46.9464367148       34.4150570308      -20.4499372727  TIP3      16698           0.0000000000
     99925     17098  TIP3      H1            -47.7540445286       34.9525455948      -20.4272546837  TIP3      16698           0.0000000000
     99926     17098  TIP3      H2            -46.4256472597       34.9203717356      -21.0988684569  TIP3      16698           0.0000000000
     99927     17099  TIP3      OH2           -52.6260421538       32.5757728319      -21.8188326848  TIP3      16699           0.0000000000
     99928     17099  TIP3      H1            -52.0307863607       33.2742311045      -21.5386387348  TIP3      16699           0.0000000000
     99929     17099  TIP3      H2            -52.1385163700       32.1438523102      -22.5399897076  TIP3      16699           0.0000000000
     99930     17100  TIP3      OH2           -54.2927902232       25.2598013544      -22.7227709757  TIP3      16700           0.0000000000
     99931     17100  TIP3      H1            -54.3304356321       26.2103917262      -22.4990438151  TIP3      16700           0.0000000000
     99932     17100  TIP3      H2            -55.1942689529       25.0412928083      -22.9407061052  TIP3      16700           0.0000000000
     99933     17101  TIP3      OH2           -46.5621394019       35.0375354408      -23.5837870489  TIP3      16701           0.0000000000
     99934     17101  TIP3      H1            -47.2254656694       34.4005191852      -23.2201636007  TIP3      16701           0.0000000000
     99935     17101  TIP3      H2            -45.8092580736       34.4667007378      -23.7276545062  TIP3      16701           0.0000000000
     99936     17102  TIP3      OH2           -41.9926684934       34.7992563523      -23.3400798662  TIP3      16702           0.0000000000
     99937     17102  TIP3      H1            -41.6577703378       34.0568079716      -22.8349032630  TIP3      16702           0.0000000000
     99938     17102  TIP3      H2            -41.2160749669       35.0686683383      -23.8644984312  TIP3      16702           0.0000000000
     99939     17103  TIP3      OH2           -51.0601733382       30.7589476964      -23.4554221748  TIP3      16703           0.0000000000
     99940     17103  TIP3      H1            -50.9457997426       29.9552728722      -22.9097296535  TIP3      16703           0.0000000000
     99941     17103  TIP3      H2            -50.3515752618       30.6178419925      -24.1173367466  TIP3      16703           0.0000000000
     99942     17104  TIP3      OH2           -45.6467270992       31.8365223880      -23.7454091320  TIP3      16704           0.0000000000
     99943     17104  TIP3      H1            -45.9330146232       31.9424954065      -22.8080462244  TIP3      16704           0.0000000000
     99944     17104  TIP3      H2            -45.8813419841       30.8729413387      -23.8332849553  TIP3      16704           0.0000000000
     99945     17105  TIP3      OH2           -48.8164969025       26.9571484197      -22.8957498721  TIP3      16705           0.0000000000
     99946     17105  TIP3      H1            -48.9768475402       26.8238222096      -23.8352247398  TIP3      16705           0.0000000000
     99947     17105  TIP3      H2            -47.8485585098       27.0754378279      -22.8195820099  TIP3      16705           0.0000000000
     99948     17106  TIP3      OH2           -39.4223570302       29.3126525770      -23.4086540983  TIP3      16706           0.0000000000
     99949     17106  TIP3      H1            -39.6734408233       28.9067595375      -24.2645599640  TIP3      16706           0.0000000000
     99950     17106  TIP3      H2            -39.3729235417       30.2646106327      -23.6564288544  TIP3      16706           0.0000000000
     99951     17107  TIP3      OH2           -39.9209569087       25.4008581665      -22.7120080693  TIP3      16707           0.0000000000
     99952     17107  TIP3      H1            -39.8438809072       26.0414587130      -23.4063238968  TIP3      16707           0.0000000000
     99953     17107  TIP3      H2            -40.0922509095       24.5514422591      -23.1670110979  TIP3      16707           0.0000000000
     99954     17108  TIP3      OH2           -40.6798975736       22.7915828046      -23.5744672338  TIP3      16708           0.0000000000
     99955     17108  TIP3      H1            -40.0921266929       22.4039069704      -22.9206760064  TIP3      16708           0.0000000000
     99956     17108  TIP3      H2            -41.5346510123       22.3654887177      -23.3896972252  TIP3      16708           0.0000000000
     99957     17109  TIP3      OH2           -53.1955518232       21.6219087762      -22.4784770126  TIP3      16709           0.0000000000
     99958     17109  TIP3      H1            -52.6688945497       21.0155940612      -23.0208519206  TIP3      16709           0.0000000000
     99959     17109  TIP3      H2            -52.5464305939       21.9586965539      -21.8227125552  TIP3      16709           0.0000000000
     99960     17110  TIP3      OH2           -53.3232036057       36.6174384578      -23.0354163311  TIP3      16710           0.0000000000
     99961     17110  TIP3      H1            -53.5717250134       36.8579138605      -22.1253640734  TIP3      16710           0.0000000000
     99962     17110  TIP3      H2            -52.5490328440       36.0447979557      -22.8385711491  TIP3      16710           0.0000000000
     99963     17111  TIP3      OH2           -20.0634539695       33.8216966715      -22.5102404804  TIP3      16711           0.0000000000
     99964     17111  TIP3      H1            -19.9440129914       34.7635752044      -22.3177449672  TIP3      16711           0.0000000000
     99965     17111  TIP3      H2            -19.1498968675       33.5017239811      -22.5347383553  TIP3      16711           0.0000000000
     99966     17112  TIP3      OH2           -23.4579458961       28.7192878802      -23.0040574722  TIP3      16712           0.0000000000
     99967     17112  TIP3      H1            -23.4066206487       28.5181413593      -23.9735829460  TIP3      16712           0.0000000000
     99968     17112  TIP3      H2            -22.5931696108       29.1431691591      -22.8671735485  TIP3      16712           0.0000000000
     99969     17113  TIP3      OH2           -27.8682006212       22.6182406672      -22.4041495861  TIP3      16713           0.0000000000
     99970     17113  TIP3      H1            -28.1335510573       22.6276030037      -21.4708989355  TIP3      16713           0.0000000000
     99971     17113  TIP3      H2            -28.1626054296       21.7362614616      -22.6940844234  TIP3      16713           0.0000000000
     99972     17114  TIP3      OH2           -30.9945613702       23.0427936659      -23.2975996071  TIP3      16714           0.0000000000
     99973     17114  TIP3      H1            -31.4442330664       22.6132721429      -22.5339351058  TIP3      16714           0.0000000000
     99974     17114  TIP3      H2            -31.7234116069       23.4381025238      -23.7899485108  TIP3      16714           0.0000000000
     99975     17115  TIP3      OH2           -32.3898206506       25.8410789062      -21.8908604339  TIP3      16715           0.0000000000
     99976     17115  TIP3      H1            -32.9049032146       25.4286410986      -22.5950859738  TIP3      16715           0.0000000000
     99977     17115  TIP3      H2            -31.5412021844       26.0140566377      -22.3294999180  TIP3      16715           0.0000000000
     99978     17116  TIP3      OH2           -25.1588149699       23.1968965070      -21.7776228509  TIP3      16716           0.0000000000
     99979     17116  TIP3      H1            -26.1077446090       23.3183199411      -21.9144106551  TIP3      16716           0.0000000000
     99980     17116  TIP3      H2            -24.8403424155       24.0381601756      -21.4449846124  TIP3      16716           0.0000000000
     99981     17117  TIP3      OH2           -26.9372652242       31.8543531503      -20.9840939797  TIP3      16717           0.0000000000
     99982     17117  TIP3      H1            -27.1976316211       32.6597088696      -20.5356499680  TIP3      16717           0.0000000000
     99983     17117  TIP3      H2            -27.6244756501       31.2361622726      -20.7307995058  TIP3      16717           0.0000000000
     99984     17118  TIP3      OH2           -23.8488467816       32.0558991661      -22.1477890517  TIP3      16718           0.0000000000
     99985     17118  TIP3      H1            -23.5022316047       31.6824949389      -21.3222648767  TIP3      16718           0.0000000000
     99986     17118  TIP3      H2            -24.7991370700       31.9449894099      -22.0273846962  TIP3      16718           0.0000000000
     99987     17119  TIP3      OH2           -19.3565855640       36.4892577150      -21.9577720980  TIP3      16719           0.0000000000
     99988     17119  TIP3      H1            -18.6257598079       37.1191621351      -22.0438793317  TIP3      16719           0.0000000000
     99989     17119  TIP3      H2            -20.0228131639       37.0789628312      -21.5684480693  TIP3      16719           0.0000000000
     99990     17120  TIP3      OH2           -29.6965063860       33.1851489910      -23.6520459368  TIP3      16720           0.0000000000
     99991     17120  TIP3      H1            -29.5509688325       32.4114778903      -24.2342985283  TIP3      16720           0.0000000000
     99992     17120  TIP3      H2            -30.0593371690       32.7436345349      -22.8747307278  TIP3      16720           0.0000000000
     99993     17121  TIP3      OH2           -32.0151902245       22.1747246828      -20.9060709192  TIP3      16721           0.0000000000
     99994     17121  TIP3      H1            -32.1079001515       23.0554642455      -20.5030240468  TIP3      16721           0.0000000000
     99995     17121  TIP3      H2            -31.1400509681       21.9031238423      -20.6220182471  TIP3      16721           0.0000000000
     99996     17122  TIP3      OH2           -35.4431527156       25.2747844302      -22.7249425526  TIP3      16722           0.0000000000
     99997     17122  TIP3      H1            -35.4636116506       26.1899533650      -22.5012738952  TIP3      16722           0.0000000000
     99998     17122  TIP3      H2            -36.3369195483       25.0082653905      -22.9489099201  TIP3      16722           0.0000000000
     99999     17123  TIP3      OH2           -27.6938922127       35.0469916905      -23.4880925856  TIP3      16723           0.0000000000
    100000     17123  TIP3      H1            -28.3742935637       34.3818991074      -23.2522924762  TIP3      16723           0.0000000000
    100001     17123  TIP3      H2            -26.9730059678       34.4738297403      -23.7853474286  TIP3      16723           0.0000000000
    100002     17124  TIP3      OH2           -32.1939030805       30.7503837826      -23.4653776873  TIP3      16724           0.0000000000
    100003     17124  TIP3      H1            -32.0930494524       29.9641347504      -22.9083948196  TIP3      16724           0.0000000000
    100004     17124  TIP3      H2            -31.4925221134       30.6219786067      -24.1262615001  TIP3      16724           0.0000000000
    100005     17125  TIP3      OH2           -26.8022609504       31.8265271036      -23.7281892507  TIP3      16725           0.0000000000
    100006     17125  TIP3      H1            -27.0814852030       31.9499090335      -22.8111286442  TIP3      16725           0.0000000000
    100007     17125  TIP3      H2            -27.0198854679       30.8743986439      -23.8614027538  TIP3      16725           0.0000000000
    100008     17126  TIP3      OH2           -31.0341623925       28.7496973685      -21.1373033735  TIP3      16726           0.0000000000
    100009     17126  TIP3      H1            -31.4582378880       28.2170342902      -20.4531875822  TIP3      16726           0.0000000000
    100010     17126  TIP3      H2            -30.7671249584       28.0553835169      -21.7731096160  TIP3      16726           0.0000000000
    100011     17127  TIP3      OH2           -29.9428667053       26.9594473165      -22.8724619308  TIP3      16727           0.0000000000
    100012     17127  TIP3      H1            -30.1296716528       26.8262882867      -23.8234570446  TIP3      16727           0.0000000000
    100013     17127  TIP3      H2            -28.9948905309       27.0615104578      -22.8493106646  TIP3      16727           0.0000000000
    100014     17128  TIP3      OH2           -36.5172907416       32.2705243385      -22.3868635967  TIP3      16728           0.0000000000
    100015     17128  TIP3      H1            -35.5852169100       32.3746003209      -22.1108519690  TIP3      16728           0.0000000000
    100016     17128  TIP3      H2            -36.4709349669       31.6023578743      -23.0883897919  TIP3      16728           0.0000000000
    100017     17129  TIP3      OH2           -21.0684997394       25.3853506917      -22.6994945281  TIP3      16729           0.0000000000
    100018     17129  TIP3      H1            -20.9816408668       26.0478734385      -23.3857282883  TIP3      16729           0.0000000000
    100019     17129  TIP3      H2            -21.2316105886       24.5501741396      -23.1743609647  TIP3      16729           0.0000000000
    100020     17130  TIP3      OH2           -21.8365957672       22.7962908681      -23.5809405792  TIP3      16730           0.0000000000
    100021     17130  TIP3      H1            -21.2241861437       22.4115913034      -22.9309711265  TIP3      16730           0.0000000000
    100022     17130  TIP3      H2            -22.6833941527       22.3746246618      -23.3818724403  TIP3      16730           0.0000000000
    100023     17131  TIP3      OH2           -19.7448973351       21.6689756768      -22.0369826728  TIP3      16731           0.0000000000
    100024     17131  TIP3      H1            -19.3085691601       20.9503998017      -22.5219722531  TIP3      16731           0.0000000000
    100025     17131  TIP3      H2            -19.0404526750       22.3378762921      -21.9573271334  TIP3      16731           0.0000000000
    100026     17132  TIP3      OH2           -36.1719638220       19.7023029554      -20.9360395562  TIP3      16732           0.0000000000
    100027     17132  TIP3      H1            -35.7215535085       20.3291430217      -21.5057875437  TIP3      16732           0.0000000000
    100028     17132  TIP3      H2            -36.8010407061       20.2608827036      -20.4610176671  TIP3      16732           0.0000000000
    100029     17133  TIP3      OH2           -34.3133013742       21.6683125536      -22.5126771454  TIP3      16733           0.0000000000
    100030     17133  TIP3      H1            -33.8178526177       20.9948565817      -22.9992037399  TIP3      16733           0.0000000000
    100031     17133  TIP3      H2            -33.6840296053       21.9125350111      -21.8047361186  TIP3      16733           0.0000000000
    100032     17134  TIP3      OH2           -34.4526560374       36.6184147591      -23.0156702947  TIP3      16734           0.0000000000
    100033     17134  TIP3      H1            -34.7367731015       36.8481449356      -22.1182028099  TIP3      16734           0.0000000000
    100034     17134  TIP3      H2            -33.6963453510       36.0229917552      -22.8561400591  TIP3      16734           0.0000000000
    100035     17135  TIP3      OH2            -1.2063794356       33.8030504131      -22.5422688495  TIP3      16735           0.0000000000
    100036     17135  TIP3      H1             -1.0999704288       34.7350585519      -22.2826018595  TIP3      16735           0.0000000000
    100037     17135  TIP3      H2             -0.2743586116       33.5085207027      -22.5176054836  TIP3      16735           0.0000000000
    100038     17136  TIP3      OH2            -5.7632948996       36.5516846011      -21.8459901923  TIP3      16736           0.0000000000
    100039     17136  TIP3      H1             -5.3843874223       35.7883343061      -22.3063071264  TIP3      16736           0.0000000000
    100040     17136  TIP3      H2             -5.7696513112       36.2983917241      -20.9073870641  TIP3      16736           0.0000000000
    100041     17137  TIP3      OH2            -8.9996501297       22.5887773600      -22.4094606791  TIP3      16737           0.0000000000
    100042     17137  TIP3      H1             -9.2685384682       22.6279661819      -21.4771589140  TIP3      16737           0.0000000000
    100043     17137  TIP3      H2             -9.3135188138       21.7204062287      -22.6921477812  TIP3      16737           0.0000000000
    100044     17138  TIP3      OH2           -12.1366873101       23.0232974222      -23.3074214621  TIP3      16738           0.0000000000
    100045     17138  TIP3      H1            -12.5874007444       22.6383474668      -22.5335719162  TIP3      16738           0.0000000000
    100046     17138  TIP3      H2            -12.8731433121       23.4347642106      -23.7771578022  TIP3      16738           0.0000000000
    100047     17139  TIP3      OH2           -17.6492620919       23.5109768094      -20.8324931863  TIP3      16739           0.0000000000
    100048     17139  TIP3      H1            -17.1338411324       24.1342742527      -21.3770652670  TIP3      16739           0.0000000000
    100049     17139  TIP3      H2            -18.3316457664       24.0783150437      -20.4650553887  TIP3      16739           0.0000000000
    100050     17140  TIP3      OH2           -13.5228742608       25.8249556445      -21.8945554934  TIP3      16740           0.0000000000
    100051     17140  TIP3      H1            -14.0605588406       25.4329066835      -22.5910361096  TIP3      16740           0.0000000000
    100052     17140  TIP3      H2            -12.6814555309       26.0212707205      -22.3248295290  TIP3      16740           0.0000000000
    100053     17141  TIP3      OH2            -8.0676668120       31.8478425454      -20.9650042522  TIP3      16741           0.0000000000
    100054     17141  TIP3      H1             -8.3397569363       32.6725080654      -20.5422983415  TIP3      16741           0.0000000000
    100055     17141  TIP3      H2             -8.7588536264       31.2150753029      -20.7172080241  TIP3      16741           0.0000000000
    100056     17142  TIP3      OH2           -16.9295252970       28.0765684482      -22.2417793649  TIP3      16742           0.0000000000
    100057     17142  TIP3      H1            -16.3247231332       28.6761689808      -21.8036565104  TIP3      16742           0.0000000000
    100058     17142  TIP3      H2            -17.8047714660       28.3759286277      -21.9308804987  TIP3      16742           0.0000000000
    100059     17143  TIP3      OH2            -4.9767318039       32.1047404048      -22.1613732959  TIP3      16743           0.0000000000
    100060     17143  TIP3      H1             -4.6454503430       31.7211200422      -21.3321489882  TIP3      16743           0.0000000000
    100061     17143  TIP3      H2             -5.9429482523       31.9734385815      -22.0512953265  TIP3      16743           0.0000000000
    100062     17144  TIP3      OH2           -10.8766837525       33.1766351738      -23.6511292872  TIP3      16744           0.0000000000
    100063     17144  TIP3      H1            -10.6845728099       32.4136986120      -24.2359265749  TIP3      16744           0.0000000000
    100064     17144  TIP3      H2            -11.1823110104       32.7355875446      -22.8640541286  TIP3      16744           0.0000000000
    100065     17145  TIP3      OH2           -16.5937990972       25.2592060404      -22.7151266952  TIP3      16745           0.0000000000
    100066     17145  TIP3      H1            -16.6228483540       26.2098677568      -22.4912574872  TIP3      16745           0.0000000000
    100067     17145  TIP3      H2            -17.4891566921       25.0400376560      -22.9648809928  TIP3      16745           0.0000000000
    100068     17146  TIP3      OH2            -8.8545764078       35.0404355193      -23.5251818103  TIP3      16746           0.0000000000
    100069     17146  TIP3      H1             -9.5067257456       34.3812032851      -23.2461784903  TIP3      16746           0.0000000000
    100070     17146  TIP3      H2             -8.0995371598       34.4911230613      -23.7612336973  TIP3      16746           0.0000000000
    100071     17147  TIP3      OH2            -4.2674947578       34.8178899106      -23.3224748089  TIP3      16747           0.0000000000
    100072     17147  TIP3      H1             -3.9691124127       34.0403508611      -22.8370957602  TIP3      16747           0.0000000000
    100073     17147  TIP3      H2             -3.5103909272       35.0541794567      -23.8742020730  TIP3      16747           0.0000000000
    100074     17148  TIP3      OH2           -13.3303410169       30.7747676622      -23.4249617928  TIP3      16748           0.0000000000
    100075     17148  TIP3      H1            -13.2483006247       29.9405322525      -22.9417249988  TIP3      16748           0.0000000000
    100076     17148  TIP3      H2            -12.6522574416       30.6182040316      -24.1263801796  TIP3      16748           0.0000000000
    100077     17149  TIP3      OH2            -7.9387522928       31.8211564546      -23.7182219639  TIP3      16749           0.0000000000
    100078     17149  TIP3      H1             -8.2256695882       31.9461844204      -22.8022416696  TIP3      16749           0.0000000000
    100079     17149  TIP3      H2             -8.1610134191       30.8681971683      -23.8513918528  TIP3      16749           0.0000000000
    100080     17150  TIP3      OH2           -11.0954763521       26.9733531143      -22.8897225668  TIP3      16750           0.0000000000
    100081     17150  TIP3      H1            -11.2657718205       26.8181526380      -23.8282742276  TIP3      16750           0.0000000000
    100082     17150  TIP3      H2            -10.1410095732       27.0606623949      -22.8149854668  TIP3      16750           0.0000000000
    100083     17151  TIP3      OH2           -17.6185057951       32.3156223085      -22.3916271014  TIP3      16751           0.0000000000
    100084     17151  TIP3      H1            -16.7110679915       32.3152392761      -22.1656408749  TIP3      16751           0.0000000000
    100085     17151  TIP3      H2            -17.6500688156       31.5960513893      -23.0719088787  TIP3      16751           0.0000000000
    100086     17152  TIP3      OH2            -0.5846897406       28.1452553262      -21.2555874506  TIP3      16752           0.0000000000
    100087     17152  TIP3      H1             -1.0955358691       28.5006997824      -21.9657629987  TIP3      16752           0.0000000000
    100088     17152  TIP3      H2             -0.6165143036       28.7988614456      -20.5353116510  TIP3      16752           0.0000000000
    100089     17153  TIP3      OH2            -2.2254239932       25.3861134391      -22.7065940762  TIP3      16753           0.0000000000
    100090     17153  TIP3      H1             -2.1273499148       26.0393748739      -23.3956749662  TIP3      16753           0.0000000000
    100091     17153  TIP3      H2             -2.3704585212       24.5553951245      -23.1832251271  TIP3      16753           0.0000000000
    100092     17154  TIP3      OH2            -2.9764923520       22.7801740780      -23.5769015591  TIP3      16754           0.0000000000
    100093     17154  TIP3      H1             -2.3585161269       22.4092193220      -22.9283614844  TIP3      16754           0.0000000000
    100094     17154  TIP3      H2             -3.8337706899       22.3822955463      -23.3981236414  TIP3      16754           0.0000000000
    100095     17155  TIP3      OH2            -0.9160706942       21.6723006328      -22.0434997878  TIP3      16755           0.0000000000
    100096     17155  TIP3      H1             -0.4618142131       20.9434064034      -22.5145007682  TIP3      16755           0.0000000000
    100097     17155  TIP3      H2             -0.2086759757       22.3343736033      -21.9723062823  TIP3      16755           0.0000000000
    100098     17156  TIP3      OH2           -15.6181979897       36.5580280404      -22.9982543915  TIP3      16756           0.0000000000
    100099     17156  TIP3      H1            -15.8704790755       36.8973082111      -22.1271234129  TIP3      16756           0.0000000000
    100100     17156  TIP3      H2            -14.8036687217       36.0582210457      -22.8655873517  TIP3      16756           0.0000000000
    100101     17157  TIP3      OH2            17.4058887664       33.6185042820      -22.6671127256  TIP3      16757           0.0000000000
    100102     17157  TIP3      H1             17.4343265194       34.5618010143      -22.4296686224  TIP3      16757           0.0000000000
    100103     17157  TIP3      H2             18.3301779737       33.3305637974      -22.6167884644  TIP3      16757           0.0000000000
    100104     17158  TIP3      OH2            13.0719672286       36.5487513780      -21.8342404256  TIP3      16758           0.0000000000
    100105     17158  TIP3      H1             13.4577961353       35.7921296282      -22.2951160982  TIP3      16758           0.0000000000
    100106     17158  TIP3      H2             13.1049754976       36.2865585607      -20.9039416801  TIP3      16758           0.0000000000
    100107     17159  TIP3      OH2            14.2630632470       28.7123386882      -23.0289265632  TIP3      16759           0.0000000000
    100108     17159  TIP3      H1             14.2897868415       28.5102671515      -23.9832230019  TIP3      16759           0.0000000000
    100109     17159  TIP3      H2             15.1074693407       29.1436419859      -22.8635310669  TIP3      16759           0.0000000000
    100110     17160  TIP3      OH2             9.8688338311       22.5947154585      -22.4054149559  TIP3      16760           0.0000000000
    100111     17160  TIP3      H1              9.5562013337       22.6236193242      -21.4982056946  TIP3      16760           0.0000000000
    100112     17160  TIP3      H2              9.5405608211       21.7287496202      -22.7154908119  TIP3      16760           0.0000000000
    100113     17161  TIP3      OH2             6.7283785615       23.0367669248      -23.3059252160  TIP3      16761           0.0000000000
    100114     17161  TIP3      H1              6.2755040117       22.6080374335      -22.5454552693  TIP3      16761           0.0000000000
    100115     17161  TIP3      H2              5.9845320205       23.4307861558      -23.7842626743  TIP3      16761           0.0000000000
    100116     17162  TIP3      OH2             5.3535985419       25.8364822921      -21.8955849786  TIP3      16762           0.0000000000
    100117     17162  TIP3      H1              4.7976124750       25.4404505634      -22.5825910753  TIP3      16762           0.0000000000
    100118     17162  TIP3      H2              6.1784941206       26.0181775399      -22.3451412680  TIP3      16762           0.0000000000
    100119     17163  TIP3      OH2            12.5449131754       23.1832143429      -21.6927628856  TIP3      16763           0.0000000000
    100120     17163  TIP3      H1             11.6141346538       23.3344627489      -21.9396296921  TIP3      16763           0.0000000000
    100121     17163  TIP3      H2             12.8688024559       24.0726791189      -21.4784555598  TIP3      16763           0.0000000000
    100122     17164  TIP3      OH2             1.9344316745       28.0692735104      -22.2415527513  TIP3      16764           0.0000000000
    100123     17164  TIP3      H1              2.5330248609       28.6798683562      -21.7952352728  TIP3      16764           0.0000000000
    100124     17164  TIP3      H2              1.0633593737       28.3614474774      -21.9156510616  TIP3      16764           0.0000000000
    100125     17165  TIP3      OH2            18.3421574131       36.5522371534      -21.9114067841  TIP3      16765           0.0000000000
    100126     17165  TIP3      H1             19.0772543226       37.1752808878      -22.0632218913  TIP3      16765           0.0000000000
    100127     17165  TIP3      H2             17.6498250566       37.1482348990      -21.5723790178  TIP3      16765           0.0000000000
    100128     17166  TIP3      OH2             7.9869605474       33.1855390562      -23.6515121902  TIP3      16766           0.0000000000
    100129     17166  TIP3      H1              8.1600548298       32.4122081207      -24.2192497493  TIP3      16766           0.0000000000
    100130     17166  TIP3      H2              7.6569216974       32.7516932706      -22.8584625179  TIP3      16766           0.0000000000
    100131     17167  TIP3      OH2             9.6340808366       34.4140985627      -20.4546850477  TIP3      16767           0.0000000000
    100132     17167  TIP3      H1              8.8168906086       34.9225470951      -20.4279684872  TIP3      16767           0.0000000000
    100133     17167  TIP3      H2             10.1345186149       34.9058770796      -21.1138510248  TIP3      16767           0.0000000000
    100134     17168  TIP3      OH2             5.7032654636       22.1660694880      -20.9028573923  TIP3      16768           0.0000000000
    100135     17168  TIP3      H1              5.5906415522       23.0557168021      -20.5142060518  TIP3      16768           0.0000000000
    100136     17168  TIP3      H2              6.5696205434       21.9006654011      -20.6246664039  TIP3      16768           0.0000000000
    100137     17169  TIP3      OH2             2.2727458021       25.2569235127      -22.7423919214  TIP3      16769           0.0000000000
    100138     17169  TIP3      H1              2.2411548669       26.1987728165      -22.4848845732  TIP3      16769           0.0000000000
    100139     17169  TIP3      H2              1.3712651952       25.0335207854      -22.9475230058  TIP3      16769           0.0000000000
    100140     17170  TIP3      OH2            10.0174372466       35.0282662852      -23.5001274089  TIP3      16770           0.0000000000
    100141     17170  TIP3      H1              9.3323372708       34.3794950161      -23.2431322534  TIP3      16770           0.0000000000
    100142     17170  TIP3      H2             10.7526903607       34.4670711060      -23.7784001629  TIP3      16770           0.0000000000
    100143     17171  TIP3      OH2             5.5296521745       30.7510144521      -23.4545452064  TIP3      16771           0.0000000000
    100144     17171  TIP3      H1              5.6174086793       29.9470529635      -22.9199035016  TIP3      16771           0.0000000000
    100145     17171  TIP3      H2              6.2148716120       30.6170481757      -24.1326163126  TIP3      16771           0.0000000000
    100146     17172  TIP3      OH2            10.8816813171       31.8132865564      -23.7249583163  TIP3      16772           0.0000000000
    100147     17172  TIP3      H1             10.6363985750       31.9491492326      -22.8108344136  TIP3      16772           0.0000000000
    100148     17172  TIP3      H2             10.6935439843       30.8554281867      -23.8458535064  TIP3      16772           0.0000000000
    100149     17173  TIP3      OH2             6.6564125168       28.7282410407      -21.1690647214  TIP3      16773           0.0000000000
    100150     17173  TIP3      H1              6.2383221843       28.1985878734      -20.4792290861  TIP3      16773           0.0000000000
    100151     17173  TIP3      H2              6.9563276659       28.0260955719      -21.7725621062  TIP3      16773           0.0000000000
    100152     17174  TIP3      OH2             7.7636594097       26.9567786060      -22.8925084780  TIP3      16774           0.0000000000
    100153     17174  TIP3      H1              7.5908396289       26.8355086801      -23.8414559353  TIP3      16774           0.0000000000
    100154     17174  TIP3      H2              8.7206424217       27.0595712727      -22.8291867290  TIP3      16774           0.0000000000
    100155     17175  TIP3      OH2            17.1554427407       29.3297804169      -23.4296977442  TIP3      16775           0.0000000000
    100156     17175  TIP3      H1             16.8837490262       28.9020607944      -24.2613631042  TIP3      16775           0.0000000000
    100157     17175  TIP3      H2             17.1969329759       30.2570857977      -23.6619317393  TIP3      16775           0.0000000000
    100158     17176  TIP3      OH2             1.1943802039       32.2808634910      -22.3873878833  TIP3      16776           0.0000000000
    100159     17176  TIP3      H1              2.1278052531       32.3635233794      -22.1161966947  TIP3      16776           0.0000000000
    100160     17176  TIP3      H2              1.2394424464       31.5880890048      -23.0739575972  TIP3      16776           0.0000000000
    100161     17177  TIP3      OH2            18.2720790460       28.1876334347      -21.2436813689  TIP3      16777           0.0000000000
    100162     17177  TIP3      H1             17.7308806190       28.5293310190      -21.9769391742  TIP3      16777           0.0000000000
    100163     17177  TIP3      H2             18.2134213554       28.8310984304      -20.5404137750  TIP3      16777           0.0000000000
    100164     17178  TIP3      OH2            15.8862997369       22.7983197254      -23.5698675535  TIP3      16778           0.0000000000
    100165     17178  TIP3      H1             16.4927249048       22.4025224274      -22.9302668026  TIP3      16778           0.0000000000
    100166     17178  TIP3      H2             15.0358737516       22.3660870503      -23.3894241964  TIP3      16778           0.0000000000
    100167     17179  TIP3      OH2            17.9826397340       21.6761856297      -22.0194778291  TIP3      16779           0.0000000000
    100168     17179  TIP3      H1             18.3818406863       20.9290863749      -22.5166974343  TIP3      16779           0.0000000000
    100169     17179  TIP3      H2             18.6615677762       22.3380543239      -21.9722976055  TIP3      16779           0.0000000000
    100170     17180  TIP3      OH2             3.2458829577       36.5853065147      -23.0203684894  TIP3      16780           0.0000000000
    100171     17180  TIP3      H1              2.9851363477       36.8633852136      -22.1269497871  TIP3      16780           0.0000000000
    100172     17180  TIP3      H2              4.0346176423       36.0308996224      -22.8487016689  TIP3      16780           0.0000000000
    100173     17181  TIP3      OH2            29.4186657524       26.7886478960      -22.3079793994  TIP3      16781           0.0000000000
    100174     17181  TIP3      H1             30.1094595415       26.8192868878      -21.6290521673  TIP3      16781           0.0000000000
    100175     17181  TIP3      H2             29.7443072993       26.1517011504      -22.9402661136  TIP3      16781           0.0000000000
    100176     17182  TIP3      OH2            35.3498408130       19.4450186129      -20.8586184116  TIP3      16782           0.0000000000
    100177     17182  TIP3      H1             34.4447225475       19.5714183285      -20.5609169251  TIP3      16782           0.0000000000
    100178     17182  TIP3      H2             35.5886325746       20.2706686629      -21.2699654355  TIP3      16782           0.0000000000
    100179     17183  TIP3      OH2            36.5332768202       33.8070772417      -22.4825294633  TIP3      16783           0.0000000000
    100180     17183  TIP3      H1             36.6058753193       34.7386189655      -22.3395200659  TIP3      16783           0.0000000000
    100181     17183  TIP3      H2             37.4386382677       33.4986924439      -22.5401582813  TIP3      16783           0.0000000000
    100182     17184  TIP3      OH2            33.1185839385       28.7187267749      -23.0305614647  TIP3      16784           0.0000000000
    100183     17184  TIP3      H1             33.1512207048       28.5077608751      -23.9865100725  TIP3      16784           0.0000000000
    100184     17184  TIP3      H2             33.9691728563       29.1373880901      -22.8606016769  TIP3      16784           0.0000000000
    100185     17185  TIP3      OH2            25.5649432103       23.0149103194      -23.2963794579  TIP3      16785           0.0000000000
    100186     17185  TIP3      H1             25.1387632958       22.6159587468      -22.5273732362  TIP3      16785           0.0000000000
    100187     17185  TIP3      H2             24.8523782821       23.4399081432      -23.7888897375  TIP3      16785           0.0000000000
    100188     17186  TIP3      OH2            24.1641021327       25.8141602793      -21.9151344268  TIP3      16786           0.0000000000
    100189     17186  TIP3      H1             23.6733891796       25.4398553355      -22.6248247613  TIP3      16786           0.0000000000
    100190     17186  TIP3      H2             25.0312038894       26.0339069099      -22.3067261736  TIP3      16786           0.0000000000
    100191     17187  TIP3      OH2            20.7743090615       28.0582542003      -22.2232179903  TIP3      16787           0.0000000000
    100192     17187  TIP3      H1             21.3955933010       28.6857791863      -21.7973031700  TIP3      16787           0.0000000000
    100193     17187  TIP3      H2             19.9082129692       28.3866869571      -21.9148177957  TIP3      16787           0.0000000000
    100194     17188  TIP3      OH2            26.8336941835       33.1742164466      -23.6579973347  TIP3      16788           0.0000000000
    100195     17188  TIP3      H1             27.0244010578       32.4007148683      -24.2212788241  TIP3      16788           0.0000000000
    100196     17188  TIP3      H2             26.5237971844       32.7448232251      -22.8506513421  TIP3      16788           0.0000000000
    100197     17189  TIP3      OH2            28.5055835879       34.4163160687      -20.4825718929  TIP3      16789           0.0000000000
    100198     17189  TIP3      H1             27.6577902713       34.8912136067      -20.4246774341  TIP3      16789           0.0000000000
    100199     17189  TIP3      H2             29.0163968116       34.9175459975      -21.1131991178  TIP3      16789           0.0000000000
    100200     17190  TIP3      OH2            25.8682473798       35.4968610862      -20.5011263555  TIP3      16790           0.0000000000
    100201     17190  TIP3      H1             25.9654294597       36.2914671315      -21.0162186949  TIP3      16790           0.0000000000
    100202     17190  TIP3      H2             25.6263263671       35.7896667892      -19.6051813578  TIP3      16790           0.0000000000
    100203     17191  TIP3      OH2            28.8619736076       35.0366263662      -23.5160311329  TIP3      16791           0.0000000000
    100204     17191  TIP3      H1             28.1993945265       34.3745577345      -23.2397197627  TIP3      16791           0.0000000000
    100205     17191  TIP3      H2             29.6048202123       34.4777735076      -23.7716917706  TIP3      16791           0.0000000000
    100206     17192  TIP3      OH2            24.3718430975       30.7534817552      -23.4831487611  TIP3      16792           0.0000000000
    100207     17192  TIP3      H1             24.4729378061       29.9699521228      -22.8961739430  TIP3      16792           0.0000000000
    100208     17192  TIP3      H2             25.0780341152       30.6112091961      -24.1256551752  TIP3      16792           0.0000000000
    100209     17193  TIP3      OH2            29.7605054742       31.8266084754      -23.7116022846  TIP3      16793           0.0000000000
    100210     17193  TIP3      H1             29.4787406073       31.9474658269      -22.8026436591  TIP3      16793           0.0000000000
    100211     17193  TIP3      H2             29.5514960285       30.8701268426      -23.8399195003  TIP3      16793           0.0000000000
    100212     17194  TIP3      OH2            26.6109796689       26.9368633517      -22.9007691730  TIP3      16794           0.0000000000
    100213     17194  TIP3      H1             26.4558221270       26.8323752029      -23.8439658357  TIP3      16794           0.0000000000
    100214     17194  TIP3      H2             27.5748101576       27.0585509323      -22.8108018788  TIP3      16794           0.0000000000
    100215     17195  TIP3      OH2            36.0120542780       29.3009088754      -23.4260820038  TIP3      16795           0.0000000000
    100216     17195  TIP3      H1             35.7407293869       28.9052179369      -24.2677892850  TIP3      16795           0.0000000000
    100217     17195  TIP3      H2             36.0505954700       30.2577345353      -23.6451114665  TIP3      16795           0.0000000000
    100218     17196  TIP3      OH2            20.0650895782       32.3475864883      -22.3986180098  TIP3      16796           0.0000000000
    100219     17196  TIP3      H1             21.0055813513       32.3320246208      -22.1255717276  TIP3      16796           0.0000000000
    100220     17196  TIP3      H2             20.0903404827       31.5987114693      -23.0603775839  TIP3      16796           0.0000000000
    100221     17197  TIP3      OH2            37.0696023287       28.0761647406      -21.2501593151  TIP3      16797           0.0000000000
    100222     17197  TIP3      H1             36.5836567513       28.5152984731      -21.9797698019  TIP3      16797           0.0000000000
    100223     17197  TIP3      H2             37.0754525867       28.7983290259      -20.5785937638  TIP3      16797           0.0000000000
    100224     17198  TIP3      OH2            34.7372694924       22.7987791119      -23.5660012674  TIP3      16798           0.0000000000
    100225     17198  TIP3      H1             35.3392590994       22.4067152805      -22.9429708181  TIP3      16798           0.0000000000
    100226     17198  TIP3      H2             33.8929858385       22.3629942865      -23.3986084507  TIP3      16798           0.0000000000
    100227     17199  TIP3      OH2            20.3839309710       19.7294154850      -20.9595321494  TIP3      16799           0.0000000000
    100228     17199  TIP3      H1             20.8604713547       20.3395917996      -21.5134511094  TIP3      16799           0.0000000000
    100229     17199  TIP3      H2             19.7741561242       20.2567998206      -20.4402250683  TIP3      16799           0.0000000000
    100230     17200  TIP3      OH2            22.2447568127       21.6743552495      -22.5005546022  TIP3      16800           0.0000000000
    100231     17200  TIP3      H1             22.7486257268       20.9981362989      -23.0044863897  TIP3      16800           0.0000000000
    100232     17200  TIP3      H2             22.8796421050       21.9158667132      -21.8073330633  TIP3      16800           0.0000000000
    100233     17201  TIP3      OH2            22.0803036538       36.5701886081      -23.0036205295  TIP3      16801           0.0000000000
    100234     17201  TIP3      H1             21.8611789314       36.8776329399      -22.1284937692  TIP3      16801           0.0000000000
    100235     17201  TIP3      H2             22.8992955458       36.0419275249      -22.8675017183  TIP3      16801           0.0000000000
    100236     17202  TIP3      OH2            48.2842709493       26.8281978315      -22.3138761196  TIP3      16802           0.0000000000
    100237     17202  TIP3      H1             48.9623882338       26.8029544987      -21.6237007479  TIP3      16802           0.0000000000
    100238     17202  TIP3      H2             48.5826609452       26.1454150533      -22.9240091018  TIP3      16802           0.0000000000
    100239     17203  TIP3      OH2            54.2107561267       19.4574299822      -20.8495018149  TIP3      16803           0.0000000000
    100240     17203  TIP3      H1             53.2834760409       19.5669808206      -20.5843467616  TIP3      16803           0.0000000000
    100241     17203  TIP3      H2             54.4450727392       20.2926469080      -21.2755172690  TIP3      16803           0.0000000000
    100242     17204  TIP3      OH2            55.3682963542       33.7733815391      -22.5103941578  TIP3      16804           0.0000000000
    100243     17204  TIP3      H1             55.4753411960       34.7347609118      -22.3015412081  TIP3      16804           0.0000000000
    100244     17204  TIP3      H2             56.3000612741       33.5256595106      -22.5215259283  TIP3      16804           0.0000000000
    100245     17205  TIP3      OH2            50.7621685473       36.5414886056      -21.8409448252  TIP3      16805           0.0000000000
    100246     17205  TIP3      H1             51.1992763824       35.8014787406      -22.3017496140  TIP3      16805           0.0000000000
    100247     17205  TIP3      H2             50.8083039067       36.2789917388      -20.9104862195  TIP3      16805           0.0000000000
    100248     17206  TIP3      OH2            51.9637917601       28.7645457235      -23.0330463537  TIP3      16806           0.0000000000
    100249     17206  TIP3      H1             52.0075898407       28.4958470339      -23.9830108608  TIP3      16806           0.0000000000
    100250     17206  TIP3      H2             52.8383957549       29.1182580366      -22.8812023417  TIP3      16806           0.0000000000
    100251     17207  TIP3      OH2            47.5718094794       22.6078039343      -22.4062374075  TIP3      16807           0.0000000000
    100252     17207  TIP3      H1             47.2897662044       22.6332595859      -21.4743905479  TIP3      16807           0.0000000000
    100253     17207  TIP3      H2             47.2662542968       21.7321646547      -22.6892303364  TIP3      16807           0.0000000000
    100254     17208  TIP3      OH2            44.4241829978       23.0343005392      -23.2925059602  TIP3      16808           0.0000000000
    100255     17208  TIP3      H1             43.9891880601       22.6153543542      -22.5341786288  TIP3      16808           0.0000000000
    100256     17208  TIP3      H2             43.6976517143       23.4348917852      -23.7912802147  TIP3      16808           0.0000000000
    100257     17209  TIP3      OH2            43.0187105587       25.8159200860      -21.9084439872  TIP3      16809           0.0000000000
    100258     17209  TIP3      H1             42.5098712178       25.4400206873      -22.6308062784  TIP3      16809           0.0000000000
    100259     17209  TIP3      H2             43.8825617721       26.0208922994      -22.3223306037  TIP3      16809           0.0000000000
    100260     17210  TIP3      OH2            50.2632853189       23.1909812726      -21.7641939287  TIP3      16810           0.0000000000
    100261     17210  TIP3      H1             49.3128300039       23.3363483404      -21.9015503644  TIP3      16810           0.0000000000
    100262     17210  TIP3      H2             50.5893917343       24.0536295071      -21.4536598112  TIP3      16810           0.0000000000
    100263     17211  TIP3      OH2            39.6395059533       28.0390323844      -22.1982923157  TIP3      16811           0.0000000000
    100264     17211  TIP3      H1             40.2519474580       28.6941199576      -21.8295361964  TIP3      16811           0.0000000000
    100265     17211  TIP3      H2             38.7623736613       28.3782058592      -21.9366782436  TIP3      16811           0.0000000000
    100266     17212  TIP3      OH2            51.5772412639       32.0619750631      -22.1272164503  TIP3      16812           0.0000000000
    100267     17212  TIP3      H1             51.9031838557       31.6723469994      -21.3101144923  TIP3      16812           0.0000000000
    100268     17212  TIP3      H2             50.6326608137       31.9389502629      -22.0253542237  TIP3      16812           0.0000000000
    100269     17213  TIP3      OH2            56.0437926274       36.5223228051      -21.9703863996  TIP3      16813           0.0000000000
    100270     17213  TIP3      H1             56.8224120932       37.1031112230      -22.0189330763  TIP3      16813           0.0000000000
    100271     17213  TIP3      H2             55.3785042635       37.0898202818      -21.5494363072  TIP3      16813           0.0000000000
    100272     17214  TIP3      OH2            45.7512426463       33.1713487524      -23.6512724404  TIP3      16814           0.0000000000
    100273     17214  TIP3      H1             45.8523619058       32.3993184109      -24.2338888444  TIP3      16814           0.0000000000
    100274     17214  TIP3      H2             45.3164498997       32.7669047933      -22.8557966422  TIP3      16814           0.0000000000
    100275     17215  TIP3      OH2            44.6742820585       32.7121200990      -21.2202146688  TIP3      16815           0.0000000000
    100276     17215  TIP3      H1             44.7193981595       32.2125639382      -20.4006173918  TIP3      16815           0.0000000000
    100277     17215  TIP3      H2             44.5598070791       33.6385598931      -20.8921393926  TIP3      16815           0.0000000000
    100278     17216  TIP3      OH2            44.6951444924       35.4570934846      -20.5055803550  TIP3      16816           0.0000000000
    100279     17216  TIP3      H1             44.8313667795       36.2694651210      -20.9889156190  TIP3      16816           0.0000000000
    100280     17216  TIP3      H2             44.4800499900       35.7718941649      -19.6048559685  TIP3      16816           0.0000000000
    100281     17217  TIP3      OH2            39.9700409392       25.2688745624      -22.6802143634  TIP3      16817           0.0000000000
    100282     17217  TIP3      H1             39.9504514416       26.2290130370      -22.5093391785  TIP3      16817           0.0000000000
    100283     17217  TIP3      H2             39.1062085807       25.0378908001      -22.9986008738  TIP3      16817           0.0000000000
    100284     17218  TIP3      OH2            47.7183550762       35.0294379266      -23.5275395199  TIP3      16818           0.0000000000
    100285     17218  TIP3      H1             47.0369660482       34.3906028637      -23.2477803011  TIP3      16818           0.0000000000
    100286     17218  TIP3      H2             48.4691796167       34.4951254829      -23.7869890288  TIP3      16818           0.0000000000
    100287     17219  TIP3      OH2            52.2804131960       34.8129343509      -23.3100898375  TIP3      16819           0.0000000000
    100288     17219  TIP3      H1             52.6033933814       34.0345134850      -22.8443469745  TIP3      16819           0.0000000000
    100289     17219  TIP3      H2             53.0403566777       35.0581368767      -23.8759286141  TIP3      16819           0.0000000000
    100290     17220  TIP3      OH2            43.2309081990       30.7339136386      -23.4694583464  TIP3      16820           0.0000000000
    100291     17220  TIP3      H1             43.3390938489       29.9452126630      -22.9135960928  TIP3      16820           0.0000000000
    100292     17220  TIP3      H2             43.9262784166       30.6134612791      -24.1372510737  TIP3      16820           0.0000000000
    100293     17221  TIP3      OH2            44.3726084088       28.7437769540      -21.1542658811  TIP3      16821           0.0000000000
    100294     17221  TIP3      H1             43.9645956363       28.2146205954      -20.4567115775  TIP3      16821           0.0000000000
    100295     17221  TIP3      H2             44.6821545270       28.0348948507      -21.7592866789  TIP3      16821           0.0000000000
    100296     17222  TIP3      OH2            45.4598880045       26.9763638918      -22.8927280348  TIP3      16822           0.0000000000
    100297     17222  TIP3      H1             45.3059678162       26.8250698710      -23.8347307595  TIP3      16822           0.0000000000
    100298     17222  TIP3      H2             46.4309718872       27.0405746706      -22.8147692130  TIP3      16822           0.0000000000
    100299     17223  TIP3      OH2            54.8463175604       29.3339838953      -23.4088676334  TIP3      16823           0.0000000000
    100300     17223  TIP3      H1             54.5986115089       28.8991174531      -24.2522909942  TIP3      16823           0.0000000000
    100301     17223  TIP3      H2             54.9057477285       30.2696755165      -23.6821964908  TIP3      16823           0.0000000000
    100302     17224  TIP3      OH2            55.9593158502       28.1324036056      -21.2203176253  TIP3      16824           0.0000000000
    100303     17224  TIP3      H1             55.4623326023       28.4811097630      -21.9829260058  TIP3      16824           0.0000000000
    100304     17224  TIP3      H2             55.9548382420       28.8146816134      -20.5652971670  TIP3      16824           0.0000000000
    100305     17225  TIP3      OH2            53.5799128241       22.7581727380      -23.6098725318  TIP3      16825           0.0000000000
    100306     17225  TIP3      H1             54.1927700285       22.4458985218      -22.9173286939  TIP3      16825           0.0000000000
    100307     17225  TIP3      H2             52.7346907375       22.3718349518      -23.3655067750  TIP3      16825           0.0000000000
    100308     17226  TIP3      OH2            55.6990521981       21.6278191000      -22.0053817368  TIP3      16826           0.0000000000
    100309     17226  TIP3      H1             56.1268305045       20.9563620941      -22.5317466185  TIP3      16826           0.0000000000
    100310     17226  TIP3      H2             56.3545328434       22.3448251743      -21.9687602571  TIP3      16826           0.0000000000
    100311     17227  TIP3      OH2            41.1081392522       21.6798351673      -22.5038606177  TIP3      16827           0.0000000000
    100312     17227  TIP3      H1             41.5939617820       20.9950809644      -22.9990465144  TIP3      16827           0.0000000000
    100313     17227  TIP3      H2             41.7395491970       21.9271305176      -21.8065068824  TIP3      16827           0.0000000000
    100314     17228  TIP3      OH2            48.0105711871       36.8901053559      -21.6200600716  TIP3      16828           0.0000000000
    100315     17228  TIP3      H1             48.8936172120       37.2314713310      -21.8217420844  TIP3      16828           0.0000000000
    100316     17228  TIP3      H2             47.7796367491       36.4267747499      -22.4460234546  TIP3      16828           0.0000000000
    100317     17229  TIP3      OH2            40.9500105033       36.5998538418      -23.0028767666  TIP3      16829           0.0000000000
    100318     17229  TIP3      H1             40.7129300123       36.8621108740      -22.1092695249  TIP3      16829           0.0000000000
    100319     17229  TIP3      H2             41.7363403333       36.0268840224      -22.8511677479  TIP3      16829           0.0000000000
    100320     17230  TIP3      OH2           -46.0200877908       45.6570230667      -22.3159961247  TIP3      16830           0.0000000000
    100321     17230  TIP3      H1            -45.3219621486       45.6583290606      -21.6446210987  TIP3      16830           0.0000000000
    100322     17230  TIP3      H2            -45.6946596724       44.9915197849      -22.9372898648  TIP3      16830           0.0000000000
    100323     17231  TIP3      OH2           -38.9049111348       52.6706974123      -22.5012444149  TIP3      16831           0.0000000000
    100324     17231  TIP3      H1            -38.8054713468       53.6256550561      -22.3222321080  TIP3      16831           0.0000000000
    100325     17231  TIP3      H2            -37.9933255555       52.3597717745      -22.5441785172  TIP3      16831           0.0000000000
    100326     17232  TIP3      OH2           -43.5346455387       55.3930332695      -21.8419693035  TIP3      16832           0.0000000000
    100327     17232  TIP3      H1            -43.0930727785       54.6541799222      -22.3045703309  TIP3      16832           0.0000000000
    100328     17232  TIP3      H2            -43.4734736160       55.1525248438      -20.9121226119  TIP3      16832           0.0000000000
    100329     17233  TIP3      OH2           -42.3134809295       47.5931212489      -23.0460505864  TIP3      16833           0.0000000000
    100330     17233  TIP3      H1            -42.2683580735       47.3632982494      -23.9924417443  TIP3      16833           0.0000000000
    100331     17233  TIP3      H2            -41.4485506960       47.9872311256      -22.8526832882  TIP3      16833           0.0000000000
    100332     17234  TIP3      OH2           -46.6460339572       41.4939839815      -22.4215832919  TIP3      16834           0.0000000000
    100333     17234  TIP3      H1            -46.9744378443       41.4609619321      -21.4824344693  TIP3      16834           0.0000000000
    100334     17234  TIP3      H2            -46.9813472066       40.6066453541      -22.6660467221  TIP3      16834           0.0000000000
    100335     17235  TIP3      OH2           -55.3539003840       42.2940721578      -20.9133331202  TIP3      16835           0.0000000000
    100336     17235  TIP3      H1            -54.8393318339       43.0040874431      -21.3461636020  TIP3      16835           0.0000000000
    100337     17235  TIP3      H2            -56.0173729134       42.8997648551      -20.4373503277  TIP3      16835           0.0000000000
    100338     17236  TIP3      OH2           -43.9987938915       42.0564537792      -21.8066762547  TIP3      16836           0.0000000000
    100339     17236  TIP3      H1            -44.9624205220       42.1511187959      -21.9003503714  TIP3      16836           0.0000000000
    100340     17236  TIP3      H2            -43.6989084019       42.9019018020      -21.4142219310  TIP3      16836           0.0000000000
    100341     17237  TIP3      OH2           -43.2995681152       43.9578236650      -20.1378266745  TIP3      16837           0.0000000000
    100342     17237  TIP3      H1            -42.4140571031       43.7741033318      -19.7691501485  TIP3      16837           0.0000000000
    100343     17237  TIP3      H2            -43.1904998079       44.7541554494      -20.6425277511  TIP3      16837           0.0000000000
    100344     17238  TIP3      OH2           -38.2029688148       55.3204658354      -21.8597531148  TIP3      16838           0.0000000000
    100345     17238  TIP3      H1            -37.4877388335       55.9557100094      -22.0661228978  TIP3      16838           0.0000000000
    100346     17238  TIP3      H2            -38.8907650661       55.9580469988      -21.5912241899  TIP3      16838           0.0000000000
    100347     17239  TIP3      OH2           -48.5805250971       52.0412297226      -23.6561003775  TIP3      16839           0.0000000000
    100348     17239  TIP3      H1            -48.4022834262       51.2710772176      -24.2311847490  TIP3      16839           0.0000000000
    100349     17239  TIP3      H2            -48.9061561829       51.6000847737      -22.8732801519  TIP3      16839           0.0000000000
    100350     17240  TIP3      OH2           -52.6256959390       51.4442023656      -21.8224939134  TIP3      16840           0.0000000000
    100351     17240  TIP3      H1            -52.0326031881       52.1368424806      -21.5255733539  TIP3      16840           0.0000000000
    100352     17240  TIP3      H2            -52.1520190380       51.0016533307      -22.5407316674  TIP3      16840           0.0000000000
    100353     17241  TIP3      OH2           -54.3156637723       44.1032039678      -22.6807095578  TIP3      16841           0.0000000000
    100354     17241  TIP3      H1            -54.3393670075       45.0488266794      -22.5230462534  TIP3      16841           0.0000000000
    100355     17241  TIP3      H2            -55.2039349513       43.9176581435      -22.9764642344  TIP3      16841           0.0000000000
    100356     17242  TIP3      OH2           -46.5749439555       53.8923156190      -23.5177467940  TIP3      16842           0.0000000000
    100357     17242  TIP3      H1            -47.2277517875       53.2218880670      -23.2462015263  TIP3      16842           0.0000000000
    100358     17242  TIP3      H2            -45.8197588950       53.3361538558      -23.7770925974  TIP3      16842           0.0000000000
    100359     17243  TIP3      OH2           -41.9834943120       53.6679484829      -23.3092711230  TIP3      16843           0.0000000000
    100360     17243  TIP3      H1            -41.6731153360       52.8870895846      -22.8554717559  TIP3      16843           0.0000000000
    100361     17243  TIP3      H2            -41.2361372043       53.9076807003      -23.8769401493  TIP3      16843           0.0000000000
    100362     17244  TIP3      OH2           -51.0392850716       49.6150692843      -23.4497873282  TIP3      16844           0.0000000000
    100363     17244  TIP3      H1            -50.9441900846       48.8075723438      -22.9355300483  TIP3      16844           0.0000000000
    100364     17244  TIP3      H2            -50.3528258241       49.4789037964      -24.1421508538  TIP3      16844           0.0000000000
    100365     17245  TIP3      OH2           -45.6432337430       50.6808805905      -23.7071124587  TIP3      16845           0.0000000000
    100366     17245  TIP3      H1            -45.9325185173       50.7970141764      -22.8056699110  TIP3      16845           0.0000000000
    100367     17245  TIP3      H2            -45.8687011205       49.7277873737      -23.8547742180  TIP3      16845           0.0000000000
    100368     17246  TIP3      OH2           -48.8221941535       45.8351636956      -22.8645302258  TIP3      16846           0.0000000000
    100369     17246  TIP3      H1            -48.9877041951       45.6750636954      -23.8172448514  TIP3      16846           0.0000000000
    100370     17246  TIP3      H2            -47.8478256549       45.9057834810      -22.8329971171  TIP3      16846           0.0000000000
    100371     17247  TIP3      OH2           -39.4113133305       48.1709330485      -23.4383940227  TIP3      16847           0.0000000000
    100372     17247  TIP3      H1            -39.6812754887       47.7567314265      -24.2591541766  TIP3      16847           0.0000000000
    100373     17247  TIP3      H2            -39.3747059830       49.1168811938      -23.6544821061  TIP3      16847           0.0000000000
    100374     17248  TIP3      OH2           -55.3246824570       51.1246564570      -22.4077287693  TIP3      16848           0.0000000000
    100375     17248  TIP3      H1            -54.4087748817       51.2165914269      -22.1122702386  TIP3      16848           0.0000000000
    100376     17248  TIP3      H2            -55.3196198224       50.4409382383      -23.0878184361  TIP3      16848           0.0000000000
    100377     17249  TIP3      OH2           -39.9295078233       44.2227437048      -22.7091182477  TIP3      16849           0.0000000000
    100378     17249  TIP3      H1            -39.8440002108       44.8990429194      -23.3791485634  TIP3      16849           0.0000000000
    100379     17249  TIP3      H2            -40.0878021331       43.3954565653      -23.1846309960  TIP3      16849           0.0000000000
    100380     17250  TIP3      OH2           -40.6749892993       41.6444270428      -23.5903477443  TIP3      16850           0.0000000000
    100381     17250  TIP3      H1            -40.0993450017       41.2575738871      -22.9175315073  TIP3      16850           0.0000000000
    100382     17250  TIP3      H2            -41.5308351637       41.2269486249      -23.3733782704  TIP3      16850           0.0000000000
    100383     17251  TIP3      OH2           -55.0557048348       38.5620219363      -20.9927527445  TIP3      16851           0.0000000000
    100384     17251  TIP3      H1            -54.5427625930       39.1899403207      -21.4730029604  TIP3      16851           0.0000000000
    100385     17251  TIP3      H2            -55.6457687614       39.0840740997      -20.4188046400  TIP3      16851           0.0000000000
    100386     17252  TIP3      OH2           -46.2848439412       55.7180078758      -21.6079253623  TIP3      16852           0.0000000000
    100387     17252  TIP3      H1            -45.4087102103       56.0967980713      -21.8134840433  TIP3      16852           0.0000000000
    100388     17252  TIP3      H2            -46.4839332406       55.3023930768      -22.4649878752  TIP3      16852           0.0000000000
    100389     17253  TIP3      OH2           -53.2961867544       55.4458353087      -23.0179263970  TIP3      16853           0.0000000000
    100390     17253  TIP3      H1            -53.6074682025       55.7249034368      -22.1350084691  TIP3      16853           0.0000000000
    100391     17253  TIP3      H2            -52.5541873659       54.8707007280      -22.8346040108  TIP3      16853           0.0000000000
    100392     17254  TIP3      OH2           -27.1453094013       45.6959453147      -22.3182668395  TIP3      16854           0.0000000000
    100393     17254  TIP3      H1            -26.4626516056       45.6338064289      -21.6423897008  TIP3      16854           0.0000000000
    100394     17254  TIP3      H2            -26.8466875284       45.0040576751      -22.9192856972  TIP3      16854           0.0000000000
    100395     17255  TIP3      OH2           -20.0554103339       52.6562505104      -22.5476350358  TIP3      16855           0.0000000000
    100396     17255  TIP3      H1            -19.9483490975       53.6000224666      -22.2985858037  TIP3      16855           0.0000000000
    100397     17255  TIP3      H2            -19.1359796576       52.3663871330      -22.5158066454  TIP3      16855           0.0000000000
    100398     17256  TIP3      OH2           -24.6538217728       55.3964199760      -21.8433614378  TIP3      16856           0.0000000000
    100399     17256  TIP3      H1            -24.2299022904       54.6419213176      -22.2897264339  TIP3      16856           0.0000000000
    100400     17256  TIP3      H2            -24.6184836239       55.1326312144      -20.9055401455  TIP3      16856           0.0000000000
    100401     17257  TIP3      OH2           -23.4575546934       47.5840998658      -23.0088978984  TIP3      16857           0.0000000000
    100402     17257  TIP3      H1            -23.4109185899       47.3622586247      -23.9643171961  TIP3      16857           0.0000000000
    100403     17257  TIP3      H2            -22.5896967774       47.9961675171      -22.8726733395  TIP3      16857           0.0000000000
    100404     17258  TIP3      OH2           -27.8860946369       41.4463880986      -22.3917737226  TIP3      16858           0.0000000000
    100405     17258  TIP3      H1            -28.1132613252       41.5034749639      -21.4621498283  TIP3      16858           0.0000000000
    100406     17258  TIP3      H2            -28.1464756188       40.5761242863      -22.7082360873  TIP3      16858           0.0000000000
    100407     17259  TIP3      OH2           -32.3955659348       44.6659586525      -21.9159769017  TIP3      16859           0.0000000000
    100408     17259  TIP3      H1            -32.9224304761       44.3057104023      -22.6284312896  TIP3      16859           0.0000000000
    100409     17259  TIP3      H2            -31.5444673888       44.9062678885      -22.3236145460  TIP3      16859           0.0000000000
    100410     17260  TIP3      OH2           -35.7992569991       46.9189428636      -22.2050504771  TIP3      16860           0.0000000000
    100411     17260  TIP3      H1            -35.1756356036       47.5391574125      -21.8005501477  TIP3      16860           0.0000000000
    100412     17260  TIP3      H2            -36.6613685779       47.2510247529      -21.9254418063  TIP3      16860           0.0000000000
    100413     17261  TIP3      OH2           -23.8270158357       50.9088142611      -22.1336582910  TIP3      16861           0.0000000000
    100414     17261  TIP3      H1            -23.5067302117       50.5386616658      -21.3161282426  TIP3      16861           0.0000000000
    100415     17261  TIP3      H2            -24.7826283855       50.8128678337      -22.0491872493  TIP3      16861           0.0000000000
    100416     17262  TIP3      OH2           -19.3187297115       55.3238519236      -21.8893455167  TIP3      16862           0.0000000000
    100417     17262  TIP3      H1            -18.6214528860       55.9546407523      -22.0817834415  TIP3      16862           0.0000000000
    100418     17262  TIP3      H2            -20.0472290616       55.9174222351      -21.5862353083  TIP3      16862           0.0000000000
    100419     17263  TIP3      OH2           -29.7288432627       52.0516223118      -23.6768541931  TIP3      16863           0.0000000000
    100420     17263  TIP3      H1            -29.5520447883       51.2641494565      -24.2183374280  TIP3      16863           0.0000000000
    100421     17263  TIP3      H2            -30.0624632760       51.6237865975      -22.8515574145  TIP3      16863           0.0000000000
    100422     17264  TIP3      OH2           -30.8774103466       51.5764631298      -21.2269594917  TIP3      16864           0.0000000000
    100423     17264  TIP3      H1            -30.6668282762       51.0576335776      -20.4260129896  TIP3      16864           0.0000000000
    100424     17264  TIP3      H2            -30.8000976953       52.4865327707      -20.8940521490  TIP3      16864           0.0000000000
    100425     17265  TIP3      OH2           -28.0732120508       53.2664292352      -20.4813824596  TIP3      16865           0.0000000000
    100426     17265  TIP3      H1            -28.9063826926       53.7665515619      -20.4062331757  TIP3      16865           0.0000000000
    100427     17265  TIP3      H2            -27.5609065557       53.7919722318      -21.0965992275  TIP3      16865           0.0000000000
    100428     17266  TIP3      OH2           -30.6071615722       54.2565382054      -20.5073055116  TIP3      16866           0.0000000000
    100429     17266  TIP3      H1            -30.5685697695       55.0838717214      -21.0013893550  TIP3      16866           0.0000000000
    100430     17266  TIP3      H2            -30.9151624175       54.5952330708      -19.6401279779  TIP3      16866           0.0000000000
    100431     17267  TIP3      OH2           -35.4532759223       44.1188361972      -22.6974135832  TIP3      16867           0.0000000000
    100432     17267  TIP3      H1            -35.4801522200       45.0761923066      -22.5094189680  TIP3      16867           0.0000000000
    100433     17267  TIP3      H2            -36.3472889839       43.8895396182      -22.9543107564  TIP3      16867           0.0000000000
    100434     17268  TIP3      OH2           -27.7153474820       53.8938748551      -23.5572024742  TIP3      16868           0.0000000000
    100435     17268  TIP3      H1            -28.3686652418       53.2373564147      -23.2344691342  TIP3      16868           0.0000000000
    100436     17268  TIP3      H2            -26.9602761585       53.3329625183      -23.7621410169  TIP3      16868           0.0000000000
    100437     17269  TIP3      OH2           -23.1451005956       53.6446421074      -23.3523661288  TIP3      16869           0.0000000000
    100438     17269  TIP3      H1            -22.8146928453       52.8935575655      -22.8449452244  TIP3      16869           0.0000000000
    100439     17269  TIP3      H2            -22.3626728292       53.9104110249      -23.8681503409  TIP3      16869           0.0000000000
    100440     17270  TIP3      OH2           -32.2029848783       49.5952923358      -23.4727693592  TIP3      16870           0.0000000000
    100441     17270  TIP3      H1            -32.0934955349       48.8096896449      -22.9171005397  TIP3      16870           0.0000000000
    100442     17270  TIP3      H2            -31.4966978507       49.4735367400      -24.1314976303  TIP3      16870           0.0000000000
    100443     17271  TIP3      OH2           -26.7848032484       50.6732018037      -23.6955321028  TIP3      16871           0.0000000000
    100444     17271  TIP3      H1            -27.1164840205       50.8215771340      -22.8116227631  TIP3      16871           0.0000000000
    100445     17271  TIP3      H2            -27.0198122746       49.7291928484      -23.8540280173  TIP3      16871           0.0000000000
    100446     17272  TIP3      OH2           -29.9525834835       45.8294818968      -22.8781432913  TIP3      16872           0.0000000000
    100447     17272  TIP3      H1            -30.1227738777       45.6921389763      -23.8164539122  TIP3      16872           0.0000000000
    100448     17272  TIP3      H2            -28.9930659061       45.9115158139      -22.8188771236  TIP3      16872           0.0000000000
    100449     17273  TIP3      OH2           -20.5769814713       48.1722442769      -23.4145310182  TIP3      16873           0.0000000000
    100450     17273  TIP3      H1            -20.8130872662       47.7595931183      -24.2573510156  TIP3      16873           0.0000000000
    100451     17273  TIP3      H2            -20.5117070662       49.1179378560      -23.6514248963  TIP3      16873           0.0000000000
    100452     17274  TIP3      OH2           -21.0634696357       44.2416075290      -22.7137864383  TIP3      16874           0.0000000000
    100453     17274  TIP3      H1            -20.9769444991       44.9010588458      -23.3936351717  TIP3      16874           0.0000000000
    100454     17274  TIP3      H2            -21.2303519622       43.4077341498      -23.1802951695  TIP3      16874           0.0000000000
    100455     17275  TIP3      OH2           -21.8328157695       41.6454752815      -23.5933325004  TIP3      16875           0.0000000000
    100456     17275  TIP3      H1            -21.2095038091       41.2596242349      -22.9452195699  TIP3      16875           0.0000000000
    100457     17275  TIP3      H2            -22.6766493181       41.2217189721      -23.3866327738  TIP3      16875           0.0000000000
    100458     17276  TIP3      OH2           -19.7556374496       40.5326290444      -22.0295106554  TIP3      16876           0.0000000000
    100459     17276  TIP3      H1            -19.3169595254       39.8006636351      -22.5026395082  TIP3      16876           0.0000000000
    100460     17276  TIP3      H2            -19.0463614758       41.1848097408      -21.9599247294  TIP3      16876           0.0000000000
    100461     17277  TIP3      OH2           -36.1581222398       38.5712994364      -20.9222827517  TIP3      16877           0.0000000000
    100462     17277  TIP3      H1            -35.7307577065       39.1936608941      -21.5223430525  TIP3      16877           0.0000000000
    100463     17277  TIP3      H2            -36.8131449777       39.1047858189      -20.4609937168  TIP3      16877           0.0000000000
    100464     17278  TIP3      OH2           -34.3262449681       40.4922692243      -22.4817235534  TIP3      16878           0.0000000000
    100465     17278  TIP3      H1            -33.8303012605       39.8621787606      -23.0296913834  TIP3      16878           0.0000000000
    100466     17278  TIP3      H2            -33.7000299630       40.8067686430      -21.8272450094  TIP3      16878           0.0000000000
    100467     17279  TIP3      OH2           -27.4641652606       55.7577643342      -21.6679016043  TIP3      16879           0.0000000000
    100468     17279  TIP3      H1            -26.5488413151       56.0825346543      -21.7861303307  TIP3      16879           0.0000000000
    100469     17279  TIP3      H2            -27.6372238910       55.2706247302      -22.4720072806  TIP3      16879           0.0000000000
    100470     17280  TIP3      OH2           -34.4671607376       55.4468860307      -22.9942274783  TIP3      16880           0.0000000000
    100471     17280  TIP3      H1            -34.7270002618       55.7289809436      -22.1142829582  TIP3      16880           0.0000000000
    100472     17280  TIP3      H2            -33.6836546593       54.8797033425      -22.8655921153  TIP3      16880           0.0000000000
    100473     17281  TIP3      OH2            -1.2037789551       52.6621459520      -22.5516404623  TIP3      16881           0.0000000000
    100474     17281  TIP3      H1             -1.1107594860       53.5951365978      -22.2906792503  TIP3      16881           0.0000000000
    100475     17281  TIP3      H2             -0.2744123853       52.3617862264      -22.5117204504  TIP3      16881           0.0000000000
    100476     17282  TIP3      OH2            -5.8057902086       55.3851958034      -21.8290041137  TIP3      16882           0.0000000000
    100477     17282  TIP3      H1             -5.3682730193       54.6517350348      -22.3043484824  TIP3      16882           0.0000000000
    100478     17282  TIP3      H2             -5.7408054498       55.1370164422      -20.9021563838  TIP3      16882           0.0000000000
    100479     17283  TIP3      OH2            -4.6157010267       47.6049844463      -23.0152682386  TIP3      16883           0.0000000000
    100480     17283  TIP3      H1             -4.5507863574       47.3587428246      -23.9763830787  TIP3      16883           0.0000000000
    100481     17283  TIP3      H2             -3.7321682326       47.9907869696      -22.8894948339  TIP3      16883           0.0000000000
    100482     17284  TIP3      OH2            -9.0260085217       41.5039923290      -22.4067269989  TIP3      16884           0.0000000000
    100483     17284  TIP3      H1             -9.2672845277       41.4638195244      -21.4743903002  TIP3      16884           0.0000000000
    100484     17284  TIP3      H2             -9.2798008593       40.5971412676      -22.6949424763  TIP3      16884           0.0000000000
    100485     17285  TIP3      OH2           -12.1308924197       41.8848732324      -23.2796482231  TIP3      16885           0.0000000000
    100486     17285  TIP3      H1            -12.5937113551       41.4785026736      -22.5401536153  TIP3      16885           0.0000000000
    100487     17285  TIP3      H2            -12.8619999771       42.2892321519      -23.7840382505  TIP3      16885           0.0000000000
    100488     17286  TIP3      OH2            -6.2893030039       42.0870144010      -21.8014237383  TIP3      16886           0.0000000000
    100489     17286  TIP3      H1             -7.2442185930       42.1463440554      -21.8976962947  TIP3      16886           0.0000000000
    100490     17286  TIP3      H2             -5.9730055145       42.9005945106      -21.4159350119  TIP3      16886           0.0000000000
    100491     17287  TIP3      OH2           -16.9418864043       46.9101562442      -22.2201828327  TIP3      16887           0.0000000000
    100492     17287  TIP3      H1            -16.3135114326       47.5428014357      -21.8045263612  TIP3      16887           0.0000000000
    100493     17287  TIP3      H2            -17.7922699457       47.2481247566      -21.9340872496  TIP3      16887           0.0000000000
    100494     17288  TIP3      OH2            -4.9854311139       50.9218529135      -22.1123421885  TIP3      16888           0.0000000000
    100495     17288  TIP3      H1             -4.6235969968       50.5358613542      -21.3401666580  TIP3      16888           0.0000000000
    100496     17288  TIP3      H2             -5.9380466942       50.8043979756      -22.0647992921  TIP3      16888           0.0000000000
    100497     17289  TIP3      OH2           -10.8620696057       52.0389157548      -23.6440989818  TIP3      16889           0.0000000000
    100498     17289  TIP3      H1            -10.6963087497       51.2718321194      -24.2260118317  TIP3      16889           0.0000000000
    100499     17289  TIP3      H2            -11.2179168472       51.6061773579      -22.8645691481  TIP3      16889           0.0000000000
    100500     17290  TIP3      OH2           -15.5399131808       48.8159342751      -20.7309476502  TIP3      16890           0.0000000000
    100501     17290  TIP3      H1            -16.1921515677       49.2156580501      -20.1405783899  TIP3      16890           0.0000000000
    100502     17290  TIP3      H2            -14.9962832629       49.6022644939      -20.9469273776  TIP3      16890           0.0000000000
    100503     17291  TIP3      OH2           -14.9141843421       51.4504130395      -21.8315234240  TIP3      16891           0.0000000000
    100504     17291  TIP3      H1            -14.3192195678       52.1385760226      -21.5162539257  TIP3      16891           0.0000000000
    100505     17291  TIP3      H2            -14.4376915500       51.0040548748      -22.5385229508  TIP3      16891           0.0000000000
    100506     17292  TIP3      OH2           -16.5820260516       44.1235810362      -22.7452736860  TIP3      16892           0.0000000000
    100507     17292  TIP3      H1            -16.6212164353       45.0592741652      -22.4939551820  TIP3      16892           0.0000000000
    100508     17292  TIP3      H2            -17.4820243449       43.8905309266      -22.9450313313  TIP3      16892           0.0000000000
    100509     17293  TIP3      OH2            -8.8500997847       53.8815526655      -23.5362148125  TIP3      16893           0.0000000000
    100510     17293  TIP3      H1             -9.5249800741       53.2408351437      -23.2388186925  TIP3      16893           0.0000000000
    100511     17293  TIP3      H2             -8.1011376090       53.3326196191      -23.7890197115  TIP3      16893           0.0000000000
    100512     17294  TIP3      OH2            -4.2845045528       53.6585853716      -23.3280745061  TIP3      16894           0.0000000000
    100513     17294  TIP3      H1             -3.9514956241       52.8984408675      -22.8382264260  TIP3      16894           0.0000000000
    100514     17294  TIP3      H2             -3.5160427890       53.9088306434      -23.8642222178  TIP3      16894           0.0000000000
    100515     17295  TIP3      OH2           -13.3166932776       49.6311530221      -23.4411943561  TIP3      16895           0.0000000000
    100516     17295  TIP3      H1            -13.2628860904       48.8117467011      -22.9309780906  TIP3      16895           0.0000000000
    100517     17295  TIP3      H2            -12.6468408164       49.4709224585      -24.1336514976  TIP3      16895           0.0000000000
    100518     17296  TIP3      OH2            -7.9181057497       50.6760746150      -23.6918252251  TIP3      16896           0.0000000000
    100519     17296  TIP3      H1             -8.2588886929       50.8139279278      -22.8225325138  TIP3      16896           0.0000000000
    100520     17296  TIP3      H2             -8.1639312557       49.7350455726      -23.8717698038  TIP3      16896           0.0000000000
    100521     17297  TIP3      OH2           -11.0747837326       45.8303520084      -22.8604710333  TIP3      16897           0.0000000000
    100522     17297  TIP3      H1            -11.2952131321       45.6800437134      -23.8108711950  TIP3      16897           0.0000000000
    100523     17297  TIP3      H2            -10.1375741523       45.9130112810      -22.8650612078  TIP3      16897           0.0000000000
    100524     17298  TIP3      OH2            -1.7139772568       48.1654470904      -23.4108965162  TIP3      16898           0.0000000000
    100525     17298  TIP3      H1             -1.9658836063       47.7578877479      -24.2577827471  TIP3      16898           0.0000000000
    100526     17298  TIP3      H2             -1.6673293890       49.1139052907      -23.6574153749  TIP3      16898           0.0000000000
    100527     17299  TIP3      OH2            -2.2059218889       44.2421628967      -22.7102430499  TIP3      16899           0.0000000000
    100528     17299  TIP3      H1             -2.1358820828       44.8981824052      -23.3959953505  TIP3      16899           0.0000000000
    100529     17299  TIP3      H2             -2.3791675967       43.4058420186      -23.1731730384  TIP3      16899           0.0000000000
    100530     17300  TIP3      OH2            -2.9770112738       41.6528242377      -23.5834440490  TIP3      16900           0.0000000000
    100531     17300  TIP3      H1             -2.3700939780       41.2578465415      -22.9292789624  TIP3      16900           0.0000000000
    100532     17300  TIP3      H2             -3.8279849440       41.2285818445      -23.3802358229  TIP3      16900           0.0000000000
    100533     17301  TIP3      OH2            -0.8783512425       40.5354271611      -22.0109010315  TIP3      16901           0.0000000000
    100534     17301  TIP3      H1             -0.4655230983       39.7952216718      -22.5076518572  TIP3      16901           0.0000000000
    100535     17301  TIP3      H2             -0.1781397531       41.1903861557      -21.9825594538  TIP3      16901           0.0000000000
    100536     17302  TIP3      OH2           -15.4579500212       40.5002431333      -22.4980471575  TIP3      16902           0.0000000000
    100537     17302  TIP3      H1            -14.9610780666       39.8657222688      -23.0185631561  TIP3      16902           0.0000000000
    100538     17302  TIP3      H2            -14.8472827561       40.8028368680      -21.8075687069  TIP3      16902           0.0000000000
    100539     17303  TIP3      OH2            -8.5131553018       55.6707361845      -21.6183674282  TIP3      16903           0.0000000000
    100540     17303  TIP3      H1             -7.6738358053       56.0822155474      -21.8377197795  TIP3      16903           0.0000000000
    100541     17303  TIP3      H2             -8.7973879086       55.2882733994      -22.4617725487  TIP3      16903           0.0000000000
    100542     17304  TIP3      OH2           -15.5709345725       55.3650763489      -23.1039472776  TIP3      16904           0.0000000000
    100543     17304  TIP3      H1            -15.8629462247       55.6334789324      -22.2207311079  TIP3      16904           0.0000000000
    100544     17304  TIP3      H2            -14.7895715852       54.8624408542      -22.8780552059  TIP3      16904           0.0000000000
    100545     17305  TIP3      OH2            10.5502279002       45.6541967739      -22.3010077248  TIP3      16905           0.0000000000
    100546     17305  TIP3      H1             11.2495874232       45.6596648653      -21.6331689966  TIP3      16905           0.0000000000
    100547     17305  TIP3      H2             10.8903808389       45.0077187280      -22.9230344897  TIP3      16905           0.0000000000
    100548     17306  TIP3      OH2            17.6263020725       52.6365122814      -22.6195031390  TIP3      16906           0.0000000000
    100549     17306  TIP3      H1             17.7287059485       53.5563527584      -22.3461609824  TIP3      16906           0.0000000000
    100550     17306  TIP3      H2             18.5565688003       52.3296119139      -22.5469721236  TIP3      16906           0.0000000000
    100551     17307  TIP3      OH2            14.2337469670       47.6269216364      -23.0536293159  TIP3      16907           0.0000000000
    100552     17307  TIP3      H1             14.3029041293       47.3547980919      -23.9830922257  TIP3      16907           0.0000000000
    100553     17307  TIP3      H2             15.1140258496       47.9783970119      -22.8531279326  TIP3      16907           0.0000000000
    100554     17308  TIP3      OH2            12.5533652454       42.0693453467      -21.8302853917  TIP3      16908           0.0000000000
    100555     17308  TIP3      H1             11.6090268936       42.1811717216      -21.8597875060  TIP3      16908           0.0000000000
    100556     17308  TIP3      H2             12.8688966272       42.8957824691      -21.4352183600  TIP3      16908           0.0000000000
    100557     17309  TIP3      OH2            10.7827914865       50.7192853000      -20.9684760321  TIP3      16909           0.0000000000
    100558     17309  TIP3      H1             10.4860838014       51.5221570899      -20.5367938457  TIP3      16909           0.0000000000
    100559     17309  TIP3      H2             10.0931172576       50.0933882326      -20.7193118685  TIP3      16909           0.0000000000
    100560     17310  TIP3      OH2            13.8747727007       50.9204060851      -22.1356110776  TIP3      16910           0.0000000000
    100561     17310  TIP3      H1             14.2112266137       50.5231948483      -21.3232133635  TIP3      16910           0.0000000000
    100562     17310  TIP3      H2             12.9188773465       50.7849068755      -22.0332231512  TIP3      16910           0.0000000000
    100563     17311  TIP3      OH2             7.9808128003       52.0395778473      -23.6751325851  TIP3      16911           0.0000000000
    100564     17311  TIP3      H1              8.1633528618       51.2615983982      -24.2342276342  TIP3      16911           0.0000000000
    100565     17311  TIP3      H2              7.6615524246       51.6267996125      -22.8544207914  TIP3      16911           0.0000000000
    100566     17312  TIP3      OH2             3.9184743020       51.4484334076      -21.8353070071  TIP3      16912           0.0000000000
    100567     17312  TIP3      H1              4.5398419693       52.1333842127      -21.5300557879  TIP3      16912           0.0000000000
    100568     17312  TIP3      H2              4.4366142738       50.9993565819      -22.5280627004  TIP3      16912           0.0000000000
    100569     17313  TIP3      OH2             2.2687448890       44.1331750394      -22.7457483586  TIP3      16913           0.0000000000
    100570     17313  TIP3      H1              2.2412067521       45.0446631636      -22.4914811259  TIP3      16913           0.0000000000
    100571     17313  TIP3      H2              1.3794665319       43.8696740026      -22.9429360769  TIP3      16913           0.0000000000
    100572     17314  TIP3      OH2             9.9836896123       53.8925021376      -23.5560603245  TIP3      16914           0.0000000000
    100573     17314  TIP3      H1              9.3296065902       53.2387882895      -23.2331439575  TIP3      16914           0.0000000000
    100574     17314  TIP3      H2             10.7380939144       53.3290812079      -23.7757424480  TIP3      16914           0.0000000000
    100575     17315  TIP3      OH2            14.5830358557       53.6880798581      -23.3137244673  TIP3      16915           0.0000000000
    100576     17315  TIP3      H1             14.8805976029       52.8918764552      -22.8468107446  TIP3      16915           0.0000000000
    100577     17315  TIP3      H2             15.3398021379       53.9086976711      -23.8648830771  TIP3      16915           0.0000000000
    100578     17316  TIP3      OH2             5.5140493382       49.6219322349      -23.4439799609  TIP3      16916           0.0000000000
    100579     17316  TIP3      H1              5.6304631278       48.8167585290      -22.9088612957  TIP3      16916           0.0000000000
    100580     17316  TIP3      H2              6.2128171006       49.4828728174      -24.1183324121  TIP3      16916           0.0000000000
    100581     17317  TIP3      OH2            10.9258553502       50.6834463676      -23.7257995433  TIP3      16917           0.0000000000
    100582     17317  TIP3      H1             10.6366431323       50.8012505466      -22.8098365689  TIP3      16917           0.0000000000
    100583     17317  TIP3      H2             10.6953423884       49.7313208549      -23.8488686544  TIP3      16917           0.0000000000
    100584     17318  TIP3      OH2             6.6689014554       47.6009418138      -21.1463145045  TIP3      16918           0.0000000000
    100585     17318  TIP3      H1              6.2434531561       47.0892479690      -20.4526331014  TIP3      16918           0.0000000000
    100586     17318  TIP3      H2              6.9528126896       46.8944699332      -21.7736411546  TIP3      16918           0.0000000000
    100587     17319  TIP3      OH2             7.7652822076       45.8525388111      -22.8810629297  TIP3      16919           0.0000000000
    100588     17319  TIP3      H1              7.5748141569       45.6687499073      -23.8173135544  TIP3      16919           0.0000000000
    100589     17319  TIP3      H2              8.7292645041       45.9098327748      -22.8300009699  TIP3      16919           0.0000000000
    100590     17320  TIP3      OH2            17.1624297495       48.1707250844      -23.4384116539  TIP3      16920           0.0000000000
    100591     17320  TIP3      H1             16.8894335259       47.7507869253      -24.2641608545  TIP3      16920           0.0000000000
    100592     17320  TIP3      H2             17.1854422137       49.1193766616      -23.6528718314  TIP3      16920           0.0000000000
    100593     17321  TIP3      OH2             1.1976563788       51.1212136372      -22.3695250852  TIP3      16921           0.0000000000
    100594     17321  TIP3      H1              2.1517469556       51.2275596622      -22.1279358746  TIP3      16921           0.0000000000
    100595     17321  TIP3      H2              1.2448959797       50.4576493663      -23.0899068039  TIP3      16921           0.0000000000
    100596     17322  TIP3      OH2            16.6375823116       44.2305278323      -22.7138155398  TIP3      16922           0.0000000000
    100597     17322  TIP3      H1             16.7296622957       44.9033340130      -23.3812498504  TIP3      16922           0.0000000000
    100598     17322  TIP3      H2             16.4853097914       43.4030368486      -23.1821159101  TIP3      16922           0.0000000000
    100599     17323  TIP3      OH2            15.8792355169       41.6484248151      -23.5875024720  TIP3      16923           0.0000000000
    100600     17323  TIP3      H1             16.4922486956       41.2607508874      -22.9266797689  TIP3      16923           0.0000000000
    100601     17323  TIP3      H2             15.0384335105       41.2294058137      -23.3630247237  TIP3      16923           0.0000000000
    100602     17324  TIP3      OH2            17.9603289476       40.5335096307      -22.0897238691  TIP3      16924           0.0000000000
    100603     17324  TIP3      H1             18.4029849124       39.7962060144      -22.5180283400  TIP3      16924           0.0000000000
    100604     17324  TIP3      H2             18.6567686009       41.1900238725      -21.9379009912  TIP3      16924           0.0000000000
    100605     17325  TIP3      OH2             3.3829012562       40.5020555508      -22.4841172459  TIP3      16925           0.0000000000
    100606     17325  TIP3      H1              3.9026803780       39.8777163149      -23.0077272035  TIP3      16925           0.0000000000
    100607     17325  TIP3      H2              4.0315180863       40.7990877069      -21.8187524620  TIP3      16925           0.0000000000
    100608     17326  TIP3      OH2             3.2615495534       55.4525291899      -23.0052393296  TIP3      16926           0.0000000000
    100609     17326  TIP3      H1              2.9652532522       55.7165426784      -22.1281723849  TIP3      16926           0.0000000000
    100610     17326  TIP3      H2              4.0295609711       54.8778120732      -22.8509629808  TIP3      16926           0.0000000000
    100611     17327  TIP3      OH2            36.5114629524       52.6743508090      -22.5528880859  TIP3      16927           0.0000000000
    100612     17327  TIP3      H1             36.6024886743       53.5940167562      -22.2999344047  TIP3      16927           0.0000000000
    100613     17327  TIP3      H2             37.4348506003       52.3413174496      -22.5124420770  TIP3      16927           0.0000000000
    100614     17328  TIP3      OH2            31.8992332835       55.4014192127      -21.8289212367  TIP3      16928           0.0000000000
    100615     17328  TIP3      H1             32.3468624744       54.6575619619      -22.2981922322  TIP3      16928           0.0000000000
    100616     17328  TIP3      H2             31.9475839826       55.1218727114      -20.9028299088  TIP3      16928           0.0000000000
    100617     17329  TIP3      OH2            33.1058617335       47.6213463231      -23.0375888373  TIP3      16929           0.0000000000
    100618     17329  TIP3      H1             33.1437052793       47.3544945553      -23.9777877214  TIP3      16929           0.0000000000
    100619     17329  TIP3      H2             33.9781655929       47.9840344980      -22.8676603749  TIP3      16929           0.0000000000
    100620     17330  TIP3      OH2            25.5761080628       41.8891998519      -23.3041045291  TIP3      16930           0.0000000000
    100621     17330  TIP3      H1             25.1420843226       41.4805980692      -22.5248281783  TIP3      16930           0.0000000000
    100622     17330  TIP3      H2             24.8415567455       42.2913056443      -23.7840161787  TIP3      16930           0.0000000000
    100623     17331  TIP3      OH2            24.1635730614       44.6827275848      -21.8974726363  TIP3      16931           0.0000000000
    100624     17331  TIP3      H1             23.6540865213       44.2820849170      -22.6099307479  TIP3      16931           0.0000000000
    100625     17331  TIP3      H2             25.0226236083       44.8809490855      -22.3172452797  TIP3      16931           0.0000000000
    100626     17332  TIP3      OH2            37.0374070168       44.1332735469      -20.3985943650  TIP3      16932           0.0000000000
    100627     17332  TIP3      H1             36.4695358033       43.7476973922      -21.0806938804  TIP3      16932           0.0000000000
    100628     17332  TIP3      H2             37.1256596052       45.0485879509      -20.6770631027  TIP3      16932           0.0000000000
    100629     17333  TIP3      OH2            32.7242003644       50.9235947897      -22.1328860411  TIP3      16933           0.0000000000
    100630     17333  TIP3      H1             33.0707200401       50.5168880072      -21.3354467830  TIP3      16933           0.0000000000
    100631     17333  TIP3      H2             31.7788466242       50.7943611162      -22.0472602196  TIP3      16933           0.0000000000
    100632     17334  TIP3      OH2            26.8673729818       52.0527025076      -23.6605102887  TIP3      16934           0.0000000000
    100633     17334  TIP3      H1             27.0134648706       51.2700227129      -24.2341978108  TIP3      16934           0.0000000000
    100634     17334  TIP3      H2             26.4981594833       51.6180315926      -22.8632031939  TIP3      16934           0.0000000000
    100635     17335  TIP3      OH2            25.7815627730       51.5958640515      -21.2263906471  TIP3      16935           0.0000000000
    100636     17335  TIP3      H1             25.8823163387       51.0596466728      -20.4268636989  TIP3      16935           0.0000000000
    100637     17335  TIP3      H2             25.7279561049       52.4951759070      -20.8887999689  TIP3      16935           0.0000000000
    100638     17336  TIP3      OH2            24.5346225095       41.0124416749      -20.8762734406  TIP3      16936           0.0000000000
    100639     17336  TIP3      H1             24.4706911236       41.9192145651      -20.5111586643  TIP3      16936           0.0000000000
    100640     17336  TIP3      H2             25.4448254215       40.7732766953      -20.6283067520  TIP3      16936           0.0000000000
    100641     17337  TIP3      OH2            22.7823465973       51.4438910983      -21.8099089811  TIP3      16937           0.0000000000
    100642     17337  TIP3      H1             23.3956093807       52.1484373230      -21.5389395749  TIP3      16937           0.0000000000
    100643     17337  TIP3      H2             23.2868972699       51.0109435670      -22.5296581356  TIP3      16937           0.0000000000
    100644     17338  TIP3      OH2            21.1273817975       44.1176892795      -22.7055198024  TIP3      16938           0.0000000000
    100645     17338  TIP3      H1             21.0773516484       45.0440518311      -22.5086500696  TIP3      16938           0.0000000000
    100646     17338  TIP3      H2             20.2291197160       43.8765762704      -22.9633824424  TIP3      16938           0.0000000000
    100647     17339  TIP3      OH2            33.4266735839       53.6674981978      -23.3320206331  TIP3      16939           0.0000000000
    100648     17339  TIP3      H1             33.7459828353       52.8937565367      -22.8470214111  TIP3      16939           0.0000000000
    100649     17339  TIP3      H2             34.2025094781       53.9026540290      -23.8605140636  TIP3      16939           0.0000000000
    100650     17340  TIP3      OH2            24.3704982466       49.6157479421      -23.4473840292  TIP3      16940           0.0000000000
    100651     17340  TIP3      H1             24.4769734305       48.8079705109      -22.9349279682  TIP3      16940           0.0000000000
    100652     17340  TIP3      H2             25.0672985035       49.4783259433      -24.1271383110  TIP3      16940           0.0000000000
    100653     17341  TIP3      OH2            29.7739832338       50.6847399809      -23.6936318506  TIP3      16941           0.0000000000
    100654     17341  TIP3      H1             29.4693030521       50.7993606576      -22.8092415842  TIP3      16941           0.0000000000
    100655     17341  TIP3      H2             29.5603846279       49.7267821213      -23.8601368049  TIP3      16941           0.0000000000
    100656     17342  TIP3      OH2            26.6053397618       45.8165724805      -22.8890741544  TIP3      16942           0.0000000000
    100657     17342  TIP3      H1             26.4430246580       45.6849058074      -23.8311854872  TIP3      16942           0.0000000000
    100658     17342  TIP3      H2             27.5615277074       45.9151700148      -22.8323532827  TIP3      16942           0.0000000000
    100659     17343  TIP3      OH2            36.0358635622       48.1734015718      -23.4553688215  TIP3      16943           0.0000000000
    100660     17343  TIP3      H1             35.7191781865       47.7563019764      -24.2566652638  TIP3      16943           0.0000000000
    100661     17343  TIP3      H2             36.0416249917       49.1306324946      -23.6394863865  TIP3      16943           0.0000000000
    100662     17344  TIP3      OH2            20.0419084437       51.1619827795      -22.3749064012  TIP3      16944           0.0000000000
    100663     17344  TIP3      H1             20.9969975173       51.2215092428      -22.1366524766  TIP3      16944           0.0000000000
    100664     17344  TIP3      H2             20.0854887791       50.4666930436      -23.0734578369  TIP3      16944           0.0000000000
    100665     17345  TIP3      OH2            35.5075969758       44.2295551707      -22.7124544283  TIP3      16945           0.0000000000
    100666     17345  TIP3      H1             35.5671561892       44.9019788518      -23.3840352385  TIP3      16945           0.0000000000
    100667     17345  TIP3      H2             35.3267058519       43.4019878518      -23.1789924166  TIP3      16945           0.0000000000
    100668     17346  TIP3      OH2            34.7302792883       41.6408301569      -23.5910105977  TIP3      16946           0.0000000000
    100669     17346  TIP3      H1             35.3433254867       41.2723685390      -22.9421573269  TIP3      16946           0.0000000000
    100670     17346  TIP3      H2             33.8826378259       41.2308580782      -23.3715161805  TIP3      16946           0.0000000000
    100671     17347  TIP3      OH2            22.2865784705       40.5206348516      -22.5178679738  TIP3      16947           0.0000000000
    100672     17347  TIP3      H1             22.7661746897       39.8557567058      -23.0252022657  TIP3      16947           0.0000000000
    100673     17347  TIP3      H2             22.9040810354       40.7954631197      -21.8168241728  TIP3      16947           0.0000000000
    100674     17348  TIP3      OH2            22.0902533117       55.4386527536      -23.0023367880  TIP3      16948           0.0000000000
    100675     17348  TIP3      H1             21.8528982461       55.7214671129      -22.1110081510  TIP3      16948           0.0000000000
    100676     17348  TIP3      H2             22.8840644174       54.8875894828      -22.8491983590  TIP3      16948           0.0000000000
    100677     17349  TIP3      OH2            50.7521203132       55.3807375796      -21.8304650684  TIP3      16949           0.0000000000
    100678     17349  TIP3      H1             51.1960555189       54.6434748240      -22.2892922100  TIP3      16949           0.0000000000
    100679     17349  TIP3      H2             50.8191078110       55.1497920106      -20.8890195139  TIP3      16949           0.0000000000
    100680     17350  TIP3      OH2            51.9583076173       47.5807177648      -23.0249713099  TIP3      16950           0.0000000000
    100681     17350  TIP3      H1             52.0065323720       47.3757240267      -23.9900813817  TIP3      16950           0.0000000000
    100682     17350  TIP3      H2             52.8279439731       47.9916742306      -22.8817626831  TIP3      16950           0.0000000000
    100683     17351  TIP3      OH2            44.4155370302       41.9116275797      -23.3042883499  TIP3      16951           0.0000000000
    100684     17351  TIP3      H1             43.9762979519       41.4897889069      -22.5655941473  TIP3      16951           0.0000000000
    100685     17351  TIP3      H2             43.6916795187       42.3021680803      -23.8118126890  TIP3      16951           0.0000000000
    100686     17352  TIP3      OH2            43.0609761601       44.6473855066      -21.8616651647  TIP3      16952           0.0000000000
    100687     17352  TIP3      H1             42.5011041095       44.2992341883      -22.5856665111  TIP3      16952           0.0000000000
    100688     17352  TIP3      H2             43.8673462041       44.8845088614      -22.3486170741  TIP3      16952           0.0000000000
    100689     17353  TIP3      OH2            50.9776602330       43.9613636559      -20.1161202738  TIP3      16953           0.0000000000
    100690     17353  TIP3      H1             51.8738074473       43.7576514109      -19.7849589123  TIP3      16953           0.0000000000
    100691     17353  TIP3      H2             51.1077903204       44.7102956183      -20.6414866260  TIP3      16953           0.0000000000
    100692     17354  TIP3      OH2            55.8762972608       44.1496498855      -20.3939492390  TIP3      16954           0.0000000000
    100693     17354  TIP3      H1             55.2912891304       43.7869314464      -21.0771699049  TIP3      16954           0.0000000000
    100694     17354  TIP3      H2             55.9606214865       45.0801141341      -20.6709301824  TIP3      16954           0.0000000000
    100695     17355  TIP3      OH2            51.5706648379       50.9148922889      -22.1222851074  TIP3      16955           0.0000000000
    100696     17355  TIP3      H1             51.9257942800       50.5328884452      -21.3136874302  TIP3      16955           0.0000000000
    100697     17355  TIP3      H2             50.6250417416       50.8021187345      -22.0355662635  TIP3      16955           0.0000000000
    100698     17356  TIP3      OH2            44.6638911988       51.6107824503      -21.2308540075  TIP3      16956           0.0000000000
    100699     17356  TIP3      H1             44.7273549672       51.0495991021      -20.4379568349  TIP3      16956           0.0000000000
    100700     17356  TIP3      H2             44.5833338545       52.4843595960      -20.8697650555  TIP3      16956           0.0000000000
    100701     17357  TIP3      OH2            41.6252583442       51.4825919658      -21.8675126908  TIP3      16957           0.0000000000
    100702     17357  TIP3      H1             42.2631465584       52.1219735153      -21.5348261092  TIP3      16957           0.0000000000
    100703     17357  TIP3      H2             42.1525459347       50.9837811849      -22.5133565174  TIP3      16957           0.0000000000
    100704     17358  TIP3      OH2            40.0028194847       44.1343749905      -22.7434790262  TIP3      16958           0.0000000000
    100705     17358  TIP3      H1             39.9366569979       45.0498671930      -22.4720021722  TIP3      16958           0.0000000000
    100706     17358  TIP3      H2             39.0913681078       43.8702130996      -22.9288797322  TIP3      16958           0.0000000000
    100707     17359  TIP3      OH2            52.2751849783       53.6657185407      -23.3018701094  TIP3      16959           0.0000000000
    100708     17359  TIP3      H1             52.5945584473       52.8815946535      -22.8442080317  TIP3      16959           0.0000000000
    100709     17359  TIP3      H2             53.0388996444       53.9066968890      -23.8543427196  TIP3      16959           0.0000000000
    100710     17360  TIP3      OH2            43.1990824883       49.5972366276      -23.4806516609  TIP3      16960           0.0000000000
    100711     17360  TIP3      H1             43.3268547521       48.8249143084      -22.8946488338  TIP3      16960           0.0000000000
    100712     17360  TIP3      H2             43.9386504786       49.4764069592      -24.1118913544  TIP3      16960           0.0000000000
    100713     17361  TIP3      OH2            48.6413552843       50.6900077938      -23.6897560463  TIP3      16961           0.0000000000
    100714     17361  TIP3      H1             48.3104811459       50.7923332909      -22.8084917952  TIP3      16961           0.0000000000
    100715     17361  TIP3      H2             48.4026507977       49.7374043462      -23.8618534893  TIP3      16961           0.0000000000
    100716     17362  TIP3      OH2            44.4031199333       47.6458827410      -21.2211173208  TIP3      16962           0.0000000000
    100717     17362  TIP3      H1             43.9251787389       47.1589566987      -20.5286190430  TIP3      16962           0.0000000000
    100718     17362  TIP3      H2             44.6569817713       46.9133817451      -21.8024239366  TIP3      16962           0.0000000000
    100719     17363  TIP3      OH2            45.4802763076       45.7623236802      -22.8770899960  TIP3      16963           0.0000000000
    100720     17363  TIP3      H1             45.2893077947       45.6949522828      -23.8309655158  TIP3      16963           0.0000000000
    100721     17363  TIP3      H2             46.4236146465       45.9256364049      -22.8591610949  TIP3      16963           0.0000000000
    100722     17364  TIP3      OH2            54.8311370456       48.1700892684      -23.4221272267  TIP3      16964           0.0000000000
    100723     17364  TIP3      H1             54.5985048219       47.7638112385      -24.2683212466  TIP3      16964           0.0000000000
    100724     17364  TIP3      H2             54.9057307547       49.1243488808      -23.6485730718  TIP3      16964           0.0000000000
    100725     17365  TIP3      OH2            38.9083225228       51.1844291395      -22.4243862566  TIP3      16965           0.0000000000
    100726     17365  TIP3      H1             39.8486465979       51.1999388115      -22.1088726434  TIP3      16965           0.0000000000
    100727     17365  TIP3      H2             38.9412059326       50.4447664880      -23.0471787084  TIP3      16965           0.0000000000
    100728     17366  TIP3      OH2            55.9708840538       46.9487571049      -21.2404381561  TIP3      16966           0.0000000000
    100729     17366  TIP3      H1             55.4749351317       47.3657690488      -21.9756396641  TIP3      16966           0.0000000000
    100730     17366  TIP3      H2             55.9758436324       47.6668549306      -20.5705568289  TIP3      16966           0.0000000000
    100731     17367  TIP3      OH2            54.3593912051       44.2356785835      -22.7059862482  TIP3      16967           0.0000000000
    100732     17367  TIP3      H1             54.4330786081       44.9049102210      -23.3919868486  TIP3      16967           0.0000000000
    100733     17367  TIP3      H2             54.1745458292       43.4251894469      -23.1790513204  TIP3      16967           0.0000000000
    100734     17368  TIP3      OH2            55.5291202209       40.4475684605      -21.9441564142  TIP3      16968           0.0000000000
    100735     17368  TIP3      H1             55.9729839262       39.7639304761      -22.4439050388  TIP3      16968           0.0000000000
    100736     17368  TIP3      H2             56.1525908058       41.1724894528      -21.7936931006  TIP3      16968           0.0000000000
    100737     17369  TIP3      OH2            41.1180384399       40.4931119216      -22.4765824906  TIP3      16969           0.0000000000
    100738     17369  TIP3      H1             41.5990694875       39.8560625000      -23.0191009592  TIP3      16969           0.0000000000
    100739     17369  TIP3      H2             41.7162633175       40.7981731537      -21.8073979134  TIP3      16969           0.0000000000
    100740     17370  TIP3      OH2            41.0011614971       55.4492038360      -23.0508845519  TIP3      16970           0.0000000000
    100741     17370  TIP3      H1             40.7197035054       55.7157492409      -22.1718335632  TIP3      16970           0.0000000000
    100742     17370  TIP3      H2             41.7662414696       54.8827699483      -22.8590102537  TIP3      16970           0.0000000000
    100743     17371  SOD       SOD             3.6345057480       32.1462620854      -37.2032960618  IONS      1               1.0000000000
    100744     17372  SOD       SOD           -26.3682250826       49.0056520567       39.0744557071  IONS      2               1.0000000000
    100745     17373  SOD       SOD           -47.2344264449       53.5778676155       28.2223889430  IONS      3               1.0000000000
    100746     17374  SOD       SOD            48.7793252914      -20.8390318872       30.7833887705  IONS      4               1.0000000000
    100747     17375  SOD       SOD            13.2796314331      -12.2245648442       40.6498756033  IONS      5               1.0000000000
    100748     17376  SOD       SOD            39.1953009116      -47.5282112167      -30.3827836821  IONS      6               1.0000000000
    100749     17377  SOD       SOD            51.2445678162        2.5386862334      -34.1343861962  IONS      7               1.0000000000
    100750     17378  SOD       SOD            19.6749095919       23.9607841334       25.0006059720  IONS      8               1.0000000000
    100751     17379  SOD       SOD            54.0598076143       54.6917996893      -29.6249931222  IONS      9               1.0000000000
    100752     17380  SOD       SOD            49.7905065287        5.0301749202      -23.6286366418  IONS      10              1.0000000000
    100753     17381  SOD       SOD           -55.4909486540      -13.7145797187       26.3126726460  IONS      11              1.0000000000
    100754     17382  SOD       SOD            50.7118706504       -9.2493366646      -28.0309755401  IONS      12              1.0000000000
    100755     17383  SOD       SOD            42.9769922727       31.0311037060       35.0120516941  IONS      13              1.0000000000
    100756     17384  SOD       SOD           -25.5552139461       -8.2108192990       33.5156578619  IONS      14              1.0000000000
    100757     17385  SOD       SOD            -6.0934175335      -11.8874269166      -27.5854196854  IONS      15              1.0000000000
    100758     17386  SOD       SOD           -14.1619947151       41.3008421475      -37.9002765945  IONS      16              1.0000000000
    100759     17387  SOD       SOD            19.0849001160       34.6022072653      -21.8733349310  IONS      17              1.0000000000
    100760     17388  SOD       SOD            55.0943793104       44.6884037654      -37.6877170315  IONS      18              1.0000000000
    100761     17389  SOD       SOD            35.5399079456       24.0608101575       41.0378749307  IONS      19              1.0000000000
    100762     17390  SOD       SOD            -8.2202750336       23.2124887428       25.4335943242  IONS      20              1.0000000000
    100763     17391  SOD       SOD           -18.3939722939       31.8633949623      -35.2375201432  IONS      21              1.0000000000
    100764     17392  SOD       SOD           -15.3483735327      -36.4407896128      -39.0448075752  IONS      22              1.0000000000
    100765     17393  SOD       SOD            -1.1559895731      -49.3969880771      -27.4515522896  IONS      23              1.0000000000
    100766     17394  SOD       SOD            15.2146701258      -35.9176495332       38.4915793573  IONS      24              1.0000000000
    100767     17395  SOD       SOD           -13.9173736799      -51.5191487954      -41.9443699752  IONS      25              1.0000000000
    100768     17396  SOD       SOD            21.2753358610      -49.0232740806       35.9236357625  IONS      26              1.0000000000
    100769     17397  SOD       SOD            28.9892919573      -23.5541030046      -34.4358109668  IONS      27              1.0000000000
    100770     17398  SOD       SOD           -46.5269946143       35.7421241583       28.6346398743  IONS      28              1.0000000000
    100771     17399  SOD       SOD             6.2312244770        4.0840889129      -37.2908205639  IONS      29              1.0000000000
    100772     17400  SOD       SOD            28.1351782651      -11.3370374551       27.8335151798  IONS      30              1.0000000000
    100773     17401  SOD       SOD           -36.3862097660       55.0458648006      -41.0582921891  IONS      31              1.0000000000
    100774     17402  SOD       SOD            55.6165167727       -8.5336863658       34.4193592618  IONS      32              1.0000000000
    100775     17403  SOD       SOD            39.8375573980       45.1889733686      -35.1804615367  IONS      33              1.0000000000
    100776     17404  SOD       SOD            32.9887757040        8.2169274217       31.4245631735  IONS      34              1.0000000000
    100777     17405  SOD       SOD            29.0546531555       16.0974591779      -31.9796769341  IONS      35              1.0000000000
    100778     17406  SOD       SOD           -41.1968046678       -7.6695012198       30.7154964070  IONS      36              1.0000000000
    100779     17407  SOD       SOD            33.2470578852       -1.0275223715      -38.6761117573  IONS      37              1.0000000000
    100780     17408  SOD       SOD           -46.6687216222       18.1993884461       27.8566093300  IONS      38              1.0000000000
    100781     17409  SOD       SOD            50.3332828677      -54.1102953952      -37.1010779582  IONS      39              1.0000000000
    100782     17410  SOD       SOD            14.3332956066       12.4461956304       31.5154620895  IONS      40              1.0000000000
    100783     17411  SOD       SOD           -25.2011307931      -36.1532927160       37.9584748752  IONS      41              1.0000000000
    100784     17412  SOD       SOD            19.7168942896      -16.3344418543      -26.2628163462  IONS      42              1.0000000000
    100785     17413  SOD       SOD           -17.1718238688      -10.4456868239       29.7765339654  IONS      43              1.0000000000
    100786     17414  SOD       SOD           -23.1902079516       11.3106508232       27.1241141143  IONS      44              1.0000000000
    100787     17415  SOD       SOD            23.4521291226      -14.4155244260       40.2197528707  IONS      45              1.0000000000
    100788     17416  SOD       SOD            25.6057045904      -17.9925557988      -23.8673309652  IONS      46              1.0000000000
    100789     17417  SOD       SOD            52.6552856265      -56.7091285291       22.2734744535  IONS      47              1.0000000000
    100790     17418  SOD       SOD           -53.8855065065        7.2073626715      -36.7062765371  IONS      48              1.0000000000
    100791     17419  SOD       SOD           -33.3695716195      -10.2306600994       33.3522144364  IONS      49              1.0000000000
    100792     17420  SOD       SOD            13.0657966989      -49.1822141385       25.3669077031  IONS      50              1.0000000000
    100793     17421  SOD       SOD             0.2801672796       52.9463020846      -35.1483833368  IONS      51              1.0000000000
    100794     17422  SOD       SOD            46.5404999625      -39.1738112474      -39.1050920509  IONS      52              1.0000000000
    100795     17423  SOD       SOD           -49.0017772281       37.1709121803      -27.5893944947  IONS      53              1.0000000000
    100796     17424  SOD       SOD            32.3543119193       -8.0253114088       38.0761887680  IONS      54              1.0000000000
    100797     17425  SOD       SOD           -25.4710205127       45.5124170848      -27.0125018287  IONS      55              1.0000000000
    100798     17426  SOD       SOD            54.2145177354       -7.3552013881      -40.1886860629  IONS      56              1.0000000000
    100799     17427  SOD       SOD           -49.0069239016       10.1367438212       26.5343049731  IONS      57              1.0000000000
    100800     17428  SOD       SOD           -30.0204426576      -31.1930262460       36.2922137716  IONS      58              1.0000000000
    100801     17429  SOD       SOD           -30.9529518769      -44.9141166772       40.3408897292  IONS      59              1.0000000000
    100802     17430  SOD       SOD           -49.7979408580      -40.6450253546       40.4042625374  IONS      60              1.0000000000
    100803     17431  SOD       SOD            -6.3058040173       14.8445340182       26.5681115737  IONS      61              1.0000000000
    100804     17432  SOD       SOD            -9.3497698067       45.3791349965       24.4249007202  IONS      62              1.0000000000
    100805     17433  SOD       SOD            26.3487021180       25.3468498503       27.4212582683  IONS      63              1.0000000000
    100806     17434  SOD       SOD           -30.9136093586      -50.3566746257      -28.1456575856  IONS      64              1.0000000000
    100807     17435  SOD       SOD            19.4780638971      -15.1274050015       33.3934449829  IONS      65              1.0000000000
    100808     17436  SOD       SOD            13.9973003113       -8.7902756990       28.8408066544  IONS      66              1.0000000000
    100809     17437  SOD       SOD            20.3022861951       18.7154966052       28.9131919712  IONS      67              1.0000000000
    100810     17438  SOD       SOD            17.3596515113       39.4596356414      -29.9305512996  IONS      68              1.0000000000
    100811     17439  SOD       SOD           -26.3423570375       28.7742446434      -41.2499947984  IONS      69              1.0000000000
    100812     17440  SOD       SOD           -16.9752104430       53.7335359204       36.0951864279  IONS      70              1.0000000000
    100813     17441  SOD       SOD            20.5943666816       29.6006359347       23.4117516586  IONS      71              1.0000000000
    100814     17442  SOD       SOD            36.1553794482       10.3692356603      -34.5629461036  IONS      72              1.0000000000
    100815     17443  SOD       SOD           -40.1793427008       36.2130589436      -34.4056454689  IONS      73              1.0000000000
    100816     17444  SOD       SOD            20.0583514817       49.8304071305       35.9896722677  IONS      74              1.0000000000
    100817     17445  SOD       SOD            15.8781930278      -16.3969455697      -32.5397828188  IONS      75              1.0000000000
    100818     17446  SOD       SOD           -41.1249670729       56.3974371276      -37.4908180110  IONS      76              1.0000000000
    100819     17447  SOD       SOD            53.0829882162      -47.5870243533      -27.3228045137  IONS      77              1.0000000000
    100820     17448  SOD       SOD           -46.2031169047       32.9929951154      -32.8339624210  IONS      78              1.0000000000
    100821     17449  SOD       SOD           -14.4286894734        9.7670314626       38.6658364142  IONS      79              1.0000000000
    100822     17450  SOD       SOD           -12.6668783262        8.1111684946      -38.0577141748  IONS      80              1.0000000000
    100823     17451  SOD       SOD           -39.5210350681        1.6234669300      -30.4026394274  IONS      81              1.0000000000
    100824     17452  SOD       SOD            52.5377833825       55.6205371851      -37.6681903232  IONS      82              1.0000000000
    100825     17453  SOD       SOD            39.8131469881       47.9699155084      -26.0255948337  IONS      83              1.0000000000
    100826     17454  SOD       SOD           -23.3582884652      -38.1476806091      -39.7673958025  IONS      84              1.0000000000
    100827     17455  SOD       SOD            -9.8239227454       14.4809779412       32.9540119631  IONS      85              1.0000000000
    100828     17456  SOD       SOD            12.4271898028       12.4023098557       41.6120944045  IONS      86              1.0000000000
    100829     17457  SOD       SOD            47.7446648869      -13.3914744156       36.3485177740  IONS      87              1.0000000000
    100830     17458  SOD       SOD           -55.5258503178       40.9904857505      -22.9517148619  IONS      88              1.0000000000
    100831     17459  SOD       SOD           -45.3091492124       33.9703785917      -26.4462444293  IONS      89              1.0000000000
    100832     17460  SOD       SOD            -1.6012706619      -36.2334842564       29.9852704763  IONS      90              1.0000000000
    100833     17461  SOD       SOD            22.1091986677       -3.4823983168      -31.5846221245  IONS      91              1.0000000000
    100834     17462  SOD       SOD            54.6551789145      -55.0006023786      -31.2308539465  IONS      92              1.0000000000
    100835     17463  SOD       SOD           -18.6312903084      -41.9616222063      -28.9139925456  IONS      93              1.0000000000
    100836     17464  SOD       SOD            27.3400629026      -28.0059888723       41.5316230065  IONS      94              1.0000000000
    100837     17465  SOD       SOD           -42.3385374840      -32.5352007688      -39.9738599822  IONS      95              1.0000000000
    100838     17466  SOD       SOD           -24.0777861275        4.2308967916      -30.1969696303  IONS      96              1.0000000000
    100839     17467  SOD       SOD           -12.1082014988      -30.5362497585       29.7625731349  IONS      97              1.0000000000
    100840     17468  SOD       SOD            40.8501299820      -19.7259535980       28.8298655060  IONS      98              1.0000000000
    100841     17469  SOD       SOD            10.2318550070       40.9477023501      -26.9725620523  IONS      99              1.0000000000
    100842     17470  SOD       SOD            47.8397802562       20.4869452454       40.4395397061  IONS      100             1.0000000000
    100843     17471  SOD       SOD             9.2988121756       26.4434453484       28.1042943500  IONS      101             1.0000000000
    100844     17472  SOD       SOD            17.3319072856       44.2855208780      -36.4321942546  IONS      102             1.0000000000
    100845     17473  SOD       SOD            43.4828310913       52.7969327115       29.2519499683  IONS      103             1.0000000000
    100846     17474  SOD       SOD           -32.0729950999       17.7659933907      -33.2450454897  IONS      104             1.0000000000
    100847     17475  SOD       SOD            -3.1980350209      -39.8481034479      -37.6072467882  IONS      105             1.0000000000
    100848     17476  SOD       SOD            50.1268934075       33.2145416781       26.5902289199  IONS      106             1.0000000000
    100849     17477  SOD       SOD            40.0442103573      -16.0125618342      -39.1174456058  IONS      107             1.0000000000
    100850     17478  SOD       SOD           -47.0581195657      -22.4565546937       30.7885893297  IONS      108             1.0000000000
    100851     17479  SOD       SOD             5.2680569539       34.8325889698       40.8300292121  IONS      109             1.0000000000
    100852     17480  SOD       SOD            13.9322568061      -53.9268947392      -40.4536136772  IONS      110             1.0000000000
    100853     17481  SOD       SOD           -52.8383855599        8.3969475057      -26.3392039391  IONS      111             1.0000000000
    100854     17482  SOD       SOD            19.6044458466      -26.1645121238      -39.6567078956  IONS      112             1.0000000000
    100855     17483  SOD       SOD           -35.5598089419      -47.9478786259       33.6175847085  IONS      113             1.0000000000
    100856     17484  SOD       SOD            52.1424720967      -21.7519193793      -30.6296602099  IONS      114             1.0000000000
    100857     17485  SOD       SOD            49.2360524342      -17.3354745548       35.1525530691  IONS      115             1.0000000000
    100858     17486  SOD       SOD            19.3706210091       40.1260118923       30.8089089032  IONS      116             1.0000000000
    100859     17487  SOD       SOD            -8.3742001119       14.9670105110       37.3194301920  IONS      117             1.0000000000
    100860     17488  SOD       SOD            15.1127314713       55.0308128583       40.7445423909  IONS      118             1.0000000000
    100861     17489  SOD       SOD            30.8585035451      -31.3899362585       35.3726578063  IONS      119             1.0000000000
    100862     17490  SOD       SOD            -7.2254660821       10.5315706242      -27.2700242800  IONS      120             1.0000000000
    100863     17491  SOD       SOD           -31.0741040412      -43.4929104021      -23.3098275897  IONS      121             1.0000000000
    100864     17492  SOD       SOD            -8.9305199181      -13.0382298371      -30.4696759477  IONS      122             1.0000000000
    100865     17493  SOD       SOD           -49.7562891646        4.3939649308       29.7864103579  IONS      123             1.0000000000
    100866     17494  SOD       SOD            -6.4757165941      -28.3128315009       39.7800554804  IONS      124             1.0000000000
    100867     17495  SOD       SOD           -43.1598054494      -45.0102446399      -41.2652939751  IONS      125             1.0000000000
    100868     17496  SOD       SOD            50.5251478445       23.9121154615      -32.9730130273  IONS      126             1.0000000000
    100869     17497  SOD       SOD           -11.3481111485       48.3667206835       34.4533327710  IONS      127             1.0000000000
    100870     17498  SOD       SOD           -14.9330413592      -37.5720432529       35.2494509623  IONS      128             1.0000000000
    100871     17499  SOD       SOD            50.8443316801       35.0462417668      -32.1308895919  IONS      129             1.0000000000
    100872     17500  SOD       SOD           -56.1156623807      -18.0366001135       37.6351509552  IONS      130             1.0000000000
    100873     17501  SOD       SOD           -35.3007002806      -48.1215701159       25.6390910913  IONS      131             1.0000000000
    100874     17502  SOD       SOD           -10.1051522907       20.4232392525       28.7528838629  IONS      132             1.0000000000
    100875     17503  SOD       SOD            27.8485208208      -43.1072399981      -34.4189859465  IONS      133             1.0000000000
    100876     17504  SOD       SOD            20.1889222292       -7.9584015723      -39.4991741199  IONS      134             1.0000000000
    100877     17505  SOD       SOD           -52.9413671802      -42.0930868020      -28.8453187792  IONS      135             1.0000000000
    100878     17506  SOD       SOD            52.1003376214      -29.1445962059      -40.9429130819  IONS      136             1.0000000000
    100879     17507  CLA       CLA           -44.2748403606      -43.9691191583      -33.0119296093  IONS      137            -1.0000000000
    100880     17508  CLA       CLA           -31.4089964620      -35.9815570030      -36.7359735914  IONS      138            -1.0000000000
    100881     17509  CLA       CLA           -49.2471586736       10.0898100063       39.1295363767  IONS      139            -1.0000000000
    100882     17510  CLA       CLA            11.6700804462       35.3143928805       34.6191205337  IONS      140            -1.0000000000
    100883     17511  CLA       CLA            26.1678474156      -54.2198738015       35.9402801035  IONS      141            -1.0000000000
    100884     17512  CLA       CLA           -10.4411673934       28.2394431270       30.5342754040  IONS      142            -1.0000000000
    100885     17513  CLA       CLA           -52.1157149309      -22.6295247577      -30.9080152098  IONS      143            -1.0000000000
    100886     17514  CLA       CLA           -13.3374351699      -27.0155210082       36.7541113398  IONS      144            -1.0000000000
    100887     17515  CLA       CLA            41.4684032300       12.2269079879       40.2806315166  IONS      145            -1.0000000000
    100888     17516  CLA       CLA            46.0378681309       21.6325105901       35.2291169840  IONS      146            -1.0000000000
    100889     17517  CLA       CLA            53.8958493920      -45.2192949873      -36.3438880357  IONS      147            -1.0000000000
    100890     17518  CLA       CLA            18.4373274407       21.8550103554       29.3755730809  IONS      148            -1.0000000000
    100891     17519  CLA       CLA            25.2849707368       28.4712845690       38.6076731206  IONS      149            -1.0000000000
    100892     17520  CLA       CLA            -3.3881455228      -19.1656592452       24.9643800081  IONS      150            -1.0000000000
    100893     17521  CLA       CLA           -20.6855487141        8.5017167528       34.7179274520  IONS      151            -1.0000000000
    100894     17522  CLA       CLA             9.8646784823       10.4654431030       32.3560443364  IONS      152            -1.0000000000
    100895     17523  CLA       CLA             7.1368598138       -8.3528776733       35.6755062047  IONS      153            -1.0000000000
    100896     17524  CLA       CLA            55.3302732358       13.5495508545       33.1279484785  IONS      154            -1.0000000000
    100897     17525  CLA       CLA             8.1143617424       19.3718959849      -37.3449908129  IONS      155            -1.0000000000
    100898     17526  CLA       CLA            20.0427419526      -18.9010351530       31.8699884158  IONS      156            -1.0000000000
    100899     17527  CLA       CLA           -38.7988975813      -44.2097116634       32.9407746276  IONS      157            -1.0000000000
    100900     17528  CLA       CLA           -35.0456456164       19.5029032085      -41.8809863006  IONS      158            -1.0000000000
    100901     17529  CLA       CLA            23.0113059508      -20.4919398458       31.7779925151  IONS      159            -1.0000000000
    100902     17530  CLA       CLA           -41.0132813972       45.8415605934      -38.2589278880  IONS      160            -1.0000000000
    100903     17531  CLA       CLA             0.6028743734      -29.5331840106       42.5035598924  IONS      161            -1.0000000000
    100904     17532  CLA       CLA           -12.5588657525       -7.8377345627       25.0376106479  IONS      162            -1.0000000000
    100905     17533  CLA       CLA             2.8641307152      -41.2454466934       30.8368053763  IONS      163            -1.0000000000
    100906     17534  CLA       CLA           -20.2441574246        1.6038858350      -36.7802132935  IONS      164            -1.0000000000
    100907     17535  CLA       CLA           -39.5057381196       16.2124365998      -30.4707972195  IONS      165            -1.0000000000
    100908     17536  CLA       CLA             8.0176322757      -21.9834086461      -41.1759972476  IONS      166            -1.0000000000
    100909     17537  CLA       CLA           -11.0427401868       14.8985388435       28.1176508209  IONS      167            -1.0000000000
    100910     17538  CLA       CLA           -43.3335681088      -19.9782290101      -32.6317790695  IONS      168            -1.0000000000
    100911     17539  CLA       CLA           -18.5577941596      -30.6226888605      -41.1486862868  IONS      169            -1.0000000000
    100912     17540  CLA       CLA            19.2623939503       44.6619415118      -27.9442967329  IONS      170            -1.0000000000
    100913     17541  CLA       CLA            17.6159054543       45.4777781258       28.4434007486  IONS      171            -1.0000000000
    100914     17542  CLA       CLA            43.9091819611      -46.7826717886      -29.2039192930  IONS      172            -1.0000000000
    100915     17543  CLA       CLA           -48.7619379408       45.8927938897      -31.2860554024  IONS      173            -1.0000000000
    100916     17544  CLA       CLA            -3.7910677474      -18.8655372447       34.5847260929  IONS      174            -1.0000000000
    100917     17545  CLA       CLA           -44.9126115019      -10.7393031058      -33.4488588638  IONS      175            -1.0000000000
    100918     17546  CLA       CLA            16.8738863004       46.2138307402       40.6279089473  IONS      176            -1.0000000000
    100919     17547  CLA       CLA            10.6140540393      -55.8349170545      -32.6931755068  IONS      177            -1.0000000000
    100920     17548  CLA       CLA           -12.3758501603      -22.0997973207      -27.8725046348  IONS      178            -1.0000000000
    100921     17549  CLA       CLA           -19.4220306568       56.0909187709      -26.3257141137  IONS      179            -1.0000000000
    100922     17550  CLA       CLA           -11.7704172170        7.0574506608       41.5892026170  IONS      180            -1.0000000000
